Title
43181
    1CHL1    C3    1   5.848   1.898   7.422 -0.8371 -0.5389  0.4214
    1CHL1    H3    2   5.864   1.788   7.424  0.9911 -0.2937  1.1825
    1CHL1    O3    3   5.883   1.939   7.553 -0.3863 -0.0703  0.4201
    1CHL1   H3'    4   5.977   1.923   7.550 -0.7280 -2.3580 -0.9337
    1CHL1    C4    5   5.948   1.960   7.322  0.7273 -0.6582 -0.5883
    1CHL1   H4A    6   5.957   2.068   7.345  1.1495 -1.0350  1.1793
    1CHL1   H4B    7   6.049   1.919   7.344  0.1551 -3.1022 -2.0857
    1CHL1    C5    8   5.915   1.949   7.181  0.0349  0.7934 -0.3696
    1CHL1    C6    9   6.003   1.895   7.091  0.8789  0.4492  0.6930
    1CHL1    H6   10   6.106   1.874   7.123  1.2396  1.2287  0.0716
    1CHL1    C7   11   5.972   1.884   6.942  0.2114  0.1653  0.1166
    1CHL1   H7A   12   6.051   1.938   6.885 -0.4398 -0.3554 -1.3182
    1CHL1   H7B   13   5.963   1.783   6.897 -0.5354  0.6962 -0.9612
    1CHL1    C8   14   5.839   1.957   6.899  0.3483 -0.2646  0.1024
    1CHL1    H8   15   5.873   2.061   6.882 -1.1980  0.1633 -0.4972
    1CHL1   C14   16   5.780   1.909   6.765  0.2201  0.2003  0.5703
    1CHL1   H14   17   5.744   1.807   6.791  0.9739  0.3529  2.3403
    1CHL1   C15   18   5.879   1.871   6.647  0.3611 -0.4923 -0.6671
    1CHL1  H15A   19   5.966   1.939   6.641 -0.0627 -0.0248 -2.1280
    1CHL1  H15B   20   5.910   1.766   6.668 -1.6942 -0.9543  0.3557
    1CHL1   C16   21   5.785   1.869   6.526  0.0168 -0.5408  0.7089
    1CHL1  H16A   22   5.821   1.951   6.460 -2.5116  0.1188  0.0434
    1CHL1  H16B   23   5.796   1.771   6.475  0.1024 -1.2169  1.9807
    1CHL1   C17   24   5.648   1.909   6.574 -0.2559  0.5063  0.0788
    1CHL1   H17   25   5.593   1.816   6.602  1.3664  0.1825  2.5167
    1CHL1   C13   26   5.664   1.989   6.703 -0.4110  0.2889  0.5698
    1CHL1   C18   27   5.705   2.134   6.691  0.5515 -0.9077  0.7490
    1CHL1  H18A   28   5.734   2.186   6.785  2.8133  1.9797 -1.3323
    1CHL1  H18B   29   5.791   2.148   6.621 -0.7471  1.2670 -0.5358
    1CHL1  H18C   30   5.619   2.188   6.646 -0.0870 -2.0607  0.5476
    1CHL1   C12   31   5.557   1.978   6.805  0.2064 -0.3707 -0.0023
    1CHL1  H12A   32   5.468   2.036   6.773  1.4679  1.5296 -0.2324
    1CHL1  H12B   33   5.522   1.874   6.819  0.5594 -0.3613  1.0454
    1CHL1   C11   34   5.598   2.019   6.947  0.1226  0.1032 -0.4135
    1CHL1  H11A   35   5.626   2.126   6.944 -1.1088  0.4648  0.4670
    1CHL1  H11B   36   5.528   2.004   7.032  1.8831  1.4737  1.3900
    1CHL1    C9   37   5.728   1.953   6.999  0.2377  1.2235  0.1544
    1CHL1    H9   38   5.706   1.845   7.007  1.3150  1.0683  1.4716
    1CHL1   C10   39   5.773   2.000   7.144  0.2405 -0.4062 -0.1230
    1CHL1   C19   40   5.785   2.158   7.145 -0.1069  0.5801  0.3550
    1CHL1  H19A   41   5.699   2.223   7.118  0.2980  2.0740  2.4102
    1CHL1  H19B   42   5.821   2.191   7.245 -0.6312 -0.8335  1.0269
    1CHL1  H19C   43   5.863   2.192   7.074  0.0608 -0.0229  0.2524
    1CHL1    C1   44   5.672   1.947   7.246  0.0913 -0.1665  0.4186
    1CHL1   H1A   45   5.572   1.991   7.228  0.9118  0.6005 -3.0354
    1CHL1   H1B   46   5.649   1.840   7.223 -1.2830  0.1840  0.0686
    1CHL1    C2   47   5.704   1.956   7.395  0.1461 -0.3853 -0.4324
    1CHL1   H2A   48   5.627   1.913   7.463  1.0933 -0.6219  0.5357
    1CHL1   H2B   49   5.713   2.066   7.408  0.8283 -0.2169 -2.1684
    1CHL1   C20   50   5.564   1.979   6.461  0.1143 -0.6256 -0.3331
    1CHL1   H20   51   5.589   2.086   6.444 -5.1750  1.0806  0.7147
    1CHL1   C21   52   5.414   1.985   6.508 -0.1507  0.2511  0.3456
    1CHL1  H21A   53   5.359   2.045   6.432  0.8691  1.6146  0.6396
    1CHL1  H21B   54   5.385   2.040   6.600 -0.2210 -0.5555  0.8174
    1CHL1  H21C   55   5.379   1.881   6.493  0.4915  0.3207 -2.0234
    1CHL1   C22   56   5.579   1.911   6.322  0.3290  0.5312 -0.2976
    1CHL1  H22A   57   5.682   1.917   6.281 -0.5367  1.9915 -2.4273
    1CHL1  H22B   58   5.542   1.808   6.336  0.9143  0.6058  2.5140
    1CHL1   C23   59   5.477   1.952   6.214 -0.3709  0.2546  0.7182
    1CHL1  H23A   60   5.498   1.904   6.116  2.0682 -0.4670  1.5040
    1CHL1  H23B   61   5.372   1.924   6.236 -0.8008 -1.3921 -2.7655
    1CHL1   C24   62   5.476   2.102   6.175  0.9074  0.2218  0.0340
    1CHL1  H24A   63   5.470   2.164   6.267 -1.6797 -1.0014  0.7880
    1CHL1  H24B   64   5.573   2.127   6.127 -0.4167  2.3968 -1.6635
    1CHL1   C25   65   5.373   2.136   6.073  0.5715 -0.3915  0.0833
    1CHL1   H25   66   5.280   2.099   6.121  0.8425 -0.3897  0.6084
    1CHL1   C26   67   5.354   2.289   6.043 -0.8381 -0.2490 -0.9420
    1CHL1  H26A   68   5.351   2.337   6.143 -1.1337  0.7050 -1.3961
    1CHL1  H26B   69   5.443   2.320   5.983  0.8114 -0.4398  1.2630
    1CHL1  H26C   70   5.260   2.298   5.985 -1.5360 -1.3513 -0.0011
    1CHL1   C27   71   5.379   2.060   5.941  0.4516 -0.1811  0.5064
    1CHL1  H27A   72   5.480   2.067   5.895 -0.1758 -1.4968 -1.1972
    1CHL1  H27B   73   5.357   1.952   5.953  1.1062 -0.1562  2.0372
    1CHL1  H27C   74   5.311   2.104   5.864 -0.6158 -2.7069 -0.1058
    2CHL1    C3   75   6.477   1.079   7.738  0.5928  0.4649  0.1277
    2CHL1    H3   76   6.377   1.124   7.721  0.8341  0.9903  0.0836
    2CHL1    O3   77   6.478   1.017   7.870 -0.0731  0.6316 -0.3516
    2CHL1   H3'   78   6.427   0.938   7.853 -1.3363  1.1594  0.8099
    2CHL1    C4   79   6.510   0.969   7.636  0.1145  0.0611  0.4580
    2CHL1   H4A   80   6.602   0.912   7.661 -0.2332 -1.6216 -1.8043
    2CHL1   H4B   81   6.426   0.897   7.644 -0.0689 -0.2569 -2.9847
    2CHL1    C5   82   6.523   1.021   7.492 -0.6737 -0.0668 -0.1701
    2CHL1    C6   83   6.452   0.969   7.391  0.4155 -0.1835  0.0503
    2CHL1    H6   84   6.385   0.884   7.410  0.9875 -0.6326  0.1151
    2CHL1    C7   85   6.472   1.010   7.249  1.0766 -0.1326  0.0452
    2CHL1   H7A   86   6.457   0.921   7.185 -0.4452 -1.5358  2.2198
    2CHL1   H7B   87   6.386   1.079   7.237 -0.2102 -1.7252 -0.1687
    2CHL1    C8   88   6.606   1.081   7.221 -0.4196  0.3899 -0.7842
    2CHL1    H8   89   6.686   1.006   7.240  0.2497  1.1146 -0.7198
    2CHL1   C14   90   6.618   1.123   7.073  0.2237  0.6743  0.6223
    2CHL1   H14   91   6.528   1.187   7.060 -1.7342 -1.6597  1.7887
    2CHL1   C15   92   6.595   1.010   6.960 -0.4486 -0.0779 -0.5624
    2CHL1  H15A   93   6.673   0.933   6.971 -0.0738  0.1619 -1.4981
    2CHL1  H15B   94   6.488   0.980   6.961 -0.2335 -0.9087 -1.2398
    2CHL1   C16   95   6.642   1.097   6.835 -0.7587 -0.0432  0.1450
    2CHL1  H16A   96   6.709   1.022   6.787 -1.9786 -1.7343  1.0150
    2CHL1  H16B   97   6.556   1.138   6.777 -0.3435  1.4360  0.5283
    2CHL1   C17   98   6.716   1.231   6.892 -0.3518  0.2549 -0.0528
    2CHL1   H17   99   6.637   1.309   6.886 -0.6371  0.1947  2.0084
    2CHL1   C13  100   6.742   1.201   7.041 -0.1213 -0.3681  0.2841
    2CHL1   C18  101   6.866   1.105   7.057 -0.1082  0.1257 -0.4456
    2CHL1  H18A  102   6.959   1.157   7.027 -1.2238  0.8759 -2.8899
    2CHL1  H18B  103   6.872   1.070   7.162  2.6541 -2.3789 -1.2984
    2CHL1  H18C  104   6.856   1.013   6.995 -1.6809 -0.5407  0.7348
    2CHL1   C12  105   6.755   1.324   7.130 -0.2950 -0.4778 -0.4719
    2CHL1  H12A  106   6.859   1.362   7.129 -0.5843  0.4532 -2.9177
    2CHL1  H12B  107   6.682   1.404   7.103 -1.0011 -0.5389  1.1472
    2CHL1   C11  108   6.738   1.288   7.280 -0.1045  0.2912 -0.5020
    2CHL1  H11A  109   6.832   1.242   7.315 -0.2201 -0.8662 -1.6490
    2CHL1  H11B  110   6.713   1.379   7.340 -0.0073  0.1344 -0.2260
    2CHL1    C9  111   6.619   1.191   7.320 -0.1063 -0.3182 -0.4610
    2CHL1    H9  112   6.529   1.256   7.311 -0.4250 -0.6753  0.0736
    2CHL1   C10  113   6.622   1.138   7.469 -1.2006  0.9725 -0.0909
    2CHL1   C19  114   6.769   1.089   7.503  0.5288  0.1983  0.2158
    2CHL1  H19A  115   6.778   1.025   7.593  3.9815 -0.5198 -0.5000
    2CHL1  H19B  116   6.817   1.033   7.420 -2.3923  0.4670 -1.7885
    2CHL1  H19C  117   6.840   1.173   7.520  2.2546 -1.3523  1.1164
    2CHL1    C1  118   6.586   1.246   7.576  0.1885  0.2739  0.0234
    2CHL1   H1A  119   6.669   1.318   7.556 -0.6040  1.4556  0.9040
    2CHL1   H1B  120   6.493   1.303   7.555 -1.2921 -2.0184  0.0088
    2CHL1    C2  121   6.577   1.198   7.724 -0.2488  0.0742 -0.5675
    2CHL1   H2A  122   6.537   1.284   7.781 -0.3751  0.7454 -1.6554
    2CHL1   H2B  123   6.684   1.184   7.753  0.3631  0.8750 -2.2962
    2CHL1   C20  124   6.834   1.271   6.800  0.2756  0.3584  0.5527
    2CHL1   H20  125   6.917   1.201   6.823 -0.0670  0.0648  0.9080
    2CHL1   C21  126   6.887   1.408   6.833 -0.1122 -1.1833 -0.2206
    2CHL1  H21A  127   6.817   1.493   6.823  1.5411  0.1864 -0.7330
    2CHL1  H21B  128   6.971   1.435   6.766  0.1393 -1.7090 -0.1266
    2CHL1  H21C  129   6.947   1.399   6.926 -1.8451 -0.4046  1.0283
    2CHL1   C22  130   6.794   1.268   6.650  0.4267  0.1748 -0.1691
    2CHL1  H22A  131   6.882   1.264   6.582  2.1261  1.3408  1.8372
    2CHL1  H22B  132   6.741   1.173   6.627 -0.6423  0.1281  2.2202
    2CHL1   C23  133   6.700   1.379   6.598  0.1913 -0.0475 -0.2986
    2CHL1  H23A  134   6.610   1.381   6.663 -1.1384  0.4796 -2.0929
    2CHL1  H23B  135   6.744   1.481   6.593 -0.0457  0.0090 -1.4116
    2CHL1   C24  136   6.643   1.348   6.466 -0.5722  0.2236  0.6134
    2CHL1  H24A  137   6.729   1.311   6.406 -1.3951  0.2298 -0.5973
    2CHL1  H24B  138   6.566   1.268   6.474  1.1939 -1.6413 -0.0161
    2CHL1   C25  139   6.577   1.459   6.388  0.3219 -0.1547 -0.1365
    2CHL1   H25  140   6.530   1.527   6.462  0.6737  1.5178 -1.3846
    2CHL1   C26  141   6.674   1.540   6.295 -0.2724 -0.5165  0.3898
    2CHL1  H26A  142   6.721   1.473   6.220 -1.0174  1.0621 -1.5572
    2CHL1  H26B  143   6.631   1.618   6.230  1.1225 -0.4758 -0.5347
    2CHL1  H26C  144   6.752   1.594   6.354 -0.2821  0.6812 -0.6546
    2CHL1   C27  145   6.461   1.411   6.298  0.5604  0.0660 -0.0866
    2CHL1  H27A  146   6.446   1.494   6.226  3.6386  2.7446  2.0996
    2CHL1  H27B  147   6.509   1.332   6.235  1.7536  2.0334 -1.7663
    2CHL1  H27C  148   6.370   1.391   6.358 -0.6972  1.9538 -1.2604
    3CHL1    C3  149   6.812   0.737   7.910  0.3046  1.0264  0.0636
    3CHL1    H3  150   6.758   0.832   7.891 -1.4379  0.2803  1.0395
    3CHL1    O3  151   6.784   0.700   8.046 -0.5457 -0.0053  0.0766
    3CHL1   H3'  152   6.692   0.671   8.050 -0.8477  0.9925  0.8563
    3CHL1    C4  153   6.755   0.631   7.817  0.3326  0.8067  0.2295
    3CHL1   H4A  154   6.798   0.531   7.841 -0.0467  1.0303  1.9829
    3CHL1   H4B  155   6.648   0.616   7.841  0.6972  1.2567  2.4013
    3CHL1    C5  156   6.785   0.661   7.672  0.4979  0.2227  0.7335
    3CHL1    C6  157   6.680   0.662   7.579 -0.1701 -0.7258 -0.4800
    3CHL1    H6  158   6.577   0.646   7.613 -0.8752  0.9710 -1.6452
    3CHL1    C7  159   6.710   0.691   7.435 -0.4413 -0.3700  0.4734
    3CHL1   H7A  160   6.635   0.630   7.380  0.1314  0.8586 -1.8062
    3CHL1   H7B  161   6.697   0.800   7.415  0.8255  0.2684  2.7038
    3CHL1    C8  162   6.852   0.659   7.392 -0.6058 -0.1587  0.1875
    3CHL1    H8  163   6.855   0.550   7.409 -1.2079 -0.3968 -1.0620
    3CHL1   C14  164   6.876   0.699   7.249 -0.1491 -0.0119 -0.0817
    3CHL1   H14  165   6.893   0.809   7.252  0.5345 -0.0597 -1.3651
    3CHL1   C15  166   6.768   0.676   7.137 -0.4267  0.3580 -0.4849
    3CHL1  H15A  167   6.721   0.576   7.151 -0.5955  0.4326 -0.5145
    3CHL1  H15B  168   6.692   0.757   7.140 -0.9043  0.0401 -2.3544
    3CHL1   C16  169   6.846   0.677   7.010  0.6629 -0.4558 -0.3885
    3CHL1  H16A  170   6.830   0.583   6.953  1.0028 -0.3104 -0.7299
    3CHL1  H16B  171   6.813   0.759   6.943 -0.6020  1.2192  2.1277
    3CHL1   C17  172   6.993   0.702   7.041  0.6601 -0.3964  0.1536
    3CHL1   H17  173   7.015   0.810   7.055 -0.1320 -0.4476  2.1736
    3CHL1   C13  174   7.016   0.645   7.196  0.3411  0.0506  0.1034
    3CHL1   C18  175   7.026   0.488   7.198 -0.3163 -0.4358  0.1315
    3CHL1  H18A  176   6.955   0.447   7.124  0.3956 -0.9977 -0.2464
    3CHL1  H18B  177   7.126   0.451   7.168 -2.0359 -3.2548 -2.6618
    3CHL1  H18C  178   7.011   0.448   7.301  0.6959  0.8450  0.8052
    3CHL1   C12  179   7.128   0.721   7.274  0.4000 -0.4217 -0.2336
    3CHL1  H12A  180   7.224   0.680   7.238  0.1867  1.1956 -2.9801
    3CHL1  H12B  181   7.126   0.829   7.246  1.6869  0.2157  1.8858
    3CHL1   C11  182   7.101   0.702   7.425  0.8482 -0.0078 -0.4448
    3CHL1  H11A  183   7.133   0.597   7.447 -1.0385 -0.1740  2.0605
    3CHL1  H11B  184   7.172   0.766   7.482 -0.9795 -0.4031  2.5408
    3CHL1    C9  185   6.959   0.722   7.484 -0.0845  0.4585  0.7877
    3CHL1    H9  186   6.942   0.831   7.471  0.7346  0.4420 -0.6662
    3CHL1   C10  187   6.930   0.688   7.631 -1.0852 -0.9021 -0.3936
    3CHL1   C19  188   6.996   0.553   7.649  0.6739 -0.1872  0.5966
    3CHL1  H19A  189   6.977   0.510   7.749 -2.0797  0.5974  0.4905
    3CHL1  H19B  190   6.960   0.479   7.574  1.1858  0.8449 -0.7272
    3CHL1  H19C  191   7.106   0.562   7.642  0.9892 -3.5710 -0.2282
    3CHL1    C1  192   6.987   0.787   7.741 -0.1416 -0.2601  0.3653
    3CHL1   H1A  193   7.096   0.784   7.718 -0.0663 -4.4562  0.5249
    3CHL1   H1B  194   6.943   0.887   7.720  3.4442  1.2604 -0.6732
    3CHL1    C2  195   6.967   0.753   7.891  0.0343  0.8614 -0.0640
    3CHL1   H2A  196   6.997   0.840   7.953 -2.1147  0.5388  1.5105
    3CHL1   H2B  197   7.034   0.668   7.919 -0.5630  0.0651 -0.9872
    3CHL1   C20  198   7.084   0.640   6.934  0.0235  0.2305 -0.5320
    3CHL1   H20  199   7.077   0.530   6.943  1.7230  0.2195  0.9519
    3CHL1   C21  200   7.228   0.668   6.976 -0.5563 -0.4521 -0.0630
    3CHL1  H21A  201   7.249   0.771   7.014  1.3496 -0.8555  0.0805
    3CHL1  H21B  202   7.294   0.664   6.887  0.3850 -0.9019  0.6312
    3CHL1  H21C  203   7.265   0.582   7.036  1.1424 -2.1830 -3.3588
    3CHL1   C22  204   7.056   0.688   6.782  0.5215  0.2537  0.4598
    3CHL1  H22A  205   7.124   0.624   6.721  0.0099 -2.4399  2.5129
    3CHL1  H22B  206   6.950   0.660   6.766  0.3587  0.0111  1.7984
    3CHL1   C23  207   7.069   0.842   6.753  0.2018  0.7700  0.5232
    3CHL1  H23A  208   6.991   0.893   6.813 -3.0204 -0.7487 -2.0495
    3CHL1  H23B  209   7.165   0.875   6.798  1.3052 -1.0451 -0.3980
    3CHL1   C24  210   7.081   0.866   6.603  0.0912  0.2835 -0.0466
    3CHL1  H24A  211   7.182   0.831   6.572  0.9141 -0.2838  2.9678
    3CHL1  H24B  212   6.997   0.804   6.566  0.8641 -1.9736  1.7278
    3CHL1   C25  213   7.067   1.001   6.543 -0.1493 -0.5964 -0.3460
    3CHL1   H25  214   6.966   1.036   6.573  0.8246  2.3503 -0.0796
    3CHL1   C26  215   7.159   1.111   6.587 -0.5507 -0.6062  0.3110
    3CHL1  H26A  216   7.152   1.117   6.698  0.8619  3.0530  0.3541
    3CHL1  H26B  217   7.268   1.093   6.571 -0.3311  1.6227 -1.1565
    3CHL1  H26C  218   7.121   1.207   6.545 -2.2454 -0.9674  0.9355
    3CHL1   C27  219   7.059   0.987   6.393 -0.0200  0.2718  0.3613
    3CHL1  H27A  220   7.021   1.085   6.357 -1.7760  0.1600  1.7480
    3CHL1  H27B  221   7.160   0.970   6.350 -0.0186  0.9659  0.0782
    3CHL1  H27C  222   6.999   0.902   6.354  0.3036  0.0725  0.2968
    4CHL1    C3  223   4.806   0.509   7.998  0.4318  0.4350  0.3992
    4CHL1    H3  224   4.695   0.506   7.996  0.4413 -1.5444 -1.7020
    4CHL1    O3  225   4.855   0.461   8.119 -0.2313  0.0061 -0.4415
    4CHL1   H3'  226   4.950   0.473   8.123  0.0306 -2.0896  2.8443
    4CHL1    C4  227   4.866   0.413   7.892  0.2366 -0.1746  0.0375
    4CHL1   H4A  228   4.976   0.406   7.899  0.3047  0.7639 -0.0502
    4CHL1   H4B  229   4.828   0.314   7.925 -1.6754  0.3297 -0.5308
    4CHL1    C5  230   4.815   0.458   7.760 -0.5806  0.2660 -0.5912
    4CHL1    C6  231   4.736   0.375   7.693 -0.1950  0.0732  0.4864
    4CHL1    H6  232   4.717   0.271   7.724  0.8483 -0.6854 -1.2604
    4CHL1    C7  233   4.694   0.400   7.552  0.0112 -0.2472  0.3557
    4CHL1   H7A  234   4.712   0.317   7.480  1.4894  1.1265 -0.9379
    4CHL1   H7B  235   4.583   0.406   7.551 -0.0974 -1.7569 -0.8479
    4CHL1    C8  236   4.761   0.524   7.487 -0.2437 -0.3075  0.0832
    4CHL1    H8  237   4.865   0.499   7.457 -0.0309  0.7297 -0.1024
    4CHL1   C14  238   4.693   0.563   7.358  0.1669  0.2930 -0.5603
    4CHL1   H14  239   4.590   0.589   7.391 -0.8292 -0.8999 -2.5072
    4CHL1   C15  240   4.659   0.461   7.246 -0.7692  0.1665  0.3384
    4CHL1  H15A  241   4.743   0.394   7.222 -0.8842  0.2841 -0.4086
    4CHL1  H15B  242   4.582   0.393   7.289 -0.6551  0.8553  1.7119
    4CHL1   C16  243   4.594   0.542   7.132 -0.1845  0.1710 -0.1032
    4CHL1  H16A  244   4.635   0.504   7.036 -2.3435  0.2194 -1.1098
    4CHL1  H16B  245   4.484   0.523   7.134 -0.1393 -0.0563  0.2655
    4CHL1   C17  246   4.642   0.685   7.166 -0.4472 -1.0446 -0.2139
    4CHL1   H17  247   4.555   0.738   7.212 -0.1038 -0.2983 -0.4024
    4CHL1   C13  248   4.746   0.682   7.284 -0.6320 -0.2452 -0.2674
    4CHL1   C18  249   4.886   0.655   7.220  0.6444  0.0227 -0.0371
    4CHL1  H18A  250   4.962   0.651   7.302 -1.0487 -0.0364  1.5896
    4CHL1  H18B  251   4.895   0.559   7.164 -0.3569  1.2512 -2.4516
    4CHL1  H18C  252   4.925   0.736   7.155 -0.1403 -0.4533 -1.1286
    4CHL1   C12  253   4.744   0.804   7.383  0.1864 -0.4960 -0.4141
    4CHL1  H12A  254   4.780   0.895   7.329  0.7318  0.3181  1.2651
    4CHL1  H12B  255   4.637   0.821   7.408  0.0292  0.0756 -1.4054
    4CHL1   C11  256   4.815   0.776   7.521 -0.6236  0.0075 -0.3190
    4CHL1  H11A  257   4.918   0.774   7.480 -1.4237  1.1596 -2.6052
    4CHL1  H11B  258   4.802   0.859   7.593 -0.7652  0.5528 -0.9627
    4CHL1    C9  259   4.764   0.640   7.588  0.9870 -0.2625  0.3775
    4CHL1    H9  260   4.660   0.655   7.623  0.9281 -2.5580  1.3505
    4CHL1   C10  261   4.850   0.604   7.717 -0.1466  0.2270  0.5293
    4CHL1   C19  262   5.004   0.605   7.682  0.1014  0.4906 -0.2576
    4CHL1  H19A  263   5.019   0.549   7.588 -1.0584 -1.1832  0.5029
    4CHL1  H19B  264   5.056   0.702   7.666  1.4621 -0.2091 -0.2752
    4CHL1  H19C  265   5.073   0.545   7.746  0.2130 -0.2653 -1.0773
    4CHL1    C1  266   4.808   0.700   7.836  0.7142  0.4598  0.0566
    4CHL1   H1A  267   4.838   0.806   7.824 -0.3656  0.6318 -1.4147
    4CHL1   H1B  268   4.697   0.705   7.839  0.7298  1.2984 -0.3630
    4CHL1    C2  269   4.859   0.658   7.974 -0.1271 -0.0688 -0.3837
    4CHL1   H2A  270   4.821   0.721   8.057  0.7644 -1.4728  1.1462
    4CHL1   H2B  271   4.970   0.661   7.974 -0.0935 -0.9711 -0.3831
    4CHL1   C20  272   4.673   0.775   7.038 -0.5077 -0.4702 -0.4883
    4CHL1   H20  273   4.772   0.745   6.998 -0.6588 -2.4888  0.5397
    4CHL1   C21  274   4.696   0.921   7.068 -0.0504  0.0094 -0.2363
    4CHL1  H21A  275   4.800   0.940   7.101 -0.8922  1.1102  1.9977
    4CHL1  H21B  276   4.619   0.964   7.136  1.5943 -0.0430  1.7749
    4CHL1  H21C  277   4.697   0.974   6.970 -1.0304 -2.8491 -1.9107
    4CHL1   C22  278   4.581   0.759   6.909 -0.2351  0.2314 -0.0420
    4CHL1  H22A  279   4.572   0.650   6.887 -1.2855 -0.3252  2.6451
    4CHL1  H22B  280   4.478   0.792   6.934 -0.4301 -0.4139  0.0385
    4CHL1   C23  281   4.615   0.839   6.787  0.9583 -0.2535 -0.5086
    4CHL1  H23A  282   4.563   0.937   6.797 -1.2269 -1.3262 -0.8042
    4CHL1  H23B  283   4.724   0.855   6.772  0.5821  2.5939 -0.8992
    4CHL1   C24  284   4.550   0.777   6.659 -0.7574  0.5784 -0.8552
    4CHL1  H24A  285   4.583   0.671   6.654  0.6937  0.9169  0.6544
    4CHL1  H24B  286   4.444   0.779   6.692 -0.2511  0.9723  0.8865
    4CHL1   C25  287   4.576   0.855   6.528 -0.1282  0.0584 -0.1132
    4CHL1   H25  288   4.529   0.955   6.545 -0.6554  0.0272 -1.2673
    4CHL1   C26  289   4.725   0.853   6.482  0.4183  0.1804  0.8375
    4CHL1  H26A  290   4.803   0.900   6.546  1.0152  0.5886 -0.1653
    4CHL1  H26B  291   4.743   0.744   6.473 -1.0026  0.0375 -0.8916
    4CHL1  H26C  292   4.728   0.900   6.381 -4.0080 -1.3645 -0.2659
    4CHL1   C27  293   4.501   0.793   6.407  0.3414 -0.2346  0.7147
    4CHL1  H27A  294   4.502   0.682   6.418  1.1691 -0.1981  1.0739
    4CHL1  H27B  295   4.393   0.820   6.408  0.4285  0.1200  1.5616
    4CHL1  H27C  296   4.544   0.824   6.310  0.1834 -1.7823  0.1301
    5CHL1    C3  297   6.350   2.739   7.346  0.0915 -0.1320 -0.4345
    5CHL1    H3  298   6.261   2.673   7.338  1.1794 -1.4188 -2.9657
    5CHL1    O3  299   6.406   2.731   7.485 -0.4512 -0.0009 -0.2212
    5CHL1   H3'  300   6.427   2.819   7.516  2.6617 -0.8485  0.4785
    5CHL1    C4  301   6.443   2.701   7.227 -0.2223  0.0739 -0.2442
    5CHL1   H4A  302   6.548   2.737   7.237  0.6277 -2.2163 -0.2201
    5CHL1   H4B  303   6.449   2.591   7.236 -1.3055  0.0930  1.0801
    5CHL1    C5  304   6.377   2.729   7.090 -0.1328 -0.3501 -0.4859
    5CHL1    C6  305   6.366   2.632   6.998 -0.0664 -0.6984 -0.2208
    5CHL1    H6  306   6.412   2.533   7.012 -0.1788 -0.8782 -1.0460
    5CHL1    C7  307   6.325   2.659   6.860  0.4860 -0.1108 -0.6645
    5CHL1   H7A  308   6.397   2.607   6.793  1.0416 -1.3288  0.8017
    5CHL1   H7B  309   6.226   2.610   6.847  0.7092 -0.4645 -1.0436
    5CHL1    C8  310   6.327   2.807   6.836 -0.4362  0.3021  0.3360
    5CHL1    H8  311   6.436   2.830   6.828 -0.5882  0.7640 -0.5983
    5CHL1   C14  312   6.256   2.836   6.709  0.8951 -0.1189 -0.3739
    5CHL1   H14  313   6.151   2.803   6.725  1.2618 -0.5460  1.3408
    5CHL1   C15  314   6.304   2.751   6.592 -0.2665  0.2042 -0.7136
    5CHL1  H15A  315   6.413   2.739   6.609 -0.3234  0.9440  0.2355
    5CHL1  H15B  316   6.264   2.647   6.592  0.9205 -0.2792 -1.2716
    5CHL1   C16  317   6.258   2.827   6.470 -0.0781 -0.3311  0.5056
    5CHL1  H16A  318   6.348   2.850   6.409  0.5533 -1.3593  1.0191
    5CHL1  H16B  319   6.187   2.766   6.409 -1.3570  1.0351  0.5768
    5CHL1   C17  320   6.189   2.952   6.518  0.2359 -0.2353 -0.5175
    5CHL1   H17  321   6.083   2.929   6.542 -0.3561  1.6790 -1.1430
    5CHL1   C13  322   6.247   2.976   6.659 -0.6785  0.6072 -0.1077
    5CHL1   C18  323   6.394   3.017   6.657 -0.4192  0.7787  0.2812
    5CHL1  H18A  324   6.447   3.030   6.754 -0.4091 -1.2537  0.5890
    5CHL1  H18B  325   6.462   2.958   6.592 -0.0089  1.3268  0.2040
    5CHL1  H18C  326   6.400   3.116   6.606  1.2030 -0.1656 -1.4832
    5CHL1   C12  327   6.169   3.060   6.753 -0.6900 -0.4745 -0.9394
    5CHL1  H12A  328   6.190   3.166   6.728  1.4918 -0.6702 -0.1464
    5CHL1  H12B  329   6.061   3.032   6.752  0.0280 -3.7235  0.2956
    5CHL1   C11  330   6.227   3.040   6.887  0.9572  0.2044  0.2349
    5CHL1  H11A  331   6.318   3.102   6.902  0.4669  0.9311  0.2636
    5CHL1  H11B  332   6.164   3.092   6.962  0.9021  0.4987 -0.0140
    5CHL1    C9  333   6.256   2.891   6.937  0.2138 -0.2047 -0.4658
    5CHL1    H9  334   6.154   2.845   6.937  0.1188 -0.0504 -1.9511
    5CHL1   C10  335   6.332   2.876   7.071  0.8405  0.6408  0.0379
    5CHL1   C19  336   6.453   2.966   7.067 -0.1935 -0.2652 -0.4157
    5CHL1  H19A  337   6.521   2.949   7.153  0.1947  0.8717 -0.4789
    5CHL1  H19B  338   6.523   2.957   6.981 -0.3416  0.8597 -0.6658
    5CHL1  H19C  339   6.430   3.074   7.077 -0.8874 -0.4493 -0.0084
    5CHL1    C1  340   6.244   2.919   7.195  0.0867 -0.1227  0.5791
    5CHL1   H1A  341   6.231   3.029   7.185 -1.8327 -0.1319  2.3299
    5CHL1   H1B  342   6.146   2.868   7.186  0.2411 -0.1548 -1.4735
    5CHL1    C2  343   6.308   2.883   7.332  0.0135  0.1930 -0.1674
    5CHL1   H2A  344   6.241   2.915   7.414 -0.9673  1.1251 -1.2882
    5CHL1   H2B  345   6.404   2.938   7.339 -0.5011  1.6670 -3.0781
    5CHL1   C20  346   6.188   3.064   6.417 -0.6389  0.2689 -0.7499
    5CHL1   H20  347   6.295   3.083   6.397 -0.4976  0.5990  0.2638
    5CHL1   C21  348   6.119   3.195   6.464 -0.2037  0.1929  0.0027
    5CHL1  H21A  349   6.187   3.266   6.516  0.5132  0.9746 -1.8980
    5CHL1  H21B  350   6.030   3.171   6.526 -1.7294  0.4783 -1.9691
    5CHL1  H21C  351   6.095   3.253   6.372 -2.0997  0.6041  0.7052
    5CHL1   C22  352   6.128   3.019   6.279 -0.2972  0.3754 -0.1889
    5CHL1  H22A  353   6.130   3.099   6.201 -1.7869 -0.4234 -1.0839
    5CHL1  H22B  354   6.182   2.931   6.237 -1.4628 -0.2177 -0.4889
    5CHL1   C23  355   5.983   2.960   6.286 -0.1259 -0.3439  0.2246
    5CHL1  H23A  356   5.984   2.872   6.354  0.3812 -0.2778  0.3105
    5CHL1  H23B  357   5.924   3.040   6.335 -1.4123 -0.6167 -0.8381
    5CHL1   C24  358   5.926   2.916   6.152  0.4680  0.1001 -0.1001
    5CHL1  H24A  359   5.906   3.007   6.092 -0.3362  0.8371  1.2278
    5CHL1  H24B  360   5.996   2.846   6.102  0.3487 -1.2155  1.4713
    5CHL1   C25  361   5.779   2.856   6.171  0.2283  0.6124  0.1044
    5CHL1   H25  362   5.780   2.793   6.263 -1.7635  0.8585  0.3453
    5CHL1   C26  363   5.679   2.963   6.187 -0.1966  0.5841  0.1985
    5CHL1  H26A  364   5.672   3.015   6.089 -0.6630  2.0461  0.9850
    5CHL1  H26B  365   5.579   2.923   6.211 -0.3166 -0.6365 -2.0917
    5CHL1  H26C  366   5.698   3.040   6.264  0.0030  1.6575 -0.8840
    5CHL1   C27  367   5.734   2.778   6.045  0.1240  0.3840 -0.3616
    5CHL1  H27A  368   5.783   2.679   6.028 -0.7737 -0.2893  0.8768
    5CHL1  H27B  369   5.624   2.765   6.056  0.1989  0.7228  0.8638
    5CHL1  H27C  370   5.738   2.845   5.957  2.3944  1.7142  0.6824
    6CHL1    C3  371   6.178   1.451   7.465  0.3523  0.1390  0.3208
    6CHL1    H3  372   6.070   1.437   7.440  0.6066 -0.3536 -0.5302
    6CHL1    O3  373   6.196   1.399   7.594  0.0064  0.0177 -0.0615
    6CHL1   H3'  374   6.112   1.412   7.638 -0.3531  3.0479 -1.3775
    6CHL1    C4  375   6.267   1.367   7.373  0.2973 -0.8857  0.4744
    6CHL1   H4A  376   6.371   1.375   7.411  0.4497 -2.1737  0.3565
    6CHL1   H4B  377   6.235   1.261   7.375 -0.7545 -0.6625 -1.5241
    6CHL1    C5  378   6.262   1.426   7.236  0.0847 -0.6283 -0.1422
    6CHL1    C6  379   6.219   1.352   7.132  0.8211  0.0069  0.6487
    6CHL1    H6  380   6.180   1.250   7.148  0.2341  0.2554  0.8125
    6CHL1    C7  381   6.218   1.394   6.988  0.5833  0.2596  0.2186
    6CHL1   H7A  382   6.244   1.313   6.918 -0.5533  1.4325 -1.6391
    6CHL1   H7B  383   6.116   1.429   6.962  0.5824  1.0116  1.1577
    6CHL1    C8  384   6.307   1.513   6.974  0.8028 -0.9281  0.2899
    6CHL1    H8  385   6.415   1.488   6.982  1.3933  1.3335  0.2282
    6CHL1   C14  386   6.275   1.578   6.836 -0.3565 -0.6150 -0.4787
    6CHL1   H14  387   6.173   1.617   6.855  0.0275 -0.3742  1.2982
    6CHL1   C15  388   6.271   1.484   6.721 -0.7254  0.2741  0.0437
    6CHL1  H15A  389   6.371   1.435   6.717 -1.2349 -0.7010 -1.4231
    6CHL1  H15B  390   6.198   1.402   6.710 -2.0698  1.5245 -0.7357
    6CHL1   C16  391   6.248   1.583   6.603  0.4033  0.1225  0.0803
    6CHL1  H16A  392   6.308   1.545   6.518  0.3102  0.0767  0.0338
    6CHL1  H16B  393   6.138   1.579   6.589  0.2431 -1.2223  1.4054
    6CHL1   C17  394   6.291   1.724   6.659  0.5597  0.4377 -0.9457
    6CHL1   H17  395   6.197   1.779   6.683 -1.1145 -2.0139 -1.4728
    6CHL1   C13  396   6.356   1.695   6.794  0.4029  0.2256  0.4287
    6CHL1   C18  397   6.502   1.654   6.772 -0.8109  0.0511 -0.7299
    6CHL1  H18A  398   6.569   1.741   6.761 -0.5424 -0.1016 -0.3379
    6CHL1  H18B  399   6.538   1.598   6.861 -0.6051  1.7271  0.2870
    6CHL1  H18C  400   6.501   1.580   6.689 -2.5887 -1.0563  0.1869
    6CHL1   C12  401   6.348   1.810   6.900 -0.5580 -0.2862  0.1735
    6CHL1  H12A  402   6.415   1.898   6.886  2.3409 -2.2459  0.7675
    6CHL1  H12B  403   6.244   1.848   6.907 -0.9518 -0.7650 -2.1950
    6CHL1   C11  404   6.377   1.752   7.043  0.3362  0.2078 -0.2677
    6CHL1  H11A  405   6.485   1.728   7.050  0.0551 -0.8110  0.8896
    6CHL1  H11B  406   6.362   1.831   7.119 -2.3169  0.8971 -1.3847
    6CHL1    C9  407   6.292   1.625   7.077  0.1276 -0.5130 -0.6329
    6CHL1    H9  408   6.183   1.647   7.073 -0.1356 -1.7443 -0.8521
    6CHL1   C10  409   6.304   1.576   7.224  0.4790 -0.4736 -0.4401
    6CHL1   C19  410   6.453   1.586   7.265 -0.2024  0.2008  0.9319
    6CHL1  H19A  411   6.456   1.558   7.373 -1.7641 -0.5419  0.8181
    6CHL1  H19B  412   6.523   1.521   7.209  1.2541  2.6121 -0.1911
    6CHL1  H19C  413   6.484   1.692   7.256  0.9609 -0.2236 -0.3832
    6CHL1    C1  414   6.212   1.660   7.321 -0.1158 -0.6724  0.0124
    6CHL1   H1A  415   6.257   1.761   7.330 -0.6156 -0.5429  1.2278
    6CHL1   H1B  416   6.114   1.674   7.269 -0.0309 -0.1543 -0.0120
    6CHL1    C2  417   6.209   1.607   7.464 -0.3149 -0.6253 -0.4728
    6CHL1   H2A  418   6.144   1.664   7.533  0.8420 -1.7437  1.6601
    6CHL1   H2B  419   6.312   1.617   7.506 -0.9113  0.9142  0.6799
    6CHL1   C20  420   6.356   1.821   6.558  0.4639 -0.2029  0.6470
    6CHL1   H20  421   6.459   1.789   6.532  1.1090  2.0954  0.1761
    6CHL1   C21  422   6.363   1.961   6.614  0.4880 -0.2224 -0.1353
    6CHL1  H21A  423   6.266   1.996   6.656  1.0189  0.8197  0.2666
    6CHL1  H21B  424   6.389   2.040   6.539  1.6911  1.6206  2.1091
    6CHL1  H21C  425   6.440   1.966   6.694 -0.0208  1.9365  0.2863
    6CHL1   C22  426   6.281   1.834   6.418  0.3247  0.2340  1.0533
    6CHL1  H22A  427   6.256   1.731   6.383  0.1554  0.1779  1.3330
    6CHL1  H22B  428   6.181   1.883   6.424  0.6129  1.1282 -0.8679
    6CHL1   C23  429   6.366   1.895   6.307  0.0591 -0.0916  0.1987
    6CHL1  H23A  430   6.403   1.996   6.334 -1.0953  0.2937  0.3515
    6CHL1  H23B  431   6.454   1.833   6.278  0.8945  0.3744  1.6241
    6CHL1   C24  432   6.283   1.916   6.176 -0.0185  0.0066 -0.4135
    6CHL1  H24A  433   6.256   1.811   6.151  2.4114 -0.9274  0.5520
    6CHL1  H24B  434   6.193   1.979   6.191  0.9989  1.3731  0.1471
    6CHL1   C25  435   6.361   1.989   6.065 -0.3316  0.6064  0.5282
    6CHL1   H25  436   6.455   1.934   6.046 -0.9963 -0.2249 -0.4573
    6CHL1   C26  437   6.281   1.974   5.934 -0.7334 -0.3762  0.4244
    6CHL1  H26A  438   6.290   1.869   5.899  1.0936  0.0759 -0.6010
    6CHL1  H26B  439   6.176   2.006   5.952 -0.7751  1.5727 -2.6014
    6CHL1  H26C  440   6.318   2.038   5.851 -3.1211  0.0239 -0.3941
    6CHL1   C27  441   6.384   2.139   6.092 -1.0779  0.1234 -0.0845
    6CHL1  H27A  442   6.288   2.191   6.111 -0.4943  1.6322 -1.0808
    6CHL1  H27B  443   6.457   2.148   6.175 -0.9615 -1.2069 -0.0165
    6CHL1  H27C  444   6.434   2.187   6.005  0.5571 -0.1279  0.6775
    7CHL1    C3  445   1.262   5.422   7.870  0.0270 -0.1606 -0.3733
    7CHL1    H3  446   1.373   5.432   7.865  0.1405  0.5986  2.2572
    7CHL1    O3  447   1.235   5.391   8.004  0.3286  0.3607 -0.3557
    7CHL1   H3'  448   1.145   5.358   8.008  1.1768 -2.1159  0.2263
    7CHL1    C4  449   1.200   5.560   7.839 -0.2106  0.5353 -0.1361
    7CHL1   H4A  450   1.095   5.565   7.874  0.8202 -0.5607  3.5386
    7CHL1   H4B  451   1.263   5.629   7.898 -0.3443  0.5287  0.0139
    7CHL1    C5  452   1.207   5.589   7.692 -0.4534  0.1547  0.4546
    7CHL1    C6  453   1.261   5.708   7.652  0.2246  0.2753 -0.3061
    7CHL1    H6  454   1.298   5.787   7.720  1.1926 -0.2581 -0.1894
    7CHL1    C7  455   1.266   5.753   7.514 -0.0670 -0.8866  0.5211
    7CHL1   H7A  456   1.226   5.857   7.511 -0.2844 -0.9549  0.9619
    7CHL1   H7B  457   1.371   5.767   7.480 -0.0769 -0.1693  0.7641
    7CHL1    C8  458   1.188   5.663   7.414 -0.5791  0.1324 -0.2762
    7CHL1    H8  459   1.081   5.689   7.422  0.3370  4.2749  0.8572
    7CHL1   C14  460   1.228   5.704   7.273 -0.0185  0.5682  0.1486
    7CHL1   H14  461   1.336   5.680   7.266 -0.1605 -0.8472  2.0092
    7CHL1   C15  462   1.206   5.856   7.235  0.7671  0.5508 -0.3514
    7CHL1  H15A  463   1.107   5.882   7.277  1.7844 -0.5763  3.1144
    7CHL1  H15B  464   1.289   5.923   7.268  1.6001  0.0005 -1.2817
    7CHL1   C16  465   1.223   5.840   7.083 -0.1359  0.0346 -0.0636
    7CHL1  H16A  466   1.123   5.875   7.050 -0.1802  0.0488  0.0826
    7CHL1  H16B  467   1.314   5.891   7.044 -1.1447  1.3707 -0.7692
    7CHL1   C17  468   1.217   5.688   7.035  0.5530 -0.1568 -0.4904
    7CHL1   H17  469   1.322   5.654   7.021  0.1800 -1.3403 -0.4885
    7CHL1   C13  470   1.164   5.616   7.161  0.1193  0.0197 -0.4799
    7CHL1   C18  471   1.009   5.627   7.168  0.2920 -0.0341  0.0619
    7CHL1  H18A  472   0.978   5.733   7.158  0.1352 -0.0802  0.0465
    7CHL1  H18B  473   0.949   5.577   7.089 -2.1131  0.7406  1.2935
    7CHL1  H18C  474   0.976   5.599   7.271  1.3654  0.9286  0.6921
    7CHL1   C12  475   1.207   5.465   7.199  0.5107  0.6985 -0.7286
    7CHL1  H12A  476   1.151   5.403   7.125  0.2798  0.5402 -0.4255
    7CHL1  H12B  477   1.316   5.464   7.180  0.9350  3.2449  1.1606
    7CHL1   C11  478   1.174   5.413   7.340  0.4721 -0.1189  0.1112
    7CHL1  H11A  479   1.064   5.397   7.343  0.4617 -0.2432 -0.7054
    7CHL1  H11B  480   1.209   5.308   7.355  1.9168  0.1926 -0.8671
    7CHL1    C9  481   1.222   5.517   7.448  0.5359  0.2510 -0.1892
    7CHL1    H9  482   1.331   5.496   7.451  0.1607 -3.1864 -2.9082
    7CHL1   C10  483   1.170   5.478   7.593 -0.0841  0.9393 -0.1062
    7CHL1   C19  484   1.019   5.477   7.606 -0.1715 -0.4660  0.0538
    7CHL1  H19A  485   0.984   5.387   7.551  0.3060 -1.3424  1.1494
    7CHL1  H19B  486   0.979   5.469   7.709 -2.0147  1.2352 -0.4571
    7CHL1  H19C  487   0.974   5.572   7.568  0.6141  0.4079  1.2431
    7CHL1    C1  488   1.236   5.337   7.633  0.0041  0.7188 -0.0025
    7CHL1   H1A  489   1.199   5.261   7.560  2.3572 -0.0008 -0.5263
    7CHL1   H1B  490   1.345   5.347   7.614 -0.0487  3.6799  0.8428
    7CHL1    C2  491   1.211   5.308   7.783 -0.3061 -0.1221 -0.2390
    7CHL1   H2A  492   1.254   5.207   7.797 -0.9936 -0.3066  0.6067
    7CHL1   H2B  493   1.105   5.303   7.814  0.4465  0.8420  2.8039
    7CHL1   C20  494   1.150   5.671   6.901  0.0763  0.0664  0.3300
    7CHL1   H20  495   1.049   5.716   6.900  0.1996  0.3329 -1.1041
    7CHL1   C21  496   1.109   5.520   6.871  0.1795  0.1535 -0.4151
    7CHL1  H21A  497   1.194   5.450   6.881 -1.6770 -1.9734  1.4276
    7CHL1  H21B  498   1.072   5.512   6.767  0.1919 -1.0274 -0.3315
    7CHL1  H21C  499   1.020   5.486   6.928 -1.2409 -0.0537 -2.6692
    7CHL1   C22  500   1.234   5.730   6.790 -0.2903 -0.0745 -0.8876
    7CHL1  H22A  501   1.278   5.829   6.817  0.5162 -0.4306 -0.8963
    7CHL1  H22B  502   1.316   5.662   6.759 -0.2564 -0.0713 -0.8040
    7CHL1   C23  503   1.162   5.757   6.655 -0.1820 -0.4187  0.0743
    7CHL1  H23A  504   1.126   5.658   6.619 -1.0996 -0.2250  0.4329
    7CHL1  H23B  505   1.073   5.821   6.667  0.5097  0.6174 -0.1909
    7CHL1   C24  506   1.260   5.806   6.546  0.3437 -1.2615  1.0207
    7CHL1  H24A  507   1.303   5.904   6.575 -2.1948  0.6683 -1.2022
    7CHL1  H24B  508   1.330   5.720   6.537  2.8422  0.7311  0.3314
    7CHL1   C25  509   1.192   5.817   6.409  0.4386  0.5053  0.5448
    7CHL1   H25  510   1.136   5.724   6.385  0.2282  0.3846  1.4808
    7CHL1   C26  511   1.098   5.937   6.404 -0.4930 -0.3364 -0.2498
    7CHL1  H26A  512   1.009   5.924   6.470  0.7277 -2.5423  1.0922
    7CHL1  H26B  513   1.151   6.023   6.448 -0.8997 -0.2329  0.0402
    7CHL1  H26C  514   1.058   5.963   6.304 -0.5069  0.7972  0.0448
    7CHL1   C27  515   1.310   5.834   6.309  0.2593  0.4485 -0.0091
    7CHL1  H27A  516   1.376   5.745   6.322 -2.5973 -1.9398 -0.8562
    7CHL1  H27B  517   1.267   5.849   6.208 -3.3081  0.2646  1.3437
    7CHL1  H27C  518   1.355   5.934   6.325  0.8006  0.8385 -3.2857
    8CHL1    C3  519   2.290   2.328   4.638  0.0527  0.5239  0.6174
    8CHL1    H3  520   2.232   2.419   4.663 -0.4498  0.1587  0.8041
    8CHL1    O3  521   2.299   2.326   4.496  0.3782 -0.1612 -0.6081
    8CHL1   H3'  522   2.386   2.364   4.477  0.6778 -1.0174 -0.9857
    8CHL1    C4  523   2.435   2.340   4.691  0.5413  0.3815 -0.7225
    8CHL1   H4A  524   2.492   2.259   4.641  2.1727  2.4096 -2.3343
    8CHL1   H4B  525   2.477   2.437   4.659  0.1525  1.1374  0.9661
    8CHL1    C5  526   2.446   2.332   4.846  0.6008  0.5243  0.9003
    8CHL1    C6  527   2.488   2.434   4.923 -0.4515  0.2192  1.0654
    8CHL1    H6  528   2.511   2.529   4.873 -1.6153 -0.7512 -1.4888
    8CHL1    C7  529   2.499   2.429   5.073  0.6642 -0.7328  0.4130
    8CHL1   H7A  530   2.591   2.475   5.114 -0.3172  2.2445 -0.5169
    8CHL1   H7B  531   2.413   2.480   5.122  2.3045  1.7733  0.8512
    8CHL1    C8  532   2.498   2.282   5.118  0.4459 -0.0157 -0.2504
    8CHL1    H8  533   2.592   2.240   5.075 -0.2590  1.1479 -3.1655
    8CHL1   C14  534   2.494   2.279   5.275 -0.6571  0.4906  0.2809
    8CHL1   H14  535   2.398   2.327   5.300 -0.1169  1.5428  0.3732
    8CHL1   C15  536   2.605   2.345   5.359  0.8548  0.1623 -0.3143
    8CHL1  H15A  537   2.707   2.328   5.317  1.0857  1.3984 -0.2989
    8CHL1  H15B  538   2.576   2.451   5.346 -2.2224 -0.6739 -1.0657
    8CHL1   C16  539   2.579   2.287   5.501 -0.7443 -0.7469  0.4184
    8CHL1  H16A  540   2.675   2.240   5.531 -0.7362 -0.2797  1.1437
    8CHL1  H16B  541   2.578   2.359   5.586  1.2369  1.8398 -1.5652
    8CHL1   C17  542   2.468   2.178   5.490  0.3685 -0.1527  0.7095
    8CHL1   H17  543   2.369   2.218   5.522  1.5037  2.3234  1.3346
    8CHL1   C13  544   2.470   2.147   5.339  0.2639  0.3094  0.1193
    8CHL1   C18  545   2.586   2.051   5.311 -0.0414 -0.0446  0.4479
    8CHL1  H18A  546   2.594   2.050   5.200 -1.3160 -0.0999  0.3398
    8CHL1  H18B  547   2.680   2.080   5.361 -0.5340  2.2431  0.1414
    8CHL1  H18C  548   2.557   1.950   5.349 -0.5918 -0.4060 -0.8583
    8CHL1   C12  549   2.340   2.086   5.286 -0.0251  0.3370 -0.4408
    8CHL1  H12A  550   2.318   1.989   5.334 -0.0657  0.1494 -0.8361
    8CHL1  H12B  551   2.256   2.150   5.319 -1.6330 -2.1630  0.6111
    8CHL1   C11  552   2.334   2.084   5.134  0.0505 -0.3391  0.3779
    8CHL1  H11A  553   2.405   2.005   5.103  1.5104  0.1423  2.2811
    8CHL1  H11B  554   2.229   2.060   5.109  0.2028 -1.1247  0.4743
    8CHL1    C9  555   2.372   2.216   5.059 -0.1712  0.3322 -0.4197
    8CHL1    H9  556   2.291   2.291   5.075  0.6184  1.0997  0.0701
    8CHL1   C10  557   2.380   2.207   4.903  0.0197 -0.5398  0.0735
    8CHL1   C19  558   2.473   2.084   4.866 -0.0059 -0.1691 -0.6147
    8CHL1  H19A  559   2.421   1.995   4.906 -0.1051 -0.0497 -0.4731
    8CHL1  H19B  560   2.495   2.071   4.758  1.2513  1.3977 -0.5836
    8CHL1  H19C  561   2.573   2.093   4.913  0.6496 -0.1560 -1.9780
    8CHL1    C1  562   2.240   2.186   4.845  0.0551 -0.1009 -0.8558
    8CHL1   H1A  563   2.197   2.085   4.864  1.4628 -0.7845 -1.1258
    8CHL1   H1B  564   2.167   2.257   4.888 -0.7810 -0.4833 -1.6205
    8CHL1    C2  565   2.230   2.199   4.692  0.0139  0.5892  0.6553
    8CHL1   H2A  566   2.122   2.189   4.669  0.0813 -2.2541  1.2329
    8CHL1   H2B  567   2.287   2.115   4.647  2.7225  3.2545 -1.2895
    8CHL1   C20  568   2.479   2.063   5.590 -0.0075  0.0780 -0.1148
    8CHL1   H20  569   2.564   1.998   5.560 -1.0831 -0.8245 -1.3590
    8CHL1   C21  570   2.353   1.969   5.602  1.0205  0.3712  0.5660
    8CHL1  H21A  571   2.333   1.913   5.508 -2.7364 -0.9244  1.9509
    8CHL1  H21B  572   2.258   2.010   5.641  1.0118 -0.4338  1.4134
    8CHL1  H21C  573   2.386   1.878   5.656  1.7342 -0.5163 -1.3047
    8CHL1   C22  574   2.492   2.117   5.731  0.0381 -0.3336 -0.2242
    8CHL1  H22A  575   2.573   2.194   5.734 -1.1474  1.0587 -1.9222
    8CHL1  H22B  576   2.396   2.169   5.750  0.4335  1.3906 -2.5431
    8CHL1   C23  577   2.506   2.019   5.854  0.6875  0.1048 -0.4437
    8CHL1  H23A  578   2.414   1.958   5.864 -0.2003  1.4963  0.2609
    8CHL1  H23B  579   2.585   1.946   5.828  1.1646  0.4685 -0.0557
    8CHL1   C24  580   2.534   2.083   5.993 -0.2823  0.2868  0.6730
    8CHL1  H24A  581   2.623   2.148   5.978 -0.2212  0.4150  1.5342
    8CHL1  H24B  582   2.454   2.152   6.029  0.1635  2.6677 -2.4960
    8CHL1   C25  583   2.582   1.975   6.093 -0.1512 -0.6103  0.7486
    8CHL1   H25  584   2.651   1.915   6.030 -0.3190  1.4466 -1.5464
    8CHL1   C26  585   2.662   2.045   6.201 -0.0470 -0.6483 -0.8728
    8CHL1  H26A  586   2.736   2.116   6.159 -0.3483  1.4237  1.8112
    8CHL1  H26B  587   2.597   2.102   6.271 -0.2394 -1.9051  0.0133
    8CHL1  H26C  588   2.723   1.974   6.261  0.4598  1.4943  1.2779
    8CHL1   C27  589   2.477   1.881   6.150  0.0397 -0.5768 -0.0981
    8CHL1  H27A  590   2.408   1.852   6.068  0.1361  2.2070 -1.2488
    8CHL1  H27B  591   2.524   1.789   6.191  1.9025  0.7591  0.8942
    8CHL1  H27C  592   2.427   1.946   6.224  1.0583  1.6500 -1.2806
    9CHL1    C3  593   1.112   1.021   7.988 -0.2859 -0.7501  0.3827
    9CHL1    H3  594   1.210   1.059   8.024 -0.3006 -0.5147  0.1795
    9CHL1    O3  595   1.031   1.062   8.090 -0.0246 -0.5831  0.5271
    9CHL1   H3'  596   1.051   1.154   8.106  1.2926 -0.7155 -0.1787
    9CHL1    C4  597   1.069   1.082   7.861  0.2332 -0.5479 -0.5729
    9CHL1   H4A  598   0.973   1.033   7.834 -0.0007  0.4821 -1.6835
    9CHL1   H4B  599   1.037   1.188   7.857  0.2046 -0.5553 -0.5447
    9CHL1    C5  600   1.166   1.051   7.751 -0.0212 -0.2801  0.4247
    9CHL1    C6  601   1.226   1.143   7.674  0.2535  0.8411 -0.5149
    9CHL1    H6  602   1.199   1.247   7.694 -0.4235  0.6891 -0.6169
    9CHL1    C7  603   1.302   1.124   7.547  0.7138  0.0271 -0.0323
    9CHL1   H7A  604   1.268   1.189   7.464  0.7640  1.5939  1.1318
    9CHL1   H7B  605   1.409   1.144   7.569  0.7928 -0.8766  0.4486
    9CHL1    C8  606   1.284   0.975   7.497  0.9617 -0.8209  0.0111
    9CHL1    H8  607   1.181   0.971   7.454  0.7994  0.8510  0.1794
    9CHL1   C14  608   1.379   0.944   7.381  0.3567  0.1630  0.0087
    9CHL1   H14  609   1.479   0.962   7.426  0.2852 -1.9313  1.0997
    9CHL1   C15  610   1.366   1.026   7.252  0.1582  0.9940  0.2978
    9CHL1  H15A  611   1.281   1.081   7.207  0.7554  1.4967 -0.2289
    9CHL1  H15B  612   1.436   1.111   7.266  0.7919  0.6905 -0.9048
    9CHL1   C16  613   1.422   0.930   7.144  0.1187  0.2317  0.3132
    9CHL1  H16A  614   1.335   0.905   7.080  0.3354 -0.5486  0.3226
    9CHL1  H16B  615   1.506   0.981   7.092 -0.4946  0.7815 -0.1669
    9CHL1   C17  616   1.470   0.812   7.221 -0.2169 -0.6747  0.4766
    9CHL1   H17  617   1.570   0.832   7.265 -0.6761 -0.9553  1.6965
    9CHL1   C13  618   1.369   0.800   7.336 -0.4357 -0.2313  0.0820
    9CHL1   C18  619   1.229   0.761   7.290 -0.1524  0.4425 -0.0182
    9CHL1  H18A  620   1.147   0.746   7.364 -0.1720  0.4291 -0.0424
    9CHL1  H18B  621   1.193   0.821   7.204 -2.3714 -1.2848 -0.4131
    9CHL1  H18C  622   1.241   0.658   7.250 -0.1318 -0.0126  1.1262
    9CHL1   C12  623   1.416   0.718   7.459  0.7368  0.1207  0.3915
    9CHL1  H12A  624   1.422   0.612   7.428 -0.6289 -0.3215  1.5804
    9CHL1  H12B  625   1.517   0.756   7.486  1.2540 -1.7282  1.2194
    9CHL1   C11  626   1.329   0.732   7.588  0.0695 -0.0411  0.0172
    9CHL1  H11A  627   1.231   0.684   7.569  0.0634  0.2393 -0.6834
    9CHL1  H11B  628   1.382   0.684   7.673  2.0065 -2.0584 -2.1899
    9CHL1    C9  629   1.298   0.882   7.621 -0.0870 -0.2640 -0.8124
    9CHL1    H9  630   1.396   0.912   7.665 -0.4385 -0.0560 -0.1577
    9CHL1   C10  631   1.187   0.901   7.731 -0.3084 -1.1265  0.5449
    9CHL1   C19  632   1.061   0.836   7.677 -0.3765 -0.2206 -0.0019
    9CHL1  H19A  633   1.033   0.882   7.581  0.6045  1.2475  0.3815
    9CHL1  H19B  634   1.067   0.725   7.668  0.9127 -0.1208 -0.5305
    9CHL1  H19C  635   0.982   0.851   7.754 -0.0272  0.8834  0.1564
    9CHL1    C1  636   1.230   0.845   7.865 -0.6892 -0.1611  0.7693
    9CHL1   H1A  637   1.255   0.737   7.864  0.2474  0.0315 -0.8111
    9CHL1   H1B  638   1.321   0.907   7.878 -0.4433 -0.5252  0.7864
    9CHL1    C2  639   1.129   0.873   7.973  0.0473  0.3322 -0.2812
    9CHL1   H2A  640   1.153   0.836   8.075 -1.0138  0.9684  0.2160
    9CHL1   H2B  641   1.024   0.841   7.954 -0.3912  0.3210  1.9441
    9CHL1   C20  642   1.489   0.677   7.140  0.2039  0.0807  0.4577
    9CHL1   H20  643   1.477   0.588   7.205  1.0567 -1.7528 -1.7728
    9CHL1   C21  644   1.636   0.677   7.098  0.9115  0.1022 -0.7668
    9CHL1  H21A  645   1.707   0.683   7.183  1.5415 -0.9812 -1.1906
    9CHL1  H21B  646   1.654   0.759   7.024  0.0100  1.7029  0.7128
    9CHL1  H21C  647   1.657   0.581   7.045 -0.3007 -1.3817  1.3312
    9CHL1   C22  648   1.392   0.659   7.023 -0.2817  0.8025 -0.2168
    9CHL1  H22A  649   1.288   0.694   7.040  0.4402  2.0844  1.9952
    9CHL1  H22B  650   1.436   0.735   6.954 -0.2933  0.8574 -0.1640
    9CHL1   C23  651   1.385   0.513   6.970 -0.0908  0.9997  0.0268
    9CHL1  H23A  652   1.491   0.481   6.960 -0.9362 -1.4160 -2.4482
    9CHL1  H23B  653   1.327   0.445   7.037  2.4517 -1.8285 -0.3810
    9CHL1   C24  654   1.335   0.503   6.830 -0.2699  0.0267 -0.8562
    9CHL1  H24A  655   1.233   0.548   6.825 -0.0166  0.7457  0.0967
    9CHL1  H24B  656   1.398   0.553   6.754 -1.7811  0.2170 -2.0398
    9CHL1   C25  657   1.313   0.352   6.788  0.3554 -0.0056  0.1196
    9CHL1   H25  658   1.222   0.308   6.833  0.5615 -0.8975 -0.2975
    9CHL1   C26  659   1.300   0.345   6.634  0.9329  0.6896 -0.1317
    9CHL1  H26A  660   1.200   0.380   6.601  0.3058 -0.3370  0.6344
    9CHL1  H26B  661   1.377   0.413   6.591  0.9144  0.2290 -0.9055
    9CHL1  H26C  662   1.314   0.238   6.608  1.4179  0.7963 -0.3240
    9CHL1   C27  663   1.440   0.266   6.835  0.5588  0.1322  1.5092
    9CHL1  H27A  664   1.535   0.300   6.787  0.4963  0.7290  1.7974
    9CHL1  H27B  665   1.445   0.255   6.945  0.5713  0.3347  1.5294
    9CHL1  H27C  666   1.418   0.166   6.790  1.1481  0.3840  0.6178
   10CHL1    C3  667   0.005   1.606   7.718 -0.4419  0.1340 -0.1967
   10CHL1    H3  668  -0.007   1.498   7.695 -0.4084 -0.0150  0.4628
   10CHL1    O3  669  -0.017   1.615   7.857  0.1083 -0.4084 -0.3526
   10CHL1   H3'  670  -0.024   1.526   7.890  0.9435  0.2760  1.8093
   10CHL1    C4  671   0.154   1.636   7.689  0.2826  0.1397  0.7575
   10CHL1   H4A  672   0.169   1.739   7.728  0.1332  0.0472  1.0629
   10CHL1   H4B  673   0.215   1.563   7.747 -1.2149 -2.4364 -0.7322
   10CHL1    C5  674   0.187   1.637   7.537  0.4009  0.5617  0.0257
   10CHL1    C6  675   0.288   1.564   7.479 -0.7300 -0.7096 -0.0963
   10CHL1    H6  676   0.354   1.497   7.535 -1.7341 -2.0063 -0.4175
   10CHL1    C7  677   0.312   1.555   7.332  0.1611  0.1458  0.4461
   10CHL1   H7A  678   0.420   1.543   7.309  0.2755  0.7801  0.6342
   10CHL1   H7B  679   0.267   1.460   7.295 -0.8529  0.6985  0.2005
   10CHL1    C8  680   0.249   1.678   7.262 -0.7091  0.7757  0.2550
   10CHL1    H8  681   0.306   1.769   7.289 -0.0372  0.0107  1.5169
   10CHL1   C14  682   0.260   1.662   7.111  0.3520 -0.6833  0.0170
   10CHL1   H14  683   0.198   1.573   7.088  0.6165 -0.2226 -2.8108
   10CHL1   C15  684   0.405   1.640   7.047 -0.1621  0.5062  0.0306
   10CHL1  H15A  685   0.475   1.700   7.109  1.2186 -1.2693  0.2619
   10CHL1  H15B  686   0.445   1.537   7.057 -0.2084  0.4433 -0.4087
   10CHL1   C16  687   0.391   1.696   6.908 -0.2136  0.4287  0.2023
   10CHL1  H16A  688   0.443   1.794   6.901  3.1351 -1.3128 -4.3311
   10CHL1  H16B  689   0.437   1.639   6.824  1.5893  0.1939  1.3196
   10CHL1   C17  690   0.235   1.723   6.885 -0.8963  0.2662 -0.1842
   10CHL1   H17  691   0.184   1.630   6.854  0.7516 -0.4353 -0.9152
   10CHL1   C13  692   0.185   1.762   7.023 -0.2399  0.2307  0.2351
   10CHL1   C18  693   0.226   1.906   7.076 -0.3568 -0.0568  0.0615
   10CHL1  H18A  694   0.194   1.921   7.181  0.2164 -2.2489  0.5832
   10CHL1  H18B  695   0.336   1.920   7.064 -0.4949  1.0227 -0.0449
   10CHL1  H18C  696   0.174   1.981   7.012 -1.9934  1.8323  3.3287
   10CHL1   C12  697   0.036   1.733   7.054  0.2454 -0.3973  0.3664
   10CHL1  H12A  698  -0.023   1.805   6.994 -0.5023 -0.9942  0.3614
   10CHL1  H12B  699   0.005   1.627   7.040 -1.8941  0.2273  0.0573
   10CHL1   C11  700   0.002   1.758   7.203 -0.5025  0.6575  0.8558
   10CHL1  H11A  701   0.008   1.867   7.226  0.8219  0.5385  1.2075
   10CHL1  H11B  702  -0.098   1.716   7.225 -0.9011  1.7005  1.0635
   10CHL1    C9  703   0.105   1.680   7.300 -0.1323  0.0075 -0.4675
   10CHL1    H9  704   0.063   1.577   7.292 -0.2111 -0.0932  0.9866
   10CHL1   C10  705   0.086   1.724   7.443  0.1460  0.3654 -0.8022
   10CHL1   C19  706   0.122   1.876   7.457  0.5011  0.3827 -0.2349
   10CHL1  H19A  707   0.058   1.944   7.397  0.3747  1.9314  1.5579
   10CHL1  H19B  708   0.102   1.906   7.562  2.3653  1.3747 -0.1259
   10CHL1  H19C  709   0.229   1.887   7.429  0.0178  0.8835 -2.0140
   10CHL1    C1  710  -0.061   1.698   7.489  0.5641 -0.6687 -0.3820
   10CHL1   H1A  711  -0.129   1.765   7.434 -2.2579  0.1409  3.6893
   10CHL1   H1B  712  -0.077   1.593   7.456  0.1420 -1.1013  1.1174
   10CHL1    C2  713  -0.092   1.694   7.641 -0.5459  1.0872  0.6107
   10CHL1   H2A  714  -0.192   1.646   7.650 -0.0277 -0.1411  0.0489
   10CHL1   H2B  715  -0.093   1.795   7.688 -0.3616  0.9759  0.8582
   10CHL1   C20  716   0.210   1.823   6.777 -0.0449 -0.3040 -0.0108
   10CHL1   H20  717   0.234   1.929   6.804 -1.0009  0.1719 -0.9417
   10CHL1   C21  718   0.066   1.820   6.736  0.0583 -0.5034 -0.5558
   10CHL1  H21A  719   0.009   1.893   6.797 -1.5134 -1.0372 -1.3199
   10CHL1  H21B  720   0.009   1.725   6.750 -3.2883  1.2498 -1.2808
   10CHL1  H21C  721   0.058   1.846   6.628  0.5814 -0.0950 -0.5003
   10CHL1   C22  722   0.296   1.802   6.648 -0.2641  0.7758 -0.3643
   10CHL1  H22A  723   0.280   1.889   6.581  2.0916  1.0157 -0.7117
   10CHL1  H22B  724   0.404   1.806   6.674 -0.0743 -1.5802 -0.6161
   10CHL1   C23  725   0.272   1.666   6.578 -0.0852 -0.1204  0.2469
   10CHL1  H23A  726   0.291   1.591   6.658 -1.1750 -1.5955 -0.8201
   10CHL1  H23B  727   0.168   1.651   6.541 -0.5020  0.8057  0.9997
   10CHL1   C24  728   0.377   1.648   6.461  0.2914 -0.2461 -1.2774
   10CHL1  H24A  729   0.321   1.691   6.375 -0.3225  1.2646 -0.1527
   10CHL1  H24B  730   0.468   1.701   6.497  0.6690 -2.0628  0.6358
   10CHL1   C25  731   0.417   1.503   6.424 -0.1987 -1.0413 -0.0857
   10CHL1   H25  732   0.438   1.452   6.520  2.0666 -1.7475 -0.8966
   10CHL1   C26  733   0.298   1.441   6.349  0.1200  0.3917 -0.0117
   10CHL1  H26A  734   0.290   1.499   6.255 -3.1429  1.5749  0.8609
   10CHL1  H26B  735   0.319   1.334   6.328  1.3387 -0.1958  3.4333
   10CHL1  H26C  736   0.199   1.449   6.398 -0.6957 -1.3683 -1.2727
   10CHL1   C27  737   0.542   1.507   6.343 -1.0078  0.2709 -0.3373
   10CHL1  H27A  738   0.574   1.410   6.298  1.2649  0.3771  0.8912
   10CHL1  H27B  739   0.523   1.576   6.258  0.5748  0.0452 -0.9126
   10CHL1  H27C  740   0.632   1.544   6.397  0.8530 -2.1176 -1.6324
   11CHL1    C3  741   0.244   6.526   7.850 -0.4874 -0.8450 -0.0055
   11CHL1    H3  742   0.147   6.472   7.844 -0.6448 -0.4638 -1.1323
   11CHL1    O3  743   0.262   6.575   7.982 -0.7538  0.0453  0.1793
   11CHL1   H3'  744   0.220   6.661   7.988  1.9125  1.6061 -1.4701
   11CHL1    C4  745   0.360   6.433   7.829  0.1153  0.6030 -0.4593
   11CHL1   H4A  746   0.452   6.494   7.844 -0.0897  1.0054 -0.8100
   11CHL1   H4B  747   0.374   6.351   7.902 -0.4351 -1.1263 -2.2129
   11CHL1    C5  748   0.363   6.374   7.689  0.6049  0.9470  0.2011
   11CHL1    C6  749   0.364   6.237   7.670  0.2121 -0.5509  0.2506
   11CHL1    H6  750   0.360   6.168   7.755 -1.6549 -0.1070  0.5709
   11CHL1    C7  751   0.361   6.177   7.532 -0.2109  0.0115  0.5865
   11CHL1   H7A  752   0.437   6.097   7.518 -2.7491 -2.6659  1.1774
   11CHL1   H7B  753   0.265   6.125   7.512 -0.4419  1.2475 -1.8554
   11CHL1    C8  754   0.383   6.276   7.408 -0.0524  0.6789 -0.4176
   11CHL1    H8  755   0.492   6.291   7.418 -0.1049  0.6124  0.3200
   11CHL1   C14  756   0.344   6.226   7.272 -1.3437 -0.1786 -0.0811
   11CHL1   H14  757   0.235   6.203   7.266 -1.3454  0.0774 -1.2699
   11CHL1   C15  758   0.418   6.102   7.231 -0.3680  0.0771 -0.5830
   11CHL1  H15A  759   0.529   6.107   7.238 -0.2504 -1.0408 -1.3207
   11CHL1  H15B  760   0.386   6.020   7.298  0.0246  0.2456 -0.1852
   11CHL1   C16  761   0.390   6.090   7.082  0.2830  0.1626 -0.8125
   11CHL1  H16A  762   0.463   6.042   7.014 -1.4044  0.0048 -2.6049
   11CHL1  H16B  763   0.297   6.031   7.065 -0.6509  1.6301 -0.8950
   11CHL1   C17  764   0.348   6.231   7.031  0.2203  0.2070 -0.4863
   11CHL1   H17  765   0.237   6.227   7.019  0.1629 -0.6716  0.2161
   11CHL1   C13  766   0.373   6.324   7.154 -0.1170  0.2208 -0.5546
   11CHL1   C18  767   0.520   6.369   7.138 -0.2776  0.3009 -0.1929
   11CHL1  H18A  768   0.593   6.286   7.142 -0.7088 -0.0274  1.7157
   11CHL1  H18B  769   0.537   6.425   7.043 -1.3647  1.2570  0.1550
   11CHL1  H18C  770   0.549   6.422   7.231  0.3216 -0.0159 -0.1946
   11CHL1   C12  771   0.283   6.447   7.180  0.7930  0.2883 -0.0488
   11CHL1  H12A  772   0.302   6.520   7.099 -0.4894 -0.5870 -1.1892
   11CHL1  H12B  773   0.177   6.414   7.173  0.9521  0.0461 -1.6035
   11CHL1   C11  774   0.318   6.507   7.314  0.2616 -0.3327  0.1097
   11CHL1  H11A  775   0.415   6.561   7.302  0.7717 -1.1241  0.6080
   11CHL1  H11B  776   0.235   6.576   7.339 -0.6629 -0.8644 -1.3408
   11CHL1    C9  777   0.313   6.410   7.435  0.1082 -0.0526 -0.3141
   11CHL1    H9  778   0.207   6.387   7.457 -0.0920  0.8481 -0.3184
   11CHL1   C10  779   0.350   6.480   7.570 -0.0186 -0.4580  0.0143
   11CHL1   C19  780   0.485   6.551   7.557 -0.0739 -0.5212 -0.2510
   11CHL1  H19A  781   0.466   6.638   7.490 -1.6739 -1.0940 -0.5756
   11CHL1  H19B  782   0.505   6.599   7.656 -2.1418 -0.3628  0.1293
   11CHL1  H19C  783   0.564   6.481   7.525 -0.2483  0.5153 -3.3588
   11CHL1    C1  784   0.240   6.584   7.610 -0.7696  0.2165 -0.1133
   11CHL1   H1A  785   0.243   6.675   7.546 -1.1723  0.0102 -0.4256
   11CHL1   H1B  786   0.142   6.532   7.605 -0.5976 -0.0748 -0.5502
   11CHL1    C2  787   0.252   6.645   7.750 -0.3042 -0.1607 -0.0726
   11CHL1   H2A  788   0.170   6.719   7.761 -0.1982  0.6870 -3.6443
   11CHL1   H2B  789   0.353   6.688   7.764 -0.6487  0.8467 -0.6020
   11CHL1   C20  790   0.393   6.255   6.887  0.1785 -0.2701 -0.5088
   11CHL1   H20  791   0.502   6.271   6.874  0.2348 -1.9548 -2.6611
   11CHL1   C21  792   0.310   6.376   6.827  0.3832  0.4280 -0.1065
   11CHL1  H21A  793   0.296   6.446   6.912  0.2549 -0.1539  0.3540
   11CHL1  H21B  794   0.211   6.338   6.797 -0.6434  2.1690  0.8821
   11CHL1  H21C  795   0.370   6.409   6.739 -1.2500 -0.8489 -1.7766
   11CHL1   C22  796   0.362   6.139   6.787 -0.5551  0.4314 -0.5251
   11CHL1  H22A  797   0.366   6.036   6.829  0.7602  1.8342  3.2814
   11CHL1  H22B  798   0.262   6.152   6.742  0.2458  1.2073 -2.1754
   11CHL1   C23  799   0.458   6.157   6.670  0.1699  0.4485  0.5153
   11CHL1  H23A  800   0.451   6.251   6.612  1.1690  0.0371 -0.3003
   11CHL1  H23B  801   0.561   6.166   6.710 -0.3146  0.5767  1.7888
   11CHL1   C24  802   0.456   6.043   6.569 -0.0065  0.9483  0.9072
   11CHL1  H24A  803   0.437   5.949   6.625 -0.3594  0.8755  0.6689
   11CHL1  H24B  804   0.373   6.059   6.497  0.0370  1.2073  0.9136
   11CHL1   C25  805   0.599   6.025   6.492 -0.5101  0.9244  0.0587
   11CHL1   H25  806   0.669   5.978   6.565 -1.9823 -2.0579 -0.2824
   11CHL1   C26  807   0.570   5.921   6.385 -0.4711  0.2933  0.6260
   11CHL1  H26A  808   0.669   5.888   6.347 -0.1050  1.7519  0.2512
   11CHL1  H26B  809   0.524   5.831   6.431  0.8794  0.5561  2.6386
   11CHL1  H26C  810   0.515   5.966   6.300 -0.2099 -3.2045 -1.6043
   11CHL1   C27  811   0.643   6.159   6.432 -0.2972  0.1841  0.0710
   11CHL1  H27A  812   0.662   6.237   6.509 -1.2255 -0.0966  0.6019
   11CHL1  H27B  813   0.740   6.138   6.382 -0.1256 -0.4525  0.6516
   11CHL1  H27C  814   0.568   6.201   6.362 -0.4367 -3.1795 -1.9901
   12CHL1    C3  815   0.321   4.115   7.608  0.2268  0.0790 -0.2929
   12CHL1    H3  816   0.258   4.027   7.582 -2.0015  1.2608  0.8209
   12CHL1    O3  817   0.332   4.116   7.750 -0.2132  0.4456 -0.2557
   12CHL1   H3'  818   0.425   4.132   7.764  0.0350  0.3668 -1.6659
   12CHL1    C4  819   0.460   4.091   7.550 -0.0818  0.3516 -0.3691
   12CHL1   H4A  820   0.524   4.179   7.568  1.8400 -0.6746 -1.6961
   12CHL1   H4B  821   0.510   4.000   7.589 -1.1006 -0.6754 -1.3594
   12CHL1    C5  822   0.448   4.082   7.396  0.5739  0.4950 -0.0500
   12CHL1    C6  823   0.486   3.974   7.325 -0.8445 -0.2863  0.5609
   12CHL1    H6  824   0.535   3.891   7.378 -0.1981  0.7472  1.6248
   12CHL1    C7  825   0.484   3.968   7.173 -1.1701  0.5252  0.4665
   12CHL1   H7A  826   0.576   3.914   7.141 -0.9244  1.1299  0.1221
   12CHL1   H7B  827   0.404   3.901   7.135 -0.3160  0.1540 -0.7446
   12CHL1    C8  828   0.474   4.106   7.107 -0.3688 -0.3686  0.7523
   12CHL1    H8  829   0.572   4.157   7.118  0.1663 -0.9663 -0.9913
   12CHL1   C14  830   0.434   4.094   6.958 -0.8452 -0.1818 -0.1928
   12CHL1   H14  831   0.334   4.047   6.960 -0.4466 -1.0165  0.5383
   12CHL1   C15  832   0.535   4.012   6.870 -0.1678 -0.3609  0.6878
   12CHL1  H15A  833   0.638   4.039   6.900  0.3599 -0.4846 -0.9171
   12CHL1  H15B  834   0.513   3.905   6.893  1.6520 -1.2746 -1.3853
   12CHL1   C16  835   0.507   4.047   6.721  0.7929 -0.1761 -0.1133
   12CHL1  H16A  836   0.599   4.091   6.679 -0.6551  2.0620 -1.1196
   12CHL1  H16B  837   0.469   3.952   6.677 -0.2586 -0.6409  1.6636
   12CHL1   C17  838   0.401   4.159   6.731  0.3103  0.3152 -0.2310
   12CHL1   H17  839   0.299   4.116   6.732 -0.4056  1.8420 -2.2678
   12CHL1   C13  840   0.422   4.224   6.877  0.2724  0.5970  0.4362
   12CHL1   C18  841   0.547   4.314   6.877 -0.9917 -0.3543 -0.0229
   12CHL1  H18A  842   0.603   4.330   6.971  0.3521  0.6202 -0.9419
   12CHL1  H18B  843   0.619   4.291   6.795 -2.5035 -2.6628 -0.8072
   12CHL1  H18C  844   0.519   4.417   6.844  2.7149  0.4402 -1.1747
   12CHL1   C12  845   0.304   4.291   6.945  0.7301 -0.3566 -0.0173
   12CHL1  H12A  846   0.294   4.385   6.888 -0.6610 -1.5979 -1.9512
   12CHL1  H12B  847   0.209   4.236   6.927  0.6791 -0.9201  1.7786
   12CHL1   C11  848   0.328   4.312   7.099  0.4370  0.2137  0.5597
   12CHL1  H11A  849   0.417   4.378   7.102 -0.5986  1.6258  1.3019
   12CHL1  H11B  850   0.240   4.365   7.142  0.7943 -0.4043  2.1254
   12CHL1    C9  851   0.361   4.187   7.183 -0.4857 -0.3083 -0.4166
   12CHL1    H9  852   0.272   4.122   7.171 -0.1809 -0.4868 -1.8643
   12CHL1   C10  853   0.389   4.208   7.330  0.7111 -1.0506 -0.6649
   12CHL1   C19  854   0.492   4.321   7.343  0.9459 -0.2065 -0.6642
   12CHL1  H19A  855   0.506   4.353   7.449 -3.0767  0.1948 -0.0900
   12CHL1  H19B  856   0.588   4.295   7.293 -0.1865 -1.7757 -2.1439
   12CHL1  H19C  857   0.447   4.409   7.293 -0.1083  0.0211  0.6238
   12CHL1    C1  858   0.259   4.253   7.403  0.4904 -0.2118 -0.4966
   12CHL1   H1A  859   0.231   4.357   7.378 -1.4712 -0.8716 -1.2320
   12CHL1   H1B  860   0.173   4.187   7.378 -0.5914  0.3328  1.5305
   12CHL1    C2  861   0.267   4.250   7.561  0.5071 -0.6824 -0.7009
   12CHL1   H2A  862   0.161   4.262   7.591  0.5025 -2.8832  0.3014
   12CHL1   H2B  863   0.323   4.343   7.587  0.1896 -0.1981 -1.6798
   12CHL1   C20  864   0.398   4.249   6.601 -0.3338 -0.4671  0.0814
   12CHL1   H20  865   0.499   4.284   6.575 -1.6827  0.7311 -4.3072
   12CHL1   C21  866   0.300   4.373   6.616  0.0263  0.1342  0.1158
   12CHL1  H21A  867   0.201   4.346   6.659  1.3429 -3.5064  1.1739
   12CHL1  H21B  868   0.278   4.430   6.523 -2.6924  2.1254  1.8178
   12CHL1  H21C  869   0.345   4.445   6.688 -0.8151 -0.8764  1.6965
   12CHL1   C22  870   0.358   4.163   6.475 -0.4546  0.0488  0.0306
   12CHL1  H22A  871   0.399   4.061   6.490 -2.1519 -0.5257  1.0393
   12CHL1  H22B  872   0.248   4.158   6.466 -0.4873  0.9688 -0.2063
   12CHL1   C23  873   0.405   4.217   6.341 -0.3631  0.5111  0.1193
   12CHL1  H23A  874   0.333   4.291   6.302 -1.3080 -0.8243 -0.7443
   12CHL1  H23B  875   0.511   4.251   6.343  1.5988 -4.3508 -3.4583
   12CHL1   C24  876   0.415   4.111   6.222  0.4521 -0.0861 -0.2154
   12CHL1  H24A  877   0.490   4.035   6.251 -0.2264 -1.1103 -1.0778
   12CHL1  H24B  878   0.316   4.063   6.213  0.1097  0.8589 -1.9947
   12CHL1   C25  879   0.449   4.180   6.084 -0.3459  0.6879 -0.6465
   12CHL1   H25  880   0.521   4.260   6.113  2.1713 -1.0953 -1.5854
   12CHL1   C26  881   0.510   4.087   5.967  0.2968  0.7838 -0.2319
   12CHL1  H26A  882   0.429   4.015   5.942  0.4334 -0.5794  2.7489
   12CHL1  H26B  883   0.527   4.156   5.882  0.0321  2.8887  1.3536
   12CHL1  H26C  884   0.605   4.039   6.001 -0.5565 -2.3255 -1.8141
   12CHL1   C27  885   0.331   4.254   6.022 -0.0206  0.1636  0.2922
   12CHL1  H27A  886   0.236   4.196   6.024  0.1821 -0.1662  1.8166
   12CHL1  H27B  887   0.322   4.354   6.070  0.7132 -0.1375  1.0767
   12CHL1  H27C  888   0.345   4.262   5.912 -2.3971 -0.3412 -0.0931
   13CHL1    C3  889   0.749   5.092   7.832 -0.0535  1.0536  0.3738
   13CHL1    H3  890   0.758   4.983   7.814 -0.5174  1.1408 -0.4897
   13CHL1    O3  891   0.753   5.115   7.970 -0.1988  0.3707 -0.7307
   13CHL1   H3'  892   0.841   5.091   8.001 -0.9505  0.0702  1.3234
   13CHL1    C4  893   0.861   5.163   7.758  0.3277  1.0951 -0.5707
   13CHL1   H4A  894   0.840   5.271   7.772 -0.8468  0.9487 -1.1002
   13CHL1   H4B  895   0.964   5.141   7.796  0.2817 -3.9020 -2.5878
   13CHL1    C5  896   0.873   5.143   7.610  0.5735  0.1904 -0.0606
   13CHL1    C6  897   0.986   5.092   7.558 -0.2396 -0.6164  0.5929
   13CHL1    H6  898   1.070   5.069   7.624  0.0497  1.8733  1.2014
   13CHL1    C7  899   1.011   5.063   7.410  0.0810 -0.4737  0.4884
   13CHL1   H7A  900   1.114   5.083   7.373  0.3994 -1.5660  0.7547
   13CHL1   H7B  901   0.989   4.955   7.397 -1.2482 -0.1172 -0.4237
   13CHL1    C8  902   0.897   5.136   7.330  0.6010  0.7828 -0.5106
   13CHL1    H8  903   0.929   5.243   7.326  2.9450  0.1388 -0.7564
   13CHL1   C14  904   0.881   5.075   7.192  0.1347 -0.2326 -0.0346
   13CHL1   H14  905   0.838   4.974   7.204  0.5941 -0.6077 -1.4047
   13CHL1   C15  906   1.026   5.046   7.121  0.0140 -0.5382 -0.3639
   13CHL1  H15A  907   1.105   5.122   7.139  1.4891 -2.3868  1.4840
   13CHL1  H15B  908   1.075   4.950   7.148  1.1508 -0.1187 -0.8601
   13CHL1   C16  909   0.990   5.049   6.970  0.1553 -0.3864  0.2030
   13CHL1  H16A  910   1.029   5.142   6.926  0.6203 -0.0443  1.3105
   13CHL1  H16B  911   1.031   4.961   6.917 -0.0858 -0.6488  0.4440
   13CHL1   C17  912   0.834   5.068   6.968 -0.0546  0.1917 -0.0062
   13CHL1   H17  913   0.791   4.966   6.977 -0.6195  0.2257 -1.9552
   13CHL1   C13  914   0.799   5.154   7.090 -0.4854  0.1418 -0.7330
   13CHL1   C18  915   0.843   5.302   7.074  0.0087  0.7106 -0.5835
   13CHL1  H18A  916   0.954   5.299   7.077 -0.0214 -1.4599  2.5667
   13CHL1  H18B  917   0.811   5.341   6.975 -0.0722  1.0424 -0.4277
   13CHL1  H18C  918   0.809   5.365   7.159  1.0658  1.3917 -0.6517
   13CHL1   C12  919   0.656   5.148   7.151 -0.6692  0.5299  0.5104
   13CHL1  H12A  920   0.587   5.207   7.087  0.9271  0.8527 -1.0064
   13CHL1  H12B  921   0.625   5.042   7.139  1.8369 -0.3590  1.2475
   13CHL1   C11  922   0.645   5.192   7.295 -0.2273 -0.0368 -0.3599
   13CHL1  H11A  923   0.652   5.303   7.298 -0.3664 -0.0428  0.4339
   13CHL1  H11B  924   0.546   5.172   7.342 -0.7687  3.0942  0.0526
   13CHL1    C9  925   0.750   5.122   7.394 -0.0271 -0.2916 -0.3490
   13CHL1    H9  926   0.738   5.013   7.409  1.2001 -0.4099 -0.1471
   13CHL1   C10  927   0.739   5.178   7.538 -0.5943 -0.0151 -0.5231
   13CHL1   C19  928   0.705   5.330   7.551  0.0402  0.4136 -0.1033
   13CHL1  H19A  929   0.767   5.392   7.484 -2.2846  0.6130 -2.2545
   13CHL1  H19B  930   0.599   5.343   7.520 -0.1351 -0.1551  0.2433
   13CHL1  H19C  931   0.705   5.372   7.654 -0.8169 -0.5707  0.3303
   13CHL1    C1  932   0.629   5.100   7.606  0.3528  0.2009  0.2559
   13CHL1   H1A  933   0.534   5.107   7.549 -0.3019 -1.4275  1.0756
   13CHL1   H1B  934   0.656   4.992   7.595 -2.0072 -0.3941 -0.2214
   13CHL1    C2  935   0.611   5.127   7.765 -0.0008  0.2710  0.5104
   13CHL1   H2A  936   0.532   5.063   7.808  0.4553 -0.7562 -0.1492
   13CHL1   H2B  937   0.576   5.233   7.773 -2.5405  0.1468 -4.6674
   13CHL1   C20  938   0.792   5.108   6.830 -0.3141  0.3868  0.4857
   13CHL1   H20  939   0.837   5.210   6.820 -0.9443  0.7985  1.6216
   13CHL1   C21  940   0.638   5.097   6.812 -0.0124  0.3804  0.1338
   13CHL1  H21A  941   0.570   5.147   6.885 -0.8368 -0.1208 -0.2815
   13CHL1  H21B  942   0.611   4.990   6.821 -0.7552  0.5137 -0.4740
   13CHL1  H21C  943   0.599   5.131   6.714 -1.6985 -1.0875  0.2385
   13CHL1   C22  944   0.854   5.017   6.715 -0.1122  0.2013  0.0125
   13CHL1  H22A  945   0.964   5.027   6.729 -0.3445  0.1241  2.3912
   13CHL1  H22B  946   0.811   4.917   6.735 -1.0669  0.6505  0.2890
   13CHL1   C23  947   0.830   5.054   6.565 -0.3311 -0.1895 -0.3793
   13CHL1  H23A  948   0.721   5.056   6.546 -0.1871  0.9226 -1.1629
   13CHL1  H23B  949   0.868   5.150   6.524 -1.1119  0.7537  1.0326
   13CHL1   C24  950   0.896   4.953   6.476 -0.8561  0.0169  0.4876
   13CHL1  H24A  951   1.000   4.936   6.510 -0.8897  0.0723  0.6162
   13CHL1  H24B  952   0.857   4.851   6.496  1.5943 -1.0682  0.0987
   13CHL1   C25  953   0.922   4.969   6.319 -0.2907  0.5271 -0.1327
   13CHL1   H25  954   0.975   4.881   6.278  1.9237  0.4691  2.5695
   13CHL1   C26  955   0.789   4.966   6.251  0.5877  0.5992 -0.5147
   13CHL1  H26A  956   0.791   4.975   6.140 -1.3062 -1.0809 -0.7556
   13CHL1  H26B  957   0.736   4.873   6.281  0.2963  1.7690  2.9433
   13CHL1  H26C  958   0.728   5.048   6.292 -0.1459  0.7141 -1.7615
   13CHL1   C27  959   1.003   5.090   6.274 -0.5964  0.3988 -0.4035
   13CHL1  H27A  960   1.018   5.084   6.164  2.8977  2.1429 -0.1281
   13CHL1  H27B  961   0.956   5.188   6.295 -2.5749 -0.9357  1.8422
   13CHL1  H27C  962   1.100   5.095   6.327 -1.4040 -0.4080  1.2389
   14CHL1    C3  963   4.439   1.220   8.235  0.5669 -0.5627 -0.2580
   14CHL1    H3  964   4.358   1.297   8.240 -0.0336 -1.1636 -0.6053
   14CHL1    O3  965   4.482   1.192   8.366  0.4486 -0.2474 -0.2815
   14CHL1   H3'  966   4.566   1.237   8.376 -0.3020  1.2162 -0.1368
   14CHL1    C4  967   4.383   1.097   8.165 -0.3070  0.1204  0.9303
   14CHL1   H4A  968   4.445   1.006   8.178 -0.3444 -0.3328 -1.4409
   14CHL1   H4B  969   4.292   1.081   8.226 -0.7792  1.9409  0.7646
   14CHL1    C5  970   4.340   1.126   8.020  0.0715 -0.3479  0.2878
   14CHL1    C6  971   4.217   1.105   7.975  0.2148  0.1320  0.2554
   14CHL1    H6  972   4.140   1.071   8.046 -0.4020 -0.0266 -0.4903
   14CHL1    C7  973   4.170   1.105   7.833  0.3975  0.3508 -0.3299
   14CHL1   H7A  974   4.099   1.023   7.812 -0.3599  1.1254 -0.8762
   14CHL1   H7B  975   4.112   1.198   7.813 -0.1055  0.3044  0.8460
   14CHL1    C8  976   4.300   1.100   7.737  0.0503  0.3458 -0.8657
   14CHL1    H8  977   4.342   0.997   7.738  1.1315  0.7159  1.8770
   14CHL1   C14  978   4.260   1.144   7.593 -0.6564 -0.6633 -0.1110
   14CHL1   H14  979   4.219   1.247   7.601  1.3224  0.1341  0.3202
   14CHL1   C15  980   4.143   1.074   7.517  0.0574 -0.8056 -0.8700
   14CHL1  H15A  981   4.153   0.965   7.535 -1.1110 -0.8207 -0.1867
   14CHL1  H15B  982   4.036   1.092   7.542  0.3125 -0.5384  0.0803
   14CHL1   C16  983   4.172   1.106   7.369  0.3702 -0.1267 -0.1221
   14CHL1  H16A  984   4.192   1.011   7.315 -0.0933  0.7865 -1.9742
   14CHL1  H16B  985   4.083   1.158   7.328 -0.3454 -0.6471  0.7261
   14CHL1   C17  986   4.302   1.192   7.359  0.1285 -0.1382 -0.8488
   14CHL1   H17  987   4.263   1.297   7.364 -0.8855 -0.5460  2.1825
   14CHL1   C13  988   4.375   1.164   7.489  0.1636  0.4800 -0.6762
   14CHL1   C18  989   4.455   1.035   7.469  0.0173  0.6216 -0.5413
   14CHL1  H18A  990   4.504   0.988   7.556  0.0912 -1.9813 -1.8990
   14CHL1  H18B  991   4.398   0.947   7.433  1.4662 -0.7090  0.3027
   14CHL1  H18C  992   4.538   1.046   7.395 -0.8265 -0.9958 -1.7830
   14CHL1   C12  993   4.470   1.272   7.546 -0.1062 -0.1777  0.2943
   14CHL1  H12A  994   4.557   1.287   7.479  0.0950  1.4234  0.8738
   14CHL1  H12B  995   4.414   1.368   7.544 -0.8158 -0.5797  0.5162
   14CHL1   C11  996   4.523   1.235   7.684  0.0604  1.2550  0.3495
   14CHL1  H11A  997   4.597   1.152   7.680 -0.4351  0.8521 -0.6349
   14CHL1  H11B  998   4.577   1.315   7.739  0.7615  0.6469  0.5773
   14CHL1    C9  999   4.406   1.200   7.785 -0.2017  0.5247 -0.3901
   14CHL1    H9 1000   4.350   1.292   7.814  0.1617  0.7212 -0.3098
   14CHL1   C10 1001   4.454   1.168   7.934 -0.7598 -0.3961  0.3305
   14CHL1   C19 1002   4.553   1.051   7.915  0.2292  0.4373 -0.2052
   14CHL1  H19A 1003   4.592   1.007   8.009 -1.2082 -1.0537 -0.2556
   14CHL1  H19B 1004   4.513   0.969   7.851  1.9145 -2.4006  2.0923
   14CHL1  H19C 1005   4.646   1.087   7.866  0.5423  2.2835  1.6275
   14CHL1    C1 1006   4.517   1.293   8.006  0.2226  0.0768  0.6944
   14CHL1   H1A 1007   4.604   1.333   7.950 -0.1179 -1.8566 -1.3711
   14CHL1   H1B 1008   4.444   1.376   8.000  1.0487  0.9256  1.9838
   14CHL1    C2 1009   4.554   1.270   8.158 -0.2957 -0.3281  0.3012
   14CHL1   H2A 1010   4.590   1.367   8.198  0.8641  0.9756 -3.4235
   14CHL1   H2B 1011   4.643   1.202   8.157 -0.3917 -0.4618 -0.7485
   14CHL1   C20 1012   4.374   1.200   7.232 -0.1283  0.1873  0.0330
   14CHL1   H20 1013   4.448   1.117   7.233  0.6678  0.8693  1.3785
   14CHL1   C21 1014   4.438   1.341   7.221 -0.3761  0.4365 -0.0102
   14CHL1  H21A 1015   4.368   1.423   7.195 -0.7666 -0.7672 -3.2039
   14CHL1  H21B 1016   4.509   1.329   7.137 -1.4772  0.0985 -0.9152
   14CHL1  H21C 1017   4.500   1.373   7.307 -0.1165  0.1412 -0.0866
   14CHL1   C22 1018   4.280   1.174   7.105 -0.8916 -0.0232 -0.4040
   14CHL1  H22A 1019   4.247   1.069   7.118  1.8324 -1.0424 -0.9483
   14CHL1  H22B 1020   4.193   1.243   7.099 -1.5480 -0.6978  0.8518
   14CHL1   C23 1021   4.359   1.179   6.970 -0.6862  0.4902  0.3584
   14CHL1  H23A 1022   4.396   1.283   6.955  2.3488 -0.5095  0.3449
   14CHL1  H23B 1023   4.449   1.116   6.985 -1.2589 -0.4292 -0.0174
   14CHL1   C24 1024   4.284   1.121   6.850 -0.0105  0.2446 -0.5083
   14CHL1  H24A 1025   4.272   1.011   6.865 -2.3654  0.5206 -0.0001
   14CHL1  H24B 1026   4.181   1.162   6.861 -0.3708 -0.9613  0.9432
   14CHL1   C25 1027   4.339   1.158   6.712  0.3246  0.7601 -0.1598
   14CHL1   H25 1028   4.443   1.120   6.709 -0.7011 -2.2154 -0.5617
   14CHL1   C26 1029   4.253   1.076   6.608  0.2053 -0.2067 -0.0447
   14CHL1  H26A 1030   4.146   1.103   6.612 -0.4432 -2.2997 -1.3049
   14CHL1  H26B 1031   4.290   1.106   6.507  2.3605  0.4274  0.8693
   14CHL1  H26C 1032   4.254   0.965   6.619 -0.8981 -0.2109  0.0951
   14CHL1   C27 1033   4.324   1.311   6.686 -0.6259 -0.1010  0.4673
   14CHL1  H27A 1034   4.358   1.361   6.779 -0.7134 -2.1044  1.6208
   14CHL1  H27B 1035   4.381   1.344   6.596 -1.9423 -0.3531 -0.4977
   14CHL1  H27C 1036   4.222   1.351   6.665 -0.1958 -0.0249 -1.7281
   15CHL1    C3 1037   5.379   0.940   7.545 -0.6522 -0.6377  0.7890
   15CHL1    H3 1038   5.468   0.877   7.564  2.5368  3.1958 -0.0338
   15CHL1    O3 1039   5.338   1.004   7.661  0.6659 -0.2183 -0.2500
   15CHL1   H3' 1040   5.401   1.073   7.683  0.9587 -0.2501 -0.9673
   15CHL1    C4 1041   5.435   1.054   7.455 -0.0694  0.7537 -0.0791
   15CHL1   H4A 1042   5.376   1.148   7.462  0.3322  1.0132 -0.1647
   15CHL1   H4B 1043   5.537   1.085   7.487  0.7562 -2.5659  0.9360
   15CHL1    C5 1044   5.442   1.021   7.313 -0.2755 -0.0868  0.2583
   15CHL1    C6 1045   5.557   1.035   7.243 -0.4798 -0.3645 -0.2360
   15CHL1    H6 1046   5.646   1.069   7.297 -0.9947 -1.0794  1.1297
   15CHL1    C7 1047   5.560   1.019   7.093  0.6084 -0.6671  0.5863
   15CHL1   H7A 1048   5.605   1.107   7.040 -0.6599 -1.2491 -1.5974
   15CHL1   H7B 1049   5.609   0.923   7.069 -1.9499 -2.7668  3.1133
   15CHL1    C8 1050   5.415   1.012   7.028 -0.2692 -0.2419  0.1554
   15CHL1    H8 1051   5.382   1.118   7.027  2.1173  0.5416 -0.6381
   15CHL1   C14 1052   5.417   0.968   6.881 -0.6789  0.1243 -0.0923
   15CHL1   H14 1053   5.470   0.871   6.889  0.1228  0.5364 -0.3636
   15CHL1   C15 1054   5.505   1.041   6.780  0.8061 -0.5523 -0.8430
   15CHL1  H15A 1055   5.492   1.151   6.787 -1.5494 -0.8339  0.0589
   15CHL1  H15B 1056   5.608   1.001   6.777  0.6910 -0.9943  0.6747
   15CHL1   C16 1057   5.439   1.002   6.646 -0.0905 -0.5169 -0.5305
   15CHL1  H16A 1058   5.396   1.092   6.597  1.4664 -0.3259 -1.6257
   15CHL1  H16B 1059   5.511   0.956   6.575  1.2077  0.0816  0.3800
   15CHL1   C17 1060   5.325   0.902   6.673 -0.1460 -0.8795  0.1171
   15CHL1   H17 1061   5.378   0.806   6.694  0.7036  0.0884  2.8372
   15CHL1   C13 1062   5.280   0.941   6.813  0.6721 -0.3692  0.1004
   15CHL1   C18 1063   5.201   1.078   6.810  0.8574  0.0611 -0.2456
   15CHL1  H18A 1064   5.099   1.052   6.775 -0.0111  0.5503  1.7870
   15CHL1  H18B 1065   5.186   1.125   6.909  0.0707  0.0326 -0.3449
   15CHL1  H18C 1066   5.245   1.154   6.741 -1.2257 -0.1411 -1.9138
   15CHL1   C12 1067   5.212   0.832   6.892  0.1048 -0.9006  0.1534
   15CHL1  H12A 1068   5.111   0.801   6.858  0.3080 -0.5742 -0.7879
   15CHL1  H12B 1069   5.277   0.743   6.876  1.1450 -0.1729  0.2398
   15CHL1   C11 1070   5.203   0.870   7.038  0.0263 -0.0435  0.1932
   15CHL1  H11A 1071   5.116   0.939   7.032 -0.3513 -0.4742  0.6232
   15CHL1  H11B 1072   5.154   0.784   7.090 -1.5545  0.8683  0.2798
   15CHL1    C9 1073   5.335   0.912   7.112  0.2657  0.1677  0.0444
   15CHL1    H9 1074   5.395   0.819   7.110  0.1727  0.0865  0.7790
   15CHL1   C10 1075   5.312   0.958   7.256  0.1878  0.2858  0.4024
   15CHL1   C19 1076   5.203   1.060   7.252 -0.6192 -0.9763 -1.5321
   15CHL1  H19A 1077   5.110   1.003   7.271 -1.3988 -0.3514 -3.3298
   15CHL1  H19B 1078   5.209   1.148   7.320  1.4956  0.2903 -3.2250
   15CHL1  H19C 1079   5.190   1.105   7.151 -0.0513 -1.9225 -2.0445
   15CHL1    C1 1080   5.280   0.838   7.346  0.6225  0.1965  0.8970
   15CHL1   H1A 1081   5.190   0.778   7.321  0.2852  0.2452  1.9552
   15CHL1   H1B 1082   5.361   0.761   7.343  0.2691 -0.1414 -1.0855
   15CHL1    C2 1083   5.253   0.872   7.487  0.1294  0.3877  0.1202
   15CHL1   H2A 1084   5.225   0.786   7.551 -0.6284  0.3689 -0.2247
   15CHL1   H2B 1085   5.163   0.937   7.489  0.5795  1.1013 -1.4031
   15CHL1   C20 1086   5.215   0.891   6.565 -0.4033 -0.8807 -0.8907
   15CHL1   H20 1087   5.160   0.988   6.566  0.9436 -0.0377  1.9230
   15CHL1   C21 1088   5.107   0.789   6.597 -0.3047 -0.0567 -0.3266
   15CHL1  H21A 1089   5.007   0.823   6.632 -0.9392 -2.8139  0.8100
   15CHL1  H21B 1090   5.151   0.716   6.668 -0.3734 -1.7579 -1.9245
   15CHL1  H21C 1091   5.099   0.720   6.510 -2.3439 -1.1074  0.6315
   15CHL1   C22 1092   5.272   0.848   6.428 -0.0992 -0.1130  0.7490
   15CHL1  H22A 1093   5.365   0.903   6.404 -0.6661 -0.7359 -3.9786
   15CHL1  H22B 1094   5.300   0.741   6.438  1.1672 -0.2696 -3.0030
   15CHL1   C23 1095   5.183   0.898   6.310 -1.4152 -0.5496 -1.1531
   15CHL1  H23A 1096   5.237   0.878   6.215 -2.7540 -0.3588 -1.9924
   15CHL1  H23B 1097   5.086   0.844   6.310 -2.5149  1.2722  0.0888
   15CHL1   C24 1098   5.162   1.051   6.306 -1.0416  0.0966  0.3437
   15CHL1  H24A 1099   5.112   1.085   6.399 -1.2070 -0.1774  0.3563
   15CHL1  H24B 1100   5.261   1.101   6.302 -0.7066 -0.6111 -0.5308
   15CHL1   C25 1101   5.106   1.108   6.179 -0.8763  0.4504 -0.0734
   15CHL1   H25 1102   5.013   1.050   6.167 -0.2175 -0.3491 -1.6319
   15CHL1   C26 1103   5.065   1.255   6.212 -0.1842  0.3909 -0.3665
   15CHL1  H26A 1104   4.990   1.258   6.294 -1.0228  2.0455 -1.1531
   15CHL1  H26B 1105   5.153   1.307   6.255 -0.1229  0.9376 -1.1378
   15CHL1  H26C 1106   5.030   1.312   6.124 -2.9071 -1.0194 -0.2944
   15CHL1   C27 1107   5.197   1.088   6.057  0.1725  0.3829  0.1686
   15CHL1  H27A 1108   5.302   1.104   6.090  0.0538  0.3596  0.5626
   15CHL1  H27B 1109   5.188   0.981   6.029 -0.9375  0.6396 -0.5238
   15CHL1  H27C 1110   5.163   1.164   5.983  0.0658  1.0138  0.8468
   16CHL1    C3 1111   6.096   4.071   7.882  0.1859  0.3548  0.6567
   16CHL1    H3 1112   6.061   4.177   7.883  2.6401  1.2436  0.9512
   16CHL1    O3 1113   6.088   4.038   8.022  0.0637 -0.4997  0.6883
   16CHL1   H3' 1114   6.109   3.944   8.022  0.3942 -0.4542 -1.1744
   16CHL1    C4 1115   5.999   3.976   7.805  0.2152 -0.4261  0.1863
   16CHL1   H4A 1116   6.028   3.871   7.830 -0.3692 -0.6224  0.0568
   16CHL1   H4B 1117   5.891   3.972   7.830 -0.6251  0.4562 -2.8857
   16CHL1    C5 1118   6.015   3.985   7.652 -0.2117 -0.1114 -0.5882
   16CHL1    C6 1119   5.920   4.023   7.566  0.1375  0.1363  0.7146
   16CHL1    H6 1120   5.822   4.042   7.613  0.7810 -2.5652  3.4265
   16CHL1    C7 1121   5.928   4.029   7.413 -0.6014  0.5325 -0.4757
   16CHL1   H7A 1122   5.844   3.981   7.357 -0.9654 -0.5142  0.9140
   16CHL1   H7B 1123   5.919   4.137   7.390  2.5961  0.5720 -2.0162
   16CHL1    C8 1124   6.064   3.966   7.370 -0.4807  0.0778  0.3450
   16CHL1    H8 1125   6.055   3.856   7.379 -0.1539  0.0512  0.3539
   16CHL1   C14 1126   6.102   4.011   7.225 -0.1475  0.0384  0.8112
   16CHL1   H14 1127   6.124   4.120   7.230  1.9697 -0.3694  1.9590
   16CHL1   C15 1128   5.996   3.997   7.111 -0.2141 -0.7942 -0.0577
   16CHL1  H15A 1129   5.950   3.896   7.110  1.8821 -1.8903 -3.0198
   16CHL1  H15B 1130   5.910   4.067   7.123  1.2092  0.8432  1.1104
   16CHL1   C16 1131   6.077   4.015   6.981  0.2215 -0.2012  0.1562
   16CHL1  H16A 1132   6.040   3.932   6.917 -1.8331  2.1185 -1.8916
   16CHL1  H16B 1133   6.042   4.104   6.924 -0.5886  0.2654  1.3590
   16CHL1   C17 1134   6.226   4.022   7.018  0.1473  0.2200 -0.3422
   16CHL1   H17 1135   6.254   4.129   7.035  1.2105  0.1476 -1.4743
   16CHL1   C13 1136   6.226   3.960   7.163 -0.4029 -0.8418  0.2327
   16CHL1   C18 1137   6.218   3.805   7.152  0.5934  0.2529  0.0045
   16CHL1  H18A 1138   6.141   3.771   7.079  2.7040 -1.7097 -1.4289
   16CHL1  H18B 1139   6.310   3.762   7.108  0.9257 -0.2103  1.1137
   16CHL1  H18C 1140   6.211   3.756   7.252  1.9727 -0.4107 -0.2039
   16CHL1   C12 1141   6.346   4.007   7.251 -0.7041 -0.5630  0.2562
   16CHL1  H12A 1142   6.437   3.952   7.219  0.8426  1.5150  0.8446
   16CHL1  H12B 1143   6.370   4.114   7.235 -0.6746 -0.4398  1.0756
   16CHL1   C11 1144   6.322   3.975   7.401  0.9888 -0.2475  0.2265
   16CHL1  H11A 1145   6.333   3.865   7.412 -0.3141 -0.4580 -0.3061
   16CHL1  H11B 1146   6.396   4.024   7.467  1.0278  1.1723 -0.8215
   16CHL1    C9 1147   6.179   4.013   7.458 -0.4648 -0.7135 -0.5385
   16CHL1    H9 1148   6.177   4.124   7.454 -0.3022 -0.6118  1.4430
   16CHL1   C10 1149   6.156   3.976   7.607 -0.2432  0.7526  0.1487
   16CHL1   C19 1150   6.202   3.829   7.626  0.0281 -0.2503  0.2138
   16CHL1  H19A 1151   6.159   3.763   7.548  1.0058 -1.1870  0.4415
   16CHL1  H19B 1152   6.313   3.819   7.622  0.0338  0.2721 -1.6579
   16CHL1  H19C 1153   6.176   3.796   7.729  0.0739 -0.2500  0.2255
   16CHL1    C1 1154   6.245   4.069   7.685 -0.1607  0.3052  0.4151
   16CHL1   H1A 1155   6.350   4.055   7.650  0.0925  1.1419  0.8072
   16CHL1   H1B 1156   6.213   4.173   7.661  0.3999  1.0331  2.5909
   16CHL1    C2 1157   6.243   4.057   7.838  0.4306 -1.3745  0.4797
   16CHL1   H2A 1158   6.305   4.131   7.892 -0.7269  0.7308 -0.9400
   16CHL1   H2B 1159   6.289   3.958   7.858 -1.1246 -2.4501 -0.9266
   16CHL1   C20 1160   6.317   3.963   6.906  0.0802 -0.1087 -0.3674
   16CHL1   H20 1161   6.293   3.855   6.896  0.6264 -0.3710  1.0134
   16CHL1   C21 1162   6.467   3.969   6.947 -0.0630  0.2251 -0.5667
   16CHL1  H21A 1163   6.513   4.069   6.964 -1.0014  0.4094  1.2225
   16CHL1  H21B 1164   6.524   3.930   6.861 -0.8268 -1.4709 -0.3440
   16CHL1  H21C 1165   6.497   3.894   7.024  2.5001 -0.7349 -2.3738
   16CHL1   C22 1166   6.289   4.038   6.766  0.1761  0.0314 -0.2680
   16CHL1  H22A 1167   6.340   3.979   6.686  2.4725 -0.5615  1.5466
   16CHL1  H22B 1168   6.182   4.023   6.741  0.3077 -1.9807  0.2036
   16CHL1   C23 1169   6.346   4.183   6.739 -0.4210  0.3856  0.0218
   16CHL1  H23A 1170   6.319   4.253   6.821  0.6107  1.6748 -0.7004
   16CHL1  H23B 1171   6.456   4.170   6.745 -0.5489 -2.6548 -2.1271
   16CHL1   C24 1172   6.297   4.234   6.600  1.1350 -0.0019 -0.5961
   16CHL1  H24A 1173   6.354   4.175   6.525  4.0861  1.0174  0.6712
   16CHL1  H24B 1174   6.192   4.199   6.595  1.2686 -0.5204 -0.0049
   16CHL1   C25 1175   6.313   4.383   6.581 -0.0325 -0.6236  0.0837
   16CHL1   H25 1176   6.264   4.434   6.666 -2.2326  0.4520 -1.7243
   16CHL1   C26 1177   6.457   4.416   6.605 -1.1354 -0.7793 -0.2994
   16CHL1  H26A 1178   6.454   4.527   6.605 -2.4531 -0.7611  1.5736
   16CHL1  H26B 1179   6.499   4.384   6.703 -0.4990 -0.2513 -0.3911
   16CHL1  H26C 1180   6.512   4.365   6.523  0.4149 -0.3522  0.4363
   16CHL1   C27 1181   6.247   4.435   6.450  0.0071  0.2990 -0.1653
   16CHL1  H27A 1182   6.152   4.379   6.435 -0.8093  1.2264  1.3582
   16CHL1  H27B 1183   6.230   4.543   6.433 -2.6886 -0.1174 -0.5708
   16CHL1  H27C 1184   6.326   4.418   6.374  0.8500  2.2575  0.2350
   17CHL1    C3 1185   5.555   3.178   7.592  0.0429  0.2865 -0.0534
   17CHL1    H3 1186   5.614   3.255   7.539 -0.6007  0.1946 -0.9326
   17CHL1    O3 1187   5.581   3.180   7.726 -0.1593 -0.1008  0.0994
   17CHL1   H3' 1188   5.530   3.104   7.755  0.4186 -0.5549 -0.0449
   17CHL1    C4 1189   5.406   3.218   7.571 -0.1970  0.4570  0.1846
   17CHL1   H4A 1190   5.344   3.158   7.642 -0.8151 -1.8101 -2.1036
   17CHL1   H4B 1191   5.396   3.321   7.610 -0.3680  0.3793  0.3484
   17CHL1    C5 1192   5.366   3.204   7.419 -0.4537 -0.0389 -0.2764
   17CHL1    C6 1193   5.313   3.301   7.344 -0.4484  1.0407  0.0497
   17CHL1    H6 1194   5.303   3.399   7.392  1.3758  0.5721  1.5012
   17CHL1    C7 1195   5.270   3.287   7.201 -0.1531 -0.2941  0.5165
   17CHL1   H7A 1196   5.173   3.341   7.190 -0.0123 -0.4271 -1.8244
   17CHL1   H7B 1197   5.346   3.346   7.146 -0.1258  0.3861  1.2625
   17CHL1    C8 1198   5.272   3.140   7.136  0.0402 -0.0069 -0.5195
   17CHL1    H8 1199   5.178   3.088   7.163  0.3957  0.1082  1.1014
   17CHL1   C14 1200   5.280   3.148   6.988  1.2503  0.1203 -0.1183
   17CHL1   H14 1201   5.373   3.206   6.970  2.1254 -0.8526  1.1497
   17CHL1   C15 1202   5.172   3.231   6.917  0.3811 -0.4404 -0.3705
   17CHL1  H15A 1203   5.078   3.189   6.961 -1.3262  2.5669 -0.8854
   17CHL1  H15B 1204   5.176   3.341   6.928  0.1085 -0.5336  0.7660
   17CHL1   C16 1205   5.187   3.179   6.776 -0.5255 -0.2151 -0.8965
   17CHL1  H16A 1206   5.092   3.129   6.750 -2.2603  1.7628  1.2270
   17CHL1  H16B 1207   5.203   3.265   6.709 -1.1372  0.2038 -0.5151
   17CHL1   C17 1208   5.297   3.065   6.770  0.1335  0.2615 -0.7075
   17CHL1   H17 1209   5.402   3.101   6.761  0.7007 -0.3102  2.2970
   17CHL1   C13 1210   5.303   3.009   6.917 -0.0037 -0.0951 -0.3618
   17CHL1   C18 1211   5.183   2.917   6.944 -0.2164 -0.8037 -0.6321
   17CHL1  H18A 1212   5.188   2.822   6.887  0.1117 -0.6432 -0.8768
   17CHL1  H18B 1213   5.164   2.885   7.048  2.3431 -3.0376 -0.7236
   17CHL1  H18C 1214   5.095   2.971   6.903  0.6270  1.3933  0.3187
   17CHL1   C12 1215   5.432   2.944   6.969 -0.5905  0.2072  1.0938
   17CHL1  H12A 1216   5.446   2.842   6.927 -0.0637  0.7071  0.0133
   17CHL1  H12B 1217   5.525   2.995   6.935 -1.5933  0.3359 -1.7646
   17CHL1   C11 1218   5.434   2.939   7.123  0.1681 -0.5901  0.0480
   17CHL1  H11A 1219   5.356   2.867   7.156 -0.4637  0.8882  1.9897
   17CHL1  H11B 1220   5.535   2.897   7.143  1.4614  0.6385 -3.2383
   17CHL1    C9 1221   5.393   3.069   7.195 -0.0511 -1.4265  0.9759
   17CHL1    H9 1222   5.481   3.128   7.161 -1.2707 -0.2452 -0.2597
   17CHL1   C10 1223   5.400   3.065   7.351  0.3383 -0.1906  0.2776
   17CHL1   C19 1224   5.296   2.965   7.405 -0.3345 -0.4434 -0.2054
   17CHL1  H19A 1225   5.313   2.937   7.511 -3.1440  2.5337  1.2259
   17CHL1  H19B 1226   5.190   2.997   7.391 -1.0672 -2.0599  1.3272
   17CHL1  H19C 1227   5.307   2.870   7.348 -0.1469 -0.6652  0.1954
   17CHL1    C1 1228   5.549   3.031   7.385  0.3937  0.1827  0.2796
   17CHL1   H1A 1229   5.579   2.933   7.342 -0.5992 -0.3094  0.6736
   17CHL1   H1B 1230   5.617   3.102   7.335 -0.5360  0.6329 -0.3594
   17CHL1    C2 1231   5.580   3.034   7.536 -0.4225 -0.0954 -0.2507
   17CHL1   H2A 1232   5.688   3.017   7.557 -0.5417  0.9938  1.4522
   17CHL1   H2B 1233   5.524   2.959   7.596  0.8059 -0.6600  0.2237
   17CHL1   C20 1234   5.273   2.966   6.663 -0.3618  0.9941  0.2925
   17CHL1   H20 1235   5.183   2.905   6.686  0.8365 -1.4911 -1.1832
   17CHL1   C21 1236   5.381   2.855   6.657 -0.2300  0.2219  0.0549
   17CHL1  H21A 1237   5.374   2.791   6.567  1.4377 -1.6132  1.1473
   17CHL1  H21B 1238   5.373   2.778   6.737 -2.1688  0.5747  0.2492
   17CHL1  H21C 1239   5.482   2.899   6.656 -0.5269  0.9189  0.1204
   17CHL1   C22 1240   5.269   3.021   6.525  0.5657  0.6562  0.1238
   17CHL1  H22A 1241   5.225   3.123   6.529  3.1087  1.7861  2.9950
   17CHL1  H22B 1242   5.371   3.032   6.482  0.4108  0.2261 -0.3623
   17CHL1   C23 1243   5.186   2.939   6.426 -0.1409 -0.6080  0.4928
   17CHL1  H23A 1244   5.219   2.833   6.435 -1.4433 -1.1946 -1.1747
   17CHL1  H23B 1245   5.079   2.931   6.455  0.0483 -0.7816  1.1541
   17CHL1   C24 1246   5.197   2.988   6.279  0.0312 -0.2346  0.2202
   17CHL1  H24A 1247   5.169   3.095   6.272  1.4004  0.0910 -0.3767
   17CHL1  H24B 1248   5.303   2.993   6.248 -0.2619 -1.4447 -1.0678
   17CHL1   C25 1249   5.112   2.917   6.177  0.7607  0.4533  0.0829
   17CHL1   H25 1250   5.116   2.809   6.202 -1.2404  0.7854  2.1158
   17CHL1   C26 1251   4.956   2.949   6.202 -0.5856 -0.0678  0.2054
   17CHL1  H26A 1252   4.937   3.058   6.204 -1.7619 -0.2608  2.0199
   17CHL1  H26B 1253   4.898   2.893   6.125 -2.1809 -1.3150  2.1780
   17CHL1  H26C 1254   4.918   2.905   6.297  0.6993  1.1769  1.3395
   17CHL1   C27 1255   5.143   2.933   6.026 -1.1664 -0.4256 -0.0083
   17CHL1  H27A 1256   5.125   3.041   6.006  0.6742  0.2221  1.5403
   17CHL1  H27B 1257   5.252   2.918   6.007 -1.1017  0.7473 -0.6358
   17CHL1  H27C 1258   5.083   2.852   5.980 -0.7415 -0.7089 -0.0719
   18CHL1    C3 1259   5.833   3.502   7.929 -0.3382  0.7696  0.1113
   18CHL1    H3 1260   5.840   3.398   7.891  3.0316  0.4400  1.2235
   18CHL1    O3 1261   5.873   3.502   8.063 -0.1384 -1.1412 -0.0863
   18CHL1   H3' 1262   5.956   3.550   8.069 -0.7405  0.1082 -1.1768
   18CHL1    C4 1263   5.930   3.592   7.852 -0.3741 -0.2796  0.9577
   18CHL1   H4A 1264   5.912   3.695   7.891  0.9838  0.0101  0.8989
   18CHL1   H4B 1265   6.040   3.576   7.863 -0.2871 -0.2327  0.1966
   18CHL1    C5 1266   5.891   3.572   7.699 -0.0483  0.0160 -0.5450
   18CHL1    C6 1267   5.983   3.532   7.607 -0.1733 -0.6067  0.3041
   18CHL1    H6 1268   6.084   3.511   7.645 -0.3387 -0.3865  0.8748
   18CHL1    C7 1269   5.956   3.539   7.458  0.5707  0.2633 -0.2440
   18CHL1   H7A 1270   6.038   3.602   7.418  1.0465 -1.5780 -2.3839
   18CHL1   H7B 1271   5.967   3.443   7.403 -0.3679  1.4881 -2.7029
   18CHL1    C8 1272   5.818   3.609   7.421  0.7264 -0.0161  0.4467
   18CHL1    H8 1273   5.823   3.718   7.440 -1.1624  0.3580 -0.9092
   18CHL1   C14 1274   5.779   3.574   7.281 -0.9670  1.0405 -0.3873
   18CHL1   H14 1275   5.767   3.463   7.284 -0.0047  0.9345  0.1120
   18CHL1   C15 1276   5.879   3.612   7.173 -0.2877  0.0674 -0.4488
   18CHL1  H15A 1277   5.923   3.710   7.200  0.3030 -0.0803 -0.8516
   18CHL1  H15B 1278   5.963   3.541   7.162 -2.1441 -2.2174 -0.7571
   18CHL1   C16 1279   5.796   3.625   7.041  0.1642 -0.1837 -0.7947
   18CHL1  H16A 1280   5.790   3.719   6.981 -0.9570 -0.2742 -0.8530
   18CHL1  H16B 1281   5.813   3.534   6.980 -0.0639 -1.9447  1.6250
   18CHL1   C17 1282   5.647   3.602   7.083  1.0516  0.7306 -0.5778
   18CHL1   H17 1283   5.635   3.492   7.079  1.1164  0.6853  0.3340
   18CHL1   C13 1284   5.640   3.626   7.236  0.0852 -0.0681 -0.2279
   18CHL1   C18 1285   5.631   3.781   7.252  0.6100  0.2145 -0.2235
   18CHL1  H18A 1286   5.689   3.833   7.172  0.6981 -0.7297 -0.7887
   18CHL1  H18B 1287   5.523   3.802   7.238  0.6325 -0.2675 -1.2276
   18CHL1  H18C 1288   5.665   3.820   7.350 -0.1434  1.3046 -0.3703
   18CHL1   C12 1289   5.534   3.567   7.328 -0.0225 -0.2375  0.0663
   18CHL1  H12A 1290   5.433   3.605   7.303  0.3984  1.1700  0.4349
   18CHL1  H12B 1291   5.529   3.459   7.302 -0.6302 -0.2878  0.3803
   18CHL1   C11 1292   5.554   3.588   7.471  0.1216  0.3322 -0.9575
   18CHL1  H11A 1293   5.518   3.688   7.502 -0.3969 -0.4123  1.0618
   18CHL1  H11B 1294   5.483   3.517   7.520  2.4321 -2.2998 -1.1200
   18CHL1    C9 1295   5.712   3.558   7.517  0.0839 -0.0145 -0.7802
   18CHL1    H9 1296   5.720   3.449   7.499  0.0666 -0.1356 -0.0561
   18CHL1   C10 1297   5.742   3.599   7.664  0.2157 -0.2103  0.0364
   18CHL1   C19 1298   5.712   3.752   7.679  0.4352  0.2332 -0.1426
   18CHL1  H19A 1299   5.741   3.788   7.780  3.0199 -0.7978 -0.4440
   18CHL1  H19B 1300   5.771   3.811   7.606 -1.7643 -0.9969 -3.1257
   18CHL1  H19C 1301   5.603   3.768   7.668  0.3798  0.9983  1.3038
   18CHL1    C1 1302   5.645   3.525   7.763 -0.4882  0.5415  0.2410
   18CHL1   H1A 1303   5.541   3.564   7.754 -0.7897 -0.4367 -0.8307
   18CHL1   H1B 1304   5.637   3.421   7.725 -1.1105  1.5554 -2.6893
   18CHL1    C2 1305   5.685   3.536   7.915 -0.8557  0.6260 -0.3901
   18CHL1   H2A 1306   5.628   3.466   7.981  0.2635  1.5278  1.6397
   18CHL1   H2B 1307   5.668   3.639   7.953 -0.4187  0.9765 -1.1248
   18CHL1   C20 1308   5.547   3.664   6.978 -0.2968  0.4500 -0.2439
   18CHL1   H20 1309   5.568   3.773   6.978 -1.0921  0.6157 -1.3148
   18CHL1   C21 1310   5.400   3.623   7.023  0.3786 -0.2372 -0.1087
   18CHL1  H21A 1311   5.391   3.516   7.050  0.6513 -0.8701 -2.2836
   18CHL1  H21B 1312   5.329   3.649   6.942 -0.3282  2.4667  1.2349
   18CHL1  H21C 1313   5.360   3.685   7.106  1.0359  0.5126 -0.3346
   18CHL1   C22 1314   5.571   3.630   6.826  0.4751  0.2607  0.6336
   18CHL1  H22A 1315   5.680   3.643   6.806  0.0746  2.8522 -0.1936
   18CHL1  H22B 1316   5.546   3.524   6.806  0.1602  0.7824 -2.0992
   18CHL1   C23 1317   5.496   3.722   6.736 -0.5890 -0.3615  0.0653
   18CHL1  H23A 1318   5.393   3.682   6.731 -0.2592 -1.1973 -0.0979
   18CHL1  H23B 1319   5.496   3.828   6.769  0.4352 -0.2651 -0.1872
   18CHL1   C24 1320   5.561   3.726   6.588  0.2314  0.3678 -0.3812
   18CHL1  H24A 1321   5.660   3.775   6.598  0.2124  0.6904 -1.6681
   18CHL1  H24B 1322   5.572   3.627   6.539 -0.2659 -0.3244  0.8475
   18CHL1   C25 1323   5.485   3.812   6.484 -0.1617  0.0636  0.5075
   18CHL1   H25 1324   5.383   3.770   6.488  0.4558 -1.4149  1.7298
   18CHL1   C26 1325   5.495   3.965   6.508  0.5249 -0.2943  0.2944
   18CHL1  H26A 1326   5.599   4.002   6.523  0.7283  0.7130 -2.9363
   18CHL1  H26B 1327   5.441   4.017   6.426 -0.2587 -2.7539 -0.8232
   18CHL1  H26C 1328   5.446   3.988   6.605 -1.7385 -1.7913 -0.4166
   18CHL1   C27 1329   5.550   3.782   6.350  0.1972  0.3066 -0.7276
   18CHL1  H27A 1330   5.658   3.805   6.346  0.3453 -0.2041  0.0088
   18CHL1  H27B 1331   5.538   3.674   6.325  0.0724 -0.2634  1.5242
   18CHL1  H27C 1332   5.508   3.852   6.275 -2.2328  0.1322  0.3672
   19CHL1    C3 1333   6.338   5.364   8.000  0.5126  0.1332  0.1653
   19CHL1    H3 1334   6.330   5.474   7.993 -0.5310  0.0743  0.1553
   19CHL1    O3 1335   6.330   5.315   8.132  0.0558 -0.0386  0.2609
   19CHL1   H3' 1336   6.410   5.270   8.160 -0.0258 -0.0205  0.5301
   19CHL1    C4 1337   6.237   5.280   7.917 -0.4122  0.0229  0.8138
   19CHL1   H4A 1338   6.263   5.172   7.916 -0.6178 -0.0720 -1.8248
   19CHL1   H4B 1339   6.139   5.287   7.969 -1.2497  2.3470 -0.9138
   19CHL1    C5 1340   6.241   5.325   7.770  0.1684 -0.9872  0.0666
   19CHL1    C6 1341   6.129   5.380   7.716  0.2076 -0.0986 -0.3379
   19CHL1    H6 1342   6.035   5.389   7.773 -0.7518  1.6652 -2.0465
   19CHL1    C7 1343   6.123   5.421   7.567  0.7161 -0.2043 -0.3716
   19CHL1   H7A 1344   6.033   5.375   7.521  0.1815  1.9250 -1.5615
   19CHL1   H7B 1345   6.119   5.531   7.553  1.3999 -0.5196 -4.1529
   19CHL1    C8 1346   6.247   5.374   7.483 -0.0530  0.2287 -0.1118
   19CHL1    H8 1347   6.242   5.271   7.443  3.4234  1.1441 -3.5581
   19CHL1   C14 1348   6.271   5.464   7.357  0.1188  0.4887 -0.4682
   19CHL1   H14 1349   6.291   5.560   7.409  1.3409 -0.4573  0.9067
   19CHL1   C15 1350   6.155   5.484   7.256  0.0605  0.0059 -0.3633
   19CHL1  H15A 1351   6.110   5.386   7.230 -0.4931 -0.1099  0.9167
   19CHL1  H15B 1352   6.075   5.546   7.302  2.2458  2.9617 -0.2704
   19CHL1   C16 1353   6.229   5.552   7.134 -0.7977  0.4236  0.0699
   19CHL1  H16A 1354   6.183   5.500   7.047 -0.5204 -0.3299  0.3593
   19CHL1  H16B 1355   6.201   5.659   7.132  1.8154  1.2294  1.7420
   19CHL1   C17 1356   6.374   5.549   7.172  0.1815  0.2964  0.0723
   19CHL1   H17 1357   6.395   5.632   7.243  0.9047 -0.9343  1.3324
   19CHL1   C13 1358   6.393   5.431   7.268 -0.3343 -0.3386  0.7091
   19CHL1   C18 1359   6.377   5.297   7.190 -0.5892  0.7036  0.2831
   19CHL1  H18A 1360   6.468   5.267   7.135 -1.0409  0.3517 -0.2875
   19CHL1  H18B 1361   6.350   5.216   7.261 -0.7089  0.7208  0.2590
   19CHL1  H18C 1362   6.300   5.307   7.110  1.1545  2.4267 -1.2769
   19CHL1   C12 1363   6.528   5.440   7.354  0.1233 -0.2200 -0.4473
   19CHL1  H12A 1364   6.623   5.420   7.301  2.5146  2.2640  2.4633
   19CHL1  H12B 1365   6.553   5.545   7.382 -1.3548  0.2141 -0.6204
   19CHL1   C11 1366   6.515   5.352   7.479 -0.1306  0.4349 -0.7481
   19CHL1  H11A 1367   6.510   5.248   7.439 -3.0853  0.0384  0.3324
   19CHL1  H11B 1368   6.600   5.371   7.548 -1.0698 -0.5432  0.7314
   19CHL1    C9 1369   6.379   5.382   7.563  0.3060  0.4796  0.0673
   19CHL1    H9 1370   6.388   5.486   7.602  0.8219  1.5671 -2.6797
   19CHL1   C10 1371   6.378   5.311   7.704  0.1305  0.7201 -0.7408
   19CHL1   C19 1372   6.405   5.159   7.676  0.0550 -1.0860  0.2245
   19CHL1  H19A 1373   6.333   5.110   7.607  1.4625 -0.2832 -1.9138
   19CHL1  H19B 1374   6.499   5.134   7.622  1.8339  0.1244  2.5843
   19CHL1  H19C 1375   6.395   5.095   7.766 -1.7272 -1.7622 -0.4074
   19CHL1    C1 1376   6.483   5.366   7.802 -0.1580  0.2710  0.7866
   19CHL1   H1A 1377   6.583   5.343   7.760 -0.1865  0.5453  0.5649
   19CHL1   H1B 1378   6.480   5.477   7.793  0.5564  0.2951  0.8167
   19CHL1    C2 1379   6.481   5.331   7.949  0.7351 -0.1878 -0.0482
   19CHL1   H2A 1380   6.547   5.398   8.008 -1.0092  2.2714 -0.7399
   19CHL1   H2B 1381   6.522   5.230   7.966  1.6366  0.3355  1.0134
   19CHL1   C20 1382   6.475   5.551   7.055 -0.4185  0.3294  0.1434
   19CHL1   H20 1383   6.569   5.506   7.093  0.3018 -1.2388 -3.1395
   19CHL1   C21 1384   6.511   5.695   7.039 -0.4157  0.0086  0.1364
   19CHL1  H21A 1385   6.601   5.719   6.978  0.2528  0.6267  1.3392
   19CHL1  H21B 1386   6.515   5.747   7.137  0.2022  0.7617 -0.2836
   19CHL1  H21C 1387   6.423   5.737   6.987 -0.1354 -0.9645 -1.2044
   19CHL1   C22 1388   6.435   5.486   6.918  0.4554  0.3296  0.1353
   19CHL1  H22A 1389   6.354   5.413   6.940 -1.5933  2.2397 -0.6882
   19CHL1  H22B 1390   6.392   5.561   6.848 -0.2035 -1.5912 -1.6007
   19CHL1   C23 1391   6.542   5.405   6.841 -0.1555 -0.2823  0.0544
   19CHL1  H23A 1392   6.635   5.464   6.834 -1.3289  1.6638  0.0525
   19CHL1  H23B 1393   6.571   5.315   6.899  1.3512 -0.5504 -1.0414
   19CHL1   C24 1394   6.495   5.352   6.707  0.0572  0.0474  0.6316
   19CHL1  H24A 1395   6.552   5.264   6.671  0.0430  0.2743  0.0410
   19CHL1  H24B 1396   6.390   5.317   6.713 -0.4706  0.9758 -1.8785
   19CHL1   C25 1397   6.475   5.448   6.588 -0.2775 -0.1484 -0.0595
   19CHL1   H25 1398   6.413   5.535   6.620  3.6786  3.1454 -0.5282
   19CHL1   C26 1399   6.612   5.512   6.544 -0.2419 -0.2940 -0.0676
   19CHL1  H26A 1400   6.585   5.595   6.475  1.9529  0.2562 -0.3569
   19CHL1  H26B 1401   6.669   5.552   6.631 -0.1226  0.2445 -0.3836
   19CHL1  H26C 1402   6.679   5.443   6.489 -0.0112  0.0869 -0.2718
   19CHL1   C27 1403   6.404   5.382   6.468 -0.0227  0.3518  0.0708
   19CHL1  H27A 1404   6.458   5.287   6.447 -1.0411 -0.8050  2.3958
   19CHL1  H27B 1405   6.300   5.350   6.489  1.2461 -2.5643  2.7058
   19CHL1  H27C 1406   6.413   5.451   6.381  3.1671 -0.6020 -0.4838
   20CHL1    C3 1407   2.039   5.493   7.824  0.2012 -0.1633  0.2061
   20CHL1    H3 1408   1.928   5.489   7.820  0.0686  2.5354 -0.3264
   20CHL1    O3 1409   2.087   5.459   7.953  0.0757 -0.1574 -0.1461
   20CHL1   H3' 1410   2.061   5.542   7.994  2.6209  2.1191 -2.7367
   20CHL1    C4 1411   2.092   5.385   7.725  0.0188 -0.2944  0.4387
   20CHL1   H4A 1412   2.200   5.374   7.747  0.3017 -0.4714 -0.9427
   20CHL1   H4B 1413   2.051   5.285   7.752  1.0330 -1.0228 -0.6510
   20CHL1    C5 1414   2.087   5.414   7.580  0.4018 -0.2964  0.4331
   20CHL1    C6 1415   2.041   5.326   7.491  0.1245  0.0373 -1.0110
   20CHL1    H6 1416   2.004   5.229   7.527  0.9865 -1.1904 -3.1828
   20CHL1    C7 1417   2.030   5.353   7.350 -1.0070  0.2561  0.6477
   20CHL1   H7A 1418   2.078   5.272   7.292 -1.7559 -0.0793  0.4791
   20CHL1   H7B 1419   1.925   5.370   7.319 -1.0338 -0.8226  0.1049
   20CHL1    C8 1420   2.104   5.478   7.301 -0.0785 -0.4358 -0.7006
   20CHL1    H8 1421   2.212   5.453   7.305  0.0233  0.1180  0.1406
   20CHL1   C14 1422   2.058   5.524   7.165  0.2371 -0.4350 -0.0106
   20CHL1   H14 1423   1.953   5.554   7.187 -0.6536 -1.7991 -2.0896
   20CHL1   C15 1424   2.057   5.426   7.045  0.0860  0.8827 -0.0637
   20CHL1  H15A 1425   2.148   5.362   7.036  0.3341  1.4303 -1.8172
   20CHL1  H15B 1426   1.976   5.351   7.055  1.5649 -0.5972  1.4056
   20CHL1   C16 1427   2.049   5.526   6.920  0.3604 -0.2342  0.0813
   20CHL1  H16A 1428   2.132   5.496   6.852  2.0763  3.0798  0.5258
   20CHL1  H16B 1429   1.958   5.504   6.860  1.6098 -1.1220 -1.5931
   20CHL1   C17 1430   2.073   5.670   6.968  0.3261  0.4013  0.5143
   20CHL1   H17 1431   1.970   5.709   6.984 -0.1521 -0.6429  0.0880
   20CHL1   C13 1432   2.135   5.648   7.110  0.3439 -0.2509  0.5216
   20CHL1   C18 1433   2.285   5.615   7.078  0.1768 -0.1650 -0.2439
   20CHL1  H18A 1434   2.295   5.525   7.014  2.5185 -0.1562  0.0132
   20CHL1  H18B 1435   2.334   5.705   7.033  1.5232 -0.7374  0.0386
   20CHL1  H18C 1436   2.337   5.602   7.175  0.9174  1.5745 -0.3561
   20CHL1   C12 1437   2.119   5.767   7.206  1.1234  0.3380 -0.2863
   20CHL1  H12A 1438   2.178   5.856   7.174 -1.0462  1.8661 -0.2455
   20CHL1  H12B 1439   2.010   5.787   7.202  1.0344 -0.2958 -1.8382
   20CHL1   C11 1440   2.153   5.721   7.349  0.2273 -0.1875 -0.6499
   20CHL1  H11A 1441   2.261   5.697   7.335  0.2255  0.5619 -2.2748
   20CHL1  H11B 1442   2.128   5.802   7.421 -2.2535  0.3238 -1.9661
   20CHL1    C9 1443   2.086   5.591   7.403  0.2211 -0.0408  1.1078
   20CHL1    H9 1444   1.976   5.607   7.408 -0.2642 -2.9590  1.2827
   20CHL1   C10 1445   2.132   5.559   7.545 -0.4517  0.2335 -0.1202
   20CHL1   C19 1446   2.285   5.573   7.564 -0.1966  0.2935 -0.4104
   20CHL1  H19A 1447   2.313   5.524   7.660 -2.2848  1.6885  1.0182
   20CHL1  H19B 1448   2.340   5.510   7.491 -2.2088 -2.1797  0.0196
   20CHL1  H19C 1449   2.322   5.677   7.570  2.2125 -0.5758  1.6324
   20CHL1    C1 1450   2.068   5.662   7.642 -0.1688 -1.0630 -0.0865
   20CHL1   H1A 1451   2.109   5.765   7.632 -1.4104 -0.5327  0.0531
   20CHL1   H1B 1452   1.959   5.672   7.623 -0.4858  0.8767  2.2786
   20CHL1    C2 1453   2.094   5.627   7.789  0.3499 -0.1778  0.8489
   20CHL1   H2A 1454   2.046   5.706   7.851  0.9337  2.4130 -1.7868
   20CHL1   H2B 1455   2.204   5.628   7.804  1.0271  0.0624 -3.0448
   20CHL1   C20 1456   2.150   5.749   6.853  0.4452  0.4144 -0.5652
   20CHL1   H20 1457   2.254   5.723   6.826  0.0922 -0.7617 -0.8416
   20CHL1   C21 1458   2.142   5.896   6.900 -0.8101  0.1816  0.6771
   20CHL1  H21A 1459   2.236   5.916   6.956 -0.3243  0.1319 -0.1049
   20CHL1  H21B 1460   2.047   5.931   6.945 -0.6406  0.5226  0.7805
   20CHL1  H21C 1461   2.159   5.954   6.807  1.9902 -1.3871  0.0951
   20CHL1   C22 1462   2.070   5.734   6.716 -0.1427  0.2390 -0.5723
   20CHL1  H22A 1463   2.071   5.624   6.702  0.8263 -0.5477  3.9252
   20CHL1  H22B 1464   1.965   5.769   6.726 -0.3574 -0.9434  2.1577
   20CHL1   C23 1465   2.139   5.792   6.590 -0.4961 -1.1649  0.5225
   20CHL1  H23A 1466   2.127   5.902   6.595  0.8687 -0.7434 -2.8863
   20CHL1  H23B 1467   2.248   5.774   6.586 -0.3736 -0.4229 -2.8506
   20CHL1   C24 1468   2.085   5.738   6.458  0.4970  1.0811 -0.3961
   20CHL1  H24A 1469   2.093   5.627   6.461 -0.1424  1.0485  2.5765
   20CHL1  H24B 1470   1.978   5.768   6.465  0.6727  1.3455  1.3866
   20CHL1   C25 1471   2.156   5.789   6.340  0.2335  0.0703  0.5042
   20CHL1   H25 1472   2.266   5.787   6.352  0.4703  0.4529 -1.2834
   20CHL1   C26 1473   2.109   5.713   6.212  0.1369 -0.8548  0.2470
   20CHL1  H26A 1474   2.156   5.762   6.123  0.6381 -0.4424  0.7332
   20CHL1  H26B 1475   2.144   5.607   6.213 -1.2668 -1.3218  0.8904
   20CHL1  H26C 1476   1.999   5.709   6.200 -0.0697 -1.6661  2.1274
   20CHL1   C27 1477   2.123   5.938   6.325 -0.1660 -1.1553  0.5932
   20CHL1  H27A 1478   2.017   5.963   6.304 -0.2902 -1.9601  0.2312
   20CHL1  H27B 1479   2.149   5.996   6.416  0.6866 -0.2973 -0.1629
   20CHL1  H27C 1480   2.182   5.973   6.238  1.6693 -0.8642  1.9026
   21CHL1    C3 1481   1.125   4.326   7.873  1.1509 -0.4550  1.0457
   21CHL1    H3 1482   1.050   4.398   7.835 -0.1120 -1.5265  1.4599
   21CHL1    O3 1483   1.156   4.340   8.012  0.2755  0.6165 -0.3994
   21CHL1   H3' 1484   1.220   4.270   8.025  0.9514  1.4197  0.7400
   21CHL1    C4 1485   1.048   4.193   7.853 -0.0404 -0.1349 -0.2157
   21CHL1   H4A 1486   1.102   4.112   7.906 -0.8075  0.3585  1.4044
   21CHL1   H4B 1487   0.949   4.218   7.898  0.6525 -1.6599  2.3955
   21CHL1    C5 1488   1.023   4.154   7.709  0.1457 -0.2764 -0.7290
   21CHL1    C6 1489   0.898   4.125   7.665 -0.5569  0.1192  0.4915
   21CHL1    H6 1490   0.812   4.132   7.733  0.6598  0.5449  2.0425
   21CHL1    C7 1491   0.868   4.081   7.519 -0.5609 -0.0367  0.4260
   21CHL1   H7A 1492   0.803   3.992   7.518 -0.8993  0.2035 -0.5526
   21CHL1   H7B 1493   0.815   4.169   7.475 -1.7181 -0.7017  0.4694
   21CHL1    C8 1494   0.999   4.076   7.434  0.7856 -0.0415 -0.7591
   21CHL1    H8 1495   1.036   3.973   7.452 -1.2615 -0.8145 -0.6509
   21CHL1   C14 1496   0.969   4.086   7.286 -0.1623  0.0073 -0.3072
   21CHL1   H14 1497   0.949   4.193   7.268  0.0674  0.1641  0.3324
   21CHL1   C15 1498   0.843   4.025   7.236 -0.5622  0.7929 -0.5637
   21CHL1  H15A 1499   0.842   3.925   7.285 -1.2489  1.7220  1.4215
   21CHL1  H15B 1500   0.759   4.083   7.279 -0.8551  1.2345 -1.7091
   21CHL1   C16 1501   0.855   4.030   7.080 -0.4296 -0.2816 -0.2878
   21CHL1  H16A 1502   0.835   3.927   7.042  2.6809 -0.6618 -1.1980
   21CHL1  H16B 1503   0.788   4.108   7.037 -0.6430 -0.6127 -0.5649
   21CHL1   C17 1504   1.005   4.072   7.060 -0.1499  0.4687  0.6374
   21CHL1   H17 1505   1.011   4.182   7.042  1.0052  0.0858 -1.7955
   21CHL1   C13 1506   1.083   4.046   7.190  1.1653 -0.0850  0.1293
   21CHL1   C18 1507   1.122   3.901   7.208 -0.3908  0.7799  0.0416
   21CHL1  H18A 1508   1.209   3.871   7.146  0.6797 -1.2372  2.3886
   21CHL1  H18B 1509   1.148   3.882   7.314 -0.1427  0.5176 -0.0671
   21CHL1  H18C 1510   1.049   3.820   7.187  2.3483 -1.4407 -1.6156
   21CHL1   C12 1511   1.198   4.140   7.231 -0.2801 -0.0262  0.2584
   21CHL1  H12A 1512   1.286   4.100   7.178 -2.0443 -1.8011 -1.5204
   21CHL1  H12B 1513   1.176   4.247   7.214 -0.2106 -0.2517 -1.3835
   21CHL1   C11 1514   1.233   4.140   7.381 -0.1401  0.1285  0.5473
   21CHL1  H11A 1515   1.287   4.046   7.405  1.9857  0.6798 -1.5726
   21CHL1  H11B 1516   1.298   4.230   7.390  1.7772 -1.1931  0.6967
   21CHL1    C9 1517   1.114   4.163   7.480 -0.4536 -1.2354  0.0040
   21CHL1    H9 1518   1.082   4.265   7.452  0.9437 -1.2821 -1.9602
   21CHL1   C10 1519   1.150   4.155   7.630  0.0812 -0.5569  0.2188
   21CHL1   C19 1520   1.237   4.032   7.657 -0.1731  0.5105  0.2714
   21CHL1  H19A 1521   1.210   3.935   7.609  1.4099  0.3835 -0.4175
   21CHL1  H19B 1522   1.338   4.046   7.613 -0.7282  1.5214 -0.7276
   21CHL1  H19C 1523   1.246   4.007   7.765 -0.1366 -4.1482 -0.5896
   21CHL1    C1 1524   1.233   4.286   7.665  0.6448  0.0803 -0.6443
   21CHL1   H1A 1525   1.331   4.286   7.612  1.0603  0.3281  0.1187
   21CHL1   H1B 1526   1.194   4.379   7.618  0.6863  0.4835  0.1093
   21CHL1    C2 1527   1.260   4.309   7.815 -0.0751  0.1995  0.6844
   21CHL1   H2A 1528   1.319   4.402   7.828 -0.5021  0.4499  0.8573
   21CHL1   H2B 1529   1.318   4.226   7.859  1.1021  2.2798  3.3191
   21CHL1   C20 1530   1.063   4.019   6.922  0.0091  1.4643  0.5173
   21CHL1   H20 1531   1.058   3.908   6.933 -1.9410  1.6922  2.8395
   21CHL1   C21 1532   1.210   4.059   6.905  0.1215 -0.7465 -0.3702
   21CHL1  H21A 1533   1.215   4.170   6.910 -1.5129 -0.6628 -0.1555
   21CHL1  H21B 1534   1.243   4.032   6.803 -0.1432 -0.0328 -0.6461
   21CHL1  H21C 1535   1.279   4.017   6.982  1.4236  0.2932 -0.9295
   21CHL1   C22 1536   0.974   4.057   6.802 -0.1781 -0.0690  0.4060
   21CHL1  H22A 1537   0.866   4.042   6.824 -1.1549  3.8374 -0.9237
   21CHL1  H22B 1538   0.993   4.166   6.791  3.4249 -0.6731 -0.3654
   21CHL1   C23 1539   0.998   3.995   6.662 -0.3385  0.5403  0.2828
   21CHL1  H23A 1540   1.098   4.028   6.628 -0.4348 -1.4822 -2.1742
   21CHL1  H23B 1541   0.987   3.885   6.657 -1.1202  0.6735 -2.7605
   21CHL1   C24 1542   0.905   4.069   6.560  0.4882  0.4214  0.1066
   21CHL1  H24A 1543   0.804   4.024   6.573 -0.6129  2.1816 -1.7726
   21CHL1  H24B 1544   0.906   4.176   6.589 -1.9083  0.6259 -0.3401
   21CHL1   C25 1545   0.945   4.055   6.408 -0.6643 -0.2382  0.0540
   21CHL1   H25 1546   0.964   3.946   6.400 -0.3901 -0.0471 -2.4248
   21CHL1   C26 1547   0.827   4.098   6.320  0.2413  0.8510  0.2761
   21CHL1  H26A 1548   0.846   4.075   6.213  3.2573  1.2125  0.6356
   21CHL1  H26B 1549   0.726   4.063   6.348  0.6042 -0.8232 -0.4139
   21CHL1  H26C 1550   0.826   4.208   6.303 -1.4814  0.5766 -1.8340
   21CHL1   C27 1551   1.075   4.139   6.381  0.8220  0.4195  0.7667
   21CHL1  H27A 1552   1.112   4.132   6.276  2.2882  0.8904  1.2277
   21CHL1  H27B 1553   1.056   4.243   6.415  0.6282  0.3103  0.9924
   21CHL1  H27C 1554   1.154   4.093   6.444 -0.1248  0.1215  1.7565
   22CHL1    C3 1555   5.861   5.834   7.831  0.2379  0.1534 -0.0292
   22CHL1    H3 1556   5.932   5.911   7.795 -0.2200  1.0177  0.8640
   22CHL1    O3 1557   5.869   5.819   7.972 -0.2733 -0.4823 -0.6769
   22CHL1   H3' 1558   5.786   5.780   8.000 -0.8231  0.2691 -1.2490
   22CHL1    C4 1559   5.717   5.876   7.802  0.3627 -0.0367  0.0666
   22CHL1   H4A 1560   5.651   5.794   7.838 -1.1192  1.3322  0.5858
   22CHL1   H4B 1561   5.677   5.967   7.850  0.1296  0.0691 -0.3186
   22CHL1    C5 1562   5.711   5.895   7.655  0.5560  0.1317 -0.4279
   22CHL1    C6 1563   5.693   6.013   7.600 -0.1622 -0.4271 -0.2027
   22CHL1    H6 1564   5.680   6.098   7.668  0.2473 -0.8623  0.4412
   22CHL1    C7 1565   5.655   6.030   7.453  0.1072  0.3030 -0.3894
   22CHL1   H7A 1566   5.560   6.087   7.448 -0.6478 -0.7157  1.1997
   22CHL1   H7B 1567   5.741   6.088   7.413  0.6546  1.3986  2.1872
   22CHL1    C8 1568   5.645   5.906   7.363 -0.1495 -0.2390  0.4927
   22CHL1    H8 1569   5.541   5.867   7.357  0.2545 -1.1813 -1.2722
   22CHL1   C14 1570   5.680   5.934   7.220 -0.2521 -0.0372  0.1946
   22CHL1   H14 1571   5.787   5.965   7.220  0.4680 -2.2987 -0.8092
   22CHL1   C15 1572   5.602   6.045   7.153 -1.0733 -0.6867 -0.4601
   22CHL1  H15A 1573   5.493   6.033   7.169 -1.1925  0.8721 -0.0168
   22CHL1  H15B 1574   5.653   6.139   7.182  0.2465 -1.5293  0.0650
   22CHL1   C16 1575   5.631   6.024   7.005 -0.5489  0.0490  0.2046
   22CHL1  H16A 1576   5.537   6.030   6.947 -0.4578 -2.5766 -0.3613
   22CHL1  H16B 1577   5.701   6.098   6.959  0.3734  0.3724  2.0474
   22CHL1   C17 1578   5.688   5.883   6.986  0.1000 -0.1587  0.1734
   22CHL1   H17 1579   5.799   5.882   6.974  0.0527 -0.5898 -0.2618
   22CHL1   C13 1580   5.664   5.813   7.124  0.1509 -0.1286  0.4357
   22CHL1   C18 1581   5.520   5.759   7.127 -0.3816 -0.5468 -0.0609
   22CHL1  H18A 1582   5.500   5.672   7.060 -3.0984  0.4195 -0.6467
   22CHL1  H18B 1583   5.495   5.716   7.226  0.0201  0.2478  0.3933
   22CHL1  H18C 1584   5.455   5.843   7.095  1.7122  1.8610  1.5683
   22CHL1   C12 1585   5.765   5.702   7.166  0.0650 -0.3040  0.4553
   22CHL1  H12A 1586   5.735   5.611   7.110 -1.4757 -0.0162  0.7698
   22CHL1  H12B 1587   5.862   5.747   7.138 -1.5520  3.1478 -0.0820
   22CHL1   C11 1588   5.750   5.676   7.317  0.4586 -0.0946 -0.6395
   22CHL1  H11A 1589   5.655   5.619   7.323  1.3770 -1.5264  1.5773
   22CHL1  H11B 1590   5.826   5.600   7.346  0.4110  0.1642  0.1919
   22CHL1    C9 1591   5.742   5.798   7.417 -0.2962  0.6893  0.7166
   22CHL1    H9 1592   5.838   5.853   7.414 -0.9476  1.8487  0.4195
   22CHL1   C10 1593   5.729   5.769   7.568 -0.0360  0.2482 -0.5400
   22CHL1   C19 1594   5.609   5.681   7.588 -0.2086 -0.8003 -0.3438
   22CHL1  H19A 1595   5.627   5.583   7.538 -1.8569 -1.0134 -0.5801
   22CHL1  H19B 1596   5.590   5.653   7.693  1.5442 -0.8948 -0.0131
   22CHL1  H19C 1597   5.519   5.730   7.544  0.7417  1.6911  0.3070
   22CHL1    C1 1598   5.855   5.687   7.618  0.0957 -0.7942  0.2437
   22CHL1   H1A 1599   5.850   5.581   7.587  1.1950 -1.0481  0.8818
   22CHL1   H1B 1600   5.942   5.731   7.565 -0.2944 -0.0208  0.2218
   22CHL1    C2 1601   5.883   5.694   7.768  0.4113 -0.2251 -0.0502
   22CHL1   H2A 1602   5.988   5.666   7.791 -0.0994 -1.5984  0.7596
   22CHL1   H2B 1603   5.813   5.622   7.816  0.1980 -0.2999 -0.4710
   22CHL1   C20 1604   5.623   5.824   6.859  0.2104 -0.5749  0.3843
   22CHL1   H20 1605   5.514   5.811   6.873  0.0275 -0.0319 -0.5147
   22CHL1   C21 1606   5.679   5.685   6.829 -0.4020  0.1528 -0.0354
   22CHL1  H21A 1607   5.655   5.611   6.908 -0.1469  0.6820  0.5529
   22CHL1  H21B 1608   5.788   5.705   6.824 -0.3622 -0.0811 -0.1084
   22CHL1  H21C 1609   5.648   5.646   6.730 -0.3851 -0.0439  0.0370
   22CHL1   C22 1610   5.646   5.916   6.738 -0.0230 -0.0775  0.2069
   22CHL1  H22A 1611   5.614   6.021   6.754  0.7151  0.1967 -0.0891
   22CHL1  H22B 1612   5.755   5.908   6.724  0.0802 -0.9674  1.3614
   22CHL1   C23 1613   5.566   5.885   6.615  0.1605  1.2904  0.5784
   22CHL1  H23A 1614   5.610   5.961   6.546  1.5080  2.5581  2.7309
   22CHL1  H23B 1615   5.601   5.788   6.574 -1.0192  0.5625  1.2711
   22CHL1   C24 1616   5.411   5.892   6.630 -0.1622 -0.0321 -0.9286
   22CHL1  H24A 1617   5.377   5.807   6.693 -1.7493 -0.8770 -2.8213
   22CHL1  H24B 1618   5.383   5.977   6.696  1.1017 -0.8943  0.7894
   22CHL1   C25 1619   5.336   5.903   6.503  0.0710  0.0334 -0.1659
   22CHL1   H25 1620   5.227   5.897   6.526 -0.1657 -1.3534 -1.4776
   22CHL1   C26 1621   5.367   6.038   6.441 -0.2933  0.3046  0.1330
   22CHL1  H26A 1622   5.351   6.119   6.515  1.1578 -0.5988  1.5055
   22CHL1  H26B 1623   5.477   6.037   6.428 -0.1919 -1.2581  0.8029
   22CHL1  H26C 1624   5.312   6.059   6.347  1.1292  0.7817 -0.6255
   22CHL1   C27 1625   5.359   5.780   6.421  0.6421 -0.2696  0.2125
   22CHL1  H27A 1626   5.463   5.758   6.389  1.0587  0.1124  1.2759
   22CHL1  H27B 1627   5.325   5.695   6.484  1.2227 -0.1432  0.7022
   22CHL1  H27C 1628   5.296   5.787   6.330 -0.4900  1.4623  1.0751
   23CHL1    C3 1629   2.999   4.500   7.979 -0.8309  1.0249  0.4255
   23CHL1    H3 1630   2.948   4.592   7.942  1.0262  1.0834 -2.2176
   23CHL1    O3 1631   3.032   4.498   8.113 -0.1030 -0.0167  0.0113
   23CHL1   H3' 1632   3.081   4.415   8.118  2.7919  1.6025  1.1784
   23CHL1    C4 1633   2.915   4.372   7.957  0.2834 -0.5359 -0.0014
   23CHL1   H4A 1634   2.978   4.288   7.995  0.9003  0.3685  1.0283
   23CHL1   H4B 1635   2.820   4.378   8.013  0.9752  1.4385  1.0562
   23CHL1    C5 1636   2.884   4.352   7.811 -0.4024 -0.0848 -0.1098
   23CHL1    C6 1637   2.763   4.331   7.757 -0.0804  0.4892  0.3937
   23CHL1    H6 1638   2.674   4.333   7.822 -1.7728  2.2876 -1.8220
   23CHL1    C7 1639   2.736   4.298   7.612  0.7503 -0.5469 -0.5408
   23CHL1   H7A 1640   2.663   4.215   7.613 -2.2094  1.8197 -2.4558
   23CHL1   H7B 1641   2.678   4.384   7.572  1.3095  0.8159  1.4403
   23CHL1    C8 1642   2.856   4.272   7.525 -0.1627 -0.1316 -0.1062
   23CHL1    H8 1643   2.897   4.170   7.542  0.5190  0.1911  0.2095
   23CHL1   C14 1644   2.819   4.297   7.377 -0.0869  0.1081  0.1568
   23CHL1   H14 1645   2.801   4.406   7.361 -0.9630  0.1984  1.5942
   23CHL1   C15 1646   2.684   4.232   7.323  0.3431 -0.0432  0.1845
   23CHL1  H15A 1647   2.662   4.126   7.349 -2.0426 -0.2912 -2.2728
   23CHL1  H15B 1648   2.600   4.295   7.358  2.4196  2.8321  0.3284
   23CHL1   C16 1649   2.701   4.231   7.166  0.0466 -0.2217 -0.0923
   23CHL1  H16A 1650   2.688   4.132   7.119 -1.9464  1.0947 -2.6245
   23CHL1  H16B 1651   2.623   4.299   7.125  0.1667  0.8271  1.3281
   23CHL1   C17 1652   2.843   4.283   7.140 -0.1855  0.5826  0.3364
   23CHL1   H17 1653   2.831   4.393   7.133  1.5991  0.8591  1.0973
   23CHL1   C13 1654   2.926   4.263   7.274 -0.3883 -1.0226  1.1418
   23CHL1   C18 1655   2.956   4.115   7.289 -0.5299  0.2279 -0.2936
   23CHL1  H18A 1656   3.020   4.083   7.204  0.9775  1.9195  0.1511
   23CHL1  H18B 1657   3.012   4.086   7.380 -0.9927  2.1939  0.6816
   23CHL1  H18C 1658   2.860   4.059   7.282 -0.9171  0.8493  0.0080
   23CHL1   C12 1659   3.044   4.356   7.302  0.0265 -0.4826 -0.5877
   23CHL1  H12A 1660   3.131   4.323   7.242  1.2157  1.3413  0.0429
   23CHL1  H12B 1661   3.035   4.463   7.274  1.4243 -0.4712 -1.0764
   23CHL1   C11 1662   3.088   4.356   7.457  0.2717  1.0222  0.6613
   23CHL1  H11A 1663   3.127   4.254   7.472 -2.5798 -0.2335  0.1767
   23CHL1  H11B 1664   3.171   4.427   7.474  1.4818 -0.3960  0.8002
   23CHL1    C9 1665   2.966   4.373   7.559 -0.5691  0.5479  0.1964
   23CHL1    H9 1666   2.919   4.471   7.536 -1.4445 -0.0444 -0.5960
   23CHL1   C10 1667   3.011   4.358   7.712 -0.4793  0.1173 -0.4234
   23CHL1   C19 1668   3.081   4.226   7.732  0.2486 -0.2716 -0.1159
   23CHL1  H19A 1669   3.189   4.238   7.708  0.4771 -1.8751 -0.0411
   23CHL1  H19B 1670   3.078   4.202   7.840 -1.1119  0.4337  0.0186
   23CHL1  H19C 1671   3.040   4.147   7.664 -0.8832 -1.0438  1.4075
   23CHL1    C1 1672   3.106   4.475   7.752 -0.5182  0.2638 -0.2028
   23CHL1   H1A 1673   3.202   4.458   7.699 -0.4532  1.3549 -0.4685
   23CHL1   H1B 1674   3.064   4.575   7.729 -0.5646  0.5907  1.2078
   23CHL1    C2 1675   3.135   4.486   7.903  0.3358  0.0226  0.6405
   23CHL1   H2A 1676   3.194   4.579   7.918  0.7564 -0.5199  2.5872
   23CHL1   H2B 1677   3.194   4.396   7.931  2.4712  0.8751 -0.8390
   23CHL1   C20 1678   2.913   4.233   7.015  0.2732  0.0012  0.3416
   23CHL1   H20 1679   2.954   4.130   7.028  0.8255  0.0085 -1.2051
   23CHL1   C21 1680   3.032   4.327   6.991 -0.2075  0.1403  0.8277
   23CHL1  H21A 1681   3.028   4.423   7.047  0.4304  1.3723 -1.1632
   23CHL1  H21B 1682   3.042   4.355   6.885 -1.9529 -2.2124 -0.0604
   23CHL1  H21C 1683   3.133   4.285   7.012  1.1790  2.2528 -1.2610
   23CHL1   C22 1684   2.811   4.237   6.903 -0.2341  0.4650  0.3763
   23CHL1  H22A 1685   2.705   4.208   6.919  0.1810  0.2186  3.1332
   23CHL1  H22B 1686   2.822   4.340   6.862  0.4130 -0.0337 -0.7629
   23CHL1   C23 1687   2.857   4.148   6.788 -0.5344 -0.0721 -0.2831
   23CHL1  H23A 1688   2.958   4.179   6.755  0.0699 -2.1969 -0.5601
   23CHL1  H23B 1689   2.868   4.045   6.827  0.3538 -0.1769 -0.7859
   23CHL1   C24 1690   2.754   4.146   6.678  0.2092 -0.6277 -0.1433
   23CHL1  H24A 1691   2.656   4.126   6.727  0.8679  2.7821  3.0368
   23CHL1  H24B 1692   2.742   4.245   6.630  0.1214 -0.6786 -0.2257
   23CHL1   C25 1693   2.780   4.049   6.557  0.0224  0.3189 -0.4088
   23CHL1   H25 1694   2.763   3.942   6.583 -0.2823  0.6980  1.0319
   23CHL1   C26 1695   2.698   4.092   6.434 -0.3828 -0.4089  0.1603
   23CHL1  H26A 1696   2.590   4.112   6.445 -0.2771  1.3676 -1.3479
   23CHL1  H26B 1697   2.741   4.189   6.399  1.2075 -1.5060 -1.0958
   23CHL1  H26C 1698   2.718   4.020   6.352  2.3728 -0.3129  0.6395
   23CHL1   C27 1699   2.927   4.065   6.523  0.4074  0.1503 -0.0481
   23CHL1  H27A 1700   2.997   4.024   6.599 -0.0577  0.3644  0.4972
   23CHL1  H27B 1701   2.948   4.010   6.428  2.9935 -0.0043  0.5263
   23CHL1  H27C 1702   2.961   4.170   6.512  1.9649 -0.5872 -3.8853
   24CHL1    C3 1703   4.478   2.240   7.787 -0.2799 -0.0475 -0.2789
   24CHL1    H3 1704   4.569   2.191   7.746 -1.6014 -0.8083 -2.4935
   24CHL1    O3 1705   4.460   2.211   7.926 -0.2935  0.3730  0.3080
   24CHL1   H3' 1706   4.398   2.280   7.952  0.8433  1.2878  0.6658
   24CHL1    C4 1707   4.484   2.388   7.766 -0.5351  0.2840 -0.2335
   24CHL1   H4A 1708   4.399   2.437   7.819 -0.5104  1.1056 -0.9292
   24CHL1   H4B 1709   4.576   2.408   7.824  0.1476 -1.5013 -0.6434
   24CHL1    C5 1710   4.489   2.438   7.625  0.6507 -0.5466 -0.2877
   24CHL1    C6 1711   4.597   2.502   7.575  0.4447 -0.1236 -0.0918
   24CHL1    H6 1712   4.677   2.525   7.647 -0.1444 -0.1931  0.5993
   24CHL1    C7 1713   4.599   2.545   7.431  0.4381 -0.4307  0.1734
   24CHL1   H7A 1714   4.620   2.654   7.432 -1.9492  0.1540 -1.5115
   24CHL1   H7B 1715   4.666   2.486   7.365  2.1041  0.3252  1.1462
   24CHL1    C8 1716   4.455   2.549   7.366  0.2397  0.5874 -1.0479
   24CHL1    H8 1717   4.394   2.633   7.406 -1.0089  0.5749 -2.7905
   24CHL1   C14 1718   4.463   2.576   7.223 -0.1319 -0.5957  0.3031
   24CHL1   H14 1719   4.525   2.495   7.179  0.2941  0.0410 -0.2733
   24CHL1   C15 1720   4.537   2.707   7.173 -0.2509  0.1476 -1.2023
   24CHL1  H15A 1721   4.523   2.801   7.231  1.0239 -0.6330  0.4773
   24CHL1  H15B 1722   4.646   2.687   7.161 -0.7619 -3.4737 -1.0594
   24CHL1   C16 1723   4.491   2.719   7.025  1.5868 -0.8983 -0.2520
   24CHL1  H16A 1724   4.439   2.816   7.014 -0.5732 -2.0839 -1.2390
   24CHL1  H16B 1725   4.585   2.715   6.966  2.1791  2.2437  0.3379
   24CHL1   C17 1726   4.389   2.605   6.994 -0.4668 -0.2254 -0.3521
   24CHL1   H17 1727   4.446   2.513   6.966  1.8894  0.8111  0.6876
   24CHL1   C13 1728   4.334   2.572   7.140  0.1584  0.0722  0.2340
   24CHL1   C18 1729   4.243   2.690   7.189 -0.1321 -0.3456 -0.1863
   24CHL1  H18A 1730   4.232   2.685   7.300  0.8318 -0.1793 -0.0790
   24CHL1  H18B 1731   4.289   2.789   7.170 -0.4310 -0.0220  0.7303
   24CHL1  H18C 1732   4.139   2.687   7.151 -1.3160  0.3792  2.7023
   24CHL1   C12 1733   4.259   2.433   7.160  0.0859 -0.3463  0.3251
   24CHL1  H12A 1734   4.163   2.439   7.105  0.9507  0.3375 -1.1697
   24CHL1  H12B 1735   4.318   2.354   7.109 -1.7980 -1.2447 -0.5679
   24CHL1   C11 1736   4.239   2.400   7.309  0.7235  0.4985  0.3388
   24CHL1  H11A 1737   4.166   2.475   7.347  1.3740  0.9724  0.6627
   24CHL1  H11B 1738   4.200   2.296   7.298 -0.1705  0.9097 -0.5471
   24CHL1    C9 1739   4.368   2.418   7.391 -0.1066  0.5672  0.6471
   24CHL1    H9 1740   4.444   2.345   7.356  0.9705  0.3592  3.1848
   24CHL1   C10 1741   4.362   2.394   7.546  0.1718  0.1796 -0.8611
   24CHL1   C19 1742   4.224   2.442   7.595  0.2724  0.4967 -0.0679
   24CHL1  H19A 1743   4.203   2.545   7.558  0.8072  0.5465 -0.2479
   24CHL1  H19B 1744   4.141   2.380   7.555  1.2171 -1.6717  1.1551
   24CHL1  H19C 1745   4.216   2.457   7.704 -0.7188 -2.6621  0.4007
   24CHL1    C1 1746   4.362   2.238   7.566 -0.0090 -0.4689  0.0220
   24CHL1   H1A 1747   4.279   2.197   7.505  0.4180 -2.0150  0.4226
   24CHL1   H1B 1748   4.453   2.193   7.520  0.2006  0.3972 -0.4408
   24CHL1    C2 1749   4.357   2.190   7.709  1.1094  0.1097  0.6292
   24CHL1   H2A 1750   4.349   2.080   7.721 -0.7288  0.1014 -0.2315
   24CHL1   H2B 1751   4.260   2.226   7.751  0.1770 -1.0372 -0.4665
   24CHL1   C20 1752   4.294   2.633   6.879  0.1477 -0.1319 -0.2761
   24CHL1   H20 1753   4.206   2.696   6.903 -1.5985 -3.1379  2.0327
   24CHL1   C21 1754   4.229   2.497   6.840 -0.2673 -0.4159  0.5494
   24CHL1  H21A 1755   4.311   2.441   6.789  1.7685  0.4711  2.6340
   24CHL1  H21B 1756   4.138   2.519   6.780 -1.1035 -1.0950  1.5301
   24CHL1  H21C 1757   4.198   2.425   6.919 -0.1152  0.9490  1.8999
   24CHL1   C22 1758   4.344   2.716   6.763  0.1711 -0.6660  0.6382
   24CHL1  H22A 1759   4.372   2.814   6.810  3.0641 -1.1009  0.0278
   24CHL1  H22B 1760   4.441   2.671   6.732 -0.4060 -1.0254 -0.6872
   24CHL1   C23 1761   4.234   2.741   6.651 -0.2872  0.2133 -0.1172
   24CHL1  H23A 1762   4.212   2.641   6.607  0.9450 -0.8877  1.6714
   24CHL1  H23B 1763   4.138   2.782   6.691 -0.7433 -0.8797 -0.0442
   24CHL1   C24 1764   4.283   2.838   6.540  0.4302 -0.7127  0.1134
   24CHL1  H24A 1765   4.304   2.939   6.583 -1.4159 -0.9725  1.7558
   24CHL1  H24B 1766   4.378   2.794   6.502  0.0006 -0.2189 -1.6020
   24CHL1   C25 1767   4.187   2.836   6.424  0.8409 -0.4738  0.0132
   24CHL1   H25 1768   4.159   2.731   6.403  0.1229 -0.9941  3.0708
   24CHL1   C26 1769   4.054   2.916   6.460 -0.8730  0.6714  0.7252
   24CHL1  H26A 1770   4.080   3.020   6.486  2.5451 -0.4281  2.4156
   24CHL1  H26B 1771   3.991   2.909   6.369 -0.4298 -0.2758  0.4656
   24CHL1  H26C 1772   3.995   2.875   6.544 -2.7337  1.7476 -0.0089
   24CHL1   C27 1773   4.252   2.902   6.302 -0.4675  0.0367  0.3926
   24CHL1  H27A 1774   4.201   2.872   6.208 -0.2615 -3.0885  1.1684
   24CHL1  H27B 1775   4.259   3.013   6.301 -4.5511  0.4733 -1.3123
   24CHL1  H27C 1776   4.357   2.865   6.298 -0.0060  1.3718 -1.8471
   25CHL1    C3 1777   1.887   4.043   7.816 -0.4443  0.1838 -0.0956
   25CHL1    H3 1778   1.912   4.145   7.781  1.2476  0.3956  1.5644
   25CHL1    O3 1779   1.880   4.063   7.960 -0.0483 -0.1006  0.1377
   25CHL1   H3' 1780   1.819   3.995   7.989 -0.5996  0.1228 -0.4651
   25CHL1    C4 1781   1.759   3.982   7.763  0.1535 -0.6561  0.4678
   25CHL1   H4A 1782   1.741   3.884   7.813  0.5894 -0.6597  0.6209
   25CHL1   H4B 1783   1.673   4.046   7.793 -1.8262 -1.5673 -2.8023
   25CHL1    C5 1784   1.767   3.976   7.613 -0.0395 -0.4209  0.2760
   25CHL1    C6 1785   1.671   4.036   7.542 -0.2961 -0.1886  0.2560
   25CHL1    H6 1786   1.590   4.084   7.599  1.2345  3.7531 -0.5590
   25CHL1    C7 1787   1.653   4.036   7.394 -0.3854 -0.2210  0.5050
   25CHL1   H7A 1788   1.550   4.007   7.363 -0.3401  1.4873 -1.4827
   25CHL1   H7B 1789   1.681   4.134   7.349 -0.4351 -1.3639 -2.1575
   25CHL1    C8 1790   1.746   3.934   7.323  0.3005  0.4714  0.0704
   25CHL1    H8 1791   1.701   3.832   7.328  0.6214  0.0740 -3.1709
   25CHL1   C14 1792   1.759   3.950   7.168 -0.0166 -0.1852  0.6749
   25CHL1   H14 1793   1.795   4.054   7.154 -0.6208  0.0143  0.6034
   25CHL1   C15 1794   1.625   3.953   7.091  0.3389  0.1809  0.0509
   25CHL1  H15A 1795   1.554   3.872   7.117  2.2532 -1.4280  0.5013
   25CHL1  H15B 1796   1.575   4.051   7.102  0.6735  0.3980 -0.3348
   25CHL1   C16 1797   1.673   3.929   6.946 -0.3813 -0.6508  0.6076
   25CHL1  H16A 1798   1.622   3.852   6.884 -0.4758 -0.8960  0.9893
   25CHL1  H16B 1799   1.656   4.023   6.888  0.1113 -1.3386 -0.6941
   25CHL1   C17 1800   1.827   3.905   6.958  0.0964  0.1508 -0.1252
   25CHL1   H17 1801   1.876   4.003   6.946 -0.2084  0.4204  0.7547
   25CHL1   C13 1802   1.861   3.858   7.101 -0.4249  0.6242  0.2580
   25CHL1   C18 1803   1.819   3.708   7.114 -0.3643 -0.0804  0.6182
   25CHL1  H18A 1804   1.722   3.687   7.065 -0.1925 -0.3384  0.3850
   25CHL1  H18B 1805   1.900   3.644   7.073 -0.9291  0.0969 -0.8113
   25CHL1  H18C 1806   1.803   3.680   7.221  3.8165 -0.1926  1.4063
   25CHL1   C12 1807   1.999   3.890   7.171 -0.6684 -0.2404  0.0603
   25CHL1  H12A 1808   2.090   3.844   7.127  0.3798  0.8351  1.0071
   25CHL1  H12B 1809   2.009   4.001   7.161 -1.4151 -0.3456 -2.4529
   25CHL1   C11 1810   1.995   3.844   7.313  0.5263 -0.1028  0.1832
   25CHL1  H11A 1811   1.978   3.734   7.319 -2.6270  0.1480 -1.9696
   25CHL1  H11B 1812   2.094   3.865   7.359 -0.4762  0.5072  2.1313
   25CHL1    C9 1813   1.887   3.929   7.393  0.0161 -0.3627 -0.7131
   25CHL1    H9 1814   1.928   4.031   7.376  1.2232 -0.4786  1.1529
   25CHL1   C10 1815   1.881   3.904   7.549  0.5839  0.2790 -0.6819
   25CHL1   C19 1816   1.865   3.750   7.569 -0.0475 -0.1335  0.3942
   25CHL1  H19A 1817   1.825   3.722   7.668 -1.4867  1.6476  0.3771
   25CHL1  H19B 1818   1.786   3.715   7.500 -1.0995 -0.5835  1.7887
   25CHL1  H19C 1819   1.960   3.697   7.549  0.1046  0.0288  0.6846
   25CHL1    C1 1820   2.003   3.947   7.618 -0.4303  0.1510 -0.0537
   25CHL1   H1A 1821   2.080   3.870   7.598 -0.7780 -0.1320 -0.3091
   25CHL1   H1B 1822   2.031   4.043   7.570 -1.0358 -0.5350 -1.8430
   25CHL1    C2 1823   2.001   3.950   7.772  0.7348 -0.1359 -0.6461
   25CHL1   H2A 1824   2.095   3.997   7.809 -0.4011  1.0639  0.8847
   25CHL1   H2B 1825   1.987   3.850   7.818  1.1355 -0.7915 -1.9045
   25CHL1   C20 1826   1.881   3.826   6.832  0.5408 -0.2831 -0.5264
   25CHL1   H20 1827   1.852   3.719   6.844  1.7295 -0.8050 -1.9745
   25CHL1   C21 1828   2.037   3.811   6.839 -0.2364 -0.6303  0.2409
   25CHL1  H21A 1829   2.065   3.753   6.930  1.5071  0.3907  0.3829
   25CHL1  H21B 1830   2.069   3.916   6.852  1.0384 -1.0558  0.7328
   25CHL1  H21C 1831   2.077   3.766   6.746 -0.6803 -0.2776 -0.1229
   25CHL1   C22 1832   1.832   3.882   6.702 -0.4522  0.2310 -0.3972
   25CHL1  H22A 1833   1.722   3.869   6.698 -0.9564  2.9172  1.8271
   25CHL1  H22B 1834   1.849   3.992   6.700  2.7423  0.1331  4.5634
   25CHL1   C23 1835   1.880   3.810   6.573  0.1514 -0.3039 -0.4747
   25CHL1  H23A 1836   1.984   3.843   6.555 -0.5864  2.0446 -0.7390
   25CHL1  H23B 1837   1.877   3.700   6.591  1.2539 -0.0275  1.5851
   25CHL1   C24 1838   1.801   3.860   6.446 -0.1989 -0.4199 -0.3572
   25CHL1  H24A 1839   1.694   3.837   6.466 -0.0933  0.5464  1.6688
   25CHL1  H24B 1840   1.804   3.971   6.443 -0.1797 -0.4235 -0.4782
   25CHL1   C25 1841   1.856   3.821   6.310 -0.6976  0.2283 -0.0281
   25CHL1   H25 1842   1.963   3.848   6.296  0.7540 -3.7283  1.8205
   25CHL1   C26 1843   1.864   3.668   6.288 -0.1627  0.3307 -0.7881
   25CHL1  H26A 1844   1.769   3.624   6.324  1.7320 -2.4452  1.3224
   25CHL1  H26B 1845   1.887   3.634   6.185  1.0255  0.8881 -0.7259
   25CHL1  H26C 1846   1.947   3.621   6.345  0.0888  0.8842 -0.6899
   25CHL1   C27 1847   1.765   3.882   6.202  0.0433  0.2905  1.1359
   25CHL1  H27A 1848   1.812   3.862   6.103  0.0150  0.7175  1.0367
   25CHL1  H27B 1849   1.671   3.822   6.194  2.1406 -3.3405  1.3638
   25CHL1  H27C 1850   1.758   3.992   6.203  2.1838  0.5970 -2.2814
   26CHL1    C3 1851   4.661   3.332   8.082 -0.1657 -0.5557  0.3596
   26CHL1    H3 1852   4.723   3.243   8.103  1.1669  0.6406  1.7023
   26CHL1    O3 1853   4.649   3.405   8.204  0.2885  0.1303 -0.4012
   26CHL1   H3' 1854   4.742   3.394   8.228  0.0002 -0.1383  0.6236
   26CHL1    C4 1855   4.742   3.420   7.992 -0.4903 -0.0373 -0.2373
   26CHL1   H4A 1856   4.693   3.520   7.999  0.8696  0.6229  0.1109
   26CHL1   H4B 1857   4.845   3.435   8.029 -0.7282  0.0438  0.4151
   26CHL1    C5 1858   4.759   3.364   7.853  0.4732  0.1084  0.2401
   26CHL1    C6 1859   4.876   3.323   7.803 -0.0320  0.4771 -1.0370
   26CHL1    H6 1860   4.967   3.337   7.863 -1.0826 -0.4156  0.9048
   26CHL1    C7 1861   4.897   3.286   7.659 -0.5680  0.0184  0.1032
   26CHL1   H7A 1862   4.979   3.345   7.613  0.0785  0.5109  1.7947
   26CHL1   H7B 1863   4.926   3.179   7.660 -1.0622 -0.1232  1.7013
   26CHL1    C8 1864   4.776   3.308   7.567  0.1954  0.3028  0.7229
   26CHL1    H8 1865   4.764   3.416   7.541  0.3570  0.0294 -0.5207
   26CHL1   C14 1866   4.786   3.227   7.443 -0.4480  0.2248 -1.3356
   26CHL1   H14 1867   4.768   3.124   7.480 -2.0502  0.8422 -0.2443
   26CHL1   C15 1868   4.911   3.216   7.364 -0.5951 -0.3242  0.0207
   26CHL1  H15A 1869   4.959   3.316   7.369 -2.6087  0.6261  2.5202
   26CHL1  H15B 1870   4.988   3.148   7.407 -0.1903 -0.5028 -0.9653
   26CHL1   C16 1871   4.873   3.177   7.222 -0.5306  0.7525  0.4374
   26CHL1  H16A 1872   4.889   3.268   7.161  2.7320  0.6520  0.9368
   26CHL1  H16B 1873   4.941   3.094   7.191  0.7276  1.0339  2.2640
   26CHL1   C17 1874   4.721   3.144   7.225  0.4602  0.1866 -1.0455
   26CHL1   H17 1875   4.699   3.047   7.275  1.1416 -0.0258 -1.1540
   26CHL1   C13 1876   4.672   3.246   7.336 -0.5189  0.1827  0.5357
   26CHL1   C18 1877   4.670   3.396   7.285  0.2442  0.7412  0.3175
   26CHL1  H18A 1878   4.629   3.461   7.365  0.6663 -0.3037  1.3987
   26CHL1  H18B 1879   4.776   3.420   7.260  0.8621 -0.1082  1.9812
   26CHL1  H18C 1880   4.601   3.403   7.197 -1.5544 -0.5783  1.5606
   26CHL1   C12 1881   4.541   3.214   7.407 -0.2899 -0.1203 -0.0574
   26CHL1  H12A 1882   4.448   3.233   7.350 -0.8954 -0.5148  0.7943
   26CHL1  H12B 1883   4.538   3.108   7.439 -1.6976  0.4892  1.9938
   26CHL1   C11 1884   4.527   3.292   7.538  0.3540 -0.7640 -0.3238
   26CHL1  H11A 1885   4.506   3.398   7.513  2.4856 -0.4419 -0.9527
   26CHL1  H11B 1886   4.430   3.254   7.578 -0.1127 -0.8244 -1.4757
   26CHL1    C9 1887   4.642   3.277   7.636 -0.2812  0.3124  0.1911
   26CHL1    H9 1888   4.648   3.166   7.650 -4.0355 -0.1659 -0.9998
   26CHL1   C10 1889   4.631   3.341   7.776  0.5161  0.0054 -1.0253
   26CHL1   C19 1890   4.565   3.479   7.750 -0.7670 -0.2038 -0.0247
   26CHL1  H19A 1891   4.457   3.470   7.730 -0.7561  0.1166 -0.2313
   26CHL1  H19B 1892   4.560   3.529   7.849 -0.9213 -0.1385 -0.0661
   26CHL1  H19C 1893   4.622   3.550   7.686 -1.5110  0.3401 -0.0884
   26CHL1    C1 1894   4.537   3.255   7.862  0.0558  0.2178  0.2000
   26CHL1   H1A 1895   4.434   3.247   7.820 -0.3004  0.5108  0.9962
   26CHL1   H1B 1896   4.574   3.150   7.858 -1.1643 -0.3341  1.9798
   26CHL1    C2 1897   4.526   3.298   8.014  0.4085 -0.0469  0.6321
   26CHL1   H2A 1898   4.469   3.228   8.079  0.7407  1.0090  2.1258
   26CHL1   H2B 1899   4.476   3.398   8.012 -0.6526 -0.5607 -0.7605
   26CHL1   C20 1900   4.666   3.147   7.087  0.1283  0.1357  0.3965
   26CHL1   H20 1901   4.683   3.249   7.045  0.5499  0.2181  0.7628
   26CHL1   C21 1902   4.514   3.120   7.086 -0.3253 -0.3000 -0.2342
   26CHL1  H21A 1903   4.475   3.124   6.983  0.7620 -1.5101 -0.7281
   26CHL1  H21B 1904   4.457   3.198   7.140 -1.2077 -1.1477  0.0817
   26CHL1  H21C 1905   4.486   3.028   7.143  0.6349  0.2664  1.2137
   26CHL1   C22 1906   4.740   3.040   6.995  0.1625 -0.1559 -0.3314
   26CHL1  H22A 1907   4.845   3.074   6.982 -0.3037  0.8504 -1.6225
   26CHL1  H22B 1908   4.741   2.952   7.063  1.6367 -0.0934 -0.2348
   26CHL1   C23 1909   4.681   3.024   6.855  0.0937  0.1519 -0.7704
   26CHL1  H23A 1910   4.743   2.948   6.803  1.7619  0.4980  0.6114
   26CHL1  H23B 1911   4.577   2.985   6.855  0.6624 -1.4414 -1.9417
   26CHL1   C24 1912   4.689   3.151   6.776  0.0045 -0.3577  0.2688
   26CHL1  H24A 1913   4.629   3.230   6.826  0.3864 -1.5433  2.7421
   26CHL1  H24B 1914   4.794   3.188   6.781  0.3534 -1.1604 -0.7846
   26CHL1   C25 1915   4.661   3.149   6.625 -0.0968 -0.1524 -0.3626
   26CHL1   H25 1916   4.673   3.255   6.592  1.5003 -0.0419  0.5258
   26CHL1   C26 1917   4.767   3.081   6.543  0.6816  0.5408  0.3322
   26CHL1  H26A 1918   4.787   2.975   6.568  1.0631 -0.0125 -2.0048
   26CHL1  H26B 1919   4.745   3.082   6.434 -0.2692 -0.6288  0.5019
   26CHL1  H26C 1920   4.857   3.145   6.557  0.0198  1.3764  0.8913
   26CHL1   C27 1921   4.524   3.091   6.593 -0.3735 -1.1557 -0.2603
   26CHL1  H27A 1922   4.448   3.124   6.667 -1.6661  0.1497 -2.0844
   26CHL1  H27B 1923   4.495   3.105   6.487  1.0732 -0.5975 -0.6156
   26CHL1  H27C 1924   4.525   2.981   6.605 -0.7138 -0.9595  2.1556
   27CHL1    C3 1925   5.211   3.711   8.012  0.3543  0.2263 -0.1167
   27CHL1    H3 1926   5.181   3.817   8.027  1.0606  0.5643 -0.9775
   27CHL1    O3 1927   5.246   3.636   8.126  0.5880 -0.0853 -0.2774
   27CHL1   H3' 1928   5.162   3.602   8.156 -0.0682  2.5971  1.2636
   27CHL1    C4 1929   5.094   3.636   7.944  0.3355 -0.1748  0.1941
   27CHL1   H4A 1930   5.130   3.531   7.936 -0.2301 -0.3101 -0.5815
   27CHL1   H4B 1931   5.011   3.635   8.018  1.5356  1.0717  1.6518
   27CHL1    C5 1932   5.048   3.683   7.806 -0.0501  0.0979  0.9745
   27CHL1    C6 1933   4.926   3.705   7.759  0.1735  0.1305  0.0475
   27CHL1    H6 1934   4.846   3.680   7.831  0.0735 -1.0604 -0.4531
   27CHL1    C7 1935   4.876   3.759   7.630  0.3573  0.6914  0.5867
   27CHL1   H7A 1936   4.784   3.706   7.596  2.4402 -1.1266 -2.8028
   27CHL1   H7B 1937   4.849   3.865   7.649 -1.1568  0.6243 -0.9230
   27CHL1    C8 1938   4.982   3.744   7.525 -0.0966 -0.0270  0.1238
   27CHL1    H8 1939   4.990   3.637   7.498  0.0906 -0.4627  1.7968
   27CHL1   C14 1940   4.952   3.808   7.392  0.0070  0.6714 -0.0138
   27CHL1   H14 1941   4.941   3.918   7.406  2.0739  0.9574 -0.3552
   27CHL1   C15 1942   4.822   3.774   7.321 -0.1078 -0.5244  0.1766
   27CHL1  H15A 1943   4.792   3.667   7.329 -1.4210 -0.0710  5.2009
   27CHL1  H15B 1944   4.740   3.829   7.373 -0.7385 -1.9124  0.7194
   27CHL1   C16 1945   4.848   3.818   7.176 -0.5240  0.4944 -0.5398
   27CHL1  H16A 1946   4.825   3.733   7.109 -1.4866  0.4647 -0.1910
   27CHL1  H16B 1947   4.782   3.906   7.159  0.4275  1.0906 -1.2743
   27CHL1   C17 1948   5.000   3.862   7.170  0.3450  0.0548  0.3683
   27CHL1   H17 1949   4.996   3.969   7.202 -0.8344  0.4231 -0.9089
   27CHL1   C13 1950   5.066   3.791   7.294  0.2962  0.0137  0.5628
   27CHL1   C18 1951   5.086   3.638   7.254  0.4208 -1.2227 -0.2327
   27CHL1  H18A 1952   5.138   3.634   7.156 -1.0667  0.2386 -1.1410
   27CHL1  H18B 1953   5.143   3.576   7.326  0.2987 -0.8152  0.2220
   27CHL1  H18C 1954   4.987   3.588   7.247 -0.4664  0.3750  0.3039
   27CHL1   C12 1955   5.195   3.849   7.341  0.0175 -0.6106 -0.4146
   27CHL1  H12A 1956   5.269   3.819   7.264  1.0871  0.5806  0.0968
   27CHL1  H12B 1957   5.185   3.959   7.357  0.5411 -0.7691  1.1743
   27CHL1   C11 1958   5.240   3.778   7.469  0.1222 -0.0774  0.5697
   27CHL1  H11A 1959   5.265   3.672   7.449  0.4996 -0.3855  2.4891
   27CHL1  H11B 1960   5.330   3.827   7.509  0.5803 -0.5196  0.0981
   27CHL1    C9 1961   5.125   3.773   7.581  0.5826 -0.1113  0.2023
   27CHL1    H9 1962   5.127   3.879   7.614  1.3066 -0.5954  1.8364
   27CHL1   C10 1963   5.167   3.700   7.706 -0.8059  0.4136  0.0530
   27CHL1   C19 1964   5.213   3.554   7.673  0.8722 -0.4853  0.8165
   27CHL1  H19A 1965   5.232   3.481   7.754  0.0061 -1.5230  0.1080
   27CHL1  H19B 1966   5.138   3.493   7.619  0.8951 -1.1141  1.4826
   27CHL1  H19C 1967   5.300   3.553   7.604 -2.8251 -0.5720 -4.5065
   27CHL1    C1 1968   5.284   3.774   7.779 -0.0501 -0.1079  0.2378
   27CHL1   H1A 1969   5.363   3.798   7.705  1.2468  0.5057  1.7576
   27CHL1   H1B 1970   5.234   3.871   7.802 -0.9939 -0.2888 -0.9987
   27CHL1    C2 1971   5.330   3.717   7.915  0.8535 -0.3377  0.2802
   27CHL1   H2A 1972   5.427   3.759   7.948  0.9383 -1.6918  1.8720
   27CHL1   H2B 1973   5.367   3.615   7.893  0.3271 -0.5001  0.1311
   27CHL1   C20 1974   5.043   3.848   7.021  0.3916  0.2397  0.1806
   27CHL1   H20 1975   5.043   3.738   7.003  1.4296  0.3619 -0.6581
   27CHL1   C21 1976   5.185   3.908   7.012 -0.1970  0.0214 -0.6640
   27CHL1  H21A 1977   5.227   3.893   6.910 -0.1292  2.0414 -0.9630
   27CHL1  H21B 1978   5.256   3.868   7.088  0.1236 -0.2534 -1.1043
   27CHL1  H21C 1979   5.176   4.015   7.040 -2.4340 -0.2181 -0.3202
   27CHL1   C22 1980   4.948   3.918   6.916 -0.1700 -0.1523 -0.0489
   27CHL1  H22A 1981   4.842   3.900   6.943  0.2317 -1.0290  1.0122
   27CHL1  H22B 1982   4.959   4.029   6.924 -1.6056  0.1328 -1.4940
   27CHL1   C23 1983   4.978   3.872   6.776 -1.0957  0.0878 -0.1856
   27CHL1  H23A 1984   5.086   3.866   6.752 -1.3822  0.2680 -1.6436
   27CHL1  H23B 1985   4.947   3.766   6.764  2.2496 -0.9483 -0.7842
   27CHL1   C24 1986   4.911   3.960   6.667 -0.2723 -0.2229 -0.1064
   27CHL1  H24A 1987   4.807   3.991   6.693 -0.3967  1.2107 -2.0662
   27CHL1  H24B 1988   4.973   4.051   6.651  2.3260 -2.0849 -1.4205
   27CHL1   C25 1989   4.902   3.885   6.533  0.1866  0.0048 -0.3198
   27CHL1   H25 1990   4.843   3.791   6.545  0.6531 -0.5138 -1.8791
   27CHL1   C26 1991   4.833   3.974   6.423  0.6561  0.3795 -0.3427
   27CHL1  H26A 1992   4.890   4.070   6.418  1.4823 -0.1579 -1.6952
   27CHL1  H26B 1993   4.856   3.913   6.334  1.3870 -0.8565  0.6597
   27CHL1  H26C 1994   4.725   3.999   6.428 -0.0360 -2.4643  1.8979
   27CHL1   C27 1995   5.047   3.852   6.483  0.2267  0.0848  0.0086
   27CHL1  H27A 1996   5.044   3.814   6.379  3.1078  0.1272 -0.1633
   27CHL1  H27B 1997   5.109   3.944   6.483  1.2623 -0.4515  3.7365
   27CHL1  H27C 1998   5.099   3.777   6.546  0.1368  1.5008  1.8776
   28CHL1    C3 1999   1.806   2.440   7.766 -0.0751 -0.3230  0.2417
   28CHL1    H3 2000   1.707   2.471   7.728  0.4154 -0.2262 -1.0150
   28CHL1    O3 2001   1.805   2.444   7.909  0.1593 -0.2882 -0.4780
   28CHL1   H3' 2002   1.894   2.422   7.935  0.9958  1.8051 -1.3241
   28CHL1    C4 2003   1.851   2.301   7.734 -0.3074  0.2554 -0.2067
   28CHL1   H4A 2004   1.939   2.272   7.796  1.6760  1.2996 -2.3589
   28CHL1   H4B 2005   1.763   2.241   7.765 -1.8817  0.3789 -3.8942
   28CHL1    C5 2006   1.888   2.276   7.583  0.1605 -0.1433 -1.3364
   28CHL1    C6 2007   1.832   2.173   7.515 -0.5445 -0.0272  1.0505
   28CHL1    H6 2008   1.769   2.096   7.561  1.2337 -1.3752  1.3082
   28CHL1    C7 2009   1.868   2.151   7.365  0.2649  0.5404 -0.2136
   28CHL1   H7A 2010   1.902   2.048   7.346 -1.0464 -0.3692  1.9632
   28CHL1   H7B 2011   1.775   2.168   7.306  0.5247  0.8337 -0.5450
   28CHL1    C8 2012   1.973   2.250   7.297  0.3209 -0.4788 -0.7142
   28CHL1    H8 2013   2.071   2.202   7.316 -0.2653 -1.6822 -0.6411
   28CHL1   C14 2014   1.951   2.260   7.148 -0.5346 -0.4428 -0.3556
   28CHL1   H14 2015   1.848   2.300   7.142 -0.1506  0.3403 -2.2563
   28CHL1   C15 2016   1.939   2.133   7.069 -0.3192  0.0315 -0.6596
   28CHL1  H15A 2017   2.030   2.070   7.084 -0.5395 -0.5777 -1.7474
   28CHL1  H15B 2018   1.853   2.068   7.097  1.4741 -1.2478  2.4108
   28CHL1   C16 2019   1.939   2.186   6.924 -0.9410  0.6841  0.3113
   28CHL1  H16A 2020   2.007   2.121   6.865 -0.2823  0.8857  0.8270
   28CHL1  H16B 2021   1.835   2.192   6.886 -2.0487 -1.0167  2.7593
   28CHL1   C17 2022   1.979   2.340   6.930  1.0824  0.5425  0.8678
   28CHL1   H17 2023   1.889   2.404   6.934  0.1425 -0.4958 -1.5200
   28CHL1   C13 2024   2.047   2.345   7.068  0.3420  0.1879  0.2747
   28CHL1   C18 2025   2.192   2.292   7.059 -0.8834  0.3043 -0.3749
   28CHL1  H18A 2026   2.255   2.363   7.002  3.7441 -0.9644  2.6547
   28CHL1  H18B 2027   2.237   2.280   7.160  0.0935 -0.4780 -0.8865
   28CHL1  H18C 2028   2.200   2.193   7.009  2.3430  0.9135 -1.2545
   28CHL1   C12 2029   2.047   2.486   7.130  0.6774 -0.5487  0.2134
   28CHL1  H12A 2030   2.127   2.545   7.082  0.7914 -0.4557  0.5147
   28CHL1  H12B 2031   1.949   2.536   7.116 -0.6035 -3.0308 -0.2508
   28CHL1   C11 2032   2.072   2.484   7.282  0.2721  1.0359 -0.1733
   28CHL1  H11A 2033   2.176   2.450   7.303  0.5861  1.5102 -0.8999
   28CHL1  H11B 2034   2.063   2.590   7.316  3.0151  1.2320  0.1770
   28CHL1    C9 2035   1.966   2.392   7.360  0.1950  0.1601  0.9106
   28CHL1    H9 2036   1.877   2.446   7.324  0.8144  0.0677 -0.8857
   28CHL1   C10 2037   1.975   2.391   7.517 -0.0057  0.0484 -0.0417
   28CHL1   C19 2038   2.124   2.385   7.565 -0.2468 -0.1645  0.7252
   28CHL1  H19A 2039   2.172   2.291   7.530 -1.9921 -0.6948 -0.4164
   28CHL1  H19B 2040   2.184   2.474   7.537 -2.6681  1.1951 -0.4613
   28CHL1  H19C 2041   2.117   2.382   7.676  0.2159  2.4776  0.8835
   28CHL1    C1 2042   1.922   2.531   7.566 -0.3833 -0.2450  0.1848
   28CHL1   H1A 2043   2.000   2.601   7.529  0.3573 -0.4861  1.2559
   28CHL1   H1B 2044   1.822   2.550   7.520  0.4087  1.5094 -0.9003
   28CHL1    C2 2045   1.907   2.545   7.723 -0.6371  0.3697  0.2671
   28CHL1   H2A 2046   1.871   2.650   7.726 -1.4552  0.1449 -1.1345
   28CHL1   H2B 2047   2.005   2.535   7.775 -0.3127  0.2991 -0.3495
   28CHL1   C20 2048   2.055   2.395   6.800  1.1195  0.0087 -0.4717
   28CHL1   H20 2049   2.163   2.373   6.811  0.5062 -2.0239  2.5996
   28CHL1   C21 2050   2.041   2.553   6.798 -0.0591 -0.4765  0.2253
   28CHL1  H21A 2051   1.940   2.595   6.781 -0.1556 -1.9762 -4.2029
   28CHL1  H21B 2052   2.105   2.590   6.715 -2.7322 -1.4238 -2.4533
   28CHL1  H21C 2053   2.079   2.604   6.889  1.4542 -0.2625 -0.5046
   28CHL1   C22 2054   1.999   2.339   6.666  0.0806  0.0580  0.1358
   28CHL1  H22A 2055   1.959   2.237   6.683  0.1403  0.3389  2.2797
   28CHL1  H22B 2056   1.916   2.408   6.641  0.5607  0.8455  0.6559
   28CHL1   C23 2057   2.110   2.327   6.561  0.7930  0.2023  0.2611
   28CHL1  H23A 2058   2.170   2.420   6.575  0.7393  0.0971  1.2814
   28CHL1  H23B 2059   2.175   2.243   6.591 -1.1335 -1.8798 -1.1161
   28CHL1   C24 2060   2.064   2.299   6.416  0.5600 -0.4257  0.1568
   28CHL1  H24A 2061   2.032   2.194   6.402 -0.8995  0.4424 -5.1790
   28CHL1  H24B 2062   1.988   2.376   6.389 -2.1603 -1.9973  2.7157
   28CHL1   C25 2063   2.182   2.311   6.316  0.3827 -0.3737 -0.5018
   28CHL1   H25 2064   2.230   2.405   6.349 -1.0322  0.7793 -1.5759
   28CHL1   C26 2065   2.282   2.197   6.338 -0.5555  0.5066  0.6776
   28CHL1  H26A 2066   2.354   2.193   6.254 -1.0616 -1.4594  0.3004
   28CHL1  H26B 2067   2.346   2.221   6.425  2.1800  0.4959 -1.2092
   28CHL1  H26C 2068   2.224   2.104   6.355 -1.6722  0.4669 -2.6017
   28CHL1   C27 2069   2.132   2.317   6.176 -0.4865  0.1261 -0.4204
   28CHL1  H27A 2070   2.057   2.397   6.156  1.4919  1.9663 -0.8664
   28CHL1  H27B 2071   2.223   2.335   6.115  0.9021  0.1455  1.5566
   28CHL1  H27C 2072   2.078   2.223   6.153  0.4601  0.3517 -4.0825
   29CHL1    C3 2073   3.771   4.350   7.811 -0.3270 -0.3429 -0.3262
   29CHL1    H3 2074   3.861   4.325   7.752 -0.1321  1.2901 -0.7675
   29CHL1    O3 2075   3.797   4.376   7.949 -0.9008 -0.5147 -0.0212
   29CHL1   H3' 2076   3.800   4.291   7.994 -2.3119 -0.7616 -0.3376
   29CHL1    C4 2077   3.703   4.471   7.739 -0.0872 -0.1018  0.6460
   29CHL1   H4A 2078   3.606   4.501   7.784  0.4702  2.3744  0.3289
   29CHL1   H4B 2079   3.777   4.554   7.746  1.5459 -1.3736 -0.7783
   29CHL1    C5 2080   3.682   4.448   7.590  0.4360 -0.2679  0.1293
   29CHL1    C6 2081   3.726   4.536   7.497 -0.3425  0.4636  0.4671
   29CHL1    H6 2082   3.779   4.620   7.543  0.0176 -0.4651  1.8231
   29CHL1    C7 2083   3.708   4.511   7.350 -0.2880 -0.2906 -0.5178
   29CHL1   H7A 2084   3.666   4.601   7.300  1.1366  0.3666 -0.5787
   29CHL1   H7B 2085   3.806   4.494   7.301  0.5103  1.0090  0.5636
   29CHL1    C8 2086   3.613   4.395   7.322 -0.3499 -0.1984  0.9079
   29CHL1    H8 2087   3.509   4.431   7.304 -0.3939 -1.1643 -1.0029
   29CHL1   C14 2088   3.652   4.340   7.185  0.1584 -1.1858  0.2891
   29CHL1   H14 2089   3.756   4.305   7.201  0.2835 -0.5265  0.9852
   29CHL1   C15 2090   3.658   4.444   7.073  0.0900  0.4581  0.5604
   29CHL1  H15A 2091   3.555   4.483   7.056 -0.6292 -0.2954  2.8461
   29CHL1  H15B 2092   3.731   4.527   7.081 -1.3280  2.1246 -2.0003
   29CHL1   C16 2093   3.676   4.358   6.944 -0.0098  0.0613 -0.7200
   29CHL1  H16A 2094   3.602   4.393   6.869  0.5672  0.7565 -0.9678
   29CHL1  H16B 2095   3.782   4.367   6.911  0.3515  0.6288  0.5428
   29CHL1   C17 2096   3.647   4.204   6.992 -0.1505 -0.4700  0.1935
   29CHL1   H17 2097   3.742   4.154   7.018  0.1423  0.3160  0.6769
   29CHL1   C13 2098   3.571   4.221   7.126 -0.0810 -0.2391  0.4445
   29CHL1   C18 2099   3.422   4.256   7.097  0.8054 -0.4170 -0.2437
   29CHL1  H18A 2100   3.369   4.294   7.187  2.1455  0.3174  0.2563
   29CHL1  H18B 2101   3.418   4.328   7.013  0.7978 -1.0443 -0.7926
   29CHL1  H18C 2102   3.371   4.168   7.051 -2.3353  1.7268 -1.2197
   29CHL1   C12 2103   3.590   4.107   7.223 -0.7540 -0.4733 -0.1062
   29CHL1  H12A 2104   3.531   4.017   7.198 -1.7581  0.2767 -0.5067
   29CHL1  H12B 2105   3.698   4.083   7.238 -1.4366 -2.8140  1.7659
   29CHL1   C11 2106   3.546   4.159   7.361 -0.6326  0.1455  0.0161
   29CHL1  H11A 2107   3.437   4.180   7.362 -0.5361  0.6998 -0.3037
   29CHL1  H11B 2108   3.561   4.078   7.436 -2.7395 -1.8030 -1.5552
   29CHL1    C9 2109   3.629   4.278   7.417  0.2593 -0.5793 -0.3597
   29CHL1    H9 2110   3.735   4.247   7.408  1.4220  3.3198 -2.7110
   29CHL1   C10 2111   3.609   4.309   7.562 -0.2023  0.2440  0.1011
   29CHL1   C19 2112   3.456   4.333   7.586  0.2604 -0.3419  0.0851
   29CHL1  H19A 2113   3.414   4.381   7.495  1.4329  0.0923 -0.2552
   29CHL1  H19B 2114   3.395   4.241   7.592 -0.0907 -0.1032  0.2102
   29CHL1  H19C 2115   3.428   4.400   7.670  1.8976  1.0339 -0.3978
   29CHL1    C1 2116   3.666   4.196   7.657 -0.2237 -0.9227 -0.3952
   29CHL1   H1A 2117   3.596   4.110   7.659  0.1395 -1.2051  1.3896
   29CHL1   H1B 2118   3.768   4.169   7.624  0.3768 -0.0653  0.7245
   29CHL1    C2 2119   3.676   4.235   7.810  0.0782 -0.0292  0.1875
   29CHL1   H2A 2120   3.709   4.141   7.859 -0.7114  0.6110  1.9975
   29CHL1   H2B 2121   3.579   4.261   7.856  1.2444  3.2063  1.0516
   29CHL1   C20 2122   3.588   4.115   6.879 -0.0015  0.5048 -0.2449
   29CHL1   H20 2123   3.489   4.157   6.853  0.6051  1.2332 -1.4804
   29CHL1   C21 2124   3.569   3.973   6.940 -0.0500  0.2913  0.2743
   29CHL1  H21A 2125   3.488   3.961   7.015 -0.7533  0.6009 -0.4117
   29CHL1  H21B 2126   3.668   3.942   6.977 -0.8980  0.0118  2.4181
   29CHL1  H21C 2127   3.542   3.904   6.857 -3.2536  2.2922 -0.5565
   29CHL1   C22 2128   3.673   4.116   6.747 -0.6891 -0.9001  0.7980
   29CHL1  H22A 2129   3.697   4.220   6.718 -0.9872 -1.0701 -0.1123
   29CHL1  H22B 2130   3.760   4.053   6.775 -2.0460 -4.3034 -1.8568
   29CHL1   C23 2131   3.621   4.050   6.618 -0.3248  0.6585  0.3540
   29CHL1  H23A 2132   3.611   3.940   6.633  1.7177  0.5878  1.5011
   29CHL1  H23B 2133   3.532   4.108   6.583 -1.0422 -0.9800 -0.6981
   29CHL1   C24 2134   3.727   4.051   6.505 -0.3700 -0.0571  0.8856
   29CHL1  H24A 2135   3.737   4.155   6.467  3.4302 -0.0045  1.6017
   29CHL1  H24B 2136   3.830   4.031   6.542  0.0649 -2.1117 -1.2117
   29CHL1   C25 2137   3.696   3.965   6.383  0.1935 -0.4709  0.5481
   29CHL1   H25 2138   3.689   3.857   6.404 -1.0408 -0.0639  2.5130
   29CHL1   C26 2139   3.568   4.008   6.308  0.0958  0.9312 -0.6221
   29CHL1  H26A 2140   3.560   3.947   6.215  0.6686 -0.3444  0.1377
   29CHL1  H26B 2141   3.481   3.994   6.375 -0.4329  2.8266 -0.8550
   29CHL1  H26C 2142   3.569   4.116   6.282 -0.7311  1.0136 -0.3514
   29CHL1   C27 2143   3.809   3.976   6.278 -0.0024  0.3802  0.0290
   29CHL1  H27A 2144   3.787   3.909   6.191 -0.1979  0.2512  0.1782
   29CHL1  H27B 2145   3.806   4.084   6.253  0.7284  0.1018 -1.4226
   29CHL1  H27C 2146   3.899   3.934   6.328  0.1906 -2.4967 -2.4258
   30CHL1    C3 2147   5.088   0.050   4.498 -0.0426 -0.2087 -0.8834
   30CHL1    H3 2148   5.151  -0.031   4.455  4.2288  0.9726  2.4798
   30CHL1    O3 2149   5.020   0.117   4.394 -0.1933  0.0483 -0.9811
   30CHL1   H3' 2150   5.088   0.148   4.333 -1.0963  1.9023 -1.1219
   30CHL1    C4 2151   4.988  -0.009   4.603 -0.2389 -0.3225 -0.5289
   30CHL1   H4A 2152   4.910   0.067   4.625 -1.0135 -0.8540 -1.3664
   30CHL1   H4B 2153   4.928  -0.092   4.560 -1.2194 -0.4384  0.9704
   30CHL1    C5 2154   5.037  -0.059   4.738 -0.0144 -0.3165 -0.3978
   30CHL1    C6 2155   5.000  -0.178   4.784  0.2594 -0.4556  0.4691
   30CHL1    H6 2156   4.944  -0.244   4.716  1.4498 -1.2500  0.2299
   30CHL1    C7 2157   5.056  -0.229   4.908 -1.0081  0.0718 -0.0115
   30CHL1   H7A 2158   4.980  -0.298   4.951  0.7897 -2.7543 -1.0528
   30CHL1   H7B 2159   5.148  -0.284   4.877 -0.3879  1.9377 -1.6963
   30CHL1    C8 2160   5.102  -0.115   5.001 -0.5386 -0.1549 -0.2974
   30CHL1    H8 2161   5.008  -0.063   5.027  0.2136  2.2609 -2.1001
   30CHL1   C14 2162   5.161  -0.182   5.123 -0.0710  0.4768 -0.1710
   30CHL1   H14 2163   5.246  -0.247   5.091 -1.3157 -0.6451 -1.3615
   30CHL1   C15 2164   5.063  -0.274   5.208  0.2903  0.4259  0.1228
   30CHL1  H15A 2165   4.971  -0.215   5.227 -0.5913 -1.2435  1.1399
   30CHL1  H15B 2166   5.035  -0.370   5.160  0.9058  0.6700 -0.7766
   30CHL1   C16 2167   5.144  -0.289   5.335  0.0903  0.0838 -1.4420
   30CHL1  H16A 2168   5.075  -0.272   5.421  3.1531  1.4716  0.9552
   30CHL1  H16B 2169   5.189  -0.391   5.340  0.2664  0.1244 -2.0916
   30CHL1   C17 2170   5.269  -0.189   5.331 -0.3368 -0.6567  0.6797
   30CHL1   H17 2171   5.352  -0.250   5.291 -0.1832 -0.4352  0.6620
   30CHL1   C13 2172   5.234  -0.083   5.221 -1.0922  0.5484  0.5149
   30CHL1   C18 2173   5.134   0.021   5.271  1.2462  0.0872  0.6343
   30CHL1  H18A 2174   5.045  -0.022   5.323 -0.4249  0.5024 -1.7206
   30CHL1  H18B 2175   5.177   0.112   5.319 -3.2450  2.6488  0.4129
   30CHL1  H18C 2176   5.087   0.080   5.189 -3.2519 -1.2106  1.9981
   30CHL1   C12 2177   5.341  -0.004   5.137 -0.0969  0.3555 -0.5335
   30CHL1  H12A 2178   5.385   0.077   5.199  0.5316  0.1779 -0.7380
   30CHL1  H12B 2179   5.424  -0.074   5.111 -0.0378  0.8812 -1.8726
   30CHL1   C11 2180   5.282   0.069   5.021 -0.2929  0.0182  0.0847
   30CHL1  H11A 2181   5.225   0.154   5.064  2.7712  1.6582  1.1534
   30CHL1  H11B 2182   5.363   0.113   4.959  0.5910 -2.0691 -0.3060
   30CHL1    C9 2183   5.203  -0.034   4.925  0.5342 -0.7712 -0.7592
   30CHL1    H9 2184   5.278  -0.104   4.884  1.4285 -0.4043  0.2072
   30CHL1   C10 2185   5.138   0.031   4.804  0.6414  0.2225 -0.9408
   30CHL1   C19 2186   5.057   0.151   4.857 -0.6033  0.1369 -0.9890
   30CHL1  H19A 2187   5.022   0.134   4.961  1.2118 -1.0065 -0.5166
   30CHL1  H19B 2188   5.129   0.237   4.857  0.1467 -0.4766 -0.5016
   30CHL1  H19C 2189   4.971   0.179   4.794 -0.3123 -1.6224 -2.2177
   30CHL1    C1 2190   5.248   0.073   4.702  0.3091  0.0197 -0.6786
   30CHL1   H1A 2191   5.327   0.139   4.742 -0.8529  0.1650  1.5304
   30CHL1   H1B 2192   5.307  -0.017   4.674 -0.0463 -0.6079  0.5305
   30CHL1    C2 2193   5.180   0.139   4.576 -0.3407  0.1891  0.1591
   30CHL1   H2A 2194   5.259   0.169   4.504 -1.5126 -0.7446 -1.5792
   30CHL1   H2B 2195   5.117   0.227   4.603  1.6135  1.4405  0.8532
   30CHL1   C20 2196   5.317  -0.136   5.469 -0.7748 -0.0282 -0.3256
   30CHL1   H20 2197   5.264  -0.040   5.485 -4.7120 -2.1954  0.9561
   30CHL1   C21 2198   5.473  -0.103   5.450  1.0954 -0.4107 -0.3731
   30CHL1  H21A 2199   5.489  -0.031   5.367  2.1755  0.2493  0.3911
   30CHL1  H21B 2200   5.527  -0.196   5.423 -0.1904 -1.4650  0.5409
   30CHL1  H21C 2201   5.510  -0.058   5.544  0.9517 -2.7248  0.8854
   30CHL1   C22 2202   5.288  -0.237   5.596  0.2120  0.4632  0.2949
   30CHL1  H22A 2203   5.179  -0.256   5.584  0.5903 -1.5073 -0.4130
   30CHL1  H22B 2204   5.351  -0.329   5.596 -0.9071 -0.3421 -0.6854
   30CHL1   C23 2205   5.310  -0.182   5.739 -0.0035  0.8088 -0.6391
   30CHL1  H23A 2206   5.415  -0.159   5.767 -0.3247  0.5531  0.8549
   30CHL1  H23B 2207   5.254  -0.086   5.747  1.2825  1.5979 -0.7894
   30CHL1   C24 2208   5.244  -0.264   5.845  0.4841 -0.3718  0.3362
   30CHL1  H24A 2209   5.133  -0.268   5.847  0.5268 -3.1797  1.1831
   30CHL1  H24B 2210   5.292  -0.363   5.836  1.8876  0.2652  0.5787
   30CHL1   C25 2211   5.277  -0.223   5.995  0.4343  0.0812 -0.2129
   30CHL1   H25 2212   5.386  -0.243   6.003 -0.0231 -2.6280  0.3989
   30CHL1   C26 2213   5.256  -0.075   6.022 -0.1776 -0.7218  0.0946
   30CHL1  H26A 2214   5.153  -0.037   6.005  0.2884 -0.0314 -1.3703
   30CHL1  H26B 2215   5.299  -0.062   6.123 -0.4392  0.3103  0.0798
   30CHL1  H26C 2216   5.313  -0.004   5.959 -2.8749  1.7641  0.2512
   30CHL1   C27 2217   5.205  -0.325   6.090 -0.0246 -0.7935  0.1161
   30CHL1  H27A 2218   5.095  -0.310   6.082 -0.0763 -0.7237  0.8785
   30CHL1  H27B 2219   5.223  -0.428   6.053  1.7920  0.0188 -1.3943
   30CHL1  H27C 2220   5.241  -0.313   6.194 -0.0122 -2.5337  0.3321
   31CHL1    C3 2221   3.991   6.574   4.389 -0.3752 -0.0382 -0.3596
   31CHL1    H3 2222   4.006   6.464   4.398  2.6183  0.2551 -0.5474
   31CHL1    O3 2223   3.979   6.614   4.250 -0.6166  0.3855  0.2894
   31CHL1   H3' 2224   3.888   6.611   4.221 -0.1757  2.2700 -1.5034
   31CHL1    C4 2225   3.883   6.646   4.478 -0.1367  0.3211  0.6508
   31CHL1   H4A 2226   3.885   6.751   4.442 -1.1647  0.7729  1.8271
   31CHL1   H4B 2227   3.780   6.615   4.449 -0.5536  0.9448  1.4204
   31CHL1    C5 2228   3.917   6.626   4.627 -0.1053 -0.4965 -0.0654
   31CHL1    C6 2229   3.820   6.581   4.711 -0.3521  0.0220  0.2069
   31CHL1    H6 2230   3.721   6.553   4.672 -2.2499  1.2614  3.6683
   31CHL1    C7 2231   3.829   6.587   4.862  0.0393  0.1287 -0.4637
   31CHL1   H7A 2232   3.747   6.647   4.907  1.8346  1.6248  0.9610
   31CHL1   H7B 2233   3.817   6.487   4.910 -1.5238  0.8974  0.8637
   31CHL1    C8 2234   3.953   6.657   4.911  0.3661 -0.2441 -0.2424
   31CHL1    H8 2235   3.941   6.768   4.905  1.7959  0.0038  0.9683
   31CHL1   C14 2236   3.977   6.627   5.056  0.0516 -0.3847  0.0988
   31CHL1   H14 2237   3.992   6.517   5.065  0.9843 -0.2897 -0.1745
   31CHL1   C15 2238   3.854   6.653   5.155 -0.0806 -0.3579 -0.2066
   31CHL1  H15A 2239   3.794   6.738   5.116 -1.0693 -0.2086  1.5720
   31CHL1  H15B 2240   3.780   6.570   5.157 -2.6077  1.7128 -1.4377
   31CHL1   C16 2241   3.928   6.671   5.292 -0.2170  0.6096  0.8731
   31CHL1  H16A 2242   3.934   6.781   5.309 -0.2508  1.0205 -1.4030
   31CHL1  H16B 2243   3.879   6.619   5.377 -1.0209  1.4445  0.9384
   31CHL1   C17 2244   4.076   6.634   5.262  0.4512 -0.2395 -0.0415
   31CHL1   H17 2245   4.068   6.524   5.272 -1.0796 -0.0598  1.0790
   31CHL1   C13 2246   4.105   6.678   5.111 -0.4181 -0.1469 -0.4317
   31CHL1   C18 2247   4.118   6.834   5.112  0.0925 -0.0145  0.5662
   31CHL1  H18A 2248   4.144   6.870   5.214 -1.4581 -1.3451  1.4774
   31CHL1  H18B 2249   4.210   6.868   5.060 -0.7106  1.1323 -0.1443
   31CHL1  H18C 2250   4.023   6.872   5.069  1.4877  0.8642 -1.9180
   31CHL1   C12 2251   4.224   6.611   5.034 -0.2320  0.2844 -0.4638
   31CHL1  H12A 2252   4.323   6.648   5.068  0.7953 -1.2500 -1.6340
   31CHL1  H12B 2253   4.224   6.500   5.031  2.5590  0.1357  1.3610
   31CHL1   C11 2254   4.216   6.651   4.883  0.6930  0.9951  0.8597
   31CHL1  H11A 2255   4.259   6.753   4.881  0.3043  1.1626 -1.3918
   31CHL1  H11B 2256   4.291   6.587   4.832  1.6593  1.3612  1.7793
   31CHL1    C9 2257   4.072   6.622   4.823 -0.4670  0.3109 -0.6273
   31CHL1    H9 2258   4.063   6.512   4.810  0.0293 -0.0363  1.5729
   31CHL1   C10 2259   4.054   6.671   4.677  1.1729  0.5816  0.3130
   31CHL1   C19 2260   4.062   6.823   4.677 -0.2479  0.4381 -0.7403
   31CHL1  H19A 2261   4.068   6.878   4.581 -3.0226  0.3726 -1.0127
   31CHL1  H19B 2262   3.985   6.875   4.738  1.0949  1.7573 -0.0814
   31CHL1  H19C 2263   4.157   6.846   4.731  1.5601 -2.0235 -2.6549
   31CHL1    C1 2264   4.155   6.606   4.583  0.0451 -0.1760 -0.1701
   31CHL1   H1A 2265   4.252   6.657   4.605  0.1592 -0.0836 -0.8658
   31CHL1   H1B 2266   4.161   6.498   4.605 -0.1556 -0.0157  0.7031
   31CHL1    C2 2267   4.130   6.632   4.429 -0.2141 -0.5426 -0.0596
   31CHL1   H2A 2268   4.209   6.577   4.374 -1.5054 -1.4060 -1.1178
   31CHL1   H2B 2269   4.141   6.742   4.413 -1.9986 -0.0734  1.6016
   31CHL1   C20 2270   4.175   6.679   5.363 -0.7119  0.3612  0.0578
   31CHL1   H20 2271   4.261   6.726   5.312 -2.6401  1.3054 -2.5358
   31CHL1   C21 2272   4.227   6.550   5.435 -0.8320 -0.3062 -0.7676
   31CHL1  H21A 2273   4.149   6.505   5.499 -2.9216  1.9450 -1.5867
   31CHL1  H21B 2274   4.311   6.577   5.502 -0.9157 -2.1541  0.1519
   31CHL1  H21C 2275   4.272   6.476   5.365  0.6523  0.1264 -0.3160
   31CHL1   C22 2276   4.128   6.781   5.466  0.4155 -0.2296  0.4253
   31CHL1  H22A 2277   4.093   6.869   5.408 -2.6704 -1.7323 -0.1962
   31CHL1  H22B 2278   4.041   6.734   5.516 -0.7200  0.4072 -0.8841
   31CHL1   C23 2279   4.231   6.817   5.582  0.1451  0.5186  0.1490
   31CHL1  H23A 2280   4.255   6.741   5.659  0.1097 -1.0253 -1.3029
   31CHL1  H23B 2281   4.327   6.826   5.527  0.3071 -0.5013  0.2449
   31CHL1   C24 2282   4.182   6.945   5.644 -0.6020 -0.4567  0.2233
   31CHL1  H24A 2283   4.266   6.981   5.707  0.2722  1.4765 -1.9473
   31CHL1  H24B 2284   4.155   7.023   5.570  0.2177 -1.1147 -0.7880
   31CHL1   C25 2285   4.067   6.927   5.746  0.3991  0.8596  0.2997
   31CHL1   H25 2286   3.972   6.889   5.701 -0.2511  2.2677  0.4377
   31CHL1   C26 2287   4.089   6.840   5.869 -0.8983  0.4547  0.0855
   31CHL1  H26A 2288   4.178   6.871   5.928  1.0279 -1.6751 -1.5335
   31CHL1  H26B 2289   4.001   6.845   5.937  0.0096  0.0235  1.3266
   31CHL1  H26C 2290   4.110   6.737   5.836 -1.4047  0.7486 -1.2375
   31CHL1   C27 2291   4.024   7.068   5.799 -0.6491 -0.4515  0.2679
   31CHL1  H27A 2292   4.000   7.143   5.720 -2.0323  2.7270  3.4010
   31CHL1  H27B 2293   3.943   7.063   5.876  0.8004  1.1899  2.0121
   31CHL1  H27C 2294   4.113   7.106   5.854 -0.2724  0.4005 -0.8962
   32CHL1    C3 2295   2.208   0.400   4.984  0.5021 -0.3383  0.3434
   32CHL1    H3 2296   2.239   0.295   4.999 -0.1243 -0.7327 -1.0361
   32CHL1    O3 2297   2.167   0.418   4.848 -0.8217  0.2166 -0.1096
   32CHL1   H3' 2298   2.128   0.506   4.848 -2.8265 -0.5081 -3.0138
   32CHL1    C4 2299   2.087   0.427   5.077  0.0277 -0.3044 -0.5221
   32CHL1   H4A 2300   2.055   0.531   5.053 -0.8319 -0.3343  0.4299
   32CHL1   H4B 2301   2.000   0.362   5.053 -0.7417 -0.7142  2.9372
   32CHL1    C5 2302   2.125   0.418   5.223  1.0922  0.2294 -0.3897
   32CHL1    C6 2303   2.067   0.325   5.300 -0.3303  0.3783 -0.2570
   32CHL1    H6 2304   1.994   0.257   5.253  0.7268 -0.7245 -0.3501
   32CHL1    C7 2305   2.112   0.289   5.445 -0.5247 -0.3109  0.0830
   32CHL1   H7A 2306   2.023   0.280   5.511  0.7635 -0.2951  1.8978
   32CHL1   H7B 2307   2.169   0.195   5.455 -1.0438 -0.4880  1.6904
   32CHL1    C8 2308   2.202   0.408   5.499  0.0508 -0.7149 -0.0199
   32CHL1    H8 2309   2.135   0.496   5.512  1.6307  0.4930  0.2007
   32CHL1   C14 2310   2.268   0.366   5.631 -0.7451 -0.4689  0.1850
   32CHL1   H14 2311   2.348   0.294   5.604 -0.5182 -0.5520  1.0336
   32CHL1   C15 2312   2.182   0.304   5.747 -0.6654 -0.3011  0.5531
   32CHL1  H15A 2313   2.101   0.379   5.759 -1.5364 -1.3704  1.6472
   32CHL1  H15B 2314   2.145   0.201   5.727 -1.0379 -1.0365  4.2426
   32CHL1   C16 2315   2.267   0.318   5.867 -0.0395 -0.2422  0.5003
   32CHL1  H16A 2316   2.208   0.368   5.946  1.4949  0.3145  1.3448
   32CHL1  H16B 2317   2.294   0.217   5.903 -0.0938 -1.5005 -2.6868
   32CHL1   C17 2318   2.393   0.399   5.827 -0.5682 -0.0223 -0.1813
   32CHL1   H17 2319   2.463   0.323   5.786  0.3908  1.8804 -2.2228
   32CHL1   C13 2320   2.353   0.471   5.696  0.3262 -0.1441  0.0453
   32CHL1   C18 2321   2.258   0.592   5.742 -0.0569  0.7810 -0.4787
   32CHL1  H18A 2322   2.183   0.559   5.817 -0.0301 -0.8838 -1.1316
   32CHL1  H18B 2323   2.315   0.673   5.793 -1.4151  2.2414 -1.1731
   32CHL1  H18C 2324   2.210   0.642   5.655 -0.9520  2.0234  0.6860
   32CHL1   C12 2325   2.465   0.517   5.604 -0.0341 -0.5615 -0.0387
   32CHL1  H12A 2326   2.535   0.590   5.650  1.0393 -1.2403 -0.5554
   32CHL1  H12B 2327   2.532   0.429   5.589  0.3595  0.1921 -3.5495
   32CHL1   C11 2328   2.411   0.554   5.463 -0.1487  0.4537  0.0375
   32CHL1  H11A 2329   2.380   0.660   5.452  2.2442  1.0351 -2.2459
   32CHL1  H11B 2330   2.497   0.546   5.393  0.7834 -2.7392  1.3568
   32CHL1    C9 2331   2.305   0.453   5.404  0.4514 -0.1439 -0.2473
   32CHL1    H9 2332   2.356   0.359   5.373  0.7616 -0.0730  0.0370
   32CHL1   C10 2333   2.254   0.500   5.265 -0.4474 -0.2309 -0.5852
   32CHL1   C19 2334   2.217   0.646   5.265  0.3047  0.2327  0.1686
   32CHL1  H19A 2335   2.300   0.718   5.277 -0.0017  0.7544 -0.7377
   32CHL1  H19B 2336   2.167   0.663   5.167 -0.2838 -1.9341  0.0441
   32CHL1  H19C 2337   2.137   0.659   5.342 -0.6992 -0.2129 -0.7704
   32CHL1    C1 2338   2.371   0.478   5.160  0.0156 -0.7195 -1.5282
   32CHL1   H1A 2339   2.445   0.558   5.178 -1.7953  0.7561 -0.2794
   32CHL1   H1B 2340   2.419   0.378   5.172  3.7747  1.1467  0.9866
   32CHL1    C2 2341   2.331   0.490   5.009  0.0325  0.8486  0.2970
   32CHL1   H2A 2342   2.413   0.452   4.944 -0.2103  1.2661 -0.2593
   32CHL1   H2B 2343   2.305   0.592   4.972 -0.0004  0.5952 -0.3985
   32CHL1   C20 2344   2.453   0.469   5.952 -0.1900 -0.3426 -0.5524
   32CHL1   H20 2345   2.382   0.552   5.969  0.2901  0.5737 -2.6211
   32CHL1   C21 2346   2.586   0.543   5.919 -0.0926  0.2730  0.1702
   32CHL1  H21A 2347   2.645   0.483   5.847  0.0287  3.7749 -2.9759
   32CHL1  H21B 2348   2.634   0.574   6.014 -0.7504  2.5665 -0.1816
   32CHL1  H21C 2349   2.565   0.634   5.859  0.8058  0.0641 -0.4894
   32CHL1   C22 2350   2.476   0.374   6.069 -0.2862  0.4401  0.0699
   32CHL1  H22A 2351   2.488   0.438   6.159 -2.1248  1.3127 -0.2596
   32CHL1  H22B 2352   2.385   0.314   6.090  1.1911 -1.6163  0.8745
   32CHL1   C23 2353   2.590   0.274   6.063  0.1050 -0.1565  0.6914
   32CHL1  H23A 2354   2.560   0.201   5.984 -1.8755 -0.7388  1.9039
   32CHL1  H23B 2355   2.685   0.317   6.027  0.8128 -0.0960  2.5101
   32CHL1   C24 2356   2.608   0.198   6.193 -0.4858 -0.1407  0.1679
   32CHL1  H24A 2357   2.503   0.188   6.227 -0.4188  0.1345  0.4648
   32CHL1  H24B 2358   2.653   0.097   6.179  1.7193  0.7266  0.5734
   32CHL1   C25 2359   2.690   0.279   6.298  0.2644  0.3923  0.7623
   32CHL1   H25 2360   2.653   0.384   6.290 -0.7433 -0.0022 -0.0619
   32CHL1   C26 2361   2.660   0.235   6.439  0.7609 -0.1019  0.0062
   32CHL1  H26A 2362   2.697   0.310   6.512 -0.4350 -1.4633  2.0998
   32CHL1  H26B 2363   2.550   0.233   6.459  0.9381  1.3398  1.2989
   32CHL1  H26C 2364   2.698   0.135   6.469 -0.0905 -0.3667  0.2300
   32CHL1   C27 2365   2.837   0.272   6.275  0.1223 -0.4040  0.2164
   32CHL1  H27A 2366   2.907   0.329   6.341  2.3155 -0.2983 -2.0325
   32CHL1  H27B 2367   2.870   0.166   6.278  0.1303 -0.4288 -0.6018
   32CHL1  H27C 2368   2.867   0.316   6.177 -1.8538  1.2742  0.2970
   33CHL1    C3 2369   2.700   1.569   4.755 -0.2482  0.3476 -0.3651
   33CHL1    H3 2370   2.743   1.466   4.758  0.9787  0.8477  0.0778
   33CHL1    O3 2371   2.667   1.611   4.620  0.1744 -0.5394 -0.3245
   33CHL1   H3' 2372   2.662   1.706   4.629  1.3610 -0.3777 -1.0998
   33CHL1    C4 2373   2.571   1.555   4.842  0.2686 -0.6144  0.5353
   33CHL1   H4A 2374   2.508   1.645   4.833 -0.5667 -0.7904  3.5478
   33CHL1   H4B 2375   2.512   1.476   4.790  0.3010 -0.1998 -0.1443
   33CHL1    C5 2376   2.603   1.527   4.986 -0.0523 -0.1681  0.1458
   33CHL1    C6 2377   2.551   1.419   5.041 -0.8379  0.4344  0.3976
   33CHL1    H6 2378   2.477   1.354   4.993 -0.0740 -1.7934  2.0575
   33CHL1    C7 2379   2.577   1.378   5.184 -0.2779 -0.6409  0.5693
   33CHL1   H7A 2380   2.487   1.344   5.240 -0.6994 -0.4636  0.0007
   33CHL1   H7B 2381   2.652   1.295   5.191  0.9399  0.0656 -2.5745
   33CHL1    C8 2382   2.636   1.501   5.259  0.0925  0.0515  0.2048
   33CHL1    H8 2383   2.552   1.572   5.274  0.7909  0.7211  1.0291
   33CHL1   C14 2384   2.678   1.460   5.400  0.4654 -0.2914  0.0705
   33CHL1   H14 2385   2.771   1.400   5.393  1.6167  1.2319  1.5845
   33CHL1   C15 2386   2.576   1.383   5.491  0.1233  0.0048 -0.0939
   33CHL1  H15A 2387   2.476   1.428   5.475 -0.0660 -0.3667  0.0221
   33CHL1  H15B 2388   2.578   1.274   5.467 -0.6753 -0.4275  1.6093
   33CHL1   C16 2389   2.621   1.399   5.635  0.2242  0.2030  0.2863
   33CHL1  H16A 2390   2.537   1.433   5.699 -0.9084  1.3007 -1.6842
   33CHL1  H16B 2391   2.665   1.309   5.682  0.5247 -0.0200 -0.3979
   33CHL1   C17 2392   2.743   1.501   5.630  0.1600 -0.2707  0.2233
   33CHL1   H17 2393   2.835   1.439   5.620 -0.5375 -1.8992  2.8813
   33CHL1   C13 2394   2.730   1.574   5.491  0.6650  0.4430 -0.0863
   33CHL1   C18 2395   2.615   1.669   5.513  0.3347  0.3448 -0.0935
   33CHL1  H18A 2396   2.584   1.701   5.412 -1.9057 -0.1744  0.3715
   33CHL1  H18B 2397   2.525   1.634   5.568  0.0851  1.6548  0.3573
   33CHL1  H18C 2398   2.647   1.764   5.562  1.0236 -0.2183  0.5817
   33CHL1   C12 2399   2.851   1.633   5.426 -0.1123  0.2295 -0.4069
   33CHL1  H12A 2400   2.887   1.725   5.476 -0.6382  0.3548 -0.2448
   33CHL1  H12B 2401   2.927   1.554   5.437 -0.3124  0.0808 -0.0726
   33CHL1   C11 2402   2.827   1.673   5.278  0.1389 -0.2562  0.8793
   33CHL1  H11A 2403   2.761   1.762   5.292 -0.2474 -0.5238  0.7767
   33CHL1  H11B 2404   2.923   1.698   5.228 -0.3699 -0.5049 -0.2534
   33CHL1    C9 2405   2.751   1.574   5.188 -0.1399  0.6988  0.3206
   33CHL1    H9 2406   2.820   1.489   5.171 -0.0133  1.2936 -2.8802
   33CHL1   C10 2407   2.708   1.622   5.050  0.1135  0.2826 -0.0708
   33CHL1   C19 2408   2.654   1.765   5.062 -0.1776  0.3191  0.4055
   33CHL1  H19A 2409   2.734   1.833   5.098 -0.3840  2.0055 -2.0726
   33CHL1  H19B 2410   2.617   1.806   4.965  3.2222 -1.5705 -1.8875
   33CHL1  H19C 2411   2.581   1.759   5.145  0.6551  2.2621  1.3339
   33CHL1    C1 2412   2.840   1.630   4.963  0.0471 -0.1877 -0.5094
   33CHL1   H1A 2413   2.904   1.710   5.007  0.2455 -0.7331  0.2171
   33CHL1   H1B 2414   2.902   1.539   4.977  1.5089  1.1087  2.2526
   33CHL1    C2 2415   2.811   1.662   4.818  0.1709  0.5549  0.0890
   33CHL1   H2A 2416   2.909   1.672   4.766  0.1918  2.6272  0.4394
   33CHL1   H2B 2417   2.771   1.766   4.822 -0.8443  0.1775 -0.0595
   33CHL1   C20 2418   2.749   1.586   5.766 -0.1560 -0.4190  0.3166
   33CHL1   H20 2419   2.647   1.626   5.785  0.9092  1.0142  3.9688
   33CHL1   C21 2420   2.849   1.693   5.771 -0.2709 -0.6183  0.2966
   33CHL1  H21A 2421   2.848   1.756   5.862  0.2721  1.3756 -0.9984
   33CHL1  H21B 2422   2.835   1.763   5.685 -0.4269  3.3347  3.2325
   33CHL1  H21C 2423   2.945   1.639   5.774 -0.1722 -0.5124 -0.5280
   33CHL1   C22 2424   2.776   1.491   5.882  0.4434  0.0349 -0.1680
   33CHL1  H22A 2425   2.714   1.400   5.868 -0.1164  0.6563 -2.0873
   33CHL1  H22B 2426   2.880   1.453   5.877  0.6391  0.3773  1.0205
   33CHL1   C23 2427   2.751   1.565   6.017 -0.2446 -0.2448  0.4982
   33CHL1  H23A 2428   2.840   1.616   6.059  0.2138 -0.2391 -0.4485
   33CHL1  H23B 2429   2.671   1.641   6.010 -1.6311 -1.7085 -0.1548
   33CHL1   C24 2430   2.713   1.463   6.122  0.6714  0.1064 -0.5805
   33CHL1  H24A 2431   2.637   1.391   6.087  0.4045 -0.8009  1.6806
   33CHL1  H24B 2432   2.805   1.401   6.133  1.1571  0.8536 -0.3089
   33CHL1   C25 2433   2.669   1.520   6.258 -0.3531  0.5437 -0.3244
   33CHL1   H25 2434   2.567   1.563   6.252 -0.4303  0.2982 -0.8047
   33CHL1   C26 2435   2.682   1.402   6.359  0.5096  0.0208 -0.2129
   33CHL1  H26A 2436   2.790   1.381   6.379  1.2438  2.9649 -0.5943
   33CHL1  H26B 2437   2.629   1.433   6.451  0.9198 -0.0574  0.0512
   33CHL1  H26C 2438   2.633   1.308   6.326  0.9040 -1.5715  3.3100
   33CHL1   C27 2439   2.760   1.632   6.305  0.6712 -0.2261 -0.5579
   33CHL1  H27A 2440   2.865   1.605   6.280  1.1414 -1.4766  2.3242
   33CHL1  H27B 2441   2.727   1.721   6.247  0.8303  1.1147  1.3356
   33CHL1  H27C 2442   2.747   1.652   6.413  1.1559  1.9605 -0.8685
   34CHL1    C3 2443   6.749   3.333   4.695  0.5080  0.3075 -0.6187
   34CHL1    H3 2444   6.842   3.280   4.725 -0.4776 -0.2176  1.7849
   34CHL1    O3 2445   6.735   3.335   4.553 -0.1049  0.5619  0.0088
   34CHL1   H3' 2446   6.652   3.381   4.537  0.6770  2.7608  1.7843
   34CHL1    C4 2447   6.627   3.261   4.752  0.0528  0.2392  0.4588
   34CHL1   H4A 2448   6.540   3.314   4.708 -0.5852 -0.7656  0.5004
   34CHL1   H4B 2449   6.621   3.159   4.710 -0.4801  0.5416 -0.2197
   34CHL1    C5 2450   6.630   3.262   4.903  0.0626  1.0398  0.7025
   34CHL1    C6 2451   6.631   3.145   4.966  0.6078  0.2054  0.1391
   34CHL1    H6 2452   6.635   3.058   4.899 -0.1143  0.6306 -0.4849
   34CHL1    C7 2453   6.646   3.132   5.117 -0.0621 -0.0907  0.1104
   34CHL1   H7A 2454   6.583   3.057   5.170 -2.6644  3.4801  2.4880
   34CHL1   H7B 2455   6.748   3.100   5.149 -0.2716 -0.5964  0.2852
   34CHL1    C8 2456   6.627   3.271   5.201  0.4632  1.5688  0.5406
   34CHL1    H8 2457   6.516   3.279   5.209  0.5523  1.6029  1.9984
   34CHL1   C14 2458   6.680   3.265   5.346  0.2329 -0.1383  0.0560
   34CHL1   H14 2459   6.790   3.256   5.353  0.1025 -1.6416  0.4248
   34CHL1   C15 2460   6.623   3.137   5.416  0.0050 -0.1117  0.1697
   34CHL1  H15A 2461   6.517   3.114   5.395 -0.3017  1.5914 -0.3493
   34CHL1  H15B 2462   6.680   3.047   5.386  1.2236  0.7798 -0.2952
   34CHL1   C16 2463   6.651   3.179   5.566 -0.7387 -0.5323  0.3183
   34CHL1  H16A 2464   6.560   3.151   5.623 -1.0901 -1.8185 -0.8152
   34CHL1  H16B 2465   6.730   3.113   5.607 -0.6761 -1.4908 -1.2470
   34CHL1   C17 2466   6.687   3.331   5.565  0.4478 -0.1996  0.0667
   34CHL1   H17 2467   6.798   3.328   5.561  0.3929 -1.5272 -2.8928
   34CHL1   C13 2468   6.642   3.384   5.425  0.0793 -0.2663  0.2469
   34CHL1   C18 2469   6.483   3.403   5.425 -0.3516 -0.1292  0.3580
   34CHL1  H18A 2470   6.425   3.314   5.460  1.6776 -0.6808  2.6246
   34CHL1  H18B 2471   6.458   3.491   5.488  1.1073  0.0055  0.7934
   34CHL1  H18C 2472   6.445   3.432   5.325 -0.6998 -1.5877  0.0435
   34CHL1   C12 2473   6.711   3.500   5.352 -0.1235 -0.6295 -0.7650
   34CHL1  H12A 2474   6.678   3.590   5.408 -0.8927  0.0857 -2.2752
   34CHL1  H12B 2475   6.822   3.503   5.354  0.0222  0.4780 -3.9315
   34CHL1   C11 2476   6.668   3.521   5.205 -0.2873  0.3262 -0.3221
   34CHL1  H11A 2477   6.564   3.558   5.195 -0.5685  0.0602  1.3374
   34CHL1  H11B 2478   6.732   3.602   5.165  0.4565 -0.9231 -1.8034
   34CHL1    C9 2479   6.688   3.390   5.120  0.7322  0.4870  0.6745
   34CHL1    H9 2480   6.797   3.369   5.123  0.8971  0.5028 -2.3477
   34CHL1   C10 2481   6.644   3.401   4.968 -0.2006  0.1063 -0.1622
   34CHL1   C19 2482   6.521   3.496   4.959  0.5075  0.3611 -0.6668
   34CHL1  H19A 2483   6.439   3.462   5.025 -1.4903  1.1508 -2.6473
   34CHL1  H19B 2484   6.535   3.603   4.986 -2.8624  0.4511  1.1820
   34CHL1  H19C 2485   6.478   3.498   4.857 -2.5397  2.0616  0.5377
   34CHL1    C1 2486   6.764   3.472   4.895 -0.4614 -0.3168  0.0498
   34CHL1   H1A 2487   6.748   3.578   4.924  0.1654 -0.0248 -0.6453
   34CHL1   H1B 2488   6.857   3.421   4.928  0.1480 -0.8280 -2.2598
   34CHL1    C2 2489   6.754   3.474   4.744 -0.1711  0.4298 -0.6646
   34CHL1   H2A 2490   6.843   3.523   4.699 -1.0729  1.2146 -1.6343
   34CHL1   H2B 2491   6.665   3.531   4.711 -0.0894 -0.2475 -2.1778
   34CHL1   C20 2492   6.642   3.405   5.693 -0.1303  0.3940  0.1926
   34CHL1   H20 2493   6.531   3.395   5.700  0.0050 -0.9800  0.6281
   34CHL1   C21 2494   6.690   3.550   5.697  0.3917  0.2256 -0.1729
   34CHL1  H21A 2495   6.647   3.603   5.609 -0.5716 -0.9125 -0.4134
   34CHL1  H21B 2496   6.801   3.547   5.696  0.4040 -0.3275  1.1653
   34CHL1  H21C 2497   6.655   3.603   5.788  0.9066  0.7955 -0.2940
   34CHL1   C22 2498   6.691   3.321   5.821  0.2457 -0.0867  0.1353
   34CHL1  H22A 2499   6.658   3.215   5.818 -1.4182  0.3775 -3.4372
   34CHL1  H22B 2500   6.802   3.324   5.829  0.4210 -3.1226 -0.0267
   34CHL1   C23 2501   6.633   3.368   5.958  0.6320  0.7228 -0.1866
   34CHL1  H23A 2502   6.675   3.321   6.049 -0.5629 -2.8781 -1.3178
   34CHL1  H23B 2503   6.661   3.475   5.969  1.2318  0.6672 -1.0679
   34CHL1   C24 2504   6.483   3.338   5.965  1.2030  0.1351  0.0165
   34CHL1  H24A 2505   6.428   3.380   5.878  0.5011 -1.7857 -0.5181
   34CHL1  H24B 2506   6.460   3.230   5.951  0.3585  0.2926  0.1101
   34CHL1   C25 2507   6.389   3.383   6.082  0.1517  0.2585  0.9037
   34CHL1   H25 2508   6.402   3.492   6.099 -2.7145  0.6117  1.1785
   34CHL1   C26 2509   6.241   3.366   6.041 -0.2756 -0.0546 -0.1850
   34CHL1  H26A 2510   6.216   3.444   5.966  0.6305  1.0179  0.5895
   34CHL1  H26B 2511   6.223   3.263   6.003 -2.1132  0.5366 -0.9999
   34CHL1  H26C 2512   6.174   3.386   6.127  0.3546  0.5204  0.1803
   34CHL1   C27 2513   6.410   3.297   6.211  0.2806  0.1581 -0.0984
   34CHL1  H27A 2514   6.390   3.190   6.190  0.2956 -0.1376  1.2856
   34CHL1  H27B 2515   6.514   3.303   6.250  0.2920 -1.7561  0.2900
   34CHL1  H27C 2516   6.342   3.332   6.291  0.9295 -0.7922  0.9111
   35CHL1    C3 2517   1.447   2.367   4.709  0.3505  0.2320  0.2966
   35CHL1    H3 2518   1.540   2.313   4.736  0.2179 -0.1023  0.0942
   35CHL1    O3 2519   1.446   2.396   4.571  0.4571 -0.2595  0.0882
   35CHL1   H3' 2520   1.497   2.322   4.536  0.4049 -0.3368  0.1746
   35CHL1    C4 2521   1.323   2.281   4.730 -0.3807 -0.6696  0.6199
   35CHL1   H4A 2522   1.228   2.334   4.710  0.4242  0.7359  0.3935
   35CHL1   H4B 2523   1.331   2.188   4.670  1.8343 -1.2311  1.6664
   35CHL1    C5 2524   1.325   2.250   4.880  0.0444 -0.0747 -0.2733
   35CHL1    C6 2525   1.336   2.123   4.921  0.2606 -0.6625 -0.0013
   35CHL1    H6 2526   1.338   2.052   4.837 -0.5038 -0.1646 -0.4639
   35CHL1    C7 2527   1.338   2.070   5.061  0.1095 -0.1923 -0.6673
   35CHL1   H7A 2528   1.264   1.990   5.085  0.8081 -1.1075 -1.4838
   35CHL1   H7B 2529   1.442   2.040   5.084  0.0140 -0.1039 -0.0979
   35CHL1    C8 2530   1.292   2.188   5.156  0.3336 -0.5805  0.6024
   35CHL1    H8 2531   1.183   2.210   5.156  1.0059  3.8467  2.3267
   35CHL1   C14 2532   1.353   2.136   5.288  0.5981 -0.6265  0.2630
   35CHL1   H14 2533   1.463   2.144   5.284  0.5907  1.4737  1.9200
   35CHL1   C15 2534   1.319   1.995   5.336  0.3825 -0.1146 -0.8268
   35CHL1  H15A 2535   1.211   1.972   5.322  0.9437 -2.0128 -2.6190
   35CHL1  H15B 2536   1.361   1.896   5.306 -1.7889 -1.7513  1.1990
   35CHL1   C16 2537   1.351   2.003   5.488  0.4205 -0.7331 -0.1904
   35CHL1  H16A 2538   1.271   1.953   5.547 -0.8362 -0.3071 -1.4611
   35CHL1  H16B 2539   1.444   1.945   5.500  0.0487 -1.9266 -2.5792
   35CHL1   C17 2540   1.389   2.153   5.519  0.5476 -0.4614 -0.1895
   35CHL1   H17 2541   1.494   2.159   5.484 -0.0451 -1.5323 -2.2936
   35CHL1   C13 2542   1.322   2.232   5.406 -0.3973  0.4949  0.8653
   35CHL1   C18 2543   1.172   2.254   5.426  0.8485  0.2519 -0.4704
   35CHL1  H18A 2544   1.151   2.324   5.511 -1.1156  1.1729 -1.6343
   35CHL1  H18B 2545   1.121   2.312   5.346  0.0860  2.3519  1.4162
   35CHL1  H18C 2546   1.113   2.164   5.453 -3.1192  3.0555  1.3592
   35CHL1   C12 2547   1.384   2.378   5.380 -0.1050 -0.0019  0.1763
   35CHL1  H12A 2548   1.346   2.450   5.455  1.2658 -0.3365  1.2454
   35CHL1  H12B 2549   1.494   2.375   5.397 -0.0871 -3.1841  0.1816
   35CHL1   C11 2550   1.345   2.423   5.239  0.6330 -0.0945 -0.0298
   35CHL1  H11A 2551   1.235   2.437   5.235  0.4753 -1.5246 -1.1013
   35CHL1  H11B 2552   1.403   2.517   5.224 -0.4037  0.9221  1.9236
   35CHL1    C9 2553   1.356   2.320   5.120 -0.4698 -0.5295  0.1369
   35CHL1    H9 2554   1.464   2.292   5.121 -0.2440  0.2727  2.0313
   35CHL1   C10 2555   1.316   2.368   4.973  0.3750  0.3579  0.2169
   35CHL1   C19 2556   1.173   2.443   4.971 -0.6455  0.1030  0.6164
   35CHL1  H19A 2557   1.145   2.479   4.870 -2.0568  1.7583  1.5576
   35CHL1  H19B 2558   1.097   2.366   4.996  0.5915 -1.4985 -0.3284
   35CHL1  H19C 2559   1.167   2.520   5.051  1.4979 -1.4139  2.3897
   35CHL1    C1 2560   1.422   2.476   4.937 -0.8390  0.0067  1.1660
   35CHL1   H1A 2561   1.393   2.571   4.987  0.1550 -0.2385  2.2575
   35CHL1   H1B 2562   1.523   2.442   4.969  0.2391  0.8027 -1.1362
   35CHL1    C2 2563   1.433   2.499   4.791  0.6305 -0.1035  0.2852
   35CHL1   H2A 2564   1.517   2.567   4.765 -0.7543  0.9953 -1.5050
   35CHL1   H2B 2565   1.353   2.551   4.736 -0.4530 -2.2640 -0.2993
   35CHL1   C20 2566   1.376   2.216   5.660  0.2910 -0.0421 -0.2987
   35CHL1   H20 2567   1.293   2.287   5.682 -0.1346 -1.3719  2.8640
   35CHL1   C21 2568   1.507   2.299   5.682 -0.4349  0.2015 -0.0572
   35CHL1  H21A 2569   1.513   2.375   5.602 -0.5857 -0.9189 -1.1675
   35CHL1  H21B 2570   1.586   2.220   5.682  0.9407  1.5233  0.0632
   35CHL1  H21C 2571   1.503   2.338   5.786 -0.9790 -1.9618  0.7794
   35CHL1   C22 2572   1.365   2.101   5.763  0.7975  0.0517  0.0051
   35CHL1  H22A 2573   1.268   2.050   5.745  1.4198 -1.4227  0.7422
   35CHL1  H22B 2574   1.444   2.025   5.750  0.6647 -0.2361  0.8607
   35CHL1   C23 2575   1.361   2.132   5.912  0.0583 -0.0580  0.1880
   35CHL1  H23A 2576   1.450   2.195   5.934  0.9563 -0.8925 -0.9232
   35CHL1  H23B 2577   1.265   2.186   5.932  0.7717  0.3796  2.7351
   35CHL1   C24 2578   1.373   2.009   5.999  0.8803  0.6143 -0.2130
   35CHL1  H24A 2579   1.284   1.944   5.987  0.2144  1.6332 -0.9954
   35CHL1  H24B 2580   1.462   1.951   5.966  1.2072  1.5902 -1.0987
   35CHL1   C25 2581   1.396   2.046   6.152 -0.2911  0.2027  0.3052
   35CHL1   H25 2582   1.497   2.092   6.152 -0.9497  1.7486 -1.4638
   35CHL1   C26 2583   1.298   2.155   6.212 -0.5530  0.1525  0.3370
   35CHL1  H26A 2584   1.335   2.168   6.315  0.0441  0.6963  0.0601
   35CHL1  H26B 2585   1.276   2.243   6.147  0.1893 -0.9259 -1.4601
   35CHL1  H26C 2586   1.205   2.095   6.207  0.1294 -0.8892 -3.8321
   35CHL1   C27 2587   1.377   1.923   6.236  0.4156 -0.3207 -0.1366
   35CHL1  H27A 2588   1.441   1.945   6.324  1.3189 -0.5447 -0.7239
   35CHL1  H27B 2589   1.274   1.892   6.265  0.4669 -1.9565 -1.5308
   35CHL1  H27C 2590   1.432   1.836   6.195  1.0573  1.0274 -2.3000
   36CHL1    C3 2591   3.744   3.233   4.827  0.4747 -0.6859 -0.7337
   36CHL1    H3 2592   3.657   3.163   4.829  0.5413 -0.7842  1.7089
   36CHL1    O3 2593   3.762   3.288   4.703  0.4653  0.0982 -0.1372
   36CHL1   H3' 2594   3.852   3.321   4.703  0.8655 -0.8929 -1.6702
   36CHL1    C4 2595   3.717   3.352   4.924  0.0912 -0.5273  0.2555
   36CHL1   H4A 2596   3.791   3.434   4.915  0.8843 -1.2122  0.4271
   36CHL1   H4B 2597   3.631   3.411   4.885 -0.1096 -0.6238  0.5494
   36CHL1    C5 2598   3.689   3.307   5.063 -0.1981 -0.4404  0.1263
   36CHL1    C6 2599   3.571   3.330   5.120 -0.7935 -0.8711  0.4455
   36CHL1    H6 2600   3.499   3.389   5.061  0.2781 -0.0157 -0.0279
   36CHL1    C7 2601   3.544   3.280   5.253  0.4453 -0.5343 -0.5389
   36CHL1   H7A 2602   3.474   3.341   5.314  0.2477 -1.1738 -0.1208
   36CHL1   H7B 2603   3.479   3.192   5.235  0.2702 -0.4199 -0.4690
   36CHL1    C8 2604   3.667   3.246   5.346  0.0187  0.3175 -0.6074
   36CHL1    H8 2605   3.716   3.341   5.377 -1.0252  0.6116  0.2086
   36CHL1   C14 2606   3.631   3.171   5.468 -0.5968  0.1665  0.3892
   36CHL1   H14 2607   3.582   3.074   5.446  0.3429 -0.3888  0.7230
   36CHL1   C15 2608   3.521   3.240   5.558  0.0586 -0.6468 -0.0359
   36CHL1  H15A 2609   3.545   3.349   5.560 -4.1858  0.4768 -0.4550
   36CHL1  H15B 2610   3.424   3.222   5.506  1.2727 -1.8378 -2.0381
   36CHL1   C16 2611   3.532   3.171   5.689 -0.1114  0.1441 -0.6685
   36CHL1  H16A 2612   3.567   3.250   5.759  2.5890 -0.5122 -1.1608
   36CHL1  H16B 2613   3.446   3.119   5.736  0.9565 -1.0505 -0.0047
   36CHL1   C17 2614   3.662   3.080   5.676  0.3251  0.4972 -0.6617
   36CHL1   H17 2615   3.620   2.983   5.643 -1.9169  0.1664  2.6890
   36CHL1   C13 2616   3.745   3.143   5.559  0.7993  0.4771  0.2932
   36CHL1   C18 2617   3.824   3.263   5.609  0.3168 -0.3036 -0.5129
   36CHL1  H18A 2618   3.884   3.318   5.534  0.7541  1.0572  0.8069
   36CHL1  H18B 2619   3.760   3.337   5.662 -2.3397 -1.5296 -1.7831
   36CHL1  H18C 2620   3.901   3.227   5.680  0.2623  1.6460  0.5790
   36CHL1   C12 2621   3.837   3.049   5.481 -0.6698  0.0431 -0.6140
   36CHL1  H12A 2622   3.928   3.013   5.533  0.4720  1.8114 -1.3058
   36CHL1  H12B 2623   3.776   2.962   5.447  0.6194 -1.6875  1.2332
   36CHL1   C11 2624   3.890   3.118   5.345  0.7369  0.1465 -0.5067
   36CHL1  H11A 2625   3.954   3.207   5.359  0.9067 -0.1438  0.7839
   36CHL1  H11B 2626   3.961   3.046   5.298 -0.3933 -0.1909 -1.7494
   36CHL1    C9 2627   3.768   3.161   5.259 -0.2071  0.7013 -0.2520
   36CHL1    H9 2628   3.702   3.077   5.227 -3.4590  2.6765  0.7819
   36CHL1   C10 2629   3.804   3.225   5.121 -0.0827  0.3259 -0.4660
   36CHL1   C19 2630   3.922   3.328   5.154  0.6388 -0.7443 -0.0697
   36CHL1  H19A 2631   3.936   3.389   5.063 -0.0347 -1.7421 -0.8646
   36CHL1  H19B 2632   3.888   3.389   5.241  0.0862 -0.5726 -0.4040
   36CHL1  H19C 2633   4.015   3.275   5.185  1.5210  1.1062  0.6147
   36CHL1    C1 2634   3.842   3.111   5.019 -0.1365 -0.3033  0.6509
   36CHL1   H1A 2635   3.939   3.070   5.056  0.2625  0.2248  0.2060
   36CHL1   H1B 2636   3.761   3.035   5.014 -0.7415  0.3483  0.4657
   36CHL1    C2 2637   3.865   3.157   4.873  0.1505  0.0668 -0.3919
   36CHL1   H2A 2638   3.882   3.069   4.808 -1.3897 -0.2605 -0.3997
   36CHL1   H2B 2639   3.957   3.220   4.870  0.4118 -0.2863  0.0465
   36CHL1   C20 2640   3.733   3.051   5.812  0.6536 -0.2895 -0.4508
   36CHL1   H20 2641   3.792   3.138   5.846 -0.3146 -0.1528  0.9459
   36CHL1   C21 2642   3.822   2.929   5.788 -0.7054  0.1546  0.1870
   36CHL1  H21A 2643   3.764   2.856   5.727  0.0331  0.9744 -1.5668
   36CHL1  H21B 2644   3.862   2.883   5.880  1.6689  0.4394 -0.6367
   36CHL1  H21C 2645   3.913   2.962   5.734  0.4019  0.4176  2.1586
   36CHL1   C22 2646   3.635   3.037   5.933  0.2429  0.4670  0.2527
   36CHL1  H22A 2647   3.559   3.119   5.929 -1.5805 -1.1896 -3.3957
   36CHL1  H22B 2648   3.577   2.943   5.925 -0.2569  0.7650  0.3130
   36CHL1   C23 2649   3.698   3.032   6.071 -0.1900 -0.0998 -0.6496
   36CHL1  H23A 2650   3.781   2.958   6.065 -1.0917 -1.1746 -0.1467
   36CHL1  H23B 2651   3.737   3.134   6.090 -0.1803 -0.3996  1.0458
   36CHL1   C24 2652   3.599   2.978   6.175  0.1701 -0.3218 -0.0293
   36CHL1  H24A 2653   3.515   3.051   6.170 -0.2630 -0.8805 -1.9602
   36CHL1  H24B 2654   3.563   2.887   6.122  0.3276  0.7191 -2.0624
   36CHL1   C25 2655   3.664   2.973   6.309 -0.2628  0.5039 -0.3853
   36CHL1   H25 2656   3.765   2.926   6.305 -0.1829  0.7611 -2.4351
   36CHL1   C26 2657   3.695   3.110   6.363 -0.0063 -0.6025 -0.8893
   36CHL1  H26A 2658   3.625   3.196   6.363 -0.8631 -1.2682  0.1253
   36CHL1  H26B 2659   3.715   3.098   6.472  1.8781  1.0783 -1.0044
   36CHL1  H26C 2660   3.795   3.131   6.320  0.7457 -0.8523  0.6461
   36CHL1   C27 2661   3.571   2.896   6.394 -0.0648 -0.5878  0.7157
   36CHL1  H27A 2662   3.607   2.892   6.499 -0.5549  1.0919  0.9725
   36CHL1  H27B 2663   3.470   2.940   6.383 -0.6458 -2.4195 -2.7503
   36CHL1  H27C 2664   3.557   2.793   6.354 -1.8506 -0.4051  0.7952
   37CHL1    C3 2665   4.897   0.598   4.486 -0.3900 -0.6302  0.2717
   37CHL1    H3 2666   4.848   0.500   4.463  0.5718 -1.6901  2.4995
   37CHL1    O3 2667   4.917   0.661   4.360  0.1260 -0.1574 -0.0455
   37CHL1   H3' 2668   4.952   0.749   4.378 -2.3776  1.3010 -1.7106
   37CHL1    C4 2669   4.788   0.677   4.568 -0.4811  0.2646 -0.3291
   37CHL1   H4A 2670   4.825   0.781   4.581 -1.1265  0.6220 -1.2498
   37CHL1   H4B 2671   4.692   0.682   4.512 -0.3109  1.6120 -0.5276
   37CHL1    C5 2672   4.776   0.621   4.710  0.1365  0.7295 -0.0204
   37CHL1    C6 2673   4.659   0.583   4.765 -0.4769 -0.1601 -0.3272
   37CHL1    H6 2674   4.566   0.603   4.709 -0.2749 -1.1506 -1.0393
   37CHL1    C7 2675   4.644   0.543   4.913  1.0157  0.4456  0.0816
   37CHL1   H7A 2676   4.553   0.598   4.944  1.6651  0.9808  1.1144
   37CHL1   H7B 2677   4.641   0.434   4.934  3.7335  0.0444 -1.2020
   37CHL1    C8 2678   4.755   0.606   4.995 -0.9714 -0.6715 -0.4605
   37CHL1    H8 2679   4.755   0.717   4.992  0.6589 -0.5839  0.9313
   37CHL1   C14 2680   4.748   0.554   5.140 -0.3102 -0.0491 -0.1419
   37CHL1   H14 2681   4.765   0.444   5.140 -3.9336 -0.7328  1.2865
   37CHL1   C15 2682   4.617   0.581   5.219  0.6123 -0.2816  0.6087
   37CHL1  H15A 2683   4.562   0.674   5.194  1.4465 -0.1374 -0.8560
   37CHL1  H15B 2684   4.550   0.495   5.202 -0.4147  0.5081  0.5813
   37CHL1   C16 2685   4.656   0.581   5.373 -0.4661 -0.0564  0.6014
   37CHL1  H16A 2686   4.645   0.679   5.425 -1.2421 -0.0635  0.4626
   37CHL1  H16B 2687   4.595   0.504   5.425 -1.1611 -0.4596 -0.7746
   37CHL1   C17 2688   4.810   0.539   5.377  0.4774 -0.9095  0.9603
   37CHL1   H17 2689   4.810   0.428   5.380  1.6310 -0.9490 -0.0103
   37CHL1   C13 2690   4.866   0.591   5.238 -0.1780 -0.7891  0.2364
   37CHL1   C18 2691   4.871   0.746   5.251 -0.0524 -0.2846 -0.3028
   37CHL1  H18A 2692   4.954   0.785   5.315  2.0697 -1.6887 -2.0694
   37CHL1  H18B 2693   4.866   0.795   5.152  0.9665  0.4133 -0.0352
   37CHL1  H18C 2694   4.782   0.782   5.307 -0.1229  0.3330 -0.7983
   37CHL1   C12 2695   4.997   0.531   5.181 -0.3339  0.2535 -0.1007
   37CHL1  H12A 2696   5.086   0.549   5.245 -0.7794 -0.0481  0.6193
   37CHL1  H12B 2697   4.986   0.420   5.181  0.8676  0.1091 -1.3252
   37CHL1   C11 2698   5.016   0.574   5.033 -0.3829  0.0339 -0.3446
   37CHL1  H11A 2699   5.048   0.680   5.042 -0.3039 -0.0543  0.4606
   37CHL1  H11B 2700   5.101   0.520   4.986 -0.2293  0.6178 -0.7514
   37CHL1    C9 2701   4.887   0.563   4.932 -0.8988  0.0222  0.6563
   37CHL1    H9 2702   4.873   0.453   4.928 -0.4596 -0.1290  2.2852
   37CHL1   C10 2703   4.906   0.615   4.788 -0.0726  0.1326  0.5041
   37CHL1   C19 2704   4.961   0.760   4.803  0.8326 -0.3291  0.0228
   37CHL1  H19A 2705   4.973   0.813   4.706  0.4172 -1.2819 -0.5589
   37CHL1  H19B 2706   4.890   0.818   4.867 -1.0639  0.8463 -2.9481
   37CHL1  H19C 2707   5.062   0.763   4.849  1.5427 -3.5606 -1.0748
   37CHL1    C1 2708   5.006   0.525   4.700 -0.1790 -0.7695 -0.0271
   37CHL1   H1A 2709   5.104   0.517   4.752  1.4487  2.2703 -2.3201
   37CHL1   H1B 2710   4.967   0.421   4.701 -2.0935 -0.0783  1.2403
   37CHL1    C2 2711   5.029   0.569   4.563 -0.9384 -0.3750  0.8491
   37CHL1   H2A 2712   5.081   0.501   4.493 -1.2906  0.9216 -0.7410
   37CHL1   H2B 2713   5.092   0.661   4.564  0.9578 -1.6043 -0.1817
   37CHL1   C20 2714   4.889   0.586   5.499  0.1027 -0.8556 -0.4943
   37CHL1   H20 2715   4.900   0.696   5.495  0.7678 -0.8975 -0.0414
   37CHL1   C21 2716   5.036   0.524   5.499 -0.3139 -0.1554 -0.4709
   37CHL1  H21A 2717   5.091   0.589   5.428  0.6339 -2.7186 -2.2356
   37CHL1  H21B 2718   5.035   0.418   5.468 -0.1773 -0.8946  1.8310
   37CHL1  H21C 2719   5.081   0.523   5.601  1.6326 -2.2867 -1.2790
   37CHL1   C22 2720   4.814   0.551   5.627  0.4283  0.2950 -0.4016
   37CHL1  H22A 2721   4.707   0.580   5.623  0.4761  0.4258 -0.7982
   37CHL1  H22B 2722   4.811   0.443   5.653  0.6345  0.4850  0.4564
   37CHL1   C23 2723   4.865   0.624   5.756 -0.1282  0.8206  0.2522
   37CHL1  H23A 2724   4.821   0.563   5.838  1.0712 -1.5150 -0.7590
   37CHL1  H23B 2725   4.976   0.619   5.761 -0.0406 -0.0496 -1.7186
   37CHL1   C24 2726   4.814   0.769   5.760 -0.1768  0.5052 -0.1364
   37CHL1  H24A 2727   4.850   0.832   5.675 -0.5825 -0.7991 -1.3140
   37CHL1  H24B 2728   4.704   0.778   5.749  0.0219  0.8598 -2.5695
   37CHL1   C25 2729   4.870   0.841   5.886 -0.2305  0.2947 -0.4243
   37CHL1   H25 2730   4.977   0.809   5.895 -0.8275 -1.2529  2.5407
   37CHL1   C26 2731   4.862   0.995   5.865 -0.8017 -0.0435 -0.8844
   37CHL1  H26A 2732   4.926   1.043   5.943  1.4320 -2.3913 -1.1317
   37CHL1  H26B 2733   4.907   1.005   5.764  0.4197 -2.3707 -0.6430
   37CHL1  H26C 2734   4.757   1.026   5.883 -0.4619 -0.4710  2.6304
   37CHL1   C27 2735   4.806   0.800   6.018 -0.1921  0.3232  0.1099
   37CHL1  H27A 2736   4.865   0.856   6.093  1.2675  3.4236 -3.0955
   37CHL1  H27B 2737   4.698   0.827   6.016 -0.4331 -0.4007 -3.6051
   37CHL1  H27C 2738   4.815   0.693   6.048  1.5365  0.5520  0.4560
   38CHL1    C3 2739   3.042   0.155   4.619  0.3400  0.1888  0.3818
   38CHL1    H3 2740   3.137   0.174   4.565 -0.8347  1.6661 -1.3058
   38CHL1    O3 2741   2.941   0.161   4.522 -0.0337 -0.0359 -0.0374
   38CHL1   H3' 2742   2.961   0.099   4.451  2.2130  0.6067 -0.0410
   38CHL1    C4 2743   3.050   0.017   4.682 -0.6388 -0.3326 -0.3322
   38CHL1   H4A 2744   2.954  -0.009   4.731  0.9581  1.7179  4.5888
   38CHL1   H4B 2745   3.063  -0.053   4.597  0.4327 -0.1353 -0.3428
   38CHL1    C5 2746   3.142   0.012   4.804  0.1380 -0.1568  0.9207
   38CHL1    C6 2747   3.244  -0.075   4.805  0.0187  0.1725 -0.1441
   38CHL1    H6 2748   3.256  -0.143   4.719  0.6078  0.4303 -0.2708
   38CHL1    C7 2749   3.333  -0.089   4.919 -0.7739 -0.4376  0.6880
   38CHL1   H7A 2750   3.359  -0.198   4.920  0.2982 -0.1964  0.6503
   38CHL1   H7B 2751   3.427  -0.031   4.906  0.0731 -1.8405  0.2893
   38CHL1    C8 2752   3.280  -0.023   5.047  0.1824  0.9335  0.2241
   38CHL1    H8 2753   3.188  -0.080   5.074  0.3592 -0.1251 -1.2867
   38CHL1   C14 2754   3.382  -0.030   5.150 -0.1898 -0.7827 -0.6613
   38CHL1   H14 2755   3.457   0.046   5.121 -1.9128  1.9388  1.5377
   38CHL1   C15 2756   3.440  -0.169   5.188 -0.1680 -0.2952 -0.0740
   38CHL1  H15A 2757   3.357  -0.243   5.197 -1.2981  1.1158  1.6659
   38CHL1  H15B 2758   3.504  -0.220   5.112 -0.2676 -3.1522  1.6114
   38CHL1   C16 2759   3.514  -0.147   5.324  0.5986  0.0405  0.0779
   38CHL1  H16A 2760   3.488  -0.237   5.385  0.2960 -1.0616 -1.6244
   38CHL1  H16B 2761   3.623  -0.129   5.308  0.4298 -0.0338 -1.2289
   38CHL1   C17 2762   3.446  -0.006   5.381 -0.4650  0.0852  0.1661
   38CHL1   H17 2763   3.516   0.077   5.359  0.1586 -0.5068 -0.0859
   38CHL1   C13 2764   3.320   0.017   5.289  0.3925  0.6083  0.3920
   38CHL1   C18 2765   3.202  -0.069   5.335 -0.5657 -0.6833 -0.9026
   38CHL1  H18A 2766   3.174  -0.049   5.441  0.9378 -1.9912 -0.2271
   38CHL1  H18B 2767   3.109  -0.058   5.274 -1.6024 -0.6790  0.6220
   38CHL1  H18C 2768   3.231  -0.176   5.341  0.2881 -0.4337 -0.4350
   38CHL1   C12 2769   3.276   0.164   5.273 -0.1362 -0.5503 -0.3781
   38CHL1  H12A 2770   3.232   0.192   5.371  3.0549 -0.9903  1.2791
   38CHL1  H12B 2771   3.368   0.226   5.274 -0.5859  0.1220  0.4078
   38CHL1   C11 2772   3.185   0.195   5.154  0.5140 -0.3587 -0.8759
   38CHL1  H11A 2773   3.083   0.158   5.180  0.4165 -0.4940 -1.4247
   38CHL1  H11B 2774   3.179   0.305   5.141 -0.9643 -0.4722 -1.4022
   38CHL1    C9 2775   3.222   0.121   5.026 -0.1557  0.5438  0.2918
   38CHL1    H9 2776   3.313   0.168   4.982  0.0986 -0.6120 -0.4548
   38CHL1   C10 2777   3.107   0.113   4.917  0.5090 -0.3541 -0.6534
   38CHL1   C19 2778   2.960   0.081   4.983  0.0197 -0.4773  0.1313
   38CHL1  H19A 2779   2.956  -0.021   5.029 -1.7621 -0.7461 -0.5226
   38CHL1  H19B 2780   2.940   0.168   5.049  0.0341 -0.4514  0.1006
   38CHL1  H19C 2781   2.888   0.083   4.898  1.2000  1.4060 -0.8715
   38CHL1    C1 2782   3.089   0.250   4.855  0.2779 -1.2484  0.4497
   38CHL1   H1A 2783   3.043   0.316   4.932 -0.0767 -0.4595 -0.4167
   38CHL1   H1B 2784   3.184   0.301   4.829  0.6813 -1.2092  1.9322
   38CHL1    C2 2785   3.003   0.256   4.726  0.2998 -0.3734 -0.5452
   38CHL1   H2A 2786   3.002   0.359   4.683 -0.1478  0.1120  0.6001
   38CHL1   H2B 2787   2.896   0.249   4.757 -0.0979  2.5018 -1.0124
   38CHL1   C20 2788   3.426  -0.017   5.527  0.0114 -0.3617 -0.0355
   38CHL1   H20 2789   3.359  -0.104   5.542 -1.4030  1.0509  2.8002
   38CHL1   C21 2790   3.367   0.103   5.596 -0.3666  0.7127 -0.3047
   38CHL1  H21A 2791   3.272   0.141   5.553 -1.4005 -1.0937  0.3305
   38CHL1  H21B 2792   3.434   0.191   5.611 -0.2923  0.4206  1.2183
   38CHL1  H21C 2793   3.342   0.067   5.697  1.1390 -0.5994 -0.3475
   38CHL1   C22 2794   3.565  -0.047   5.599  0.4246 -0.7320 -0.5277
   38CHL1  H22A 2795   3.599  -0.145   5.560  0.3811 -0.2209 -1.8878
   38CHL1  H22B 2796   3.637   0.035   5.577 -0.8921  0.7646  0.4567
   38CHL1   C23 2797   3.563  -0.069   5.755  0.1648 -0.4010  1.0197
   38CHL1  H23A 2798   3.549   0.033   5.796  0.7897 -0.7259  2.0680
   38CHL1  H23B 2799   3.481  -0.138   5.785 -0.4337  0.1246  0.6159
   38CHL1   C24 2800   3.687  -0.142   5.809  0.1849  0.1733 -0.4241
   38CHL1  H24A 2801   3.687  -0.249   5.780 -0.7723 -0.3913  1.5465
   38CHL1  H24B 2802   3.783  -0.098   5.775  0.0597 -0.5822 -1.8613
   38CHL1   C25 2803   3.697  -0.139   5.969  0.5161 -0.1869  0.6853
   38CHL1   H25 2804   3.733  -0.040   6.005 -0.1614 -0.9180  3.5849
   38CHL1   C26 2805   3.574  -0.169   6.048  0.4323 -0.2539  0.3279
   38CHL1  H26A 2806   3.588  -0.189   6.156 -0.6724 -2.1020  0.1570
   38CHL1  H26B 2807   3.504  -0.084   6.032  0.4194 -0.4548 -0.7409
   38CHL1  H26C 2808   3.518  -0.246   5.991  0.8887  1.5477 -2.7934
   38CHL1   C27 2809   3.807  -0.231   6.003  0.4366  0.5566 -0.2337
   38CHL1  H27A 2810   3.800  -0.238   6.113 -3.0158 -3.1192 -0.4375
   38CHL1  H27B 2811   3.771  -0.334   5.983 -4.2020  2.2288 -1.8936
   38CHL1  H27C 2812   3.906  -0.208   5.957  1.0871  0.0059  0.8448
   39CHL1    C3 2813   4.602   1.060   4.396  0.3275  0.2235 -0.4219
   39CHL1    H3 2814   4.518   0.995   4.427  0.3864  1.5240  2.8071
   39CHL1    O3 2815   4.610   1.060   4.252 -0.3567 -0.0477 -0.6243
   39CHL1   H3' 2816   4.689   1.110   4.231 -1.2258  2.4202  1.5187
   39CHL1    C4 2817   4.552   1.202   4.441  0.0844  0.5113 -0.1581
   39CHL1   H4A 2818   4.599   1.285   4.384 -0.9757  1.5526  0.4389
   39CHL1   H4B 2819   4.446   1.204   4.410  0.8087  0.6555 -2.8664
   39CHL1    C5 2820   4.549   1.229   4.590 -0.0723  0.1997  0.5907
   39CHL1    C6 2821   4.436   1.269   4.654 -0.5948  0.1323 -0.7242
   39CHL1    H6 2822   4.343   1.273   4.595 -0.6702 -0.7345 -0.6760
   39CHL1    C7 2823   4.434   1.310   4.801  0.4500  0.0184 -0.4602
   39CHL1   H7A 2824   4.382   1.407   4.813 -0.9195 -0.7427  0.0295
   39CHL1   H7B 2825   4.365   1.235   4.846 -1.3987  0.5700 -2.2355
   39CHL1    C8 2826   4.572   1.312   4.864  0.2872  0.8444  0.3386
   39CHL1    H8 2827   4.614   1.411   4.836 -0.4825  1.4516  1.2524
   39CHL1   C14 2828   4.559   1.296   5.014  0.2489  0.2161  0.7141
   39CHL1   H14 2829   4.526   1.191   5.034  1.6570 -0.0797  1.7071
   39CHL1   C15 2830   4.460   1.383   5.079  0.6300  0.0692 -0.0190
   39CHL1  H15A 2831   4.464   1.480   5.024  1.1900 -1.2934 -2.5749
   39CHL1  H15B 2832   4.356   1.344   5.077 -0.1343  1.9775  0.6928
   39CHL1   C16 2833   4.502   1.394   5.232 -0.0783 -0.3246  0.3851
   39CHL1  H16A 2834   4.522   1.502   5.245  1.7038 -0.7630  1.6102
   39CHL1  H16B 2835   4.421   1.347   5.292 -2.6633  2.3553 -0.7823
   39CHL1   C17 2836   4.632   1.317   5.238  0.3371 -0.2857  0.3584
   39CHL1   H17 2837   4.591   1.215   5.251  2.0025 -1.0067  0.1780
   39CHL1   C13 2838   4.685   1.312   5.094 -0.6894  0.3493  0.4634
   39CHL1   C18 2839   4.755   1.453   5.072  0.2918 -0.4474  0.2393
   39CHL1  H18A 2840   4.767   1.479   4.964 -0.7343  0.4947  0.3312
   39CHL1  H18B 2841   4.694   1.536   5.113  0.2062 -0.3723 -0.0342
   39CHL1  H18C 2842   4.854   1.452   5.122  1.1985  0.3012 -1.4471
   39CHL1   C12 2843   4.772   1.199   5.052 -0.8072  0.0668  0.3234
   39CHL1  H12A 2844   4.874   1.199   5.098 -0.2147  0.8292 -0.9345
   39CHL1  H12B 2845   4.719   1.103   5.064  1.3302 -1.1942  0.1953
   39CHL1   C11 2846   4.796   1.197   4.894 -0.2957 -0.1655  0.1308
   39CHL1  H11A 2847   4.852   1.287   4.861 -0.5374 -0.2280 -0.4574
   39CHL1  H11B 2848   4.846   1.103   4.861  1.3109  1.3364 -1.9758
   39CHL1    C9 2849   4.667   1.200   4.817 -0.8374 -0.0242  0.0959
   39CHL1    H9 2850   4.619   1.104   4.845 -2.3046 -0.0226 -2.1839
   39CHL1   C10 2851   4.687   1.198   4.655  0.1872  0.1463  0.6635
   39CHL1   C19 2852   4.794   1.310   4.618  0.4536  0.2298  0.8193
   39CHL1  H19A 2853   4.898   1.282   4.645  0.8739 -2.3531 -2.8193
   39CHL1  H19B 2854   4.795   1.318   4.507  0.2909  2.6791  0.9349
   39CHL1  H19C 2855   4.764   1.407   4.664  0.2031 -0.0519  1.2622
   39CHL1    C1 2856   4.744   1.053   4.604 -0.7884  0.2384 -0.2054
   39CHL1   H1A 2857   4.851   1.053   4.637 -0.6187 -1.0543 -0.6979
   39CHL1   H1B 2858   4.697   0.968   4.657 -0.3685  0.1804  0.0868
   39CHL1    C2 2859   4.735   1.025   4.451  0.6642  0.0970  0.0408
   39CHL1   H2A 2860   4.752   0.918   4.427  2.5642  0.3062  0.2322
   39CHL1   H2B 2861   4.818   1.084   4.407  0.1902 -0.6479 -1.9451
   39CHL1   C20 2862   4.727   1.355   5.356  0.2942  0.6286  0.0335
   39CHL1   H20 2863   4.802   1.434   5.334  0.3168  0.9225  1.1204
   39CHL1   C21 2864   4.810   1.226   5.394 -0.3850 -0.0296  0.1499
   39CHL1  H21A 2865   4.846   1.171   5.304 -0.4247 -1.3292  0.8985
   39CHL1  H21B 2866   4.749   1.153   5.450  0.9859 -2.4724 -1.3429
   39CHL1  H21C 2867   4.901   1.243   5.456  1.0139 -3.2059 -0.7943
   39CHL1   C22 2868   4.657   1.405   5.479  1.0055  0.3133 -0.4955
   39CHL1  H22A 2869   4.638   1.514   5.472 -0.2295  0.4244  2.9152
   39CHL1  H22B 2870   4.558   1.356   5.487  1.8427 -1.2204  1.1538
   39CHL1   C23 2871   4.712   1.386   5.628  0.0424 -0.6880  0.5450
   39CHL1  H23A 2872   4.721   1.277   5.645  3.0737 -0.4173  1.2580
   39CHL1  H23B 2873   4.813   1.433   5.628  1.0536 -2.6769  2.3043
   39CHL1   C24 2874   4.630   1.475   5.728  0.6976 -0.5134  0.6245
   39CHL1  H24A 2875   4.591   1.563   5.673 -0.0656 -0.4062  1.3104
   39CHL1  H24B 2876   4.545   1.408   5.753  2.2412 -2.3974  1.1577
   39CHL1   C25 2877   4.715   1.506   5.859 -0.1845 -0.1394  0.5932
   39CHL1   H25 2878   4.800   1.568   5.823 -2.1200  1.3926 -1.6686
   39CHL1   C26 2879   4.630   1.562   5.967  0.1535 -0.4080 -0.2361
   39CHL1  H26A 2880   4.589   1.657   5.927  0.3227 -1.2797 -2.6690
   39CHL1  H26B 2881   4.545   1.493   5.991 -1.2809  1.2871 -0.2591
   39CHL1  H26C 2882   4.692   1.581   6.057  0.7447 -1.3454 -0.4348
   39CHL1   C27 2883   4.776   1.377   5.910 -0.1245  0.1738 -0.1253
   39CHL1  H27A 2884   4.702   1.298   5.934 -0.6984  0.7838  0.1478
   39CHL1  H27B 2885   4.858   1.333   5.848  0.7841  1.6026  0.0182
   39CHL1  H27C 2886   4.823   1.408   6.006 -1.1018  1.6825 -0.1103
   40CHL1    C3 2887   1.717   3.500   4.889  0.4107 -0.3739  1.0364
   40CHL1    H3 2888   1.652   3.425   4.939 -0.4456  0.1891  0.7889
   40CHL1    O3 2889   1.759   3.452   4.764 -0.5537  0.3282 -1.1504
   40CHL1   H3' 2890   1.815   3.525   4.739  1.3266 -0.4666  0.4948
   40CHL1    C4 2891   1.641   3.629   4.865 -0.3676 -0.7038 -0.2001
   40CHL1   H4A 2892   1.700   3.700   4.803  0.3968  1.5144  2.8377
   40CHL1   H4B 2893   1.545   3.609   4.812 -1.3272  0.5280  1.0157
   40CHL1    C5 2894   1.619   3.707   4.994  0.3846  0.6818 -0.1500
   40CHL1    C6 2895   1.500   3.759   5.024 -0.1095 -0.2130  0.2288
   40CHL1    H6 2896   1.416   3.759   4.954 -0.8219 -1.6815  1.0195
   40CHL1    C7 2897   1.463   3.824   5.155 -0.9724  0.0508 -0.3490
   40CHL1   H7A 2898   1.417   3.920   5.123 -0.0983  0.8481  0.6960
   40CHL1   H7B 2899   1.390   3.768   5.217  3.0369 -3.3773  1.7924
   40CHL1    C8 2900   1.578   3.862   5.250  0.2510 -0.2448 -0.0864
   40CHL1    H8 2901   1.614   3.960   5.212 -1.4761  0.9435  1.1747
   40CHL1   C14 2902   1.540   3.871   5.397  0.1646 -0.1901  1.0861
   40CHL1   H14 2903   1.519   3.770   5.438  1.4100 -1.0451 -0.2965
   40CHL1   C15 2904   1.414   3.950   5.422 -0.2446 -0.2611 -0.3393
   40CHL1  H15A 2905   1.425   4.045   5.366  2.0043 -0.4695 -0.3571
   40CHL1  H15B 2906   1.319   3.901   5.392  0.1246 -0.6955 -0.8069
   40CHL1   C16 2907   1.425   3.998   5.575 -0.4810  0.6258  0.3497
   40CHL1  H16A 2908   1.420   4.108   5.588 -1.6818  0.7869 -1.1482
   40CHL1  H16B 2909   1.349   3.946   5.637  1.0524 -1.8236  0.3499
   40CHL1   C17 2910   1.564   3.953   5.624 -0.2767  0.0780  1.4866
   40CHL1   H17 2911   1.548   3.849   5.659  1.3180 -1.4170 -1.7317
   40CHL1   C13 2912   1.643   3.935   5.484  0.2467  0.2591 -0.9742
   40CHL1   C18 2913   1.687   4.079   5.448  0.6853 -0.1632  0.1004
   40CHL1  H18A 2914   1.785   4.108   5.491  0.2535  0.7248  0.5277
   40CHL1  H18B 2915   1.706   4.081   5.339 -0.2116  0.0923 -0.0574
   40CHL1  H18C 2916   1.610   4.152   5.483 -0.2441 -1.9204  1.9321
   40CHL1   C12 2917   1.762   3.840   5.480 -0.6703  0.5161  0.0413
   40CHL1  H12A 2918   1.853   3.886   5.525 -0.3925 -0.8955  0.9656
   40CHL1  H12B 2919   1.746   3.748   5.540  1.7607  0.2597  0.4163
   40CHL1   C11 2920   1.807   3.801   5.340  0.9352 -0.4173  0.0522
   40CHL1  H11A 2921   1.854   3.891   5.296 -2.6454  1.9614  0.6632
   40CHL1  H11B 2922   1.885   3.722   5.344  0.7308 -0.6654 -0.6201
   40CHL1    C9 2923   1.694   3.756   5.239  0.0423 -0.5356  0.3793
   40CHL1    H9 2924   1.631   3.674   5.278 -0.9346 -0.6107 -1.2487
   40CHL1   C10 2925   1.739   3.714   5.097  0.4926 -0.4160  0.3308
   40CHL1   C19 2926   1.837   3.826   5.043 -0.4467  0.3537  0.2093
   40CHL1  H19A 2927   1.847   3.820   4.932 -0.8340  2.9223 -0.0324
   40CHL1  H19B 2928   1.798   3.927   5.065 -1.4979  0.3237 -1.3574
   40CHL1  H19C 2929   1.934   3.816   5.096 -0.1604 -0.6322 -0.4658
   40CHL1    C1 2930   1.812   3.578   5.107  0.4694  0.0802 -0.4612
   40CHL1   H1A 2931   1.904   3.594   5.167 -0.0706  0.9582  0.1386
   40CHL1   H1B 2932   1.746   3.508   5.162  2.0424 -1.5980 -0.5746
   40CHL1    C2 2933   1.842   3.513   4.974  0.4945  0.1410  0.4007
   40CHL1   H2A 2934   1.893   3.416   4.996  0.2800 -0.6020 -2.0842
   40CHL1   H2B 2935   1.906   3.572   4.905  0.2309 -2.0200 -1.8385
   40CHL1   C20 2936   1.622   4.040   5.742  0.4457 -0.3779  0.1897
   40CHL1   H20 2937   1.618   4.147   5.711 -1.1338  0.0485  1.7034
   40CHL1   C21 2938   1.766   4.001   5.784 -0.3209 -0.5827  0.2903
   40CHL1  H21A 2939   1.780   4.044   5.885 -3.4363 -0.9982  0.9970
   40CHL1  H21B 2940   1.834   4.037   5.705 -2.9902 -0.4532 -2.1187
   40CHL1  H21C 2941   1.764   3.891   5.799  0.6494 -0.5419  0.7812
   40CHL1   C22 2942   1.518   4.043   5.863 -0.4278  0.0134 -0.0740
   40CHL1  H22A 2943   1.414   4.054   5.825 -0.1868  0.0526 -0.7183
   40CHL1  H22B 2944   1.525   3.948   5.920  1.8145  0.1311 -0.0689
   40CHL1   C23 2945   1.541   4.155   5.968 -0.0936  0.4685  0.2873
   40CHL1  H23A 2946   1.466   4.147   6.050  0.8102  1.2336  1.2118
   40CHL1  H23B 2947   1.632   4.138   6.028  1.7793  2.4267 -1.8286
   40CHL1   C24 2948   1.533   4.299   5.920  0.1776 -0.2009 -1.1664
   40CHL1  H24A 2949   1.610   4.323   5.844  1.4998  0.6438  0.3699
   40CHL1  H24B 2950   1.432   4.302   5.873 -0.0683  0.8877 -0.6060
   40CHL1   C25 2951   1.534   4.400   6.037 -0.4335 -0.1207  0.3359
   40CHL1   H25 2952   1.553   4.500   5.992  0.1424 -0.4861 -0.2479
   40CHL1   C26 2953   1.389   4.405   6.084  0.2117  0.5889  0.1552
   40CHL1  H26A 2954   1.329   4.431   5.994 -0.3727  1.1892  0.7120
   40CHL1  H26B 2955   1.360   4.305   6.125  1.1998  1.4558  3.1865
   40CHL1  H26C 2956   1.345   4.463   6.168  2.6542  2.8830 -0.0474
   40CHL1   C27 2957   1.638   4.382   6.147  0.3550  0.6275 -0.4073
   40CHL1  H27A 2958   1.632   4.474   6.208  1.4605  1.6404 -1.7928
   40CHL1  H27B 2959   1.612   4.295   6.212  1.1086 -0.0399 -0.9894
   40CHL1  H27C 2960   1.745   4.371   6.120  1.0829 -1.1443  2.6345
   41CHL1    C3 2961   5.535   0.360   7.602  0.0358  0.8300  0.2570
   41CHL1    H3 2962   5.511   0.264   7.551 -0.9188  0.2411  1.7508
   41CHL1    O3 2963   5.511   0.357   7.739  0.2295  0.0694 -0.5370
   41CHL1   H3' 2964   5.597   0.381   7.774 -0.9602  1.0865  1.8629
   41CHL1    C4 2965   5.680   0.396   7.578 -0.4307 -0.1060  0.3992
   41CHL1   H4A 2966   5.705   0.498   7.613 -0.6869 -0.4267  1.5760
   41CHL1   H4B 2967   5.742   0.321   7.632  1.2652 -0.0008 -1.3175
   41CHL1    C5 2968   5.707   0.405   7.428 -0.0440  0.0969  0.2663
   41CHL1    C6 2969   5.797   0.328   7.366  0.0891 -0.8819 -0.0847
   41CHL1    H6 2970   5.867   0.271   7.427  1.0864  0.6809  0.2953
   41CHL1    C7 2971   5.826   0.332   7.218 -0.6175 -0.8963 -0.1962
   41CHL1   H7A 2972   5.930   0.328   7.178 -1.3908 -1.8891 -2.2266
   41CHL1   H7B 2973   5.789   0.242   7.165  0.3556 -0.4647 -1.6665
   41CHL1    C8 2974   5.773   0.464   7.155 -0.6884 -1.0760 -0.4996
   41CHL1    H8 2975   5.839   0.551   7.174 -1.7336  0.1916 -2.3259
   41CHL1   C14 2976   5.772   0.442   7.001 -0.4216 -0.6492  0.4853
   41CHL1   H14 2977   5.718   0.347   6.979  1.5798 -1.8281  0.3449
   41CHL1   C15 2978   5.910   0.435   6.942  0.4077  0.3544  0.6936
   41CHL1  H15A 2979   5.980   0.513   6.978  0.6788 -0.4732  2.0004
   41CHL1  H15B 2980   5.957   0.336   6.958 -2.8958 -1.7133 -1.0585
   41CHL1   C16 2981   5.883   0.450   6.791  0.3644 -0.4897  0.0159
   41CHL1  H16A 2982   5.934   0.546   6.768  0.3825 -0.7263 -0.9954
   41CHL1  H16B 2983   5.914   0.375   6.715 -2.3082  0.8460 -2.6130
   41CHL1   C17 2984   5.737   0.497   6.781  1.0133 -0.1818  0.6281
   41CHL1   H17 2985   5.675   0.406   6.764  0.2603  0.4905 -0.3465
   41CHL1   C13 2986   5.700   0.550   6.926  0.1119 -0.4447 -0.0535
   41CHL1   C18 2987   5.769   0.692   6.946 -0.4981 -0.3522 -0.4520
   41CHL1  H18A 2988   5.712   0.768   6.888 -1.2494 -0.1776  0.4869
   41CHL1  H18B 2989   5.786   0.720   7.052 -1.8098 -2.5120  0.4036
   41CHL1  H18C 2990   5.867   0.691   6.893 -0.6389  0.6761 -0.7630
   41CHL1   C12 2991   5.548   0.555   6.953 -0.1003 -0.1586  0.5470
   41CHL1  H12A 2992   5.507   0.640   6.895 -0.2656 -1.4778 -1.3887
   41CHL1  H12B 2993   5.509   0.456   6.921 -0.3720  0.3144 -0.6323
   41CHL1   C11 2994   5.540   0.581   7.103 -0.5389 -0.1505 -0.6770
   41CHL1  H11A 2995   5.577   0.685   7.119  0.0724 -0.5753  0.8282
   41CHL1  H11B 2996   5.433   0.588   7.130 -0.2180  0.4139  0.5130
   41CHL1    C9 2997   5.621   0.479   7.198 -0.2028  0.3223 -0.1754
   41CHL1    H9 2998   5.568   0.386   7.167  0.3096  0.1846 -0.6598
   41CHL1   C10 2999   5.611   0.502   7.353  0.6892 -0.0382 -0.1247
   41CHL1   C19 3000   5.638   0.650   7.382  0.5746  0.7696 -0.2959
   41CHL1  H19A 3001   5.589   0.714   7.305 -1.5971 -0.4777 -0.0218
   41CHL1  H19B 3002   5.603   0.679   7.483 -1.1793 -0.1576 -0.6088
   41CHL1  H19C 3003   5.742   0.686   7.366  0.3428  0.6001 -2.5123
   41CHL1    C1 3004   5.457   0.467   7.393 -0.9126  0.3006  0.0437
   41CHL1   H1A 3005   5.388   0.542   7.350 -2.3939 -0.8356  0.3761
   41CHL1   H1B 3006   5.439   0.364   7.356  1.3527 -0.4418  0.8241
   41CHL1    C2 3007   5.437   0.470   7.544  0.0175 -0.7005  0.1408
   41CHL1   H2A 3008   5.331   0.458   7.577 -0.3226 -1.0637 -1.0486
   41CHL1   H2B 3009   5.473   0.562   7.595 -0.3340 -0.7430  0.4713
   41CHL1   C20 3010   5.704   0.594   6.663 -0.3099 -0.3939  0.4801
   41CHL1   H20 3011   5.707   0.693   6.714 -1.7529 -1.0211  1.8757
   41CHL1   C21 3012   5.560   0.570   6.609  0.2921 -0.4994 -0.3222
   41CHL1  H21A 3013   5.539   0.654   6.539  1.2419 -0.2447 -0.3136
   41CHL1  H21B 3014   5.485   0.569   6.691  1.5637 -0.8502  0.8713
   41CHL1  H21C 3015   5.552   0.473   6.556 -1.9111 -1.0991  0.9784
   41CHL1   C22 3016   5.798   0.583   6.532  0.4019  0.3926 -0.1294
   41CHL1  H22A 3017   5.771   0.668   6.466  0.2188  0.6028  0.2145
   41CHL1  H22B 3018   5.901   0.609   6.562  0.4834 -0.9094  0.8029
   41CHL1   C23 3019   5.807   0.450   6.452 -0.3657 -0.5553 -0.7983
   41CHL1  H23A 3020   5.843   0.366   6.515  0.1701 -0.8563 -1.4949
   41CHL1  H23B 3021   5.709   0.428   6.404 -1.6757 -0.0525  1.5287
   41CHL1   C24 3022   5.911   0.465   6.334 -0.4943 -0.6546  0.3980
   41CHL1  H24A 3023   5.914   0.362   6.292 -0.8598 -0.9530  1.0934
   41CHL1  H24B 3024   5.852   0.532   6.267 -0.2807 -1.2722 -0.4185
   41CHL1   C25 3025   6.046   0.520   6.365  0.3304 -0.8590 -0.2970
   41CHL1   H25 3026   6.031   0.623   6.403  0.4254 -0.5341 -1.1109
   41CHL1   C26 3027   6.116   0.443   6.478 -0.4343 -0.8912 -0.2650
   41CHL1  H26A 3028   6.082   0.467   6.581 -0.7454 -0.3987 -0.4765
   41CHL1  H26B 3029   6.110   0.334   6.463  2.0159 -1.2688  1.0505
   41CHL1  H26C 3030   6.223   0.473   6.473 -0.8189  1.0612  1.5587
   41CHL1   C27 3031   6.131   0.531   6.228  0.3587 -0.1472 -0.7624
   41CHL1  H27A 3032   6.176   0.432   6.203 -1.1304 -0.9132 -0.5511
   41CHL1  H27B 3033   6.052   0.559   6.155 -1.0971 -1.5732  0.1781
   41CHL1  H27C 3034   6.211   0.607   6.235 -0.5634  0.7710  0.1492
   42CHL1    C3 3035   6.018   1.859   4.080 -0.2757 -0.0390  0.3938
   42CHL1    H3 3036   5.965   1.953   4.106 -0.3759  0.1852 -0.5895
   42CHL1    O3 3037   6.016   1.849   3.942  1.0302 -0.5147  0.4552
   42CHL1   H3' 3038   5.974   1.769   3.911 -0.2965  1.8004 -4.7162
   42CHL1    C4 3039   6.165   1.857   4.114 -0.2837  0.5197  0.1443
   42CHL1   H4A 3040   6.215   1.766   4.076 -4.1738 -1.3792 -0.8738
   42CHL1   H4B 3041   6.218   1.938   4.060  0.9212 -2.0158 -2.8157
   42CHL1    C5 3042   6.186   1.860   4.260  0.2483  0.0269 -0.1433
   42CHL1    C6 3043   6.262   1.958   4.315  0.1896  0.3132  0.1599
   42CHL1    H6 3044   6.298   2.035   4.245 -0.7585 -0.6726 -1.4994
   42CHL1    C7 3045   6.302   1.959   4.459  0.0890 -0.6887  0.1729
   42CHL1   H7A 3046   6.412   1.967   4.471  0.2384 -1.5582 -0.5529
   42CHL1   H7B 3047   6.251   2.045   4.508 -1.3748 -0.7176 -1.2303
   42CHL1    C8 3048   6.271   1.833   4.544 -0.5289 -0.1827  1.1158
   42CHL1    H8 3049   6.341   1.758   4.502  0.3705  1.7204 -0.9942
   42CHL1   C14 3050   6.288   1.847   4.688 -0.0991 -0.3917 -0.1869
   42CHL1   H14 3051   6.204   1.909   4.729  2.2295  0.2216  4.2280
   42CHL1   C15 3052   6.410   1.915   4.734 -1.0950 -0.0625  0.1367
   42CHL1  H15A 3053   6.504   1.885   4.684 -1.4453  0.5963 -0.9565
   42CHL1  H15B 3054   6.398   2.025   4.727  0.4580  0.0091 -2.5945
   42CHL1   C16 3055   6.414   1.885   4.892 -0.5078  0.3150 -0.4835
   42CHL1  H16A 3056   6.511   1.837   4.918 -0.9893 -0.6723 -0.4761
   42CHL1  H16B 3057   6.399   1.970   4.962  2.8117 -0.4754  1.3843
   42CHL1   C17 3058   6.302   1.773   4.908  0.9107 -0.2411  0.4744
   42CHL1   H17 3059   6.216   1.837   4.938  1.2590  1.2848 -1.5535
   42CHL1   C13 3060   6.271   1.718   4.765  0.8190  0.3518  1.1131
   42CHL1   C18 3061   6.370   1.612   4.719 -0.3919 -0.7081  0.0706
   42CHL1  H18A 3062   6.475   1.647   4.711 -0.0679 -1.9932 -2.2282
   42CHL1  H18B 3063   6.375   1.516   4.775  3.3766 -1.3751 -1.1245
   42CHL1  H18C 3064   6.345   1.582   4.615  1.2707  0.2523 -0.6523
   42CHL1   C12 3065   6.126   1.672   4.742 -0.2383  0.2547  0.2303
   42CHL1  H12A 3066   6.118   1.572   4.790  0.1582  0.8956  1.6957
   42CHL1  H12B 3067   6.057   1.738   4.799 -0.7728 -0.8996  0.9364
   42CHL1   C11 3068   6.086   1.659   4.591  0.1839  0.4581 -0.8090
   42CHL1  H11A 3069   6.117   1.557   4.563 -0.5558 -0.9502  2.8908
   42CHL1  H11B 3070   5.976   1.651   4.579  0.2403  0.0645 -1.0480
   42CHL1    C9 3071   6.129   1.785   4.507  0.1928  0.1090 -0.5374
   42CHL1    H9 3072   6.059   1.868   4.533 -0.8883 -0.9810  0.1848
   42CHL1   C10 3073   6.110   1.761   4.342  0.4438  0.7073 -0.7744
   42CHL1   C19 3074   6.164   1.616   4.312 -0.1738 -0.0620  0.0056
   42CHL1  H19A 3075   6.265   1.608   4.358  1.1302 -3.6734 -2.9374
   42CHL1  H19B 3076   6.098   1.539   4.359 -2.1110  0.1066 -2.2366
   42CHL1  H19C 3077   6.168   1.592   4.204 -0.8948  1.2972 -0.3409
   42CHL1    C1 3078   5.958   1.750   4.303  0.0779  0.8181  0.0056
   42CHL1   H1A 3079   5.904   1.660   4.339  0.9489 -0.2638 -1.3319
   42CHL1   H1B 3080   5.913   1.839   4.353  2.0114  1.2987  0.9777
   42CHL1    C2 3081   5.937   1.745   4.153 -0.3676 -0.1507  0.5274
   42CHL1   H2A 3082   5.830   1.750   4.124 -0.2913  0.8868  0.3737
   42CHL1   H2B 3083   5.977   1.648   4.117 -1.9803 -0.1598 -1.4246
   42CHL1   C20 3084   6.335   1.682   5.033 -0.1805  0.2735  0.6761
   42CHL1   H20 3085   6.415   1.610   5.009  1.1309  0.8735  2.9411
   42CHL1   C21 3086   6.217   1.594   5.070  0.2114 -0.6729  0.7974
   42CHL1  H21A 3087   6.194   1.538   4.976  1.5298  1.1908 -0.7251
   42CHL1  H21B 3088   6.124   1.651   5.088  0.2123  0.2149 -1.5606
   42CHL1  H21C 3089   6.228   1.517   5.149 -3.0286 -2.5798 -0.3959
   42CHL1   C22 3090   6.387   1.761   5.159  0.9035  0.8748  0.3402
   42CHL1  H22A 3091   6.494   1.786   5.144  1.8487 -3.7590 -2.4531
   42CHL1  H22B 3092   6.323   1.851   5.174 -0.4547  0.1024 -0.5993
   42CHL1   C23 3093   6.380   1.686   5.295 -0.7094  0.2791  0.1113
   42CHL1  H23A 3094   6.276   1.658   5.322 -0.3735 -0.8831  0.2479
   42CHL1  H23B 3095   6.444   1.597   5.282  3.5060  2.9051  0.8965
   42CHL1   C24 3096   6.430   1.770   5.413  0.1637  0.5693 -0.1824
   42CHL1  H24A 3097   6.527   1.822   5.397 -0.0515  1.4162  1.1193
   42CHL1  H24B 3098   6.356   1.850   5.433 -2.8779 -2.1268  0.3012
   42CHL1   C25 3099   6.438   1.693   5.545  0.5808  0.3621 -0.3878
   42CHL1   H25 3100   6.340   1.648   5.574  0.6643  0.5973  0.2710
   42CHL1   C26 3101   6.542   1.583   5.541  0.3345  0.0393  0.0600
   42CHL1  H26A 3102   6.527   1.498   5.471  1.1395 -0.4651  0.4798
   42CHL1  H26B 3103   6.638   1.628   5.508  0.0455 -0.1621 -1.0827
   42CHL1  H26C 3104   6.564   1.542   5.642  1.5217 -1.8692 -0.9028
   42CHL1   C27 3105   6.475   1.792   5.662  0.1520 -0.1656  1.1656
   42CHL1  H27A 3106   6.418   1.887   5.658  0.7795  0.2048  0.9203
   42CHL1  H27B 3107   6.476   1.730   5.754 -1.0970 -1.6953  0.2039
   42CHL1  H27C 3108   6.579   1.828   5.645 -0.2921  0.4474 -0.4583
   43CHL1    C3 3109   1.847   2.920   4.846  0.1071 -0.1192  0.1244
   43CHL1    H3 3110   1.901   2.824   4.847 -0.2080 -0.2968  0.8122
   43CHL1    O3 3111   1.843   2.949   4.708 -0.2341 -0.0548 -0.5358
   43CHL1   H3' 3112   1.807   3.038   4.701  0.0849  0.0304 -1.1884
   43CHL1    C4 3113   1.708   2.912   4.908  0.0140  0.6259 -0.2742
   43CHL1   H4A 3114   1.671   3.016   4.893 -0.7531  0.4464  0.3599
   43CHL1   H4B 3115   1.643   2.841   4.852  2.9092  0.6272 -4.1052
   43CHL1    C5 3116   1.716   2.884   5.057 -0.3646  0.3188  0.4491
   43CHL1    C6 3117   1.654   2.771   5.108 -0.3063 -0.5835 -0.3726
   43CHL1    H6 3118   1.601   2.699   5.044  3.4539 -3.1520 -0.8628
   43CHL1    C7 3119   1.665   2.743   5.255  0.2162  0.2039 -0.2343
   43CHL1   H7A 3120   1.587   2.683   5.306  1.2345 -1.6079 -0.7466
   43CHL1   H7B 3121   1.744   2.665   5.258  0.2356  0.1427 -1.6491
   43CHL1    C8 3122   1.725   2.862   5.350  0.4049 -0.2237  0.2260
   43CHL1    H8 3123   1.643   2.936   5.363  0.0334 -0.9039  2.1501
   43CHL1   C14 3124   1.769   2.802   5.478 -0.3360 -0.0286  0.1584
   43CHL1   H14 3125   1.860   2.739   5.464  0.4720  1.2430 -0.5556
   43CHL1   C15 3126   1.671   2.706   5.548  0.1397  0.4255 -0.0983
   43CHL1  H15A 3127   1.565   2.738   5.535 -0.3308 -0.6246  0.9379
   43CHL1  H15B 3128   1.669   2.603   5.505 -0.8385 -0.2859  1.5404
   43CHL1   C16 3129   1.712   2.712   5.687 -0.2705  0.0752 -0.3554
   43CHL1  H16A 3130   1.616   2.732   5.740  0.7251  0.4996  1.3767
   43CHL1  H16B 3131   1.750   2.618   5.732  0.1373 -0.1444 -1.1488
   43CHL1   C17 3132   1.816   2.829   5.705  0.3727  0.1728 -0.9193
   43CHL1   H17 3133   1.917   2.787   5.725 -0.8410 -1.2098  3.8209
   43CHL1   C13 3134   1.809   2.914   5.572  0.0792  0.2906  0.2308
   43CHL1   C18 3135   1.689   3.016   5.596 -0.4089 -0.3490  0.8179
   43CHL1  H18A 3136   1.722   3.092   5.669  1.5688 -0.8200  0.4597
   43CHL1  H18B 3137   1.652   3.077   5.511  0.8729  0.3145  0.7148
   43CHL1  H18C 3138   1.601   2.955   5.628 -0.2269 -0.8211  0.4258
   43CHL1   C12 3139   1.937   2.982   5.523 -0.0663 -0.2578 -0.4948
   43CHL1  H12A 3140   1.967   3.069   5.584 -1.8036 -0.8121  1.2639
   43CHL1  H12B 3141   2.018   2.907   5.532 -1.0423 -1.2064  0.7396
   43CHL1   C11 3142   1.924   3.021   5.376 -0.0472  0.0883  0.9472
   43CHL1  H11A 3143   1.861   3.112   5.384 -0.0489  0.2391 -0.4362
   43CHL1  H11B 3144   2.023   3.041   5.328 -0.3351 -4.8746 -2.5267
   43CHL1    C9 3145   1.839   2.927   5.287  0.5380  0.4486  0.1232
   43CHL1    H9 3146   1.904   2.839   5.268  0.5037  0.2355  0.9569
   43CHL1   C10 3147   1.804   2.977   5.141 -0.2640  0.4645 -0.7883
   43CHL1   C19 3148   1.735   3.113   5.151  0.4334  0.1927  0.2090
   43CHL1  H19A 3149   1.637   3.104   5.204  0.0614 -0.1399 -0.5116
   43CHL1  H19B 3150   1.797   3.186   5.207 -0.5864 -0.0224  1.6758
   43CHL1  H19C 3151   1.726   3.154   5.048  1.9276  1.1717  0.4414
   43CHL1    C1 3152   1.940   2.998   5.067 -0.6263  0.2728  0.5858
   43CHL1   H1A 3153   2.002   3.074   5.120  1.7553 -0.6047 -0.7954
   43CHL1   H1B 3154   2.000   2.905   5.077  1.1831  1.4777  1.3061
   43CHL1    C2 3155   1.936   3.032   4.913  0.0930  0.3238 -0.2283
   43CHL1   H2A 3156   2.038   3.025   4.872 -0.3385 -1.5597 -1.0957
   43CHL1   H2B 3157   1.890   3.132   4.904 -0.9373 -0.1950 -1.0403
   43CHL1   C20 3158   1.796   2.900   5.843 -0.2229 -0.8756 -0.7412
   43CHL1   H20 3159   1.702   2.960   5.841 -0.7797 -1.7427 -1.2425
   43CHL1   C21 3160   1.912   2.999   5.868  0.0663  0.3589 -0.0010
   43CHL1  H21A 3161   1.892   3.095   5.816 -1.4782  1.7824  2.9564
   43CHL1  H21B 3162   2.010   2.951   5.847  0.5671  1.5416 -0.4271
   43CHL1  H21C 3163   1.923   3.023   5.976  3.4659 -0.2038 -0.1260
   43CHL1   C22 3164   1.772   2.801   5.965  0.8006 -0.2670  0.1401
   43CHL1  H22A 3165   1.678   2.746   5.945  1.7535 -1.7847 -0.3502
   43CHL1  H22B 3166   1.851   2.724   5.979  2.2370  1.0260 -0.4558
   43CHL1   C23 3167   1.745   2.871   6.100  0.4635  0.4341  0.2128
   43CHL1  H23A 3168   1.829   2.934   6.137  0.9089 -0.8196  1.4315
   43CHL1  H23B 3169   1.656   2.932   6.077 -2.2191 -2.2023  2.7100
   43CHL1   C24 3170   1.701   2.768   6.213  0.4617 -0.1608  0.3756
   43CHL1  H24A 3171   1.604   2.804   6.253  0.5738 -1.2120  1.6806
   43CHL1  H24B 3172   1.675   2.670   6.166  0.0504 -0.1517  0.5817
   43CHL1   C25 3173   1.806   2.744   6.327 -0.1989 -0.4784 -0.3730
   43CHL1   H25 3174   1.816   2.843   6.377  0.0151 -0.0765 -1.1982
   43CHL1   C26 3175   1.750   2.645   6.424  0.6813 -0.0164 -0.0986
   43CHL1  H26A 3176   1.734   2.546   6.375  2.2572 -0.1511 -0.3769
   43CHL1  H26B 3177   1.819   2.651   6.511  1.9646  0.7068 -1.1330
   43CHL1  H26C 3178   1.652   2.680   6.465 -0.7510 -2.5970 -1.0571
   43CHL1   C27 3179   1.943   2.697   6.275 -0.6646 -0.0485  0.7202
   43CHL1  H27A 3180   2.017   2.671   6.354  1.1219 -2.4009 -1.5626
   43CHL1  H27B 3181   1.936   2.604   6.215 -3.0666 -0.4627  1.5522
   43CHL1  H27C 3182   1.994   2.765   6.203  0.1700 -0.9019  0.4879
   44CHL1    C3 3183   6.239   1.287   4.456 -0.1124 -0.0891  0.3911
   44CHL1    H3 3184   6.239   1.396   4.475 -3.3190  0.1026 -0.0608
   44CHL1    O3 3185   6.225   1.272   4.311  0.0019  0.2487 -0.3754
   44CHL1   H3' 3186   6.304   1.225   4.283  0.0678 -1.1930  1.9916
   44CHL1    C4 3187   6.369   1.220   4.489 -0.6879 -0.1420 -0.0702
   44CHL1   H4A 3188   6.354   1.116   4.454 -0.4438 -0.1256 -0.2199
   44CHL1   H4B 3189   6.456   1.260   4.434  0.4496 -1.8451  0.4119
   44CHL1    C5 3190   6.397   1.210   4.639  0.2285  0.0915 -0.7242
   44CHL1    C6 3191   6.507   1.258   4.692  0.2034  0.5166 -0.1089
   44CHL1    H6 3192   6.588   1.309   4.637 -1.0917  0.4467 -2.1907
   44CHL1    C7 3193   6.534   1.257   4.841  0.5999 -0.1770 -0.3956
   44CHL1   H7A 3194   6.638   1.225   4.864  1.1592  0.9858 -1.2131
   44CHL1   H7B 3195   6.520   1.362   4.875  1.6944  0.4602 -1.8238
   44CHL1    C8 3196   6.437   1.170   4.925  0.1789 -0.4786  0.3991
   44CHL1    H8 3197   6.468   1.063   4.921  1.0924 -0.1938 -0.5798
   44CHL1   C14 3198   6.443   1.213   5.074  0.2327 -0.4269 -0.2053
   44CHL1   H14 3199   6.413   1.320   5.081  0.6118 -0.3723  0.6867
   44CHL1   C15 3200   6.578   1.230   5.141 -0.2623  0.0545  0.3954
   44CHL1  H15A 3201   6.651   1.154   5.104  1.4390  2.4763 -1.5457
   44CHL1  H15B 3202   6.628   1.328   5.127  0.2721 -0.3503 -0.6486
   44CHL1   C16 3203   6.545   1.221   5.294  1.0575 -0.8439  0.7796
   44CHL1  H16A 3204   6.605   1.150   5.355  0.9734  0.7779  2.8752
   44CHL1  H16B 3205   6.576   1.323   5.326  0.6667  0.2466 -2.0399
   44CHL1   C17 3206   6.393   1.206   5.313  0.1027 -0.4232 -0.1103
   44CHL1   H17 3207   6.343   1.305   5.319 -1.6216 -1.1652 -1.3028
   44CHL1   C13 3208   6.351   1.147   5.169 -0.3559  0.6052 -0.4898
   44CHL1   C18 3209   6.381   0.993   5.173  0.0410  0.5549 -0.0754
   44CHL1  H18A 3210   6.310   0.941   5.240  0.2817 -0.8533 -0.8561
   44CHL1  H18B 3211   6.373   0.946   5.072  0.1096 -0.0032  0.1728
   44CHL1  H18C 3212   6.483   0.963   5.206 -0.6577 -2.8965 -0.6191
   44CHL1   C12 3213   6.207   1.172   5.115 -0.3073 -0.3960 -0.9256
   44CHL1  H12A 3214   6.121   1.131   5.172 -1.1610  0.8946 -1.2484
   44CHL1  H12B 3215   6.184   1.281   5.117 -1.9188 -0.6815 -2.2720
   44CHL1   C11 3216   6.194   1.137   4.976 -0.2698  0.1939  0.0330
   44CHL1  H11A 3217   6.195   1.026   4.972 -0.9584  0.1874 -0.2424
   44CHL1  H11B 3218   6.090   1.161   4.943 -0.1295 -0.8232 -1.2799
   44CHL1    C9 3219   6.306   1.198   4.878  0.8396 -0.6826  0.2996
   44CHL1    H9 3220   6.292   1.308   4.870  1.9410 -0.6790 -2.8174
   44CHL1   C10 3221   6.280   1.156   4.730  0.2663 -0.2393  0.1132
   44CHL1   C19 3222   6.259   1.009   4.715 -0.2912  0.4021  0.8152
   44CHL1  H19A 3223   6.167   0.971   4.765 -1.1709 -0.7919 -1.5507
   44CHL1  H19B 3224   6.244   0.982   4.608 -1.6442 -1.0256  1.3269
   44CHL1  H19C 3225   6.344   0.955   4.760  1.5895  2.0342 -0.5754
   44CHL1    C1 3226   6.152   1.236   4.688  0.2589  0.3190  0.5184
   44CHL1   H1A 3227   6.059   1.190   4.729  0.0835 -0.6204 -0.8618
   44CHL1   H1B 3228   6.170   1.341   4.718  1.1744  1.6185 -3.8789
   44CHL1    C2 3229   6.125   1.232   4.538  0.0696  0.4270  0.5788
   44CHL1   H2A 3230   6.031   1.283   4.508 -0.2494 -1.0871 -1.1471
   44CHL1   H2B 3231   6.108   1.126   4.511 -0.0139  0.6789 -0.3898
   44CHL1   C20 3232   6.356   1.130   5.446 -0.1670 -0.2214 -0.1222
   44CHL1   H20 3233   6.409   1.032   5.448 -1.5465 -0.9910  1.2730
   44CHL1   C21 3234   6.201   1.112   5.450 -0.2107  0.4757 -0.1391
   44CHL1  H21A 3235   6.174   1.063   5.545  3.3921  0.3580  0.9995
   44CHL1  H21B 3236   6.169   1.045   5.367  1.9697 -0.5509 -0.2340
   44CHL1  H21C 3237   6.153   1.212   5.453 -1.8298 -0.3028  2.1679
   44CHL1   C22 3238   6.394   1.210   5.571  0.4924 -0.4153  0.3890
   44CHL1  H22A 3239   6.498   1.249   5.559  0.1989  0.5209  0.8436
   44CHL1  H22B 3240   6.335   1.304   5.580 -0.8257 -1.3247  1.5648
   44CHL1   C23 3241   6.381   1.138   5.710  0.2516 -0.3193 -0.5606
   44CHL1  H23A 3242   6.278   1.098   5.720  0.1631 -0.4960 -2.0886
   44CHL1  H23B 3243   6.447   1.050   5.727  1.4695  0.9382  1.7017
   44CHL1   C24 3244   6.396   1.231   5.837  0.3107 -0.3497 -0.7998
   44CHL1  H24A 3245   6.373   1.166   5.924  1.6346 -0.9821 -0.8950
   44CHL1  H24B 3246   6.504   1.256   5.845  0.5280 -1.0163 -1.4862
   44CHL1   C25 3247   6.302   1.360   5.843  0.3945  0.2504  0.1976
   44CHL1   H25 3248   6.299   1.396   5.738 -1.3725 -0.9675 -0.2072
   44CHL1   C26 3249   6.164   1.310   5.885 -0.3641 -0.2332  0.1391
   44CHL1  H26A 3250   6.156   1.260   5.984  0.0839 -1.6255 -0.5063
   44CHL1  H26B 3251   6.106   1.405   5.895  0.0497  0.0246  0.1418
   44CHL1  H26C 3252   6.122   1.249   5.802  1.3767  0.4615 -1.3232
   44CHL1   C27 3253   6.359   1.458   5.938  0.3998 -0.3298 -0.3802
   44CHL1  H27A 3254   6.370   1.409   6.037 -1.7502 -0.6979 -0.2816
   44CHL1  H27B 3255   6.460   1.491   5.906 -0.4077  1.1913 -1.4637
   44CHL1  H27C 3256   6.288   1.543   5.934  0.9346  0.0990 -1.1440
   45CHL1    C3 3257   0.724   3.036   4.481  0.1094  0.2293 -0.3075
   45CHL1    H3 3258   0.631   3.095   4.468  0.6339  1.6453  1.7886
   45CHL1    O3 3259   0.769   2.983   4.359  1.1289 -0.2798  0.0420
   45CHL1   H3' 3260   0.768   2.888   4.370 -0.5463 -0.7398 -2.9810
   45CHL1    C4 3261   0.836   3.133   4.533  0.3548  0.3984 -1.2879
   45CHL1   H4A 3262   0.933   3.087   4.506  1.2461  1.4999 -0.0905
   45CHL1   H4B 3263   0.827   3.219   4.464 -0.6884  0.7624 -0.7295
   45CHL1    C5 3264   0.825   3.174   4.679  0.0980 -0.0851 -0.1791
   45CHL1    C6 3265   0.824   3.299   4.719 -0.7185  0.4645 -0.4137
   45CHL1    H6 3266   0.846   3.377   4.645  0.1827  0.3105 -0.3208
   45CHL1    C7 3267   0.814   3.342   4.865  0.6664  0.1110  0.3976
   45CHL1   H7A 3268   0.880   3.429   4.886 -0.4991  1.4012 -1.1182
   45CHL1   H7B 3269   0.707   3.364   4.884  0.8777  0.0354  1.8123
   45CHL1    C8 3270   0.848   3.226   4.965  0.5553 -0.5213  0.1219
   45CHL1    H8 3271   0.958   3.208   4.970  0.8297  0.8777 -0.4196
   45CHL1   C14 3272   0.800   3.274   5.098 -0.2049  0.2373  0.6402
   45CHL1   H14 3273   0.689   3.287   5.098 -0.0940  1.2454  0.2739
   45CHL1   C15 3274   0.860   3.404   5.148  0.0483  0.9554  0.2919
   45CHL1  H15A 3275   0.970   3.406   5.132  0.3820  1.8887  2.3698
   45CHL1  H15B 3276   0.809   3.486   5.093 -0.8340  0.2973  0.1081
   45CHL1   C16 3277   0.823   3.399   5.296  0.4831  0.2901  0.5200
   45CHL1  H16A 3278   0.894   3.447   5.367  0.0263  1.1276  0.4194
   45CHL1  H16B 3279   0.726   3.452   5.299  1.3984  2.1298 -0.6314
   45CHL1   C17 3280   0.785   3.255   5.337  0.5326 -0.4209 -0.1533
   45CHL1   H17 3281   0.674   3.249   5.342  0.5876 -0.9972  0.6217
   45CHL1   C13 3282   0.822   3.171   5.213  0.0908  0.6370  0.2046
   45CHL1   C18 3283   0.974   3.140   5.223  0.0024  0.1957 -0.0241
   45CHL1  H18A 3284   1.027   3.102   5.133  1.9692 -0.5352  1.3695
   45CHL1  H18B 3285   1.034   3.228   5.254  0.5426 -0.5285  1.0518
   45CHL1  H18C 3286   0.985   3.074   5.312 -1.9691  0.2239  0.2863
   45CHL1   C12 3287   0.741   3.036   5.177 -0.7145 -0.6434 -0.0951
   45CHL1  H12A 3288   0.776   2.962   5.253  3.9233  2.3156  1.1221
   45CHL1  H12B 3289   0.635   3.062   5.191 -0.5182 -0.4298  1.1466
   45CHL1   C11 3290   0.776   2.992   5.036  0.0132  0.7976 -0.5828
   45CHL1  H11A 3291   0.877   2.946   5.040  0.8324  2.2554 -2.6364
   45CHL1  H11B 3292   0.712   2.906   5.005  2.9478 -1.4494 -0.9325
   45CHL1    C9 3293   0.768   3.100   4.929 -0.3679 -0.6339  0.1908
   45CHL1    H9 3294   0.660   3.126   4.928 -0.4048 -0.6940  1.2482
   45CHL1   C10 3295   0.805   3.056   4.783  0.0986  0.5656  0.0297
   45CHL1   C19 3296   0.942   2.976   4.794 -0.3562 -0.3150  0.0509
   45CHL1  H19A 3297   0.976   2.951   4.691  0.6856  1.6965 -0.1308
   45CHL1  H19B 3298   1.034   3.022   4.837 -0.1801 -0.4496 -0.1753
   45CHL1  H19C 3299   0.930   2.880   4.849  2.9864 -0.9149 -0.0369
   45CHL1    C1 3300   0.682   2.976   4.723  0.1586  0.0534  0.3237
   45CHL1   H1A 3301   0.659   2.887   4.785 -3.7693  2.3404  2.5372
   45CHL1   H1B 3302   0.593   3.041   4.723  0.2819  0.2730 -1.3001
   45CHL1    C2 3303   0.705   2.925   4.582 -0.1674  0.4423  0.7018
   45CHL1   H2A 3304   0.613   2.868   4.555  0.0393 -0.5621  2.0143
   45CHL1   H2B 3305   0.790   2.854   4.576 -0.1467  0.3805  1.7007
   45CHL1   C20 3306   0.825   3.213   5.478  0.3534  0.0575  0.3629
   45CHL1   H20 3307   0.935   3.228   5.483 -0.0597  3.7150  2.0859
   45CHL1   C21 3308   0.778   3.066   5.510  0.2779  0.8673  0.1305
   45CHL1  H21A 3309   0.768   3.032   5.615 -1.2016 -0.0463 -0.2734
   45CHL1  H21B 3310   0.853   2.993   5.470  0.6393  1.7080 -0.7647
   45CHL1  H21C 3311   0.679   3.046   5.463 -0.0576  0.4167  1.0092
   45CHL1   C22 3312   0.770   3.303   5.590  0.9045 -0.3304  0.4737
   45CHL1  H22A 3313   0.798   3.408   5.566 -2.8870  0.9757  0.9980
   45CHL1  H22B 3314   0.659   3.303   5.600  1.0006  0.1566  1.7056
   45CHL1   C23 3315   0.825   3.262   5.727  0.5119  0.4127 -0.2778
   45CHL1  H23A 3316   0.774   3.170   5.764  0.7552 -1.2918 -3.7482
   45CHL1  H23B 3317   0.931   3.229   5.721 -0.2283 -2.0173 -1.4264
   45CHL1   C24 3318   0.808   3.371   5.833 -0.0725 -0.1332  0.5906
   45CHL1  H24A 3319   0.839   3.463   5.780 -3.2034 -0.6761 -2.5087
   45CHL1  H24B 3320   0.699   3.371   5.851 -0.6810  0.4538 -2.5570
   45CHL1   C25 3321   0.885   3.355   5.964 -0.4092 -0.4467 -0.2605
   45CHL1   H25 3322   0.991   3.328   5.946  0.3355  0.3852  2.3857
   45CHL1   C26 3323   0.871   3.494   6.031 -0.6107  0.8908 -0.5070
   45CHL1  H26A 3324   0.763   3.520   6.034 -1.0710 -0.9441  1.2436
   45CHL1  H26B 3325   0.900   3.491   6.138 -0.3464 -0.4312 -0.5979
   45CHL1  H26C 3326   0.936   3.565   5.976  4.7496 -1.1344  2.5198
   45CHL1   C27 3327   0.823   3.249   6.052  0.0676  0.2233 -0.4208
   45CHL1  H27A 3328   0.715   3.266   6.069  0.0187  0.7383 -1.1980
   45CHL1  H27B 3329   0.838   3.150   6.005  1.9857  0.3503 -0.1674
   45CHL1  H27C 3330   0.880   3.253   6.148 -0.0150 -0.5333 -0.3383
   46CHL1    C3 3331   1.835   5.790   4.270  0.0160 -0.1334  0.2462
   46CHL1    H3 3332   1.943   5.815   4.276  0.0378 -0.0220 -0.4929
   46CHL1    O3 3333   1.781   5.818   4.136 -0.0180 -0.5531  0.0585
   46CHL1   H3' 3334   1.690   5.791   4.132 -0.4154  0.8718 -1.6811
   46CHL1    C4 3335   1.815   5.643   4.312 -0.4876  0.2359 -0.0078
   46CHL1   H4A 3336   1.707   5.629   4.287 -0.4121  2.0955 -1.6942
   46CHL1   H4B 3337   1.865   5.580   4.235 -2.7977 -1.8875  0.1087
   46CHL1    C5 3338   1.863   5.616   4.454  0.2522  0.8169  0.4068
   46CHL1    C6 3339   1.962   5.528   4.479 -0.3268 -0.1468  0.1387
   46CHL1    H6 3340   2.005   5.472   4.395  0.7907 -0.5886  0.9964
   46CHL1    C7 3341   2.014   5.487   4.616 -0.4161 -0.7470  0.3570
   46CHL1   H7A 3342   2.032   5.378   4.627  1.6553 -0.3668  1.2164
   46CHL1   H7B 3343   2.114   5.527   4.645 -0.4242 -1.1604  0.9619
   46CHL1    C8 3344   1.909   5.535   4.721 -0.2077 -0.5392 -0.0449
   46CHL1    H8 3345   1.817   5.474   4.708 -0.3190  0.0452 -2.3921
   46CHL1   C14 3346   1.971   5.510   4.861 -0.6576  0.2079  0.0531
   46CHL1   H14 3347   2.069   5.562   4.852 -1.0620  0.7626 -1.1847
   46CHL1   C15 3348   2.008   5.367   4.909 -0.1808 -0.1020  0.4374
   46CHL1  H15A 3349   1.920   5.300   4.899 -0.6836  0.3917  1.3614
   46CHL1  H15B 3350   2.092   5.308   4.865  0.9052 -0.6354  2.9912
   46CHL1   C16 3351   2.034   5.390   5.057  0.0300 -0.1761 -0.2625
   46CHL1  H16A 3352   1.996   5.305   5.118 -1.5557 -0.2736 -1.3189
   46CHL1  H16B 3353   2.143   5.398   5.075  0.0982  0.1360 -0.7961
   46CHL1   C17 3354   1.982   5.531   5.091 -0.1311  0.0906 -0.0353
   46CHL1   H17 3355   2.067   5.603   5.089  0.1790 -0.2901 -1.2350
   46CHL1   C13 3356   1.893   5.572   4.979  0.7198  0.6510  0.1376
   46CHL1   C18 3357   1.755   5.494   4.993 -0.6789  0.5961  0.3640
   46CHL1  H18A 3358   1.688   5.543   5.067 -1.9681  3.8778 -2.6919
   46CHL1  H18B 3359   1.706   5.479   4.894 -1.0288  0.4386  0.5589
   46CHL1  H18C 3360   1.782   5.392   5.028  0.7373 -0.1367 -2.5524
   46CHL1   C12 3361   1.868   5.722   4.958  0.5055  0.5129 -0.2631
   46CHL1  H12A 3362   1.810   5.769   5.039  2.7111 -0.9289  2.3290
   46CHL1  H12B 3363   1.969   5.768   4.961  1.3902 -1.2333 -1.0128
   46CHL1   C11 3364   1.802   5.745   4.820  0.6774  0.2446  0.7300
   46CHL1  H11A 3365   1.696   5.713   4.833  0.7077 -0.3702 -0.3933
   46CHL1  H11B 3366   1.800   5.855   4.805  2.3539  0.2324  0.2348
   46CHL1    C9 3367   1.869   5.682   4.697 -0.2740 -0.6629 -0.1755
   46CHL1    H9 3368   1.965   5.738   4.689 -0.5201  0.6270  3.7575
   46CHL1   C10 3369   1.798   5.701   4.561  0.2566  0.0852  0.1205
   46CHL1   C19 3370   1.648   5.671   4.583 -0.0628  1.0203  0.6022
   46CHL1  H19A 3371   1.593   5.673   4.487 -0.9751 -1.0136  1.0345
   46CHL1  H19B 3372   1.629   5.569   4.623 -0.6214 -0.9463 -4.0717
   46CHL1  H19C 3373   1.610   5.751   4.650 -2.2698  0.3259  0.2604
   46CHL1    C1 3374   1.805   5.855   4.522 -0.1317 -0.2981 -0.0359
   46CHL1   H1A 3375   1.751   5.913   4.599  1.8291 -0.4712  1.5358
   46CHL1   H1B 3376   1.911   5.882   4.540 -0.0922  0.3880 -1.2085
   46CHL1    C2 3377   1.760   5.881   4.369  0.4338  0.3258 -0.6242
   46CHL1   H2A 3378   1.767   5.990   4.349 -0.3827  1.1078  2.8078
   46CHL1   H2B 3379   1.652   5.856   4.373  0.3725  0.7316  1.9667
   46CHL1   C20 3380   1.925   5.533   5.237  0.1007 -0.2489  0.4672
   46CHL1   H20 3381   1.841   5.461   5.227 -0.2713  0.2090  0.2548
   46CHL1   C21 3382   1.858   5.667   5.265  0.5091  0.3887 -0.5139
   46CHL1  H21A 3383   1.833   5.670   5.374 -1.1075  1.6313 -0.8823
   46CHL1  H21B 3384   1.758   5.678   5.218 -0.4763 -0.7874  1.1692
   46CHL1  H21C 3385   1.927   5.751   5.245  0.4620  0.8902  1.2592
   46CHL1   C22 3386   2.016   5.491   5.355  0.0038 -0.5613 -0.1007
   46CHL1  H22A 3387   2.086   5.413   5.317 -0.0900  0.3613 -2.2866
   46CHL1  H22B 3388   2.079   5.581   5.374 -1.1659 -0.1693  2.2918
   46CHL1   C23 3389   1.951   5.439   5.487 -0.4414 -0.2928  0.3795
   46CHL1  H23A 3390   1.895   5.525   5.530  1.5957 -0.0341  2.7639
   46CHL1  H23B 3391   1.881   5.356   5.464  0.7455 -1.1380 -0.2464
   46CHL1   C24 3392   2.058   5.401   5.592 -0.6522 -0.4854 -0.4269
   46CHL1  H24A 3393   2.098   5.303   5.560  0.2284  0.0710 -1.0839
   46CHL1  H24B 3394   2.132   5.484   5.589 -0.8193 -0.2580  1.0557
   46CHL1   C25 3395   1.990   5.382   5.733 -0.1581  0.0208 -0.2319
   46CHL1   H25 3396   1.914   5.462   5.742  0.0424  0.1783  0.0634
   46CHL1   C26 3397   1.927   5.243   5.750 -0.9282 -0.3177  0.3709
   46CHL1  H26A 3398   1.847   5.223   5.675 -0.8709  0.5618  0.0602
   46CHL1  H26B 3399   2.004   5.164   5.744  0.0617  0.6666 -0.3598
   46CHL1  H26C 3400   1.884   5.251   5.852  0.1800  0.0279  0.8244
   46CHL1   C27 3401   2.094   5.397   5.841  0.3133  0.0484 -0.8532
   46CHL1  H27A 3402   2.058   5.404   5.946  1.7427 -0.9316 -0.2825
   46CHL1  H27B 3403   2.156   5.305   5.839 -0.2184 -0.4175  1.5547
   46CHL1  H27C 3404   2.159   5.484   5.817  2.0644 -2.0952 -4.8637
   47CHL1    C3 3405   6.345   5.192   4.674 -0.0917  0.6109 -0.4672
   47CHL1    H3 3406   6.412   5.106   4.655  0.4949  0.5809  1.5113
   47CHL1    O3 3407   6.284   5.234   4.555 -0.1890  0.2106 -0.4048
   47CHL1   H3' 3408   6.229   5.301   4.597 -1.0614  0.0955 -1.3289
   47CHL1    C4 3409   6.238   5.128   4.764 -0.1550 -0.7693 -0.1303
   47CHL1   H4A 3410   6.155   5.199   4.781  1.2792  0.3430  3.1203
   47CHL1   H4B 3411   6.188   5.043   4.714 -0.8768 -1.7956  2.2093
   47CHL1    C5 3412   6.304   5.090   4.897  0.3353 -0.2491  0.1291
   47CHL1    C6 3413   6.296   4.969   4.948  0.7218  0.5956 -0.3864
   47CHL1    H6 3414   6.247   4.896   4.883  1.1824 -1.7500  1.7560
   47CHL1    C7 3415   6.342   4.915   5.079  0.2424  0.3706  0.1844
   47CHL1   H7A 3416   6.264   4.846   5.119  1.3151 -0.6901  0.5204
   47CHL1   H7B 3417   6.426   4.848   5.051 -0.0268  1.5294 -3.9421
   47CHL1    C8 3418   6.382   5.030   5.165  0.2407 -0.2644  0.0295
   47CHL1    H8 3419   6.290   5.084   5.196  0.8874  3.1833 -3.2817
   47CHL1   C14 3420   6.460   4.976   5.292  0.0334  0.3252  0.4438
   47CHL1   H14 3421   6.550   4.928   5.248  2.1398  1.4842  3.1607
   47CHL1   C15 3422   6.390   4.875   5.388  0.5424  0.8484 -0.0734
   47CHL1  H15A 3423   6.294   4.920   5.423  0.5827 -0.7926  2.3972
   47CHL1  H15B 3424   6.362   4.781   5.334 -0.1682  2.1130 -2.0158
   47CHL1   C16 3425   6.492   4.864   5.499  0.4961  0.0002  0.1617
   47CHL1  H16A 3426   6.439   4.862   5.597 -0.7013  0.7701 -0.4447
   47CHL1  H16B 3427   6.545   4.768   5.483  1.8141  0.7697 -0.1900
   47CHL1   C17 3428   6.591   4.984   5.489 -0.1918  0.3145 -0.5178
   47CHL1   H17 3429   6.686   4.943   5.447 -0.1932  0.7655 -0.9752
   47CHL1   C13 3430   6.526   5.078   5.385  0.0698 -0.5199  0.0520
   47CHL1   C18 3431   6.422   5.161   5.451 -0.5106 -0.7342  0.7988
   47CHL1  H18A 3432   6.480   5.236   5.508  0.2872 -0.2459 -0.6020
   47CHL1  H18B 3433   6.365   5.221   5.377  1.2198  1.0588  0.8278
   47CHL1  H18C 3434   6.372   5.111   5.536  1.0633  1.4709  3.1714
   47CHL1   C12 3435   6.621   5.153   5.288 -0.5298 -0.6616  0.2404
   47CHL1  H12A 3436   6.666   5.235   5.347 -1.0837  0.0412 -0.3023
   47CHL1  H12B 3437   6.705   5.087   5.255  0.2505  1.1545 -1.6522
   47CHL1   C11 3438   6.550   5.221   5.170 -0.5349  0.0831 -0.1537
   47CHL1  H11A 3439   6.484   5.300   5.214  0.1074  0.7816 -0.4178
   47CHL1  H11B 3440   6.623   5.283   5.113 -1.2974  1.9998  0.8396
   47CHL1    C9 3441   6.467   5.126   5.084  0.0987 -0.1582 -0.0344
   47CHL1    H9 3442   6.543   5.066   5.030  0.9290 -0.9618  1.9590
   47CHL1   C10 3443   6.385   5.190   4.969  0.6226  0.0803 -1.0000
   47CHL1   C19 3444   6.286   5.298   5.025  0.0404  0.9398  0.4342
   47CHL1  H19A 3445   6.182   5.298   4.986 -0.8746 -2.1453  2.5279
   47CHL1  H19B 3446   6.274   5.287   5.135 -0.9168 -0.9235  0.1888
   47CHL1  H19C 3447   6.333   5.399   5.017 -0.1464  0.9396 -0.9479
   47CHL1    C1 3448   6.489   5.252   4.869  0.0059 -0.7788 -0.3648
   47CHL1   H1A 3449   6.535   5.345   4.909  0.1473  0.4496 -3.1321
   47CHL1   H1B 3450   6.576   5.186   4.846  0.6511 -0.5905  1.3958
   47CHL1    C2 3451   6.424   5.300   4.737 -0.1175 -0.0567  0.6908
   47CHL1   H2A 3452   6.511   5.324   4.673  0.7045  0.8059  2.0826
   47CHL1   H2B 3453   6.373   5.398   4.746  1.0832  0.4829  1.9992
   47CHL1   C20 3454   6.639   5.050   5.620 -0.3223 -0.4455  0.3606
   47CHL1   H20 3455   6.570   5.133   5.647 -2.4484 -1.8012 -0.6786
   47CHL1   C21 3456   6.777   5.112   5.591  0.4189  0.2300  0.3190
   47CHL1  H21A 3457   6.813   5.161   5.684  0.3438 -0.2241  0.5881
   47CHL1  H21B 3458   6.780   5.180   5.503  4.6111  0.2482  0.2805
   47CHL1  H21C 3459   6.858   5.041   5.564  1.0819  0.9457  0.4151
   47CHL1   C22 3460   6.654   4.955   5.750 -0.1179 -0.0650  0.5170
   47CHL1  H22A 3461   6.658   4.847   5.725  0.8202 -0.6453  2.9302
   47CHL1  H22B 3462   6.744   4.980   5.809 -0.0982 -1.1386  0.9466
   47CHL1   C23 3463   6.537   4.984   5.845 -0.4752 -0.1953  0.0613
   47CHL1  H23A 3464   6.573   5.082   5.883 -1.4830  1.2612 -2.4670
   47CHL1  H23B 3465   6.448   5.002   5.780 -0.4315  1.2610  0.3576
   47CHL1   C24 3466   6.520   4.895   5.967 -0.7804  0.4478  0.0485
   47CHL1  H24A 3467   6.514   4.790   5.930  0.9433  0.3918 -0.1935
   47CHL1  H24B 3468   6.622   4.889   6.010 -0.5128  1.7234 -0.3489
   47CHL1   C25 3469   6.406   4.936   6.064 -0.4327  0.7000  0.0303
   47CHL1   H25 3470   6.313   4.946   6.004 -0.1435 -3.0719 -1.3311
   47CHL1   C26 3471   6.400   4.820   6.169 -0.4847 -0.3119 -0.1384
   47CHL1  H26A 3472   6.322   4.845   6.244  2.2387 -1.6504  3.4221
   47CHL1  H26B 3473   6.382   4.722   6.121  0.8851 -1.6896  1.9924
   47CHL1  H26C 3474   6.494   4.833   6.227 -0.1094  2.6055 -1.1991
   47CHL1   C27 3475   6.428   5.078   6.124 -0.3879 -0.7674  0.1883
   47CHL1  H27A 3476   6.420   5.157   6.047 -2.7978 -0.0933  1.0437
   47CHL1  H27B 3477   6.353   5.107   6.201 -1.4186  0.0516 -1.0973
   47CHL1  H27C 3478   6.527   5.084   6.175 -1.0018  0.3426  1.3148
   48CHL1    C3 3479   5.836   0.066   4.380 -0.8194  0.0726 -0.4329
   48CHL1    H3 3480   5.824  -0.042   4.400  0.5374  0.2669  1.8895
   48CHL1    O3 3481   5.822   0.102   4.243  0.4662  0.3306 -0.1445
   48CHL1   H3' 3482   5.913   0.098   4.212  0.5531 -0.0568  0.1583
   48CHL1    C4 3483   5.728   0.151   4.456  0.2983 -0.5633 -0.6607
   48CHL1   H4A 3484   5.737   0.259   4.434  1.7752 -0.4386  0.3712
   48CHL1   H4B 3485   5.632   0.114   4.415  1.5533 -2.4269 -2.0827
   48CHL1    C5 3486   5.747   0.142   4.608  0.3308 -0.1527 -0.2674
   48CHL1    C6 3487   5.648   0.091   4.688  0.1339 -0.3728  0.2209
   48CHL1    H6 3488   5.552   0.061   4.644  0.3685 -0.1481 -0.4677
   48CHL1    C7 3489   5.653   0.084   4.837 -0.3259  0.4203  0.3641
   48CHL1   H7A 3490   5.555   0.108   4.882 -0.2860  0.2770  0.5245
   48CHL1   H7B 3491   5.672  -0.020   4.871 -3.3395 -0.4489 -0.2507
   48CHL1    C8 3492   5.773   0.170   4.885  0.1080  0.4078  0.3316
   48CHL1    H8 3493   5.741   0.275   4.866  1.0684  0.6889  0.2286
   48CHL1   C14 3494   5.796   0.149   5.032  0.4567  0.2673 -0.1104
   48CHL1   H14 3495   5.822   0.043   5.049  0.0702  0.3321  0.9932
   48CHL1   C15 3496   5.678   0.170   5.127  0.8474  0.3239  0.2824
   48CHL1  H15A 3497   5.626   0.261   5.092  0.3707  0.1976  0.6464
   48CHL1  H15B 3498   5.610   0.082   5.126  0.4724  0.5296 -2.6107
   48CHL1   C16 3499   5.733   0.170   5.267 -0.1775 -0.1485  0.0829
   48CHL1  H16A 3500   5.703   0.262   5.322 -0.0362  0.2381 -0.4734
   48CHL1  H16B 3501   5.707   0.077   5.321  0.9424 -1.2283 -1.1695
   48CHL1   C17 3502   5.890   0.185   5.246 -0.1705  0.4647  0.5027
   48CHL1   H17 3503   5.921   0.078   5.248 -1.5243  0.0673  1.3790
   48CHL1   C13 3504   5.912   0.219   5.098 -0.1847  0.0753  0.4914
   48CHL1   C18 3505   5.887   0.369   5.075 -0.6097  0.7318  0.1790
   48CHL1  H18A 3506   5.896   0.392   4.966 -2.1949  0.2250 -0.0850
   48CHL1  H18B 3507   5.792   0.400   5.124 -0.4875  1.2197  0.1129
   48CHL1  H18C 3508   5.970   0.428   5.119  0.7686  0.4312 -1.8526
   48CHL1   C12 3509   6.036   0.168   5.030  0.3569  0.1232 -0.1664
   48CHL1  H12A 3510   6.114   0.236   5.070  1.6675 -0.4106 -1.6979
   48CHL1  H12B 3511   6.065   0.066   5.063  1.8666  0.5529 -0.0968
   48CHL1   C11 3512   6.036   0.184   4.876 -1.0008  0.3471 -0.0420
   48CHL1  H11A 3513   6.066   0.289   4.854  0.7509  0.1794  1.2788
   48CHL1  H11B 3514   6.119   0.117   4.846 -0.6782 -1.1402  3.6296
   48CHL1    C9 3515   5.899   0.144   4.808  0.0310 -0.1678  0.5577
   48CHL1    H9 3516   5.904   0.034   4.794 -0.4109 -0.1768  0.4781
   48CHL1   C10 3517   5.889   0.192   4.659 -0.8332 -0.5456 -0.5363
   48CHL1   C19 3518   5.910   0.348   4.646 -0.4720 -0.6246  0.1395
   48CHL1  H19A 3519   6.012   0.370   4.685 -1.3169  2.7244  0.7340
   48CHL1  H19B 3520   5.896   0.381   4.541  0.6648  1.2992  0.5352
   48CHL1  H19C 3521   5.833   0.399   4.707  1.7760  0.5835  2.1691
   48CHL1    C1 3522   5.997   0.114   4.581  0.4327  0.3633 -0.3693
   48CHL1   H1A 3523   6.100   0.149   4.604  0.0646  1.1656  0.0966
   48CHL1   H1B 3524   5.993   0.007   4.609  1.7657  0.6919  1.2443
   48CHL1    C2 3525   5.976   0.110   4.424 -0.4976  0.9194 -0.1848
   48CHL1   H2A 3526   6.041   0.039   4.369 -0.3297  1.3975 -0.6025
   48CHL1   H2B 3527   5.992   0.209   4.377 -1.4432  1.4262  0.5193
   48CHL1   C20 3528   5.962   0.273   5.347  0.0132  0.0374  0.1470
   48CHL1   H20 3529   5.910   0.371   5.346  0.3790  0.2737 -2.2232
   48CHL1   C21 3530   6.116   0.294   5.319  1.2431 -0.1869  0.1939
   48CHL1  H21A 3531   6.120   0.365   5.234 -1.4628 -1.9615 -1.5664
   48CHL1  H21B 3532   6.165   0.199   5.289 -0.1610 -1.6367  2.2132
   48CHL1  H21C 3533   6.164   0.336   5.410  1.5271 -1.9893  0.9124
   48CHL1   C22 3534   5.944   0.200   5.485 -0.2409  0.4857 -0.0907
   48CHL1  H22A 3535   5.844   0.155   5.505  0.1823  0.9452  3.7570
   48CHL1  H22B 3536   6.016   0.116   5.485 -1.4727 -0.6026  0.4514
   48CHL1   C23 3537   5.964   0.292   5.605  0.4671  0.0162  0.2228
   48CHL1  H23A 3538   6.003   0.388   5.567  1.1423 -0.1953  0.3762
   48CHL1  H23B 3539   5.868   0.311   5.658 -0.0123 -1.0076 -0.2399
   48CHL1   C24 3540   6.058   0.235   5.704 -0.1435  0.0054  0.5795
   48CHL1  H24A 3541   6.024   0.134   5.732  2.8774 -0.8544  1.5507
   48CHL1  H24B 3542   6.155   0.217   5.653 -0.6557 -0.3091 -0.3044
   48CHL1   C25 3543   6.078   0.312   5.838 -0.2010 -0.1036  0.3697
   48CHL1   H25 3544   6.118   0.409   5.802  2.7001 -2.3056 -3.1532
   48CHL1   C26 3545   5.948   0.314   5.926  0.8458 -0.5039 -0.1554
   48CHL1  H26A 3546   5.963   0.361   6.025  0.1333  0.4385 -0.4759
   48CHL1  H26B 3547   5.859   0.366   5.883  0.5653 -2.7722 -2.5606
   48CHL1  H26C 3548   5.910   0.211   5.943 -0.1968  0.0090  0.7472
   48CHL1   C27 3549   6.196   0.253   5.924  0.8106  0.4689  0.2471
   48CHL1  H27A 3550   6.219   0.316   6.013  1.6951  0.0861  0.3019
   48CHL1  H27B 3551   6.172   0.148   5.952  2.2560  0.6005  2.2258
   48CHL1  H27C 3552   6.287   0.255   5.860  0.2064 -1.3234 -0.7269
   49CHL1    C3 3553   0.136   2.733   4.387  0.2129 -0.7625 -0.3584
   49CHL1    H3 3554   0.038   2.785   4.377  0.0183 -0.9954  0.2963
   49CHL1    O3 3555   0.189   2.712   4.255  0.6088 -0.1539 -0.1124
   49CHL1   H3' 3556   0.237   2.794   4.244  1.5893 -0.8237 -1.1291
   49CHL1    C4 3557   0.241   2.821   4.457 -0.6577 -0.0064 -0.7481
   49CHL1   H4A 3558   0.337   2.772   4.428 -0.0315  0.6461  0.1779
   49CHL1   H4B 3559   0.230   2.918   4.405 -0.9129  1.3748  1.7556
   49CHL1    C5 3560   0.210   2.834   4.613  0.0524  0.2172  0.0172
   49CHL1    C6 3561   0.198   2.956   4.669  0.4954 -0.2450  0.2883
   49CHL1    H6 3562   0.219   3.041   4.602  0.4206  0.4395  1.1222
   49CHL1    C7 3563   0.174   2.982   4.819 -0.0250 -0.1183  0.3748
   49CHL1   H7A 3564   0.251   3.057   4.848  0.6756 -0.8184  0.3610
   49CHL1   H7B 3565   0.069   3.013   4.832  0.0352  0.7317 -0.9866
   49CHL1    C8 3566   0.205   2.853   4.899  0.2811 -0.1144  0.1834
   49CHL1    H8 3567   0.316   2.850   4.905  0.5030  3.7765  0.4217
   49CHL1   C14 3568   0.151   2.871   5.039 -0.3911 -0.1626 -0.6637
   49CHL1   H14 3569   0.043   2.898   5.045 -0.4477 -0.7181  2.8342
   49CHL1   C15 3570   0.223   2.978   5.121 -0.0104  0.2473 -0.1202
   49CHL1  H15A 3571   0.334   2.982   5.118  0.1230  0.5122  2.5154
   49CHL1  H15B 3572   0.186   3.074   5.079  0.5927  0.3364 -0.4699
   49CHL1   C16 3573   0.183   2.944   5.265 -0.3763 -0.3222  0.1063
   49CHL1  H16A 3574   0.268   2.961   5.335 -0.8407  0.6400  0.4602
   49CHL1  H16B 3575   0.106   3.018   5.298  0.3751  0.6132 -0.1975
   49CHL1   C17 3576   0.125   2.800   5.260  0.6736  0.5770 -0.0238
   49CHL1   H17 3577   0.015   2.805   5.250  0.5325 -2.0867 -0.4386
   49CHL1   C13 3578   0.165   2.741   5.123  0.4884  0.0238  0.5674
   49CHL1   C18 3579   0.320   2.698   5.124  0.9611  0.1971 -0.0648
   49CHL1  H18A 3580   0.343   2.612   5.190  2.3182  0.3212 -0.3371
   49CHL1  H18B 3581   0.355   2.680   5.020  2.3808  0.8722  0.2645
   49CHL1  H18C 3582   0.376   2.781   5.172  0.7983 -0.5585  1.4760
   49CHL1   C12 3583   0.067   2.635   5.061 -0.1216 -0.3723  0.3968
   49CHL1  H12A 3584   0.066   2.548   5.130  0.3857 -0.7490 -0.0708
   49CHL1  H12B 3585  -0.038   2.670   5.055  0.4640  1.5775  0.6868
   49CHL1   C11 3586   0.113   2.602   4.921  0.1546  0.2822 -0.0987
   49CHL1  H11A 3587   0.204   2.538   4.927 -0.3196 -0.3834  0.2481
   49CHL1  H11B 3588   0.034   2.539   4.874  1.8644 -1.9302 -0.1933
   49CHL1    C9 3589   0.139   2.734   4.838 -0.5312 -0.2778  0.1954
   49CHL1    H9 3590   0.033   2.765   4.829 -0.0845  1.6734  0.9898
   49CHL1   C10 3591   0.193   2.702   4.694  0.1549 -0.4978  0.0467
   49CHL1   C19 3592   0.340   2.638   4.708 -0.5221  0.5280  0.4137
   49CHL1  H19A 3593   0.375   2.598   4.611  0.7924 -2.1567  1.9050
   49CHL1  H19B 3594   0.419   2.709   4.740  0.4512 -1.2970  2.3194
   49CHL1  H19C 3595   0.345   2.545   4.769 -1.2040 -0.3546 -0.8323
   49CHL1    C1 3596   0.097   2.612   4.614 -0.3763 -0.5251 -0.2119
   49CHL1   H1A 3597   0.105   2.506   4.649 -0.3661 -0.8925 -1.2779
   49CHL1   H1B 3598   0.004   2.663   4.644  1.8712  2.9563  1.4757
   49CHL1    C2 3599   0.119   2.594   4.463 -0.2031 -0.3665 -0.7609
   49CHL1   H2A 3600   0.037   2.533   4.420  0.5491 -0.9753 -1.3661
   49CHL1   H2B 3601   0.211   2.534   4.451  0.3424 -0.6879  3.4747
   49CHL1   C20 3602   0.161   2.722   5.392 -0.1429 -0.0566  0.1008
   49CHL1   H20 3603   0.270   2.722   5.417 -0.2099  3.6075  0.8852
   49CHL1   C21 3604   0.128   2.563   5.393 -0.1550 -0.8093  0.5448
   49CHL1  H21A 3605   0.189   2.515   5.313 -2.4940  0.5389 -2.2397
   49CHL1  H21B 3606   0.019   2.549   5.377  0.2703 -3.0169 -0.9242
   49CHL1  H21C 3607   0.163   2.521   5.490 -0.7662 -1.5829  0.4409
   49CHL1   C22 3608   0.087   2.791   5.513 -0.6091  0.1860 -0.3610
   49CHL1  H22A 3609   0.112   2.898   5.509 -2.1040  0.6076  0.4073
   49CHL1  H22B 3610  -0.024   2.793   5.499 -1.0856 -2.0342  2.2015
   49CHL1   C23 3611   0.124   2.746   5.657 -0.2081  0.3856 -0.0183
   49CHL1  H23A 3612   0.083   2.643   5.669 -0.0404 -0.0003 -2.3308
   49CHL1  H23B 3613   0.233   2.755   5.674 -0.0007 -0.7526 -0.6621
   49CHL1   C24 3614   0.050   2.832   5.757 -0.1079  0.8919 -0.4474
   49CHL1  H24A 3615   0.087   2.934   5.733 -0.8743  1.4405  0.6233
   49CHL1  H24B 3616  -0.060   2.821   5.750 -0.4011  1.6888  1.9697
   49CHL1   C25 3617   0.069   2.793   5.909  0.5125  0.1286 -0.0084
   49CHL1   H25 3618   0.178   2.784   5.932  0.0804 -0.7605  1.9435
   49CHL1   C26 3619  -0.003   2.891   6.006 -0.6567 -0.1968 -0.5210
   49CHL1  H26A 3620  -0.112   2.899   5.988 -0.7586 -2.1360 -1.0515
   49CHL1  H26B 3621   0.020   2.865   6.112 -0.1094  2.0541 -0.0321
   49CHL1  H26C 3622   0.045   2.988   5.982  0.9156 -1.0763 -1.0881
   49CHL1   C27 3623   0.006   2.658   5.935  0.4923  0.3313 -0.4926
   49CHL1  H27A 3624  -0.100   2.663   5.904  1.1460 -0.6818 -3.2114
   49CHL1  H27B 3625   0.039   2.571   5.874 -2.1869 -2.1538  1.3366
   49CHL1  H27C 3626   0.020   2.622   6.039 -0.0757 -0.8496 -0.8132
   50CHL1    C3 3627   5.832   5.431   4.727 -0.6362  0.2562 -0.6330
   50CHL1    H3 3628   5.732   5.384   4.715 -0.0458 -0.8499 -1.5147
   50CHL1    O3 3629   5.895   5.429   4.603 -0.5431  0.1661  0.4418
   50CHL1   H3' 3630   5.845   5.488   4.546  2.0454  2.4660  0.3361
   50CHL1    C4 3631   5.808   5.571   4.786  0.3389  0.5203 -0.6916
   50CHL1   H4A 3632   5.909   5.618   4.794  1.7297 -2.2968 -0.3682
   50CHL1   H4B 3633   5.758   5.639   4.715 -0.0793  0.1797 -0.7298
   50CHL1    C5 3634   5.763   5.571   4.929 -0.0036 -0.3291 -0.2998
   50CHL1    C6 3635   5.648   5.630   4.967 -0.0522 -0.1440  0.7391
   50CHL1    H6 3636   5.588   5.682   4.890 -2.5308 -2.8161  0.6890
   50CHL1    C7 3637   5.593   5.634   5.106  0.1697  0.2386  0.2569
   50CHL1   H7A 3638   5.541   5.727   5.136  0.3496  0.0708  1.1298
   50CHL1   H7B 3639   5.519   5.551   5.101 -1.4721  1.6383  0.7578
   50CHL1    C8 3640   5.701   5.597   5.212 -0.2294  0.8824 -0.4884
   50CHL1    H8 3641   5.777   5.678   5.214 -1.0908  1.7336 -0.9159
   50CHL1   C14 3642   5.625   5.571   5.345  0.1504  0.1125 -0.0199
   50CHL1   H14 3643   5.549   5.496   5.314 -1.8920  2.6358 -1.4348
   50CHL1   C15 3644   5.542   5.694   5.406  0.5533  0.4270  0.2152
   50CHL1  H15A 3645   5.600   5.787   5.387 -1.1319  1.4200 -0.3904
   50CHL1  H15B 3646   5.440   5.710   5.364  0.5183 -0.0471  0.1101
   50CHL1   C16 3647   5.540   5.662   5.557 -0.1725 -0.5891 -0.4392
   50CHL1  H16A 3648   5.597   5.742   5.609 -0.9488  0.2912 -0.9299
   50CHL1  H16B 3649   5.441   5.653   5.606  0.8323 -0.9774  1.6100
   50CHL1   C17 3650   5.621   5.532   5.573 -0.1783  0.2293 -0.2381
   50CHL1   H17 3651   5.552   5.448   5.551 -1.5226  0.7768  1.7186
   50CHL1   C13 3652   5.722   5.531   5.454 -0.1572  0.7644  0.6053
   50CHL1   C18 3653   5.837   5.641   5.481  0.2054 -0.0502 -0.2025
   50CHL1  H18A 3654   5.788   5.729   5.529 -1.6404 -1.8357  1.3787
   50CHL1  H18B 3655   5.905   5.598   5.557  0.8869  1.1576 -0.1112
   50CHL1  H18C 3656   5.891   5.672   5.389  0.2184  2.0013  0.4427
   50CHL1   C12 3657   5.792   5.395   5.414 -0.3933  0.2371  0.0085
   50CHL1  H12A 3658   5.855   5.353   5.495 -1.3580  1.2194  1.3088
   50CHL1  H12B 3659   5.710   5.321   5.397 -1.8981  2.1411 -1.4885
   50CHL1   C11 3660   5.865   5.415   5.279 -0.0715 -0.1780 -0.6073
   50CHL1  H11A 3661   5.953   5.479   5.300 -0.9947  0.8607  0.1753
   50CHL1  H11B 3662   5.903   5.313   5.255 -0.8156 -1.1592  2.0682
   50CHL1    C9 3663   5.772   5.471   5.166 -0.2782  0.7126 -0.1705
   50CHL1    H9 3664   5.693   5.397   5.142 -1.0648  1.4187  0.2148
   50CHL1   C10 3665   5.844   5.495   5.032 -0.6940 -0.4858  1.3994
   50CHL1   C19 3666   5.977   5.578   5.053  0.0122 -0.3361  0.6320
   50CHL1  H19A 3667   6.025   5.614   4.960  0.5108 -2.0598  0.1886
   50CHL1  H19B 3668   5.955   5.659   5.126  0.4361  2.1043 -1.7944
   50CHL1  H19C 3669   6.048   5.499   5.086  0.4057 -0.8619 -1.3579
   50CHL1    C1 3670   5.871   5.351   4.970 -0.5864 -0.3587  0.2285
   50CHL1   H1A 3671   5.951   5.291   5.021  0.3568  1.2478  0.7099
   50CHL1   H1B 3672   5.779   5.289   4.976 -0.9839 -0.0093 -1.7082
   50CHL1    C2 3673   5.919   5.350   4.817  0.0337 -0.0562  0.6034
   50CHL1   H2A 3674   5.925   5.241   4.792 -1.6233  0.0530 -0.4157
   50CHL1   H2B 3675   6.020   5.398   4.817 -0.5023  1.1046  0.1629
   50CHL1   C20 3676   5.680   5.523   5.719 -0.4147  0.4055 -0.5653
   50CHL1   H20 3677   5.758   5.599   5.740  1.1002 -2.0601  3.9540
   50CHL1   C21 3678   5.743   5.387   5.731 -0.4552 -0.3124  0.0517
   50CHL1  H21A 3679   5.755   5.358   5.837 -1.0252  1.0092  0.4861
   50CHL1  H21B 3680   5.843   5.384   5.683 -1.4478 -1.7850 -2.1453
   50CHL1  H21C 3681   5.685   5.312   5.672  1.2593 -0.9092 -0.9364
   50CHL1   C22 3682   5.567   5.542   5.826 -0.6929 -0.4122 -0.4398
   50CHL1  H22A 3683   5.620   5.545   5.924  1.4811  3.1752 -1.5149
   50CHL1  H22B 3684   5.533   5.648   5.817  1.5578  0.5412  1.1418
   50CHL1   C23 3685   5.454   5.442   5.820 -0.2899  0.1667 -0.0418
   50CHL1  H23A 3686   5.401   5.455   5.723 -0.7261 -2.5187 -0.2323
   50CHL1  H23B 3687   5.493   5.339   5.834 -3.0061 -1.0451 -0.7419
   50CHL1   C24 3688   5.347   5.475   5.931 -1.0381 -0.3130 -0.4163
   50CHL1  H24A 3689   5.310   5.574   5.897 -2.1333 -0.6173 -0.1331
   50CHL1  H24B 3690   5.255   5.416   5.911 -0.6203 -1.4507  0.9452
   50CHL1   C25 3691   5.395   5.492   6.078  0.3416  0.2800  0.4889
   50CHL1   H25 3692   5.440   5.593   6.079  0.2715  0.3986 -1.9145
   50CHL1   C26 3693   5.274   5.487   6.174 -0.4174  0.2248  0.3537
   50CHL1  H26A 3694   5.205   5.407   6.140 -0.8548  0.9212 -0.4203
   50CHL1  H26B 3695   5.296   5.500   6.282 -0.0975 -0.3952  0.3679
   50CHL1  H26C 3696   5.215   5.576   6.144  1.4273  1.6500  0.7917
   50CHL1   C27 3697   5.496   5.379   6.122  0.4451 -0.3832  0.1669
   50CHL1  H27A 3698   5.454   5.277   6.115  1.2057 -0.8021  1.4254
   50CHL1  H27B 3699   5.586   5.384   6.057  1.3168 -0.6313  1.3206
   50CHL1  H27C 3700   5.524   5.398   6.228 -2.8642  0.0498  1.0533
   51CHL1    C3 3701   1.976   1.084   5.064 -0.3463  0.1497  0.5916
   51CHL1    H3 3702   1.903   1.005   5.091 -1.7040  1.1699  0.0708
   51CHL1    O3 3703   1.953   1.109   4.924 -0.8323  0.2375 -0.1982
   51CHL1   H3' 3704   2.014   1.052   4.877  0.2303  2.1146 -1.2373
   51CHL1    C4 3705   1.952   1.215   5.141 -0.1681  0.4789 -0.4381
   51CHL1   H4A 3706   2.024   1.284   5.091  0.4453 -0.8520 -1.4535
   51CHL1   H4B 3707   1.850   1.258   5.131 -0.1921  0.7219  0.7325
   51CHL1    C5 3708   1.993   1.200   5.286  0.1126 -0.7743 -1.0265
   51CHL1    C6 3709   1.911   1.249   5.380 -0.6037  0.2083  0.9115
   51CHL1    H6 3710   1.818   1.295   5.344  0.7213  1.7915 -0.7352
   51CHL1    C7 3711   1.925   1.248   5.530  0.3214  0.2258 -0.4754
   51CHL1   H7A 3712   1.884   1.338   5.580 -3.6699 -1.6204  0.0028
   51CHL1   H7B 3713   1.862   1.165   5.569  0.6819  0.5359  0.8308
   51CHL1    C8 3714   2.069   1.201   5.581 -0.6953  0.0994  0.6155
   51CHL1    H8 3715   2.131   1.292   5.582 -0.7504  0.1467  2.4673
   51CHL1   C14 3716   2.068   1.132   5.719 -0.7064 -0.4764  0.0586
   51CHL1   H14 3717   2.013   1.039   5.693  0.1760 -0.4699 -1.9666
   51CHL1   C15 3718   1.990   1.197   5.840 -0.5515 -0.3482 -0.2093
   51CHL1  H15A 3719   2.009   1.304   5.821 -1.0878 -0.1853  0.1571
   51CHL1  H15B 3720   1.880   1.180   5.831 -0.3972 -1.3465 -0.3810
   51CHL1   C16 3721   2.055   1.130   5.960 -0.7583 -0.3022 -0.4584
   51CHL1  H16A 3722   2.095   1.201   6.035  1.5349 -1.1771 -0.7722
   51CHL1  H16B 3723   1.982   1.067   6.017 -1.8754  0.8664 -0.5502
   51CHL1   C17 3724   2.167   1.034   5.916 -0.6205 -0.1648  0.4393
   51CHL1   H17 3725   2.116   0.936   5.902  1.8774 -1.8571  2.2687
   51CHL1   C13 3726   2.203   1.091   5.777 -0.7780  0.1723 -0.5096
   51CHL1   C18 3727   2.304   1.208   5.804  0.2499 -0.1160  0.2753
   51CHL1  H18A 3728   2.408   1.172   5.819  0.6282  0.6981 -0.3148
   51CHL1  H18B 3729   2.302   1.278   5.718 -1.3241  1.1922  1.3172
   51CHL1  H18C 3730   2.266   1.268   5.890  0.2928  3.1227 -1.7980
   51CHL1   C12 3731   2.261   0.994   5.666 -0.3576  0.3445 -0.2760
   51CHL1  H12A 3732   2.364   0.972   5.699 -0.4984  1.5027  1.0553
   51CHL1  H12B 3733   2.194   0.906   5.651 -1.3602  1.3617 -2.2122
   51CHL1   C11 3734   2.270   1.056   5.533 -0.5831 -0.5761 -0.1528
   51CHL1  H11A 3735   2.339   1.143   5.540 -2.3172  0.7905  0.9208
   51CHL1  H11B 3736   2.304   0.976   5.464 -0.4365 -1.0825  0.4930
   51CHL1    C9 3737   2.135   1.107   5.479 -0.0594  0.3201  0.1644
   51CHL1    H9 3738   2.064   1.022   5.479  1.2524 -0.8683  2.1535
   51CHL1   C10 3739   2.132   1.145   5.325 -0.4301 -0.1162  0.4744
   51CHL1   C19 3740   2.244   1.254   5.290  0.1732  0.2985  0.7939
   51CHL1  H19A 3741   2.252   1.279   5.182  2.6702  0.7116  1.0073
   51CHL1  H19B 3742   2.226   1.348   5.345 -1.0389  1.5715 -1.6167
   51CHL1  H19C 3743   2.347   1.217   5.311  1.1032  1.8914 -0.7235
   51CHL1    C1 3744   2.149   1.020   5.233 -0.5110 -0.1517  0.5205
   51CHL1   H1A 3745   2.248   0.974   5.253 -0.5751 -0.7271 -0.4205
   51CHL1   H1B 3746   2.075   0.941   5.258 -0.9335  1.2086  4.2359
   51CHL1    C2 3747   2.118   1.040   5.075 -0.3147 -0.4099 -0.7178
   51CHL1   H2A 3748   2.125   0.947   5.015  2.3776  0.7018 -2.3265
   51CHL1   H2B 3749   2.196   1.097   5.019 -1.6949 -1.4330 -3.9294
   51CHL1   C20 3750   2.280   1.021   6.021  0.3665 -0.6704 -0.7625
   51CHL1   H20 3751   2.334   1.111   6.056  0.4158 -1.5903  1.6666
   51CHL1   C21 3752   2.386   0.922   5.979  0.3585  0.4971 -0.3151
   51CHL1  H21A 3753   2.454   0.896   6.063 -1.9907  0.0761  1.6045
   51CHL1  H21B 3754   2.445   0.967   5.897  1.3468  0.4482  0.3567
   51CHL1  H21C 3755   2.326   0.831   5.954 -0.8042  1.5880 -1.6223
   51CHL1   C22 3756   2.216   0.989   6.159 -0.2872 -0.1390 -0.3292
   51CHL1  H22A 3757   2.137   1.057   6.197 -2.1993 -2.9659  1.1050
   51CHL1  H22B 3758   2.174   0.891   6.129  0.6853  0.0686 -2.5338
   51CHL1   C23 3759   2.308   0.973   6.276 -0.3185  0.5182 -0.0016
   51CHL1  H23A 3760   2.395   0.908   6.253 -0.7776 -0.4130  0.8072
   51CHL1  H23B 3761   2.357   1.071   6.296  0.7336 -0.2836  1.5679
   51CHL1   C24 3762   2.227   0.918   6.396 -0.3298  0.2477  0.1693
   51CHL1  H24A 3763   2.129   0.970   6.406  0.9672  2.6128  1.5252
   51CHL1  H24B 3764   2.208   0.809   6.384  0.4971  0.1171  0.0385
   51CHL1   C25 3765   2.304   0.923   6.525  1.1479  0.3377  0.4338
   51CHL1   H25 3766   2.336   1.029   6.533 -1.0020  1.0469  0.3084
   51CHL1   C26 3767   2.213   0.890   6.652  0.8848 -1.1870  0.7020
   51CHL1  H26A 3768   2.134   0.968   6.656 -0.6853 -2.2410 -3.5810
   51CHL1  H26B 3769   2.154   0.796   6.644 -2.7642  0.8533  1.1961
   51CHL1  H26C 3770   2.267   0.888   6.749  0.6572  0.2526  0.8808
   51CHL1   C27 3771   2.433   0.842   6.518  0.5795  0.0520 -0.1527
   51CHL1  H27A 3772   2.489   0.868   6.610  0.5432  0.8456 -0.3539
   51CHL1  H27B 3773   2.425   0.731   6.506  0.4263  0.2493 -2.2628
   51CHL1  H27C 3774   2.492   0.858   6.425  0.0001 -0.5035 -0.6259
   52CHL1    C3 3775   0.537   3.652   4.483 -0.2175 -0.3884 -0.8569
   52CHL1    H3 3776   0.477   3.558   4.479 -1.6241  0.3200  1.4585
   52CHL1    O3 3777   0.582   3.699   4.353 -0.2419 -0.0341  0.3425
   52CHL1   H3' 3778   0.631   3.627   4.312  1.4112  1.5341 -0.6333
   52CHL1    C4 3779   0.462   3.779   4.538  0.3557  0.4730 -0.0833
   52CHL1   H4A 3780   0.513   3.875   4.515 -1.3499  2.3359  3.2547
   52CHL1   H4B 3781   0.371   3.782   4.475  0.9486  1.5619 -0.9202
   52CHL1    C5 3782   0.428   3.775   4.684  0.6915  0.8160  0.5353
   52CHL1    C6 3783   0.303   3.783   4.726  0.9222 -0.2605  0.2320
   52CHL1    H6 3784   0.219   3.797   4.656 -1.6728  0.7820  3.3066
   52CHL1    C7 3785   0.270   3.769   4.870  0.0535 -0.2157 -0.2409
   52CHL1   H7A 3786   0.186   3.833   4.905  0.0585  1.3661 -2.8691
   52CHL1   H7B 3787   0.237   3.664   4.885 -0.1608  0.0225  1.0648
   52CHL1    C8 3788   0.391   3.798   4.968  0.3347  0.0068  0.2457
   52CHL1    H8 3789   0.404   3.908   4.957  0.8308  0.0796  1.4504
   52CHL1   C14 3790   0.351   3.760   5.113  0.1793 -0.0428  0.8728
   52CHL1   H14 3791   0.325   3.652   5.110 -2.3058  0.5164  0.1143
   52CHL1   C15 3792   0.223   3.836   5.172  0.0934  0.5702  0.1022
   52CHL1  H15A 3793   0.239   3.945   5.161 -1.5809  0.8389  0.1780
   52CHL1  H15B 3794   0.123   3.820   5.126 -0.0554  1.8188 -0.0404
   52CHL1   C16 3795   0.233   3.797   5.326  0.4017 -0.3876  0.5435
   52CHL1  H16A 3796   0.218   3.886   5.391 -0.3207 -0.4917  0.5277
   52CHL1  H16B 3797   0.163   3.715   5.353 -1.3004  1.1916  1.1158
   52CHL1   C17 3798   0.375   3.738   5.347  0.1834  0.4565  1.1786
   52CHL1   H17 3799   0.359   3.628   5.338 -0.2637  0.5002  1.4115
   52CHL1   C13 3800   0.462   3.781   5.219  0.4014 -0.2814  0.0832
   52CHL1   C18 3801   0.503   3.932   5.230  0.8717  0.2315 -0.1672
   52CHL1  H18A 3802   0.428   4.005   5.268  1.8887  1.8743 -1.1641
   52CHL1  H18B 3803   0.594   3.946   5.292  1.3325 -1.1652 -0.4954
   52CHL1  H18C 3804   0.533   3.968   5.129  1.0105 -3.3446 -1.5288
   52CHL1   C12 3805   0.576   3.693   5.172 -0.5434 -0.4379 -0.1695
   52CHL1  H12A 3806   0.666   3.727   5.227  1.0842  3.2678 -4.4224
   52CHL1  H12B 3807   0.552   3.585   5.184  2.5805 -1.3903 -1.3667
   52CHL1   C11 3808   0.625   3.728   5.029  0.0912 -0.2711 -0.3802
   52CHL1  H11A 3809   0.660   3.833   5.023  1.1460 -0.5581  0.3853
   52CHL1  H11B 3810   0.711   3.664   4.998  0.1951  0.0887 -0.8331
   52CHL1    C9 3811   0.514   3.723   4.920 -0.2247  1.0573 -0.0203
   52CHL1    H9 3812   0.484   3.617   4.917 -0.7052  1.2002 -2.5747
   52CHL1   C10 3813   0.549   3.752   4.776 -0.4185 -0.1931  0.2878
   52CHL1   C19 3814   0.643   3.877   4.772 -0.7937  0.8287 -0.0463
   52CHL1  H19A 3815   0.625   3.945   4.857  0.0074 -1.0058  1.6719
   52CHL1  H19B 3816   0.751   3.858   4.784 -1.2555 -3.1589 -0.5686
   52CHL1  H19C 3817   0.633   3.937   4.678 -0.1697 -2.0744 -2.1185
   52CHL1    C1 3818   0.632   3.627   4.718  0.7486  0.0900 -0.4668
   52CHL1   H1A 3819   0.727   3.628   4.775  0.7342 -0.5524 -0.4264
   52CHL1   H1B 3820   0.569   3.541   4.750 -0.1845  1.2813  0.9942
   52CHL1    C2 3821   0.658   3.630   4.566  0.4623  0.2838 -0.3130
   52CHL1   H2A 3822   0.720   3.546   4.529  0.5632 -0.1677  0.8327
   52CHL1   H2B 3823   0.723   3.719   4.548 -1.5757  1.9969  0.3493
   52CHL1   C20 3824   0.442   3.772   5.482  0.1129 -0.7370  0.5170
   52CHL1   H20 3825   0.487   3.874   5.475 -1.0885 -0.0388  2.2938
   52CHL1   C21 3826   0.546   3.662   5.510 -0.2355 -0.9515 -0.7922
   52CHL1  H21A 3827   0.635   3.688   5.448 -0.1455 -1.0965 -0.7248
   52CHL1  H21B 3828   0.509   3.564   5.472 -1.6435  0.1851 -2.5655
   52CHL1  H21C 3829   0.581   3.667   5.615  0.3895  0.8145 -1.0597
   52CHL1   C22 3830   0.355   3.782   5.609  0.7255 -0.1019  0.0967
   52CHL1  H22A 3831   0.409   3.844   5.684  0.0492  2.5735 -1.4597
   52CHL1  H22B 3832   0.274   3.856   5.591  0.3940 -0.6782 -0.8615
   52CHL1   C23 3833   0.289   3.658   5.676  0.6314 -0.3190 -0.1962
   52CHL1  H23A 3834   0.213   3.608   5.611 -0.6864  0.5792  0.5881
   52CHL1  H23B 3835   0.361   3.584   5.717  0.2142 -1.1878 -0.9693
   52CHL1   C24 3836   0.198   3.709   5.800 -0.3809 -0.1583 -0.0750
   52CHL1  H24A 3837   0.171   3.815   5.775  2.6547  0.7390  0.1138
   52CHL1  H24B 3838   0.113   3.638   5.813  1.0493 -1.7441  0.9489
   52CHL1   C25 3839   0.276   3.707   5.922 -0.5182  0.2698 -0.7682
   52CHL1   H25 3840   0.379   3.745   5.908 -0.4207  0.5263  0.5143
   52CHL1   C26 3841   0.214   3.803   6.028 -0.5818  0.0406  0.1158
   52CHL1  H26A 3842   0.254   3.784   6.130  0.6836  3.6417  0.4602
   52CHL1  H26B 3843   0.239   3.910   6.013 -0.5204  0.1151  0.7592
   52CHL1  H26C 3844   0.104   3.793   6.033 -0.9024  1.8902 -1.6136
   52CHL1   C27 3845   0.266   3.564   5.972 -0.3889  0.8134 -0.2680
   52CHL1  H27A 3846   0.292   3.499   5.886  1.5901  0.1957  0.7317
   52CHL1  H27B 3847   0.340   3.553   6.055 -0.0244 -0.8522 -0.7799
   52CHL1  H27C 3848   0.162   3.549   6.007 -0.2492  0.7868  0.1446
   53CHL1    C3 3849   3.449   2.135   4.273 -0.5630 -0.3777 -0.2897
   53CHL1    H3 3850   3.539   2.072   4.289 -1.2650 -0.4615  4.6977
   53CHL1    O3 3851   3.423   2.149   4.133 -0.9825  0.2292 -0.2930
   53CHL1   H3' 3852   3.506   2.168   4.087 -0.2468  2.0212  1.6256
   53CHL1    C4 3853   3.329   2.074   4.352 -0.4075 -0.1762 -0.3534
   53CHL1   H4A 3854   3.234   2.127   4.329 -2.9521 -3.2419  2.0886
   53CHL1   H4B 3855   3.321   1.972   4.309 -2.7654 -1.5751  2.9720
   53CHL1    C5 3856   3.344   2.076   4.498 -0.4616 -0.0805  0.3958
   53CHL1    C6 3857   3.335   1.968   4.574 -0.3686  0.3697  0.3169
   53CHL1    H6 3858   3.311   1.870   4.531  0.4400  0.6390 -0.7871
   53CHL1    C7 3859   3.363   1.956   4.718 -0.2110 -0.2484 -0.0102
   53CHL1   H7A 3860   3.280   1.897   4.762  0.9414 -1.4631  0.5990
   53CHL1   H7B 3861   3.452   1.891   4.734 -0.1363  0.2252  1.6733
   53CHL1    C8 3862   3.378   2.095   4.787 -0.0160  0.3818  0.0460
   53CHL1    H8 3863   3.283   2.148   4.810 -0.3512 -1.2310  2.8203
   53CHL1   C14 3864   3.453   2.069   4.912  0.2397 -0.1013 -0.1598
   53CHL1   H14 3865   3.548   2.018   4.884  0.2715  0.3130 -0.8223
   53CHL1   C15 3866   3.382   1.981   5.007  0.3870 -1.0221  0.4462
   53CHL1  H15A 3867   3.274   2.010   5.011  0.0042 -2.4735  1.4242
   53CHL1  H15B 3868   3.403   1.874   4.984  1.1576 -0.7451 -0.1569
   53CHL1   C16 3869   3.446   2.017   5.140  0.8741  1.1489  0.1088
   53CHL1  H16A 3870   3.372   2.041   5.220  1.3496  3.8533 -0.1615
   53CHL1  H16B 3871   3.494   1.933   5.195 -1.7229 -0.1023  0.6164
   53CHL1   C17 3872   3.535   2.138   5.122  0.4566  0.0865 -0.4687
   53CHL1   H17 3873   3.635   2.093   5.104 -0.0426 -1.0968 -0.4381
   53CHL1   C13 3874   3.479   2.194   4.994 -0.1659  0.1393 -0.8076
   53CHL1   C18 3875   3.347   2.275   5.025 -0.3174  0.7992 -0.2290
   53CHL1  H18A 3876   3.271   2.209   5.073  0.8951 -1.4024 -1.1863
   53CHL1  H18B 3877   3.369   2.354   5.099  1.7620 -1.5278  1.8366
   53CHL1  H18C 3878   3.303   2.317   4.932 -0.1327  3.6230  0.8858
   53CHL1   C12 3879   3.566   2.288   4.906  0.5078  1.0742  0.4775
   53CHL1  H12A 3880   3.593   2.386   4.950  2.9558  1.2340 -1.1726
   53CHL1  H12B 3881   3.663   2.233   4.901 -0.6515 -1.0227 -0.1916
   53CHL1   C11 3882   3.504   2.320   4.769 -0.4750  0.0660  0.3890
   53CHL1  H11A 3883   3.407   2.374   4.776  0.2373  1.3329  0.6627
   53CHL1  H11B 3884   3.572   2.380   4.705 -0.0328  0.0309  0.8254
   53CHL1    C9 3885   3.459   2.190   4.694 -0.4373  0.0402  0.3101
   53CHL1    H9 3886   3.556   2.137   4.686 -0.8169 -0.8869  1.5176
   53CHL1   C10 3887   3.400   2.211   4.551 -0.0479 -0.4896  0.1998
   53CHL1   C19 3888   3.288   2.317   4.551 -0.0975 -0.0401 -0.1824
   53CHL1  H19A 3889   3.242   2.340   4.452  0.5326  1.6409 -0.1194
   53CHL1  H19B 3890   3.217   2.265   4.618 -0.5945 -0.4130 -0.9737
   53CHL1  H19C 3891   3.324   2.415   4.589 -1.4629  0.7145 -0.7628
   53CHL1    C1 3892   3.522   2.262   4.472  1.0513  0.1035  0.6406
   53CHL1   H1A 3893   3.531   2.366   4.509 -1.0829  0.1424  1.2057
   53CHL1   H1B 3894   3.613   2.201   4.492  1.4601  1.0171  1.6189
   53CHL1    C2 3895   3.499   2.265   4.326  0.3394  0.2452  0.1865
   53CHL1   H2A 3896   3.593   2.296   4.275 -0.8460 -1.8434 -3.6909
   53CHL1   H2B 3897   3.420   2.341   4.309  0.5592  0.6260  0.8448
   53CHL1   C20 3898   3.545   2.219   5.253 -0.0779  0.6743 -0.2231
   53CHL1   H20 3899   3.451   2.273   5.277 -1.1663 -0.3397 -2.0056
   53CHL1   C21 3900   3.662   2.326   5.235  0.8393  0.7455  0.1901
   53CHL1  H21A 3901   3.689   2.372   5.333 -0.0258  1.4228  0.1183
   53CHL1  H21B 3902   3.628   2.405   5.165  1.9473  1.9687  0.9642
   53CHL1  H21C 3903   3.747   2.273   5.188  0.6144 -1.0542  1.6875
   53CHL1   C22 3904   3.580   2.138   5.381  0.1530 -0.4954  0.7390
   53CHL1  H22A 3905   3.519   2.045   5.381  0.3978 -0.6584  0.8827
   53CHL1  H22B 3906   3.689   2.116   5.377  1.1225  3.6309 -1.6017
   53CHL1   C23 3907   3.564   2.213   5.513 -0.0003  0.9949 -0.0468
   53CHL1  H23A 3908   3.639   2.294   5.526  0.0342  0.7755  1.2965
   53CHL1  H23B 3909   3.462   2.250   5.537  0.4592  0.2356  3.6969
   53CHL1   C24 3910   3.597   2.124   5.640  0.3247  0.6819 -0.7311
   53CHL1  H24A 3911   3.518   2.046   5.637 -1.0359  1.9933 -0.5883
   53CHL1  H24B 3912   3.699   2.085   5.621 -0.3483 -0.9608 -1.1695
   53CHL1   C25 3913   3.584   2.206   5.765 -0.0103 -0.2855  0.7352
   53CHL1   H25 3914   3.642   2.301   5.764  0.2252 -0.4347  0.2153
   53CHL1   C26 3915   3.436   2.244   5.799 -0.2433  0.2270  0.3664
   53CHL1  H26A 3916   3.448   2.317   5.882 -2.0598  0.3837  0.5298
   53CHL1  H26B 3917   3.379   2.282   5.711  1.7674  0.5036 -0.8631
   53CHL1  H26C 3918   3.394   2.151   5.844 -0.0433 -0.5814 -1.0725
   53CHL1   C27 3919   3.639   2.133   5.883 -0.0009 -0.8683  0.0597
   53CHL1  H27A 3920   3.745   2.109   5.863  1.2816  3.7015  0.2816
   53CHL1  H27B 3921   3.632   2.198   5.972  1.4628  1.3138 -1.3369
   53CHL1  H27C 3922   3.581   2.040   5.904  2.2761 -2.7011 -1.2569
   54CHL1    C3 3923   3.268   2.860   4.587 -0.1763  0.6474  0.4441
   54CHL1    H3 3924   3.159   2.839   4.596  0.3438 -1.6461  2.3368
   54CHL1    O3 3925   3.288   2.891   4.448  0.2195 -0.1503 -0.0802
   54CHL1   H3' 3926   3.381   2.915   4.452  0.3995 -0.7020 -0.7258
   54CHL1    C4 3927   3.306   2.984   4.674 -0.0200  0.4661 -0.7043
   54CHL1   H4A 3928   3.402   3.032   4.648  2.2021 -2.7397  0.9214
   54CHL1   H4B 3929   3.224   3.049   4.636  0.3565  0.2145 -1.9992
   54CHL1    C5 3930   3.291   2.959   4.822 -0.0833 -0.1118 -0.4263
   54CHL1    C6 3931   3.209   3.027   4.906  0.1359  0.7635  0.3180
   54CHL1    H6 3932   3.161   3.115   4.863  1.6350  0.3128 -2.4755
   54CHL1    C7 3933   3.206   3.001   5.055 -0.3951 -0.2634 -0.2438
   54CHL1   H7A 3934   3.200   3.097   5.110  2.3076  0.0204 -0.3128
   54CHL1   H7B 3935   3.104   2.957   5.048 -0.6277 -0.0605  1.4240
   54CHL1    C8 3936   3.321   2.909   5.107  0.1229 -0.2553  0.1018
   54CHL1    H8 3937   3.405   2.981   5.103  0.5446 -0.7657 -0.3900
   54CHL1   C14 3938   3.291   2.860   5.248 -0.7477  1.0550 -0.7719
   54CHL1   H14 3939   3.199   2.799   5.232 -0.7702  0.3518  1.6847
   54CHL1   C15 3940   3.266   2.960   5.357 -0.4697 -0.2038 -0.5107
   54CHL1  H15A 3941   3.343   3.040   5.349  0.7232 -1.4181 -1.6808
   54CHL1  H15B 3942   3.165   3.005   5.343 -1.3038 -1.3054  1.5306
   54CHL1   C16 3943   3.285   2.888   5.490  0.4385  0.0341 -0.1979
   54CHL1  H16A 3944   3.361   2.946   5.545 -2.3667  1.7042  2.2222
   54CHL1  H16B 3945   3.187   2.888   5.543 -0.6337 -0.4394 -2.0844
   54CHL1   C17 3946   3.331   2.746   5.454 -0.3390  0.0287  0.0916
   54CHL1   H17 3947   3.242   2.679   5.445  0.3735 -0.9133 -0.0488
   54CHL1   C13 3948   3.394   2.758   5.314  0.2584 -0.4405 -0.4904
   54CHL1   C18 3949   3.532   2.822   5.327 -0.3483  0.2053 -0.5095
   54CHL1  H18A 3950   3.538   2.877   5.423  0.5900  2.2683 -1.6651
   54CHL1  H18B 3951   3.613   2.746   5.327 -1.2312 -0.7665 -0.6946
   54CHL1  H18C 3952   3.550   2.904   5.254  1.3471 -1.1693 -1.7000
   54CHL1   C12 3953   3.399   2.640   5.212 -0.1256 -0.6318 -0.6648
   54CHL1  H12A 3954   3.478   2.566   5.235 -1.2364 -1.9090 -0.8102
   54CHL1  H12B 3955   3.311   2.573   5.225  0.4633 -1.0815  1.2536
   54CHL1   C11 3956   3.435   2.678   5.074 -0.3852 -0.6202  0.2643
   54CHL1  H11A 3957   3.537   2.722   5.086 -0.7579  0.0822  1.0225
   54CHL1  H11B 3958   3.446   2.587   5.012  0.4428 -0.1852 -0.2552
   54CHL1    C9 3959   3.336   2.785   5.014  0.3640  0.3633  0.0924
   54CHL1    H9 3960   3.238   2.734   5.018  0.5034  0.1640  1.0666
   54CHL1   C10 3961   3.372   2.832   4.873  0.1850 -0.8121  0.7088
   54CHL1   C19 3962   3.522   2.870   4.866 -0.4179  0.5908 -0.0768
   54CHL1  H19A 3963   3.552   2.944   4.944  0.6354 -0.3889  0.4766
   54CHL1  H19B 3964   3.583   2.781   4.894  0.6723  1.4041  0.1885
   54CHL1  H19C 3965   3.553   2.908   4.767  0.0681 -1.5698 -0.8129
   54CHL1    C1 3966   3.348   2.719   4.771  0.4454  0.4292  0.0464
   54CHL1   H1A 3967   3.414   2.639   4.809 -0.3973 -1.2225 -1.8309
   54CHL1   H1B 3968   3.244   2.682   4.787  0.5033 -0.0592 -0.6814
   54CHL1    C2 3969   3.353   2.740   4.620 -0.1262 -0.5283  1.0560
   54CHL1   H2A 3970   3.311   2.655   4.563 -0.9913 -0.5407  1.6739
   54CHL1   H2B 3971   3.458   2.761   4.594 -0.4031  0.1839  0.4633
   54CHL1   C20 3972   3.410   2.668   5.560 -0.1765  0.1376  0.1839
   54CHL1   H20 3973   3.514   2.706   5.552  0.6139 -1.9627 -0.2503
   54CHL1   C21 3974   3.419   2.520   5.528  0.2183 -0.9234 -0.4149
   54CHL1  H21A 3975   3.481   2.495   5.439 -0.4352 -0.8924 -0.8890
   54CHL1  H21B 3976   3.318   2.474   5.515 -0.7893  1.1991 -0.5387
   54CHL1  H21C 3977   3.469   2.459   5.606 -0.5225 -0.0023  0.8184
   54CHL1   C22 3978   3.351   2.704   5.696  0.5158  0.2620 -0.4434
   54CHL1  H22A 3979   3.383   2.809   5.716 -1.9792  1.2007 -1.0305
   54CHL1  H22B 3980   3.240   2.702   5.704  0.3717  2.1604 -1.3891
   54CHL1   C23 3981   3.425   2.629   5.816  0.1507 -0.4159 -0.2761
   54CHL1  H23A 3982   3.412   2.520   5.798  1.8370 -0.3595 -2.3454
   54CHL1  H23B 3983   3.530   2.660   5.797  0.1677 -0.6721 -0.6108
   54CHL1   C24 3984   3.398   2.656   5.960 -0.2347 -0.0757  0.3761
   54CHL1  H24A 3985   3.454   2.588   6.028 -0.2419 -0.7331 -0.2609
   54CHL1  H24B 3986   3.441   2.755   5.986  2.5346 -1.1881  0.3378
   54CHL1   C25 3987   3.249   2.654   5.994  0.1127  0.4173  0.1849
   54CHL1   H25 3988   3.182   2.724   5.940  1.9016  3.0714  1.2201
   54CHL1   C26 3989   3.198   2.508   5.976  0.1583  0.2029 -0.9272
   54CHL1  H26A 3990   3.130   2.470   6.055  2.8142  0.7515  1.7925
   54CHL1  H26B 3991   3.168   2.486   5.871  0.0216 -0.7756 -0.6955
   54CHL1  H26C 3992   3.284   2.440   5.995  1.1343  1.8103  0.8383
   54CHL1   C27 3993   3.245   2.691   6.136  0.8412 -0.6904  0.7927
   54CHL1  H27A 3994   3.289   2.791   6.156 -2.3350  0.1989  4.4625
   54CHL1  H27B 3995   3.146   2.686   6.185 -0.5996  0.8005 -1.7379
   54CHL1  H27C 3996   3.314   2.633   6.201  0.3536 -1.1374  0.9178
   55CHL1    C3 3997   2.617   5.342   4.613 -0.9608  0.3474  0.0573
   55CHL1    H3 3998   2.684   5.263   4.653  2.1382  3.1396  0.7532
   55CHL1    O3 3999   2.618   5.356   4.473 -0.2098 -0.4674  0.3844
   55CHL1   H3' 4000   2.680   5.424   4.445  0.9532 -1.8927 -0.6949
   55CHL1    C4 4001   2.476   5.322   4.669 -0.2954  0.4704 -0.1612
   55CHL1   H4A 4002   2.417   5.410   4.636 -0.9845  0.2259  0.3953
   55CHL1   H4B 4003   2.438   5.232   4.616  0.2276 -0.8075  1.5454
   55CHL1    C5 4004   2.474   5.294   4.817  0.5724  0.8373 -0.1710
   55CHL1    C6 4005   2.427   5.181   4.873 -0.0139 -0.5715 -0.8193
   55CHL1    H6 4006   2.397   5.111   4.794 -0.9325  0.7914 -1.7331
   55CHL1    C7 4007   2.429   5.147   5.021  0.0564  0.4470 -0.0519
   55CHL1   H7A 4008   2.329   5.125   5.063  1.2149 -0.4389  2.3994
   55CHL1   H7B 4009   2.492   5.059   5.044  1.9818  1.7010 -0.2877
   55CHL1    C8 4010   2.452   5.277   5.109  0.5678 -0.4989 -0.4526
   55CHL1    H8 4011   2.352   5.322   5.117 -0.8696 -3.6574  1.9465
   55CHL1   C14 4012   2.483   5.238   5.256 -0.4981  0.4868  0.2697
   55CHL1   H14 4013   2.573   5.172   5.254 -0.4213  0.5897 -1.9972
   55CHL1   C15 4014   2.373   5.158   5.329 -0.3205  0.0434 -0.1484
   55CHL1  H15A 4015   2.274   5.201   5.302 -0.4579  0.2627  0.6549
   55CHL1  H15B 4016   2.385   5.051   5.306  0.6032  0.2194 -0.5309
   55CHL1   C16 4017   2.402   5.189   5.475  0.1088 -0.0929  0.2029
   55CHL1  H16A 4018   2.319   5.246   5.521  0.4168 -0.9038  1.8404
   55CHL1  H16B 4019   2.425   5.094   5.526  2.1163 -1.7478 -3.3681
   55CHL1   C17 4020   2.531   5.292   5.479  0.7979  0.7808  0.9645
   55CHL1   H17 4021   2.622   5.229   5.484 -1.0823 -2.3291 -0.8974
   55CHL1   C13 4022   2.514   5.365   5.338 -0.0320 -0.6944  0.3503
   55CHL1   C18 4023   2.389   5.463   5.342  0.1757 -0.1622  0.5679
   55CHL1  H18A 4024   2.306   5.425   5.405 -0.4662 -1.3579 -0.9226
   55CHL1  H18B 4025   2.418   5.568   5.362  2.6025 -0.4605 -0.9532
   55CHL1  H18C 4026   2.353   5.464   5.236 -0.1416  0.0429  0.6741
   55CHL1   C12 4027   2.642   5.433   5.284  0.1781  0.5942  0.5641
   55CHL1  H12A 4028   2.670   5.509   5.359 -0.8276  0.3506  1.2018
   55CHL1  H12B 4029   2.721   5.355   5.279 -0.7167 -0.2855 -0.6251
   55CHL1   C11 4030   2.613   5.479   5.141  0.0167 -0.0507 -0.5947
   55CHL1  H11A 4031   2.538   5.560   5.149 -0.2340 -0.3915  0.9219
   55CHL1  H11B 4032   2.705   5.524   5.099 -0.8500  0.0161 -2.5172
   55CHL1    C9 4033   2.561   5.366   5.045 -0.2338 -0.4479  0.0378
   55CHL1    H9 4034   2.649   5.299   5.038  1.9149  2.2460 -0.4123
   55CHL1   C10 4035   2.524   5.413   4.902  0.8426  0.5025  0.3802
   55CHL1   C19 4036   2.423   5.527   4.909 -0.2899 -0.1307 -0.3747
   55CHL1  H19A 4037   2.481   5.614   4.945 -0.3607 -0.8031  1.4539
   55CHL1  H19B 4038   2.390   5.548   4.805  1.4623 -0.0447 -0.9462
   55CHL1  H19C 4039   2.351   5.503   4.990  0.0167 -0.7441 -0.2755
   55CHL1    C1 4040   2.655   5.466   4.833  0.1557 -0.0295  0.4009
   55CHL1   H1A 4041   2.689   5.562   4.878  0.2626 -1.4194  3.6169
   55CHL1   H1B 4042   2.741   5.400   4.856 -1.2664 -2.0373  0.1984
   55CHL1    C2 4043   2.651   5.475   4.678  0.3069  0.4556  0.3743
   55CHL1   H2A 4044   2.757   5.498   4.652  1.2360 -1.8491  1.7643
   55CHL1   H2B 4045   2.580   5.553   4.643  0.7723  0.5478 -0.3882
   55CHL1   C20 4046   2.520   5.369   5.608 -0.5059 -0.3690 -0.0225
   55CHL1   H20 4047   2.447   5.451   5.589 -0.5375 -0.6004 -0.9280
   55CHL1   C21 4048   2.668   5.417   5.631  0.3299 -0.8128  0.1369
   55CHL1  H21A 4049   2.723   5.473   5.553  2.6502 -1.9563  0.8301
   55CHL1  H21B 4050   2.730   5.331   5.665  0.0536 -1.8629 -1.8643
   55CHL1  H21C 4051   2.663   5.485   5.719  2.4993 -2.6604  1.8263
   55CHL1   C22 4052   2.477   5.274   5.723  0.5183  0.0579 -0.1047
   55CHL1  H22A 4053   2.366   5.267   5.725  0.4869  0.3184 -0.7220
   55CHL1  H22B 4054   2.510   5.168   5.723  0.8691  0.1669  0.0952
   55CHL1   C23 4055   2.515   5.330   5.864 -0.1237  0.0350 -0.4345
   55CHL1  H23A 4056   2.622   5.305   5.881  0.1157  0.7628 -0.7955
   55CHL1  H23B 4057   2.510   5.441   5.858  0.0695 -0.0218 -2.9364
   55CHL1   C24 4058   2.425   5.267   5.972  0.8642 -0.6710 -0.5539
   55CHL1  H24A 4059   2.321   5.280   5.935  1.5661  1.9216 -1.8811
   55CHL1  H24B 4060   2.452   5.160   5.982  1.2423 -0.6010 -0.8489
   55CHL1   C25 4061   2.435   5.328   6.114 -0.0250  0.1085 -0.2050
   55CHL1   H25 4062   2.542   5.330   6.144 -0.0509  2.4714 -0.0514
   55CHL1   C26 4063   2.381   5.478   6.112 -0.3882  0.0862  0.0074
   55CHL1  H26A 4064   2.462   5.536   6.062 -1.0471  0.5694 -0.5152
   55CHL1  H26B 4065   2.297   5.488   6.041  1.3532  2.9326 -1.8693
   55CHL1  H26C 4066   2.365   5.522   6.213  1.7608  0.4752  0.2413
   55CHL1   C27 4067   2.355   5.252   6.218  0.8234 -0.0012 -0.7832
   55CHL1  H27A 4068   2.397   5.156   6.256  0.0588  0.7629  2.1962
   55CHL1  H27B 4069   2.344   5.314   6.309  0.8203 -1.0612 -0.0471
   55CHL1  H27C 4070   2.252   5.239   6.178  0.1364 -0.0339  0.9336
   56CHL1    C3 4071   4.847   4.411   4.537  0.1000 -0.2698 -0.0220
   56CHL1    H3 4072   4.791   4.315   4.534 -0.6169  0.0990  0.9252
   56CHL1    O3 4073   4.870   4.442   4.405 -0.9711  0.0653  0.7018
   56CHL1   H3' 4074   4.934   4.514   4.406  1.3543 -1.7916 -1.1683
   56CHL1    C4 4075   4.778   4.519   4.609  0.2797 -1.0021 -0.0434
   56CHL1   H4A 4076   4.846   4.608   4.611 -2.2521  1.1298 -1.8536
   56CHL1   H4B 4077   4.682   4.551   4.563  0.8354  0.8795 -0.0103
   56CHL1    C5 4078   4.758   4.489   4.755 -0.1536 -0.4428  0.7341
   56CHL1    C6 4079   4.633   4.477   4.805  0.1547  0.3012  0.3147
   56CHL1    H6 4080   4.547   4.493   4.739  0.7872 -1.0269 -0.8805
   56CHL1    C7 4081   4.600   4.447   4.944  0.1537 -0.1531 -0.0334
   56CHL1   H7A 4082   4.518   4.515   4.975 -0.2699 -0.7949  0.2612
   56CHL1   H7B 4083   4.553   4.347   4.950 -1.5688  0.5824 -0.5144
   56CHL1    C8 4084   4.731   4.448   5.037  0.3236  0.1321 -0.2238
   56CHL1    H8 4085   4.762   4.553   5.055 -0.7729  0.3057  0.8252
   56CHL1   C14 4086   4.692   4.389   5.169 -0.0219  0.6228  0.0270
   56CHL1   H14 4087   4.647   4.292   5.142 -0.0842  0.1133  1.8390
   56CHL1   C15 4088   4.579   4.453   5.257  0.2828  0.7304 -0.2002
   56CHL1  H15A 4089   4.611   4.557   5.278 -1.1693  1.1057  0.2802
   56CHL1  H15B 4090   4.474   4.456   5.221 -0.6700 -0.4927  2.2273
   56CHL1   C16 4091   4.596   4.371   5.386  0.6872 -0.4695  0.3845
   56CHL1  H16A 4092   4.588   4.434   5.477  0.1927  3.6653 -2.2429
   56CHL1  H16B 4093   4.517   4.295   5.402 -0.2296  0.8224  2.3107
   56CHL1   C17 4094   4.730   4.294   5.376  0.0533  0.1438 -0.1595
   56CHL1   H17 4095   4.706   4.194   5.335  0.0636  1.0078 -2.3607
   56CHL1   C13 4096   4.812   4.363   5.262  0.5858 -0.6724  0.6670
   56CHL1   C18 4097   4.868   4.494   5.321  0.8450  0.2342  0.5232
   56CHL1  H18A 4098   4.881   4.564   5.236 -0.4652 -1.9638 -1.6022
   56CHL1  H18B 4099   4.819   4.539   5.410  0.3387  0.6511  0.0407
   56CHL1  H18C 4100   4.973   4.472   5.352  0.6982 -3.2709 -0.9397
   56CHL1   C12 4101   4.916   4.278   5.193  0.4521  0.5795 -0.0800
   56CHL1  H12A 4102   5.004   4.259   5.258 -0.3730 -0.2746  0.8206
   56CHL1  H12B 4103   4.870   4.179   5.174 -0.5017  1.3560 -2.1602
   56CHL1   C11 4104   4.960   4.343   5.070 -0.0848 -0.6748 -0.0017
   56CHL1  H11A 4105   5.019   4.433   5.098  0.4761 -1.5016  1.5864
   56CHL1  H11B 4106   5.032   4.273   5.023 -1.2366 -1.1867 -1.0702
   56CHL1    C9 4107   4.843   4.377   4.973 -0.5139  0.2010  0.0866
   56CHL1    H9 4108   4.799   4.277   4.952  3.1119 -1.8194  1.2161
   56CHL1   C10 4109   4.884   4.443   4.834  0.2055  1.1461 -0.6217
   56CHL1   C19 4110   4.990   4.558   4.864 -0.0427  0.1013 -0.2361
   56CHL1  H19A 4111   4.999   4.635   4.785  2.1832  1.5564  1.3266
   56CHL1  H19B 4112   4.941   4.612   4.948 -2.0748 -1.6762 -0.1823
   56CHL1  H19C 4113   5.086   4.516   4.901  0.8924  0.0076 -2.5832
   56CHL1    C1 4114   4.957   4.339   4.749  0.2631 -0.3047 -0.4694
   56CHL1   H1A 4115   5.047   4.298   4.801  1.3696 -0.8753 -2.7245
   56CHL1   H1B 4116   4.890   4.250   4.750 -0.3141  0.0602 -2.3784
   56CHL1    C2 4117   4.980   4.377   4.608 -0.6633 -0.4771  0.3064
   56CHL1   H2A 4118   5.034   4.293   4.561 -0.9380  0.2099 -1.2842
   56CHL1   H2B 4119   5.051   4.462   4.607 -0.0438 -0.8140  3.6211
   56CHL1   C20 4120   4.804   4.264   5.513  0.0115  0.2743 -0.2635
   56CHL1   H20 4121   4.861   4.357   5.535 -1.7228  1.3246 -0.0615
   56CHL1   C21 4122   4.906   4.143   5.497  0.8022 -0.4892 -0.1939
   56CHL1  H21A 4123   4.985   4.138   5.575 -0.4718  0.3140  1.2202
   56CHL1  H21B 4124   4.962   4.142   5.402  3.2095  1.6871  1.0814
   56CHL1  H21C 4125   4.846   4.049   5.505 -0.9810  0.7173  1.7951
   56CHL1   C22 4126   4.708   4.235   5.636 -0.6019 -0.1304 -0.3644
   56CHL1  H22A 4127   4.632   4.316   5.634  0.5490  1.0719 -3.7698
   56CHL1  H22B 4128   4.675   4.131   5.620  1.4054 -0.8961  0.1641
   56CHL1   C23 4129   4.781   4.231   5.768 -0.3221  0.5936 -0.3460
   56CHL1  H23A 4130   4.840   4.137   5.761 -0.9316  0.1982 -0.3014
   56CHL1  H23B 4131   4.847   4.317   5.789 -0.2389  0.3506  0.4264
   56CHL1   C24 4132   4.682   4.206   5.883  0.3855  0.3208  0.0037
   56CHL1  H24A 4133   4.622   4.297   5.900 -4.5919 -1.9053 -3.2049
   56CHL1  H24B 4134   4.611   4.124   5.858  0.5530  0.2819 -0.3531
   56CHL1   C25 4135   4.746   4.185   6.015  0.4885  0.2795 -1.2574
   56CHL1   H25 4136   4.825   4.109   5.997  1.3705  0.9697 -0.3797
   56CHL1   C26 4137   4.789   4.308   6.089 -0.3664 -0.6141 -0.0496
   56CHL1  H26A 4138   4.841   4.290   6.185 -0.2391  1.7265  0.3989
   56CHL1  H26B 4139   4.881   4.350   6.043 -0.9352  1.6774  0.7325
   56CHL1  H26C 4140   4.712   4.387   6.106 -1.7649 -1.4275 -2.1460
   56CHL1   C27 4141   4.649   4.109   6.107  0.3767  0.9787 -0.6769
   56CHL1  H27A 4142   4.618   4.016   6.056 -1.2166  1.5876 -0.8834
   56CHL1  H27B 4143   4.680   4.090   6.212 -0.7489 -0.0603 -0.5146
   56CHL1  H27C 4144   4.557   4.168   6.127 -0.0214  0.2277 -0.2719
   57SAPC     N 4145   2.024   5.884   8.547 -1.0231 -0.3356 -0.3291
   57SAPC   C12 4146   1.877   5.902   8.582 -0.5740 -0.2534  0.1220
   57SAPC  H12A 4147   1.865   5.984   8.651  1.7806 -0.1099  0.4169
   57SAPC  H12B 4148   1.847   5.812   8.634  1.0264 -0.4629  0.7246
   57SAPC   C13 4149   2.076   6.020   8.499  0.1032  0.1443 -0.0831
   57SAPC  H13A 4150   2.081   6.096   8.575 -0.7968  0.9583 -0.8126
   57SAPC  H13B 4151   2.178   6.008   8.465 -0.1814  0.9443 -1.2662
   57SAPC  H13C 4152   2.023   6.061   8.415  0.9354 -3.1058 -2.3912
   57SAPC   C14 4153   2.094   5.849   8.673  0.0430  0.0401  0.4928
   57SAPC  H14A 4154   2.082   5.924   8.751 -1.5003 -1.7465  2.0742
   57SAPC  H14B 4155   2.046   5.757   8.703 -2.0451  1.3272  1.3761
   57SAPC  H14C 4156   2.200   5.833   8.665  0.3099  1.8008  0.1142
   57SAPC   C15 4157   2.058   5.768   8.453  0.1937 -0.5406 -0.0134
   57SAPC  H15A 4158   2.024   5.673   8.490  1.0993 -0.1558  1.9201
   57SAPC  H15B 4159   2.012   5.785   8.357 -1.3444 -1.6109  0.4971
   57SAPC  H15C 4160   2.165   5.763   8.440  0.0423  1.0861 -2.6732
   57SAPC   C11 4161   1.774   5.934   8.468 -0.2433 -0.3908 -0.2529
   57SAPC  H11A 4162   1.673   5.909   8.508  0.1754 -0.4801  0.7901
   57SAPC  H11B 4163   1.801   5.863   8.388  0.6294 -0.3249 -0.0269
   57SAPC     P 4164   1.710   6.188   8.478  0.0500  0.3902 -0.0033
   57SAPC   O13 4165   1.637   6.141   8.597  0.6752 -0.1627  0.0866
   57SAPC   O14 4166   1.793   6.312   8.492  0.4788  0.6223  0.0405
   57SAPC   O12 4167   1.791   6.067   8.423 -0.6031  0.0170  0.8876
   57SAPC   O11 4168   1.602   6.212   8.371  0.1024  0.2197  0.0821
   57SAPC    C1 4169   1.505   6.112   8.347 -0.2563  0.4115 -0.2347
   57SAPC    HA 4170   1.491   6.028   8.419  0.8920 -2.1976 -2.8273
   57SAPC    HB 4171   1.404   6.155   8.329 -1.1337 -2.1652 -2.2546
   57SAPC    C2 4172   1.529   6.051   8.206 -0.5390  0.1768 -0.1250
   57SAPC    HS 4173   1.626   5.998   8.204 -1.0580 -0.7737 -0.7545
   57SAPC   O21 4174   1.529   6.165   8.112 -0.5336 -0.3071 -0.2947
   57SAPC   C21 4175   1.625   6.155   8.020 -0.2022 -0.5552  0.2588
   57SAPC   O22 4176   1.693   6.052   7.998  0.3902 -0.6784 -0.1369
   57SAPC   C22 4177   1.651   6.290   7.951  1.0171 -0.5501  0.6454
   57SAPC   H2R 4178   1.755   6.328   7.950  1.4207 -1.1510 -3.9778
   57SAPC   H2S 4179   1.625   6.262   7.847 -0.8170 -0.3732  1.0240
   57SAPC    C3 4180   1.424   5.944   8.154  0.3309 -0.2744 -0.3358
   57SAPC    HX 4181   1.339   6.014   8.141  0.3188 -0.4106 -1.0267
   57SAPC    HY 4182   1.408   5.867   8.232  1.7043 -0.5095 -0.2601
   57SAPC   O31 4183   1.455   5.886   8.029  0.0274 -0.2984 -0.0894
   57SAPC   C31 4184   1.534   5.783   8.028  0.0939  0.6640  0.6639
   57SAPC   O32 4185   1.578   5.723   8.125 -0.5216  0.1419  0.3518
   57SAPC   C32 4186   1.565   5.746   7.873  0.3879 -1.0357 -0.4647
   57SAPC   H2X 4187   1.614   5.832   7.823  1.6708 -1.8505 -0.6497
   57SAPC   H2Y 4188   1.462   5.742   7.831 -1.0436 -0.3761  2.6763
   57SAPC   C23 4189   1.554   6.407   7.981  0.0619 -0.0029 -0.4009
   57SAPC   H3R 4190   1.569   6.448   8.083  0.0382 -0.3180 -0.2683
   57SAPC   H3S 4191   1.449   6.371   7.991 -0.5133  0.5754 -3.3537
   57SAPC   C24 4192   1.556   6.518   7.873  0.1931  0.4366 -0.3197
   57SAPC   H4R 4193   1.482   6.595   7.902  1.0062  0.9080  0.5616
   57SAPC   H4S 4194   1.503   6.479   7.784  1.1765 -0.1263 -0.6792
   57SAPC   C25 4195   1.693   6.568   7.846 -0.2356 -0.8689  0.2774
   57SAPC   H5R 4196   1.740   6.603   7.939  0.5506  0.1074 -0.4718
   57SAPC   C26 4197   1.753   6.564   7.726  0.1952  0.0666  0.2277
   57SAPC   H6R 4198   1.854   6.609   7.720  0.2123 -0.1417 -1.5773
   57SAPC   C27 4199   1.684   6.520   7.600  1.1289  0.4146 -0.7275
   57SAPC   H7R 4200   1.620   6.605   7.569  1.2708  0.8262  0.0831
   57SAPC   H7S 4201   1.613   6.435   7.612  2.0376 -0.3714 -0.8089
   57SAPC   C28 4202   1.775   6.498   7.489  0.5892  0.2695  0.5013
   57SAPC   H8R 4203   1.827   6.402   7.503 -0.7222 -0.1925  2.8117
   57SAPC   C29 4204   1.808   6.587   7.394  0.0166 -1.0356 -0.3198
   57SAPC   H9R 4205   1.889   6.563   7.324  2.9309  0.1292  2.3627
   57SAPC  C210 4206   1.733   6.719   7.374  0.4391 -0.6055 -0.0130
   57SAPC  H10R 4207   1.812   6.782   7.327  0.9665 -0.2282  1.3272
   57SAPC  H10S 4208   1.720   6.771   7.471  0.3933  2.0271 -1.3278
   57SAPC  C211 4209   1.599   6.716   7.293 -0.0096 -0.0454 -0.5093
   57SAPC  H11R 4210   1.550   6.618   7.302  0.8554 -0.5244 -0.8457
   57SAPC  C212 4211   1.553   6.805   7.206 -0.1711 -0.9871 -0.8413
   57SAPC  H12R 4212   1.456   6.774   7.166 -2.7395  2.9433  1.6947
   57SAPC  C213 4213   1.601   6.945   7.175 -0.0764 -0.1068  0.1813
   57SAPC  H13R 4214   1.636   6.945   7.070  2.7798 -2.9882  0.9512
   57SAPC  H13S 4215   1.701   6.961   7.219 -0.4397  1.4777  0.5074
   57SAPC  C214 4216   1.522   7.064   7.210  0.2616  0.2907  0.7221
   57SAPC  H14R 4217   1.430   7.073   7.151  1.6470 -0.6353 -1.7341
   57SAPC  C215 4218   1.543   7.150   7.318  0.3525 -0.1896 -0.2987
   57SAPC  H15R 4219   1.468   7.226   7.344 -0.7320 -0.5901 -2.0186
   57SAPC  C216 4220   1.658   7.154   7.416  0.6101  0.4875 -0.4837
   57SAPC  H16R 4221   1.698   7.256   7.433  3.5587 -0.7671  0.7854
   57SAPC  H16S 4222   1.747   7.103   7.374 -0.4274 -1.3931 -0.4763
   57SAPC  C217 4223   1.618   7.080   7.550  0.2496  0.5608 -0.3282
   57SAPC  H17R 4224   1.611   6.971   7.535  0.7140  0.3351  0.9640
   57SAPC  H17S 4225   1.525   7.125   7.590 -0.5535  1.6302 -3.1124
   57SAPC  C218 4226   1.729   7.088   7.648  0.4334 -0.3903  0.1865
   57SAPC  H18R 4227   1.740   7.196   7.674  1.4877  0.5026 -3.3324
   57SAPC  H18S 4228   1.822   7.060   7.595  0.3234 -2.0405  0.8133
   57SAPC  C219 4229   1.722   6.988   7.763 -0.3755  0.0717  0.4974
   57SAPC  H19R 4230   1.808   7.005   7.830  1.1031  0.2721 -1.3800
   57SAPC  H19S 4231   1.709   6.882   7.734  0.9591 -0.5930  2.1762
   57SAPC  C220 4232   1.596   7.010   7.847  0.0578  0.0617 -0.2445
   57SAPC  H20R 4233   1.601   7.104   7.907 -1.0392 -0.4492  0.6808
   57SAPC  H20S 4234   1.584   6.925   7.918 -1.2343 -1.4009 -2.1222
   57SAPC  H20T 4235   1.502   7.016   7.788  1.3826 -0.0546 -2.4705
   57SAPC   C33 4236   1.663   5.629   7.850  0.4815 -1.1900  0.1342
   57SAPC   H3X 4237   1.628   5.553   7.922 -0.9510  0.0400  0.7759
   57SAPC   H3Y 4238   1.768   5.658   7.873  0.3584 -0.0018 -0.6802
   57SAPC   C34 4239   1.644   5.564   7.716 -0.2015  0.0222 -0.4216
   57SAPC   H4X 4240   1.541   5.522   7.725 -0.8239  1.4318 -0.7498
   57SAPC   H4Y 4241   1.718   5.482   7.704  0.0426 -0.2317  2.2968
   57SAPC   C35 4242   1.646   5.659   7.590 -0.5358 -0.4226  0.4042
   57SAPC   H5X 4243   1.731   5.728   7.610 -0.2929 -0.8925  1.0597
   57SAPC   H5Y 4244   1.548   5.711   7.585 -0.0988  0.3642 -0.1248
   57SAPC   C36 4245   1.669   5.578   7.462  0.2653  0.1488  0.5768
   57SAPC   H6X 4246   1.578   5.515   7.450  1.6664 -1.6624 -1.3470
   57SAPC   H6Y 4247   1.759   5.513   7.467  1.3062  1.6296  3.3480
   57SAPC   C37 4248   1.660   5.673   7.335 -0.4024 -0.7479 -0.5685
   57SAPC   H7X 4249   1.756   5.728   7.321 -1.0744  0.4763 -0.4944
   57SAPC   H7Y 4250   1.574   5.742   7.341 -0.5342 -0.9631  0.1285
   57SAPC   C38 4251   1.647   5.591   7.201 -0.4159 -0.0868  0.5533
   57SAPC   H8X 4252   1.549   5.539   7.207 -0.0319 -0.7924  0.8287
   57SAPC   H8Y 4253   1.725   5.513   7.194 -0.7199 -0.3572  0.1735
   57SAPC   C39 4254   1.642   5.685   7.081 -0.5858  0.1916  0.3633
   57SAPC   H9X 4255   1.727   5.756   7.079  0.8068 -1.4165 -1.3513
   57SAPC   H9Y 4256   1.552   5.751   7.079  0.8009  2.3035  2.6018
   57SAPC  C310 4257   1.643   5.605   6.948  0.6963 -0.4262 -0.4414
   57SAPC  H10X 4258   1.547   5.549   6.951  1.5641 -1.9364  1.7148
   57SAPC  H10Y 4259   1.715   5.520   6.955  0.1732 -1.0142 -1.7289
   57SAPC  C311 4260   1.667   5.685   6.819  0.3428 -0.0606  0.1538
   57SAPC  H11X 4261   1.767   5.732   6.828  0.0634  0.8493 -1.2323
   57SAPC  H11Y 4262   1.602   5.775   6.828  2.5108  1.5080  1.2247
   57SAPC  C312 4263   1.658   5.620   6.683 -0.8355  0.3562  0.5377
   57SAPC  H12X 4264   1.552   5.589   6.671 -0.7651  0.9750 -2.6085
   57SAPC  H12Y 4265   1.725   5.535   6.657 -1.3409  0.5191 -1.4914
   57SAPC  C313 4266   1.680   5.719   6.562 -0.0172  0.4372  0.0070
   57SAPC  H13X 4267   1.779   5.769   6.567  0.0406  0.2511  0.9350
   57SAPC  H13Y 4268   1.605   5.799   6.575 -1.6366 -0.9459 -0.5019
   57SAPC  C314 4269   1.652   5.647   6.423  0.7296 -0.2637 -0.2998
   57SAPC  H14X 4270   1.543   5.625   6.428  0.9735 -1.4350  0.4270
   57SAPC  H14Y 4271   1.697   5.545   6.420  0.1149 -0.5262 -0.9452
   57SAPC  C315 4272   1.695   5.729   6.302 -0.2854  0.1656  0.2366
   57SAPC  H15X 4273   1.804   5.743   6.315 -0.2442 -0.2847  0.4034
   57SAPC  H15Y 4274   1.644   5.827   6.287  0.7782  0.8256  0.8337
   57SAPC  C316 4275   1.675   5.656   6.172  0.4434  0.0523 -0.2522
   57SAPC  H16X 4276   1.567   5.629   6.172  0.3835  0.2636  0.8457
   57SAPC  H16Y 4277   1.731   5.560   6.170 -0.2774 -0.3810 -2.0796
   57SAPC  C317 4278   1.699   5.740   6.049 -0.4909  0.1329 -0.0979
   57SAPC  H17X 4279   1.803   5.778   6.058  0.7762 -2.9671 -0.2820
   57SAPC  H17Y 4280   1.620   5.817   6.042 -3.2916 -2.3179  1.9395
   57SAPC  C318 4281   1.695   5.653   5.922  0.0289  0.6756 -0.6549
   57SAPC  H18X 4282   1.723   5.714   5.833  0.0391  3.2762  1.0287
   57SAPC  H18Y 4283   1.590   5.615   5.920  0.6294 -1.2401  0.9708
   57SAPC  H18Z 4284   1.749   5.557   5.937 -2.8854 -0.6548  2.9125
   58SAPC     N 4285   5.850   0.044   8.177 -0.1429 -0.0949 -1.6213
   58SAPC   C12 4286   5.710   0.085   8.132 -1.0174 -0.6198 -0.2363
   58SAPC  H12A 4287   5.671   0.143   8.215 -0.6500  2.6441 -2.1749
   58SAPC  H12B 4288   5.642   0.002   8.117 -0.5845 -1.1781  0.7503
   58SAPC   C13 4289   5.840  -0.046   8.289  0.9877  0.2436 -0.7999
   58SAPC  H13A 4290   5.798   0.016   8.367  0.0418 -1.3335 -0.0106
   58SAPC  H13B 4291   5.785  -0.138   8.282  4.3915 -2.0452  0.1967
   58SAPC  H13C 4292   5.934  -0.079   8.331  1.2375  1.1545 -0.6043
   58SAPC   C14 4293   5.922  -0.023   8.065  0.2790 -0.1536 -0.8345
   58SAPC  H14A 4294   5.927   0.044   7.980  0.0823  1.3329  0.2915
   58SAPC  H14B 4295   6.017  -0.068   8.092 -0.4781 -0.9601  0.6205
   58SAPC  H14C 4296   5.865  -0.107   8.028  0.4337 -0.2295 -0.9038
   58SAPC   C15 4297   5.927   0.156   8.240 -0.4518 -0.8015 -0.0512
   58SAPC  H15A 4298   5.878   0.185   8.332 -2.8300  1.3525 -1.8293
   58SAPC  H15B 4299   6.028   0.128   8.265 -0.3134  0.7042  1.2486
   58SAPC  H15C 4300   5.925   0.247   8.182 -1.5680 -0.8738 -0.1496
   58SAPC   C11 4301   5.696   0.186   8.014  0.4509 -0.1869 -0.1593
   58SAPC  H11A 4302   5.589   0.211   8.004  0.7241  0.2803 -2.4247
   58SAPC  H11B 4303   5.726   0.131   7.922  1.6010  0.7836 -0.3849
   58SAPC     P 4304   5.846   0.384   7.929  0.2698  0.1238 -0.4020
   58SAPC   O13 4305   5.744   0.462   7.855 -0.6246 -0.5482  0.5130
   58SAPC   O14 4306   5.961   0.474   7.986  0.4439  0.6099  0.5406
   58SAPC   O12 4307   5.773   0.304   8.041 -0.0302 -0.2400  0.1777
   58SAPC   O11 4308   5.905   0.282   7.825  0.2510  0.2595  0.1132
   58SAPC    C1 4309   6.028   0.210   7.853  0.0273  0.0155 -0.2033
   58SAPC    HA 4310   6.114   0.280   7.844 -1.4437  1.9162 -0.0954
   58SAPC    HB 4311   6.028   0.170   7.957 -1.0489 -0.0339 -0.2056
   58SAPC    C2 4312   6.039   0.090   7.752 -0.3701 -0.1180  0.0592
   58SAPC    HS 4313   6.029   0.146   7.657 -0.9240 -1.1525 -0.5127
   58SAPC   O21 4314   5.928   0.005   7.779  0.0588  0.1762 -0.5689
   58SAPC   C21 4315   5.872  -0.048   7.672  0.9540 -0.0744 -0.2237
   58SAPC   O22 4316   5.915  -0.039   7.558  0.0525  0.2316 -0.6217
   58SAPC   C22 4317   5.751  -0.136   7.710  0.2697  0.3733  0.7300
   58SAPC   H2R 4318   5.769  -0.225   7.646 -1.0322  0.0346  0.7970
   58SAPC   H2S 4319   5.754  -0.179   7.813 -0.1624 -0.0794  0.5599
   58SAPC    C3 4320   6.177   0.016   7.757 -0.7715 -0.3416  0.2125
   58SAPC    HX 4321   6.165  -0.055   7.841  0.4469  0.3673  1.0187
   58SAPC    HY 4322   6.262   0.081   7.787  0.4819 -1.9341  0.2465
   58SAPC   O31 4323   6.198  -0.061   7.640  0.0641 -0.6059  0.5663
   58SAPC   C31 4324   6.228   0.012   7.536  1.1189  0.5604 -0.3535
   58SAPC   O32 4325   6.252   0.132   7.535  0.6612  0.1721 -0.7628
   58SAPC   C32 4326   6.197  -0.071   7.412 -0.8723 -0.2032  0.3158
   58SAPC   H2X 4327   6.100  -0.124   7.429 -0.8906 -0.6401 -1.0711
   58SAPC   H2Y 4328   6.280  -0.143   7.394 -2.2063 -2.1535  1.5017
   58SAPC   C23 4329   5.617  -0.073   7.655  0.6247  0.2994 -0.1738
   58SAPC   H3R 4330   5.626   0.030   7.693  2.5117  1.2626 -2.9759
   58SAPC   H3S 4331   5.530  -0.122   7.705 -0.4293  1.6262 -0.6381
   58SAPC   C24 4332   5.595  -0.073   7.504 -0.0964 -0.2766 -0.0454
   58SAPC   H4R 4333   5.612  -0.177   7.471 -2.3137 -0.3920 -0.9534
   58SAPC   H4S 4334   5.670  -0.009   7.453  0.0267 -0.7106 -0.4147
   58SAPC   C25 4335   5.462  -0.027   7.473 -0.0182  0.5278  1.0367
   58SAPC   H5R 4336   5.388  -0.068   7.543  0.4596 -1.1179  0.6265
   58SAPC   C26 4337   5.411   0.034   7.363  0.0877 -0.2733 -0.1090
   58SAPC   H6R 4338   5.302   0.041   7.352 -0.0295 -0.1800  1.0065
   58SAPC   C27 4339   5.493   0.102   7.250 -0.3870 -0.1952 -0.4045
   58SAPC   H7R 4340   5.582   0.149   7.297  0.5197 -0.8925 -1.3596
   58SAPC   H7S 4341   5.437   0.184   7.200  0.0652  0.3198 -0.0730
   58SAPC   C28 4342   5.555   0.002   7.155 -0.0449 -0.2359 -0.0814
   58SAPC   H8R 4343   5.623  -0.073   7.198  0.8429  0.8632  0.5023
   58SAPC   C29 4344   5.536  -0.002   7.022  0.0722  0.6514 -0.6904
   58SAPC   H9R 4345   5.603  -0.066   6.963  1.1757  1.2339 -0.0975
   58SAPC  C210 4346   5.463   0.099   6.937  0.1269 -0.0146 -0.0455
   58SAPC  H10R 4347   5.540   0.148   6.874 -0.2736 -2.1440 -2.3516
   58SAPC  H10S 4348   5.417   0.182   6.995  0.1149 -0.3741  0.4621
   58SAPC  C211 4349   5.359   0.045   6.846  0.1452 -0.2706  0.0771
   58SAPC  H11R 4350   5.318  -0.056   6.864  1.7547 -1.1015 -0.6961
   58SAPC  C212 4351   5.320   0.107   6.731  0.4285  0.5666 -0.2350
   58SAPC  H12R 4352   5.237   0.057   6.678 -0.2392  0.8081  0.5708
   58SAPC  C213 4353   5.376   0.240   6.690 -0.6363 -0.2161  0.3397
   58SAPC  H13R 4354   5.461   0.220   6.621  0.3063 -2.2448  1.9594
   58SAPC  H13S 4355   5.421   0.283   6.782  0.2794 -2.0559  0.8099
   58SAPC  C214 4356   5.274   0.341   6.647 -0.6743 -0.4554 -0.3036
   58SAPC  H14R 4357   5.226   0.381   6.738  2.7014  3.0701  0.1796
   58SAPC  C215 4358   5.244   0.372   6.529  0.3134 -0.0418  0.3941
   58SAPC  H15R 4359   5.156   0.436   6.512  0.9711  0.6481 -0.6021
   58SAPC  C216 4360   5.322   0.334   6.403 -0.5069 -0.3658 -0.2376
   58SAPC  H16R 4361   5.291   0.233   6.370  0.6019 -0.2325 -1.8119
   58SAPC  H16S 4362   5.430   0.321   6.424 -0.8243 -0.6406  1.3628
   58SAPC  C217 4363   5.305   0.422   6.282 -0.2666 -0.2159  0.3970
   58SAPC  H17R 4364   5.338   0.526   6.300 -1.7410  0.9296 -2.8047
   58SAPC  H17S 4365   5.201   0.431   6.244 -0.3584 -1.4269  0.2997
   58SAPC  C218 4366   5.394   0.366   6.165  0.4265 -0.2367 -0.9799
   58SAPC  H18R 4367   5.359   0.435   6.086 -2.4288  1.1433  1.2937
   58SAPC  H18S 4368   5.364   0.263   6.136 -1.8868 -0.2570  1.1903
   58SAPC  C219 4369   5.543   0.367   6.188 -0.5480 -0.5992  0.6269
   58SAPC  H19R 4370   5.573   0.308   6.277  3.0877 -2.6444 -1.7229
   58SAPC  H19S 4371   5.573   0.471   6.211 -0.4930 -0.5028  0.1200
   58SAPC  C220 4372   5.618   0.316   6.071 -0.5231 -0.0268 -0.3080
   58SAPC  H20R 4373   5.610   0.386   5.985 -0.0668 -1.8330 -1.9101
   58SAPC  H20S 4374   5.573   0.219   6.040  0.5667 -0.6596  0.0169
   58SAPC  H20T 4375   5.720   0.297   6.110 -1.0850 -0.6070  0.9299
   58SAPC   C33 4376   6.167   0.023   7.299 -0.3962  0.7971  0.2563
   58SAPC   H3X 4377   6.258   0.084   7.276  0.8575 -0.1681  2.3543
   58SAPC   H3Y 4378   6.093   0.105   7.313 -1.5387  0.3298 -2.5489
   58SAPC   C34 4379   6.125  -0.054   7.168 -0.3032 -0.1434  0.0200
   58SAPC   H4X 4380   6.035  -0.112   7.196 -0.1694 -1.0344 -1.3114
   58SAPC   H4Y 4381   6.206  -0.129   7.151 -1.3795 -1.7601  1.6963
   58SAPC   C35 4382   6.087   0.043   7.052 -0.0815  0.2759 -0.1001
   58SAPC   H5X 4383   6.175   0.066   6.987  0.0894 -0.3539 -0.0915
   58SAPC   H5Y 4384   6.039   0.133   7.097 -1.7366 -1.3730  1.6222
   58SAPC   C36 4385   5.980  -0.024   6.964  0.2136 -0.7968  0.4010
   58SAPC   H6X 4386   5.884  -0.045   7.016 -1.4209  0.4782 -1.9113
   58SAPC   H6Y 4387   6.017  -0.121   6.924  0.6676  0.1155 -1.5290
   58SAPC   C37 4388   5.946   0.061   6.841  0.3712  0.1099 -0.3820
   58SAPC   H7X 4389   6.037   0.084   6.782  0.7805  0.4738  0.3903
   58SAPC   H7Y 4390   5.903   0.158   6.874 -1.3938 -0.7481 -0.0541
   58SAPC   C38 4391   5.842  -0.013   6.762  0.9826 -0.0577 -0.6634
   58SAPC   H8X 4392   5.743  -0.018   6.811  0.1161  1.9611 -2.0862
   58SAPC   H8Y 4393   5.870  -0.118   6.737 -0.4512  0.0332 -2.9831
   58SAPC   C39 4394   5.815   0.062   6.629  0.4697 -0.8690 -0.3741
   58SAPC   H9X 4395   5.902   0.077   6.562 -1.7188  1.2242 -2.9538
   58SAPC   H9Y 4396   5.783   0.167   6.642 -4.0738 -2.2070  1.2359
   58SAPC  C310 4397   5.704  -0.017   6.551  0.3350  0.4196 -0.8350
   58SAPC  H10X 4398   5.601  -0.021   6.592  0.6634  0.6982  0.0571
   58SAPC  H10Y 4399   5.744  -0.120   6.541 -0.5368 -0.2772  1.8911
   58SAPC  C311 4400   5.693   0.031   6.403  1.3132 -0.3602  0.3415
   58SAPC  H11X 4401   5.784   0.030   6.339 -0.8165  1.7750 -3.0275
   58SAPC  H11Y 4402   5.656   0.135   6.401 -0.3754 -0.9410  0.1952
   58SAPC  C312 4403   5.610  -0.068   6.321  0.2338  0.1903  0.1225
   58SAPC  H12X 4404   5.513  -0.087   6.371  0.7945 -0.6993  0.9051
   58SAPC  H12Y 4405   5.668  -0.163   6.323 -1.8498 -1.1294  0.5364
   58SAPC  C313 4406   5.584  -0.043   6.171  0.3362 -0.6610  0.3230
   58SAPC  H13X 4407   5.521   0.048   6.163 -1.7987 -2.0390  0.5146
   58SAPC  H13Y 4408   5.511  -0.121   6.138 -2.3595  0.8391  2.3178
   58SAPC  C314 4409   5.711  -0.045   6.083 -0.0734  0.7193 -0.1650
   58SAPC  H14X 4410   5.786  -0.114   6.130  1.5416  2.3508 -0.2242
   58SAPC  H14Y 4411   5.759   0.055   6.080 -0.1974  0.8448  1.3249
   58SAPC  C315 4412   5.694  -0.099   5.939  0.6303 -0.1900  0.3068
   58SAPC  H15X 4413   5.618  -0.033   5.892  2.3072  1.2407 -0.4825
   58SAPC  H15Y 4414   5.642  -0.197   5.936  2.0904 -0.9786 -0.0156
   58SAPC  C316 4415   5.817  -0.097   5.857  0.4196  0.2888  0.0949
   58SAPC  H16X 4416   5.897  -0.139   5.922  0.5803 -1.2863 -1.0481
   58SAPC  H16Y 4417   5.841   0.007   5.824 -1.4755 -0.2587 -3.5883
   58SAPC  C317 4418   5.816  -0.176   5.726  0.3427  0.0271 -0.8229
   58SAPC  H17X 4419   5.907  -0.150   5.667  0.2139  0.4004 -0.8577
   58SAPC  H17Y 4420   5.724  -0.156   5.667  0.3357 -0.2174 -0.8979
   58SAPC  C318 4421   5.806  -0.325   5.750  0.5837 -0.0584 -0.4676
   58SAPC  H18X 4422   5.896  -0.355   5.808 -1.3071 -0.9963  2.1770
   58SAPC  H18Y 4423   5.807  -0.380   5.653 -2.5124  2.2492 -1.9755
   58SAPC  H18Z 4424   5.717  -0.361   5.805  1.9640 -3.1110 -0.0356
   59SAPC     N 4425   3.922   2.738   8.805  0.0620  0.7447 -0.6097
   59SAPC   C12 4426   3.852   2.678   8.692 -0.0765 -0.7851  0.4888
   59SAPC  H12A 4427   3.859   2.570   8.698 -0.0546 -1.0384 -2.4101
   59SAPC  H12B 4428   3.916   2.697   8.607 -1.1773 -0.5784 -0.3219
   59SAPC   C13 4429   3.959   2.877   8.780  0.3983  0.3257 -0.2835
   59SAPC  H13A 4430   4.024   2.912   8.858  0.2388 -0.1517  0.0651
   59SAPC  H13B 4431   4.009   2.883   8.684 -0.4475  1.3281 -0.6799
   59SAPC  H13C 4432   3.872   2.941   8.779 -0.1072 -0.3444  0.2397
   59SAPC   C14 4433   3.834   2.721   8.925 -0.0771 -0.3939  0.3568
   59SAPC  H14A 4434   3.788   2.623   8.927 -1.3589  0.2042  1.4056
   59SAPC  H14B 4435   3.887   2.743   9.017  0.2171  0.0485  0.0852
   59SAPC  H14C 4436   3.752   2.792   8.926  0.0369 -0.2671  0.7089
   59SAPC   C15 4437   4.045   2.678   8.840  0.2081 -0.0807  0.4162
   59SAPC  H15A 4438   4.096   2.729   8.919  2.8198 -0.6943 -0.7781
   59SAPC  H15B 4439   4.038   2.582   8.888  1.3974  0.3263  1.4618
   59SAPC  H15C 4440   4.111   2.657   8.757  1.0590  0.0862  1.0414
   59SAPC   C11 4441   3.708   2.734   8.656 -0.4282  0.4534 -0.5483
   59SAPC  H11A 4442   3.710   2.845   8.653  1.5666  0.4305 -2.2532
   59SAPC  H11B 4443   3.631   2.703   8.730 -0.7433  2.2316 -0.0753
   59SAPC     P 4444   3.631   2.538   8.505 -0.0513  0.1253  0.0648
   59SAPC   O13 4445   3.736   2.440   8.542 -0.2370  0.1164 -0.4870
   59SAPC   O14 4446   3.499   2.527   8.562 -0.0666 -0.2503  0.3264
   59SAPC   O12 4447   3.672   2.689   8.524 -0.4000 -0.1569  0.8018
   59SAPC   O11 4448   3.615   2.528   8.348  0.8416 -0.1342  0.1794
   59SAPC    C1 4449   3.510   2.586   8.277  0.7147 -0.3841  0.8838
   59SAPC    HA 4450   3.421   2.520   8.279  0.0341  0.3694 -1.3402
   59SAPC    HB 4451   3.485   2.686   8.319 -0.2655  0.1998 -0.9420
   59SAPC    C2 4452   3.553   2.608   8.124 -0.7618  0.3006 -0.9808
   59SAPC    HS 4453   3.619   2.698   8.121 -0.3570  0.0191 -0.5515
   59SAPC   O21 4454   3.441   2.627   8.040  0.0029  0.2761 -0.4108
   59SAPC   C21 4455   3.389   2.753   8.041  0.1322  0.1795  0.7185
   59SAPC   O22 4456   3.427   2.842   8.114  0.6519  0.4028 -0.2379
   59SAPC   C22 4457   3.289   2.769   7.929  0.1334  0.1237  0.6706
   59SAPC   H2R 4458   3.311   2.713   7.835  0.2118 -1.1428  1.4204
   59SAPC   H2S 4459   3.193   2.722   7.957 -0.4688  1.5157  1.0188
   59SAPC    C3 4460   3.643   2.488   8.075 -0.7704  0.8910  0.9864
   59SAPC    HX 4461   3.570   2.404   8.079  0.6104 -0.3311  1.8929
   59SAPC    HY 4462   3.729   2.468   8.143 -0.4071 -1.5719 -0.0797
   59SAPC   O31 4463   3.696   2.488   7.939  0.6340  0.2576 -0.1370
   59SAPC   C31 4464   3.789   2.579   7.919 -0.7881  0.3744  0.2049
   59SAPC   O32 4465   3.845   2.645   8.004  0.3668  0.4562 -0.7534
   59SAPC   C32 4466   3.825   2.566   7.770 -0.2939 -0.1453  0.4927
   59SAPC   H2X 4467   3.807   2.462   7.734 -2.9730  0.8361 -1.2385
   59SAPC   H2Y 4468   3.929   2.592   7.741 -0.5200 -0.6999 -0.9055
   59SAPC   C23 4469   3.263   2.919   7.888 -0.2220  0.6558 -0.1833
   59SAPC   H3R 4470   3.366   2.958   7.876  0.0734 -0.2012 -0.5708
   59SAPC   H3S 4471   3.208   2.972   7.969  0.6081 -0.5094  1.2058
   59SAPC   C24 4472   3.191   2.938   7.753  0.1266  0.0312  0.6795
   59SAPC   H4R 4473   3.225   2.874   7.668 -1.0961 -0.2819  0.3995
   59SAPC   H4S 4474   3.210   3.041   7.717  0.3380 -0.2952 -0.1811
   59SAPC   C25 4475   3.043   2.912   7.766  0.2096  0.3558 -0.4499
   59SAPC   H5R 4476   3.013   2.878   7.866  0.3864  1.4293 -0.0275
   59SAPC   C26 4477   2.950   2.927   7.676 -0.2117  0.2977 -0.0488
   59SAPC   H6R 4478   2.844   2.926   7.704 -0.8157  3.1124 -1.7898
   59SAPC   C27 4479   2.963   2.973   7.531  0.4279 -0.4724 -0.0319
   59SAPC   H7R 4480   3.066   2.955   7.493 -0.1347 -1.7998 -1.0131
   59SAPC   H7S 4481   2.957   3.084   7.531 -0.3062 -0.4844  1.4740
   59SAPC   C28 4482   2.857   2.913   7.439 -0.2228 -0.2975 -0.6594
   59SAPC   H8R 4483   2.760   2.963   7.450 -0.4454 -1.1363  1.6585
   59SAPC   C29 4484   2.878   2.838   7.324 -0.0878  0.6094  0.4702
   59SAPC   H9R 4485   2.791   2.792   7.274  1.6460 -0.7103 -1.5067
   59SAPC  C210 4486   3.012   2.779   7.280 -0.0759 -0.4380  0.5621
   59SAPC  H10R 4487   2.997   2.677   7.239  0.2001 -1.0179  1.8614
   59SAPC  H10S 4488   3.066   2.756   7.374  0.0933 -0.7527  0.3884
   59SAPC  C211 4489   3.105   2.862   7.195 -0.5857  0.0412 -0.2759
   59SAPC  H11R 4490   3.049   2.944   7.147 -1.2681  0.3501  0.9966
   59SAPC  C212 4491   3.242   2.847   7.183 -0.0451 -0.0987 -0.1247
   59SAPC  H12R 4492   3.299   2.912   7.115  2.2555 -0.3896  1.3876
   59SAPC  C213 4493   3.326   2.749   7.263  0.1585  1.2542  0.0036
   59SAPC  H13R 4494   3.255   2.702   7.334  0.5083  1.5134  0.5370
   59SAPC  H13S 4495   3.400   2.785   7.339 -0.2480 -0.4488  1.2518
   59SAPC  C214 4496   3.413   2.663   7.182 -0.0587  0.3354  0.2707
   59SAPC  H14R 4497   3.492   2.715   7.126 -0.2246  1.6003  1.1754
   59SAPC  C215 4498   3.405   2.533   7.183  0.7659  0.9028  0.1069
   59SAPC  H15R 4499   3.475   2.479   7.119 -2.0477  0.0171 -2.4921
   59SAPC  C216 4500   3.311   2.445   7.259 -0.1142 -0.1690 -0.9512
   59SAPC  H16R 4501   3.242   2.489   7.334 -1.7082  0.0012 -2.4396
   59SAPC  H16S 4502   3.367   2.361   7.303  0.8207  0.0067 -1.7674
   59SAPC  C217 4503   3.222   2.379   7.147  0.0200 -0.2109 -0.0466
   59SAPC  H17R 4504   3.180   2.461   7.085  0.3625 -0.2694 -0.3633
   59SAPC  H17S 4505   3.140   2.332   7.206 -0.9174  2.2563  0.7388
   59SAPC  C218 4506   3.280   2.274   7.055 -0.3318  0.7233  0.4983
   59SAPC  H18R 4507   3.364   2.329   7.007 -0.5012  1.5252  1.0918
   59SAPC  H18S 4508   3.213   2.240   6.973  1.0056 -0.1830 -0.2551
   59SAPC  C219 4509   3.345   2.151   7.113  0.1604 -0.2478  0.4054
   59SAPC  H19R 4510   3.267   2.083   7.153  1.5973 -2.2775 -0.0796
   59SAPC  H19S 4511   3.403   2.187   7.201  2.0113  0.9485 -1.2216
   59SAPC  C220 4512   3.442   2.077   7.014  0.2171 -0.0725  0.6115
   59SAPC  H20R 4513   3.504   2.001   7.066  0.1081  0.2198  1.1796
   59SAPC  H20S 4514   3.516   2.149   6.973  0.8445 -1.4390 -0.7513
   59SAPC  H20T 4515   3.384   2.038   6.928 -0.1987  1.2012  0.2897
   59SAPC   C33 4516   3.745   2.667   7.683 -0.3097  0.3144  0.4452
   59SAPC   H3X 4517   3.648   2.692   7.731 -0.4386  1.8443 -0.5648
   59SAPC   H3Y 4518   3.719   2.626   7.583 -2.3731  0.7960  0.7513
   59SAPC   C34 4519   3.818   2.800   7.658 -0.0604  0.8309 -0.5163
   59SAPC   H4X 4520   3.917   2.778   7.613 -0.5135 -0.5415 -0.9008
   59SAPC   H4Y 4521   3.825   2.844   7.760  0.9633 -0.9534  0.2162
   59SAPC   C35 4522   3.731   2.896   7.569 -0.4855  0.5640  0.1146
   59SAPC   H5X 4523   3.787   2.990   7.589  1.6425  0.1094 -3.0178
   59SAPC   H5Y 4524   3.627   2.905   7.607 -0.1816  1.5738  0.7550
   59SAPC   C36 4525   3.756   2.877   7.420  0.1246  0.6438 -0.4033
   59SAPC   H6X 4526   3.700   2.794   7.371 -0.6019  1.0898 -0.3363
   59SAPC   H6Y 4527   3.865   2.862   7.407  0.5359  1.0184  2.0757
   59SAPC   C37 4528   3.706   2.995   7.338 -0.1838 -0.1708 -0.1951
   59SAPC   H7X 4529   3.768   3.084   7.360 -1.7709  1.7534 -2.8632
   59SAPC   H7Y 4530   3.597   3.008   7.355 -0.5842 -3.8315  0.9482
   59SAPC   C38 4531   3.727   2.966   7.189 -0.0510 -0.0522 -0.3304
   59SAPC   H8X 4532   3.686   2.865   7.164 -0.4067  0.3396 -1.4062
   59SAPC   H8Y 4533   3.832   2.946   7.159 -0.7146 -0.8420 -2.3324
   59SAPC   C39 4534   3.673   3.065   7.085 -0.7349  0.5899 -0.0494
   59SAPC   H9X 4535   3.753   3.120   7.031 -2.1477  1.6044 -1.2191
   59SAPC   H9Y 4536   3.600   3.134   7.134 -3.2665 -0.4099 -2.1277
   59SAPC  C310 4537   3.598   2.998   6.973 -0.2489  0.5130 -0.4145
   59SAPC  H10X 4538   3.505   2.952   7.012 -0.2913 -0.7753 -1.9436
   59SAPC  H10Y 4539   3.645   2.911   6.922 -1.8836 -0.8277  0.2778
   59SAPC  C311 4540   3.546   3.089   6.866 -0.9995 -0.1012  0.1553
   59SAPC  H11X 4541   3.633   3.149   6.831 -0.8547 -0.3105  0.1538
   59SAPC  H11Y 4542   3.465   3.156   6.904  0.0314  2.7701 -2.2896
   59SAPC  C312 4543   3.492   3.017   6.742  0.5647 -0.2160  0.0479
   59SAPC  H12X 4544   3.572   2.953   6.698 -0.3987 -0.0881 -2.0136
   59SAPC  H12Y 4545   3.457   3.094   6.670 -0.2642 -0.9281 -0.3230
   59SAPC  C313 4546   3.374   2.927   6.782 -0.3754  0.3927  0.1638
   59SAPC  H13X 4547   3.311   2.975   6.860 -1.9114 -2.5659  0.8934
   59SAPC  H13Y 4548   3.419   2.842   6.836  0.1141 -0.9114 -2.1480
   59SAPC  C314 4549   3.282   2.876   6.671  0.2559 -1.1502  0.0916
   59SAPC  H14X 4550   3.348   2.834   6.592  3.0865 -0.5955  2.0094
   59SAPC  H14Y 4551   3.233   2.967   6.632  2.4525  0.4464  0.8614
   59SAPC  C315 4552   3.190   2.769   6.714  0.2585  0.2315 -0.1018
   59SAPC  H15X 4553   3.118   2.750   6.632 -0.1847  0.0912  0.3127
   59SAPC  H15Y 4554   3.123   2.800   6.797 -1.6805 -0.4136 -1.3603
   59SAPC  C316 4555   3.258   2.636   6.757  0.4697 -0.0047 -0.5981
   59SAPC  H16X 4556   3.177   2.561   6.772 -0.3034  1.1546  1.4580
   59SAPC  H16Y 4557   3.314   2.635   6.853 -2.1358 -0.3280  1.0255
   59SAPC  C317 4558   3.359   2.571   6.662 -0.8731  0.6338 -0.4486
   59SAPC  H17X 4559   3.445   2.633   6.629 -2.0665  1.4702 -2.1149
   59SAPC  H17Y 4560   3.302   2.557   6.568 -1.4997  0.0212  0.0154
   59SAPC  C318 4561   3.408   2.429   6.700  0.0686  0.0190  0.2457
   59SAPC  H18X 4562   3.482   2.442   6.782  1.0545  0.4408 -0.6744
   59SAPC  H18Y 4563   3.469   2.401   6.612 -0.0259  1.5188 -0.3294
   59SAPC  H18Z 4564   3.336   2.351   6.733 -1.9165  1.4825 -0.4665
   60SAPC     N 4565   4.622   4.179   0.079 -0.6870 -0.2120  0.9979
   60SAPC   C12 4566   4.699   4.106  -0.034 -0.5204 -0.1826  0.0160
   60SAPC  H12A 4567   4.648   4.014  -0.057 -1.0465 -0.1174  0.8667
   60SAPC  H12B 4568   4.793   4.078   0.010 -0.0364  2.1654  0.6167
   60SAPC   C13 4569   4.600   4.091   0.191  0.7252  0.2952  0.0489
   60SAPC  H13A 4570   4.530   4.011   0.170 -0.4629  1.6456 -1.4761
   60SAPC  H13B 4571   4.693   4.051   0.227  1.7394  1.8959 -0.7052
   60SAPC  H13C 4572   4.566   4.152   0.273  1.0414  1.9238 -0.9935
   60SAPC   C14 4573   4.702   4.291   0.130  0.0942 -0.1495 -0.0407
   60SAPC  H14A 4574   4.633   4.359   0.178  0.9919  2.0475 -1.6634
   60SAPC  H14B 4575   4.782   4.267   0.198 -0.7423 -0.8331  0.7295
   60SAPC  H14C 4576   4.744   4.346   0.047 -0.8972 -0.1549 -0.5608
   60SAPC   C15 4577   4.498   4.223   0.014 -0.1113 -0.7300 -0.1194
   60SAPC  H15A 4578   4.439   4.272   0.090  0.1180 -1.4906  0.5716
   60SAPC  H15B 4579   4.523   4.309  -0.046  0.9434  1.3025  2.9944
   60SAPC  H15C 4580   4.443   4.143  -0.035 -0.0231 -2.2578  2.1139
   60SAPC   C11 4581   4.729   4.192  -0.167  0.0262 -0.0648  0.1147
   60SAPC  H11A 4582   4.637   4.225  -0.221  0.0106  0.1234  0.2550
   60SAPC  H11B 4583   4.775   4.113  -0.231  0.0774 -0.3853  0.5458
   60SAPC     P 4584   4.973   4.304  -0.178  0.1675  0.0482 -0.1768
   60SAPC   O13 4585   5.022   4.443  -0.182 -0.2081 -0.1740 -0.1763
   60SAPC   O14 4586   5.051   4.216  -0.087  0.0130 -0.6913 -0.3842
   60SAPC   O12 4587   4.819   4.302  -0.139 -0.0099  0.0357  0.4862
   60SAPC   O11 4588   4.969   4.247  -0.326 -0.0963 -0.3854 -0.0183
   60SAPC    C1 4589   5.002   4.323  -0.443 -0.4744  0.3113  0.2850
   60SAPC    HA 4590   4.934   4.408  -0.466  2.3442  2.2217 -1.6351
   60SAPC    HB 4591   5.105   4.365  -0.432  0.4205 -1.0097 -2.3322
   60SAPC    C2 4592   5.001   4.240  -0.565  0.8431  0.0304  0.4613
   60SAPC    HS 4593   5.073   4.155  -0.561 -0.8496 -1.4404  2.8132
   60SAPC   O21 4594   5.020   4.320  -0.681 -0.1270 -0.5621 -0.1745
   60SAPC   C21 4595   5.143   4.340  -0.719  1.3059 -0.1210  0.3762
   60SAPC   O22 4596   5.244   4.289  -0.675 -0.3206  0.3178 -0.4716
   60SAPC   C22 4597   5.146   4.441  -0.838 -0.0008 -0.0353 -0.1645
   60SAPC   H2R 4598   5.058   4.508  -0.837  1.0723  1.7113 -4.0671
   60SAPC   H2S 4599   5.228   4.510  -0.813 -1.5539  1.1974  1.8502
   60SAPC    C3 4600   4.866   4.162  -0.574  0.9034  0.0320  0.1107
   60SAPC    HX 4601   4.779   4.231  -0.567  0.1671 -0.9757  1.3747
   60SAPC    HY 4602   4.870   4.102  -0.481  4.9753  0.5893  0.4884
   60SAPC   O31 4603   4.872   4.076  -0.698  0.5985  0.1878  0.0711
   60SAPC   C31 4604   4.745   4.038  -0.739 -0.8841 -0.2573  0.0795
   60SAPC   O32 4605   4.642   4.064  -0.685  0.2657 -0.6585  0.4035
   60SAPC   C32 4606   4.757   3.952  -0.865 -0.5771 -0.5215 -0.2539
   60SAPC   H2X 4607   4.751   3.846  -0.833  3.3828 -0.6246  0.6224
   60SAPC   H2Y 4608   4.863   3.968  -0.896 -0.3924 -0.8982  0.1816
   60SAPC   C23 4609   5.169   4.363  -0.963  0.4841  0.1524 -0.2991
   60SAPC   H3R 4610   5.260   4.300  -0.952 -1.7325 -3.6912 -1.7868
   60SAPC   H3S 4611   5.184   4.441  -1.040  0.2977  0.7378  0.2570
   60SAPC   C24 4612   5.063   4.274  -1.015  0.5577  0.6043 -0.1430
   60SAPC   H4R 4613   4.971   4.333  -1.034 -0.7174 -1.3595 -0.3515
   60SAPC   H4S 4614   5.046   4.191  -0.944  0.0522  2.2430  1.7413
   60SAPC   C25 4615   5.106   4.208  -1.146 -0.5804 -0.4585  0.6038
   60SAPC   H5R 4616   5.175   4.122  -1.133 -2.9423 -2.5931 -0.2007
   60SAPC   C26 4617   5.069   4.237  -1.275  0.3129  0.2003 -0.8263
   60SAPC   H6R 4618   5.116   4.172  -1.350  0.3474 -1.0151  0.2012
   60SAPC   C27 4619   4.980   4.355  -1.315  0.6566  0.4199  0.0037
   60SAPC   H7R 4620   4.927   4.408  -1.233  0.0415  0.1984 -0.2510
   60SAPC   H7S 4621   4.895   4.320  -1.377  0.1174 -2.0333  1.9412
   60SAPC   C28 4622   5.072   4.446  -1.388  0.7619  0.3671 -0.1932
   60SAPC   H8R 4623   5.129   4.506  -1.316  0.0963 -1.1065  1.6514
   60SAPC   C29 4624   5.101   4.443  -1.519  0.2503  0.0969  0.0639
   60SAPC   H9R 4625   5.187   4.504  -1.549 -0.5746  0.6446 -1.2804
   60SAPC  C210 4626   5.035   4.364  -1.624 -0.4858 -0.1225  0.7079
   60SAPC  H10R 4627   4.936   4.321  -1.597  0.2920 -1.2824  1.8320
   60SAPC  H10S 4628   5.098   4.278  -1.657 -0.1077 -0.0677  1.2844
   60SAPC  C211 4629   5.014   4.449  -1.743  0.5954  0.0832  0.1297
   60SAPC  H11R 4630   4.943   4.530  -1.718 -1.8790 -1.5101 -1.4024
   60SAPC  C212 4631   5.037   4.436  -1.876  1.2153 -0.3494 -0.5467
   60SAPC  H12R 4632   4.987   4.514  -1.936 -0.9616  0.0798  1.6599
   60SAPC  C213 4633   5.125   4.337  -1.941 -0.1530  0.0054 -0.0552
   60SAPC  H13R 4634   5.094   4.237  -1.904  0.8187 -0.2157  0.1817
   60SAPC  H13S 4635   5.224   4.352  -1.893 -0.5935 -0.5088  1.0514
   60SAPC  C214 4636   5.117   4.347  -2.095  0.6519 -0.1703 -0.9541
   60SAPC  H14R 4637   5.014   4.350  -2.134  0.3464  0.0970 -0.1326
   60SAPC  C215 4638   5.220   4.345  -2.175 -0.0137  0.3417 -0.3341
   60SAPC  H15R 4639   5.200   4.344  -2.284 -3.3022 -1.0980  0.1484
   60SAPC  C216 4640   5.363   4.340  -2.121 -0.1655  0.6039 -0.1300
   60SAPC  H16R 4641   5.417   4.261  -2.178 -1.2986 -0.0701 -0.3076
   60SAPC  H16S 4642   5.375   4.308  -2.015 -0.6077  0.6216 -0.0744
   60SAPC  C217 4643   5.451   4.458  -2.146  0.5965 -0.2675 -0.5806
   60SAPC  H17R 4644   5.560   4.439  -2.139  0.7739  1.2123  2.1379
   60SAPC  H17S 4645   5.439   4.525  -2.058  4.0540 -0.0895 -0.0847
   60SAPC  C218 4646   5.434   4.526  -2.284  0.8892  0.2716 -0.1813
   60SAPC  H18R 4647   5.326   4.544  -2.301  0.8573 -0.5934 -0.9690
   60SAPC  H18S 4648   5.476   4.466  -2.367  0.7218  0.5853 -0.4950
   60SAPC  C219 4649   5.506   4.665  -2.292 -0.4352  0.1147 -0.5811
   60SAPC  H19R 4650   5.506   4.700  -2.398 -0.8653  3.6345  0.4705
   60SAPC  H19S 4651   5.605   4.644  -2.246 -0.3862  2.5396  0.5719
   60SAPC  C220 4652   5.426   4.774  -2.213 -0.1267 -0.1447 -0.8718
   60SAPC  H20R 4653   5.416   4.740  -2.108 -0.8342 -0.5608 -1.0663
   60SAPC  H20S 4654   5.324   4.790  -2.254 -0.8025 -0.7334  0.5126
   60SAPC  H20T 4655   5.480   4.868  -2.188 -0.4496  0.2875 -1.7539
   60SAPC   C33 4656   4.660   3.996  -0.976 -0.1912  0.5187  0.0125
   60SAPC   H3X 4657   4.562   4.014  -0.929  0.0366  1.1474  0.2503
   60SAPC   H3Y 4658   4.643   3.917  -1.053  0.3967 -0.6244  1.0311
   60SAPC   C34 4659   4.716   4.120  -1.045 -0.2861  0.8620 -0.1488
   60SAPC   H4X 4660   4.816   4.109  -1.090 -0.4224  1.4454 -0.6073
   60SAPC   H4Y 4661   4.714   4.205  -0.974 -1.2579  0.7367 -0.0030
   60SAPC   C35 4662   4.631   4.180  -1.161  0.3627  0.8087 -0.3664
   60SAPC   H5X 4663   4.657   4.287  -1.174  2.0933  0.6713  1.4191
   60SAPC   H5Y 4664   4.525   4.189  -1.130  0.4896  1.0028  0.0254
   60SAPC   C36 4665   4.646   4.097  -1.292 -0.6341 -0.3407 -0.1699
   60SAPC   H6X 4666   4.602   3.996  -1.283  1.0116 -1.0479  0.1919
   60SAPC   H6Y 4667   4.754   4.075  -1.308 -1.2394 -3.0718 -0.9075
   60SAPC   C37 4668   4.584   4.175  -1.411 -0.0484  0.2062 -0.1528
   60SAPC   H7X 4669   4.625   4.277  -1.426  0.5495 -0.2247 -1.6051
   60SAPC   H7Y 4670   4.480   4.195  -1.377 -0.1365  1.1104 -0.9119
   60SAPC   C38 4671   4.589   4.091  -1.539 -0.0739 -0.0428  0.1632
   60SAPC   H8X 4672   4.544   3.989  -1.540 -1.7235  0.6570 -0.1921
   60SAPC   H8Y 4673   4.697   4.067  -1.553 -0.2714 -0.1883 -1.2045
   60SAPC   C39 4674   4.536   4.171  -1.655 -0.6906 -0.7594  0.2273
   60SAPC   H9X 4675   4.614   4.247  -1.678 -1.7949  0.5313  0.6649
   60SAPC   H9Y 4676   4.446   4.226  -1.620  1.2762  1.8620  1.6014
   60SAPC  C310 4677   4.519   4.074  -1.772  0.4063  0.2561  0.1137
   60SAPC  H10X 4678   4.469   3.980  -1.740  0.1009 -0.7269 -2.9485
   60SAPC  H10Y 4679   4.621   4.046  -1.807 -1.0271  0.9184 -5.5473
   60SAPC  C311 4680   4.435   4.127  -1.887 -0.0908 -0.6371 -0.0083
   60SAPC  H11X 4681   4.471   4.230  -1.905  0.6211 -1.1757 -1.9115
   60SAPC  H11Y 4682   4.326   4.124  -1.864 -0.6503  1.6520 -1.9827
   60SAPC  C312 4683   4.462   4.056  -2.013  0.3257  0.0251 -0.2932
   60SAPC  H12X 4684   4.441   3.948  -2.003 -1.2596  0.0537 -2.5474
   60SAPC  H12Y 4685   4.570   4.061  -2.040  0.7055  2.1794  1.2968
   60SAPC  C313 4686   4.378   4.126  -2.129  0.2613  0.6320 -0.7206
   60SAPC  H13X 4687   4.413   4.231  -2.143  0.1073  0.8133  0.2138
   60SAPC  H13Y 4688   4.274   4.114  -2.093  1.2251 -2.3866  1.4514
   60SAPC  C314 4689   4.410   4.057  -2.265  0.1919 -0.7502 -0.2665
   60SAPC  H14X 4690   4.412   3.950  -2.235  1.4357 -0.4312  0.8735
   60SAPC  H14Y 4691   4.510   4.086  -2.304 -0.1303  2.2998  0.8936
   60SAPC  C315 4692   4.305   4.075  -2.377 -0.4153 -0.4638 -0.1230
   60SAPC  H15X 4693   4.285   4.180  -2.405 -1.0907 -0.1715  1.3425
   60SAPC  H15Y 4694   4.211   4.030  -2.337 -0.8918 -0.3425 -1.0893
   60SAPC  C316 4695   4.343   3.995  -2.497  0.5826 -0.3184 -0.2664
   60SAPC  H16X 4696   4.383   3.901  -2.453  0.3620  0.0012  0.6322
   60SAPC  H16Y 4697   4.428   4.040  -2.553  0.0588  2.8688  1.2757
   60SAPC  C317 4698   4.221   3.958  -2.584  0.1933  0.0727 -0.6393
   60SAPC  H17X 4699   4.230   4.031  -2.667 -0.3244 -0.9343 -1.6007
   60SAPC  H17Y 4700   4.135   3.973  -2.515  1.0943  1.7667  0.1662
   60SAPC  C318 4701   4.240   3.822  -2.649 -0.0508  0.0068 -0.2253
   60SAPC  H18X 4702   4.155   3.803  -2.717  1.2792 -0.2511 -1.8915
   60SAPC  H18Y 4703   4.252   3.745  -2.570  0.1927  1.6833  1.4544
   60SAPC  H18Z 4704   4.329   3.832  -2.714  1.7873 -2.9877  1.6034
   61SAPC     N 4705   4.402   0.853   8.573 -0.0098 -0.6158  0.1527
   61SAPC   C12 4706   4.259   0.804   8.601 -0.3430  0.3641 -0.0965
   61SAPC  H12A 4707   4.262   0.802   8.709  0.6187 -0.5427 -0.1301
   61SAPC  H12B 4708   4.248   0.705   8.560 -0.1944  0.2871  0.0508
   61SAPC   C13 4709   4.404   0.995   8.584 -0.4798 -0.2905  0.0266
   61SAPC  H13A 4710   4.384   1.040   8.488  1.9970 -0.3005 -0.5799
   61SAPC  H13B 4711   4.335   1.027   8.661 -0.0343 -2.4658  1.4176
   61SAPC  H13C 4712   4.505   1.026   8.608 -0.4817 -0.8143  0.7553
   61SAPC   C14 4713   4.495   0.796   8.675  0.9578 -0.6620 -0.0994
   61SAPC  H14A 4714   4.486   0.858   8.763  1.1454 -0.8451  0.0490
   61SAPC  H14B 4715   4.461   0.695   8.693 -3.6579  0.4131 -1.5907
   61SAPC  H14C 4716   4.597   0.788   8.638  0.6513 -2.0807 -0.7215
   61SAPC   C15 4717   4.443   0.803   8.436 -0.4864  0.1498 -0.5183
   61SAPC  H15A 4718   4.438   0.695   8.434 -0.5629  0.1331  0.2672
   61SAPC  H15B 4719   4.379   0.838   8.356  2.3990  1.0680 -2.5840
   61SAPC  H15C 4720   4.540   0.842   8.408  0.6328 -2.4359 -0.5948
   61SAPC   C11 4721   4.147   0.894   8.544  0.3403 -0.1441 -0.4402
   61SAPC  H11A 4722   4.154   0.913   8.434 -1.0981 -1.3034 -0.7752
   61SAPC  H11B 4723   4.148   0.985   8.607 -0.8830 -1.4238  1.5303
   61SAPC     P 4724   3.904   0.908   8.632 -0.1605  0.0707  0.2108
   61SAPC   O13 4725   3.803   0.809   8.681 -0.0884 -0.3856  0.3477
   61SAPC   O14 4726   3.960   0.996   8.746 -0.0377  0.8074 -0.0460
   61SAPC   O12 4727   4.025   0.823   8.574 -0.9754  0.3059 -0.5284
   61SAPC   O11 4728   3.854   1.001   8.515  0.6361 -0.6047 -0.3986
   61SAPC    C1 4729   3.830   0.947   8.389 -0.1426  0.0000  0.4274
   61SAPC    HA 4730   3.916   0.887   8.353  1.4951  1.3720  1.9091
   61SAPC    HB 4731   3.735   0.889   8.386  0.4089 -0.9103  0.1494
   61SAPC    C2 4732   3.824   1.067   8.291  0.6729 -0.0891  0.2445
   61SAPC    HS 4733   3.744   1.133   8.334  1.8511  0.1129  2.2730
   61SAPC   O21 4734   3.818   1.017   8.153 -0.5009 -0.8597  0.8316
   61SAPC   C21 4735   3.696   0.989   8.103  0.5677  0.4312 -0.3434
   61SAPC   O22 4736   3.595   0.989   8.175  0.8865  0.0740  0.7063
   61SAPC   C22 4737   3.697   0.967   7.948  0.4797 -0.3861  0.6949
   61SAPC   H2R 4738   3.728   0.860   7.945  1.1848 -0.1827  0.5297
   61SAPC   H2S 4739   3.591   0.969   7.914  0.1239 -3.3505  1.3909
   61SAPC    C3 4740   3.945   1.162   8.315 -0.3284  0.4956  0.0400
   61SAPC    HX 4741   4.032   1.100   8.346 -0.8353 -0.2766 -0.0511
   61SAPC    HY 4742   3.921   1.227   8.402 -1.3014  2.1048 -1.3646
   61SAPC   O31 4743   3.982   1.232   8.201  0.6597 -0.4703 -0.2461
   61SAPC   C31 4744   3.912   1.350   8.183  0.1686  0.4983  0.0583
   61SAPC   O32 4745   3.813   1.378   8.246 -0.2786 -0.3553 -0.3760
   61SAPC   C32 4746   3.970   1.427   8.069 -0.3898  0.3788 -0.1011
   61SAPC   H2X 4747   4.081   1.428   8.073 -0.3566  0.3008 -0.8345
   61SAPC   H2Y 4748   3.934   1.531   8.087 -1.7344 -0.3089  1.4204
   61SAPC   C23 4749   3.777   1.063   7.873  0.2185 -0.1878  1.0903
   61SAPC   H3R 4750   3.879   1.062   7.918  0.4751  1.6934  0.6357
   61SAPC   H3S 4751   3.744   1.169   7.883  1.5633  0.1902  1.8625
   61SAPC   C24 4752   3.774   1.041   7.715  0.3448 -0.1577 -0.0274
   61SAPC   H4R 4753   3.825   1.126   7.666  1.0624 -0.8363 -0.4667
   61SAPC   H4S 4754   3.675   1.024   7.668  0.9149 -2.8355 -0.3659
   61SAPC   C25 4755   3.851   0.914   7.681  0.1623 -0.2058  0.2604
   61SAPC   H5R 4756   3.949   0.912   7.729  0.1760 -2.2301  0.2318
   61SAPC   C26 4757   3.818   0.809   7.602  0.3031 -0.4679  0.1905
   61SAPC   H6R 4758   3.887   0.726   7.579  0.4895 -0.8367  1.9164
   61SAPC   C27 4759   3.686   0.794   7.533  1.5876 -0.7378 -0.0114
   61SAPC   H7R 4760   3.687   0.868   7.450  0.8458  2.3804  2.5567
   61SAPC   H7S 4761   3.603   0.819   7.602  0.9767 -1.6270 -0.3948
   61SAPC   C28 4762   3.655   0.655   7.480 -0.2448  1.0889  1.2206
   61SAPC   H8R 4763   3.731   0.578   7.496 -0.5646  0.1911 -1.1999
   61SAPC   C29 4764   3.540   0.628   7.409 -0.1233 -0.0508  0.2412
   61SAPC   H9R 4765   3.511   0.526   7.380 -1.9997  0.3570  0.5291
   61SAPC  C210 4766   3.430   0.728   7.375 -0.1988  0.5907  0.9081
   61SAPC  H10R 4767   3.460   0.773   7.277  1.7743  2.3517  2.2252
   61SAPC  H10S 4768   3.430   0.817   7.442  1.9917  0.7777  0.7302
   61SAPC  C211 4769   3.296   0.659   7.365  0.0577  0.1231 -0.1282
   61SAPC  H11R 4770   3.219   0.667   7.443  1.3874  0.5352  1.1848
   61SAPC  C212 4771   3.252   0.588   7.260  0.2771 -0.7363  0.4068
   61SAPC  H12R 4772   3.147   0.554   7.254 -0.0810  0.3708  0.0405
   61SAPC  C213 4773   3.315   0.549   7.127 -0.2139 -0.1247 -0.3526
   61SAPC  H13R 4774   3.373   0.637   7.090 -0.4927  0.5831  0.8454
   61SAPC  H13S 4775   3.228   0.527   7.062  0.4352  1.5107 -1.8741
   61SAPC  C214 4776   3.393   0.425   7.128 -0.0664 -0.4815 -0.4344
   61SAPC  H14R 4777   3.432   0.390   7.225  2.7061  0.2685 -1.1751
   61SAPC  C215 4778   3.435   0.359   7.017 -0.1168 -0.2199  0.1889
   61SAPC  H15R 4779   3.517   0.288   7.040  1.4481  1.6949  0.8053
   61SAPC  C216 4780   3.403   0.391   6.870 -0.6210  0.1185  0.0470
   61SAPC  H16R 4781   3.491   0.378   6.804 -0.9044 -2.2662  0.0439
   61SAPC  H16S 4782   3.373   0.497   6.861  0.5023  0.6671  2.2888
   61SAPC  C217 4783   3.290   0.300   6.814  0.1256  0.0946 -0.6107
   61SAPC  H17R 4784   3.201   0.311   6.880 -1.6272 -2.0566 -2.4561
   61SAPC  H17S 4785   3.328   0.196   6.823 -0.2317  0.1095  1.7938
   61SAPC  C218 4786   3.226   0.319   6.670 -0.4587  0.0883  0.7916
   61SAPC  H18R 4787   3.146   0.241   6.666 -1.4392  1.0508  1.1410
   61SAPC  H18S 4788   3.296   0.285   6.591 -2.0309 -2.5219  0.3723
   61SAPC  C219 4789   3.169   0.454   6.648 -0.0474 -0.6019 -0.1847
   61SAPC  H19R 4790   3.247   0.533   6.644  1.6863 -2.2471 -0.2104
   61SAPC  H19S 4791   3.103   0.491   6.730 -0.0427  2.4378 -1.4244
   61SAPC  C220 4792   3.091   0.467   6.520  1.0571  0.7318  0.0512
   61SAPC  H20R 4793   3.025   0.555   6.535  0.0792  0.3918 -1.9145
   61SAPC  H20S 4794   3.028   0.380   6.492 -0.7594  2.7457 -2.6211
   61SAPC  H20T 4795   3.148   0.489   6.427 -0.0440 -1.8525 -1.3353
   61SAPC   C33 4796   3.924   1.392   7.926  0.2722  0.2383 -0.1569
   61SAPC   H3X 4797   3.815   1.409   7.909  0.4894  0.8526 -1.0436
   61SAPC   H3Y 4798   3.942   1.284   7.912 -1.5453 -0.0909 -0.1547
   61SAPC   C34 4799   3.994   1.481   7.820  0.4886  0.5599  0.7572
   61SAPC   H4X 4800   4.101   1.450   7.824  0.0958 -0.7971  1.9274
   61SAPC   H4Y 4801   3.982   1.589   7.844  0.0628  0.7064 -0.0892
   61SAPC   C35 4802   3.947   1.437   7.681  0.1588 -0.3181  0.5978
   61SAPC   H5X 4803   3.839   1.460   7.682  0.6483  2.2585  2.1451
   61SAPC   H5Y 4804   3.961   1.326   7.676  0.6463 -0.2418  0.1788
   61SAPC   C36 4805   4.011   1.521   7.572  0.2066 -0.2049 -0.6175
   61SAPC   H6X 4806   4.116   1.528   7.609  0.1787  0.2627 -0.6265
   61SAPC   H6Y 4807   3.962   1.618   7.592  0.5488 -0.7872  4.1810
   61SAPC   C37 4808   3.995   1.465   7.431  0.1858  0.5853 -0.2087
   61SAPC   H7X 4809   3.887   1.446   7.418  0.5554 -0.4338 -2.1531
   61SAPC   H7Y 4810   4.044   1.366   7.419  0.6301  0.8159 -0.3042
   61SAPC   C38 4811   4.026   1.569   7.325 -0.2985 -0.3348 -0.7141
   61SAPC   H8X 4812   4.134   1.586   7.309 -0.1577 -1.0272 -0.5353
   61SAPC   H8Y 4813   3.979   1.667   7.348  0.0070 -0.7420  1.9717
   61SAPC   C39 4814   3.968   1.522   7.191  0.7225  0.4614 -0.2218
   61SAPC   H9X 4815   3.868   1.477   7.203  1.2574 -0.4425  1.0672
   61SAPC   H9Y 4816   4.025   1.432   7.159  1.3057  0.8485 -0.3045
   61SAPC  C310 4817   3.979   1.632   7.085 -0.6730  0.0590  0.4366
   61SAPC  H10X 4818   4.086   1.655   7.063 -1.0412  1.0648 -0.4006
   61SAPC  H10Y 4819   3.927   1.722   7.123 -3.1362 -0.2647 -1.8814
   61SAPC  C311 4820   3.916   1.605   6.950  0.0859  0.3858  0.1334
   61SAPC  H11X 4821   3.825   1.548   6.977 -0.0005  0.8912  0.9438
   61SAPC  H11Y 4822   3.987   1.545   6.889  0.0369  0.9565 -0.5004
   61SAPC  C312 4823   3.865   1.731   6.889  0.3703 -0.8011  0.1124
   61SAPC  H12X 4824   3.956   1.794   6.887  0.5942 -1.0778  1.1104
   61SAPC  H12Y 4825   3.781   1.771   6.950 -3.1198 -1.1732 -3.9572
   61SAPC  C313 4826   3.832   1.716   6.744  0.0505  0.5877 -0.6029
   61SAPC  H13X 4827   3.897   1.632   6.711  0.4110 -0.3154  2.1685
   61SAPC  H13Y 4828   3.854   1.804   6.679  1.4958  0.4239 -0.3643
   61SAPC  C314 4829   3.690   1.673   6.705 -0.3297  0.5455 -0.1577
   61SAPC  H14X 4830   3.619   1.759   6.711  1.6569  2.3684 -1.2221
   61SAPC  H14Y 4831   3.657   1.606   6.787  2.1302 -0.0099  0.4693
   61SAPC  C315 4832   3.674   1.589   6.575  0.5357 -0.1448 -0.2804
   61SAPC  H15X 4833   3.565   1.574   6.561  0.6592 -0.1271 -1.3286
   61SAPC  H15Y 4834   3.725   1.491   6.582 -1.0775 -0.9397  0.9116
   61SAPC  C316 4835   3.725   1.660   6.453  0.5164 -0.5952  0.9333
   61SAPC  H16X 4836   3.830   1.692   6.473  0.0392  0.7852  1.3791
   61SAPC  H16Y 4837   3.668   1.755   6.446 -1.3622 -1.5858  1.9953
   61SAPC  C317 4838   3.722   1.574   6.323 -0.5735 -0.5429 -0.5498
   61SAPC  H17X 4839   3.781   1.482   6.340 -3.6608 -2.4943  0.3664
   61SAPC  H17Y 4840   3.778   1.640   6.253  1.6013 -0.0026  1.5699
   61SAPC  C318 4841   3.582   1.550   6.260 -0.0145 -0.0534 -0.0682
   61SAPC  H18X 4842   3.548   1.651   6.231  0.5006  0.2030  0.2104
   61SAPC  H18Y 4843   3.523   1.489   6.332  0.5000 -0.0703  0.3436
   61SAPC  H18Z 4844   3.592   1.498   6.162  1.5954  1.9979 -1.0524
   62SAPC     N 4845   3.349   5.574   8.805  0.0472  0.1113 -0.1318
   62SAPC   C12 4846   3.486   5.629   8.841 -0.7951 -0.5867 -0.5034
   62SAPC  H12A 4847   3.517   5.581   8.933  0.8670 -0.6358 -1.0571
   62SAPC  H12B 4848   3.476   5.736   8.851 -0.5446 -0.6617  0.7631
   62SAPC   C13 4849   3.290   5.637   8.689 -0.1085  0.2792  0.4434
   62SAPC  H13A 4850   3.273   5.743   8.698  0.6102  0.5058 -0.6354
   62SAPC  H13B 4851   3.354   5.628   8.602  0.4756 -1.1117  0.9803
   62SAPC  H13C 4852   3.192   5.597   8.667 -0.2052  1.1514 -0.7967
   62SAPC   C14 4853   3.355   5.426   8.769  0.0947  0.2509 -0.5270
   62SAPC  H14A 4854   3.256   5.388   8.749 -0.9009  2.6680 -0.4168
   62SAPC  H14B 4855   3.403   5.405   8.675 -0.8389  0.4743 -1.0625
   62SAPC  H14C 4856   3.408   5.367   8.843 -1.8321  0.5141  1.1620
   62SAPC   C15 4857   3.266   5.600   8.930  0.2273 -0.1225 -0.0057
   62SAPC  H15A 4858   3.309   5.558   9.019  2.7517  0.8672 -0.6635
   62SAPC  H15B 4859   3.261   5.707   8.948  1.5053 -0.0484  0.0127
   62SAPC  H15C 4860   3.162   5.573   8.914 -0.7554  1.7401  2.5501
   62SAPC   C11 4861   3.602   5.597   8.749 -0.4521  0.1026 -0.2653
   62SAPC  H11A 4862   3.594   5.486   8.749  0.1605  0.0466 -1.2877
   62SAPC  H11B 4863   3.698   5.627   8.795 -0.5387 -0.6054  0.4043
   62SAPC     P 4864   3.640   5.567   8.492 -0.0615 -0.5136 -0.2778
   62SAPC   O13 4865   3.662   5.667   8.384  0.2560 -0.1508  0.6905
   62SAPC   O14 4866   3.763   5.499   8.548 -0.1205 -0.7355  0.6796
   62SAPC   O12 4867   3.576   5.644   8.612  0.2111 -0.7213 -0.1589
   62SAPC   O11 4868   3.544   5.451   8.447 -0.0106  0.5191 -0.0525
   62SAPC    C1 4869   3.416   5.473   8.391 -0.4040  0.1613  0.0264
   62SAPC    HA 4870   3.346   5.494   8.474  0.6081 -0.3872  1.0418
   62SAPC    HB 4871   3.408   5.564   8.327  1.3900  0.2308 -0.1419
   62SAPC    C2 4872   3.370   5.354   8.310 -0.4953 -0.3131  0.1434
   62SAPC    HS 4873   3.408   5.258   8.350 -0.3641 -0.7940 -1.0740
   62SAPC   O21 4874   3.408   5.368   8.173 -0.1307 -0.7821 -0.3428
   62SAPC   C21 4875   3.381   5.276   8.087 -0.3861  0.2408 -0.5489
   62SAPC   O22 4876   3.330   5.169   8.114 -0.0507  0.2129 -0.5905
   62SAPC   C22 4877   3.417   5.316   7.942  0.1403 -0.0672 -0.1791
   62SAPC   H2R 4878   3.315   5.347   7.909 -1.9693 -1.1055  4.4009
   62SAPC   H2S 4879   3.482   5.406   7.933 -0.6601  0.4045 -1.4597
   62SAPC    C3 4880   3.212   5.342   8.317 -0.2230 -0.4468 -0.0666
   62SAPC    HX 4881   3.184   5.344   8.424  0.9245 -1.4981  0.2590
   62SAPC    HY 4882   3.181   5.242   8.280  1.6141 -0.1121 -2.8673
   62SAPC   O31 4883   3.134   5.439   8.248  0.4240  0.3653  0.3432
   62SAPC   C31 4884   3.081   5.540   8.324 -0.3890 -0.8759  0.4724
   62SAPC   O32 4885   3.095   5.554   8.442 -0.7816  0.1998 -0.1872
   62SAPC   C32 4886   3.012   5.642   8.227 -0.5539 -1.0481  0.4916
   62SAPC   H2X 4887   3.097   5.691   8.175 -1.7939  1.4833  0.7036
   62SAPC   H2Y 4888   2.947   5.702   8.294 -1.7962 -2.0774  0.2407
   62SAPC   C23 4889   3.475   5.209   7.845 -0.2213 -0.1331 -0.2601
   62SAPC   H3R 4890   3.454   5.104   7.877  0.5976 -0.3559 -0.4131
   62SAPC   H3S 4891   3.585   5.226   7.844 -0.4216  1.1817 -1.2141
   62SAPC   C24 4892   3.426   5.228   7.698  0.6011  0.1260 -0.0049
   62SAPC   H4R 4893   3.497   5.178   7.628 -0.1980 -1.5876  0.3642
   62SAPC   H4S 4894   3.435   5.338   7.682  0.2177  0.2989  0.9310
   62SAPC   C25 4895   3.285   5.184   7.684  0.2757 -0.3645 -0.7441
   62SAPC   H5R 4896   3.252   5.119   7.766  0.1465 -1.7477 -1.8520
   62SAPC   C26 4897   3.219   5.177   7.562  0.1096  0.5201  0.0444
   62SAPC   H6R 4898   3.116   5.141   7.576  0.3002  0.6560  2.0890
   62SAPC   C27 4899   3.276   5.228   7.431  0.0805  0.2051 -0.9704
   62SAPC   H7R 4900   3.387   5.233   7.431  0.0500  1.2589 -1.8000
   62SAPC   H7S 4901   3.227   5.327   7.420  0.9076  0.4738 -2.4931
   62SAPC   C28 4902   3.224   5.144   7.319  0.0283 -0.2516 -0.0702
   62SAPC   H8R 4903   3.139   5.075   7.333 -1.1121  0.6078 -2.3024
   62SAPC   C29 4904   3.289   5.129   7.198 -0.1193  0.1803 -0.4113
   62SAPC   H9R 4905   3.226   5.076   7.125 -0.7842  1.2636 -0.6420
   62SAPC  C210 4906   3.407   5.200   7.137 -0.2229  0.0907 -0.3913
   62SAPC  H10R 4907   3.477   5.117   7.114  1.3038  0.0469  3.5397
   62SAPC  H10S 4908   3.450   5.273   7.209 -0.7949  0.4522 -0.4105
   62SAPC  C211 4909   3.370   5.289   7.027 -0.2309 -0.9979  0.6073
   62SAPC  H11R 4910   3.324   5.384   7.059 -2.4124 -2.1071  0.9777
   62SAPC  C212 4911   3.402   5.274   6.898 -0.0750  0.0653 -0.2394
   62SAPC  H12R 4912   3.359   5.342   6.823 -2.0406 -0.5133  0.2906
   62SAPC  C213 4913   3.476   5.164   6.838 -0.5966  0.2614 -0.5895
   62SAPC  H13R 4914   3.553   5.132   6.911 -0.2542  1.2616 -0.4944
   62SAPC  H13S 4915   3.532   5.198   6.748  0.2472  0.6129  0.0638
   62SAPC  C214 4916   3.412   5.032   6.809 -0.0717 -0.8058 -0.4546
   62SAPC  H14R 4917   3.439   4.957   6.885  0.6926  0.2425  0.3417
   62SAPC  C215 4918   3.338   4.988   6.709  0.3275 -0.1390  0.0297
   62SAPC  H15R 4919   3.313   4.881   6.710 -1.2761  0.1663 -1.6305
   62SAPC  C216 4920   3.294   5.077   6.590 -0.2487  0.3579  0.3867
   62SAPC  H16R 4921   3.313   5.184   6.616 -2.0588  0.8818 -0.2934
   62SAPC  H16S 4922   3.183   5.080   6.580 -0.2811 -1.8582 -0.3400
   62SAPC  C217 4923   3.345   5.037   6.446  0.8325 -0.9036 -0.6662
   62SAPC  H17R 4924   3.319   5.118   6.374  1.5333  0.3499  0.4303
   62SAPC  H17S 4925   3.305   4.940   6.410  0.3687 -1.1881  0.5890
   62SAPC  C218 4926   3.497   5.025   6.432  0.2365 -0.3553  0.0974
   62SAPC  H18R 4927   3.538   4.954   6.507  2.5509  3.0001  2.3336
   62SAPC  H18S 4928   3.530   5.127   6.463  1.7648 -0.1916 -1.8932
   62SAPC  C219 4929   3.517   4.996   6.286 -0.4590 -0.3338 -0.0354
   62SAPC  H19R 4930   3.437   5.035   6.220 -1.2593 -0.2884  0.9191
   62SAPC  H19S 4931   3.509   4.886   6.272 -1.3861 -0.2837  0.0268
   62SAPC  C220 4932   3.660   5.042   6.246 -0.3107 -0.1819  0.1416
   62SAPC  H20R 4933   3.687   5.031   6.139 -0.5455  1.6922 -0.1477
   62SAPC  H20S 4934   3.735   4.989   6.309 -1.2671 -0.3792  1.1369
   62SAPC  H20T 4935   3.663   5.151   6.269  0.0723  0.2003 -1.5812
   62SAPC   C33 4936   2.911   5.575   8.128 -0.1528 -0.3409  0.8746
   62SAPC   H3X 4937   2.835   5.652   8.105  0.1301 -0.2492  0.2324
   62SAPC   H3Y 4938   2.865   5.486   8.177  3.6998 -3.1478 -0.1165
   62SAPC   C34 4939   2.980   5.525   7.991  0.1419 -0.0467  0.3874
   62SAPC   H4X 4940   3.079   5.478   8.008  0.5774  1.5569  2.7770
   62SAPC   H4Y 4941   2.998   5.608   7.919 -0.2575 -0.9645 -0.7964
   62SAPC   C35 4942   2.880   5.445   7.893 -0.4646 -0.0955 -0.1545
   62SAPC   H5X 4943   2.789   5.509   7.881 -0.2263  0.2463 -0.1583
   62SAPC   H5Y 4944   2.836   5.355   7.940 -1.9796  0.5616 -0.2515
   62SAPC   C36 4945   2.930   5.417   7.757  0.1223  0.1066 -0.1849
   62SAPC   H6X 4946   3.004   5.334   7.763 -1.2832 -1.0786  2.6577
   62SAPC   H6Y 4947   2.975   5.504   7.703 -1.0608 -0.1721 -1.6968
   62SAPC   C37 4948   2.820   5.364   7.661 -0.3451 -0.0235  0.1968
   62SAPC   H7X 4949   2.731   5.331   7.718  0.4257 -1.3541  0.6960
   62SAPC   H7Y 4950   2.854   5.271   7.610 -0.8200 -0.7362  1.1400
   62SAPC   C38 4951   2.789   5.467   7.552  0.1929 -0.3156  0.0154
   62SAPC   H8X 4952   2.794   5.570   7.592 -3.7006  0.3670 -0.8582
   62SAPC   H8Y 4953   2.684   5.461   7.516  0.4183  0.7772 -0.8807
   62SAPC   C39 4954   2.896   5.463   7.439  0.4570  0.9229  0.6617
   62SAPC   H9X 4955   2.995   5.456   7.488  0.4124 -0.3489  0.5928
   62SAPC   H9Y 4956   2.891   5.560   7.384 -0.8083  0.1847 -0.6033
   62SAPC  C310 4957   2.875   5.354   7.338  0.0786  0.5076 -0.6827
   62SAPC  H10X 4958   2.767   5.359   7.309 -1.0190  0.9596  3.0078
   62SAPC  H10Y 4959   2.885   5.252   7.379 -2.3863  0.4452 -0.0943
   62SAPC  C311 4960   2.959   5.361   7.209  0.0094 -0.2942  0.0188
   62SAPC  H11X 4961   3.059   5.318   7.227 -0.0056 -0.4465 -0.2604
   62SAPC  H11Y 4962   2.961   5.463   7.165 -1.6018 -0.1192  0.2621
   62SAPC  C312 4963   2.888   5.283   7.092 -0.1645  0.1677 -0.4200
   62SAPC  H12X 4964   2.782   5.318   7.093 -0.1535  0.2302  0.9964
   62SAPC  H12Y 4965   2.892   5.173   7.110 -3.6233  0.1952  1.4146
   62SAPC  C313 4966   2.959   5.315   6.954 -0.4582  0.6112  0.4781
   62SAPC  H13X 4967   3.048   5.250   6.965 -1.5322 -1.1454 -0.6791
   62SAPC  H13Y 4968   2.986   5.421   6.935 -1.1924  0.8557  0.7354
   62SAPC  C314 4969   2.880   5.278   6.826 -0.0686 -0.0916  0.0818
   62SAPC  H14X 4970   2.815   5.364   6.800  0.4293  0.6732  1.3317
   62SAPC  H14Y 4971   2.802   5.200   6.845  1.3677 -1.2496  1.5409
   62SAPC  C315 4972   2.966   5.230   6.710 -0.5204 -0.3094  0.0332
   62SAPC  H15X 4973   3.016   5.134   6.733  0.7635  0.0241 -1.2420
   62SAPC  H15Y 4974   3.040   5.312   6.701  0.0979 -1.0372 -2.0244
   62SAPC  C316 4975   2.881   5.221   6.589  0.1805  0.0410  0.4996
   62SAPC  H16X 4976   2.774   5.242   6.611  0.5756  1.4246  1.1952
   62SAPC  H16Y 4977   2.876   5.126   6.531 -0.2250 -0.6943  1.7055
   62SAPC  C317 4978   2.904   5.345   6.495  0.3383  0.0341  0.5328
   62SAPC  H17X 4979   3.013   5.348   6.473  0.6410  0.7356  1.9763
   62SAPC  H17Y 4980   2.883   5.435   6.556 -0.5164 -0.7776  1.4838
   62SAPC  C318 4981   2.821   5.339   6.358  0.2371  0.1168  0.3211
   62SAPC  H18X 4982   2.714   5.332   6.385  0.8393 -1.3381  2.5322
   62SAPC  H18Y 4983   2.850   5.248   6.301  1.5995  1.5853 -1.5177
   62SAPC  H18Z 4984   2.837   5.433   6.301 -1.9810  0.7962  0.7290
   63SAPC     N 4985   5.391   0.813   8.156 -0.8177 -0.3563  0.2261
   63SAPC   C12 4986   5.437   0.914   8.048  0.7060 -0.0992  0.3720
   63SAPC  H12A 4987   5.406   0.875   7.951  1.1642  1.4426 -0.4242
   63SAPC  H12B 4988   5.544   0.924   8.038  0.9369 -1.4484  1.2617
   63SAPC   C13 4989   5.458   0.684   8.128 -0.7244  0.4945  0.6802
   63SAPC  H13A 4990   5.565   0.697   8.130 -0.7843  1.1703 -0.3187
   63SAPC  H13B 4991   5.429   0.616   8.207 -1.4346 -0.0041  0.0083
   63SAPC  H13C 4992   5.440   0.653   8.026 -1.5649 -1.7764  1.4520
   63SAPC   C14 4993   5.436   0.865   8.292 -0.7855  0.2649  0.3371
   63SAPC  H14A 4994   5.406   0.968   8.297 -0.6926  0.3423 -0.5805
   63SAPC  H14B 4995   5.387   0.813   8.373 -0.8146 -0.7355 -0.3101
   63SAPC  H14C 4996   5.544   0.859   8.287 -0.8416 -0.0261 -0.8650
   63SAPC   C15 4997   5.245   0.794   8.159 -0.4703 -0.1750  0.4842
   63SAPC  H15A 4998   5.196   0.888   8.177  0.1195 -0.1241  1.9020
   63SAPC  H15B 4999   5.200   0.741   8.077 -2.6129  1.9133  0.2177
   63SAPC  H15C 5000   5.225   0.731   8.244 -0.7786 -1.4325 -0.4930
   63SAPC   C11 5001   5.387   1.063   8.058  0.1369  0.8182  0.5426
   63SAPC  H11A 5002   5.277   1.050   8.067  0.5104 -1.6511  2.9278
   63SAPC  H11B 5003   5.401   1.104   7.955 -0.7053 -0.4680 -0.1161
   63SAPC     P 5004   5.585   1.198   8.123  0.1887  0.0048  0.2259
   63SAPC   O13 5005   5.645   1.259   8.244 -0.4620  0.4448  0.1542
   63SAPC   O14 5006   5.664   1.099   8.053 -0.0523  0.5005 -0.0473
   63SAPC   O12 5007   5.445   1.133   8.169 -0.3946 -0.1779 -0.7446
   63SAPC   O11 5008   5.543   1.308   8.010 -0.1421  0.0173  0.1145
   63SAPC    C1 5009   5.416   1.375   8.019  0.5653 -0.1019  1.1298
   63SAPC    HA 5010   5.331   1.310   7.991 -1.0951  1.9216  1.2044
   63SAPC    HB 5011   5.387   1.425   8.114  0.8774  0.5095  0.9094
   63SAPC    C2 5012   5.405   1.497   7.923 -0.5325 -0.2575  0.1581
   63SAPC    HS 5013   5.307   1.540   7.951 -0.1162  0.2855  0.8173
   63SAPC   O21 5014   5.407   1.456   7.787 -0.5557  0.3588 -0.0851
   63SAPC   C21 5015   5.290   1.411   7.743 -0.6185 -0.5222 -0.4798
   63SAPC   O22 5016   5.186   1.407   7.808 -0.2894  0.0138  0.3548
   63SAPC   C22 5017   5.295   1.387   7.598 -0.1513 -0.4253  0.1173
   63SAPC   H2R 5018   5.383   1.322   7.580  0.3651  0.2836  0.0543
   63SAPC   H2S 5019   5.197   1.347   7.564 -1.9921  2.9180  1.0320
   63SAPC    C3 5020   5.511   1.612   7.949 -0.5297 -0.9649 -0.0801
   63SAPC    HX 5021   5.600   1.550   7.973  0.8663  0.9195 -0.0963
   63SAPC    HY 5022   5.476   1.672   8.035 -0.7869 -0.7544 -0.3278
   63SAPC   O31 5023   5.535   1.691   7.835  0.2492 -0.0424  0.6859
   63SAPC   C31 5024   5.449   1.793   7.813  0.2632 -0.0753  0.0790
   63SAPC   O32 5025   5.346   1.811   7.875 -0.1497 -0.2816  0.0993
   63SAPC   C32 5026   5.494   1.872   7.696  0.4755 -0.3049 -0.6266
   63SAPC   H2X 5027   5.523   1.798   7.619  2.3265 -2.5254  2.0084
   63SAPC   H2Y 5028   5.589   1.918   7.731  0.3208  1.0987 -1.9615
   63SAPC   C23 5029   5.317   1.521   7.522  0.2739 -0.1369  0.2095
   63SAPC   H3R 5030   5.410   1.578   7.541 -0.6911  1.7169 -0.3525
   63SAPC   H3S 5031   5.242   1.595   7.557 -0.6193 -0.7196 -0.4085
   63SAPC   C24 5032   5.301   1.517   7.366  0.4540  0.3280  1.1710
   63SAPC   H4R 5033   5.326   1.621   7.336  1.6058 -0.0974  0.6050
   63SAPC   H4S 5034   5.200   1.495   7.326  0.7650  0.9408 -0.0109
   63SAPC   C25 5035   5.401   1.422   7.299  0.4260  0.6251  0.1281
   63SAPC   H5R 5036   5.480   1.374   7.359  1.7936  1.9978 -0.4828
   63SAPC   C26 5037   5.390   1.401   7.165 -0.1070 -0.5925 -0.1295
   63SAPC   H6R 5038   5.464   1.336   7.114  1.5170  1.4058 -0.4783
   63SAPC   C27 5039   5.298   1.479   7.070  0.2233 -0.4009 -0.3906
   63SAPC   H7R 5040   5.215   1.524   7.129  1.3262 -0.3371  1.1864
   63SAPC   H7S 5041   5.244   1.404   7.008  0.1819  0.3325 -1.2588
   63SAPC   C28 5042   5.378   1.583   6.992 -0.2293  0.4419  0.1674
   63SAPC   H8R 5043   5.433   1.653   7.057  1.8436 -0.5135 -0.4531
   63SAPC   C29 5044   5.380   1.593   6.857 -0.2476  1.0938  0.0246
   63SAPC   H9R 5045   5.448   1.669   6.816 -2.3644  2.2902 -1.4395
   63SAPC  C210 5046   5.297   1.512   6.759  0.3155 -0.3241 -0.1384
   63SAPC  H10R 5047   5.242   1.583   6.693  2.2810  0.6595 -0.7917
   63SAPC  H10S 5048   5.219   1.470   6.826 -1.7265  0.2309 -2.0412
   63SAPC  C211 5049   5.359   1.402   6.677 -0.1078  0.0243 -0.1971
   63SAPC  H11R 5050   5.390   1.314   6.735 -0.6418  0.0013  0.0513
   63SAPC  C212 5051   5.352   1.407   6.537  0.2362  0.3091  0.2272
   63SAPC  H12R 5052   5.405   1.332   6.476  0.1292  0.6157 -0.2494
   63SAPC  C213 5053   5.300   1.519   6.448  0.0949 -0.6634  1.2694
   63SAPC  H13R 5054   5.345   1.505   6.348  1.4260  0.8185  1.6261
   63SAPC  H13S 5055   5.334   1.615   6.491  0.9389 -0.6127  0.5075
   63SAPC  C214 5056   5.148   1.514   6.431  0.5034  0.4905 -0.9339
   63SAPC  H14R 5057   5.110   1.415   6.461  0.2671  1.3071  1.7180
   63SAPC  C215 5058   5.057   1.602   6.385  0.2592  0.1425  0.7840
   63SAPC  H15R 5059   4.949   1.582   6.381  0.3676 -0.2512 -0.5641
   63SAPC  C216 5060   5.104   1.741   6.350 -0.2535  0.0224  0.0385
   63SAPC  H16R 5061   5.205   1.765   6.389 -1.2439  1.8954  1.6221
   63SAPC  H16S 5062   5.049   1.802   6.424  0.9028 -1.7049  2.4360
   63SAPC  C217 5063   5.083   1.785   6.209 -0.4841  0.5819  0.0390
   63SAPC  H17R 5064   5.152   1.726   6.145 -2.3446 -0.9693 -0.6263
   63SAPC  H17S 5065   5.134   1.884   6.203  3.3644 -1.1597  0.6409
   63SAPC  C218 5066   4.941   1.791   6.157  0.4016 -0.0515  0.1693
   63SAPC  H18R 5067   4.891   1.857   6.232 -1.2987 -0.6448 -0.3802
   63SAPC  H18S 5068   4.885   1.695   6.167 -0.9518  0.6843 -0.0925
   63SAPC  C219 5069   4.927   1.834   6.008  0.7245  0.4651 -0.0399
   63SAPC  H19R 5070   4.825   1.821   5.964  0.7860 -0.5128  0.0694
   63SAPC  H19S 5071   4.989   1.769   5.943  1.4267 -0.8489  1.8530
   63SAPC  C220 5072   4.963   1.974   5.973  0.3043 -0.1122 -0.2873
   63SAPC  H20R 5073   5.072   1.990   5.986  0.4582 -0.6647 -0.8919
   63SAPC  H20S 5074   4.915   2.057   6.030  2.1786  1.0403 -0.3173
   63SAPC  H20T 5075   4.944   1.988   5.865  1.9784 -1.5360 -0.8081
   63SAPC   C33 5076   5.389   1.977   7.639  0.7823  0.6706  0.1045
   63SAPC   H3X 5077   5.449   2.062   7.601 -1.1773  3.1955  2.2323
   63SAPC   H3Y 5078   5.313   2.011   7.713 -1.0634  0.6782 -1.6889
   63SAPC   C34 5079   5.320   1.913   7.515  0.6469 -1.0778 -0.1357
   63SAPC   H4X 5080   5.232   1.853   7.545  0.2888  0.0368  1.1708
   63SAPC   H4Y 5081   5.393   1.855   7.454  2.2490 -0.1001  0.7668
   63SAPC   C35 5082   5.270   2.027   7.422 -0.3929 -0.1594  0.6636
   63SAPC   H5X 5083   5.356   2.084   7.381  0.7423 -1.9364  0.4427
   63SAPC   H5Y 5084   5.209   2.090   7.489  0.2427  1.4112 -0.1731
   63SAPC   C36 5085   5.202   1.962   7.303  0.2875 -0.0141 -0.2306
   63SAPC   H6X 5086   5.123   2.029   7.263  0.6465 -0.4021 -1.6309
   63SAPC   H6Y 5087   5.159   1.861   7.318 -2.5481  1.2736  1.2421
   63SAPC   C37 5088   5.293   1.929   7.181  0.2363  1.0816 -0.3766
   63SAPC   H7X 5089   5.357   1.849   7.225 -1.1873  0.6729  1.0074
   63SAPC   H7Y 5090   5.362   2.006   7.141 -0.4299  1.5000 -0.7323
   63SAPC   C38 5091   5.216   1.859   7.064 -0.0065 -0.1914 -0.1812
   63SAPC   H8X 5092   5.154   1.782   7.115 -1.3615  0.9408 -0.0487
   63SAPC   H8Y 5093   5.278   1.815   6.983 -0.2898 -0.4742 -0.2460
   63SAPC   C39 5094   5.130   1.956   6.990 -0.1348 -0.8250  0.4651
   63SAPC   H9X 5095   5.189   2.049   6.971  0.3566 -0.6417  2.6930
   63SAPC   H9Y 5096   5.046   1.988   7.056  1.6298  2.4609  1.3634
   63SAPC  C310 5097   5.064   1.904   6.862 -0.2170 -0.4117  0.5507
   63SAPC  H10X 5098   5.002   1.818   6.896  1.1405 -1.1476  1.2776
   63SAPC  H10Y 5099   5.141   1.866   6.791  0.4086  0.7017  0.6191
   63SAPC  C311 5100   4.984   2.012   6.793  0.4763 -0.1835 -0.7545
   63SAPC  H11X 5101   5.049   2.099   6.770  1.4383 -1.3224 -2.6349
   63SAPC  H11Y 5102   4.905   2.049   6.862  0.9164 -1.7808  0.6721
   63SAPC  C312 5103   4.919   1.967   6.663  0.4435  0.2737  0.0557
   63SAPC  H12X 5104   5.000   1.920   6.604 -0.8403 -2.4445  0.3143
   63SAPC  H12Y 5105   4.870   2.049   6.606  1.0740  0.5799 -0.0518
   63SAPC  C313 5106   4.814   1.854   6.676  0.5729 -0.2060  0.3265
   63SAPC  H13X 5107   4.737   1.889   6.747 -0.2226  1.3389 -1.2177
   63SAPC  H13Y 5108   4.870   1.770   6.721 -0.0646 -0.2174  1.1121
   63SAPC  C314 5109   4.752   1.799   6.548 -0.0609 -0.3007 -0.2753
   63SAPC  H14X 5110   4.680   1.722   6.580 -1.0363 -0.1086 -1.9025
   63SAPC  H14Y 5111   4.828   1.755   6.480  1.4525  0.0944  1.1033
   63SAPC  C315 5112   4.683   1.918   6.479 -0.2523 -0.3357  0.9862
   63SAPC  H15X 5113   4.762   1.985   6.439 -2.2635  1.6754  0.0902
   63SAPC  H15Y 5114   4.621   1.977   6.551 -3.3363 -2.6223  0.4399
   63SAPC  C316 5115   4.607   1.882   6.356  0.3116  0.7595 -0.0071
   63SAPC  H16X 5116   4.534   1.802   6.384  1.7299 -0.6111 -0.0669
   63SAPC  H16Y 5117   4.682   1.842   6.284  0.7122  0.3229  0.6435
   63SAPC  C317 5118   4.534   2.008   6.307 -0.2162 -0.4237  0.0869
   63SAPC  H17X 5119   4.597   2.097   6.325  0.6436 -1.2508  1.3129
   63SAPC  H17Y 5120   4.445   2.018   6.372  1.4164  1.3599  2.2158
   63SAPC  C318 5121   4.481   2.006   6.160  0.4949 -0.3027 -0.6024
   63SAPC  H18X 5122   4.439   2.103   6.125  1.2430  0.9291  1.7223
   63SAPC  H18Y 5123   4.413   1.920   6.144 -1.2115  1.3071 -2.6204
   63SAPC  H18Z 5124   4.573   1.995   6.098  1.6211  1.3701  0.6471
   64SAPC     N 5125   5.062   6.157   0.305 -0.2781 -0.0548 -0.0615
   64SAPC   C12 5126   5.013   6.063   0.187 -0.3152  1.1274  0.2397
   64SAPC  H12A 5127   4.907   6.077   0.175 -0.7707 -0.0169  2.4701
   64SAPC  H12B 5128   5.014   5.962   0.223 -2.2717  0.6271 -0.9637
   64SAPC   C13 5129   5.212   6.145   0.334  0.3178  0.7459 -0.3645
   64SAPC  H13A 5130   5.256   6.046   0.331 -0.3420  0.4289  0.0741
   64SAPC  H13B 5131   5.257   6.203   0.255 -1.4216 -0.0120 -1.9834
   64SAPC  H13C 5132   5.234   6.182   0.433 -1.6425  1.9795 -0.3438
   64SAPC   C14 5133   5.025   6.300   0.272 -0.1129  0.7104 -0.8752
   64SAPC  H14A 5134   4.922   6.298   0.240  0.0504 -1.8183 -1.4453
   64SAPC  H14B 5135   5.042   6.364   0.357 -1.5498 -0.9664  0.7679
   64SAPC  H14C 5136   5.092   6.331   0.193 -1.7090 -0.0158 -2.5887
   64SAPC   C15 5137   4.980   6.106   0.426  0.1111  0.1577 -0.5493
   64SAPC  H15A 5138   4.876   6.103   0.397 -0.2503  0.7184  0.6313
   64SAPC  H15B 5139   5.003   6.003   0.447 -4.6592 -0.6480  1.9238
   64SAPC  H15C 5140   4.988   6.159   0.520 -0.3310 -0.1264 -0.3501
   64SAPC   C11 5141   5.093   6.067   0.050  0.3207  0.1864 -0.4561
   64SAPC  H11A 5142   5.048   5.987  -0.012 -5.3501  1.8539  0.8364
   64SAPC  H11B 5143   5.198   6.041   0.073  0.8841  2.6875  0.0514
   64SAPC     P 5144   4.939   6.217  -0.094  0.0681 -0.3190 -0.1223
   64SAPC   O13 5145   4.823   6.164  -0.018 -0.3596 -0.5766 -0.8195
   64SAPC   O14 5146   4.931   6.359  -0.127 -0.1450  0.0697 -0.2892
   64SAPC   O12 5147   5.078   6.187  -0.013  0.2047 -0.3746 -0.5370
   64SAPC   O11 5148   4.951   6.130  -0.227  0.2883  0.3979  0.3796
   64SAPC    C1 5149   5.044   6.177  -0.331  0.1221  0.7430  0.0307
   64SAPC    HA 5150   5.065   6.286  -0.323  0.5166  0.5524  1.9001
   64SAPC    HB 5151   5.140   6.124  -0.313 -0.3263  0.3879  1.5086
   64SAPC    C2 5152   4.996   6.137  -0.476 -0.2070  0.0976 -0.1286
   64SAPC    HS 5153   4.895   6.183  -0.480  1.0484  3.0730 -0.7667
   64SAPC   O21 5154   4.988   5.995  -0.505 -0.1286 -0.1281 -0.3107
   64SAPC   C21 5155   4.877   5.935  -0.483  0.2771  0.6661 -1.0808
   64SAPC   O22 5156   4.771   5.992  -0.446  0.2435 -0.0741  0.3037
   64SAPC   C22 5157   4.890   5.794  -0.512  0.2957 -1.2205 -0.4410
   64SAPC   H2R 5158   4.993   5.759  -0.494  1.1756  1.8507  1.2357
   64SAPC   H2S 5159   4.824   5.735  -0.445 -2.8001  0.0133 -2.1479
   64SAPC    C3 5160   5.082   6.197  -0.595 -0.0974  0.1561 -0.0557
   64SAPC    HX 5161   5.173   6.134  -0.596 -0.1409 -0.0450  2.2664
   64SAPC    HY 5162   5.121   6.299  -0.576  0.8054 -0.2457  0.3254
   64SAPC   O31 5163   5.017   6.180  -0.722  0.0259  0.4339  0.7697
   64SAPC   C31 5164   4.945   6.281  -0.766 -0.9023 -0.1663  0.5253
   64SAPC   O32 5165   4.920   6.376  -0.691 -0.1444  0.0674  0.1118
   64SAPC   C32 5166   4.910   6.263  -0.912 -0.5604  0.1850 -0.5617
   64SAPC   H2X 5167   4.913   6.160  -0.953 -0.9057 -0.0214 -0.0780
   64SAPC   H2Y 5168   4.993   6.322  -0.957  1.4281 -0.9412  1.4082
   64SAPC   C23 5169   4.839   5.767  -0.658  0.4592  0.4909 -0.3868
   64SAPC   H3R 5170   4.737   5.800  -0.686  0.3755  2.5338  1.9552
   64SAPC   H3S 5171   4.820   5.657  -0.652 -1.2685  0.7307 -0.9175
   64SAPC   C24 5172   4.935   5.805  -0.768 -0.1228  0.1695 -0.4595
   64SAPC   H4R 5173   5.040   5.792  -0.733  1.5876  2.2567 -4.2262
   64SAPC   H4S 5174   4.918   5.913  -0.788  0.7975  0.1899 -1.2022
   64SAPC   C25 5175   4.930   5.719  -0.889  0.1191  0.1098  0.3481
   64SAPC   H5R 5176   4.980   5.621  -0.887 -1.3485 -0.6653  0.2894
   64SAPC   C26 5177   4.859   5.760  -0.997 -0.1667  0.5159  0.4980
   64SAPC   H6R 5178   4.858   5.699  -1.088  1.0362  4.2487 -2.2830
   64SAPC   C27 5179   4.762   5.875  -1.005  0.3190 -0.1303  0.3017
   64SAPC   H7R 5180   4.814   5.936  -1.082 -0.0825 -1.5680 -1.1761
   64SAPC   H7S 5181   4.751   5.950  -0.923  1.5640 -0.1095  0.4626
   64SAPC   C28 5182   4.628   5.818  -1.055 -0.9676  0.0796 -0.1084
   64SAPC   H8R 5183   4.564   5.782  -0.973 -0.4825 -0.8962 -0.1489
   64SAPC   C29 5184   4.580   5.797  -1.182 -0.5183  0.5033 -0.4500
   64SAPC   H9R 5185   4.483   5.747  -1.196 -0.4830  1.2096 -4.4000
   64SAPC  C210 5186   4.653   5.826  -1.313 -0.2529 -0.4497 -0.3724
   64SAPC  H10R 5187   4.758   5.854  -1.292 -0.3091  0.8060 -1.6441
   64SAPC  H10S 5188   4.609   5.915  -1.363  1.2782  0.7796  0.3766
   64SAPC  C211 5189   4.662   5.711  -1.408  1.1040 -0.4691 -0.3440
   64SAPC  H11R 5190   4.709   5.623  -1.362 -0.3974 -1.7081 -1.0821
   64SAPC  C212 5191   4.645   5.707  -1.544  0.1342  0.6743  0.2548
   64SAPC  H12R 5192   4.677   5.612  -1.589 -1.5654  0.6695 -1.0897
   64SAPC  C213 5193   4.572   5.811  -1.634 -0.0687 -0.4162  0.3092
   64SAPC  H13R 5194   4.582   5.913  -1.591  0.1353 -0.4516  0.3477
   64SAPC  H13S 5195   4.463   5.795  -1.642  0.2044 -2.2209 -0.2637
   64SAPC  C214 5196   4.619   5.830  -1.776  0.2433  0.6673  0.5707
   64SAPC  H14R 5197   4.671   5.925  -1.795  1.5616 -0.2671 -0.7765
   64SAPC  C215 5198   4.603   5.738  -1.878 -0.3886 -0.0418 -0.0720
   64SAPC  H15R 5199   4.625   5.779  -1.977  2.8960 -0.2152  0.4486
   64SAPC  C216 5200   4.539   5.604  -1.869  0.1017 -0.5700 -0.0413
   64SAPC  H16R 5201   4.488   5.600  -1.770  1.8806  0.8857  1.0083
   64SAPC  H16S 5202   4.616   5.524  -1.871 -1.5313 -2.1761 -1.4425
   64SAPC  C217 5203   4.439   5.574  -1.983  0.2518 -0.0590 -0.3711
   64SAPC  H17R 5204   4.378   5.664  -2.000  1.4901  0.9378  0.3038
   64SAPC  H17S 5205   4.380   5.484  -1.955  0.4105 -0.2342 -0.5911
   64SAPC  C218 5206   4.518   5.558  -2.114  0.3063 -0.0064  0.4311
   64SAPC  H18R 5207   4.583   5.470  -2.098 -1.7361 -1.7552 -0.3943
   64SAPC  H18S 5208   4.581   5.644  -2.146 -0.6484 -0.3036 -2.5303
   64SAPC  C219 5209   4.429   5.510  -2.230  0.2660 -0.7969 -0.5477
   64SAPC  H19R 5210   4.372   5.424  -2.189 -1.9639  1.5276  1.6505
   64SAPC  H19S 5211   4.489   5.480  -2.318 -2.2757 -1.1272 -2.3073
   64SAPC  C220 5212   4.323   5.614  -2.273  0.1172  1.2649 -0.0986
   64SAPC  H20R 5213   4.366   5.708  -2.313  0.3803  1.4749  0.6606
   64SAPC  H20S 5214   4.260   5.637  -2.184  0.1585 -0.1622  0.3347
   64SAPC  H20T 5215   4.255   5.579  -2.353 -0.4691  2.5881 -0.2107
   64SAPC   C33 5216   4.774   6.329  -0.961 -0.5508 -0.1447 -0.5207
   64SAPC   H3X 5217   4.754   6.424  -0.907  1.1444 -0.9175  1.5954
   64SAPC   H3Y 5218   4.690   6.260  -0.939 -0.5162  0.2695  1.0518
   64SAPC   C34 5219   4.771   6.360  -1.108  0.1180  0.1092 -0.0861
   64SAPC   H4X 5220   4.862   6.420  -1.127 -0.5554  0.7303 -1.4762
   64SAPC   H4Y 5221   4.683   6.418  -1.142 -0.6991 -1.0414  0.0017
   64SAPC   C35 5222   4.774   6.237  -1.201 -0.1487 -0.0184 -0.0407
   64SAPC   H5X 5223   4.692   6.169  -1.170  1.5808 -1.4627  1.5764
   64SAPC   H5Y 5224   4.868   6.185  -1.172 -0.0520  0.3804  0.3670
   64SAPC   C36 5225   4.768   6.270  -1.350  0.2230  0.3943  0.3450
   64SAPC   H6X 5226   4.804   6.375  -1.353  0.2891  0.3562 -0.4425
   64SAPC   H6Y 5227   4.662   6.255  -1.379 -0.1523 -0.4984  2.0705
   64SAPC   C37 5228   4.860   6.189  -1.442 -0.1475 -0.1553  0.3067
   64SAPC   H7X 5229   4.820   6.085  -1.441 -0.8820  0.0205 -2.4177
   64SAPC   H7Y 5230   4.964   6.187  -1.401  0.9055  2.1224 -1.9774
   64SAPC   C38 5231   4.858   6.237  -1.588 -0.3195 -0.1734  0.4690
   64SAPC   H8X 5232   4.757   6.255  -1.631 -1.2709 -1.9930  1.8011
   64SAPC   H8Y 5233   4.909   6.157  -1.646 -1.9442 -0.6708 -0.3607
   64SAPC   C39 5234   4.952   6.357  -1.597 -0.1610 -0.0806  0.4365
   64SAPC   H9X 5235   5.056   6.318  -1.587  0.4019  0.6673 -1.8350
   64SAPC   H9Y 5236   4.936   6.425  -1.510 -2.4338 -1.5723  1.2742
   64SAPC  C310 5237   4.945   6.440  -1.730  0.4927  0.2019 -0.3328
   64SAPC  H10X 5238   4.850   6.497  -1.725  0.1538 -0.4093  0.2660
   64SAPC  H10Y 5239   4.947   6.374  -1.819  1.0113 -1.0008  0.5451
   64SAPC  C311 5240   5.039   6.560  -1.742 -0.1794 -0.5350  0.1159
   64SAPC  H11X 5241   5.140   6.520  -1.721  0.8768  0.9647 -1.7481
   64SAPC  H11Y 5242   5.008   6.633  -1.664 -2.2887 -0.5154 -0.6754
   64SAPC  C312 5243   5.048   6.630  -1.882  0.8553 -0.1345  0.8593
   64SAPC  H12X 5244   5.074   6.553  -1.957 -0.9181 -1.1152  1.1925
   64SAPC  H12Y 5245   5.128   6.706  -1.868  2.0254 -1.3014  0.6390
   64SAPC  C313 5246   4.928   6.706  -1.948  0.6256  0.1553 -0.9367
   64SAPC  H13X 5247   4.883   6.765  -1.865 -0.0698 -0.8596 -0.5679
   64SAPC  H13Y 5248   4.849   6.628  -1.963  0.3033  0.1882  0.4674
   64SAPC  C314 5249   4.948   6.784  -2.075  0.7957  0.6010  0.6911
   64SAPC  H14X 5250   5.026   6.862  -2.060 -0.9142  2.1969  1.7447
   64SAPC  H14Y 5251   4.853   6.833  -2.106  0.8675  0.0330 -0.4917
   64SAPC  C315 5252   4.971   6.691  -2.198 -0.0185  0.5392  0.5632
   64SAPC  H15X 5253   4.907   6.601  -2.212  2.1724 -0.8796 -1.0377
   64SAPC  H15Y 5254   5.066   6.634  -2.183 -1.0329 -0.5040  3.6688
   64SAPC  C316 5255   4.976   6.771  -2.323 -0.4514 -0.4619 -0.3358
   64SAPC  H16X 5256   5.062   6.840  -2.307 -1.6897  1.1054 -0.2629
   64SAPC  H16Y 5257   4.881   6.827  -2.327 -1.6690 -2.2958  1.1550
   64SAPC  C317 5258   4.997   6.679  -2.444 -0.3958  0.4219 -0.0522
   64SAPC  H17X 5259   4.908   6.615  -2.458  0.1859 -0.8200  1.5560
   64SAPC  H17Y 5260   5.076   6.602  -2.428 -0.3805  0.4496  0.0039
   64SAPC  C318 5261   5.027   6.743  -2.580  0.0621  0.0697 -0.2532
   64SAPC  H18X 5262   5.018   6.675  -2.667 -1.7729 -2.7081  1.9003
   64SAPC  H18Y 5263   5.122   6.801  -2.579  1.6605 -2.3976  0.5435
   64SAPC  H18Z 5264   4.943   6.813  -2.597  0.4568  0.2428 -1.5561
   65SAPC     N 5265   3.906   2.793   3.488  0.1161 -0.3077 -0.5648
   65SAPC   C12 5266   3.791   2.848   3.579  0.0748 -0.0525 -0.3632
   65SAPC  H12A 5267   3.699   2.794   3.563  0.2153 -0.5503  0.4389
   65SAPC  H12B 5268   3.781   2.948   3.541  0.1824 -0.7928 -2.4846
   65SAPC   C13 5269   4.032   2.881   3.496  0.4327  0.0075  0.1296
   65SAPC  H13A 5270   4.049   2.909   3.599  0.5899 -3.4789  1.1546
   65SAPC  H13B 5271   4.114   2.823   3.458 -0.5354 -1.1095 -0.3003
   65SAPC  H13C 5272   4.017   2.968   3.433  1.1943  2.0357  2.5662
   65SAPC   C14 5273   3.941   2.660   3.536  0.3439 -0.0555  0.2939
   65SAPC  H14A 5274   4.026   2.622   3.482  0.7117 -0.9060  1.4385
   65SAPC  H14B 5275   3.958   2.657   3.642  1.4421  1.1066  0.1746
   65SAPC  H14C 5276   3.862   2.591   3.512 -0.2847  0.1443  1.7225
   65SAPC   C15 5277   3.864   2.781   3.342  0.1079  0.0459 -0.4807
   65SAPC  H15A 5278   3.929   2.708   3.296 -3.0444 -4.1716  1.0492
   65SAPC  H15B 5279   3.765   2.738   3.334  0.2252 -0.6197  1.1695
   65SAPC  H15C 5280   3.868   2.874   3.288 -1.0627 -0.4992 -1.5393
   65SAPC   C11 5281   3.821   2.859   3.735  0.1928 -0.3319  0.0478
   65SAPC  H11A 5282   3.910   2.922   3.755 -0.2190 -0.2012  1.5509
   65SAPC  H11B 5283   3.839   2.758   3.778  1.5031 -0.4114 -0.6199
   65SAPC     P 5284   3.578   2.837   3.817 -0.4573 -0.1017  0.0182
   65SAPC   O13 5285   3.470   2.926   3.871  0.8524  0.2405  0.5605
   65SAPC   O14 5286   3.543   2.759   3.698  0.2152  0.2924  0.1453
   65SAPC   O12 5287   3.707   2.919   3.794  0.2952 -0.3088 -0.4635
   65SAPC   O11 5288   3.614   2.739   3.934  0.1439 -1.0091  0.5047
   65SAPC    C1 5289   3.640   2.786   4.063 -0.1376 -0.0126  0.0659
   65SAPC    HA 5290   3.634   2.897   4.068 -0.4453 -0.0186 -0.1702
   65SAPC    HB 5291   3.559   2.758   4.133 -1.7526  0.2114 -1.6529
   65SAPC    C2 5292   3.780   2.730   4.121  0.0104  0.6039  0.8493
   65SAPC    HS 5293   3.779   2.760   4.229 -3.4107  0.3528  0.9927
   65SAPC   O21 5294   3.889   2.780   4.046  0.2842  0.1845 -0.1353
   65SAPC   C21 5295   3.962   2.870   4.111  0.2008  0.5830  0.5709
   65SAPC   O22 5296   3.932   2.924   4.211  0.3516 -0.0419 -0.6885
   65SAPC   C22 5297   4.100   2.900   4.054 -0.7048  0.0890  0.5019
   65SAPC   H2R 5298   4.161   2.807   4.044 -0.1846  0.1941  2.3623
   65SAPC   H2S 5299   4.077   2.936   3.952 -3.2235 -0.2859  0.8812
   65SAPC    C3 5300   3.797   2.575   4.136  0.5440 -0.2604 -0.3197
   65SAPC    HX 5301   3.819   2.536   4.034 -0.5221 -0.6052 -0.4280
   65SAPC    HY 5302   3.708   2.513   4.163  0.0059  1.0330  0.9468
   65SAPC   O31 5303   3.909   2.542   4.218 -0.2690 -0.1093 -0.4829
   65SAPC   C31 5304   3.869   2.526   4.345 -0.2125 -0.5410 -0.0310
   65SAPC   O32 5305   3.748   2.521   4.377 -0.7100  0.0055  0.7487
   65SAPC   C32 5306   3.988   2.508   4.441 -0.3104 -0.4261  0.0035
   65SAPC   H2X 5307   4.077   2.569   4.413  0.1279 -0.9947  0.1462
   65SAPC   H2Y 5308   3.997   2.398   4.446  0.8981 -0.2883  1.4808
   65SAPC   C23 5309   4.192   3.001   4.128 -0.4034 -0.1308  1.3078
   65SAPC   H3R 5310   4.122   3.086   4.148  0.1010  0.8942 -0.9762
   65SAPC   H3S 5311   4.267   3.034   4.054 -0.9600 -0.2288  0.6960
   65SAPC   C24 5312   4.249   2.955   4.259  0.0794  0.0250  0.1667
   65SAPC   H4R 5313   4.168   2.910   4.320 -0.0914  1.4030  0.9905
   65SAPC   H4S 5314   4.295   3.033   4.323 -2.1319  0.2282  1.5828
   65SAPC   C25 5315   4.347   2.846   4.231  0.0884 -0.7346  0.2601
   65SAPC   H5R 5316   4.357   2.825   4.124 -1.4373  1.6138 -0.4200
   65SAPC   C26 5317   4.413   2.777   4.330 -0.4033  0.2277  0.2202
   65SAPC   H6R 5318   4.485   2.704   4.290 -0.5941 -0.5921  1.3330
   65SAPC   C27 5319   4.399   2.781   4.483 -0.1963  0.8567  0.7387
   65SAPC   H7R 5320   4.333   2.868   4.503  0.1647  1.2375  0.2920
   65SAPC   H7S 5321   4.505   2.796   4.514  1.0600 -0.7235 -2.2712
   65SAPC   C28 5322   4.351   2.655   4.547  0.5063  0.7255 -1.0105
   65SAPC   H8R 5323   4.313   2.575   4.482  0.8607 -0.7569  0.5199
   65SAPC   C29 5324   4.339   2.640   4.683 -0.4166 -0.6733 -0.2923
   65SAPC   H9R 5325   4.314   2.544   4.730  0.2989 -0.3406  0.7895
   65SAPC  C210 5326   4.382   2.735   4.788  0.1976 -0.3143  0.9349
   65SAPC  H10R 5327   4.321   2.714   4.878 -1.8414 -0.5233 -0.4425
   65SAPC  H10S 5328   4.362   2.839   4.755 -0.1838 -0.4026  0.8845
   65SAPC  C211 5329   4.531   2.720   4.811  0.8329  0.4851 -1.0397
   65SAPC  H11R 5330   4.594   2.754   4.728  1.5799 -0.5334 -0.9087
   65SAPC  C212 5331   4.594   2.697   4.931  0.4821  0.3763  0.1867
   65SAPC  H12R 5332   4.704   2.690   4.926  0.4395  0.1295 -0.5668
   65SAPC  C213 5333   4.518   2.654   5.056 -0.3781 -0.1320  0.2180
   65SAPC  H13R 5334   4.469   2.557   5.036  0.1428 -0.6293  1.2261
   65SAPC  H13S 5335   4.440   2.727   5.086  1.7372  1.9873  0.9253
   65SAPC  C214 5336   4.616   2.639   5.166  0.5566  0.2741  0.5477
   65SAPC  H14R 5337   4.720   2.662   5.142 -0.3390  2.0758 -2.1154
   65SAPC  C215 5338   4.585   2.609   5.293  0.2639 -1.3381 -0.1504
   65SAPC  H15R 5339   4.658   2.626   5.373 -2.1147  0.7394  1.7666
   65SAPC  C216 5340   4.455   2.571   5.364  0.0004  0.7913  0.8427
   65SAPC  H16R 5341   4.382   2.525   5.293 -0.3659 -0.1048  1.7777
   65SAPC  H16S 5342   4.409   2.664   5.403 -1.5566  0.2223  0.4328
   65SAPC  C217 5343   4.479   2.496   5.492 -0.1952  0.6562 -0.9729
   65SAPC  H17R 5344   4.569   2.543   5.538 -1.3168  2.0360 -0.0906
   65SAPC  H17S 5345   4.514   2.396   5.460  0.3592  0.7881 -0.7898
   65SAPC  C218 5346   4.365   2.491   5.599  0.1584  0.0948  0.5587
   65SAPC  H18R 5347   4.379   2.418   5.682 -1.4529 -0.2101  0.5866
   65SAPC  H18S 5348   4.279   2.440   5.550 -0.6458  1.9861 -0.0609
   65SAPC  C219 5349   4.322   2.621   5.664 -0.4662  0.2698  0.1889
   65SAPC  H19R 5350   4.281   2.691   5.589  0.6321 -0.6587 -1.3562
   65SAPC  H19S 5351   4.416   2.664   5.705 -1.3331  1.7751  0.6376
   65SAPC  C220 5352   4.228   2.578   5.780  0.0069 -0.1047 -0.1101
   65SAPC  H20R 5353   4.182   2.673   5.816  1.5693  1.0438 -0.9820
   65SAPC  H20S 5354   4.280   2.520   5.858 -0.6350 -0.5478 -0.0000
   65SAPC  H20T 5355   4.144   2.512   5.749 -0.7537  0.5654  0.4769
   65SAPC   C33 5356   3.953   2.552   4.585  0.0882  0.0049 -0.3619
   65SAPC   H3X 5357   4.029   2.520   4.660 -1.0441  1.2398  1.3989
   65SAPC   H3Y 5358   3.858   2.505   4.618  1.4559 -2.5138  0.2563
   65SAPC   C34 5359   3.939   2.702   4.608 -0.1520  0.6992 -0.7018
   65SAPC   H4X 5360   3.868   2.721   4.525 -1.8826 -1.6078  0.1582
   65SAPC   H4Y 5361   4.032   2.762   4.594 -0.3053  0.8373 -1.1463
   65SAPC   C35 5362   3.874   2.747   4.741 -0.0860 -0.4062  0.3873
   65SAPC   H5X 5363   3.770   2.707   4.745 -0.7528  1.0140 -1.4501
   65SAPC   H5Y 5364   3.876   2.858   4.741  2.8314 -0.3642 -1.3312
   65SAPC   C36 5365   3.960   2.709   4.866  0.5644  0.2666  0.4186
   65SAPC   H6X 5366   4.060   2.757   4.874  1.0162 -0.7131  0.9982
   65SAPC   H6Y 5367   3.978   2.599   4.871  0.0277  0.1823  4.4393
   65SAPC   C37 5368   3.886   2.736   5.006  0.2312  0.0212  0.1472
   65SAPC   H7X 5369   3.782   2.698   4.997  1.0033 -2.0038 -0.7241
   65SAPC   H7Y 5370   3.882   2.846   5.020 -0.4456 -0.3135  3.1777
   65SAPC   C38 5371   3.971   2.662   5.114 -0.3964 -0.5688  0.3599
   65SAPC   H8X 5372   4.071   2.709   5.107 -1.6487  2.2553  0.0692
   65SAPC   H8Y 5373   3.974   2.553   5.091 -1.0640 -0.1752 -1.7707
   65SAPC   C39 5374   3.903   2.670   5.255 -0.2866  0.0581 -0.6769
   65SAPC   H9X 5375   3.800   2.628   5.254  0.3048 -1.6994  1.8959
   65SAPC   H9Y 5376   3.887   2.777   5.280  0.8971  0.3206 -0.9877
   65SAPC  C310 5377   3.980   2.608   5.367 -0.0830 -0.0043 -0.1203
   65SAPC  H10X 5378   4.078   2.661   5.360  1.4122 -2.6798 -0.8321
   65SAPC  H10Y 5379   4.012   2.504   5.343 -0.1359 -0.1143  0.2804
   65SAPC  C311 5380   3.920   2.622   5.502  0.3516 -0.3398 -0.6169
   65SAPC  H11X 5381   3.880   2.726   5.500 -0.8094 -0.7568 -3.6089
   65SAPC  H11Y 5382   4.000   2.605   5.577  0.2741 -1.8069 -0.8331
   65SAPC  C312 5383   3.821   2.518   5.537  0.1567 -0.6309 -0.3790
   65SAPC  H12X 5384   3.849   2.414   5.509  1.5323  0.0405 -1.6576
   65SAPC  H12Y 5385   3.737   2.543   5.469  0.2940 -0.6840 -0.5674
   65SAPC  C313 5386   3.753   2.550   5.669 -0.7058  0.5472 -0.3836
   65SAPC  H13X 5387   3.660   2.489   5.673 -1.7973  2.1042 -1.2077
   65SAPC  H13Y 5388   3.720   2.655   5.661 -2.1121  0.1405 -0.0882
   65SAPC  C314 5389   3.834   2.510   5.790 -0.8429 -0.1778  0.1684
   65SAPC  H14X 5390   3.910   2.592   5.795 -0.5156 -0.4117 -0.7187
   65SAPC  H14Y 5391   3.882   2.410   5.780 -1.6729 -0.4559 -1.4095
   65SAPC  C315 5392   3.755   2.539   5.925  0.4612 -0.0700 -0.1638
   65SAPC  H15X 5393   3.649   2.512   5.907  1.0169 -3.1841  0.6867
   65SAPC  H15Y 5394   3.765   2.647   5.950 -0.4385 -0.3617  1.5885
   65SAPC  C316 5395   3.812   2.445   6.029  0.3648  0.8620 -0.3956
   65SAPC  H16X 5396   3.903   2.486   6.078  0.9290 -1.2352  0.4453
   65SAPC  H16Y 5397   3.844   2.354   5.973 -1.8425  0.8366 -1.7058
   65SAPC  C317 5398   3.703   2.407   6.135 -0.8102 -1.1999  0.1500
   65SAPC  H17X 5399   3.754   2.320   6.181 -2.4629 -0.8545  2.8205
   65SAPC  H17Y 5400   3.617   2.382   6.069  1.0280 -0.4792 -2.7341
   65SAPC  C318 5401   3.667   2.506   6.247  0.5839  0.0946 -0.3398
   65SAPC  H18X 5402   3.752   2.533   6.313  2.2476 -0.0115 -2.3288
   65SAPC  H18Y 5403   3.582   2.475   6.311 -0.1330  0.0354 -1.2877
   65SAPC  H18Z 5404   3.632   2.602   6.203  0.3100  0.3458  0.4033
   66SAPC     N 5405   5.357   5.331   3.818  0.3500  0.1424  0.8488
   66SAPC   C12 5406   5.401   5.463   3.887  0.4068  0.6798  0.2065
   66SAPC  H12A 5407   5.406   5.542   3.813 -0.8145 -1.9222 -2.9151
   66SAPC  H12B 5408   5.494   5.443   3.939 -0.5090 -0.3956  1.4936
   66SAPC   C13 5409   5.361   5.215   3.913  0.7692  0.2613  0.3187
   66SAPC  H13A 5410   5.460   5.205   3.953  0.4051 -0.0546  1.1657
   66SAPC  H13B 5411   5.291   5.222   3.995  1.0982 -1.4871  0.7711
   66SAPC  H13C 5412   5.340   5.121   3.865 -0.0851  1.0704 -0.9848
   66SAPC   C14 5413   5.218   5.343   3.756  0.3366  0.0075  0.4273
   66SAPC  H14A 5414   5.153   5.371   3.838 -2.4307  0.0701 -1.6711
   66SAPC  H14B 5415   5.215   5.405   3.668  0.5934 -0.3940  0.1297
   66SAPC  H14C 5416   5.180   5.248   3.722 -1.0333 -0.7301  3.6634
   66SAPC   C15 5417   5.462   5.310   3.713  0.0094 -0.1153  0.0774
   66SAPC  H15A 5418   5.449   5.379   3.632 -0.6163  0.6866  0.8503
   66SAPC  H15B 5419   5.561   5.335   3.749  0.2331  2.4633 -2.0186
   66SAPC  H15C 5420   5.454   5.216   3.659  2.1809  0.1361 -0.7796
   66SAPC   C11 5421   5.301   5.529   3.986  0.1523  0.2893 -0.0826
   66SAPC  H11A 5422   5.354   5.608   4.042 -0.2793  1.0582 -0.7383
   66SAPC  H11B 5423   5.277   5.450   4.061  0.2056 -0.8059 -1.1805
   66SAPC     P 5424   5.203   5.708   3.831  0.3079  0.2640  0.4481
   66SAPC   O13 5425   5.293   5.668   3.721 -0.3218  0.0314  0.3714
   66SAPC   O14 5426   5.070   5.760   3.778 -0.2787 -0.5972 -0.3616
   66SAPC   O12 5427   5.182   5.585   3.933 -0.0702 -0.4861 -0.3773
   66SAPC   O11 5428   5.269   5.820   3.912  0.1483  0.2487 -0.1749
   66SAPC    C1 5429   5.182   5.890   4.011  0.8113 -0.5521  0.0001
   66SAPC    HA 5430   5.217   5.995   4.009 -1.0563  0.1002 -1.2970
   66SAPC    HB 5431   5.074   5.884   3.985  0.6209  0.0476  0.6334
   66SAPC    C2 5432   5.202   5.846   4.156 -0.3971  0.1770  0.6230
   66SAPC    HS 5433   5.312   5.838   4.171 -0.1897 -1.3579 -1.2735
   66SAPC   O21 5434   5.142   5.710   4.156  0.2761 -0.7233 -0.1042
   66SAPC   C21 5435   5.173   5.640   4.269  1.1111 -0.0014 -0.1960
   66SAPC   O22 5436   5.271   5.667   4.334 -0.0216  0.3011 -0.2887
   66SAPC   C22 5437   5.063   5.520   4.281 -0.0193 -0.0756 -0.2396
   66SAPC   H2R 5438   4.975   5.585   4.263  0.5189  0.8362  0.3167
   66SAPC   H2S 5439   5.082   5.445   4.202  0.8497 -1.1434  0.9464
   66SAPC    C3 5440   5.132   5.946   4.257 -0.5183 -0.2853  0.6536
   66SAPC    HX 5441   5.023   5.948   4.233 -0.1091  0.6796 -1.3604
   66SAPC    HY 5442   5.167   6.047   4.228 -0.5836 -0.7873 -1.3017
   66SAPC   O31 5443   5.154   5.931   4.396 -0.1883 -0.9450 -0.2970
   66SAPC   C31 5444   5.281   5.946   4.436  0.3700  1.0233  0.8816
   66SAPC   O32 5445   5.374   5.971   4.365  0.6571 -0.5055  0.9444
   66SAPC   C32 5446   5.288   5.929   4.593 -0.2804 -0.1021  0.0239
   66SAPC   H2X 5447   5.242   6.021   4.633 -1.5592 -0.0824 -1.3916
   66SAPC   H2Y 5448   5.398   5.931   4.613  0.4858  0.4929 -3.5343
   66SAPC   C23 5449   5.062   5.469   4.428 -0.6341  0.2126  0.2374
   66SAPC   H3R 5450   5.065   5.562   4.489  0.1439  1.0202 -0.9898
   66SAPC   H3S 5451   5.153   5.411   4.454 -0.0634  0.5187 -0.9967
   66SAPC   C24 5452   4.946   5.378   4.464  0.5435 -0.7006  0.2506
   66SAPC   H4R 5453   4.949   5.367   4.574  1.5814  1.1840  0.4587
   66SAPC   H4S 5454   4.970   5.277   4.424  1.0139  0.6656 -3.2790
   66SAPC   C25 5455   4.810   5.434   4.421  0.0799  0.0567  0.7399
   66SAPC   H5R 5456   4.810   5.466   4.316  1.8974  1.4624  1.1003
   66SAPC   C26 5457   4.699   5.451   4.498 -0.0787  1.1172 -0.1803
   66SAPC   H6R 5458   4.620   5.510   4.449  0.2068  0.3088 -1.6997
   66SAPC   C27 5459   4.676   5.425   4.648 -0.0742  0.5231  0.5177
   66SAPC   H7R 5460   4.681   5.314   4.656 -0.3379  0.3859 -0.9280
   66SAPC   H7S 5461   4.568   5.450   4.655  0.0051  1.3067 -0.7619
   66SAPC   C28 5462   4.756   5.508   4.742 -0.2835  1.2492 -0.4711
   66SAPC   H8R 5463   4.751   5.618   4.731  0.8716  1.5123  1.1909
   66SAPC   C29 5464   4.821   5.465   4.852 -0.0693  0.0615 -0.0445
   66SAPC   H9R 5465   4.866   5.533   4.926 -0.5149 -0.0114  0.2969
   66SAPC  C210 5466   4.830   5.320   4.893 -0.1779 -1.4988  0.4410
   66SAPC  H10R 5467   4.805   5.258   4.805  4.9756  1.4388 -3.6855
   66SAPC  H10S 5468   4.764   5.307   4.981 -1.7794  0.8281 -0.3291
   66SAPC  C211 5469   4.977   5.299   4.932  0.7283  0.2119  0.1441
   66SAPC  H11R 5470   5.054   5.352   4.873  0.6341  1.2740  0.9424
   66SAPC  C212 5471   5.014   5.223   5.037  0.2023 -0.2669  0.0841
   66SAPC  H12R 5472   5.123   5.225   5.052  0.5317  1.5980 -2.0031
   66SAPC  C213 5473   4.917   5.156   5.134 -0.3363  0.0237 -0.3542
   66SAPC  H13R 5474   4.812   5.149   5.099 -0.3737  1.7605 -0.6858
   66SAPC  H13S 5475   4.907   5.212   5.230 -1.2722 -3.5613  1.8237
   66SAPC  C214 5476   4.968   5.016   5.164 -0.8774  0.3166  0.4583
   66SAPC  H14R 5477   5.048   4.978   5.099 -0.4022  0.0654  1.1835
   66SAPC  C215 5478   4.916   4.945   5.260 -0.0722 -0.5212  0.0009
   66SAPC  H15R 5479   4.963   4.851   5.292  0.1387 -0.5156 -0.2864
   66SAPC  C216 5480   4.805   4.985   5.351  0.8087  1.0128 -0.8784
   66SAPC  H16R 5481   4.768   5.083   5.313 -2.1384 -0.1683 -1.3129
   66SAPC  H16S 5482   4.835   4.985   5.458 -1.9617  0.4277 -0.0287
   66SAPC  C217 5483   4.693   4.878   5.338  0.0056 -0.1219  0.2714
   66SAPC  H17R 5484   4.718   4.784   5.390  2.6423  1.0594  1.3029
   66SAPC  H17S 5485   4.668   4.860   5.231  0.5115 -0.3127  0.1858
   66SAPC  C218 5486   4.557   4.925   5.402  0.2364  0.3466  0.3789
   66SAPC  H18R 5487   4.504   5.010   5.354 -1.9950 -0.9238  0.4371
   66SAPC  H18S 5488   4.581   4.947   5.508 -3.6590 -1.0464  1.7465
   66SAPC  C219 5489   4.450   4.809   5.400 -0.4345 -0.4112  0.5467
   66SAPC  H19R 5490   4.358   4.827   5.460 -0.9398 -1.2903  0.0556
   66SAPC  H19S 5491   4.494   4.730   5.465 -0.3125 -0.2260  0.6912
   66SAPC  C220 5492   4.404   4.753   5.267  0.0885  0.4898 -0.2235
   66SAPC  H20R 5493   4.479   4.736   5.187  0.4594  0.5862  0.1023
   66SAPC  H20S 5494   4.339   4.830   5.221  0.0642  0.0599 -0.9255
   66SAPC  H20T 5495   4.345   4.662   5.294 -0.4235  1.1710  1.0208
   66SAPC   C33 5496   5.224   5.801   4.648  0.0060 -0.3135 -0.2206
   66SAPC   H3X 5497   5.271   5.709   4.606 -1.3374 -0.8418 -0.5992
   66SAPC   H3Y 5498   5.115   5.791   4.630  0.1000 -0.3767 -0.7917
   66SAPC   C34 5499   5.259   5.802   4.797  0.3178  0.5105 -0.4680
   66SAPC   H4X 5500   5.261   5.909   4.828 -0.9412  0.8678 -1.5547
   66SAPC   H4Y 5501   5.361   5.759   4.804  0.5864  1.1071 -0.6856
   66SAPC   C35 5502   5.161   5.725   4.887  0.0619  0.2412 -0.2549
   66SAPC   H5X 5503   5.143   5.626   4.838  1.3669  0.9138 -2.2119
   66SAPC   H5Y 5504   5.062   5.776   4.882 -0.3718 -0.6015 -0.6495
   66SAPC   C36 5505   5.210   5.690   5.028 -0.6429 -0.3317 -0.7012
   66SAPC   H6X 5506   5.201   5.788   5.079 -1.3261  0.4651 -2.2926
   66SAPC   H6Y 5507   5.319   5.666   5.029 -0.4005 -0.2665  4.6072
   66SAPC   C37 5508   5.142   5.578   5.092  0.6064  0.4526 -0.6527
   66SAPC   H7X 5509   5.183   5.481   5.054  0.4118 -0.7149  1.8775
   66SAPC   H7Y 5510   5.033   5.589   5.076  0.2704 -0.1585  0.9958
   66SAPC   C38 5511   5.168   5.578   5.242 -0.1501  0.2785  0.3233
   66SAPC   H8X 5512   5.142   5.675   5.288  1.3863  1.6434 -1.5531
   66SAPC   H8Y 5513   5.274   5.556   5.264 -0.2857 -1.1283 -0.2923
   66SAPC   C39 5514   5.089   5.471   5.311 -0.8313 -0.6682 -0.7483
   66SAPC   H9X 5515   5.103   5.377   5.254  0.2138 -0.6220 -0.5743
   66SAPC   H9Y 5516   4.982   5.500   5.302 -1.7315 -3.2203  0.8179
   66SAPC  C310 5517   5.126   5.463   5.456  0.5309 -0.4392  0.0707
   66SAPC  H10X 5518   5.231   5.435   5.482  0.7714  1.8761  2.0475
   66SAPC  H10Y 5519   5.066   5.379   5.497  0.5347 -0.2901  0.3875
   66SAPC  C311 5520   5.079   5.589   5.539  0.9401  0.6574  0.4699
   66SAPC  H11X 5521   4.976   5.606   5.503  1.1545 -0.5646 -0.8317
   66SAPC  H11Y 5522   5.144   5.673   5.506  0.8486  1.2960  1.8596
   66SAPC  C312 5523   5.065   5.556   5.687 -0.0059 -0.5730 -0.6035
   66SAPC  H12X 5524   5.169   5.554   5.727  0.1171  2.9214 -0.4544
   66SAPC  H12Y 5525   5.039   5.449   5.700  2.3721 -1.0382  0.9311
   66SAPC  C313 5526   4.990   5.660   5.775  0.9022 -0.6143  0.4607
   66SAPC  H13X 5527   4.885   5.665   5.738  1.5916  3.0308 -1.5068
   66SAPC  H13Y 5528   5.008   5.766   5.750  0.4160 -0.5471  0.3754
   66SAPC  C314 5529   5.006   5.636   5.925 -0.1500 -0.2126  0.7282
   66SAPC  H14X 5530   5.095   5.689   5.966 -0.6377  0.2549  1.1974
   66SAPC  H14Y 5531   5.024   5.529   5.948  3.1062  0.6595  2.9775
   66SAPC  C315 5532   4.884   5.687   6.011 -0.5416 -0.5383 -0.0327
   66SAPC  H15X 5533   4.875   5.797   5.995  0.2646 -0.3670  0.6090
   66SAPC  H15Y 5534   4.903   5.677   6.120 -2.7828 -2.0554  0.2770
   66SAPC  C316 5535   4.761   5.610   5.981  0.1091 -0.1472 -0.1161
   66SAPC  H16X 5536   4.774   5.504   6.012  1.4808  0.1984  0.5722
   66SAPC  H16Y 5537   4.732   5.611   5.874 -2.2430  0.4103  0.4610
   66SAPC  C317 5538   4.631   5.665   6.046  0.1816 -0.2352 -0.1829
   66SAPC  H17X 5539   4.537   5.633   5.998  0.0722  1.0957 -0.8991
   66SAPC  H17Y 5540   4.626   5.775   6.031  1.6123  0.0690  1.2234
   66SAPC  C318 5541   4.614   5.653   6.200  0.4293 -0.1666 -0.2078
   66SAPC  H18X 5542   4.553   5.564   6.224 -1.0974  1.1486  1.0592
   66SAPC  H18Y 5543   4.553   5.741   6.231 -2.8930 -2.1696 -0.5391
   66SAPC  H18Z 5544   4.703   5.634   6.264  0.7479 -1.3796 -0.9856
   67SAPC     N 5545   3.225   2.484   3.961  0.5014 -0.4691 -0.6617
   67SAPC   C12 5546   3.083   2.466   3.903  0.8281  0.3205  0.8785
   67SAPC  H12A 5547   3.015   2.518   3.969 -0.6769 -0.6871  0.1743
   67SAPC  H12B 5548   3.039   2.367   3.911  0.0982  0.6713  1.4123
   67SAPC   C13 5549   3.225   2.446   4.110  0.3414  0.0266  0.7045
   67SAPC  H13A 5550   3.328   2.442   4.142  0.0922  0.7423  1.6543
   67SAPC  H13B 5551   3.160   2.509   4.169 -1.4278 -0.3468 -0.7530
   67SAPC  H13C 5552   3.173   2.353   4.127 -1.0921  0.5123 -0.7724
   67SAPC   C14 5553   3.323   2.406   3.882 -0.7858 -0.3404 -0.3770
   67SAPC  H14A 5554   3.287   2.304   3.892 -1.4677 -0.3936 -2.7901
   67SAPC  H14B 5555   3.322   2.427   3.776  1.7672  0.7543 -0.2526
   67SAPC  H14C 5556   3.426   2.407   3.912 -0.4143  3.8621 -1.2309
   67SAPC   C15 5557   3.271   2.627   3.963  0.0214 -0.3006 -0.1751
   67SAPC  H15A 5558   3.278   2.659   3.860 -0.2353 -3.2121 -1.1988
   67SAPC  H15B 5559   3.202   2.681   4.026  1.1780  1.2542 -0.1921
   67SAPC  H15C 5560   3.373   2.627   3.998 -1.0362  2.6049  3.6127
   67SAPC   C11 5561   3.052   2.529   3.760 -0.3533  0.4509  0.3283
   67SAPC  H11A 5562   2.948   2.500   3.731  0.3221 -0.7850 -0.9835
   67SAPC  H11B 5563   3.108   2.476   3.680 -0.2285  3.4514 -1.7600
   67SAPC     P 5564   2.970   2.765   3.802  0.3282 -0.5612 -0.2121
   67SAPC   O13 5565   3.035   2.884   3.855  0.0766  0.6602 -0.1742
   67SAPC   O14 5566   2.888   2.770   3.676  0.6909 -0.4686  0.2508
   67SAPC   O12 5567   3.085   2.663   3.763  0.1619  0.1486 -0.5476
   67SAPC   O11 5568   2.885   2.686   3.916 -0.1629 -0.3284  0.1801
   67SAPC    C1 5569   2.742   2.714   3.912  0.2595  0.0514  0.5571
   67SAPC    HA 5570   2.699   2.708   3.810  0.5212  0.5022  0.4155
   67SAPC    HB 5571   2.683   2.646   3.977 -1.0443 -0.7558 -1.3967
   67SAPC    C2 5572   2.708   2.855   3.972  0.0185  0.3115  0.6537
   67SAPC    HS 5573   2.748   2.925   3.895  0.1175 -1.5061 -1.0345
   67SAPC   O21 5574   2.769   2.883   4.101 -0.1046 -0.1643 -0.8051
   67SAPC   C21 5575   2.746   3.003   4.148  0.8469 -0.2496  0.1122
   67SAPC   O22 5576   2.706   3.102   4.088 -0.0528 -0.1238 -0.3584
   67SAPC   C22 5577   2.813   3.008   4.283 -0.3611 -0.4651  0.0284
   67SAPC   H2R 5578   2.851   2.909   4.316  2.2550  0.0904 -1.0887
   67SAPC   H2S 5579   2.908   3.064   4.271  0.0001 -1.2287 -0.7281
   67SAPC    C3 5580   2.552   2.876   3.963  0.6210  0.6680 -1.1592
   67SAPC    HX 5581   2.512   2.846   3.864  1.2221  0.2272 -1.2755
   67SAPC    HY 5582   2.529   2.985   3.966 -1.2141  0.3012 -0.7546
   67SAPC   O31 5583   2.486   2.784   4.059 -0.4009  0.2966 -0.4061
   67SAPC   C31 5584   2.362   2.817   4.081  0.1333 -0.3626 -0.3519
   67SAPC   O32 5585   2.294   2.905   4.030 -0.2579  0.2705 -0.1306
   67SAPC   C32 5586   2.298   2.717   4.180 -0.1255  0.0394  0.6745
   67SAPC   H2X 5587   2.386   2.687   4.239  0.3348 -0.4553 -0.2324
   67SAPC   H2Y 5588   2.266   2.627   4.123  1.8661  0.2038 -0.8395
   67SAPC   C23 5589   2.725   3.077   4.385  0.2174 -0.0511 -0.0518
   67SAPC   H3R 5590   2.640   3.020   4.427 -0.9740  2.5661  1.2571
   67SAPC   H3S 5591   2.685   3.168   4.336  0.6997 -0.7942 -1.9088
   67SAPC   C24 5592   2.807   3.131   4.505 -0.5615  0.4892  0.2066
   67SAPC   H4R 5593   2.731   3.176   4.573  0.0512 -1.1611  2.0619
   67SAPC   H4S 5594   2.877   3.213   4.477 -1.4932  1.0507 -0.5678
   67SAPC   C25 5595   2.876   3.017   4.578 -0.4286 -0.1087  0.7345
   67SAPC   H5R 5596   2.963   2.982   4.519  0.8930  2.3003  1.1392
   67SAPC   C26 5597   2.859   2.972   4.705 -0.1270 -0.4883  0.1090
   67SAPC   H6R 5598   2.903   2.875   4.734 -2.6060 -1.7040  0.0469
   67SAPC   C27 5599   2.758   3.023   4.803  0.1125  0.1378 -0.2225
   67SAPC   H7R 5600   2.674   3.069   4.745  0.0656  3.3737  2.1075
   67SAPC   H7S 5601   2.799   3.111   4.857 -0.8879  1.6732 -1.8533
   67SAPC   C28 5602   2.697   2.926   4.905  0.1210  0.1858  0.1204
   67SAPC   H8R 5603   2.640   2.845   4.858  1.0681  0.1946 -1.0767
   67SAPC   C29 5604   2.704   2.927   5.040  0.4380 -0.6739 -0.1387
   67SAPC   H9R 5605   2.641   2.856   5.096  1.0656  0.6379  2.3790
   67SAPC  C210 5606   2.775   3.030   5.123 -0.5127 -1.2230 -0.2317
   67SAPC  H10R 5607   2.855   3.082   5.066 -1.2447 -1.4994 -1.5444
   67SAPC  H10S 5608   2.833   2.976   5.201  0.3630  0.3728  0.2684
   67SAPC  C211 5609   2.684   3.136   5.175  0.9397  0.0895 -0.0150
   67SAPC  H11R 5610   2.633   3.192   5.096  1.5529 -0.5953 -0.9222
   67SAPC  C212 5611   2.644   3.152   5.305 -0.5914  0.6103  0.2958
   67SAPC  H12R 5612   2.572   3.231   5.332 -1.9621 -0.9050  1.3071
   67SAPC  C213 5613   2.713   3.099   5.434  0.6032 -0.3461  0.8363
   67SAPC  H13R 5614   2.715   2.989   5.440 -2.1281 -0.4890  0.5437
   67SAPC  H13S 5615   2.654   3.138   5.520 -2.5160  0.6236 -1.5687
   67SAPC  C214 5616   2.861   3.150   5.454 -0.5199  0.5557  0.7261
   67SAPC  H14R 5617   2.905   3.228   5.390 -0.4316 -0.3759 -0.3789
   67SAPC  C215 5618   2.950   3.099   5.547  0.2707  0.3034  0.0188
   67SAPC  H15R 5619   3.057   3.123   5.550  1.2181 -2.8899 -2.8709
   67SAPC  C216 5620   2.917   2.985   5.643  0.1144 -0.1047  0.2757
   67SAPC  H16R 5621   2.975   2.895   5.613  2.1698  1.4439 -0.6282
   67SAPC  H16S 5622   2.809   2.961   5.640  0.5564 -2.4880  0.8974
   67SAPC  C217 5623   2.955   3.014   5.786  0.9613 -0.2834 -0.3769
   67SAPC  H17R 5624   2.941   2.922   5.848  1.0574  1.2875  2.1265
   67SAPC  H17S 5625   2.890   3.089   5.837 -1.0184 -1.8729 -0.4025
   67SAPC  C218 5626   3.103   3.057   5.809  0.0531  0.5471  0.3812
   67SAPC  H18R 5627   3.135   3.150   5.758 -1.2302  1.2633  0.8409
   67SAPC  H18S 5628   3.176   2.989   5.760 -2.4399 -0.7938 -1.6991
   67SAPC  C219 5629   3.130   3.056   5.958 -0.6665 -0.5106  0.1697
   67SAPC  H19R 5630   3.086   2.968   6.009  0.9594 -1.4395  0.0317
   67SAPC  H19S 5631   3.081   3.149   5.993  0.5343  1.0487 -1.9997
   67SAPC  C220 5632   3.284   3.061   5.987  1.3855 -0.1768  0.4829
   67SAPC  H20R 5633   3.325   3.152   5.938  0.0175  0.8289  1.1333
   67SAPC  H20S 5634   3.346   2.977   5.948  3.6919  0.9461  1.5432
   67SAPC  H20T 5635   3.301   3.067   6.097  0.1052 -0.5175  0.7149
   67SAPC   C33 5636   2.168   2.745   4.259  0.9875  0.1092 -0.2150
   67SAPC   H3X 5637   2.126   2.652   4.304 -2.4474 -0.1611 -3.4510
   67SAPC   H3Y 5638   2.090   2.797   4.199  0.3295  0.0288  0.5421
   67SAPC   C34 5639   2.197   2.838   4.381 -0.1799  0.4151  0.1609
   67SAPC   H4X 5640   2.097   2.860   4.424  1.3160  0.7801  3.8983
   67SAPC   H4Y 5641   2.240   2.934   4.345 -0.3930  0.3652 -0.2320
   67SAPC   C35 5642   2.276   2.769   4.492 -0.2673 -0.5446 -0.3955
   67SAPC   H5X 5643   2.384   2.761   4.466 -0.0815  0.0108  0.1658
   67SAPC   H5Y 5644   2.243   2.664   4.504 -0.7092 -0.5939 -1.8412
   67SAPC   C36 5645   2.266   2.843   4.630  0.8523  0.1469  0.4479
   67SAPC   H6X 5646   2.158   2.867   4.644  0.6797  1.6569 -2.5580
   67SAPC   H6Y 5647   2.317   2.941   4.622 -0.9544  1.1836  0.8889
   67SAPC   C37 5648   2.329   2.780   4.760 -0.1060  0.2746  0.5217
   67SAPC   H7X 5649   2.437   2.803   4.755 -0.6045  3.0047  0.8629
   67SAPC   H7Y 5650   2.309   2.671   4.771 -0.6560  0.3928  0.7443
   67SAPC   C38 5651   2.271   2.845   4.886  0.2588  0.0861 -0.1067
   67SAPC   H8X 5652   2.164   2.816   4.889 -0.3583  2.0831 -1.1963
   67SAPC   H8Y 5653   2.260   2.954   4.865  0.0971 -0.1112 -1.0790
   67SAPC   C39 5654   2.349   2.805   5.013  0.5815 -0.9784  0.0812
   67SAPC   H9X 5655   2.457   2.825   4.997  0.5925 -0.6418  0.5636
   67SAPC   H9Y 5656   2.332   2.698   5.041  1.4127 -1.5256 -1.4001
   67SAPC  C310 5657   2.307   2.879   5.141  0.1381 -0.1340 -0.8616
   67SAPC  H10X 5658   2.197   2.866   5.140  0.1726 -0.4504 -0.5876
   67SAPC  H10Y 5659   2.320   2.990   5.135 -4.2018  0.6450  0.5794
   67SAPC  C311 5660   2.379   2.824   5.261  0.1695  0.6860 -0.6286
   67SAPC  H11X 5661   2.489   2.835   5.243  0.1847  2.1256  0.1850
   67SAPC  H11Y 5662   2.350   2.718   5.273 -0.7199  1.0062  0.1348
   67SAPC  C312 5663   2.338   2.893   5.387 -0.2703  0.6987 -0.2280
   67SAPC  H12X 5664   2.233   2.870   5.413 -0.3168 -1.8235 -2.2071
   67SAPC  H12Y 5665   2.359   3.002   5.382  1.6334  0.3212 -2.1524
   67SAPC  C313 5666   2.415   2.837   5.505  0.0255  0.0841 -1.5504
   67SAPC  H13X 5667   2.523   2.832   5.481  0.4762  0.1082  0.2611
   67SAPC  H13Y 5668   2.389   2.730   5.521 -0.4283  0.5621  1.7293
   67SAPC  C314 5669   2.401   2.916   5.635  0.5736  0.1409  0.7687
   67SAPC  H14X 5670   2.293   2.906   5.659  0.7316  1.9141  2.4504
   67SAPC  H14Y 5671   2.426   3.022   5.613  1.7441 -0.1370  0.6502
   67SAPC  C315 5672   2.493   2.868   5.754 -0.6692  0.4818  0.2781
   67SAPC  H15X 5673   2.598   2.891   5.727  0.5348  0.0128  3.9376
   67SAPC  H15Y 5674   2.479   2.761   5.780  1.9803  0.4657  2.1329
   67SAPC  C316 5675   2.466   2.941   5.885  0.3524  0.0853 -0.7768
   67SAPC  H16X 5676   2.478   3.052   5.882  0.0848  0.1046 -1.4596
   67SAPC  H16Y 5677   2.534   2.911   5.968 -0.9776  0.7109  0.5871
   67SAPC  C317 5678   2.322   2.909   5.936 -0.2565  0.0099 -0.1154
   67SAPC  H17X 5679   2.305   2.800   5.931 -0.7297  0.0175  0.9752
   67SAPC  H17Y 5680   2.245   2.970   5.883 -0.9397  0.1900  1.0416
   67SAPC  C318 5681   2.314   2.951   6.083 -0.1051  0.5483  0.3310
   67SAPC  H18X 5682   2.392   2.888   6.131 -1.2399  0.6362  2.4180
   67SAPC  H18Y 5683   2.216   2.922   6.128  0.0601 -0.5645  0.0026
   67SAPC  H18Z 5684   2.339   3.058   6.099  1.7293  0.3538 -1.0005
   68SAPC     N 5685   3.649   5.394   3.811 -0.0493 -0.3270  0.3124
   68SAPC   C12 5686   3.720   5.431   3.939  0.9575 -0.3853  0.2851
   68SAPC  H12A 5687   3.772   5.525   3.933  0.1211  0.0360 -0.7828
   68SAPC  H12B 5688   3.792   5.358   3.971  1.8179 -0.0006 -0.7211
   68SAPC   C13 5689   3.583   5.265   3.827 -0.1871  0.1547 -0.1253
   68SAPC  H13A 5690   3.647   5.184   3.859  1.4840  1.6320  0.5269
   68SAPC  H13B 5691   3.502   5.270   3.899 -0.7747  0.5944 -0.8077
   68SAPC  H13C 5692   3.529   5.234   3.739  1.2854  0.4254 -1.1690
   68SAPC   C14 5693   3.544   5.494   3.766  0.6630  1.3618 -0.3701
   68SAPC  H14A 5694   3.456   5.487   3.827  0.8519  2.9902  0.1302
   68SAPC  H14B 5695   3.599   5.586   3.778  3.2255 -0.3314  2.2624
   68SAPC  H14C 5696   3.512   5.472   3.665  0.1145 -0.8732  0.2325
   68SAPC   C15 5697   3.740   5.381   3.695 -0.3562  0.0183  0.3619
   68SAPC  H15A 5698   3.817   5.312   3.725  0.2181  0.7399  0.5744
   68SAPC  H15B 5699   3.689   5.334   3.613  0.5366  0.9778 -0.7869
   68SAPC  H15C 5700   3.793   5.474   3.679 -1.4823  0.7044  0.5248
   68SAPC   C11 5701   3.631   5.467   4.060  0.5180 -0.3233 -0.5138
   68SAPC  H11A 5702   3.705   5.487   4.141  0.5119 -1.8084 -0.1123
   68SAPC  H11B 5703   3.575   5.380   4.100  0.6890 -0.2759 -0.1706
   68SAPC     P 5704   3.618   5.727   4.029 -0.2458  0.4013  0.2936
   68SAPC   O13 5705   3.736   5.718   3.943 -0.4824  0.9890 -0.0699
   68SAPC   O14 5706   3.519   5.834   4.000 -0.9803  0.1311 -0.3124
   68SAPC   O12 5707   3.542   5.582   4.043  0.6585 -0.1083 -0.0701
   68SAPC   O11 5708   3.670   5.743   4.175  0.3970  0.1531  0.3771
   68SAPC    C1 5709   3.572   5.742   4.274  0.0669 -0.0847  0.7393
   68SAPC    HA 5710   3.475   5.695   4.250 -0.7600  1.9096 -0.0526
   68SAPC    HB 5711   3.598   5.690   4.368 -1.4324 -0.9728  0.6995
   68SAPC    C2 5712   3.539   5.894   4.322 -0.3119 -1.0040 -0.0503
   68SAPC    HS 5713   3.516   5.939   4.223  0.5333 -2.4565 -0.9427
   68SAPC   O21 5714   3.647   5.960   4.386 -0.4845  0.1689 -0.2471
   68SAPC   C21 5715   3.642   6.093   4.375  0.5443  0.4766 -0.3395
   68SAPC   O22 5716   3.553   6.159   4.321 -0.4099 -0.7387 -0.3358
   68SAPC   C22 5717   3.771   6.155   4.427  0.4035  0.3087 -0.2040
   68SAPC   H2R 5718   3.858   6.094   4.395  0.7317  2.5516 -4.2374
   68SAPC   H2S 5719   3.792   6.254   4.380  0.1283  0.1031 -0.7715
   68SAPC    C3 5720   3.420   5.899   4.420  0.1814  0.3866  0.0192
   68SAPC    HX 5721   3.348   5.825   4.378 -1.5374  0.7527  2.1179
   68SAPC    HY 5722   3.369   5.998   4.416 -1.5731 -0.4959 -1.1281
   68SAPC   O31 5723   3.462   5.840   4.544 -0.3547  0.0144  0.1278
   68SAPC   C31 5724   3.497   5.938   4.630 -0.1653  0.0554  0.2561
   68SAPC   O32 5725   3.493   6.054   4.617  0.7773  0.5486  0.6759
   68SAPC   C32 5726   3.565   5.873   4.747 -0.4210  0.0440  0.1287
   68SAPC   H2X 5727   3.631   5.952   4.788  2.6673 -1.5630 -1.4022
   68SAPC   H2Y 5728   3.621   5.783   4.713  3.1478  2.5736 -1.3200
   68SAPC   C23 5729   3.769   6.170   4.582  0.6324 -0.3152  0.6221
   68SAPC   H3R 5730   3.765   6.072   4.633  1.9212 -0.7490 -0.0720
   68SAPC   H3S 5731   3.679   6.230   4.607  1.4404  0.9674  0.5307
   68SAPC   C24 5732   3.886   6.253   4.629 -0.6681 -0.2007  0.4413
   68SAPC   H4R 5733   3.879   6.275   4.737  2.6313 -0.6379  0.8497
   68SAPC   H4S 5734   3.900   6.353   4.582 -1.1353  0.0986  0.9239
   68SAPC   C25 5735   4.009   6.176   4.608  0.6928 -0.4867  0.0171
   68SAPC   H5R 5736   4.042   6.175   4.503  1.2950  0.9614  0.1676
   68SAPC   C26 5737   4.078   6.121   4.715 -0.2255 -0.0737 -0.3894
   68SAPC   H6R 5738   4.156   6.048   4.691 -1.7093 -1.3118 -1.6327
   68SAPC   C27 5739   4.034   6.127   4.866 -0.5052  0.0450  0.7198
   68SAPC   H7R 5740   4.078   6.032   4.904  0.2620  0.2693  0.4175
   68SAPC   H7S 5741   3.925   6.132   4.884 -0.8055 -1.8728 -0.4207
   68SAPC   C28 5742   4.103   6.235   4.942  0.4809  0.1450 -0.3450
   68SAPC   H8R 5743   4.141   6.316   4.879 -0.0878  1.6643  1.1572
   68SAPC   C29 5744   4.097   6.245   5.075  0.3546  0.4197  0.1411
   68SAPC   H9R 5745   4.145   6.332   5.122 -0.8483  1.6074 -0.7712
   68SAPC  C210 5746   4.035   6.150   5.171 -0.4228 -0.1904 -0.4776
   68SAPC  H10R 5747   4.014   6.053   5.120 -0.4669 -1.3013  1.5257
   68SAPC  H10S 5748   3.932   6.181   5.197 -0.0601  1.0500 -0.4692
   68SAPC  C211 5749   4.118   6.105   5.291 -0.1192 -1.5325  0.1261
   68SAPC  H11R 5750   4.226   6.093   5.275 -0.2859 -1.2352 -1.4287
   68SAPC  C212 5751   4.078   6.103   5.424  0.1498  0.2727  0.7916
   68SAPC  H12R 5752   4.152   6.074   5.501  0.9738 -1.9349 -0.7323
   68SAPC  C213 5753   3.946   6.134   5.481  0.1723 -0.1698  0.0421
   68SAPC  H13R 5754   3.936   6.074   5.575 -2.2656 -0.3633 -0.2646
   68SAPC  H13S 5755   3.863   6.091   5.421 -0.4201 -2.6803  2.4432
   68SAPC  C214 5756   3.931   6.279   5.507  0.1133  0.0815  0.2587
   68SAPC  H14R 5757   3.914   6.329   5.411  2.8105  0.0340 -0.3188
   68SAPC  C215 5758   3.947   6.352   5.620  0.6375 -0.2682  0.1447
   68SAPC  H15R 5759   3.928   6.460   5.614  0.9911 -0.2574 -1.0666
   68SAPC  C216 5760   3.990   6.298   5.754  0.6579  0.5009  0.2713
   68SAPC  H16R 5761   4.009   6.189   5.751 -2.2583 -0.0956  0.4281
   68SAPC  H16S 5762   3.904   6.290   5.824 -0.6943 -0.4283 -1.4228
   68SAPC  C217 5763   4.099   6.381   5.822 -0.2267  0.3763  0.1680
   68SAPC  H17R 5764   4.060   6.459   5.891  0.3611 -1.3387  2.6240
   68SAPC  H17S 5765   4.163   6.428   5.745  0.4448 -0.3137  0.2854
   68SAPC  C218 5766   4.183   6.302   5.923 -0.4024  0.8984  0.5298
   68SAPC  H18R 5767   4.268   6.266   5.861 -2.6901 -2.2238 -1.0531
   68SAPC  H18S 5768   4.126   6.214   5.958  0.8618 -0.0830  0.1959
   68SAPC  C219 5769   4.230   6.374   6.050  0.5081  0.0260 -0.0112
   68SAPC  H19R 5770   4.316   6.319   6.093 -0.4495 -0.9812  0.6731
   68SAPC  H19S 5771   4.146   6.367   6.123  1.3314 -1.2954  0.8467
   68SAPC  C220 5772   4.303   6.513   6.041  0.0537  0.8489  0.6438
   68SAPC  H20R 5773   4.383   6.511   5.963 -0.7504  0.9058 -0.2005
   68SAPC  H20S 5774   4.327   6.566   6.135 -1.8653  0.7573  1.2195
   68SAPC  H20T 5775   4.228   6.582   5.998 -0.7089  0.0205  0.6213
   68SAPC   C33 5776   3.455   5.838   4.864 -0.3721 -0.2022  0.0013
   68SAPC   H3X 5777   3.395   5.754   4.823  1.4479 -1.0708 -1.0168
   68SAPC   H3Y 5778   3.392   5.928   4.874  0.0100  0.0029  0.5860
   68SAPC   C34 5779   3.532   5.808   4.993  0.3286 -0.2068 -0.6201
   68SAPC   H4X 5780   3.603   5.888   5.018 -0.5963  0.0666  1.2965
   68SAPC   H4Y 5781   3.595   5.720   4.968 -2.0441 -2.5356  1.0290
   68SAPC   C35 5782   3.437   5.765   5.105 -0.4111  0.3816 -0.4372
   68SAPC   H5X 5783   3.372   5.683   5.068 -3.0540  0.9461  2.5717
   68SAPC   H5Y 5784   3.354   5.837   5.123 -2.4248 -1.5923 -1.3271
   68SAPC   C36 5785   3.500   5.715   5.232 -0.3062 -0.9146 -0.5187
   68SAPC   H6X 5786   3.603   5.676   5.215  0.9274  1.7290  0.3800
   68SAPC   H6Y 5787   3.440   5.633   5.277  1.6042 -1.6018  0.8850
   68SAPC   C37 5788   3.535   5.829   5.326  0.1255 -0.2942  0.2624
   68SAPC   H7X 5789   3.441   5.887   5.332  0.4902  0.4290 -0.7298
   68SAPC   H7Y 5790   3.621   5.885   5.282 -0.2145 -0.7414 -0.9995
   68SAPC   C38 5791   3.578   5.785   5.467  0.9237  0.1441 -0.6581
   68SAPC   H8X 5792   3.531   5.689   5.499 -0.5091  1.4966  1.5738
   68SAPC   H8Y 5793   3.559   5.869   5.536 -2.0916 -1.1671  0.2900
   68SAPC   C39 5794   3.725   5.754   5.480 -0.0984 -0.5310 -0.4883
   68SAPC   H9X 5795   3.776   5.845   5.442 -2.1447  0.2426 -1.5358
   68SAPC   H9Y 5796   3.758   5.679   5.404  1.4172 -0.1846 -0.1994
   68SAPC  C310 5797   3.775   5.715   5.619 -0.2001 -0.2175 -0.2770
   68SAPC  H10X 5798   3.761   5.801   5.688  1.7263 -1.1501  1.4141
   68SAPC  H10Y 5799   3.886   5.709   5.620 -0.0584  1.1532 -2.5781
   68SAPC  C311 5800   3.719   5.580   5.675 -0.4773 -0.3166  0.1655
   68SAPC  H11X 5801   3.777   5.498   5.626 -1.1978 -2.1531  2.2487
   68SAPC  H11Y 5802   3.609   5.572   5.660 -0.7863  3.7842 -0.8628
   68SAPC  C312 5803   3.746   5.569   5.827 -0.4420  0.7839 -0.0215
   68SAPC  H12X 5804   3.708   5.658   5.882 -0.7148 -0.6601  2.2618
   68SAPC  H12Y 5805   3.856   5.562   5.834 -0.4736 -1.1499 -0.7597
   68SAPC  C313 5806   3.689   5.440   5.890  0.0084  0.1173  0.8038
   68SAPC  H13X 5807   3.750   5.356   5.850  1.1398 -0.3169  3.2875
   68SAPC  H13Y 5808   3.580   5.432   5.866 -0.4880 -0.1442  2.9762
   68SAPC  C314 5809   3.720   5.412   6.043 -0.8415 -0.7622 -0.4966
   68SAPC  H14X 5810   3.829   5.413   6.063 -0.6913  0.3293 -1.2442
   68SAPC  H14Y 5811   3.683   5.313   6.075 -0.1603 -0.7414  0.3891
   68SAPC  C315 5812   3.659   5.520   6.133  0.5133 -0.2470 -0.0295
   68SAPC  H15X 5813   3.562   5.551   6.090  1.1416 -1.4584 -2.5102
   68SAPC  H15Y 5814   3.716   5.615   6.126  2.6991 -1.5191 -0.6070
   68SAPC  C316 5815   3.652   5.479   6.284  0.0230  0.5988 -0.4415
   68SAPC  H16X 5816   3.748   5.471   6.340 -1.3313 -1.7829  1.7650
   68SAPC  H16Y 5817   3.605   5.379   6.297  1.0156 -0.1262 -2.0102
   68SAPC  C317 5818   3.561   5.580   6.363 -0.6271 -0.4066  0.2549
   68SAPC  H17X 5819   3.466   5.591   6.307 -1.7415 -1.2356  1.9160
   68SAPC  H17Y 5820   3.613   5.678   6.374  1.6897 -1.3730 -1.2240
   68SAPC  C318 5821   3.520   5.541   6.498  0.2601  0.5242 -0.0092
   68SAPC  H18X 5822   3.444   5.604   6.549 -1.6681 -1.7643  0.1111
   68SAPC  H18Y 5823   3.612   5.547   6.561 -2.2738  2.4047  3.8820
   68SAPC  H18Z 5824   3.480   5.437   6.493  0.5493  0.2853  1.8345
   69SAPC     N 5825   5.365   1.912   3.626 -0.2367 -0.2552 -0.7631
   69SAPC   C12 5826   5.274   1.829   3.704  0.2588  0.0555 -0.3565
   69SAPC  H12A 5827   5.194   1.881   3.754  0.3747  0.5344 -0.6650
   69SAPC  H12B 5828   5.337   1.779   3.777  0.6102  1.0523  0.0418
   69SAPC   C13 5829   5.473   1.833   3.558 -0.3787 -0.5966  0.0290
   69SAPC  H13A 5830   5.519   1.767   3.629  3.3281  1.7104  0.0610
   69SAPC  H13B 5831   5.436   1.760   3.487 -3.5447 -1.8607  2.7664
   69SAPC  H13C 5832   5.552   1.887   3.507  1.6995 -3.4827 -0.0339
   69SAPC   C14 5833   5.280   1.979   3.523 -0.1964  0.7064 -0.2110
   69SAPC  H14A 5834   5.332   2.013   3.435  1.6624  1.6482  1.1907
   69SAPC  H14B 5835   5.199   1.913   3.494  1.8886 -1.4158 -1.5188
   69SAPC  H14C 5836   5.226   2.060   3.571 -0.4315  0.2310  0.3434
   69SAPC   C15 5837   5.431   2.009   3.717 -0.1241 -0.1012  0.2134
   69SAPC  H15A 5838   5.362   2.065   3.777  0.1007  0.6638 -0.2217
   69SAPC  H15B 5839   5.491   1.954   3.788  0.2465 -1.4290 -1.0790
   69SAPC  H15C 5840   5.491   2.073   3.652 -0.5885 -0.7784 -0.9082
   69SAPC   C11 5841   5.200   1.713   3.627  0.0441 -0.4974 -0.0634
   69SAPC  H11A 5842   5.189   1.614   3.675 -0.9745 -0.1913  0.3510
   69SAPC  H11B 5843   5.259   1.684   3.537 -0.8560  0.6893 -1.0762
   69SAPC     P 5844   4.961   1.779   3.684  0.4675 -0.3232  0.0330
   69SAPC   O13 5845   4.854   1.866   3.622 -0.0285  0.1264 -0.2348
   69SAPC   O14 5846   4.936   1.641   3.722  0.3073 -0.1777  0.0016
   69SAPC   O12 5847   5.079   1.771   3.584 -0.5325  0.4047  0.3236
   69SAPC   O11 5848   5.013   1.861   3.807  0.5052  0.2222 -0.2150
   69SAPC    C1 5849   4.986   1.997   3.840 -0.4537 -0.4052 -0.0953
   69SAPC    HA 5850   4.958   2.049   3.746  1.0120 -3.1033 -2.1850
   69SAPC    HB 5851   4.893   2.010   3.899  0.4865  0.6401  1.2327
   69SAPC    C2 5852   5.102   2.071   3.915  0.9033 -0.4657  0.4126
   69SAPC    HS 5853   5.183   2.094   3.842  0.3530 -2.9460 -1.0975
   69SAPC   O21 5854   5.154   1.987   4.023  0.2555  0.5347  0.6182
   69SAPC   C21 5855   5.281   2.012   4.050  0.2543  0.5897 -0.2425
   69SAPC   O22 5856   5.345   2.105   4.000 -0.2020  0.0049  0.5993
   69SAPC   C22 5857   5.333   1.929   4.161  0.4728  0.2908  0.7266
   69SAPC   H2R 5858   5.268   1.945   4.250  1.5539 -1.6621  1.9282
   69SAPC   H2S 5859   5.329   1.821   4.139  0.4695 -0.4945  4.1014
   69SAPC    C3 5860   5.047   2.206   3.970  0.2428  0.2599 -0.0874
   69SAPC    HX 5861   4.999   2.264   3.889 -2.9931  0.3985  1.7904
   69SAPC    HY 5862   5.129   2.271   4.010 -1.3542  1.5904  1.1533
   69SAPC   O31 5863   4.938   2.178   4.062  0.0507 -0.1589 -0.0096
   69SAPC   C31 5864   4.892   2.281   4.136  0.4519  0.5276  0.8713
   69SAPC   O32 5865   4.934   2.395   4.123  0.1695 -0.1768  0.5401
   69SAPC   C32 5866   4.791   2.236   4.238  0.1078 -0.0974 -0.7656
   69SAPC   H2X 5867   4.739   2.144   4.203  0.5771 -0.4566 -0.5235
   69SAPC   H2Y 5868   4.714   2.315   4.252  1.1962  0.4869  2.8944
   69SAPC   C23 5869   5.478   1.965   4.202 -0.1392 -0.9469  0.2361
   69SAPC   H3R 5870   5.487   2.073   4.225  3.0589 -0.5186 -2.2731
   69SAPC   H3S 5871   5.552   1.946   4.120  0.6334  1.6356  0.2649
   69SAPC   C24 5872   5.512   1.876   4.326 -0.2284 -0.2931  0.4742
   69SAPC   H4R 5873   5.511   1.769   4.297 -0.6211 -0.1644  0.0055
   69SAPC   H4S 5874   5.427   1.877   4.397  0.1860 -1.0281  1.0043
   69SAPC   C25 5875   5.649   1.908   4.388 -0.0739  0.4993  0.2594
   69SAPC   H5R 5876   5.721   1.963   4.325  0.9107 -1.0308  0.0036
   69SAPC   C26 5877   5.679   1.894   4.518  0.1360  0.7049 -0.7933
   69SAPC   H6R 5878   5.780   1.920   4.553  0.3228 -1.3922  0.3784
   69SAPC   C27 5879   5.578   1.836   4.614  0.7103 -0.5680 -0.0710
   69SAPC   H7R 5880   5.627   1.797   4.706 -2.2299 -0.1963  1.7964
   69SAPC   H7S 5881   5.524   1.748   4.574  2.4147 -0.4927 -2.7627
   69SAPC   C28 5882   5.491   1.948   4.668 -0.1195  0.3050  1.0125
   69SAPC   H8R 5883   5.464   2.025   4.595 -0.3576 -0.4814  0.2478
   69SAPC   C29 5884   5.430   1.955   4.788 -0.4586  0.0543 -0.0764
   69SAPC   H9R 5885   5.381   2.052   4.807  0.0308  0.5506 -1.2666
   69SAPC  C210 5886   5.456   1.853   4.902  0.5553 -0.5518  0.0397
   69SAPC  H10R 5887   5.521   1.900   4.979 -0.1394 -0.7643  0.7693
   69SAPC  H10S 5888   5.509   1.764   4.862  2.1719  0.4314 -0.1183
   69SAPC  C211 5889   5.329   1.818   4.979 -0.4496  0.1055 -0.2646
   69SAPC  H11R 5890   5.264   1.768   4.906 -1.4374  0.3103  0.4593
   69SAPC  C212 5891   5.306   1.825   5.110 -0.0201 -0.0656 -0.1701
   69SAPC  H12R 5892   5.213   1.772   5.135  0.0910 -0.7216 -1.1047
   69SAPC  C213 5893   5.395   1.880   5.216 -0.1104  0.3670 -0.5452
   69SAPC  H13R 5894   5.471   1.956   5.187  0.1904  0.1342 -0.3720
   69SAPC  H13S 5895   5.449   1.791   5.257 -1.2093 -0.2984 -0.4964
   69SAPC  C214 5896   5.298   1.925   5.323 -0.3300  0.0820  0.1846
   69SAPC  H14R 5897   5.232   2.001   5.280 -0.0285  0.7780  0.9323
   69SAPC  C215 5898   5.305   1.908   5.457  0.2017  0.0339  0.0637
   69SAPC  H15R 5899   5.234   1.956   5.525  1.6538 -0.4281  1.9925
   69SAPC  C216 5900   5.402   1.815   5.526  0.4600  0.3673 -0.2421
   69SAPC  H16R 5901   5.453   1.747   5.454  1.6733  0.9349  0.0458
   69SAPC  H16S 5902   5.349   1.741   5.590 -0.9476 -0.5480 -2.3633
   69SAPC  C217 5903   5.516   1.887   5.596  0.3537 -0.1806  0.0209
   69SAPC  H17R 5904   5.469   1.957   5.669 -0.1274  1.0996 -1.4592
   69SAPC  H17S 5905   5.564   1.951   5.519  0.1434  2.1698  1.7314
   69SAPC  C218 5906   5.620   1.798   5.659  0.4598  0.1770 -0.4223
   69SAPC  H18R 5907   5.581   1.719   5.727  1.2520  0.9107  0.9262
   69SAPC  H18S 5908   5.686   1.869   5.714  0.4987  1.1499 -1.6759
   69SAPC  C219 5909   5.698   1.717   5.561 -0.3903  0.9086  0.1966
   69SAPC  H19R 5910   5.719   1.783   5.475  1.4513 -1.1000 -0.9995
   69SAPC  H19S 5911   5.625   1.638   5.535  1.8631 -0.6482 -1.7994
   69SAPC  C220 5912   5.816   1.652   5.620  0.2305  0.4505  0.1258
   69SAPC  H20R 5913   5.874   1.718   5.687  1.4617 -0.7036  0.2478
   69SAPC  H20S 5914   5.890   1.609   5.549  0.5162 -1.2775  1.3850
   69SAPC  H20T 5915   5.789   1.570   5.691 -0.9803  0.8714  0.1636
   69SAPC   C33 5916   4.849   2.202   4.381  0.4142 -0.4314  0.4853
   69SAPC   H3X 5917   4.759   2.196   4.446 -0.2959  0.0506 -0.4332
   69SAPC   H3Y 5918   4.917   2.277   4.428 -0.3910  0.8213 -0.2883
   69SAPC   C34 5919   4.914   2.062   4.386  0.1482 -0.5661 -0.4290
   69SAPC   H4X 5920   4.989   2.055   4.304  0.6541 -1.3349  0.0761
   69SAPC   H4Y 5921   4.841   1.979   4.378  0.0541 -0.5331  0.0608
   69SAPC   C35 5922   5.006   2.036   4.514  0.0477  0.0378  0.4049
   69SAPC   H5X 5923   4.950   2.069   4.604 -0.7343 -0.8270  0.2581
   69SAPC   H5Y 5924   5.092   2.104   4.497 -1.2090  1.3850 -0.8998
   69SAPC   C36 5925   5.039   1.887   4.524 -0.1667 -0.5305 -0.1299
   69SAPC   H6X 5926   5.126   1.860   4.460 -0.0903 -0.1718 -0.1764
   69SAPC   H6Y 5927   4.962   1.816   4.487 -0.2971 -0.7108  0.4889
   69SAPC   C37 5928   5.067   1.854   4.667  0.0092  0.2841 -0.0385
   69SAPC   H7X 5929   5.138   1.924   4.716 -0.3508 -0.2553  1.2776
   69SAPC   H7Y 5930   5.126   1.761   4.659  2.9609  1.9315  1.1418
   69SAPC   C38 5931   4.941   1.828   4.751  0.6925  0.3694  0.0502
   69SAPC   H8X 5932   4.901   1.733   4.711 -0.6065  0.1180  1.8246
   69SAPC   H8Y 5933   4.864   1.900   4.716 -0.6618 -0.9175  0.3201
   69SAPC   C39 5934   4.966   1.815   4.900 -0.2537 -0.1594 -0.0913
   69SAPC   H9X 5935   5.015   1.909   4.933  0.7298 -1.0891  1.2255
   69SAPC   H9Y 5936   5.037   1.732   4.923 -0.2562 -0.1210  0.0562
   69SAPC  C310 5937   4.840   1.786   4.979  0.5030  0.3241  0.2865
   69SAPC  H10X 5938   4.807   1.680   4.988 -2.1002  1.1590  1.4304
   69SAPC  H10Y 5939   4.761   1.833   4.917  0.1486 -2.2690 -1.3712
   69SAPC  C311 5940   4.838   1.845   5.120  0.2181  0.0348  0.4717
   69SAPC  H11X 5941   4.730   1.844   5.148  0.0443  0.6594 -0.1518
   69SAPC  H11Y 5942   4.860   1.951   5.095  0.0749 -0.5391 -2.4397
   69SAPC  C312 5943   4.921   1.783   5.227 -0.3393 -0.2267 -1.0730
   69SAPC  H12X 5944   5.028   1.806   5.204 -0.0475 -0.1936  0.2231
   69SAPC  H12Y 5945   4.901   1.674   5.231 -1.8170  0.0547  1.7158
   69SAPC  C313 5946   4.901   1.839   5.367 -0.2604  0.1213  0.0079
   69SAPC  H13X 5947   4.880   1.948   5.374 -0.5543  0.0262  0.7145
   69SAPC  H13Y 5948   4.998   1.819   5.416  0.2804  1.2088 -0.5826
   69SAPC  C314 5949   4.804   1.757   5.459 -0.1867 -1.0420  0.3176
   69SAPC  H14X 5950   4.848   1.655   5.459  0.8261 -0.6569 -1.6331
   69SAPC  H14Y 5951   4.705   1.767   5.411  1.3302  3.2688 -2.5184
   69SAPC  C315 5952   4.788   1.798   5.610 -0.3912  0.1028  0.3202
   69SAPC  H15X 5953   4.885   1.783   5.662  1.0201 -0.9424 -2.4006
   69SAPC  H15Y 5954   4.709   1.732   5.651 -0.4998 -0.1664 -0.3065
   69SAPC  C316 5955   4.751   1.953   5.620 -0.5019 -0.2962 -0.8046
   69SAPC  H16X 5956   4.840   1.999   5.572 -1.5075  0.2224 -2.2530
   69SAPC  H16Y 5957   4.748   1.965   5.730  0.1596 -0.2408 -0.7892
   69SAPC  C317 5958   4.617   1.991   5.555  0.4478  0.5154  0.0956
   69SAPC  H17X 5959   4.558   1.903   5.523 -1.1333  1.3712  0.5552
   69SAPC  H17Y 5960   4.638   2.052   5.465 -0.0495 -1.0826 -1.1361
   69SAPC  C318 5961   4.523   2.076   5.646 -0.3007  0.2361 -0.8486
   69SAPC  H18X 5962   4.423   2.091   5.599 -0.4815  1.7922 -0.0295
   69SAPC  H18Y 5963   4.568   2.175   5.670  0.2240  0.5572 -2.9330
   69SAPC  H18Z 5964   4.511   2.032   5.747  0.9251  1.0741 -0.3207
   70SAPC     N 5965   5.752   0.218   3.708  0.6563  0.4034 -0.2434
   70SAPC   C12 5966   5.653   0.104   3.736 -0.1742  0.5275  0.2848
   70SAPC  H12A 5967   5.613   0.120   3.835  2.7661  1.2554  1.4474
   70SAPC  H12B 5968   5.706   0.011   3.751  1.1986  0.8031 -2.2508
   70SAPC   C13 5969   5.845   0.184   3.590  1.0619  0.0617 -0.1910
   70SAPC  H13A 5970   5.909   0.099   3.605  1.4385  0.6896  2.2731
   70SAPC  H13B 5971   5.776   0.170   3.508  0.1247 -1.3375  0.7835
   70SAPC  H13C 5972   5.916   0.261   3.562  1.2509  0.7627  1.9765
   70SAPC   C14 5973   5.675   0.347   3.692  0.8602  0.3621 -0.6891
   70SAPC  H14A 5974   5.673   0.407   3.782  1.4800  0.1382 -0.5228
   70SAPC  H14B 5975   5.723   0.415   3.622 -0.2011  0.1016 -1.7018
   70SAPC  H14C 5976   5.581   0.342   3.639  1.1624 -0.4461 -1.1705
   70SAPC   C15 5977   5.833   0.234   3.833 -0.2519  0.2151  0.5284
   70SAPC  H15A 5978   5.782   0.270   3.921 -1.1775  0.6897 -0.1915
   70SAPC  H15B 5979   5.881   0.142   3.865  0.1605  0.7797  1.5755
   70SAPC  H15C 5980   5.906   0.311   3.813  0.3406 -0.8639 -1.9741
   70SAPC   C11 5981   5.543   0.071   3.627 -0.2510  0.9263  0.3553
   70SAPC  H11A 5982   5.507   0.167   3.583 -0.2509  0.5722 -0.4418
   70SAPC  H11B 5983   5.457   0.027   3.682 -2.4917  0.4426 -3.1995
   70SAPC     P 5984   5.646  -0.149   3.542  0.0412  0.1088  0.1440
   70SAPC   O13 5985   5.601  -0.233   3.432 -0.0650  0.0540 -0.1021
   70SAPC   O14 5986   5.795  -0.137   3.547  0.3575  0.6350 -0.0678
   70SAPC   O12 5987   5.592  -0.005   3.519 -0.3699 -0.1404  0.2324
   70SAPC   O11 5988   5.583  -0.192   3.686  0.0572 -0.8797 -0.4133
   70SAPC    C1 5989   5.450  -0.237   3.702  0.1729  0.7663 -0.4525
   70SAPC    HA 5990   5.378  -0.172   3.648 -0.6341  1.8463  1.7841
   70SAPC    HB 5991   5.447  -0.338   3.655  3.2021  0.1264  0.4937
   70SAPC    C2 5992   5.402  -0.251   3.858 -0.1945 -0.7944  0.0645
   70SAPC    HS 5993   5.344  -0.161   3.888 -0.3330 -0.3824 -1.3614
   70SAPC   O21 5994   5.518  -0.260   3.940 -0.0832 -0.3011 -0.2246
   70SAPC   C21 5995   5.576  -0.145   3.984  0.0710  0.1810 -0.0743
   70SAPC   O22 5996   5.535  -0.035   3.964  0.6867 -0.4783 -0.0966
   70SAPC   C22 5997   5.706  -0.175   4.060 -0.4413  0.3372  0.2534
   70SAPC   H2R 5998   5.786  -0.185   3.984 -0.2979  1.1819  0.2873
   70SAPC   H2S 5999   5.729  -0.079   4.111 -2.4396  1.7290 -1.3093
   70SAPC    C3 6000   5.309  -0.372   3.876 -0.2504 -0.1087 -0.5340
   70SAPC    HX 6001   5.374  -0.460   3.856  0.9292  0.5676  0.1872
   70SAPC    HY 6002   5.221  -0.364   3.809 -1.3111  2.2636  1.0141
   70SAPC   O31 6003   5.265  -0.375   4.012 -0.0306  0.0166  0.0209
   70SAPC   C31 6004   5.341  -0.446   4.093  0.0979  0.5233 -0.0495
   70SAPC   O32 6005   5.434  -0.519   4.062  0.0009  0.2395 -0.1319
   70SAPC   C32 6006   5.293  -0.426   4.234 -0.0185 -0.4816 -0.5754
   70SAPC   H2X 6007   5.195  -0.479   4.228 -0.6986  0.3646  1.8285
   70SAPC   H2Y 6008   5.291  -0.319   4.265 -0.0776 -1.1409  1.9911
   70SAPC   C23 6009   5.696  -0.296   4.162 -0.3855  0.2686 -0.2874
   70SAPC   H3R 6010   5.646  -0.380   4.110  0.4580 -2.0048  2.3330
   70SAPC   H3S 6011   5.636  -0.270   4.252  0.8688  1.2187  0.3049
   70SAPC   C24 6012   5.832  -0.358   4.199 -0.3554 -0.4926  0.1400
   70SAPC   H4R 6013   5.893  -0.369   4.108 -0.6366 -0.5498 -0.0430
   70SAPC   H4S 6014   5.808  -0.459   4.239 -2.3481  0.3682  1.3513
   70SAPC   C25 6015   5.913  -0.272   4.295  0.0851  0.3296 -0.0299
   70SAPC   H5R 6016   5.991  -0.218   4.240  0.5198  1.0439  1.2502
   70SAPC   C26 6017   5.924  -0.300   4.427  0.5086  0.1941 -0.4056
   70SAPC   H6R 6018   5.998  -0.242   4.484 -0.3843  1.1653 -0.2112
   70SAPC   C27 6019   5.847  -0.396   4.516  0.9108 -0.3752 -0.1077
   70SAPC   H7R 6020   5.910  -0.444   4.595 -0.3979  0.6260  1.6214
   70SAPC   H7S 6021   5.815  -0.481   4.452  1.2196 -1.1157  0.6992
   70SAPC   C28 6022   5.731  -0.339   4.588  0.0620 -0.0776 -0.0086
   70SAPC   H8R 6023   5.636  -0.340   4.532  0.9112 -0.8733 -1.5030
   70SAPC   C29 6024   5.751  -0.263   4.703  0.2009 -0.0178 -0.1013
   70SAPC   H9R 6025   5.661  -0.238   4.761 -0.6718 -4.0267  0.5789
   70SAPC  C210 6026   5.883  -0.247   4.786  0.5709  0.4011 -0.4556
   70SAPC  H10R 6027   5.891  -0.157   4.851 -0.8097  0.0824  0.1915
   70SAPC  H10S 6028   5.970  -0.239   4.717  2.8989 -1.9087  1.9272
   70SAPC  C211 6029   5.908  -0.368   4.874 -0.2688 -0.7593  0.2388
   70SAPC  H11R 6030   5.815  -0.426   4.879 -1.7365  1.4571  0.1956
   70SAPC  C212 6031   6.023  -0.388   4.939 -0.4531  1.0569  0.3658
   70SAPC  H12R 6032   6.031  -0.479   5.001 -1.5679 -0.1882 -1.2452
   70SAPC  C213 6033   6.151  -0.305   4.937  0.0489  0.9703 -0.4080
   70SAPC  H13R 6034   6.220  -0.349   5.012  0.1384 -2.3835 -2.2825
   70SAPC  H13S 6035   6.123  -0.204   4.974 -1.2400  0.6143 -0.3758
   70SAPC  C214 6036   6.222  -0.291   4.806 -0.5811  0.3210  0.3926
   70SAPC  H14R 6037   6.161  -0.297   4.714 -1.4303  1.2922  0.8740
   70SAPC  C215 6038   6.348  -0.244   4.786  0.0436  0.8500  0.4958
   70SAPC  H15R 6039   6.386  -0.227   4.684 -1.4982  0.5663 -0.1586
   70SAPC  C216 6040   6.424  -0.192   4.902 -0.6649  0.2400  0.2477
   70SAPC  H16R 6041   6.359  -0.141   4.976 -0.2747  3.3053 -1.3571
   70SAPC  H16S 6042   6.499  -0.123   4.858 -1.9290 -0.6000 -3.6827
   70SAPC  C217 6043   6.516  -0.298   4.971 -0.0686 -0.7403 -0.0757
   70SAPC  H17R 6044   6.585  -0.345   4.898 -0.5580 -0.7924 -0.5068
   70SAPC  H17S 6045   6.453  -0.376   5.018  0.4320 -0.6573  0.7566
   70SAPC  C218 6046   6.604  -0.243   5.092 -0.2819  0.0514 -0.2927
   70SAPC  H18R 6047   6.528  -0.217   5.168 -1.7497 -0.3954 -1.5510
   70SAPC  H18S 6048   6.662  -0.153   5.063  1.1235 -1.5354 -2.7844
   70SAPC  C219 6049   6.706  -0.348   5.137  0.6229 -0.1571 -0.3384
   70SAPC  H19R 6050   6.784  -0.346   5.058  1.5179  3.6135  0.4515
   70SAPC  H19S 6051   6.650  -0.444   5.137 -1.3081  0.9086 -0.5869
   70SAPC  C220 6052   6.773  -0.312   5.268 -0.1470  0.2457  0.1354
   70SAPC  H20R 6053   6.822  -0.213   5.271  1.8842 -0.7017 -0.2259
   70SAPC  H20S 6054   6.859  -0.379   5.287  2.5735  2.6802 -2.6333
   70SAPC  H20T 6055   6.693  -0.322   5.345 -2.7084 -1.1255 -2.4668
   70SAPC   C33 6056   5.379  -0.490   4.341  0.2600  0.7176  0.3262
   70SAPC   H3X 6057   5.476  -0.436   4.342  0.7195 -0.0899  0.0790
   70SAPC   H3Y 6058   5.398  -0.594   4.305  0.0861  1.0733 -0.8509
   70SAPC   C34 6059   5.305  -0.483   4.482 -0.3661  0.0440  0.3482
   70SAPC   H4X 6060   5.212  -0.543   4.477 -0.9366  0.9630 -0.1386
   70SAPC   H4Y 6061   5.272  -0.379   4.501 -1.5303 -0.1127 -0.7606
   70SAPC   C35 6062   5.393  -0.538   4.600 -0.1972  0.3046  0.3492
   70SAPC   H5X 6063   5.501  -0.522   4.584 -0.2820  1.8618  1.1584
   70SAPC   H5Y 6064   5.391  -0.649   4.594  2.2223  0.0031  3.0547
   70SAPC   C36 6065   5.362  -0.484   4.742 -0.5069 -0.1369  0.5433
   70SAPC   H6X 6066   5.265  -0.531   4.771  0.3390 -1.3603  1.4936
   70SAPC   H6Y 6067   5.364  -0.373   4.750  0.6142 -0.0485 -0.7311
   70SAPC   C37 6068   5.451  -0.549   4.845 -0.4143 -0.3004  0.0535
   70SAPC   H7X 6069   5.438  -0.659   4.840  0.9439 -0.4085 -2.0145
   70SAPC   H7Y 6070   5.557  -0.520   4.830 -0.6799 -0.0235 -1.4978
   70SAPC   C38 6071   5.410  -0.509   4.982  0.2219 -0.2487 -0.6988
   70SAPC   H8X 6072   5.302  -0.494   5.002  0.8679  2.8949  1.1130
   70SAPC   H8Y 6073   5.461  -0.416   5.016 -2.3053  0.6837  0.7801
   70SAPC   C39 6074   5.453  -0.619   5.079  0.5128 -0.0535  0.0813
   70SAPC   H9X 6075   5.553  -0.656   5.047  1.2114  1.3024  0.6346
   70SAPC   H9Y 6076   5.377  -0.698   5.060 -0.1060  0.4846  0.2824
   70SAPC  C310 6077   5.450  -0.581   5.227 -0.4866  0.3730 -0.2655
   70SAPC  H10X 6078   5.346  -0.556   5.259 -2.1513 -0.6964 -4.3017
   70SAPC  H10Y 6079   5.507  -0.490   5.254  0.8100 -0.6794  0.7213
   70SAPC  C311 6080   5.503  -0.691   5.315 -0.6302 -0.6876 -0.0062
   70SAPC  H11X 6081   5.609  -0.723   5.302 -0.4732 -1.8116  3.1140
   70SAPC  H11Y 6082   5.439  -0.778   5.289 -1.7423  0.4037 -1.0234
   70SAPC  C312 6083   5.507  -0.659   5.459 -0.4678  0.2141 -0.6054
   70SAPC  H12X 6084   5.409  -0.630   5.503  1.0107  1.3187  2.1763
   70SAPC  H12Y 6085   5.571  -0.575   5.493 -2.9293  1.3650  1.5975
   70SAPC  C313 6086   5.533  -0.773   5.546  0.4094  0.6687  0.1732
   70SAPC  H13X 6087   5.612  -0.838   5.503 -0.9009 -0.0856 -1.1938
   70SAPC  H13Y 6088   5.454  -0.849   5.563  1.3751 -0.2829  0.5434
   70SAPC  C314 6089   5.568  -0.730   5.693  0.0307 -0.3349 -0.0135
   70SAPC  H14X 6090   5.524  -0.629   5.705  0.1483 -0.2648 -0.1685
   70SAPC  H14Y 6091   5.679  -0.718   5.699  0.1229 -1.4540  1.0271
   70SAPC  C315 6092   5.514  -0.815   5.808  0.5629  0.2771  0.1591
   70SAPC  H15X 6093   5.557  -0.771   5.900 -0.1965  2.4277 -0.4596
   70SAPC  H15Y 6094   5.552  -0.919   5.799 -0.6519 -0.2769  1.1707
   70SAPC  C316 6095   5.363  -0.797   5.824 -0.0693  0.0823  0.0030
   70SAPC  H16X 6096   5.315  -0.779   5.726  0.5158  3.4457  0.2175
   70SAPC  H16Y 6097   5.342  -0.705   5.882  0.2885 -0.4557  1.0089
   70SAPC  C317 6098   5.291  -0.912   5.891  0.2634  0.2206 -0.2341
   70SAPC  H17X 6099   5.304  -0.992   5.814 -0.4503 -0.1558  0.0303
   70SAPC  H17Y 6100   5.181  -0.897   5.894 -0.2198 -2.7206  0.2578
   70SAPC  C318 6101   5.348  -0.953   6.030 -0.5483 -0.2251 -1.1326
   70SAPC  H18X 6102   5.305  -0.881   6.103 -2.3358 -0.5558 -1.8036
   70SAPC  H18Y 6103   5.458  -0.951   6.047 -0.7513  2.0515  0.3424
   70SAPC  H18Z 6104   5.297  -1.046   6.062 -1.2275  0.1559 -1.0858
   71SAPC     N 6105   4.227   4.465   4.128 -0.0902  0.1239 -0.2359
   71SAPC   C12 6106   4.145   4.490   4.249  0.0999  0.2931  0.0393
   71SAPC  H12A 6107   4.199   4.526   4.335 -0.5593  0.1598  0.5181
   71SAPC  H12B 6108   4.110   4.393   4.280  3.5698 -0.8124  0.9228
   71SAPC   C13 6109   4.362   4.403   4.157 -0.5265 -0.0170 -0.1134
   71SAPC  H13A 6110   4.422   4.474   4.212 -0.0077 -0.4574 -0.1055
   71SAPC  H13B 6111   4.362   4.320   4.226 -0.0456 -1.3138 -1.6242
   71SAPC  H13C 6112   4.417   4.364   4.072 -0.3862 -0.6775  0.2748
   71SAPC   C14 6113   4.166   4.359   4.038 -0.0278  0.4699 -0.4778
   71SAPC  H14A 6114   4.067   4.394   4.015  0.2486  1.8756  0.3172
   71SAPC  H14B 6115   4.222   4.355   3.946  1.0101 -3.1255  0.1528
   71SAPC  H14C 6116   4.155   4.263   4.085 -1.5236  0.1188 -1.4776
   71SAPC   C15 6117   4.235   4.591   4.044  0.9674  0.4713  0.1489
   71SAPC  H15A 6118   4.299   4.669   4.084 -0.8509  1.4646  1.2395
   71SAPC  H15B 6119   4.278   4.560   3.950  3.0278  2.6247  0.2901
   71SAPC  H15C 6120   4.136   4.632   4.030  0.5320 -0.5785  0.0665
   71SAPC   C11 6121   4.015   4.579   4.247  0.0928  0.6011 -0.0509
   71SAPC  H11A 6122   4.045   4.686   4.257 -1.3704  0.8708  2.2450
   71SAPC  H11B 6123   3.961   4.561   4.343  1.6401 -0.7529  0.6157
   71SAPC     P 6124   3.849   4.617   4.047  0.1510 -0.0817 -0.1980
   71SAPC   O13 6125   3.933   4.720   3.977 -0.3153  0.4729 -0.1972
   71SAPC   O14 6126   3.779   4.520   3.958  0.0005  0.5499 -0.3648
   71SAPC   O12 6127   3.940   4.533   4.142  0.7227  0.5426  0.2527
   71SAPC   O11 6128   3.743   4.684   4.158  0.1974  0.1848 -0.4235
   71SAPC    C1 6129   3.680   4.585   4.241  0.1144  0.4169 -0.2380
   71SAPC    HA 6130   3.680   4.480   4.206  1.5242  0.0646  0.7313
   71SAPC    HB 6131   3.735   4.576   4.337 -0.4719  1.1016  0.1753
   71SAPC    C2 6132   3.535   4.635   4.271  0.1979 -0.1423 -0.0533
   71SAPC    HS 6133   3.547   4.740   4.304 -2.8288  0.4771 -0.6002
   71SAPC   O21 6134   3.450   4.544   4.350 -0.0779 -0.1534 -0.3459
   71SAPC   C21 6135   3.479   4.556   4.480  0.9470 -0.0670  0.6917
   71SAPC   O22 6136   3.553   4.630   4.534 -0.3119  0.0004 -0.5390
   71SAPC   C22 6137   3.383   4.462   4.555  0.2825  0.0933  0.5183
   71SAPC   H2R 6138   3.279   4.475   4.518  0.3658  0.5561  0.4364
   71SAPC   H2S 6139   3.410   4.365   4.509  1.3069  1.5754 -2.1876
   71SAPC    C3 6140   3.467   4.664   4.125 -0.5864  0.3035  0.2521
   71SAPC    HX 6141   3.467   4.575   4.059 -0.9356  1.3595 -1.2254
   71SAPC    HY 6142   3.526   4.749   4.084  1.9213 -0.8409  1.2888
   71SAPC   O31 6143   3.337   4.724   4.147 -0.0051  0.2261  0.0912
   71SAPC   C31 6144   3.235   4.640   4.133 -0.0213 -0.8901 -0.9870
   71SAPC   O32 6145   3.236   4.528   4.089  0.0635 -0.3999 -0.1876
   71SAPC   C32 6146   3.108   4.707   4.172 -0.5303 -0.0295  0.2218
   71SAPC   H2X 6147   3.031   4.650   4.116  0.1000 -0.0566 -0.6286
   71SAPC   H2Y 6148   3.103   4.809   4.128  1.0488 -0.8178 -1.9229
   71SAPC   C23 6149   3.384   4.473   4.713  0.0498 -0.5876 -0.0271
   71SAPC   H3R 6150   3.377   4.580   4.741 -0.7601 -0.5178 -0.4666
   71SAPC   H3S 6151   3.479   4.421   4.740  0.7413 -1.0634 -2.9379
   71SAPC   C24 6152   3.271   4.396   4.783  0.3180  0.4745  0.6133
   71SAPC   H4R 6153   3.295   4.392   4.891  0.0998  2.0272  0.7447
   71SAPC   H4S 6154   3.273   4.294   4.739 -2.7457  0.7829 -0.4461
   71SAPC   C25 6155   3.140   4.465   4.769 -0.0247  0.2862  0.8260
   71SAPC   H5R 6156   3.101   4.457   4.667  1.4955  0.9002  0.1675
   71SAPC   C26 6157   3.069   4.537   4.855  0.1075 -0.8399 -0.5702
   71SAPC   H6R 6158   2.982   4.588   4.812  1.3795  1.5994 -0.4507
   71SAPC   C27 6159   3.111   4.581   4.995 -0.0191 -0.2595 -0.1780
   71SAPC   H7R 6160   3.218   4.611   4.985 -0.4443  1.4416  0.0024
   71SAPC   H7S 6161   3.113   4.488   5.055  0.9266 -2.3312 -3.1909
   71SAPC   C28 6162   3.040   4.689   5.073  0.0515  0.3890 -0.8593
   71SAPC   H8R 6163   3.066   4.792   5.043  0.5242  0.2907 -0.7840
   71SAPC   C29 6164   2.949   4.658   5.170  0.1883  0.3421 -0.1409
   71SAPC   H9R 6165   2.902   4.745   5.217 -0.6113 -0.2828  0.2551
   71SAPC  C210 6166   2.914   4.524   5.227  0.4691 -0.3025  0.5276
   71SAPC  H10R 6167   3.003   4.496   5.288  1.4265 -0.5052 -0.9039
   71SAPC  H10S 6168   2.923   4.443   5.151  0.3492 -0.8853  1.1168
   71SAPC  C211 6169   2.786   4.516   5.292  1.0249  0.4402 -0.7254
   71SAPC  H11R 6170   2.698   4.521   5.225  0.7613  0.9751 -0.3536
   71SAPC  C212 6171   2.762   4.507   5.431 -0.2542 -0.4516 -0.5421
   71SAPC  H12R 6172   2.657   4.507   5.466 -0.3184  0.0664 -0.7153
   71SAPC  C213 6173   2.856   4.495   5.547  0.2120 -0.3763  0.6520
   71SAPC  H13R 6174   2.957   4.506   5.502 -0.5851 -1.7898 -1.6901
   71SAPC  H13S 6175   2.856   4.388   5.578 -0.4468 -0.2288  1.1662
   71SAPC  C214 6176   2.826   4.590   5.659 -0.3947 -0.3293  0.7496
   71SAPC  H14R 6177   2.792   4.688   5.621 -0.4414 -1.5291 -2.7365
   71SAPC  C215 6178   2.832   4.567   5.789  0.6210  0.3604 -0.3669
   71SAPC  H15R 6179   2.809   4.647   5.861  1.3724 -0.0587  0.3571
   71SAPC  C216 6180   2.893   4.436   5.840  0.9817 -0.3552  0.0058
   71SAPC  H16R 6181   2.841   4.349   5.797  0.9083 -0.8769  1.1116
   71SAPC  H16S 6182   2.861   4.412   5.944  0.3193 -0.6137 -0.2556
   71SAPC  C217 6183   3.042   4.424   5.830  0.2469 -0.6457 -0.0496
   71SAPC  H17R 6184   3.083   4.520   5.870  0.6079 -0.5303 -0.6806
   71SAPC  H17S 6185   3.077   4.401   5.727  2.0937  1.4215  0.0427
   71SAPC  C218 6186   3.117   4.321   5.918  0.2698 -0.0463  0.2239
   71SAPC  H18R 6187   3.217   4.303   5.874  1.1429  1.5996  1.4436
   71SAPC  H18S 6188   3.058   4.228   5.905  0.0376 -0.2729  2.4759
   71SAPC  C219 6189   3.126   4.368   6.064 -0.0272 -0.6353  0.7442
   71SAPC  H19R 6190   3.024   4.404   6.090 -0.8022 -2.9348  1.1338
   71SAPC  H19S 6191   3.183   4.463   6.068 -1.6191  0.5009 -1.5299
   71SAPC  C220 6192   3.180   4.262   6.156 -0.4890 -0.5121  0.2041
   71SAPC  H20R 6193   3.289   4.246   6.141 -0.4934 -2.0656  1.5859
   71SAPC  H20S 6194   3.137   4.163   6.131 -0.4815 -0.4898  0.0993
   71SAPC  H20T 6195   3.177   4.293   6.263  1.2565  0.5828 -0.0139
   71SAPC   C33 6196   3.089   4.709   4.321 -0.9657  0.2653  0.0342
   71SAPC   H3X 6197   3.091   4.606   4.363 -0.2626 -0.9843 -2.8174
   71SAPC   H3Y 6198   2.986   4.738   4.350 -2.1127 -3.9307  0.7963
   71SAPC   C34 6199   3.186   4.795   4.410 -0.3453  0.0137  0.1086
   71SAPC   H4X 6200   3.188   4.897   4.365 -1.5619 -0.0108 -0.0363
   71SAPC   H4Y 6201   3.282   4.740   4.403 -0.7408 -0.7706  0.7712
   71SAPC   C35 6202   3.146   4.798   4.566 -0.4832  0.4623 -0.0103
   71SAPC   H5X 6203   3.110   4.697   4.596  0.3232  0.0002 -0.5710
   71SAPC   H5Y 6204   3.056   4.862   4.580 -2.4520 -2.6508  2.9988
   71SAPC   C36 6205   3.256   4.861   4.655 -0.0290 -0.1898 -0.7508
   71SAPC   H6X 6206   3.277   4.960   4.610  0.2993  1.0229  1.9320
   71SAPC   H6Y 6207   3.349   4.800   4.662 -0.6188 -0.8838  2.2855
   71SAPC   C37 6208   3.203   4.895   4.796 -0.7671  0.6022 -0.1684
   71SAPC   H7X 6209   3.138   4.815   4.839  1.5325 -0.3470  1.7979
   71SAPC   H7Y 6210   3.146   4.990   4.797 -0.5774  0.9343  4.7628
   71SAPC   C38 6211   3.323   4.936   4.884 -0.4026 -0.1474 -0.3957
   71SAPC   H8X 6212   3.386   5.007   4.827  0.7554 -1.4679 -0.8017
   71SAPC   H8Y 6213   3.398   4.859   4.913 -0.0908  0.3105  0.0226
   71SAPC   C39 6214   3.274   5.010   5.011  0.1958  0.3164 -0.0045
   71SAPC   H9X 6215   3.208   4.948   5.074  2.5044 -2.7624 -0.3859
   71SAPC   H9Y 6216   3.216   5.097   4.973 -0.1040  0.2253  0.2435
   71SAPC  C310 6217   3.395   5.058   5.090 -0.1397 -0.1876 -1.0854
   71SAPC  H10X 6218   3.461   5.127   5.033  2.2277 -2.5912 -1.4472
   71SAPC  H10Y 6219   3.451   4.970   5.127 -0.9577 -0.8866 -1.4802
   71SAPC  C311 6220   3.359   5.136   5.226 -0.2896  1.0839 -0.1676
   71SAPC  H11X 6221   3.313   5.060   5.293  0.5818 -0.1392 -0.9119
   71SAPC  H11Y 6222   3.292   5.223   5.209 -1.1397  0.1381 -1.8518
   71SAPC  C312 6223   3.490   5.174   5.294  0.7883 -0.8107  0.2434
   71SAPC  H12X 6224   3.462   5.276   5.331 -1.3253 -0.5060 -1.9311
   71SAPC  H12Y 6225   3.572   5.185   5.221  1.0573 -2.0288  0.3487
   71SAPC  C313 6226   3.534   5.091   5.415 -0.4882  0.3827 -0.0632
   71SAPC  H13X 6227   3.565   4.994   5.370  1.1415  0.2617  1.2296
   71SAPC  H13Y 6228   3.442   5.063   5.472 -0.7498 -2.1233 -1.5552
   71SAPC  C314 6229   3.637   5.153   5.505  0.2357  1.1039 -0.5485
   71SAPC  H14X 6230   3.603   5.251   5.545  1.0105  1.2091 -0.1432
   71SAPC  H14Y 6231   3.731   5.171   5.450  0.9812 -1.5494 -0.3090
   71SAPC  C315 6232   3.686   5.057   5.614  0.1873  0.8572  0.3528
   71SAPC  H15X 6233   3.774   5.107   5.659  0.4785  0.1252  0.6157
   71SAPC  H15Y 6234   3.712   4.956   5.578 -0.8599  1.0322 -0.9804
   71SAPC  C316 6235   3.582   5.032   5.726  0.2095  0.6528 -0.5780
   71SAPC  H16X 6236   3.482   5.010   5.684 -0.2296 -0.3201  0.9170
   71SAPC  H16Y 6237   3.566   5.133   5.770 -0.1021  0.9758 -1.4083
   71SAPC  C317 6238   3.618   4.918   5.828  0.3191  0.2681  0.2648
   71SAPC  H17X 6239   3.612   4.818   5.779 -0.3941  0.2277  0.4286
   71SAPC  H17Y 6240   3.540   4.911   5.907 -0.0210  0.2862 -0.0652
   71SAPC  C318 6241   3.751   4.950   5.891  0.3143  0.6565  0.2302
   71SAPC  H18X 6242   3.843   4.928   5.833 -0.0283  0.0680 -0.0980
   71SAPC  H18Y 6243   3.765   4.886   5.981 -1.4371 -0.8695 -0.5300
   71SAPC  H18Z 6244   3.752   5.056   5.923 -2.0090  0.8161 -0.0360
   72SAPC     N 6245   2.915   3.385   3.797  0.3940 -0.5463  0.1602
   72SAPC   C12 6246   3.050   3.314   3.787  0.1301 -0.2775 -0.3721
   72SAPC  H12A 6247   3.044   3.220   3.839  0.3148  0.3576  0.8391
   72SAPC  H12B 6248   3.122   3.378   3.835  0.6034 -0.3247 -1.0133
   72SAPC   C13 6249   2.803   3.297   3.746 -0.2802  0.0337  0.5498
   72SAPC  H13A 6250   2.709   3.350   3.754  0.2087  1.1408 -0.5664
   72SAPC  H13B 6251   2.832   3.277   3.644 -1.2996  0.2459  0.2075
   72SAPC  H13C 6252   2.793   3.204   3.799 -0.1569  0.3192  1.0889
   72SAPC   C14 6253   2.880   3.433   3.937  0.1444  0.3006 -0.2287
   72SAPC  H14A 6254   2.801   3.506   3.933  1.2048  1.4352 -1.7330
   72SAPC  H14B 6255   2.844   3.354   4.001  0.1117 -0.5381 -1.2589
   72SAPC  H14C 6256   2.964   3.480   3.985  1.7231 -1.6773 -0.9110
   72SAPC   C15 6257   2.918   3.508   3.705  0.4842 -0.4078 -0.1025
   72SAPC  H15A 6258   2.925   3.469   3.604 -0.2678 -1.6915  0.3153
   72SAPC  H15B 6259   2.822   3.557   3.711  0.3385 -0.0434 -3.5322
   72SAPC  H15C 6260   3.002   3.571   3.730  0.7108 -1.1068  0.9912
   72SAPC   C11 6261   3.108   3.278   3.653 -0.1766 -0.2842 -0.0032
   72SAPC  H11A 6262   3.030   3.219   3.601 -1.6923 -0.2011  2.0381
   72SAPC  H11B 6263   3.191   3.205   3.670  1.7264  1.7529 -0.0610
   72SAPC     P 6264   3.282   3.475   3.602  0.3261 -0.2060  0.2955
   72SAPC   O13 6265   3.404   3.406   3.560  0.4692 -0.3703  0.3434
   72SAPC   O14 6266   3.272   3.614   3.547 -0.6284  0.2321 -0.5488
   72SAPC   O12 6267   3.152   3.390   3.570  0.0621 -0.6444 -0.0959
   72SAPC   O11 6268   3.285   3.480   3.763  0.0495 -0.1494  0.6501
   72SAPC    C1 6269   3.262   3.600   3.844 -0.1861 -0.6187  0.7373
   72SAPC    HA 6270   3.336   3.676   3.811 -2.3026  1.4659  0.5392
   72SAPC    HB 6271   3.158   3.637   3.834 -0.2819 -0.6954  1.4490
   72SAPC    C2 6272   3.271   3.567   3.996  0.0734 -1.0596 -0.1239
   72SAPC    HS 6273   3.377   3.540   4.012  1.0434  2.4519  0.3006
   72SAPC   O21 6274   3.181   3.462   4.034  0.2641  0.5673 -1.1558
   72SAPC   C21 6275   3.220   3.386   4.138 -0.1091 -0.1299  0.5544
   72SAPC   O22 6276   3.330   3.385   4.193 -0.1157 -0.2738 -0.3460
   72SAPC   C22 6277   3.101   3.293   4.170  1.1159  0.2205  0.5298
   72SAPC   H2R 6278   3.051   3.259   4.077  0.6108 -0.4690  1.0439
   72SAPC   H2S 6279   3.136   3.202   4.223 -1.4669 -1.1888 -0.0535
   72SAPC    C3 6280   3.235   3.706   4.072 -0.0925 -0.3099 -0.0020
   72SAPC    HX 6281   3.135   3.742   4.040 -0.5334 -2.2842 -1.0383
   72SAPC    HY 6282   3.308   3.782   4.036 -0.4546  0.8990  1.7138
   72SAPC   O31 6283   3.234   3.680   4.208 -0.3910 -0.7137 -0.5513
   72SAPC   C31 6284   3.346   3.709   4.274 -0.7726  0.1875 -0.1664
   72SAPC   O32 6285   3.453   3.733   4.223  0.5306  0.6530 -0.1910
   72SAPC   C32 6286   3.310   3.739   4.416  0.1378  0.3905 -0.1220
   72SAPC   H2X 6287   3.220   3.679   4.439  0.5807  0.2110  1.1737
   72SAPC   H2Y 6288   3.284   3.847   4.410 -0.3749  0.3002  0.3730
   72SAPC   C23 6289   2.998   3.374   4.259 -0.6171  0.3779  0.4444
   72SAPC   H3R 6290   2.906   3.315   4.277 -0.0766 -0.6753 -0.1600
   72SAPC   H3S 6291   2.961   3.469   4.213 -3.5659 -0.7000  0.4049
   72SAPC   C24 6292   3.058   3.404   4.399 -0.9935  0.6928  0.0006
   72SAPC   H4R 6293   3.152   3.462   4.386 -0.2630 -0.1200  1.3899
   72SAPC   H4S 6294   3.075   3.301   4.438  1.0461  0.2984 -1.7263
   72SAPC   C25 6295   2.958   3.488   4.475 -0.7692  1.3527 -0.3991
   72SAPC   H5R 6296   2.887   3.546   4.414 -3.0366 -3.2066 -2.5891
   72SAPC   C26 6297   2.953   3.477   4.612 -0.6602 -0.0456  0.0224
   72SAPC   H6R 6298   2.867   3.525   4.660 -1.5711 -1.7232  0.1379
   72SAPC   C27 6299   3.037   3.393   4.696  0.5012 -0.4522  0.8828
   72SAPC   H7R 6300   3.135   3.440   4.718  1.7625 -3.3160  1.9998
   72SAPC   H7S 6301   3.067   3.303   4.638 -1.4595  0.3583 -1.5156
   72SAPC   C28 6302   2.971   3.355   4.827 -0.3350 -0.2076 -0.1970
   72SAPC   H8R 6303   2.897   3.274   4.820  2.9764 -3.3954 -2.5809
   72SAPC   C29 6304   3.012   3.403   4.950 -0.5752  0.7515  0.1072
   72SAPC   H9R 6305   2.952   3.370   5.036 -1.1082  2.2647  0.3412
   72SAPC  C210 6306   3.126   3.493   4.992 -0.6889 -0.2380  0.0500
   72SAPC  H10R 6307   3.201   3.492   4.910 -0.1269 -0.4678  0.5585
   72SAPC  H10S 6308   3.181   3.444   5.075  2.8969  0.4987 -1.7130
   72SAPC  C211 6309   3.083   3.639   5.014 -0.0736  0.7594  0.2266
   72SAPC  H11R 6310   3.093   3.697   4.921 -1.9379  0.5221 -0.1606
   72SAPC  C212 6311   3.076   3.707   5.133 -0.0271 -0.3135 -1.0587
   72SAPC  H12R 6312   3.050   3.814   5.141  1.2384 -0.1696  2.8060
   72SAPC  C213 6313   3.087   3.641   5.265  0.1417  0.0492  0.1101
   72SAPC  H13R 6314   3.061   3.533   5.253  1.2010  0.1374 -4.7991
   72SAPC  H13S 6315   3.009   3.686   5.331  0.8651 -0.9348  1.7180
   72SAPC  C214 6316   3.211   3.670   5.339 -0.3629 -0.6728 -1.3135
   72SAPC  H14R 6317   3.293   3.726   5.293 -0.5177  0.5879 -0.1422
   72SAPC  C215 6318   3.219   3.654   5.476 -0.0652 -0.0226 -0.2280
   72SAPC  H15R 6319   3.306   3.696   5.528  0.4830 -0.3266 -0.8758
   72SAPC  C216 6320   3.116   3.590   5.566 -0.4576  0.3324  0.1495
   72SAPC  H16R 6321   3.020   3.574   5.511  0.8171  0.9089 -2.3601
   72SAPC  H16S 6322   3.104   3.665   5.647  1.2596  1.2337 -0.3947
   72SAPC  C217 6323   3.169   3.451   5.610  0.0503 -0.1344 -0.2752
   72SAPC  H17R 6324   3.167   3.380   5.524 -0.4642  0.4679 -0.7654
   72SAPC  H17S 6325   3.092   3.399   5.673  0.6968  0.9705  1.5084
   72SAPC  C218 6326   3.295   3.454   5.699 -0.4381 -0.8536  0.0274
   72SAPC  H18R 6327   3.376   3.510   5.648 -0.3252  0.3992  1.5210
   72SAPC  H18S 6328   3.334   3.350   5.701 -1.9669 -1.5108 -1.5821
   72SAPC  C219 6329   3.266   3.517   5.835  0.3275  0.7003 -0.7210
   72SAPC  H19R 6330   3.164   3.490   5.868  0.8897  1.1564  1.5431
   72SAPC  H19S 6331   3.279   3.627   5.832  2.7253  0.5101  0.4320
   72SAPC  C220 6332   3.369   3.474   5.946  0.5483  0.5403  1.0908
   72SAPC  H20R 6333   3.472   3.499   5.912  0.6638 -2.6965 -1.4159
   72SAPC  H20S 6334   3.367   3.363   5.956  0.8667  0.6452  2.4907
   72SAPC  H20T 6335   3.337   3.525   6.039  0.6514 -0.1609  1.5199
   72SAPC   C33 6336   3.414   3.704   4.515  0.3668  0.2123 -1.0779
   72SAPC   H3X 6337   3.515   3.747   4.495  1.2082 -0.8716  0.5393
   72SAPC   H3Y 6338   3.445   3.598   4.497  2.4862  0.9464 -2.1254
   72SAPC   C34 6339   3.374   3.751   4.651 -0.7956  0.1381 -1.2172
   72SAPC   H4X 6340   3.274   3.712   4.681 -0.9214  0.8553 -0.6785
   72SAPC   H4Y 6341   3.372   3.862   4.646  2.3024  0.3312 -0.1607
   72SAPC   C35 6342   3.488   3.716   4.757  0.4316  0.0997  0.2566
   72SAPC   H5X 6343   3.590   3.744   4.724  0.6706 -1.8878 -0.8703
   72SAPC   H5Y 6344   3.501   3.608   4.779  1.7360  0.1021 -0.4226
   72SAPC   C36 6345   3.456   3.770   4.900  0.2307  0.4428 -0.3297
   72SAPC   H6X 6346   3.355   3.729   4.924 -0.0219  1.5592  0.5765
   72SAPC   H6Y 6347   3.443   3.880   4.897 -0.3251  0.4177  0.6239
   72SAPC   C37 6348   3.566   3.737   5.001  0.0721  0.6286 -0.2778
   72SAPC   H7X 6349   3.664   3.785   4.978  0.1577  2.5798  3.4346
   72SAPC   H7Y 6350   3.590   3.628   5.008  1.0635  0.9243  1.9431
   72SAPC   C38 6351   3.530   3.780   5.142 -0.1671  0.4230 -0.1863
   72SAPC   H8X 6352   3.428   3.747   5.169  0.8375 -0.5578  2.8876
   72SAPC   H8Y 6353   3.536   3.890   5.149  0.4281  0.3242  1.0333
   72SAPC   C39 6354   3.627   3.727   5.250  0.0082  0.7364  0.5667
   72SAPC   H9X 6355   3.734   3.744   5.226  0.8215 -1.8850  2.0205
   72SAPC   H9Y 6356   3.608   3.618   5.250 -3.0178  1.1595 -0.0401
   72SAPC  C310 6357   3.579   3.778   5.383  0.5662  0.6559  0.2313
   72SAPC  H10X 6358   3.491   3.713   5.406  0.6318  0.5641  0.2242
   72SAPC  H10Y 6359   3.548   3.884   5.392 -1.9926 -0.1349  1.6992
   72SAPC  C311 6360   3.679   3.741   5.498 -0.4173 -0.6850  0.7821
   72SAPC  H11X 6361   3.766   3.808   5.485 -0.5059 -0.8899 -1.1845
   72SAPC  H11Y 6362   3.712   3.639   5.468 -0.0870 -0.0668 -1.0119
   72SAPC  C312 6363   3.620   3.730   5.636  0.3027  0.3720  0.5543
   72SAPC  H12X 6364   3.703   3.685   5.696 -0.8664 -0.5438  1.5379
   72SAPC  H12Y 6365   3.531   3.664   5.638  1.2308 -0.9391  0.4844
   72SAPC  C313 6366   3.577   3.862   5.708  0.0206 -0.3073  0.3873
   72SAPC  H13X 6367   3.489   3.904   5.656  0.0055  0.2084  0.8185
   72SAPC  H13Y 6368   3.668   3.925   5.718  0.3858 -0.3429 -2.1308
   72SAPC  C314 6369   3.523   3.837   5.849  0.7222  1.1419  0.1711
   72SAPC  H14X 6370   3.613   3.801   5.903  0.6922 -0.1500 -0.6244
   72SAPC  H14Y 6371   3.453   3.751   5.845  2.4090 -0.5260  3.0989
   72SAPC  C315 6372   3.475   3.957   5.933 -0.2358 -0.0234  0.5149
   72SAPC  H15X 6373   3.547   4.042   5.935  1.3637 -1.2691 -0.9452
   72SAPC  H15Y 6374   3.457   3.917   6.035  0.2460  2.0864  1.4908
   72SAPC  C316 6375   3.337   4.010   5.879 -0.2361  0.2373  0.0679
   72SAPC  H16X 6376   3.360   4.036   5.774  3.2492  0.9487  0.8755
   72SAPC  H16Y 6377   3.297   4.094   5.939  1.1735  3.1160 -2.7857
   72SAPC  C317 6378   3.222   3.908   5.886  0.0534  0.5674  0.1242
   72SAPC  H17X 6379   3.230   3.828   5.809 -2.0943 -1.1368  1.5460
   72SAPC  H17Y 6380   3.130   3.960   5.852 -0.8759 -1.4526 -0.5523
   72SAPC  C318 6381   3.200   3.856   6.019  0.0870 -0.4188 -0.4443
   72SAPC  H18X 6382   3.178   3.936   6.093 -0.9200 -0.8353 -0.2761
   72SAPC  H18Y 6383   3.291   3.804   6.057 -1.6634 -4.2512 -1.0415
   72SAPC  H18Z 6384   3.119   3.783   6.000 -1.7839  1.5278 -0.2910
   73SLPC     N 6385   5.963   2.130   8.441 -1.0638  0.2578 -0.5007
   73SLPC   C13 6386   6.107   2.073   8.422  0.6209  0.2926 -0.1547
   73SLPC  H13A 6387   6.092   1.966   8.424 -1.6605  0.5841  1.4317
   73SLPC  H13B 6388   6.160   2.100   8.332  1.9971 -0.3015  0.4462
   73SLPC  H13C 6389   6.170   2.105   8.504 -0.1420  1.8937 -0.1694
   73SLPC   C14 6390   5.978   2.271   8.472  0.8358  0.5476  0.1032
   73SLPC  H14A 6391   6.048   2.327   8.412  1.5599  2.8792  2.8525
   73SLPC  H14B 6392   5.881   2.319   8.478  0.0985 -0.8152 -0.3949
   73SLPC  H14C 6393   6.024   2.287   8.569  3.7567 -0.7084 -0.9702
   73SLPC   C15 6394   5.895   2.053   8.553  0.2633  0.4328  0.5888
   73SLPC  H15A 6395   5.884   1.947   8.534  1.6580  0.6062 -1.4861
   73SLPC  H15B 6396   5.953   2.057   8.644  0.2712 -0.5157  0.6298
   73SLPC  H15C 6397   5.796   2.092   8.572 -0.3513 -1.0156  0.4403
   73SLPC   C12 6398   5.888   2.115   8.312  0.2663  0.0996  0.3144
   73SLPC  H12A 6399   5.785   2.145   8.316  0.6942  1.7057 -0.1604
   73SLPC  H12B 6400   5.890   2.011   8.282 -1.5866 -0.3543  1.6141
   73SLPC   C11 6401   5.951   2.180   8.183 -0.4887 -0.1645  0.1086
   73SLPC  H11A 6402   5.950   2.291   8.193 -4.1986  0.1622 -2.0302
   73SLPC  H11B 6403   5.882   2.161   8.098 -0.2596 -1.3113  0.1690
   73SLPC     P 6404   6.098   2.004   8.038  0.2694  0.4473  0.4570
   73SLPC   O13 6405   6.237   1.984   8.000 -0.0727 -0.0287 -0.4497
   73SLPC   O14 6406   6.016   1.888   8.070  0.7610 -0.3201  0.2297
   73SLPC   O12 6407   6.083   2.127   8.150  0.0451  0.1397  0.3693
   73SLPC   O11 6408   6.027   2.083   7.921  0.4301 -0.2364 -0.2971
   73SLPC    C1 6409   6.087   2.204   7.869  0.2376  0.0570 -0.1044
   73SLPC    HA 6410   6.009   2.283   7.865  0.9927  0.7965 -0.3733
   73SLPC    HB 6411   6.173   2.244   7.927 -0.6005  1.6915  0.0934
   73SLPC    C2 6412   6.136   2.193   7.720 -0.0522 -0.1837 -0.4902
   73SLPC    HS 6413   6.048   2.149   7.670  1.3251 -2.3110 -1.2008
   73SLPC   O21 6414   6.255   2.116   7.715  0.9719  0.0055 -0.1369
   73SLPC   C21 6415   6.244   2.012   7.640  0.0960 -0.0155 -0.7316
   73SLPC   O22 6416   6.151   1.978   7.572  0.5074  0.2225 -0.0863
   73SLPC   C22 6417   6.380   1.947   7.620  0.1619  0.1569  0.3276
   73SLPC   H2R 6418   6.453   1.998   7.687 -0.2406  0.5752  0.4521
   73SLPC   H2S 6419   6.365   1.846   7.663  0.5369 -0.8878 -1.8450
   73SLPC    C3 6420   6.165   2.347   7.666 -0.2415  0.2740  0.1365
   73SLPC    HX 6421   6.237   2.396   7.736 -1.0722  0.0844  1.1487
   73SLPC    HY 6422   6.074   2.410   7.664 -0.1178  0.6227  2.5027
   73SLPC   O31 6423   6.235   2.333   7.538  0.1121 -0.0103 -0.0765
   73SLPC   C31 6424   6.150   2.331   7.437 -0.4045 -0.3082  0.0428
   73SLPC   O32 6425   6.027   2.344   7.441  0.2890  0.3778  0.2864
   73SLPC   C32 6426   6.233   2.360   7.307  0.1752  0.6082 -0.4079
   73SLPC   H2X 6427   6.295   2.268   7.293 -0.2965  0.0695  0.8593
   73SLPC   H2Y 6428   6.304   2.443   7.327 -0.9126  1.4735 -0.0321
   73SLPC   C23 6429   6.424   1.937   7.470  0.7167 -0.0494 -0.0289
   73SLPC   H3R 6430   6.336   1.937   7.403  2.0609 -0.7356 -1.8944
   73SLPC   H3S 6431   6.482   1.843   7.457  2.2518  0.6752  1.1563
   73SLPC   C24 6432   6.516   2.048   7.433 -0.1150 -0.1121  0.5843
   73SLPC   H4R 6433   6.599   2.062   7.506  1.6619  0.7814 -1.4600
   73SLPC   H4S 6434   6.458   2.143   7.432 -1.3568 -0.8493  1.0763
   73SLPC   C25 6435   6.566   2.054   7.288  0.4546 -0.1186  0.1288
   73SLPC   H5R 6436   6.474   2.047   7.226 -0.7830  2.0680  1.5555
   73SLPC   H5S 6437   6.605   1.954   7.261  1.7384  0.5381 -0.5374
   73SLPC   C26 6438   6.666   2.168   7.244  0.2954  0.2230  0.3921
   73SLPC   H6R 6439   6.757   2.179   7.306 -0.6513 -1.1953  2.1475
   73SLPC   H6S 6440   6.606   2.262   7.243 -2.4587 -1.3028  3.2374
   73SLPC   C27 6441   6.705   2.137   7.099 -0.5270  0.7950  0.1053
   73SLPC   H7R 6442   6.751   2.036   7.100 -1.8381  0.1796  0.9460
   73SLPC   H7S 6443   6.784   2.209   7.068 -0.4397  0.5979 -0.1376
   73SLPC   C28 6444   6.588   2.147   6.992 -0.1682 -0.3170 -0.1058
   73SLPC   H8R 6445   6.548   2.250   7.003 -0.3792 -0.5452  1.4679
   73SLPC   H8S 6446   6.503   2.080   7.017 -1.0234  1.5664  2.6225
   73SLPC   C29 6447   6.658   2.121   6.866  0.4146 -0.4113  0.0429
   73SLPC   H9R 6448   6.713   2.026   6.863  0.7650 -0.1932 -0.4758
   73SLPC  C210 6449   6.643   2.189   6.749  0.3329 -0.3514  0.0278
   73SLPC  H10R 6450   6.700   2.160   6.659  1.5469  0.4547  0.5089
   73SLPC  C211 6451   6.544   2.301   6.725 -0.5013  0.7338 -0.4038
   73SLPC  H11R 6452   6.492   2.314   6.822  0.7185 -0.5659  0.4743
   73SLPC  H11S 6453   6.467   2.273   6.650 -0.5220 -1.9247  0.4996
   73SLPC  C212 6454   6.611   2.428   6.686 -0.3475  0.1366 -0.6823
   73SLPC  H12R 6455   6.634   2.495   6.770 -0.6979  1.2187 -1.4317
   73SLPC  C213 6456   6.638   2.482   6.565  0.4098  0.1054  0.6145
   73SLPC  H13R 6457   6.687   2.580   6.550  0.9198 -0.2090  0.1504
   73SLPC  C214 6458   6.607   2.421   6.434 -0.1096 -0.3359 -0.2195
   73SLPC  H14R 6459   6.542   2.331   6.439 -2.4376  1.2523  4.3551
   73SLPC  H14S 6460   6.698   2.400   6.374 -0.4106  1.8074 -1.5625
   73SLPC  C215 6461   6.532   2.536   6.355  0.8566  0.5640 -0.8726
   73SLPC  H15R 6462   6.604   2.620   6.344  1.0378  0.7090  0.9769
   73SLPC  H15S 6463   6.446   2.575   6.414  1.0338  2.1440 -1.5950
   73SLPC  C216 6464   6.467   2.495   6.225 -0.2201 -0.0171 -0.0517
   73SLPC  H16R 6465   6.389   2.418   6.243  0.5075 -0.6859  0.3270
   73SLPC  H16S 6466   6.542   2.444   6.161  0.2395 -2.9079  2.5328
   73SLPC  C217 6467   6.405   2.621   6.155 -0.0019 -0.5440  0.1609
   73SLPC  H17R 6468   6.487   2.695   6.160  1.6021 -2.1168 -1.3428
   73SLPC  H17S 6469   6.322   2.656   6.221  0.4913 -2.5411  1.9570
   73SLPC  C218 6470   6.371   2.597   6.002 -0.0040  0.3244 -0.4791
   73SLPC  H18R 6471   6.313   2.503   5.999 -2.8804  1.9448  0.5926
   73SLPC  H18S 6472   6.474   2.590   5.959 -0.4907  1.6478 -1.9631
   73SLPC  H18T 6473   6.318   2.685   5.961 -1.2409 -0.7713 -1.2786
   73SLPC   C33 6474   6.144   2.374   7.177 -0.3808 -0.4724 -0.5418
   73SLPC   H3X 6475   6.108   2.478   7.165 -0.9193 -0.5518  0.2952
   73SLPC   H3Y 6476   6.053   2.312   7.194 -0.6228  0.3936  1.7832
   73SLPC   C34 6477   6.213   2.308   7.056  0.7869 -0.1012 -0.3986
   73SLPC   H4X 6478   6.233   2.200   7.070 -1.4721 -0.3255  1.7772
   73SLPC   H4Y 6479   6.307   2.362   7.033  0.5155  0.6408  0.1887
   73SLPC   C35 6480   6.135   2.318   6.920 -0.0776  0.3080  0.3682
   73SLPC   H5X 6481   6.116   2.425   6.899  0.9292  0.9754  2.5422
   73SLPC   H5Y 6482   6.041   2.259   6.928  0.7274 -1.1359 -0.4066
   73SLPC   C36 6483   6.204   2.269   6.790  0.3496 -0.2603  0.0669
   73SLPC   H6X 6484   6.276   2.186   6.804  0.4710 -0.3673 -1.1565
   73SLPC   H6Y 6485   6.256   2.350   6.736 -0.1230 -1.1431 -1.7706
   73SLPC   C37 6486   6.095   2.225   6.690 -0.3069  0.1578  0.1087
   73SLPC   H7X 6487   5.992   2.266   6.700  0.0133  0.8411  0.6993
   73SLPC   H7Y 6488   6.086   2.116   6.708 -0.9828  0.1397 -0.3045
   73SLPC   C38 6489   6.126   2.247   6.537  0.0010  0.4034 -0.3431
   73SLPC   H8X 6490   6.218   2.192   6.506 -1.2575 -1.6513 -0.6410
   73SLPC   H8Y 6491   6.147   2.355   6.521  2.1533 -0.2171 -2.2862
   73SLPC   C39 6492   6.001   2.226   6.454 -0.4681  0.2733 -0.1814
   73SLPC   H9X 6493   5.918   2.298   6.471 -2.1970 -2.0904  2.3696
   73SLPC   H9Y 6494   5.959   2.126   6.478 -0.7894  0.6772  1.0264
   73SLPC  C310 6495   6.030   2.233   6.301 -0.5097  0.1587  0.1054
   73SLPC  H10X 6496   6.113   2.161   6.286  0.8831  1.2176  2.3308
   73SLPC  H10Y 6497   6.064   2.335   6.274 -1.7559  0.3696 -0.7762
   73SLPC  C311 6498   5.916   2.181   6.216 -0.0551  0.4989  0.7813
   73SLPC  H11X 6499   5.835   2.257   6.227 -0.8141  0.0387 -1.2770
   73SLPC  H11Y 6500   5.880   2.091   6.271 -0.0648  1.6754  2.8233
   73SLPC  C312 6501   5.957   2.168   6.067 -0.3631  0.2260 -0.5159
   73SLPC  H12X 6502   6.030   2.085   6.074  0.0139  0.6781  1.3917
   73SLPC  H12Y 6503   6.025   2.252   6.044  2.9887 -2.4235 -1.0043
   73SLPC  C313 6504   5.841   2.129   5.978 -0.4357  0.0707  0.7347
   73SLPC  H13X 6505   5.871   2.138   5.872  0.0866  0.3341  0.9007
   73SLPC  H13Y 6506   5.758   2.200   6.001  0.5993  0.9530  1.8516
   73SLPC  C314 6507   5.786   1.994   5.997 -0.6766 -0.6391 -0.1162
   73SLPC  H14X 6508   5.688   1.980   5.946 -0.1451  0.3855 -1.4754
   73SLPC  H14Y 6509   5.767   1.987   6.106 -1.3122  1.6709 -0.0258
   73SLPC  C315 6510   5.878   1.883   5.957 -0.0027  0.2866 -0.3494
   73SLPC  H15X 6511   5.965   1.910   5.894 -0.6482 -2.5757 -2.7351
   73SLPC  H15Y 6512   5.810   1.811   5.906 -2.1209  2.8213 -1.3168
   73SLPC  C316 6513   5.942   1.803   6.068 -0.6263  0.3163  0.6294
   73SLPC  H16X 6514   5.982   1.874   6.143 -1.1646  0.6607  0.5918
   73SLPC  H16Y 6515   6.020   1.739   6.020  1.2720  1.7536  1.6529
   73SLPC  C317 6516   5.847   1.696   6.128 -0.3482 -0.0547  0.9559
   73SLPC  H17X 6517   5.796   1.635   6.051  2.1929 -1.0306 -0.0792
   73SLPC  H17Y 6518   5.762   1.754   6.171 -3.2388 -1.7875 -1.9793
   73SLPC  C318 6519   5.909   1.594   6.219 -0.6675  0.9518 -0.3958
   73SLPC  H18X 6520   5.963   1.646   6.301  2.2265  1.4197 -2.4555
   73SLPC  H18Y 6521   5.987   1.539   6.162 -1.0004  1.4849 -1.3901
   73SLPC  H18Z 6522   5.838   1.512   6.245 -1.0694  1.2580 -0.5146
   74SLPC     N 6523   5.236   0.176   8.690  0.0335  0.5374  0.7060
   74SLPC   C13 6524   5.224   0.030   8.722 -0.1745 -0.9649  0.3790
   74SLPC  H13A 6525   5.128   0.012   8.768 -0.1281 -3.0141 -0.2145
   74SLPC  H13B 6526   5.226  -0.033   8.634  0.2797 -0.2138 -0.1603
   74SLPC  H13C 6527   5.307  -0.004   8.782  0.0089  1.0657  1.3394
   74SLPC   C14 6528   5.383   0.216   8.665 -0.1022  0.3840  0.0793
   74SLPC  H14A 6529   5.391   0.315   8.622  0.0253  0.7535  0.9446
   74SLPC  H14B 6530   5.435   0.212   8.759 -0.3011 -0.6513  0.1573
   74SLPC  H14C 6531   5.428   0.147   8.595  0.6346 -1.3849  2.1784
   74SLPC   C15 6532   5.186   0.252   8.805 -0.6751 -0.0150  0.1571
   74SLPC  H15A 6533   5.216   0.211   8.901 -1.7451 -2.3902 -0.4529
   74SLPC  H15B 6534   5.209   0.356   8.789  0.1886  0.2087  2.4774
   74SLPC  H15C 6535   5.078   0.256   8.816 -0.5488  0.4475  1.4488
   74SLPC   C12 6536   5.148   0.224   8.574  0.3530 -0.3937  0.0628
   74SLPC  H12A 6537   5.140   0.331   8.559 -2.5854 -0.8685 -3.2331
   74SLPC  H12B 6538   5.044   0.199   8.593 -0.0230 -1.2263 -2.6852
   74SLPC   C11 6539   5.188   0.166   8.433 -0.2703  0.7503 -0.1852
   74SLPC  H11A 6540   5.292   0.202   8.418 -0.3105  1.9453  1.9762
   74SLPC  H11B 6541   5.135   0.228   8.357  1.0907  2.1974 -0.0307
   74SLPC     P 6542   5.024  -0.024   8.411  0.3625 -0.0935  0.0386
   74SLPC   O13 6543   5.013  -0.144   8.501  0.2545 -0.0793  0.2986
   74SLPC   O14 6544   4.939   0.095   8.441 -0.3021  0.7279  0.2481
   74SLPC   O12 6545   5.176   0.030   8.412  0.0797  0.1630 -0.4553
   74SLPC   O11 6546   5.007  -0.072   8.261 -0.1125 -0.0679 -0.4393
   74SLPC    C1 6547   5.069  -0.189   8.211 -0.1554 -0.2506 -0.2866
   74SLPC    HA 6548   5.066  -0.272   8.284 -0.2408  0.3465  0.3982
   74SLPC    HB 6549   5.013  -0.226   8.122  1.7166  0.2131 -1.7086
   74SLPC    C2 6550   5.225  -0.163   8.173 -0.6351 -0.5487  0.7046
   74SLPC    HS 6551   5.275  -0.120   8.263 -0.4981 -0.7027  0.7027
   74SLPC   O21 6552   5.222  -0.071   8.061  0.0494  0.0495 -0.0830
   74SLPC   C21 6553   5.341  -0.005   8.036 -0.1161 -0.5919 -0.2064
   74SLPC   O22 6554   5.435  -0.015   8.109 -1.0483  0.1191 -0.2740
   74SLPC   C22 6555   5.318   0.086   7.908 -0.3834  0.2878  0.3236
   74SLPC   H2R 6556   5.263   0.178   7.937 -1.5103 -0.4976  0.7898
   74SLPC   H2S 6557   5.419   0.105   7.868  0.1004 -1.4542  0.6174
   74SLPC    C3 6558   5.300  -0.299   8.149  0.5867  0.3892  0.4010
   74SLPC    HX 6559   5.285  -0.364   8.237  2.2438 -0.7469 -0.1134
   74SLPC    HY 6560   5.409  -0.281   8.139  0.2526  1.4270 -3.0228
   74SLPC   O31 6561   5.250  -0.372   8.034  0.3515 -0.2091  0.0729
   74SLPC   C31 6562   5.312  -0.341   7.916  0.1863  0.3115  0.8883
   74SLPC   O32 6563   5.420  -0.290   7.906  0.1791 -0.4787 -0.2570
   74SLPC   C32 6564   5.229  -0.390   7.795 -0.4383 -0.5692 -0.2301
   74SLPC   H2X 6565   5.133  -0.335   7.808  0.4438  0.4469  3.1345
   74SLPC   H2Y 6566   5.205  -0.498   7.804  3.6035 -1.6641 -0.7742
   74SLPC   C23 6567   5.235   0.020   7.797 -0.1481 -0.0525 -0.0948
   74SLPC   H3R 6568   5.160  -0.039   7.853  1.9362 -1.2288  1.6102
   74SLPC   H3S 6569   5.299  -0.058   7.752 -0.9698 -0.1429 -1.1409
   74SLPC   C24 6570   5.178   0.127   7.703  0.0132  0.1233 -0.5975
   74SLPC   H4R 6571   5.257   0.203   7.685  0.0080 -0.0686 -1.4965
   74SLPC   H4S 6572   5.101   0.184   7.759 -1.0734 -0.7656 -1.1427
   74SLPC   C25 6573   5.111   0.073   7.573  0.3022 -0.4333 -0.5674
   74SLPC   H5R 6574   5.012   0.031   7.600  0.9969 -1.2697  0.7630
   74SLPC   H5S 6575   5.168  -0.015   7.538  0.3234 -0.6328 -0.0460
   74SLPC   C26 6576   5.103   0.175   7.464 -0.0817 -0.2984 -0.0895
   74SLPC   H6R 6577   5.204   0.220   7.451  0.1070 -0.3103  1.2258
   74SLPC   H6S 6578   5.045   0.262   7.501  1.6760  1.5539 -1.4694
   74SLPC   C27 6579   5.047   0.121   7.338  0.0443  0.2925 -0.0244
   74SLPC   H7R 6580   4.956   0.061   7.357  0.2466 -0.3017 -0.9071
   74SLPC   H7S 6581   5.122   0.059   7.284  2.0774  1.9041  0.7663
   74SLPC   C28 6582   4.998   0.238   7.250  0.3654  0.6524  0.7602
   74SLPC   H8R 6583   4.952   0.317   7.313 -3.0746 -1.0135  0.5471
   74SLPC   H8S 6584   4.912   0.214   7.184  1.4591 -0.6382 -0.2618
   74SLPC   C29 6585   5.113   0.300   7.181 -0.4198  0.3742 -0.3833
   74SLPC   H9R 6586   5.177   0.353   7.254 -0.3651 -2.1760  1.6106
   74SLPC  C210 6587   5.129   0.305   7.050  0.6362  0.4489  0.2020
   74SLPC  H10R 6588   5.229   0.322   7.006  1.0185 -2.9972 -0.5121
   74SLPC  C211 6589   5.017   0.266   6.953  0.4900 -0.6596  0.3214
   74SLPC  H11R 6590   4.999   0.158   6.973  0.0996 -0.7749 -0.6031
   74SLPC  H11S 6591   5.068   0.269   6.855 -0.6643  0.6619 -0.2719
   74SLPC  C212 6592   4.898   0.356   6.956 -0.1818  0.7127 -0.4674
   74SLPC  H12R 6593   4.844   0.353   7.052  0.3548  3.3537  0.0099
   74SLPC  C213 6594   4.858   0.443   6.861  0.3285 -0.1342 -0.1372
   74SLPC  H13R 6595   4.770   0.508   6.877  0.8851  0.9383 -1.2956
   74SLPC  C214 6596   4.911   0.453   6.715  0.9448  0.3462 -0.2364
   74SLPC  H14R 6597   4.981   0.369   6.695  1.2701  0.5786 -0.0762
   74SLPC  H14S 6598   4.962   0.550   6.697 -0.6096  0.8964 -1.9762
   74SLPC  C215 6599   4.800   0.420   6.612  0.2179 -0.0641 -0.1979
   74SLPC  H15R 6600   4.856   0.399   6.519 -0.8377 -0.9103 -0.6678
   74SLPC  H15S 6601   4.732   0.508   6.599  0.7911  0.4778  0.3997
   74SLPC  C216 6602   4.720   0.295   6.657  0.1571 -0.4825  0.3119
   74SLPC  H16R 6603   4.641   0.321   6.731 -0.1743 -0.2796 -0.1157
   74SLPC  H16S 6604   4.797   0.224   6.694  1.3559  0.7773  0.3424
   74SLPC  C217 6605   4.662   0.222   6.540  1.0151  0.6984  0.3768
   74SLPC  H17R 6606   4.647   0.119   6.579  0.5573  0.8714  0.6707
   74SLPC  H17S 6607   4.718   0.216   6.445 -2.0128  1.2611 -1.5986
   74SLPC  C218 6608   4.522   0.277   6.495 -0.9314  0.3503 -0.5994
   74SLPC  H18R 6609   4.529   0.387   6.476  0.9403  0.4786  0.5885
   74SLPC  H18S 6610   4.447   0.258   6.575 -0.6334 -0.9018 -0.6032
   74SLPC  H18T 6611   4.489   0.223   6.404 -3.6647 -0.5371  0.8129
   74SLPC   C33 6612   5.271  -0.346   7.652 -0.1134 -0.0725 -0.2686
   74SLPC   H3X 6613   5.258  -0.237   7.638  0.5339  0.0126 -0.2666
   74SLPC   H3Y 6614   5.198  -0.393   7.582 -0.2497 -0.7712  0.3198
   74SLPC   C34 6615   5.412  -0.395   7.617 -0.1096 -0.2845  0.4563
   74SLPC   H4X 6616   5.450  -0.468   7.692  1.2612  0.7251  0.7829
   74SLPC   H4Y 6617   5.490  -0.316   7.611 -0.9837  0.4860 -1.7433
   74SLPC   C35 6618   5.418  -0.473   7.475  0.0836  0.3039  0.1072
   74SLPC   H5X 6619   5.335  -0.546   7.467 -0.1937  0.7263 -1.1795
   74SLPC   H5Y 6620   5.515  -0.526   7.467  0.8110  1.6135 -0.1817
   74SLPC   C36 6621   5.407  -0.377   7.362  0.1086 -0.2822 -0.3434
   74SLPC   H6X 6622   5.505  -0.325   7.355  0.2558 -0.7327 -2.2841
   74SLPC   H6Y 6623   5.324  -0.306   7.376  2.2676  2.4372 -0.3876
   74SLPC   C37 6624   5.396  -0.456   7.233  0.6887  0.4799  0.7919
   74SLPC   H7X 6625   5.289  -0.480   7.216  1.5589 -2.1837 -1.6110
   74SLPC   H7Y 6626   5.457  -0.549   7.226 -0.9359 -0.6253  0.8983
   74SLPC   C38 6627   5.415  -0.355   7.112  0.4833  0.1438 -0.3494
   74SLPC   H8X 6628   5.513  -0.303   7.121  1.1328 -1.2164  0.7829
   74SLPC   H8Y 6629   5.336  -0.281   7.137 -2.5072 -2.6462 -0.7968
   74SLPC   C39 6630   5.401  -0.425   6.981 -0.0435 -0.1157  0.9220
   74SLPC   H9X 6631   5.294  -0.453   6.967 -0.3576  1.3659  0.0901
   74SLPC   H9Y 6632   5.462  -0.516   6.994  0.1672 -0.2834 -1.0438
   74SLPC  C310 6633   5.438  -0.349   6.859  0.9106 -0.2841  0.7014
   74SLPC  H10X 6634   5.543  -0.312   6.867  1.3964 -1.6300  0.6959
   74SLPC  H10Y 6635   5.362  -0.268   6.854 -1.7878 -2.6116  1.5961
   74SLPC  C311 6636   5.427  -0.418   6.724 -0.1178  0.5414 -0.4891
   74SLPC  H11X 6637   5.323  -0.458   6.716 -0.5021  1.3644  0.1274
   74SLPC  H11Y 6638   5.504  -0.494   6.705 -1.8263 -0.3951 -5.0084
   74SLPC  C312 6639   5.439  -0.304   6.622  0.2901 -0.0085 -0.3192
   74SLPC  H12X 6640   5.538  -0.255   6.631  0.4511 -0.2696 -0.6159
   74SLPC  H12Y 6641   5.372  -0.220   6.650  1.6383  0.9099  0.1895
   74SLPC  C313 6642   5.407  -0.349   6.478 -0.1692 -0.1568  0.8223
   74SLPC  H13X 6643   5.401  -0.261   6.410 -1.4882 -1.6923 -1.1584
   74SLPC  H13Y 6644   5.309  -0.400   6.468  0.3537 -0.8831 -1.0135
   74SLPC  C314 6645   5.528  -0.437   6.421  0.6142 -0.7209 -0.4890
   74SLPC  H14X 6646   5.529  -0.534   6.476 -2.1792 -0.3513  0.4067
   74SLPC  H14Y 6647   5.623  -0.382   6.435  0.6790 -0.7983 -0.6272
   74SLPC  C315 6648   5.519  -0.471   6.274  1.0316  0.3138  0.3572
   74SLPC  H15X 6649   5.486  -0.382   6.216  1.4742  1.0667  1.2283
   74SLPC  H15Y 6650   5.446  -0.552   6.254  2.8471 -1.5639  0.9742
   74SLPC  C316 6651   5.660  -0.516   6.221 -0.8591 -0.2521 -0.3928
   74SLPC  H16X 6652   5.686  -0.611   6.274 -1.1318 -0.6110 -0.8942
   74SLPC  H16Y 6653   5.743  -0.447   6.248  0.6558 -2.7104  1.6773
   74SLPC  C317 6654   5.658  -0.553   6.079  0.5588 -0.3579  0.7580
   74SLPC  H17X 6655   5.623  -0.468   6.016 -1.5369 -1.2729  0.6046
   74SLPC  H17Y 6656   5.577  -0.624   6.053 -0.5855  1.2609 -0.3084
   74SLPC  C318 6657   5.784  -0.608   6.011  0.3307  0.4914 -0.0578
   74SLPC  H18X 6658   5.819  -0.693   6.074  0.9761 -0.3092 -1.4453
   74SLPC  H18Y 6659   5.864  -0.531   6.013 -0.2047  1.1160 -1.3438
   74SLPC  H18Z 6660   5.768  -0.645   5.907 -0.9389 -1.0930  0.6630
   75SLPC     N 6661   1.692   2.046   8.729 -0.6936 -0.0140  0.3765
   75SLPC   C13 6662   1.760   1.921   8.765 -0.2618  0.8720  0.3600
   75SLPC  H13A 6663   1.823   1.880   8.687 -2.2716 -3.1920  0.5959
   75SLPC  H13B 6664   1.820   1.929   8.854 -0.2728 -0.3814  0.5077
   75SLPC  H13C 6665   1.686   1.845   8.788  0.8934 -1.2689 -2.4583
   75SLPC   C14 6666   1.798   2.147   8.680  0.4706  0.0812  0.0677
   75SLPC  H14A 6667   1.757   2.247   8.673 -0.1966 -0.2725 -1.7923
   75SLPC  H14B 6668   1.880   2.145   8.750  0.6395  0.5572 -0.1092
   75SLPC  H14C 6669   1.839   2.115   8.585 -1.0875  0.5548 -0.8023
   75SLPC   C15 6670   1.636   2.101   8.855 -0.0571 -0.1058 -0.2384
   75SLPC  H15A 6671   1.554   2.036   8.883 -0.2275  1.2212  2.7220
   75SLPC  H15B 6672   1.706   2.109   8.936  0.1205 -1.5912 -0.2124
   75SLPC  H15C 6673   1.596   2.198   8.828 -1.8104 -1.2485 -2.1051
   75SLPC   C12 6674   1.588   2.027   8.620 -1.5502 -0.4309 -0.1555
   75SLPC  H12A 6675   1.532   2.119   8.613 -0.0927  0.6911  1.9590
   75SLPC  H12B 6676   1.523   1.947   8.653 -0.0624 -1.4672  0.3855
   75SLPC   C11 6677   1.642   1.999   8.482 -0.4030 -0.4570 -0.0150
   75SLPC  H11A 6678   1.716   2.077   8.453 -0.1972 -0.5529  0.2437
   75SLPC  H11B 6679   1.560   2.019   8.411  1.1763  0.8404 -1.5741
   75SLPC     P 6680   1.617   1.741   8.478  0.1984  0.2375 -0.5473
   75SLPC   O13 6681   1.612   1.683   8.613 -0.1873 -0.4021  0.0949
   75SLPC   O14 6682   1.486   1.765   8.419 -0.5338 -0.1365  0.1164
   75SLPC   O12 6683   1.704   1.871   8.470  0.0172  0.2800 -0.0388
   75SLPC   O11 6684   1.695   1.634   8.395 -0.6239  0.2798  0.5610
   75SLPC    C1 6685   1.780   1.671   8.280 -0.3319 -0.8116 -0.0250
   75SLPC    HA 6686   1.726   1.722   8.197  0.0974  1.2581  0.8894
   75SLPC    HB 6687   1.855   1.748   8.308  0.5838 -0.5792 -2.8096
   75SLPC    C2 6688   1.852   1.549   8.226 -0.0460  0.6198  0.5853
   75SLPC    HS 6689   1.923   1.514   8.304  1.0609  0.0851 -0.6253
   75SLPC   O21 6690   1.918   1.584   8.104 -0.2711 -0.6556 -0.2272
   75SLPC   C21 6691   2.027   1.514   8.078  0.0038  0.2197 -0.0473
   75SLPC   O22 6692   2.078   1.433   8.152  0.1962  0.6404  0.3908
   75SLPC   C22 6693   2.088   1.552   7.946 -0.4449 -0.5293  0.4178
   75SLPC   H2R 6694   2.098   1.663   7.941  5.7973 -0.8192 -3.1511
   75SLPC   H2S 6695   2.191   1.513   7.959  0.4351  1.8663  1.2535
   75SLPC    C3 6696   1.752   1.432   8.205  0.0350  0.2642 -1.1852
   75SLPC    HX 6697   1.696   1.418   8.300  1.2427  0.3875 -0.4318
   75SLPC    HY 6698   1.802   1.340   8.168  1.3477  0.4961 -0.0807
   75SLPC   O31 6699   1.650   1.457   8.108 -0.4505 -0.7142 -0.1453
   75SLPC   C31 6700   1.559   1.353   8.086  0.0641  0.6720  0.2633
   75SLPC   O32 6701   1.558   1.242   8.144 -0.1456 -0.1501 -0.2762
   75SLPC   C32 6702   1.458   1.400   7.984 -0.2927  0.0907  0.3330
   75SLPC   H2X 6703   1.368   1.436   8.039 -1.2457 -1.6389 -0.0374
   75SLPC   H2Y 6704   1.439   1.310   7.922  1.5762  0.0662 -0.2521
   75SLPC   C23 6705   2.011   1.482   7.827  0.8307 -0.3720 -0.0762
   75SLPC   H3R 6706   1.902   1.486   7.846  0.9366  0.6667  0.3922
   75SLPC   H3S 6707   2.045   1.377   7.832  2.2362  0.1206  1.7459
   75SLPC   C24 6708   2.025   1.534   7.678 -0.2889 -1.3114  0.1225
   75SLPC   H4R 6709   2.038   1.644   7.680 -2.2139 -1.0356 -0.1823
   75SLPC   H4S 6710   1.939   1.498   7.618 -0.4620  0.9580 -1.0751
   75SLPC   C25 6711   2.148   1.470   7.611 -0.8146  0.4420  0.1153
   75SLPC   H5R 6712   2.123   1.362   7.615  0.7457  0.0391 -0.1312
   75SLPC   H5S 6713   2.247   1.496   7.655 -0.3140 -1.6989  0.3765
   75SLPC   C26 6714   2.168   1.489   7.461  0.0131 -0.4553  0.0464
   75SLPC   H6R 6715   2.249   1.426   7.418 -0.3998  0.2678 -1.9013
   75SLPC   H6S 6716   2.186   1.596   7.439 -3.5002 -0.0918 -1.9699
   75SLPC   C27 6717   2.055   1.466   7.359  0.1739  0.2618 -0.5355
   75SLPC   H7R 6718   1.963   1.519   7.391  0.6331  1.2245 -0.7617
   75SLPC   H7S 6719   2.039   1.356   7.364  0.5026  0.2045 -0.6789
   75SLPC   C28 6720   2.090   1.509   7.215  0.5359 -0.7111  0.2195
   75SLPC   H8R 6721   2.170   1.445   7.171  0.3674  0.5493 -2.0783
   75SLPC   H8S 6722   2.128   1.613   7.211  0.6498 -0.7832 -1.7674
   75SLPC   C29 6723   1.970   1.507   7.127 -0.0950 -0.0239 -0.2274
   75SLPC   H9R 6724   1.900   1.424   7.142  0.7386 -1.0612 -1.8637
   75SLPC  C210 6725   1.941   1.604   7.039  0.1969  0.4197  1.0464
   75SLPC  H10R 6726   1.843   1.602   6.989  1.0278  2.7987 -0.8261
   75SLPC  C211 6727   2.014   1.733   7.007 -0.0888  0.0636 -0.0679
   75SLPC  H11R 6728   2.122   1.710   6.992 -0.9242 -3.3788 -1.7659
   75SLPC  H11S 6729   2.020   1.797   7.098 -1.4085 -0.6038  0.5174
   75SLPC  C212 6730   1.965   1.802   6.893  0.0039 -0.1861  0.3796
   75SLPC  H12R 6731   1.885   1.877   6.904  0.8987  0.9858 -0.7795
   75SLPC  C213 6732   1.992   1.774   6.765 -1.0836 -0.9705 -0.4993
   75SLPC  H13R 6733   1.934   1.830   6.691  0.7321  2.3620  0.3926
   75SLPC  C214 6734   2.085   1.675   6.712 -0.8044  0.4176  0.1733
   75SLPC  H14R 6735   2.045   1.651   6.611 -0.9583  1.4092 -0.0072
   75SLPC  H14S 6736   2.092   1.582   6.774  0.7560  1.5049  1.7519
   75SLPC  C215 6737   2.232   1.716   6.690 -0.9977  0.2394  0.2282
   75SLPC  H15R 6738   2.302   1.633   6.668  0.6196  1.7625 -0.6678
   75SLPC  H15S 6739   2.278   1.750   6.785 -0.1509 -1.5899  0.5227
   75SLPC  C216 6740   2.248   1.819   6.582 -0.3873 -0.2730 -0.0044
   75SLPC  H16R 6741   2.191   1.908   6.616 -0.3095 -0.3462  0.3233
   75SLPC  H16S 6742   2.192   1.785   6.493  0.2835 -1.6337  0.0711
   75SLPC  C217 6743   2.389   1.869   6.543 -0.8462 -0.3958 -0.2262
   75SLPC  H17R 6744   2.430   1.919   6.633  0.3788  0.4712 -1.2353
   75SLPC  H17S 6745   2.397   1.942   6.459  0.4269  0.2796  0.4645
   75SLPC  C218 6746   2.489   1.758   6.510 -0.4726  1.0343  1.2385
   75SLPC  H18R 6747   2.592   1.796   6.492 -0.7655  1.5856  0.6585
   75SLPC  H18S 6748   2.469   1.698   6.419 -1.7271  1.8191  0.9639
   75SLPC  H18T 6749   2.493   1.685   6.593 -0.4643  0.9524  1.1664
   75SLPC   C33 6750   1.500   1.521   7.907  0.8797 -0.1105  0.0074
   75SLPC   H3X 6751   1.610   1.510   7.901  1.1745  0.2458  3.0179
   75SLPC   H3Y 6752   1.502   1.618   7.962 -0.6040  0.8299 -1.4991
   75SLPC   C34 6753   1.434   1.534   7.775  0.7767  0.7921  0.0614
   75SLPC   H4X 6754   1.449   1.444   7.711  1.1025  2.3156 -2.1014
   75SLPC   H4Y 6755   1.478   1.620   7.720  0.3147 -0.1729 -1.9224
   75SLPC   C35 6756   1.282   1.557   7.790 -0.6657  0.0230 -0.4557
   75SLPC   H5X 6757   1.267   1.635   7.868 -2.2507 -0.6829  0.0023
   75SLPC   H5Y 6758   1.245   1.459   7.825 -1.9285  0.4846 -0.4375
   75SLPC   C36 6759   1.210   1.592   7.664 -0.2928 -0.0882 -0.0636
   75SLPC   H6X 6760   1.104   1.563   7.680 -0.0252 -0.9341  0.1752
   75SLPC   H6Y 6761   1.254   1.552   7.570  0.5289  0.6441 -0.0097
   75SLPC   C37 6762   1.215   1.744   7.623  0.4880 -0.3945 -0.9047
   75SLPC   H7X 6763   1.318   1.785   7.617  0.1656  0.5115 -0.3948
   75SLPC   H7Y 6764   1.153   1.807   7.691  2.2833  0.5319 -0.0778
   75SLPC   C38 6765   1.150   1.747   7.483  0.1769 -0.2076  0.2201
   75SLPC   H8X 6766   1.044   1.713   7.484  0.7015 -1.9814 -0.1005
   75SLPC   H8Y 6767   1.206   1.679   7.414 -0.9333 -1.3643  0.4164
   75SLPC   C39 6768   1.146   1.890   7.435 -0.5099  0.6706  0.5083
   75SLPC   H9X 6769   1.252   1.922   7.427 -0.5198  0.6701  0.3668
   75SLPC   H9Y 6770   1.096   1.958   7.508 -0.6828 -0.0729  1.0954
   75SLPC  C310 6771   1.071   1.918   7.301 -0.1239  0.2452 -0.3171
   75SLPC  H10X 6772   0.965   1.883   7.297  0.3816 -1.2961 -0.7097
   75SLPC  H10Y 6773   1.120   1.847   7.232  0.6392 -0.7805  1.2375
   75SLPC  C311 6774   1.092   2.060   7.256  0.1202 -1.0441  0.0810
   75SLPC  H11X 6775   1.198   2.081   7.281  0.5711 -4.0876  1.0975
   75SLPC  H11Y 6776   1.016   2.129   7.299 -0.7390 -1.0672 -1.3263
   75SLPC  C312 6777   1.059   2.076   7.105  0.5463  0.1234  0.1200
   75SLPC  H12X 6778   0.954   2.039   7.102  1.7911 -4.1788  2.1713
   75SLPC  H12Y 6779   1.140   2.020   7.054  2.2269  1.8654  0.7552
   75SLPC  C313 6780   1.075   2.231   7.069 -0.0714 -0.2210  0.3272
   75SLPC  H13X 6781   1.180   2.262   7.086 -0.6044  1.2972  0.9607
   75SLPC  H13Y 6782   1.009   2.294   7.132 -1.2978 -0.4420 -0.6779
   75SLPC  C314 6783   1.051   2.265   6.920  0.1480  0.7515  0.2174
   75SLPC  H14X 6784   1.108   2.359   6.903  3.3033 -1.4473 -2.5357
   75SLPC  H14Y 6785   0.943   2.278   6.900 -0.4096 -0.6546  2.1060
   75SLPC  C315 6786   1.111   2.163   6.820  0.2896  0.7343  0.0536
   75SLPC  H15X 6787   1.058   2.066   6.832 -0.6167  1.3781  1.4779
   75SLPC  H15Y 6788   1.218   2.146   6.842  0.5811  1.2353 -0.9098
   75SLPC  C316 6789   1.101   2.210   6.680  0.2506 -0.1264 -0.4208
   75SLPC  H16X 6790   1.170   2.295   6.662  2.2513 -1.5724  0.1026
   75SLPC  H16Y 6791   1.003   2.261   6.668 -0.0091 -0.4125  0.4164
   75SLPC  C317 6792   1.125   2.097   6.581  0.3139 -0.9998  0.1307
   75SLPC  H17X 6793   1.137   2.004   6.641 -0.3990  0.2911  2.3638
   75SLPC  H17Y 6794   1.214   2.130   6.524  0.8356 -2.6695 -0.0857
   75SLPC  C318 6795   1.018   2.090   6.472  0.1887  0.2029 -0.1000
   75SLPC  H18X 6796   0.916   2.072   6.512  0.1502  0.5090 -0.0563
   75SLPC  H18Y 6797   1.037   2.008   6.400 -0.9284 -0.4550  0.3331
   75SLPC  H18Z 6798   1.015   2.187   6.418  2.8209 -0.2833 -1.2848
   76SLPC     N 6799   0.261   6.776   8.406  0.7256  0.4630 -0.7895
   76SLPC   C13 6800   0.378   6.775   8.498 -0.3947 -0.2554 -0.2974
   76SLPC  H13A 6801   0.434   6.864   8.473 -2.8566  1.0965 -1.4400
   76SLPC  H13B 6802   0.358   6.786   8.603  0.4798  1.3085 -0.2553
   76SLPC  H13C 6803   0.441   6.687   8.494  1.7636  0.9973  2.4990
   76SLPC   C14 6804   0.160   6.881   8.441  0.0342  0.4053  0.1329
   76SLPC  H14A 6805   0.212   6.972   8.466 -1.6213  1.1907  0.8577
   76SLPC  H14B 6806   0.085   6.899   8.365 -0.0052  0.3297  0.1540
   76SLPC  H14C 6807   0.100   6.851   8.526 -1.0865 -2.6581 -1.5687
   76SLPC   C15 6808   0.203   6.641   8.430 -0.0146  1.0146 -0.1466
   76SLPC  H15A 6809   0.165   6.627   8.530  2.8550 -0.1147  0.9063
   76SLPC  H15B 6810   0.119   6.615   8.367 -0.6224  1.2124  0.5610
   76SLPC  H15C 6811   0.280   6.566   8.421 -1.0796 -0.4932  2.1993
   76SLPC   C12 6812   0.298   6.784   8.258 -0.3510  0.2397 -0.4638
   76SLPC  H12A 6813   0.215   6.765   8.191 -0.1046 -1.5117 -0.3038
   76SLPC  H12B 6814   0.364   6.701   8.237 -0.6046  0.2012 -1.1352
   76SLPC   C11 6815   0.372   6.920   8.224  0.5943  0.3104  0.3117
   76SLPC  H11A 6816   0.298   7.003   8.230 -0.2103 -0.3332 -0.4129
   76SLPC  H11B 6817   0.396   6.903   8.117  1.3393  1.0106  0.3607
   76SLPC     P 6818   0.636   6.918   8.264 -0.1680 -0.2463  0.0993
   76SLPC   O13 6819   0.726   6.991   8.361  0.1486  0.6254 -0.2541
   76SLPC   O14 6820   0.652   6.776   8.245  0.4398  0.1272  0.0901
   76SLPC   O12 6821   0.488   6.950   8.305  0.3989 -0.2145 -0.1269
   76SLPC   O11 6822   0.656   6.984   8.114 -0.5203 -0.0820 -0.4937
   76SLPC    C1 6823   0.644   7.126   8.101  0.4521 -0.4113 -0.4026
   76SLPC    HA 6824   0.543   7.154   8.062 -0.3892 -2.5084  0.1158
   76SLPC    HB 6825   0.647   7.170   8.203 -4.1878 -1.0082  0.2132
   76SLPC    C2 6826   0.753   7.194   8.015 -0.2049  0.2371 -0.1491
   76SLPC    HS 6827   0.752   7.305   8.020 -1.3808  0.2229  0.2320
   76SLPC   O21 6828   0.741   7.151   7.881  0.7766  0.3219  0.3918
   76SLPC   C21 6829   0.647   7.210   7.808 -0.3100  0.9701 -0.3165
   76SLPC   O22 6830   0.571   7.290   7.863  0.2108 -0.1835  0.3881
   76SLPC   C22 6831   0.645   7.153   7.662  0.4423 -0.0754 -0.9315
   76SLPC   H2R 6832   0.541   7.117   7.651  0.1506  0.0569  0.9604
   76SLPC   H2S 6833   0.661   7.237   7.591  1.8188 -1.9190 -2.9065
   76SLPC    C3 6834   0.900   7.151   8.047  0.5266 -0.6179  0.0214
   76SLPC    HX 6835   0.901   7.043   8.023 -1.6190 -0.9959  1.3288
   76SLPC    HY 6836   0.907   7.150   8.158 -1.0464  0.3959  0.1524
   76SLPC   O31 6837   0.990   7.239   7.978  0.6141 -0.2734 -0.0775
   76SLPC   C31 6838   1.101   7.163   7.954 -0.4820  0.3026  0.3623
   76SLPC   O32 6839   1.115   7.046   7.973 -0.2714  0.0301 -0.4160
   76SLPC   C32 6840   1.212   7.251   7.907  0.5709 -0.6375  0.2042
   76SLPC   H2X 6841   1.296   7.242   7.979  0.8198 -2.4527 -0.2662
   76SLPC   H2Y 6842   1.186   7.359   7.903  1.6323 -0.3983 -0.8993
   76SLPC   C23 6843   0.738   7.029   7.634 -0.3979  0.3247 -0.2305
   76SLPC   H3R 6844   0.726   6.948   7.709 -0.2693 -0.2220 -0.7894
   76SLPC   H3S 6845   0.846   7.055   7.637 -0.0116 -1.0369  3.5356
   76SLPC   C24 6846   0.717   6.972   7.494  1.0385  0.0117  0.5475
   76SLPC   H4R 6847   0.760   7.046   7.424  1.1755  0.8524  1.4894
   76SLPC   H4S 6848   0.607   6.962   7.476  1.1705  1.5431 -1.4081
   76SLPC   C25 6849   0.789   6.835   7.475 -0.1660 -0.3995 -0.1535
   76SLPC   H5R 6850   0.750   6.768   7.553  1.6172  0.1604  1.2845
   76SLPC   H5S 6851   0.895   6.849   7.506  0.0711  0.9424 -1.4281
   76SLPC   C26 6852   0.790   6.775   7.336 -0.6857 -0.6483  0.0799
   76SLPC   H6R 6853   0.838   6.674   7.342 -1.0347 -0.7491  1.7810
   76SLPC   H6S 6854   0.865   6.844   7.292  0.8002  0.0666  3.4221
   76SLPC   C27 6855   0.660   6.780   7.266 -0.2392 -0.7511 -0.6126
   76SLPC   H7R 6856   0.614   6.881   7.258  1.3882 -0.0825 -2.0960
   76SLPC   H7S 6857   0.589   6.718   7.325  1.1684 -1.7224  0.1126
   76SLPC   C28 6858   0.648   6.714   7.130  0.0104 -0.2640 -0.5934
   76SLPC   H8R 6859   0.539   6.713   7.110 -0.0547 -1.6079 -0.3151
   76SLPC   H8S 6860   0.678   6.608   7.144  2.3628  0.5546  1.2131
   76SLPC   C29 6861   0.722   6.789   7.016  0.7840 -0.5063 -0.2257
   76SLPC   H9R 6862   0.801   6.856   7.052 -0.5493  0.7429  0.4770
   76SLPC  C210 6863   0.705   6.770   6.885 -0.4452  0.0102 -0.1523
   76SLPC  H10R 6864   0.758   6.829   6.809 -0.5867  1.1124  0.5828
   76SLPC  C211 6865   0.604   6.672   6.829  0.4132 -0.3430 -0.5438
   76SLPC  H11R 6866   0.528   6.666   6.910  1.1629  3.2843  0.5699
   76SLPC  H11S 6867   0.635   6.567   6.807  1.3384 -0.1551 -0.1937
   76SLPC  C212 6868   0.529   6.716   6.709  0.3546  0.2800  0.1516
   76SLPC  H12R 6869   0.429   6.760   6.722  1.3077  1.9087  2.7742
   76SLPC  C213 6870   0.572   6.714   6.580  0.2911  0.5358  0.0897
   76SLPC  H13R 6871   0.499   6.738   6.501  1.1531  0.2075 -0.8217
   76SLPC  C214 6872   0.711   6.658   6.534  0.5105  0.4281 -0.1407
   76SLPC  H14R 6873   0.783   6.650   6.618 -1.4937  1.7258  1.8063
   76SLPC  H14S 6874   0.762   6.741   6.479 -0.0536 -0.1791 -1.6296
   76SLPC  C215 6875   0.712   6.532   6.453 -0.0853 -0.4894 -0.0442
   76SLPC  H15R 6876   0.633   6.464   6.491 -1.0882  0.2948 -0.6591
   76SLPC  H15S 6877   0.800   6.470   6.479  0.2318  0.9029  2.5344
   76SLPC  C216 6878   0.700   6.546   6.303  0.0788  0.1744 -0.5584
   76SLPC  H16R 6879   0.704   6.441   6.268  0.6151 -0.0668  0.2001
   76SLPC  H16S 6880   0.785   6.603   6.260  0.5138  1.7773  2.2141
   76SLPC  C217 6881   0.575   6.626   6.267 -1.1244 -0.5832  0.7218
   76SLPC  H17R 6882   0.602   6.733   6.279 -0.1729 -0.8149  0.6991
   76SLPC  H17S 6883   0.496   6.583   6.331 -0.2665 -0.3887  1.9384
   76SLPC  C218 6884   0.545   6.631   6.115  0.5572 -0.1562  0.2479
   76SLPC  H18R 6885   0.607   6.703   6.057  1.3146  1.2919  2.7139
   76SLPC  H18S 6886   0.445   6.677   6.099  1.1988  0.4529 -2.5019
   76SLPC  H18T 6887   0.555   6.528   6.076 -1.0148 -0.5012  0.6928
   76SLPC   C33 6888   1.258   7.201   7.767  0.1818  0.7430  0.4626
   76SLPC   H3X 6889   1.303   7.101   7.785 -0.5861  0.2910 -0.0678
   76SLPC   H3Y 6890   1.345   7.254   7.722  0.8006 -1.0483 -0.5384
   76SLPC   C34 6891   1.149   7.206   7.666  0.2383  0.4918  0.0848
   76SLPC   H4X 6892   1.122   7.313   7.649 -2.1822 -0.2490 -1.2516
   76SLPC   H4Y 6893   1.058   7.155   7.702  1.8253 -0.2886  3.4019
   76SLPC   C35 6894   1.187   7.150   7.525  0.1205  0.7890  0.0956
   76SLPC   H5X 6895   1.207   7.042   7.535 -0.5419  0.4434 -1.8984
   76SLPC   H5Y 6896   1.277   7.204   7.487 -0.1928 -0.7867 -3.2899
   76SLPC   C36 6897   1.075   7.165   7.420  0.4279  0.0917  0.0641
   76SLPC   H6X 6898   1.061   7.275   7.415  2.0063  0.2736 -3.3006
   76SLPC   H6Y 6899   0.981   7.121   7.459  0.6009 -2.0285 -1.7082
   76SLPC   C37 6900   1.109   7.108   7.281  0.8000 -0.9833 -0.2518
   76SLPC   H7X 6901   1.198   7.166   7.251 -0.5348  1.1221 -0.3756
   76SLPC   H7Y 6902   1.029   7.133   7.207  2.0015 -0.2073 -1.3260
   76SLPC   C38 6903   1.140   6.962   7.283  1.0249  0.1133  0.2613
   76SLPC   H8X 6904   1.058   6.914   7.341  1.9859  0.0689  1.6618
   76SLPC   H8Y 6905   1.223   6.919   7.343  0.8094  0.5008  0.8506
   76SLPC   C39 6906   1.147   6.910   7.139  0.6475  0.2125 -0.3933
   76SLPC   H9X 6907   1.244   6.945   7.097  0.0484  1.7213 -0.5823
   76SLPC   H9Y 6908   1.061   6.944   7.077 -0.0892 -1.2354 -0.1979
   76SLPC  C310 6909   1.148   6.755   7.128  0.1708  0.0105  0.1829
   76SLPC  H10X 6910   1.052   6.717   7.170 -0.2575 -0.7260 -1.3789
   76SLPC  H10Y 6911   1.243   6.726   7.176  1.4017  1.3561 -1.2994
   76SLPC  C311 6912   1.159   6.711   6.978  0.0488  0.2242 -0.7700
   76SLPC  H11X 6913   1.085   6.766   6.915  0.3161 -0.5953 -1.8444
   76SLPC  H11Y 6914   1.140   6.602   6.968  0.1977  0.1225  0.0460
   76SLPC  C312 6915   1.294   6.724   6.914  0.3301 -0.3389 -0.6096
   76SLPC  H12X 6916   1.375   6.660   6.957  1.4350  2.1553  1.2705
   76SLPC  H12Y 6917   1.339   6.822   6.938 -3.0854  1.2757 -0.3196
   76SLPC  C313 6918   1.286   6.723   6.763 -0.2227 -0.4581 -0.4605
   76SLPC  H13X 6919   1.228   6.811   6.727 -0.3586  0.2534  1.3887
   76SLPC  H13Y 6920   1.229   6.634   6.730 -0.7938 -0.7481  1.1905
   76SLPC  C314 6921   1.419   6.713   6.695  0.1856  0.1800 -0.4066
   76SLPC  H14X 6922   1.471   6.627   6.742  0.4016  0.4477 -0.1575
   76SLPC  H14Y 6923   1.476   6.808   6.705  1.0243 -0.3339 -0.3024
   76SLPC  C315 6924   1.406   6.680   6.545  0.5503 -0.3522 -0.4868
   76SLPC  H15X 6925   1.330   6.745   6.495  0.2678 -1.1915 -1.1659
   76SLPC  H15Y 6926   1.361   6.579   6.535  3.1717 -1.7709  1.0407
   76SLPC  C316 6927   1.538   6.660   6.473 -0.3852 -0.4634  0.7138
   76SLPC  H16X 6928   1.594   6.582   6.528  2.1517  0.8643  0.1617
   76SLPC  H16Y 6929   1.608   6.746   6.477  1.8615 -2.1680 -0.2014
   76SLPC  C317 6930   1.513   6.610   6.332  0.5569  0.2992  0.2053
   76SLPC  H17X 6931   1.432   6.678   6.298 -1.3966 -1.3576  1.2846
   76SLPC  H17Y 6932   1.471   6.507   6.337 -1.4128  1.0828  0.9255
   76SLPC  C318 6933   1.627   6.630   6.227  0.2765  0.5313 -0.4635
   76SLPC  H18X 6934   1.589   6.600   6.127 -0.1929  0.0933 -0.1613
   76SLPC  H18Y 6935   1.708   6.558   6.251 -0.0183 -0.2880 -1.8202
   76SLPC  H18Z 6936   1.660   6.736   6.229  2.3643 -0.0900  1.1911
   77SLPC     N 6937   2.764   6.320   8.656 -1.1313  0.0037 -0.0522
   77SLPC   C13 6938   2.619   6.349   8.638  0.7164 -0.0881  0.3813
   77SLPC  H13A 6939   2.587   6.360   8.535  0.7635 -0.8429  0.2768
   77SLPC  H13B 6940   2.556   6.277   8.688  0.3688  0.8629  1.3470
   77SLPC  H13C 6941   2.596   6.442   8.688  0.2626  0.3251 -0.5744
   77SLPC   C14 6942   2.795   6.190   8.590 -0.4014 -0.7590  0.2372
   77SLPC  H14A 6943   2.764   6.194   8.486 -2.8966  1.0915  0.9548
   77SLPC  H14B 6944   2.898   6.159   8.599 -0.5056 -1.1000  0.2793
   77SLPC  H14C 6945   2.728   6.116   8.632 -3.7746  0.5373 -2.3868
   77SLPC   C15 6946   2.789   6.314   8.802 -0.7619 -0.2033  0.4832
   77SLPC  H15A 6947   2.716   6.252   8.853  2.1914 -1.8232  3.0935
   77SLPC  H15B 6948   2.885   6.278   8.835 -0.5696 -1.2821 -1.1404
   77SLPC  H15C 6949   2.779   6.413   8.843  2.8250 -0.1633  1.5607
   77SLPC   C12 6950   2.851   6.431   8.596  0.5886  0.1020  0.2937
   77SLPC  H12A 6951   2.845   6.431   8.488  2.5797 -2.3859  0.0919
   77SLPC  H12B 6952   2.954   6.403   8.609  0.6770 -1.6234 -3.1042
   77SLPC   C11 6953   2.829   6.579   8.651 -0.1349 -0.8022  0.5986
   77SLPC  H11A 6954   2.720   6.600   8.640 -0.3994 -2.6598 -0.8875
   77SLPC  H11B 6955   2.881   6.647   8.581 -2.8624 -1.2127 -2.0483
   77SLPC     P 6956   3.016   6.583   8.837  0.1257 -0.1681  0.2393
   77SLPC   O13 6957   3.049   6.710   8.905  0.4005  0.3063  0.3942
   77SLPC   O14 6958   3.048   6.463   8.916  0.3669 -0.7038 -0.0637
   77SLPC   O12 6959   2.866   6.586   8.786 -0.0674  0.3842  0.1027
   77SLPC   O11 6960   3.098   6.586   8.702 -0.0060 -0.3952 -0.0005
   77SLPC    C1 6961   3.145   6.708   8.645 -1.0813 -0.0344 -0.1520
   77SLPC    HA 6962   3.107   6.705   8.541 -1.3296 -0.5635 -0.0496
   77SLPC    HB 6963   3.100   6.800   8.689 -1.6133  1.1123 -2.8825
   77SLPC    C2 6964   3.297   6.716   8.636 -0.2571 -0.5429 -0.0078
   77SLPC    HS 6965   3.345   6.745   8.732  2.0009  1.0518 -1.4811
   77SLPC   O21 6966   3.332   6.808   8.529  0.4833 -0.3675  0.1168
   77SLPC   C21 6967   3.457   6.852   8.522  0.5075  0.5560 -1.0005
   77SLPC   O22 6968   3.550   6.808   8.590  0.0691 -0.1263  0.4336
   77SLPC   C22 6969   3.478   6.959   8.408  0.1238 -0.0607 -0.4357
   77SLPC   H2R 6970   3.449   7.059   8.447 -2.1532 -0.8994  0.2163
   77SLPC   H2S 6971   3.585   6.961   8.378  0.8293  1.3321  1.8558
   77SLPC    C3 6972   3.346   6.568   8.598 -0.5252  0.5250 -0.5617
   77SLPC    HX 6973   3.308   6.486   8.661  0.9517 -0.1104 -0.4470
   77SLPC    HY 6974   3.456   6.567   8.616 -0.2050 -3.3269 -1.8268
   77SLPC   O31 6975   3.316   6.534   8.458  0.4837 -0.5648 -1.2446
   77SLPC   C31 6976   3.403   6.454   8.396  0.3505  0.0021  0.0912
   77SLPC   O32 6977   3.497   6.399   8.445  0.1528 -0.2961 -0.8645
   77SLPC   C32 6978   3.363   6.436   8.253  0.5526  0.2153  0.0890
   77SLPC   H2X 6979   3.416   6.515   8.196 -0.3492  0.5124 -0.3580
   77SLPC   H2Y 6980   3.254   6.454   8.257 -0.4926 -4.7536  1.0424
   77SLPC   C23 6981   3.402   6.912   8.279 -0.7344 -0.4713  0.2334
   77SLPC   H3R 6982   3.294   6.931   8.294 -0.3842  1.0989  0.9977
   77SLPC   H3S 6983   3.430   6.805   8.276  1.0937 -0.0387  0.2856
   77SLPC   C24 6984   3.449   6.995   8.167 -0.5646  0.2127  0.3514
   77SLPC   H4R 6985   3.551   6.957   8.142  0.0124  1.9641 -0.1282
   77SLPC   H4S 6986   3.453   7.105   8.183  0.5674  0.2788 -0.2603
   77SLPC   C25 6987   3.361   6.991   8.037 -0.7923  0.1963 -0.7963
   77SLPC   H5R 6988   3.413   7.039   7.952  1.6260 -3.6067 -1.7028
   77SLPC   H5S 6989   3.264   7.042   8.059 -0.1759  0.4584  1.6948
   77SLPC   C26 6990   3.342   6.848   7.982 -0.5031  0.0309  0.8907
   77SLPC   H6R 6991   3.299   6.782   8.060  0.9227  1.3223  2.8531
   77SLPC   H6S 6992   3.440   6.808   7.947 -1.1145 -1.0720  0.3629
   77SLPC   C27 6993   3.250   6.847   7.861  0.2624  0.5079  0.5601
   77SLPC   H7R 6994   3.309   6.878   7.773 -0.3776 -2.5269 -1.0619
   77SLPC   H7S 6995   3.172   6.924   7.883  0.9693  1.6067 -0.6691
   77SLPC   C28 6996   3.186   6.710   7.823 -0.4656 -0.2691  0.0628
   77SLPC   H8R 6997   3.266   6.635   7.803 -0.2144 -0.2025  0.7842
   77SLPC   H8S 6998   3.133   6.711   7.726  0.0524 -0.8904 -0.2365
   77SLPC   C29 6999   3.092   6.661   7.934  0.4571  0.0776  0.0339
   77SLPC   H9R 7000   3.099   6.721   8.025  1.0801 -0.7928  0.5709
   77SLPC  C210 7001   3.011   6.557   7.921 -0.7778 -0.3434 -0.1067
   77SLPC  H10R 7002   2.944   6.550   8.008 -0.1394  2.1341  0.6840
   77SLPC  C211 7003   2.982   6.475   7.798 -0.6019 -0.4459 -0.1770
   77SLPC  H11R 7004   2.954   6.377   7.841 -2.0670  1.2401  3.0381
   77SLPC  H11S 7005   3.080   6.456   7.750  0.2077  0.9696  0.8844
   77SLPC  C212 7006   2.870   6.533   7.710 -0.0444  0.2925  0.2937
   77SLPC  H12R 7007   2.903   6.627   7.664 -2.7114  0.8352 -0.6391
   77SLPC  C213 7008   2.750   6.487   7.673  0.2270  0.1078  0.3803
   77SLPC  H13R 7009   2.679   6.561   7.633  1.0921 -0.1882 -1.8420
   77SLPC  C214 7010   2.690   6.357   7.709 -0.0533  0.3193 -0.1762
   77SLPC  H14R 7011   2.581   6.349   7.692 -0.1921  3.1275 -1.2281
   77SLPC  H14S 7012   2.710   6.342   7.817  0.2416 -0.7357 -0.3652
   77SLPC  C215 7013   2.745   6.239   7.628  0.1833  0.4751  0.3926
   77SLPC  H15R 7014   2.708   6.148   7.680 -1.0840  0.4332 -0.5189
   77SLPC  H15S 7015   2.855   6.244   7.635  0.0822  2.3831  1.0988
   77SLPC  C216 7016   2.699   6.235   7.477  0.2407 -1.1078 -0.4381
   77SLPC  H16R 7017   2.757   6.153   7.430  0.7854 -0.8794 -0.1859
   77SLPC  H16S 7018   2.738   6.326   7.426  1.1795 -0.5465  1.1971
   77SLPC  C217 7019   2.543   6.226   7.456 -0.4064 -0.0657  0.4668
   77SLPC  H17R 7020   2.500   6.323   7.490  1.8490  0.9777  0.4930
   77SLPC  H17S 7021   2.488   6.147   7.512 -3.7223  0.6219 -1.5418
   77SLPC  C218 7022   2.516   6.206   7.305  0.7074  0.2875 -0.6093
   77SLPC  H18R 7023   2.567   6.287   7.249  0.3979  0.5650 -0.4908
   77SLPC  H18S 7024   2.408   6.215   7.283  0.1415 -0.1264  1.7089
   77SLPC  H18T 7025   2.551   6.107   7.271  2.3144  0.7248 -0.3337
   77SLPC   C33 7026   3.395   6.293   8.187 -0.4159  0.1606  0.4866
   77SLPC   H3X 7027   3.356   6.219   8.261 -1.3940 -1.7650 -1.8363
   77SLPC   H3Y 7028   3.505   6.285   8.192 -0.2358  1.9364  0.1531
   77SLPC   C34 7029   3.336   6.273   8.049 -0.0801  0.0807  0.2601
   77SLPC   H4X 7030   3.230   6.305   8.045  0.0786  0.6147  0.2948
   77SLPC   H4Y 7031   3.332   6.164   8.026 -0.3032  0.1621 -0.0910
   77SLPC   C35 7032   3.401   6.364   7.942 -0.6489 -0.0178  0.0675
   77SLPC   H5X 7033   3.510   6.357   7.966 -0.7357  1.7076  1.0917
   77SLPC   H5Y 7034   3.373   6.468   7.966 -2.1473 -0.2105 -0.7418
   77SLPC   C36 7035   3.377   6.324   7.796  0.1845  0.2922  0.5914
   77SLPC   H6X 7036   3.269   6.313   7.773  0.5189 -0.4928 -0.6851
   77SLPC   H6Y 7037   3.424   6.224   7.785 -0.7037 -0.2850  1.8291
   77SLPC   C37 7038   3.439   6.422   7.694  0.3685 -0.2933  0.4102
   77SLPC   H7X 7039   3.548   6.404   7.687  0.4696  0.4008  0.1457
   77SLPC   H7Y 7040   3.427   6.528   7.723 -1.6802 -0.0746 -1.0502
   77SLPC   C38 7041   3.372   6.425   7.556  0.4350 -0.4702  0.4537
   77SLPC   H8X 7042   3.263   6.434   7.575  0.6842 -0.2667  1.9040
   77SLPC   H8Y 7043   3.385   6.326   7.509  2.4329 -0.3926  0.7252
   77SLPC   C39 7044   3.415   6.540   7.461  0.4281  0.0340  0.3751
   77SLPC   H9X 7045   3.524   6.531   7.439  0.4375  1.5262 -0.3561
   77SLPC   H9Y 7046   3.405   6.639   7.511  1.1494  0.6672 -0.6766
   77SLPC  C310 7047   3.341   6.541   7.322 -0.2730  0.1285 -0.7986
   77SLPC  H10X 7048   3.335   6.649   7.294 -0.0203  0.3661  0.0466
   77SLPC  H10Y 7049   3.237   6.504   7.333 -0.3628  0.1386 -1.5719
   77SLPC  C311 7050   3.407   6.451   7.215 -0.0387 -0.5500 -0.1697
   77SLPC  H11X 7051   3.385   6.346   7.244  0.4496 -0.3986  0.7846
   77SLPC  H11Y 7052   3.515   6.474   7.219 -0.6156  2.4070  0.9599
   77SLPC  C312 7053   3.364   6.489   7.075 -0.2933 -0.1360 -0.8191
   77SLPC  H12X 7054   3.389   6.597   7.068 -2.5734  0.6002  1.1141
   77SLPC  H12Y 7055   3.254   6.479   7.072 -0.2232 -0.9157 -1.0334
   77SLPC  C313 7056   3.441   6.429   6.970  0.0208 -0.2005  0.5998
   77SLPC  H13X 7057   3.445   6.321   6.996 -0.3038 -0.6282 -0.9886
   77SLPC  H13Y 7058   3.544   6.469   6.961 -1.1095  2.7216 -0.4119
   77SLPC  C314 7059   3.374   6.449   6.830  0.4131  0.4295 -0.2657
   77SLPC  H14X 7060   3.318   6.545   6.833 -0.7905 -0.2736  0.6756
   77SLPC  H14Y 7061   3.297   6.370   6.813  0.4672 -0.1888  2.0135
   77SLPC  C315 7062   3.455   6.439   6.700 -0.8348  0.5423  0.8336
   77SLPC  H15X 7063   3.508   6.342   6.689  0.4924  1.4469 -1.6106
   77SLPC  H15Y 7064   3.540   6.510   6.699 -0.1533 -0.1797  2.8030
   77SLPC  C316 7065   3.378   6.462   6.573 -0.1057 -0.5422 -0.2260
   77SLPC  H16X 7066   3.362   6.571   6.561  1.3169 -0.1200  1.2686
   77SLPC  H16Y 7067   3.278   6.416   6.588  1.1711 -2.9828  1.3625
   77SLPC  C317 7068   3.460   6.414   6.447  0.3496  0.3035 -0.2348
   77SLPC  H17X 7069   3.490   6.307   6.460 -1.1222 -0.2485 -1.1745
   77SLPC  H17Y 7070   3.550   6.479   6.441 -0.1015  1.2841  2.2211
   77SLPC  C318 7071   3.380   6.415   6.317  0.0282 -0.1210  0.2277
   77SLPC  H18X 7072   3.295   6.344   6.331  0.0150 -0.0592  0.4728
   77SLPC  H18Y 7073   3.441   6.390   6.229  0.3406  0.9738  0.1118
   77SLPC  H18Z 7074   3.326   6.511   6.303  1.3076  0.9375  2.0585
   78SLPC     N 7075   5.343   4.900   8.602  0.4506 -0.0508  0.2984
   78SLPC   C13 7076   5.194   4.895   8.620  0.1014 -0.0693 -0.5386
   78SLPC  H13A 7077   5.145   4.945   8.539 -1.1638 -2.2643 -1.2170
   78SLPC  H13B 7078   5.158   4.794   8.635  0.5927 -0.5695 -2.5059
   78SLPC  H13C 7079   5.174   4.944   8.714 -4.9087  0.4877 -1.6627
   78SLPC   C14 7080   5.406   4.810   8.699  0.5649  0.5265 -0.1400
   78SLPC  H14A 7081   5.509   4.802   8.668  0.3786  1.8575 -1.2015
   78SLPC  H14B 7082   5.408   4.857   8.797  0.5809  1.8304 -0.7483
   78SLPC  H14C 7083   5.361   4.713   8.715 -1.0235  1.6562  3.0979
   78SLPC   C15 7084   5.392   5.033   8.635 -0.3389 -0.1851 -0.4150
   78SLPC  H15A 7085   5.376   5.054   8.740 -1.6336  1.0728 -0.8258
   78SLPC  H15B 7086   5.497   5.037   8.611 -0.4585 -1.1703 -1.1416
   78SLPC  H15C 7087   5.338   5.106   8.576 -2.5196 -1.1622  0.2390
   78SLPC   C12 7088   5.373   4.854   8.454  0.9055  0.4980 -0.5031
   78SLPC  H12A 7089   5.336   4.755   8.429  2.0229  0.5624 -2.6008
   78SLPC  H12B 7090   5.480   4.846   8.447  0.8582 -1.7028  0.3352
   78SLPC   C11 7091   5.325   4.935   8.326 -0.1141 -0.1675 -0.0090
   78SLPC  H11A 7092   5.382   4.901   8.237  2.0594  0.5930  1.0094
   78SLPC  H11B 7093   5.367   5.036   8.347 -2.8241  0.5276  2.8482
   78SLPC     P 7094   5.108   4.835   8.249 -0.2363  0.0595 -0.0528
   78SLPC   O13 7095   5.126   4.719   8.333 -0.1370  0.2508 -0.1725
   78SLPC   O14 7096   4.967   4.876   8.231 -0.8414 -0.5694  0.3756
   78SLPC   O12 7097   5.185   4.956   8.310 -0.1460 -0.4024  0.0847
   78SLPC   O11 7098   5.183   4.824   8.112  0.2338  0.4399 -0.4606
   78SLPC    C1 7099   5.206   4.938   8.031 -0.1468  0.2608  0.1404
   78SLPC    HA 7100   5.199   5.038   8.080 -0.5563  0.1642  0.2788
   78SLPC    HB 7101   5.314   4.938   8.003 -0.4640 -0.0439 -1.1345
   78SLPC    C2 7102   5.121   4.934   7.905  0.0835  0.6673 -0.3576
   78SLPC    HS 7103   5.132   5.022   7.839 -0.3070  1.1500  0.2084
   78SLPC   O21 7104   4.987   4.917   7.937  0.2830 -0.2025  0.2612
   78SLPC   C21 7105   4.924   5.037   7.962 -0.1224 -0.0546  0.0925
   78SLPC   O22 7106   4.984   5.140   7.991  0.3489  0.4315  0.4766
   78SLPC   C22 7107   4.774   5.019   7.968 -0.0444  0.7212  0.2325
   78SLPC   H2R 7108   4.748   4.937   7.897  4.2653 -2.4402  1.8694
   78SLPC   H2S 7109   4.753   4.970   8.066  0.7419  1.1584  0.6250
   78SLPC    C3 7110   5.167   4.811   7.827 -0.5757 -0.0737  0.6157
   78SLPC    HX 7111   5.135   4.724   7.888 -0.6529 -0.7117 -0.3071
   78SLPC    HY 7112   5.277   4.823   7.827 -0.6561  0.8622  2.0215
   78SLPC   O31 7113   5.113   4.809   7.694 -0.0922  0.1526 -0.4770
   78SLPC   C31 7114   5.148   4.901   7.604 -0.2283  0.0841  0.1728
   78SLPC   O32 7115   5.242   4.980   7.618  0.0645  0.0462 -0.2110
   78SLPC   C32 7116   5.066   4.892   7.475 -0.1784  0.0916 -0.4368
   78SLPC   H2X 7117   4.960   4.915   7.500 -0.0541  0.6115 -0.3822
   78SLPC   H2Y 7118   5.074   4.787   7.439  0.8025 -0.7024  1.8880
   78SLPC   C23 7119   4.694   5.150   7.953 -0.4174  0.7610 -0.1773
   78SLPC   H3R 7120   4.729   5.212   8.039  2.6132 -0.5343 -0.3390
   78SLPC   H3S 7121   4.585   5.128   7.948 -0.7842  1.9975  1.3915
   78SLPC   C24 7122   4.722   5.228   7.828  0.6270 -0.0955 -0.1300
   78SLPC   H4R 7123   4.829   5.259   7.823  1.3838 -2.5043  0.2536
   78SLPC   H4S 7124   4.672   5.327   7.835  0.9481  0.0549  0.0453
   78SLPC   C25 7125   4.700   5.160   7.688 -0.6409  0.6174 -0.3523
   78SLPC   H5R 7126   4.599   5.114   7.686 -0.8715  1.1360 -0.6411
   78SLPC   H5S 7127   4.787   5.091   7.686  2.3801  4.0810  0.3300
   78SLPC   C26 7128   4.714   5.265   7.572  0.2735 -0.0683 -0.7001
   78SLPC   H6R 7129   4.783   5.340   7.617  0.1544  0.2540 -1.0472
   78SLPC   H6S 7130   4.616   5.313   7.551 -1.3264 -1.8424  2.1239
   78SLPC   C27 7131   4.790   5.220   7.446 -0.0374  0.3644 -0.5797
   78SLPC   H7R 7132   4.758   5.120   7.410 -0.6027  0.8471 -1.4676
   78SLPC   H7S 7133   4.898   5.209   7.471 -0.3272  1.8271  1.5952
   78SLPC   C28 7134   4.772   5.305   7.316 -0.2011  0.0641  0.5907
   78SLPC   H8R 7135   4.856   5.272   7.252 -2.6438  0.2713 -2.9553
   78SLPC   H8S 7136   4.805   5.407   7.347  0.7124  0.2220 -0.8329
   78SLPC   C29 7137   4.643   5.294   7.236  0.0036  0.0748  0.1810
   78SLPC   H9R 7138   4.554   5.342   7.279  0.3838  0.9963 -0.0419
   78SLPC  C210 7139   4.637   5.234   7.118  1.0803 -0.1484  0.7215
   78SLPC  H10R 7140   4.546   5.233   7.056  1.2493  0.8285  0.4500
   78SLPC  C211 7141   4.746   5.154   7.047  0.1829 -0.0338 -1.1314
   78SLPC  H11R 7142   4.711   5.049   7.036  0.1903 -0.3487  1.3104
   78SLPC  H11S 7143   4.835   5.139   7.112 -0.0824 -1.5761 -1.0733
   78SLPC  C212 7144   4.784   5.209   6.909 -0.4639  0.8850 -0.3420
   78SLPC  H12R 7145   4.891   5.227   6.895 -0.4336  0.9754  0.0004
   78SLPC  C213 7146   4.715   5.214   6.793 -0.0260  0.0222 -1.2505
   78SLPC  H13R 7147   4.771   5.258   6.710  2.0472  1.0369  0.5614
   78SLPC  C214 7148   4.571   5.169   6.772 -0.5694 -0.3164 -0.1228
   78SLPC  H14R 7149   4.495   5.249   6.779 -0.3315 -0.0593 -0.4154
   78SLPC  H14S 7150   4.546   5.108   6.862  3.8730  0.0813  1.6617
   78SLPC  C215 7151   4.533   5.090   6.639 -0.6539  0.2179 -0.0487
   78SLPC  H15R 7152   4.422   5.076   6.636 -0.7767  1.3043 -1.1892
   78SLPC  H15S 7153   4.569   4.985   6.647 -1.4251  0.0586  1.9304
   78SLPC  C216 7154   4.585   5.161   6.522  0.1486  0.1251 -0.7503
   78SLPC  H16R 7155   4.694   5.149   6.505 -0.0790 -1.3030 -1.3818
   78SLPC  H16S 7156   4.565   5.269   6.535 -1.1156 -0.2342  0.5322
   78SLPC  C217 7157   4.514   5.133   6.388  0.6967  0.0100 -0.0339
   78SLPC  H17R 7158   4.404   5.145   6.397  0.7736 -0.5593  2.3672
   78SLPC  H17S 7159   4.535   5.031   6.351  0.0221 -0.5197  0.9908
   78SLPC  C218 7160   4.566   5.222   6.271 -0.1688  0.0668  0.7021
   78SLPC  H18R 7161   4.675   5.241   6.283 -0.2575 -0.6899  3.1822
   78SLPC  H18S 7162   4.524   5.324   6.280  0.3131  0.5932 -2.0669
   78SLPC  H18T 7163   4.550   5.186   6.167  1.3822  1.6879 -0.1561
   78SLPC   C33 7164   5.121   4.994   7.368 -0.3585 -0.1171  0.1483
   78SLPC   H3X 7165   5.231   4.989   7.381 -0.1000 -1.4269 -2.0028
   78SLPC   H3Y 7166   5.076   5.094   7.390  0.7765  0.3628  0.3324
   78SLPC   C34 7167   5.074   4.972   7.223 -0.1308  0.5028  0.0723
   78SLPC   H4X 7168   5.077   5.068   7.166  0.0105  1.8891  2.2650
   78SLPC   H4Y 7169   4.966   4.950   7.234  0.4204 -2.3928  0.3609
   78SLPC   C35 7170   5.138   4.857   7.142  0.4452 -0.1937 -0.4402
   78SLPC   H5X 7171   5.150   4.769   7.209  1.1337 -0.7276 -1.2542
   78SLPC   H5Y 7172   5.242   4.870   7.104  0.4570 -2.9374 -1.5484
   78SLPC   C36 7173   5.054   4.809   7.024  1.0302  0.2085  0.2088
   78SLPC   H6X 7174   4.952   4.781   7.059  1.4619 -1.8059 -0.0013
   78SLPC   H6Y 7175   5.091   4.708   6.993 -1.8310 -0.7318 -0.3996
   78SLPC   C37 7176   5.056   4.903   6.904  0.3868  0.2764 -0.5096
   78SLPC   H7X 7177   5.160   4.910   6.865  0.7138 -1.4936 -0.0707
   78SLPC   H7Y 7178   5.033   5.004   6.942 -0.9096 -0.5570  1.0333
   78SLPC   C38 7179   4.960   4.856   6.783  0.1678 -0.2207 -0.2899
   78SLPC   H8X 7180   4.854   4.875   6.811  0.1037 -2.4406  1.2656
   78SLPC   H8Y 7181   4.960   4.748   6.757 -0.8505  0.1414 -1.9307
   78SLPC   C39 7182   5.000   4.926   6.648  0.7964  0.0663  0.3795
   78SLPC   H9X 7183   5.101   4.895   6.613  0.3544 -0.4206 -0.4993
   78SLPC   H9Y 7184   5.007   5.036   6.667  0.3147  0.4067 -1.2566
   78SLPC  C310 7185   4.895   4.903   6.534  0.1535  0.0619  0.1904
   78SLPC  H10X 7186   4.928   4.978   6.460 -0.0214 -1.0536 -1.0624
   78SLPC  H10Y 7187   4.795   4.937   6.568  0.8258  1.7391  0.5624
   78SLPC  C311 7188   4.896   4.762   6.476  0.0710  0.1468 -1.0875
   78SLPC  H11X 7189   4.816   4.705   6.528  0.4625  1.8599  1.5640
   78SLPC  H11Y 7190   4.990   4.706   6.495  0.5579  1.1104 -0.6112
   78SLPC  C312 7191   4.860   4.768   6.326 -1.2759  0.2802  0.0315
   78SLPC  H12X 7192   4.854   4.670   6.275 -1.2058  0.4083 -0.2227
   78SLPC  H12Y 7193   4.944   4.826   6.284  1.4107 -1.6460  2.3140
   78SLPC  C313 7194   4.725   4.838   6.295  0.3860 -0.0634  0.1960
   78SLPC  H13X 7195   4.742   4.947   6.301 -1.2609  0.1944  0.8753
   78SLPC  H13Y 7196   4.648   4.819   6.373 -0.0942 -0.8320 -0.4484
   78SLPC  C314 7197   4.654   4.808   6.157  0.7876  0.5794 -0.2424
   78SLPC  H14X 7198   4.555   4.859   6.156  0.1458 -0.4237  2.5816
   78SLPC  H14Y 7199   4.650   4.698   6.150  0.3152  0.5813 -0.0172
   78SLPC  C315 7200   4.729   4.868   6.035 -0.1736 -0.4379 -0.3062
   78SLPC  H15X 7201   4.835   4.833   6.043 -0.6599 -1.8393  0.4893
   78SLPC  H15Y 7202   4.723   4.977   6.054 -1.9249 -0.6043  0.2392
   78SLPC  C316 7203   4.681   4.830   5.898  0.2984  0.3172 -0.2777
   78SLPC  H16X 7204   4.751   4.875   5.824  1.4867 -2.7802 -1.1688
   78SLPC  H16Y 7205   4.587   4.883   5.871  1.1092  0.0090 -4.2675
   78SLPC  C317 7206   4.665   4.679   5.870  0.4635 -0.1462  0.0318
   78SLPC  H17X 7207   4.575   4.638   5.922  0.7120  0.3616  0.8935
   78SLPC  H17Y 7208   4.758   4.632   5.906  0.5506 -0.2546 -0.3379
   78SLPC  C318 7209   4.653   4.651   5.721  0.3873 -0.1779  0.3891
   78SLPC  H18X 7210   4.731   4.697   5.658  0.7317  0.8423  1.5209
   78SLPC  H18Y 7211   4.556   4.696   5.692  1.4334  0.2799 -2.7194
   78SLPC  H18Z 7212   4.644   4.543   5.695  0.4048  0.6154 -3.4668
   79SLPC     N 7213   4.196   6.387   8.818 -0.0029 -0.0824 -0.5427
   79SLPC   C13 7214   4.246   6.290   8.909 -0.4226  0.3658 -0.4376
   79SLPC  H13A 7215   4.335   6.319   8.964  0.5240 -2.5922 -0.2139
   79SLPC  H13B 7216   4.167   6.270   8.980  0.0696  0.8572  0.2591
   79SLPC  H13C 7217   4.265   6.196   8.859 -1.8137 -0.2602  0.1566
   79SLPC   C14 7218   4.299   6.417   8.717 -0.2159 -0.3808  0.3819
   79SLPC  H14A 7219   4.264   6.488   8.643  1.7808  0.1801 -0.1028
   79SLPC  H14B 7220   4.381   6.470   8.762 -1.5199  0.5341  1.7945
   79SLPC  H14C 7221   4.331   6.321   8.680  0.2499 -0.0639 -0.0522
   79SLPC   C15 7222   4.163   6.505   8.893  0.3102 -0.0824  0.5483
   79SLPC  H15A 7223   4.249   6.555   8.934 -0.7936  0.6587  2.0606
   79SLPC  H15B 7224   4.116   6.574   8.824  0.2443 -1.6603 -1.0651
   79SLPC  H15C 7225   4.088   6.495   8.971  1.7574  2.6087  2.4425
   79SLPC   C12 7226   4.067   6.335   8.751  0.3248 -0.1591  0.4584
   79SLPC  H12A 7227   3.993   6.298   8.821 -0.9919 -1.7625 -1.6294
   79SLPC  H12B 7228   4.089   6.257   8.679  0.7786 -0.6011  1.0621
   79SLPC   C11 7229   3.981   6.438   8.664 -0.0081 -0.1050 -0.2904
   79SLPC  H11A 7230   3.948   6.511   8.742 -0.6410 -0.1455 -0.5133
   79SLPC  H11B 7231   3.891   6.388   8.623 -1.5520  0.4629  2.1355
   79SLPC     P 7232   4.052   6.649   8.536 -0.2511 -0.2607  0.4804
   79SLPC   O13 7233   4.120   6.714   8.651 -0.3863 -0.2173  0.2616
   79SLPC   O14 7234   4.115   6.671   8.405  0.3950  0.4244 -0.4831
   79SLPC   O12 7235   4.066   6.493   8.563 -0.2062  0.0438 -0.2966
   79SLPC   O11 7236   3.898   6.685   8.534 -1.0643  0.6069  0.6131
   79SLPC    C1 7237   3.814   6.620   8.438  0.4606 -0.4705 -0.1639
   79SLPC    HA 7238   3.825   6.510   8.453  0.1867 -0.0855  4.2236
   79SLPC    HB 7239   3.709   6.640   8.468 -0.0350 -0.2258 -1.9331
   79SLPC    C2 7240   3.843   6.630   8.283 -0.2537  0.2196  0.6930
   79SLPC    HS 7241   3.948   6.599   8.265  0.2761  1.3713  1.6648
   79SLPC   O21 7242   3.828   6.773   8.262  0.3682 -0.4650 -0.0613
   79SLPC   C21 7243   3.897   6.828   8.163  0.0838 -0.1879 -0.4192
   79SLPC   O22 7244   3.984   6.776   8.098  0.4494  0.1178 -0.2268
   79SLPC   C22 7245   3.856   6.973   8.155 -0.4947 -0.1889  0.3335
   79SLPC   H2R 7246   3.745   6.970   8.159 -0.5129 -3.7595  0.6498
   79SLPC   H2S 7247   3.898   7.027   8.243 -0.8077 -1.9497  1.6270
   79SLPC    C3 7248   3.752   6.549   8.195 -0.1807  0.3760  0.7757
   79SLPC    HX 7249   3.647   6.583   8.186 -0.2564 -0.1190 -0.4497
   79SLPC    HY 7250   3.741   6.451   8.246  2.1742 -0.3510  0.0599
   79SLPC   O31 7251   3.811   6.512   8.069 -0.1220  0.2371 -0.6019
   79SLPC   C31 7252   3.775   6.586   7.962  0.4553 -0.3619  0.0768
   79SLPC   O32 7253   3.692   6.679   7.973  0.8492  0.9131  0.1177
   79SLPC   C32 7254   3.846   6.546   7.834 -0.1453  0.2122  0.4848
   79SLPC   H2X 7255   3.833   6.437   7.813  1.6124  0.4669 -2.5131
   79SLPC   H2Y 7256   3.953   6.563   7.858 -0.1580 -1.0863  1.6087
   79SLPC   C23 7257   3.903   7.033   8.020  0.6772 -0.2816 -0.6525
   79SLPC   H3R 7258   4.009   7.018   7.990  0.4238  0.7160 -2.1899
   79SLPC   H3S 7259   3.900   7.141   8.044  0.9075 -0.6901  1.4051
   79SLPC   C24 7260   3.811   6.983   7.913 -0.0242  0.3539 -0.0104
   79SLPC   H4R 7261   3.704   6.995   7.940 -0.8050 -3.0243 -1.1353
   79SLPC   H4S 7262   3.831   6.875   7.896  1.3322  0.8545 -1.9917
   79SLPC   C25 7263   3.825   7.066   7.781 -0.2223 -0.1136 -0.7617
   79SLPC   H5R 7264   3.931   7.072   7.747  0.2893 -0.5706  0.6955
   79SLPC   H5S 7265   3.808   7.175   7.796  5.6269  0.9621  0.5975
   79SLPC   C26 7266   3.750   7.027   7.654 -0.7594 -0.2046 -0.2492
   79SLPC   H6R 7267   3.641   7.018   7.672 -1.4679  3.5392 -1.9175
   79SLPC   H6S 7268   3.791   6.925   7.634 -1.2682 -0.5027  0.1912
   79SLPC   C27 7269   3.785   7.113   7.539  0.4093  0.0963 -0.6215
   79SLPC   H7R 7270   3.894   7.129   7.529  0.9126 -1.8629  0.9730
   79SLPC   H7S 7271   3.737   7.213   7.540 -1.2428 -0.6020 -2.9029
   79SLPC   C28 7272   3.740   7.042   7.410 -0.0077 -0.8797  0.4385
   79SLPC   H8R 7273   3.762   6.934   7.427 -0.1817 -0.8753  0.6969
   79SLPC   H8S 7274   3.784   7.089   7.320 -1.5612 -2.0055 -0.9794
   79SLPC   C29 7275   3.591   7.044   7.398  0.4451  1.0273  0.5311
   79SLPC   H9R 7276   3.530   7.124   7.442  0.5562 -1.4235  5.9356
   79SLPC  C210 7277   3.522   6.952   7.332  0.4142 -0.1625  0.2916
   79SLPC  H10R 7278   3.413   6.959   7.321  0.6139  0.4411 -1.6397
   79SLPC  C211 7279   3.581   6.842   7.250  0.0169  0.5654 -0.0258
   79SLPC  H11R 7280   3.563   6.747   7.305  0.7229  0.2887 -0.2538
   79SLPC  H11S 7281   3.691   6.851   7.234  0.2649 -0.9517  0.6496
   79SLPC  C212 7282   3.503   6.827   7.122 -0.4449 -0.1724  0.8225
   79SLPC  H12R 7283   3.396   6.816   7.146 -0.4388 -2.1460  0.2027
   79SLPC  C213 7284   3.534   6.831   6.992  0.0739  0.2968 -0.2993
   79SLPC  H13R 7285   3.457   6.821   6.914 -0.5973  0.2715  0.3504
   79SLPC  C214 7286   3.675   6.840   6.943 -0.1435  0.0072  0.0425
   79SLPC  H14R 7287   3.727   6.742   6.955 -1.2691 -1.0568 -2.8528
   79SLPC  H14S 7288   3.725   6.892   7.027 -0.1824 -0.1560  0.1684
   79SLPC  C215 7289   3.700   6.905   6.804 -0.0461 -0.8855  0.6786
   79SLPC  H15R 7290   3.806   6.937   6.790 -0.1789 -0.9241 -0.5958
   79SLPC  H15S 7291   3.640   6.997   6.787 -0.7173 -1.9759 -4.9815
   79SLPC  C216 7292   3.663   6.810   6.689  0.0907  0.1873 -0.2300
   79SLPC  H16R 7293   3.561   6.773   6.713 -0.0657  1.4708  1.3311
   79SLPC  H16S 7294   3.726   6.721   6.709 -2.2938 -0.9866  3.0971
   79SLPC  C217 7295   3.672   6.866   6.544 -0.2537 -0.8042 -0.1046
   79SLPC  H17R 7296   3.771   6.914   6.526 -1.1286  0.4824 -1.6566
   79SLPC  H17S 7297   3.602   6.952   6.544  1.0765  0.5167  3.9918
   79SLPC  C218 7298   3.664   6.757   6.436 -0.1676 -0.4490 -0.3783
   79SLPC  H18R 7299   3.677   6.806   6.337  0.8054  1.4479  0.6394
   79SLPC  H18S 7300   3.563   6.712   6.448 -0.5769  0.6239  0.3873
   79SLPC  H18T 7301   3.747   6.686   6.456 -0.0069 -0.1178  0.1432
   79SLPC   C33 7302   3.806   6.617   7.698 -0.3775 -0.5309 -0.3320
   79SLPC   H3X 7303   3.829   6.725   7.707  0.1460 -0.6699  0.0588
   79SLPC   H3Y 7304   3.696   6.621   7.710 -0.5100  2.9189 -1.7286
   79SLPC   C34 7305   3.862   6.548   7.574 -1.3327  0.2653 -0.6562
   79SLPC   H4X 7306   3.808   6.451   7.568  1.4389 -1.4002 -0.2642
   79SLPC   H4Y 7307   3.969   6.531   7.595 -1.5826  1.3404  1.8150
   79SLPC   C35 7308   3.840   6.615   7.439  0.1250  1.4177  0.3988
   79SLPC   H5X 7309   3.885   6.716   7.434  1.4154  0.8972  0.9881
   79SLPC   H5Y 7310   3.730   6.618   7.425 -0.3857  0.3420  3.3030
   79SLPC   C36 7311   3.904   6.527   7.332 -0.1672 -0.4333  0.3146
   79SLPC   H6X 7312   3.860   6.425   7.340  0.1865 -0.6013  0.1930
   79SLPC   H6Y 7313   4.015   6.519   7.336  0.1531  2.8362  0.2551
   79SLPC   C37 7314   3.870   6.562   7.189 -0.5087 -0.4899 -0.1878
   79SLPC   H7X 7315   3.924   6.655   7.164 -1.5444  0.4304  0.8665
   79SLPC   H7Y 7316   3.766   6.596   7.172  0.5561  2.2285 -1.8364
   79SLPC   C38 7317   3.924   6.453   7.092  0.1656  0.0855 -0.1667
   79SLPC   H8X 7318   3.866   6.360   7.111 -0.9753  0.9357  0.6229
   79SLPC   H8Y 7319   4.031   6.425   7.103 -0.0187 -0.2248  0.9205
   79SLPC   C39 7320   3.890   6.476   6.943 -0.0643  0.7503  0.0019
   79SLPC   H9X 7321   3.931   6.575   6.914 -2.1142  1.8490  0.6763
   79SLPC   H9Y 7322   3.780   6.491   6.935 -0.5382 -0.1930  3.1684
   79SLPC  C310 7323   3.929   6.358   6.852 -0.4988 -0.1331  0.7659
   79SLPC  H10X 7324   3.924   6.261   6.906 -0.0690  0.0783  1.1924
   79SLPC  H10Y 7325   4.038   6.362   6.831  0.0781 -0.1184  3.3561
   79SLPC  C311 7326   3.856   6.362   6.721  0.4676 -0.9835 -0.8637
   79SLPC  H11X 7327   3.844   6.470   6.698 -0.3827 -0.5656  1.3271
   79SLPC  H11Y 7328   3.749   6.333   6.733  0.1031  0.7693  0.4671
   79SLPC  C312 7329   3.918   6.290   6.603 -0.2189  0.3989  0.8496
   79SLPC  H12X 7330   3.907   6.180   6.610 -0.6992  0.0861 -2.9418
   79SLPC  H12Y 7331   4.026   6.315   6.597  0.0923 -1.1311 -0.8003
   79SLPC  C313 7332   3.851   6.322   6.474  0.2058 -0.6250  0.6876
   79SLPC  H13X 7333   3.854   6.431   6.451  0.6790 -0.3656  1.8855
   79SLPC  H13Y 7334   3.742   6.305   6.487 -0.1429 -1.4909 -2.4490
   79SLPC  C314 7335   3.904   6.240   6.362  0.2698  0.6154  0.5646
   79SLPC  H14X 7336   3.928   6.141   6.407  0.2933 -0.3633 -1.4774
   79SLPC  H14Y 7337   3.995   6.297   6.334  0.5156  0.3056  0.7351
   79SLPC  C315 7338   3.805   6.224   6.240  0.0880 -0.0707 -0.1182
   79SLPC  H15X 7339   3.783   6.323   6.194  0.0181 -0.0034  0.0600
   79SLPC  H15Y 7340   3.707   6.189   6.279 -1.2171  1.3382 -1.9132
   79SLPC  C316 7341   3.861   6.120   6.148 -0.1988 -0.0566 -0.0335
   79SLPC  H16X 7342   3.876   6.028   6.208 -1.6483  1.1618  2.3449
   79SLPC  H16Y 7343   3.966   6.139   6.116 -0.3766 -0.8296 -1.1514
   79SLPC  C317 7344   3.779   6.109   6.023  0.3588  0.2203 -0.0554
   79SLPC  H17X 7345   3.782   6.199   5.959  0.4590 -0.9317 -1.7290
   79SLPC  H17Y 7346   3.673   6.092   6.049  0.4261 -0.6036 -0.2853
   79SLPC  C318 7347   3.821   5.988   5.933 -0.6608  0.4071 -0.3757
   79SLPC  H18X 7348   3.929   6.008   5.915 -0.4783 -0.7631 -0.6703
   79SLPC  H18Y 7349   3.770   5.988   5.834 -0.0741 -1.1735 -0.7003
   79SLPC  H18Z 7350   3.803   5.895   5.991 -0.6231  0.1059 -0.8354
   80SLPC     N 7351   0.513   3.449   8.552 -0.1948  0.3802 -0.2110
   80SLPC   C13 7352   0.576   3.581   8.562 -0.4060 -1.1271  0.0917
   80SLPC  H13A 7353   0.640   3.595   8.648 -2.3960 -0.5641  1.5756
   80SLPC  H13B 7354   0.615   3.604   8.464 -0.3994  0.4473  0.4459
   80SLPC  H13C 7355   0.502   3.658   8.578  0.0559 -0.8157  0.7518
   80SLPC   C14 7356   0.413   3.458   8.441  0.2218 -0.6359  0.0725
   80SLPC  H14A 7357   0.464   3.480   8.348 -0.8601  1.1061 -0.1357
   80SLPC  H14B 7358   0.354   3.369   8.424 -0.1635 -0.7627  1.8621
   80SLPC  H14C 7359   0.342   3.536   8.462  1.0771  0.7197 -1.7922
   80SLPC   C15 7360   0.438   3.424   8.678 -0.5734 -0.1136 -0.0572
   80SLPC  H15A 7361   0.374   3.510   8.695  1.5260  1.2173  1.7193
   80SLPC  H15B 7362   0.380   3.334   8.687  0.6206 -0.7257  3.0717
   80SLPC  H15C 7363   0.517   3.426   8.752 -0.5729 -0.1593 -0.0578
   80SLPC   C12 7364   0.616   3.338   8.535 -0.1950  0.3729  0.0127
   80SLPC  H12A 7365   0.696   3.347   8.608  0.8793 -3.2903 -0.4847
   80SLPC  H12B 7366   0.665   3.348   8.440  0.0023  1.7832  0.2461
   80SLPC   C11 7367   0.566   3.189   8.550 -0.8891  0.9710  0.0395
   80SLPC  H11A 7368   0.546   3.169   8.658 -1.0534 -0.1694 -0.1834
   80SLPC  H11B 7369   0.647   3.118   8.525 -0.5883  1.6202 -0.8520
   80SLPC     P 7370   0.461   3.070   8.349 -0.1562 -0.1898  0.5431
   80SLPC   O13 7371   0.488   2.933   8.400  0.2477  0.0910  0.2831
   80SLPC   O14 7372   0.339   3.096   8.273  0.3794 -0.3677 -0.0962
   80SLPC   O12 7373   0.453   3.165   8.475  0.1396 -0.3381  0.0651
   80SLPC   O11 7374   0.586   3.106   8.264 -0.4383 -0.4064 -0.7166
   80SLPC    C1 7375   0.605   3.224   8.187 -0.5596  0.8109 -0.7014
   80SLPC    HA 7376   0.524   3.293   8.220 -1.0514 -1.3729  3.2499
   80SLPC    HB 7377   0.701   3.267   8.222 -0.8714  0.0919  1.1500
   80SLPC    C2 7378   0.596   3.198   8.036  0.0393  0.3524  0.1074
   80SLPC    HS 7379   0.501   3.152   8.000  0.5569  0.8183 -2.0014
   80SLPC   O21 7380   0.704   3.113   7.996 -0.2113  0.0641 -0.3475
   80SLPC   C21 7381   0.682   2.980   7.997  0.0629  0.2111 -0.6083
   80SLPC   O22 7382   0.574   2.921   7.994 -0.0782  0.2402  0.0939
   80SLPC   C22 7383   0.821   2.908   7.987  0.2399 -0.1731 -0.2851
   80SLPC   H2R 7384   0.896   2.967   8.044 -1.7341  3.1249 -0.8719
   80SLPC   H2S 7385   0.796   2.814   8.041 -0.0013  1.3690  2.4344
   80SLPC    C3 7386   0.600   3.340   7.970  0.3799  0.7053  0.2514
   80SLPC    HX 7387   0.701   3.385   7.977  1.3438 -1.3961  0.8677
   80SLPC    HY 7388   0.528   3.407   8.020 -0.3694 -1.1630  1.8223
   80SLPC   O31 7389   0.560   3.331   7.827  0.3274  0.0294 -1.0415
   80SLPC   C31 7390   0.664   3.282   7.750 -0.8000 -0.0830  0.5197
   80SLPC   O32 7391   0.780   3.290   7.780  0.4553  0.2366  0.3656
   80SLPC   C32 7392   0.608   3.257   7.610 -0.0593 -0.6373 -0.0497
   80SLPC   H2X 7393   0.601   3.357   7.564  0.7876 -0.1868  0.7511
   80SLPC   H2Y 7394   0.506   3.215   7.627 -1.3921  1.5469 -2.1264
   80SLPC   C23 7395   0.865   2.885   7.839 -0.3899 -0.0785  0.1285
   80SLPC   H3R 7396   0.865   2.981   7.784 -0.7235 -0.0048  0.2537
   80SLPC   H3S 7397   0.791   2.817   7.791  0.1242  0.7801 -1.9894
   80SLPC   C24 7398   1.004   2.829   7.825  0.6733 -0.2642  0.0576
   80SLPC   H4R 7399   1.041   2.768   7.911 -2.8389 -1.1906  1.0812
   80SLPC   H4S 7400   1.067   2.920   7.820  1.1539 -0.5441  0.8528
   80SLPC   C25 7401   1.011   2.746   7.694 -0.6647  0.0741 -0.6342
   80SLPC   H5R 7402   0.935   2.669   7.718 -2.1557  2.1262  1.6418
   80SLPC   H5S 7403   1.110   2.699   7.678 -0.7309  0.5762 -2.8751
   80SLPC   C26 7404   0.989   2.830   7.568 -0.1333  0.1707  0.5643
   80SLPC   H6R 7405   1.081   2.889   7.548 -1.7156  2.6257  0.0979
   80SLPC   H6S 7406   0.910   2.908   7.575  0.7700  1.2612 -0.8697
   80SLPC   C27 7407   0.956   2.751   7.439 -0.0119  0.0366  0.7965
   80SLPC   H7R 7408   0.926   2.828   7.365 -1.1274 -0.5816  0.5787
   80SLPC   H7S 7409   0.868   2.684   7.450 -0.0380  0.3761  3.0656
   80SLPC   C28 7410   1.085   2.686   7.387 -0.6618  0.4317  0.3508
   80SLPC   H8R 7411   1.128   2.632   7.474 -1.0498  1.4328  1.1815
   80SLPC   H8S 7412   1.154   2.771   7.367 -0.4130  0.4057  1.0721
   80SLPC   C29 7413   1.059   2.607   7.264  0.0009  0.6968  0.2128
   80SLPC   H9R 7414   0.986   2.528   7.285  0.2263 -0.0190 -1.4541
   80SLPC  C210 7415   1.094   2.634   7.134 -0.1419 -0.5600 -0.0291
   80SLPC  H10R 7416   1.075   2.562   7.053  1.0282 -0.0720 -0.7643
   80SLPC  C211 7417   1.184   2.744   7.091  0.1689 -0.4678  0.1075
   80SLPC  H11R 7418   1.257   2.759   7.173 -0.6621  0.6358  0.6792
   80SLPC  H11S 7419   1.126   2.838   7.075  0.2718 -0.3666  0.3188
   80SLPC  C212 7420   1.274   2.715   6.970 -0.9108  0.1788  0.0724
   80SLPC  H12R 7421   1.377   2.693   7.001 -1.1205  0.2721  0.8648
   80SLPC  C213 7422   1.236   2.679   6.847  0.6479  0.2720  0.0910
   80SLPC  H13R 7423   1.311   2.661   6.769  1.8833  1.7185  0.8937
   80SLPC  C214 7424   1.098   2.689   6.794 -0.3995 -0.2260 -0.2440
   80SLPC  H14R 7425   1.023   2.705   6.875 -0.3097  0.4974 -0.3020
   80SLPC  H14S 7426   1.073   2.591   6.748  2.1495 -0.7392 -0.6939
   80SLPC  C215 7427   1.088   2.799   6.696 -0.4482 -0.1718  0.3863
   80SLPC  H15R 7428   1.176   2.798   6.629 -0.4614  0.1898  0.3620
   80SLPC  H15S 7429   1.094   2.899   6.743  1.6019 -0.4931  0.9109
   80SLPC  C216 7430   0.964   2.781   6.613 -0.4383 -0.1217  0.8526
   80SLPC  H16R 7431   0.877   2.797   6.680 -1.3270 -1.0504 -0.0434
   80SLPC  H16S 7432   0.965   2.680   6.568  1.4910  0.2008  0.0904
   80SLPC  C217 7433   0.960   2.884   6.500  0.0402  0.7934  0.8950
   80SLPC  H17R 7434   0.992   2.982   6.541  0.4163  1.7688 -1.5823
   80SLPC  H17S 7435   0.860   2.906   6.459  0.3580 -1.3557 -1.2431
   80SLPC  C218 7436   1.062   2.862   6.390  0.3795  0.5818  0.4127
   80SLPC  H18R 7437   1.055   2.937   6.309  1.3274  1.8928  1.5038
   80SLPC  H18S 7438   1.044   2.764   6.340  0.6584  1.2404 -1.0426
   80SLPC  H18T 7439   1.161   2.880   6.437 -0.3373  0.7911  1.8944
   80SLPC   C33 7440   0.677   3.151   7.533 -0.4097  0.4983 -0.0029
   80SLPC   H3X 7441   0.677   3.051   7.581  0.8109  0.6414  0.3188
   80SLPC   H3Y 7442   0.786   3.168   7.537 -0.1703 -1.1062  1.0986
   80SLPC   C34 7443   0.624   3.140   7.384  0.2016 -0.4457 -0.3486
   80SLPC   H4X 7444   0.634   3.243   7.345 -0.3048  0.4786  1.8179
   80SLPC   H4Y 7445   0.517   3.109   7.390 -0.4338  1.4741 -0.9199
   80SLPC   C35 7446   0.722   3.059   7.301  0.2016  0.2156  0.6704
   80SLPC   H5X 7447   0.735   2.957   7.342 -0.0332 -0.5899 -1.1504
   80SLPC   H5Y 7448   0.817   3.118   7.301 -0.2470  0.9635  1.9672
   80SLPC   C36 7449   0.658   3.065   7.157 -0.2752 -0.3050  0.4153
   80SLPC   H6X 7450   0.639   3.168   7.121  1.9401 -0.1169 -0.3420
   80SLPC   H6Y 7451   0.558   3.016   7.150 -0.1153 -0.7778  1.2592
   80SLPC   C37 7452   0.751   2.991   7.058 -0.4070 -0.2297  0.1372
   80SLPC   H7X 7453   0.763   2.888   7.099 -0.3337 -0.0562  0.5545
   80SLPC   H7Y 7454   0.852   3.038   7.066 -0.4019 -0.3881  1.1143
   80SLPC   C38 7455   0.705   2.995   6.914 -0.4573 -0.1458 -0.4125
   80SLPC   H8X 7456   0.596   2.973   6.916 -0.3551 -0.9474 -1.9654
   80SLPC   H8Y 7457   0.755   2.918   6.851 -1.2575 -0.1342 -1.0726
   80SLPC   C39 7458   0.715   3.130   6.850 -0.0776 -0.5028 -0.6470
   80SLPC   H9X 7459   0.806   3.182   6.887 -0.9986 -0.5289  1.8636
   80SLPC   H9Y 7460   0.627   3.194   6.875  0.7267  0.7423 -0.9203
   80SLPC  C310 7461   0.723   3.110   6.694 -0.6745 -0.1084  0.1732
   80SLPC  H10X 7462   0.659   3.023   6.668  0.5601 -1.7954  2.4217
   80SLPC  H10Y 7463   0.823   3.072   6.661 -0.9958 -1.3157  0.5530
   80SLPC  C311 7464   0.672   3.226   6.616  0.2160 -0.2800 -0.5188
   80SLPC  H11X 7465   0.734   3.314   6.644  1.1055 -1.2140  0.5856
   80SLPC  H11Y 7466   0.565   3.231   6.645 -0.1983  0.5404 -2.0843
   80SLPC  C312 7467   0.655   3.204   6.463  0.3816  0.4225 -0.0373
   80SLPC  H12X 7468   0.592   3.113   6.449  1.3190  0.0760 -2.6159
   80SLPC  H12Y 7469   0.758   3.174   6.434  1.5304  0.8284  3.1522
   80SLPC  C313 7470   0.585   3.313   6.389  0.2198 -0.1193  0.6331
   80SLPC  H13X 7471   0.483   3.296   6.430  0.7387 -1.0014  1.6269
   80SLPC  H13Y 7472   0.590   3.287   6.281 -1.5178 -2.5701  1.0400
   80SLPC  C314 7473   0.633   3.455   6.411  0.5778  0.3314  0.1248
   80SLPC  H14X 7474   0.739   3.470   6.379  0.9672  0.6452  1.5096
   80SLPC  H14Y 7475   0.634   3.487   6.517 -0.6523  0.5533  0.0765
   80SLPC  C315 7476   0.544   3.554   6.333 -0.4258  0.1909  0.6513
   80SLPC  H15X 7477   0.438   3.525   6.345 -0.4679 -0.7077 -1.5820
   80SLPC  H15Y 7478   0.568   3.553   6.225 -3.1422 -1.5919 -0.0470
   80SLPC  C316 7479   0.547   3.703   6.387  0.3254  0.1123  0.1149
   80SLPC  H16X 7480   0.519   3.706   6.495  0.2437  1.0400  0.0724
   80SLPC  H16Y 7481   0.463   3.759   6.342 -1.6896 -1.5853  1.5718
   80SLPC  C317 7482   0.675   3.766   6.345 -0.5645 -0.7418 -0.1879
   80SLPC  H17X 7483   0.762   3.707   6.381 -0.0061 -1.1157 -2.0148
   80SLPC  H17Y 7484   0.680   3.857   6.409 -1.1895 -1.3457  0.7443
   80SLPC  C318 7485   0.677   3.797   6.191  0.4792  0.4443 -0.4490
   80SLPC  H18X 7486   0.710   3.714   6.125 -0.4362 -0.5980  0.3660
   80SLPC  H18Y 7487   0.752   3.874   6.163  0.3203  0.8799  0.2844
   80SLPC  H18Z 7488   0.573   3.826   6.162 -0.3446 -1.0379  0.8258
   81SLPC     N 7489   4.655   0.861   3.914  0.3416  0.3292  0.0060
   81SLPC   C13 7490   4.604   0.733   3.980 -0.1773  0.1562 -0.6624
   81SLPC  H13A 7491   4.685   0.685   4.034  1.3978  3.6398  0.3626
   81SLPC  H13B 7492   4.521   0.766   4.042 -1.7707 -1.9424 -1.5602
   81SLPC  H13C 7493   4.565   0.659   3.911  1.4652 -2.2832  0.8536
   81SLPC   C14 7494   4.524   0.930   3.872  0.0952  0.5775  0.1675
   81SLPC  H14A 7495   4.459   0.951   3.955 -0.2498  0.7140 -0.1370
   81SLPC  H14B 7496   4.548   1.020   3.817  2.1140  0.2447  0.4250
   81SLPC  H14C 7497   4.470   0.874   3.798  2.4796 -0.4730 -0.9084
   81SLPC   C15 7498   4.725   0.801   3.793 -0.4103 -0.4619  0.1016
   81SLPC  H15A 7499   4.662   0.734   3.737 -0.1754 -0.4561 -0.1719
   81SLPC  H15B 7500   4.744   0.883   3.725 -2.1762 -0.2914 -0.2245
   81SLPC  H15C 7501   4.815   0.747   3.817 -0.9039 -1.2568  0.1977
   81SLPC   C12 7502   4.741   0.943   4.008  0.1660 -0.0361  0.6715
   81SLPC  H12A 7503   4.684   0.989   4.087 -0.5011  2.5101 -1.1543
   81SLPC  H12B 7504   4.771   1.034   3.958  1.1974 -0.1755  1.0097
   81SLPC   C11 7505   4.866   0.878   4.066  0.4532  0.2149  0.1024
   81SLPC  H11A 7506   4.835   0.789   4.125 -0.0852 -0.3924 -1.0666
   81SLPC  H11B 7507   4.918   0.943   4.139  1.4630 -0.6569  0.1888
   81SLPC     P 7508   5.064   0.921   3.911 -0.2879 -0.2965 -0.6205
   81SLPC   O13 7509   5.141   0.857   3.804 -0.3451 -0.7248  0.0230
   81SLPC   O14 7510   5.016   1.062   3.895  0.5037  0.7002 -0.3692
   81SLPC   O12 7511   4.946   0.830   3.958 -0.1242  0.3131  0.0167
   81SLPC   O11 7512   5.158   0.912   4.042 -0.3466 -0.0409 -0.2741
   81SLPC    C1 7513   5.241   0.802   4.059 -0.5185  0.5305 -0.6572
   81SLPC    HA 7514   5.224   0.715   3.993  2.1118 -0.8881  0.3705
   81SLPC    HB 7515   5.343   0.841   4.037 -0.4598 -0.0924 -1.5302
   81SLPC    C2 7516   5.246   0.754   4.205  0.6535  0.0692  0.2331
   81SLPC    HS 7517   5.144   0.721   4.231 -0.2008  1.1481 -1.6055
   81SLPC   O21 7518   5.299   0.866   4.291  0.2002  0.5008  0.5082
   81SLPC   C21 7519   5.211   0.912   4.375  0.1777 -0.4914 -0.0686
   81SLPC   O22 7520   5.096   0.874   4.399  0.2732 -0.7928 -0.2899
   81SLPC   C22 7521   5.277   1.022   4.457 -0.2587 -0.6628  0.4258
   81SLPC   H2R 7522   5.347   1.080   4.393 -1.5133 -0.9563 -1.2859
   81SLPC   H2S 7523   5.203   1.096   4.493 -0.4845  0.3714 -2.0256
   81SLPC    C3 7524   5.344   0.633   4.212 -0.6335  0.1715  0.2927
   81SLPC    HX 7525   5.441   0.674   4.176  0.4023 -0.8819  1.7665
   81SLPC    HY 7526   5.299   0.563   4.139  0.6017  1.3250 -1.6708
   81SLPC   O31 7527   5.349   0.583   4.348 -0.4537 -0.1860 -0.1307
   81SLPC   C31 7528   5.463   0.540   4.384 -0.1548 -0.1084  0.2134
   81SLPC   O32 7529   5.562   0.550   4.316 -0.4400  0.2692  0.2081
   81SLPC   C32 7530   5.448   0.455   4.510  0.0054  0.5603  0.0056
   81SLPC   H2X 7531   5.550   0.411   4.517 -0.6324 -1.0843 -0.5901
   81SLPC   H2Y 7532   5.369   0.378   4.497 -0.4597  0.9595  0.4222
   81SLPC   C23 7533   5.362   0.964   4.574  0.4029  0.6571  0.3716
   81SLPC   H3R 7534   5.436   1.046   4.586 -0.5286  1.6073 -0.2677
   81SLPC   H3S 7535   5.410   0.864   4.566 -1.2635 -0.4549  2.8849
   81SLPC   C24 7536   5.282   0.963   4.709 -0.7596  0.2995 -0.3684
   81SLPC   H4R 7537   5.187   0.906   4.705  0.1165 -1.2474 -0.0535
   81SLPC   H4S 7538   5.251   1.063   4.746 -1.3079  0.2304 -0.6384
   81SLPC   C25 7539   5.359   0.900   4.826  0.6485 -0.9460  0.6972
   81SLPC   H5R 7540   5.456   0.955   4.830 -0.3766  1.0048 -0.0670
   81SLPC   H5S 7541   5.390   0.797   4.796 -0.4926 -0.8828 -0.7843
   81SLPC   C26 7542   5.291   0.908   4.959  0.1552  0.7486  1.0693
   81SLPC   H6R 7543   5.231   0.814   4.956 -1.6357  1.8441 -1.5549
   81SLPC   H6S 7544   5.226   0.998   4.962 -3.9942 -1.9203  0.0920
   81SLPC   C27 7545   5.381   0.901   5.083  0.0963 -0.1982 -0.1009
   81SLPC   H7R 7546   5.442   0.994   5.086  2.2910 -1.5568  0.1509
   81SLPC   H7S 7547   5.455   0.819   5.070 -1.9693 -2.1945  0.1839
   81SLPC   C28 7548   5.289   0.904   5.209  0.8672  0.5163 -1.0266
   81SLPC   H8R 7549   5.241   0.805   5.224  1.2106  0.5932  0.8199
   81SLPC   H8S 7550   5.205   0.976   5.206  1.2516  0.9830 -0.6715
   81SLPC   C29 7551   5.376   0.945   5.326  0.0262 -0.8617 -0.1135
   81SLPC   H9R 7552   5.442   1.031   5.305 -1.8341  0.6237 -0.2764
   81SLPC  C210 7553   5.390   0.896   5.447 -0.3114 -0.0504 -0.0426
   81SLPC  H10R 7554   5.460   0.945   5.516 -1.3834  1.8125 -0.2280
   81SLPC  C211 7555   5.320   0.770   5.502 -0.3447 -0.3160  0.1483
   81SLPC  H11R 7556   5.399   0.699   5.534 -1.3123 -1.8403 -0.7606
   81SLPC  H11S 7557   5.259   0.726   5.421 -1.4533  3.0802 -1.0184
   81SLPC  C212 7558   5.231   0.794   5.624  0.4456  0.8586 -0.0783
   81SLPC  H12R 7559   5.136   0.840   5.593  0.5152  1.1718  0.1718
   81SLPC  C213 7560   5.238   0.752   5.750 -0.0523 -0.4866 -0.0776
   81SLPC  H13R 7561   5.153   0.758   5.820  1.0045  0.7270  1.1626
   81SLPC  C214 7562   5.343   0.666   5.817  0.1926 -0.6773  0.1091
   81SLPC  H14R 7563   5.393   0.595   5.748 -0.1272 -0.8254  0.0261
   81SLPC  H14S 7564   5.299   0.606   5.900 -1.4748  0.4437  0.0923
   81SLPC  C215 7565   5.446   0.759   5.878  0.1502  0.4292 -0.8694
   81SLPC  H15R 7566   5.394   0.823   5.953  1.5603  0.8597 -0.2389
   81SLPC  H15S 7567   5.492   0.820   5.798  0.4705 -1.1416 -1.9280
   81SLPC  C216 7568   5.554   0.692   5.955 -0.0348  0.0330  0.5261
   81SLPC  H16R 7569   5.618   0.628   5.890 -1.0051  0.8239 -1.2669
   81SLPC  H16S 7570   5.505   0.629   6.032  2.8795  0.0029  2.5492
   81SLPC  C217 7571   5.644   0.794   6.024 -0.3998  0.4436 -0.2497
   81SLPC  H17R 7572   5.576   0.869   6.069 -1.4022 -1.0888  0.8644
   81SLPC  H17S 7573   5.716   0.833   5.949  1.1793  0.4887  1.2196
   81SLPC  C218 7574   5.720   0.733   6.139 -0.0890 -0.1900  0.1748
   81SLPC  H18R 7575   5.661   0.675   6.213 -2.4033  1.6246 -0.1287
   81SLPC  H18S 7576   5.764   0.819   6.194 -1.4380  0.0152  0.9731
   81SLPC  H18T 7577   5.800   0.675   6.088 -0.5583  0.7747 -1.7600
   81SLPC   C33 7578   5.424   0.532   4.640 -0.0269 -0.5211 -0.1970
   81SLPC   H3X 7579   5.321   0.574   4.636 -1.2082 -3.2849 -3.5607
   81SLPC   H3Y 7580   5.476   0.630   4.633 -0.9495 -0.0461 -0.7280
   81SLPC   C34 7581   5.443   0.457   4.772 -0.2909 -0.0553  0.6802
   81SLPC   H4X 7582   5.547   0.419   4.780  0.2101  1.3427  1.0913
   81SLPC   H4Y 7583   5.368   0.376   4.786  1.3939 -1.3091  3.3979
   81SLPC   C35 7584   5.414   0.544   4.893 -0.5181 -0.9184  0.1771
   81SLPC   H5X 7585   5.317   0.597   4.883 -0.6161 -1.0701  0.3179
   81SLPC   H5Y 7586   5.493   0.622   4.899  0.6045 -1.9560 -0.5533
   81SLPC   C36 7587   5.416   0.468   5.022  0.6641 -0.8162  0.3618
   81SLPC   H6X 7588   5.523   0.443   5.040  0.3729 -2.9214 -0.5417
   81SLPC   H6Y 7589   5.362   0.371   5.011  0.3571 -0.8857  2.1353
   81SLPC   C37 7590   5.357   0.548   5.142 -0.0568 -0.0017 -0.6982
   81SLPC   H7X 7591   5.258   0.593   5.117 -0.3341 -1.6572 -2.8768
   81SLPC   H7Y 7592   5.428   0.631   5.164 -0.8032 -0.0129  2.2316
   81SLPC   C38 7593   5.354   0.459   5.264  0.6141 -0.0808 -0.3354
   81SLPC   H8X 7594   5.299   0.365   5.242 -1.0000  0.5346  0.9028
   81SLPC   H8Y 7595   5.296   0.517   5.339  0.4549  1.5589 -1.6469
   81SLPC   C39 7596   5.494   0.427   5.320 -0.5512 -0.5829 -0.2203
   81SLPC   H9X 7597   5.552   0.519   5.345 -0.5928 -0.7524  0.5178
   81SLPC   H9Y 7598   5.547   0.377   5.236  0.0926 -1.1620  0.5095
   81SLPC  C310 7599   5.489   0.330   5.440 -0.2807 -0.1846 -0.2088
   81SLPC  H10X 7600   5.582   0.333   5.500 -0.2375  0.9546 -0.3011
   81SLPC  H10Y 7601   5.480   0.228   5.398 -1.4836 -0.0532 -0.2853
   81SLPC  C311 7602   5.369   0.351   5.539 -0.4143  0.3949 -0.3798
   81SLPC  H11X 7603   5.275   0.319   5.489  1.2860 -0.8972 -2.9505
   81SLPC  H11Y 7604   5.355   0.458   5.565  2.3799  1.0400 -1.2734
   81SLPC  C312 7605   5.391   0.271   5.667  0.1431 -1.3061 -0.0761
   81SLPC  H12X 7606   5.450   0.330   5.741 -0.6217  1.5011 -1.5708
   81SLPC  H12Y 7607   5.453   0.184   5.636  0.0286 -1.0398 -1.0638
   81SLPC  C313 7608   5.271   0.215   5.729  0.1962  0.4424 -0.0681
   81SLPC  H13X 7609   5.292   0.144   5.812 -0.5991 -0.8839 -0.9631
   81SLPC  H13Y 7610   5.222   0.159   5.647  2.3765  1.6459 -2.3308
   81SLPC  C314 7611   5.169   0.314   5.794 -0.0928 -0.6668  0.1139
   81SLPC  H14X 7612   5.079   0.299   5.730  0.9425  0.1459 -1.6321
   81SLPC  H14Y 7613   5.204   0.418   5.776  0.5432 -0.9462 -0.3194
   81SLPC  C315 7614   5.130   0.289   5.940  0.7096  0.6121  0.4189
   81SLPC  H15X 7615   5.215   0.315   6.007  0.3741 -0.6069  1.3554
   81SLPC  H15Y 7616   5.117   0.179   5.953 -2.0512  0.3653 -3.0503
   81SLPC  C316 7617   4.999   0.348   5.972  0.1736  0.3119 -0.2187
   81SLPC  H16X 7618   4.927   0.321   5.892 -0.0788  1.4171 -0.3702
   81SLPC  H16Y 7619   5.010   0.458   5.974  0.2855  0.3408 -1.4881
   81SLPC  C317 7620   4.957   0.303   6.115  0.0761  0.3964 -0.6244
   81SLPC  H17X 7621   5.054   0.299   6.169  0.8318 -0.4235 -1.9654
   81SLPC  H17Y 7622   4.925   0.196   6.116 -1.3157  0.7670 -1.9783
   81SLPC  C318 7623   4.856   0.381   6.187 -0.2102 -0.2925  0.5795
   81SLPC  H18X 7624   4.842   0.344   6.291 -0.6702 -1.2684  0.1826
   81SLPC  H18Y 7625   4.757   0.395   6.138  0.3525 -0.7764 -0.7115
   81SLPC  H18Z 7626   4.889   0.485   6.209 -0.3054 -0.4866  1.7095
   82SLPC     N 7627   2.617   0.429   4.343  0.4056  0.8357 -0.1728
   82SLPC   C13 7628   2.733   0.390   4.430 -0.4746 -0.1868  0.3769
   82SLPC  H13A 7629   2.704   0.372   4.532 -2.2033 -1.2558 -0.2615
   82SLPC  H13B 7630   2.789   0.308   4.388  2.1494  2.4893 -1.7929
   82SLPC  H13C 7631   2.799   0.476   4.436  0.4397 -0.7212 -1.3227
   82SLPC   C14 7632   2.525   0.304   4.328  0.4389  0.1393  0.9631
   82SLPC  H14A 7633   2.577   0.224   4.277  0.9410  1.4284 -0.6615
   82SLPC  H14B 7634   2.483   0.273   4.422  1.8395 -0.4942  1.4137
   82SLPC  H14C 7635   2.442   0.334   4.266 -0.8988  0.7324  2.9444
   82SLPC   C15 7636   2.673   0.454   4.212 -0.9767  0.3258 -0.2345
   82SLPC  H15A 7637   2.593   0.454   4.139 -2.1467  0.5814  1.0069
   82SLPC  H15B 7638   2.721   0.551   4.207 -3.2883  1.5812  0.1486
   82SLPC  H15C 7639   2.744   0.377   4.187  0.3763  1.1428  0.9308
   82SLPC   C12 7640   2.542   0.543   4.415  0.2891 -0.0939  0.1389
   82SLPC  H12A 7641   2.485   0.499   4.496  0.2845 -0.3695 -0.0143
   82SLPC  H12B 7642   2.475   0.575   4.337  0.5794 -2.8258 -1.3401
   82SLPC   C11 7643   2.605   0.668   4.467  0.3128  0.7697 -0.8781
   82SLPC  H11A 7644   2.691   0.638   4.530 -1.4457 -1.5918  0.5987
   82SLPC  H11B 7645   2.536   0.707   4.545  2.1688  1.2268  0.5903
   82SLPC     P 7646   2.563   0.870   4.299  0.0304 -0.1099 -0.4571
   82SLPC   O13 7647   2.656   0.973   4.242 -0.2683 -0.2880 -0.2368
   82SLPC   O14 7648   2.465   0.799   4.210  0.1059 -0.0374 -0.5116
   82SLPC   O12 7649   2.648   0.761   4.371 -0.3155 -0.1221  0.2054
   82SLPC   O11 7650   2.482   0.915   4.424 -0.8142 -0.2487  0.0510
   82SLPC    C1 7651   2.483   1.039   4.482 -0.6344 -0.0306 -0.0021
   82SLPC    HA 7652   2.514   1.125   4.418 -1.9261 -1.9405 -3.3964
   82SLPC    HB 7653   2.377   1.051   4.510 -0.5161 -0.2800  0.5763
   82SLPC    C2 7654   2.557   1.025   4.620  0.1718  0.8391 -0.4474
   82SLPC    HS 7655   2.656   0.979   4.602  2.3062  4.2759  1.5393
   82SLPC   O21 7656   2.476   0.950   4.716  0.1006 -0.3334  0.0376
   82SLPC   C21 7657   2.544   0.873   4.790  0.2012  0.3969 -0.0270
   82SLPC   O22 7658   2.662   0.855   4.789 -0.5026  0.1266 -0.2644
   82SLPC   C22 7659   2.456   0.801   4.886  0.1944 -0.8889  1.0695
   82SLPC   H2R 7660   2.359   0.776   4.838  0.9648 -4.6182  1.1674
   82SLPC   H2S 7661   2.499   0.700   4.903  2.7841  0.1354  1.1451
   82SLPC    C3 7662   2.590   1.172   4.664 -0.0019  0.3480 -0.0668
   82SLPC    HX 7663   2.506   1.245   4.656  0.4883  0.8005 -1.2925
   82SLPC    HY 7664   2.661   1.199   4.583 -0.0080  0.5595 -0.0017
   82SLPC   O31 7665   2.650   1.179   4.801 -0.0700  0.5429  0.0879
   82SLPC   C31 7666   2.779   1.161   4.814  1.1676  0.0383 -0.2983
   82SLPC   O32 7667   2.851   1.153   4.719  0.0826 -0.2062  0.1175
   82SLPC   C32 7668   2.823   1.182   4.957  0.2829 -0.4994 -0.0658
   82SLPC   H2X 7669   2.786   1.102   5.024  0.0036  0.2184  0.6537
   82SLPC   H2Y 7670   2.778   1.276   4.996  1.7568 -0.7905  2.5719
   82SLPC   C23 7671   2.442   0.882   5.019 -0.4939  0.0080 -0.3079
   82SLPC   H3R 7672   2.342   0.861   5.061 -0.6263  0.0114 -0.6236
   82SLPC   H3S 7673   2.446   0.989   4.989  0.2356 -0.1290 -0.7235
   82SLPC   C24 7674   2.555   0.852   5.121  0.7158  0.3571 -0.2530
   82SLPC   H4R 7675   2.657   0.826   5.083  0.8022  1.5293 -0.8473
   82SLPC   H4S 7676   2.518   0.769   5.185 -0.4983  0.8161 -0.3392
   82SLPC   C25 7677   2.575   0.960   5.226  0.5938 -0.1050 -0.2588
   82SLPC   H5R 7678   2.503   0.937   5.307  2.6360 -0.9807  1.4200
   82SLPC   H5S 7679   2.567   1.063   5.184  1.3001 -0.0009 -0.1502
   82SLPC   C26 7680   2.715   0.948   5.289 -0.4155  0.3085 -0.0456
   82SLPC   H6R 7681   2.729   1.052   5.326 -0.4132 -0.4073  2.0387
   82SLPC   H6S 7682   2.793   0.932   5.211  1.1928  3.5609  0.7066
   82SLPC   C27 7683   2.726   0.861   5.415 -0.3465  0.3098  0.1151
   82SLPC   H7R 7684   2.745   0.761   5.371 -0.9492  1.0846 -2.0436
   82SLPC   H7S 7685   2.628   0.843   5.464  0.2105 -0.1238  1.1163
   82SLPC   C28 7686   2.829   0.896   5.521  0.1384 -0.4067  0.6004
   82SLPC   H8R 7687   2.840   1.005   5.539  0.0322 -0.0562 -1.1870
   82SLPC   H8S 7688   2.927   0.859   5.486 -0.1972  0.7243 -1.7637
   82SLPC   C29 7689   2.782   0.820   5.644 -0.0327  0.1697 -0.0896
   82SLPC   H9R 7690   2.786   0.710   5.635  1.0864  0.1095  0.8385
   82SLPC  C210 7691   2.754   0.867   5.767 -0.1854  0.4644 -0.0544
   82SLPC  H10R 7692   2.720   0.796   5.844  1.5066  0.2230  0.4986
   82SLPC  C211 7693   2.759   1.013   5.807 -0.2668  0.5020  0.6844
   82SLPC  H11R 7694   2.656   1.043   5.834 -0.5458 -0.3953  0.6499
   82SLPC  H11S 7695   2.789   1.072   5.718 -1.1111  1.7142  1.1848
   82SLPC  C212 7696   2.864   1.024   5.913 -0.6986 -0.9496 -0.4061
   82SLPC  H12R 7697   2.966   1.016   5.872 -0.5200  1.8724 -0.6946
   82SLPC  C213 7698   2.847   1.046   6.044  0.5649  0.6302 -0.0620
   82SLPC  H13R 7699   2.932   1.051   6.114  0.2063 -2.3659  0.7272
   82SLPC  C214 7700   2.715   1.051   6.117 -0.3869  0.2295  0.2790
   82SLPC  H14R 7701   2.636   0.991   6.069 -2.5774  1.8880  1.6168
   82SLPC  H14S 7702   2.680   1.156   6.126  1.2331  0.7485  0.9970
   82SLPC  C215 7703   2.740   1.008   6.264  0.0662  0.3267  0.0779
   82SLPC  H15R 7704   2.645   0.991   6.320  0.8378  0.4126  1.4627
   82SLPC  H15S 7705   2.785   1.096   6.313  0.2337  0.2198  0.1173
   82SLPC  C216 7706   2.817   0.882   6.296  0.2408  0.2805 -0.7474
   82SLPC  H16R 7707   2.819   0.869   6.407  0.4666  0.7392 -0.6966
   82SLPC  H16S 7708   2.925   0.880   6.270  0.2344  1.5041 -0.9207
   82SLPC  C217 7709   2.759   0.762   6.224 -0.5990  0.4542  0.3181
   82SLPC  H17R 7710   2.772   0.789   6.117  0.0984 -2.3334 -0.3848
   82SLPC  H17S 7711   2.653   0.741   6.249 -1.0350 -0.6563 -2.1793
   82SLPC  C218 7712   2.846   0.636   6.241  0.1126 -0.1974  0.1776
   82SLPC  H18R 7713   2.821   0.556   6.168  1.0040  0.7965 -1.2679
   82SLPC  H18S 7714   2.837   0.598   6.345  4.5349 -0.3704  0.6958
   82SLPC  H18T 7715   2.949   0.674   6.226  0.2511 -0.7645 -0.3320
   82SLPC   C33 7716   2.975   1.190   4.941  0.6878  0.2138 -0.4759
   82SLPC   H3X 7717   3.008   1.258   4.859  3.4172 -0.5203 -0.0920
   82SLPC   H3Y 7718   3.023   1.094   4.911 -1.5831 -0.9223 -0.6779
   82SLPC   C34 7719   3.043   1.238   5.071 -0.4284  0.0624  0.4088
   82SLPC   H4X 7720   2.980   1.324   5.102 -1.9943 -0.2209 -1.7113
   82SLPC   H4Y 7721   3.146   1.270   5.045 -1.3013  1.7400 -1.2827
   82SLPC   C35 7722   3.062   1.135   5.182 -0.2969 -0.5579 -0.1401
   82SLPC   H5X 7723   3.153   1.078   5.157 -0.1074 -0.4111  0.2100
   82SLPC   H5Y 7724   2.972   1.073   5.204 -1.7841  1.5457  0.0462
   82SLPC   C36 7725   3.090   1.216   5.312  0.0690 -0.4106 -0.3907
   82SLPC   H6X 7726   2.997   1.254   5.357  0.8527  1.2269 -0.0917
   82SLPC   H6Y 7727   3.155   1.301   5.282 -1.1120  0.0011 -1.9211
   82SLPC   C37 7728   3.148   1.120   5.414  0.0295  0.2057  0.0979
   82SLPC   H7X 7729   3.250   1.090   5.381  0.8233 -0.3905  2.8573
   82SLPC   H7Y 7730   3.083   1.031   5.431  0.4709 -0.2772 -0.6520
   82SLPC   C38 7731   3.154   1.185   5.556  0.1703 -0.1608  0.7644
   82SLPC   H8X 7732   3.065   1.247   5.581 -0.2311  0.1460 -1.2256
   82SLPC   H8Y 7733   3.243   1.252   5.557  0.3061 -0.2973 -0.3870
   82SLPC   C39 7734   3.185   1.083   5.659  0.1297  0.2369 -0.2738
   82SLPC   H9X 7735   3.273   1.023   5.626  0.5309  0.1297  0.9576
   82SLPC   H9Y 7736   3.089   1.029   5.674 -0.8221  2.6167  3.3390
   82SLPC  C310 7737   3.231   1.133   5.793  0.0786  0.4479  0.0040
   82SLPC  H10X 7738   3.151   1.202   5.828 -0.5159  0.0405 -0.5243
   82SLPC  H10Y 7739   3.315   1.206   5.785  1.0263 -0.5319  0.7922
   82SLPC  C311 7740   3.247   1.017   5.890 -0.2182  0.1993 -0.4483
   82SLPC  H11X 7741   3.329   0.950   5.857  0.2348  1.2774 -1.5984
   82SLPC  H11Y 7742   3.164   0.945   5.907  0.2696 -0.3158 -0.2008
   82SLPC  C312 7743   3.311   1.053   6.032  0.6477 -0.6153  0.1633
   82SLPC  H12X 7744   3.240   1.114   6.091 -0.0877 -0.6546 -0.6583
   82SLPC  H12Y 7745   3.400   1.115   6.007  0.3751 -0.0226  0.6686
   82SLPC  C313 7746   3.359   0.943   6.132 -0.5339  0.8235 -0.2517
   82SLPC  H13X 7747   3.266   0.887   6.156 -0.1238  0.3670  0.2621
   82SLPC  H13Y 7748   3.406   0.983   6.224  2.0876  0.0272 -1.1478
   82SLPC  C314 7749   3.459   0.840   6.069 -0.2709  0.1856 -0.7818
   82SLPC  H14X 7750   3.557   0.891   6.054  2.0415 -3.5983  0.0978
   82SLPC  H14Y 7751   3.420   0.794   5.976 -0.7784  0.3282 -0.6427
   82SLPC  C315 7752   3.499   0.722   6.167 -0.5050 -0.4074 -0.2485
   82SLPC  H15X 7753   3.574   0.653   6.124  0.7989 -0.7524  2.3636
   82SLPC  H15Y 7754   3.417   0.651   6.190 -1.9432  0.4095 -2.5354
   82SLPC  C316 7755   3.544   0.769   6.302 -0.3390  0.3190  0.2807
   82SLPC  H16X 7756   3.466   0.824   6.360  0.6980  1.6883  0.4418
   82SLPC  H16Y 7757   3.621   0.849   6.300 -0.6057  0.5751 -1.0284
   82SLPC  C317 7758   3.575   0.651   6.401 -0.5299 -0.1937 -0.1504
   82SLPC  H17X 7759   3.655   0.586   6.360 -0.3197 -1.9131  2.7295
   82SLPC  H17Y 7760   3.484   0.591   6.423 -0.9120 -0.1445 -1.5169
   82SLPC  C318 7761   3.630   0.705   6.541  0.0650 -0.2396  0.3288
   82SLPC  H18X 7762   3.626   0.620   6.611  1.2105  0.7479  1.6590
   82SLPC  H18Y 7763   3.590   0.805   6.571  2.7310  0.7491  0.9465
   82SLPC  H18Z 7764   3.738   0.730   6.535  0.0714 -0.3016  0.1857
   83SLPC     N 7765   3.678   6.484   3.740 -0.3956  0.2822  0.0791
   83SLPC   C13 7766   3.581   6.420   3.642 -0.4661 -0.2098 -0.2642
   83SLPC  H13A 7767   3.610   6.458   3.545 -0.8682  0.0701 -0.2754
   83SLPC  H13B 7768   3.586   6.312   3.643 -0.8613 -0.2300 -0.1827
   83SLPC  H13C 7769   3.478   6.443   3.665 -0.6222 -0.6933 -0.4728
   83SLPC   C14 7770   3.643   6.629   3.742 -0.1556  0.6132 -0.5806
   83SLPC  H14A 7771   3.608   6.671   3.649  0.8018  2.9802  0.0399
   83SLPC  H14B 7772   3.583   6.649   3.830  0.9140 -3.1723  1.2007
   83SLPC  H14C 7773   3.738   6.676   3.765  0.8871 -1.5727 -0.1478
   83SLPC   C15 7774   3.817   6.478   3.676 -0.4957 -0.5294  0.4765
   83SLPC  H15A 7775   3.895   6.515   3.742  0.4523 -2.9183  0.7791
   83SLPC  H15B 7776   3.837   6.376   3.650 -0.4638 -0.8847  1.8034
   83SLPC  H15C 7777   3.826   6.536   3.585  0.8309  0.6794  1.3262
   83SLPC   C12 7778   3.682   6.432   3.887  0.0285 -0.6327  0.0660
   83SLPC  H12A 7779   3.754   6.497   3.935 -1.0046 -0.9422  2.1767
   83SLPC  H12B 7780   3.729   6.334   3.888 -0.2497 -0.8788 -2.8248
   83SLPC   C11 7781   3.563   6.441   3.985  0.0190 -0.4479  0.7946
   83SLPC  H11A 7782   3.591   6.389   4.079 -0.5637  1.4907  2.1122
   83SLPC  H11B 7783   3.484   6.383   3.931 -0.3685 -0.4938  1.4011
   83SLPC     P 7784   3.599   6.655   4.132  0.1488  0.0083 -0.5277
   83SLPC   O13 7785   3.744   6.639   4.120 -0.2771 -0.2672  0.9744
   83SLPC   O14 7786   3.555   6.796   4.124 -0.1730 -0.1383  0.0465
   83SLPC   O12 7787   3.533   6.572   4.013  0.7024 -0.4070 -0.1151
   83SLPC   O11 7788   3.553   6.586   4.265  0.1315  0.5473  0.1099
   83SLPC    C1 7789   3.417   6.609   4.317 -0.0266 -0.0068 -0.2204
   83SLPC    HA 7790   3.384   6.713   4.298 -0.9834  0.2851  2.5741
   83SLPC    HB 7791   3.343   6.538   4.273 -0.5358  1.0158 -1.0498
   83SLPC    C2 7792   3.438   6.593   4.473  0.5721 -0.6703  0.8498
   83SLPC    HS 7793   3.339   6.598   4.524  0.3899 -3.2848  0.8829
   83SLPC   O21 7794   3.529   6.693   4.533 -0.3422  0.5141  0.5293
   83SLPC   C21 7795   3.475   6.808   4.563  0.0570  0.3410 -0.0936
   83SLPC   O22 7796   3.364   6.843   4.532 -0.6065 -0.2727  0.4690
   83SLPC   C22 7797   3.573   6.878   4.652 -0.4680  0.0167 -0.2263
   83SLPC   H2R 7798   3.572   6.818   4.746  3.1127  0.8830  0.5118
   83SLPC   H2S 7799   3.674   6.854   4.614 -1.3425 -0.2588 -2.4981
   83SLPC    C3 7800   3.500   6.452   4.515  0.2987 -0.0530 -0.4921
   83SLPC    HX 7801   3.591   6.432   4.455  1.9525 -2.1393  2.4527
   83SLPC    HY 7802   3.433   6.366   4.493  0.8449 -0.4626 -0.5713
   83SLPC   O31 7803   3.536   6.440   4.661 -0.3014  0.2697 -0.4426
   83SLPC   C31 7804   3.435   6.421   4.739 -0.5445  0.1802  0.0315
   83SLPC   O32 7805   3.317   6.425   4.702 -0.1150  0.3921  0.1920
   83SLPC   C32 7806   3.489   6.412   4.882 -0.2317 -0.0475  0.2630
   83SLPC   H2X 7807   3.405   6.411   4.954  0.4830  0.6441  1.1342
   83SLPC   H2Y 7808   3.546   6.506   4.897 -1.2725  0.5503  0.5925
   83SLPC   C23 7809   3.532   7.026   4.668 -0.1459  0.2228  0.6333
   83SLPC   H3R 7810   3.423   7.026   4.689 -0.9080 -1.3071 -2.6473
   83SLPC   H3S 7811   3.557   7.075   4.571 -1.6923 -0.1907 -0.0021
   83SLPC   C24 7812   3.611   7.098   4.776 -0.2915  0.5068 -0.1253
   83SLPC   H4R 7813   3.578   7.201   4.801 -2.2473  0.1648 -1.0767
   83SLPC   H4S 7814   3.708   7.116   4.725  0.3548  0.2943  0.9866
   83SLPC   C25 7815   3.647   7.020   4.909  0.4696 -0.6005 -0.0760
   83SLPC   H5R 7816   3.693   6.922   4.885  1.1705 -0.7157  1.6394
   83SLPC   H5S 7817   3.551   6.995   4.960  0.5015 -1.3989 -0.4026
   83SLPC   C26 7818   3.734   7.099   5.004 -0.1397  0.5610  0.0717
   83SLPC   H6R 7819   3.681   7.195   5.019 -2.5707 -0.6015 -0.5350
   83SLPC   H6S 7820   3.830   7.107   4.950 -0.2641 -1.9220 -0.6517
   83SLPC   C27 7821   3.763   7.046   5.142  0.1135 -0.4282 -0.1746
   83SLPC   H7R 7822   3.827   6.956   5.152  1.8437  0.8201  0.4121
   83SLPC   H7S 7823   3.667   7.032   5.197  0.8560 -0.6608  1.0962
   83SLPC   C28 7824   3.839   7.141   5.231  0.0780 -0.1104 -0.0036
   83SLPC   H8R 7825   3.772   7.228   5.244 -1.7844 -1.7301  2.1521
   83SLPC   H8S 7826   3.938   7.174   5.193 -0.3722  0.2816 -0.8575
   83SLPC   C29 7827   3.855   7.075   5.366  0.2226  0.3869 -0.6156
   83SLPC   H9R 7828   3.935   7.000   5.369  0.1595  0.3466  1.0794
   83SLPC  C210 7829   3.793   7.116   5.485  0.5596  0.2131  0.5297
   83SLPC  H10R 7830   3.802   7.058   5.577 -1.0276  0.7879  1.0935
   83SLPC  C211 7831   3.683   7.227   5.497 -0.0929  0.3675 -0.2612
   83SLPC  H11R 7832   3.606   7.167   5.549  1.1038 -2.8189 -1.8764
   83SLPC  H11S 7833   3.640   7.250   5.397  1.0540 -1.5356 -1.2505
   83SLPC  C212 7834   3.728   7.358   5.566  0.6137  0.3676  0.5719
   83SLPC  H12R 7835   3.787   7.430   5.508  1.0464  1.2541  2.0511
   83SLPC  C213 7836   3.701   7.389   5.690  0.6993  0.0480 -0.1596
   83SLPC  H13R 7837   3.744   7.479   5.736 -1.4891  0.4098  1.3214
   83SLPC  C214 7838   3.627   7.307   5.791  0.0943 -0.4016 -0.0885
   83SLPC  H14R 7839   3.575   7.221   5.744 -0.3666  1.0822 -2.4334
   83SLPC  H14S 7840   3.545   7.370   5.831 -0.5910 -0.9948 -0.5352
   83SLPC  C215 7841   3.735   7.273   5.901 -0.2784  0.3677 -0.2232
   83SLPC  H15R 7842   3.755   7.370   5.949  0.1363 -0.3455  1.0899
   83SLPC  H15S 7843   3.837   7.250   5.863  0.1281  0.5043  0.7677
   83SLPC  C216 7844   3.679   7.183   6.009 -0.1858 -0.0387 -0.6689
   83SLPC  H16R 7845   3.658   7.082   5.970  0.5875 -0.9939  1.2361
   83SLPC  H16S 7846   3.584   7.232   6.041  0.8324  0.5739  1.7134
   83SLPC  C217 7847   3.772   7.170   6.123 -0.7738  0.0610  0.6686
   83SLPC  H17R 7848   3.794   7.274   6.155 -1.5049  0.0805  1.1207
   83SLPC  H17S 7849   3.857   7.105   6.094 -2.4529 -0.8570 -2.7454
   83SLPC  C218 7850   3.694   7.096   6.233  0.2257 -0.3069  0.1089
   83SLPC  H18R 7851   3.600   7.149   6.257 -0.2001  0.2694 -2.4568
   83SLPC  H18S 7852   3.754   7.100   6.326  1.1535 -0.5511 -0.4632
   83SLPC  H18T 7853   3.663   6.990   6.216  0.0888 -0.1971 -0.3540
   83SLPC   C33 7854   3.589   6.300   4.886 -0.3220 -0.6216 -0.4371
   83SLPC   H3X 7855   3.673   6.320   4.815 -1.4254  0.4628 -1.4839
   83SLPC   H3Y 7856   3.535   6.208   4.855  2.1908 -1.8603 -1.4867
   83SLPC   C34 7857   3.650   6.295   5.022 -0.2181 -0.1042 -0.3544
   83SLPC   H4X 7858   3.690   6.394   5.053  0.2077 -0.7910  1.4546
   83SLPC   H4Y 7859   3.736   6.225   5.010  1.5608  1.7683  0.6455
   83SLPC   C35 7860   3.558   6.249   5.135  0.2670  0.0807 -0.2445
   83SLPC   H5X 7861   3.510   6.151   5.117  0.5974 -0.1376  0.0515
   83SLPC   H5Y 7862   3.473   6.319   5.140 -0.7310 -1.1162  0.0349
   83SLPC   C36 7863   3.622   6.247   5.278  0.1341  0.3288  0.0275
   83SLPC   H6X 7864   3.660   6.351   5.286  0.1093  0.5005 -1.7695
   83SLPC   H6Y 7865   3.706   6.175   5.289  0.5416  0.8202  0.1454
   83SLPC   C37 7866   3.512   6.212   5.378  0.3714 -0.3846 -0.3459
   83SLPC   H7X 7867   3.477   6.107   5.370 -1.2778  0.2129 -1.4414
   83SLPC   H7Y 7868   3.427   6.282   5.362  1.7476  1.1844 -1.1619
   83SLPC   C38 7869   3.553   6.227   5.526 -0.1256 -0.3589  0.0884
   83SLPC   H8X 7870   3.577   6.335   5.529 -1.7857  0.0211  0.5061
   83SLPC   H8Y 7871   3.646   6.169   5.543  0.0981 -0.2470 -0.7182
   83SLPC   C39 7872   3.451   6.178   5.624  0.6346 -0.3676  0.5370
   83SLPC   H9X 7873   3.448   6.067   5.620  1.3075 -0.3569 -0.7984
   83SLPC   H9Y 7874   3.345   6.209   5.610  0.5133 -1.6087 -1.8466
   83SLPC  C310 7875   3.482   6.215   5.768 -0.4701  0.1378 -0.4014
   83SLPC  H10X 7876   3.476   6.326   5.775  0.0043  0.1640 -0.4038
   83SLPC  H10Y 7877   3.578   6.184   5.814 -0.7839 -1.6839 -0.8987
   83SLPC  C311 7878   3.374   6.144   5.857 -0.1834 -0.3768  0.8766
   83SLPC  H11X 7879   3.417   6.044   5.876 -0.6308 -0.6388  0.5492
   83SLPC  H11Y 7880   3.289   6.127   5.787  0.9130  0.3805 -0.7039
   83SLPC  C312 7881   3.333   6.222   5.982  0.4807 -0.6012 -0.5726
   83SLPC  H12X 7882   3.288   6.319   5.953  2.1224  0.7511  1.1996
   83SLPC  H12Y 7883   3.425   6.245   6.039  0.8613  1.4338 -1.9132
   83SLPC  C313 7884   3.232   6.145   6.076  0.1621  0.2094 -0.5163
   83SLPC  H13X 7885   3.227   6.206   6.168 -1.2604  0.8021 -0.9604
   83SLPC  H13Y 7886   3.285   6.054   6.113 -0.7783 -1.2032 -2.3977
   83SLPC  C314 7887   3.101   6.107   6.008  0.4690  0.4187  0.2191
   83SLPC  H14X 7888   3.034   6.052   6.078 -2.1696  1.6937 -1.1588
   83SLPC  H14Y 7889   3.123   6.043   5.920 -0.3432  0.8590 -0.3083
   83SLPC  C315 7890   3.008   6.219   5.951 -0.4891  0.3998 -0.2836
   83SLPC  H15X 7891   2.920   6.176   5.897  0.8059 -4.5109  1.0843
   83SLPC  H15Y 7892   3.080   6.266   5.881  1.2883  2.2636  2.5840
   83SLPC  C316 7893   2.966   6.297   6.068  0.8002  0.1261 -0.4260
   83SLPC  H16X 7894   3.039   6.369   6.111 -0.6641  1.0145  0.6965
   83SLPC  H16Y 7895   2.921   6.235   6.148 -0.1867 -1.0931 -1.8641
   83SLPC  C317 7896   2.869   6.413   6.029 -0.2461  0.1657 -0.3279
   83SLPC  H17X 7897   2.784   6.367   5.973 -0.5574 -0.0744  0.3308
   83SLPC  H17Y 7898   2.927   6.481   5.964 -0.6164  1.6288  0.8199
   83SLPC  C318 7899   2.827   6.492   6.152  0.1307 -0.4490 -0.4989
   83SLPC  H18X 7900   2.772   6.423   6.218  0.7969 -0.8813 -0.3828
   83SLPC  H18Y 7901   2.758   6.575   6.127  0.0352 -0.2023  0.5664
   83SLPC  H18Z 7902   2.920   6.537   6.193 -0.3069  2.6520 -2.6042
   84SLPC     N 7903   1.153   4.575   3.873 -0.3930 -1.3164  0.3976
   84SLPC   C13 7904   1.040   4.666   3.841  0.5378 -0.1137  0.2951
   84SLPC  H13A 7905   1.009   4.642   3.741 -1.7792 -1.6842  1.2930
   84SLPC  H13B 7906   0.964   4.658   3.917  2.5476 -2.0595  2.2498
   84SLPC  H13C 7907   1.075   4.768   3.846 -0.6310  0.3429 -0.5437
   84SLPC   C14 7908   1.263   4.628   3.789  0.7411  0.3786 -0.6669
   84SLPC  H14A 7909   1.301   4.722   3.827 -0.0484  0.0720  1.0024
   84SLPC  H14B 7910   1.352   4.567   3.798  1.9786  1.6354 -3.4502
   84SLPC  H14C 7911   1.224   4.631   3.689  0.4823  0.3672 -0.5687
   84SLPC   C15 7912   1.123   4.431   3.843  0.4230 -0.5256 -0.2066
   84SLPC  H15A 7913   1.051   4.394   3.915 -0.4853 -0.5976 -1.1384
   84SLPC  H15B 7914   1.088   4.413   3.743 -0.1902 -1.3700  0.1435
   84SLPC  H15C 7915   1.207   4.367   3.862 -0.3943 -1.6378 -0.2665
   84SLPC   C12 7916   1.185   4.594   4.024 -0.2072 -0.0760 -0.2305
   84SLPC  H12A 7917   1.224   4.695   4.029 -1.6495  0.4461  1.4791
   84SLPC  H12B 7918   1.280   4.549   4.046  0.4277  0.8531 -0.9901
   84SLPC   C11 7919   1.073   4.578   4.127  0.4042  0.1752 -0.5578
   84SLPC  H11A 7920   1.117   4.575   4.229  0.7846 -1.3681 -0.7432
   84SLPC  H11B 7921   1.023   4.479   4.117  0.8575 -0.0338 -0.7704
   84SLPC     P 7922   1.018   4.838   4.170 -0.2530  0.1601  0.1016
   84SLPC   O13 7923   1.165   4.862   4.142 -0.4064 -0.0692 -0.1569
   84SLPC   O14 7924   0.923   4.929   4.094  0.1419  0.5109  0.1210
   84SLPC   O12 7925   0.981   4.684   4.129  0.2759  0.5208 -0.4831
   84SLPC   O11 7926   1.005   4.853   4.321 -0.3107 -0.4572 -0.2519
   84SLPC    C1 7927   0.923   4.769   4.396  0.3730 -0.3019 -0.5019
   84SLPC    HA 7928   0.826   4.745   4.347 -0.0473  1.1026 -0.3943
   84SLPC    HB 7929   0.980   4.674   4.411  0.6591  0.0810  0.8980
   84SLPC    C2 7930   0.879   4.823   4.533 -0.1964 -0.0294 -0.1861
   84SLPC    HS 7931   0.821   4.914   4.508  1.4543  0.9603 -0.5058
   84SLPC   O21 7932   1.001   4.844   4.607 -0.3225 -0.8877  0.5640
   84SLPC   C21 7933   1.021   4.966   4.646 -0.1911 -0.3879  0.3027
   84SLPC   O22 7934   0.944   5.060   4.639  0.5624  0.4321 -0.0562
   84SLPC   C22 7935   1.158   4.976   4.718 -0.1706  0.7251  0.0073
   84SLPC   H2R 7936   1.180   4.877   4.764  1.1922  1.3078  0.6565
   84SLPC   H2S 7937   1.239   4.989   4.644 -0.2820 -0.9123 -0.4534
   84SLPC    C3 7938   0.778   4.729   4.598 -0.9977 -0.2580  0.7185
   84SLPC    HX 7939   0.680   4.730   4.545 -0.2684 -0.3066 -0.6800
   84SLPC    HY 7940   0.769   4.776   4.699  3.0632 -0.0626  1.1443
   84SLPC   O31 7941   0.830   4.597   4.598 -0.1647 -0.2181 -0.1285
   84SLPC   C31 7942   0.891   4.560   4.713 -0.6359 -0.4830  0.1562
   84SLPC   O32 7943   0.899   4.625   4.815  0.8545  0.3605 -0.5228
   84SLPC   C32 7944   0.939   4.414   4.707 -0.0524  0.6359  0.0341
   84SLPC   H2X 7945   0.989   4.401   4.609 -0.6307 -0.8353 -0.0992
   84SLPC   H2Y 7946   0.857   4.339   4.717 -0.2354  0.8768  0.3776
   84SLPC   C23 7947   1.171   5.085   4.829  0.2353  0.1011  0.0681
   84SLPC   H3R 7948   1.161   5.188   4.790  1.2312  0.2271  0.1318
   84SLPC   H3S 7949   1.278   5.070   4.857  0.9150  2.3697 -1.1326
   84SLPC   C24 7950   1.085   5.060   4.950  0.2933 -0.6145 -0.0631
   84SLPC   H4R 7951   0.983   5.090   4.916  0.4220 -1.9852 -1.8386
   84SLPC   H4S 7952   1.114   5.122   5.037  0.6764 -0.7680 -0.0813
   84SLPC   C25 7953   1.056   4.922   5.001 -0.8670  0.3222  0.9480
   84SLPC   H5R 7954   1.029   4.860   4.913 -1.2590  2.9885 -0.9367
   84SLPC   H5S 7955   0.969   4.945   5.065 -0.1969  1.6716  1.4135
   84SLPC   C26 7956   1.174   4.851   5.079 -0.4412 -0.4300 -0.4101
   84SLPC   H6R 7957   1.191   4.897   5.179  1.3813  0.4242 -1.0738
   84SLPC   H6S 7958   1.269   4.873   5.026 -0.5571  0.1621 -0.3794
   84SLPC   C27 7959   1.153   4.704   5.092  0.0511  0.6164  0.3521
   84SLPC   H7R 7960   1.253   4.668   5.125  0.3882  1.7542  0.6116
   84SLPC   H7S 7961   1.130   4.658   4.994  0.1139 -0.0280  0.6334
   84SLPC   C28 7962   1.040   4.660   5.185 -0.6129  0.2434 -0.1208
   84SLPC   H8R 7963   1.017   4.552   5.173  1.2355 -0.2464  0.3636
   84SLPC   H8S 7964   0.946   4.711   5.158 -1.0312  0.2842  1.3043
   84SLPC   C29 7965   1.062   4.692   5.329  0.1909 -0.1031  0.0798
   84SLPC   H9R 7966   1.051   4.798   5.353  3.9812  0.9942 -2.1650
   84SLPC  C210 7967   1.084   4.608   5.432 -0.2042  0.4931 -0.9373
   84SLPC  H10R 7968   1.106   4.650   5.531 -0.0910  1.3581 -1.3229
   84SLPC  C211 7969   1.093   4.455   5.429 -0.1743  0.3910 -0.6295
   84SLPC  H11R 7970   1.105   4.411   5.328 -1.1376 -1.5632  0.0489
   84SLPC  H11S 7971   0.988   4.422   5.444 -0.2498 -0.2403 -2.4257
   84SLPC  C212 7972   1.201   4.407   5.527  0.0257 -0.2854  0.8306
   84SLPC  H12R 7973   1.299   4.429   5.484 -0.6483  1.8796  0.2872
   84SLPC  C213 7974   1.188   4.350   5.641 -0.7340 -0.2758 -0.4802
   84SLPC  H13R 7975   1.276   4.342   5.707 -1.5765 -1.3470  0.5634
   84SLPC  C214 7976   1.059   4.326   5.708  0.1416  0.9363  0.1890
   84SLPC  H14R 7977   0.975   4.345   5.637  0.2537  1.1868  0.1247
   84SLPC  H14S 7978   1.042   4.401   5.788 -3.9577 -1.4434  1.8646
   84SLPC  C215 7979   1.038   4.185   5.765 -1.2899  0.1416 -0.1276
   84SLPC  H15R 7980   1.072   4.115   5.686  0.3241 -0.4125  1.0198
   84SLPC  H15S 7981   0.933   4.166   5.798 -0.8504 -3.9705 -0.6723
   84SLPC  C216 7982   1.126   4.167   5.886 -0.2649  0.7447  0.1329
   84SLPC  H16R 7983   1.107   4.232   5.974 -0.7095  2.3835 -1.1429
   84SLPC  H16S 7984   1.228   4.184   5.846 -0.2225 -0.3222 -0.2385
   84SLPC  C217 7985   1.107   4.020   5.937 -1.4133  0.6937  0.6099
   84SLPC  H17R 7986   1.109   3.942   5.858 -2.9442  0.7614  0.4747
   84SLPC  H17S 7987   1.005   4.009   5.982 -2.0048 -0.9091 -1.0151
   84SLPC  C218 7988   1.211   3.985   6.046 -0.1890  0.2219 -0.5876
   84SLPC  H18R 7989   1.309   3.967   5.997 -0.2755  0.9815 -1.0392
   84SLPC  H18S 7990   1.178   3.889   6.092  0.8005  0.4233  0.5936
   84SLPC  H18T 7991   1.221   4.066   6.121  2.2319  0.1379 -0.7436
   84SLPC   C33 7992   1.038   4.388   4.820 -0.4980  0.6010  1.0891
   84SLPC   H3X 7993   0.999   4.379   4.923  0.9608 -0.2542  1.6074
   84SLPC   H3Y 7994   1.111   4.472   4.808 -0.6378  0.3440 -2.6013
   84SLPC   C34 7995   1.125   4.258   4.798 -0.0382  1.2308 -0.5639
   84SLPC   H4X 7996   1.169   4.261   4.697 -1.0814  0.2136 -1.0677
   84SLPC   H4Y 7997   1.045   4.181   4.803  0.4427  0.7886  1.6418
   84SLPC   C35 7998   1.232   4.231   4.907 -0.3742 -0.3673  0.7667
   84SLPC   H5X 7999   1.326   4.290   4.917  0.4673 -1.5345 -0.0060
   84SLPC   H5Y 8000   1.273   4.131   4.883  1.1280  0.8225 -2.1924
   84SLPC   C36 8001   1.178   4.224   5.049  0.8017  0.4002  0.0751
   84SLPC   H6X 8002   1.109   4.137   5.046 -1.3316  1.9364  1.2735
   84SLPC   H6Y 8003   1.122   4.319   5.063  0.6752  0.2011  1.0023
   84SLPC   C37 8004   1.294   4.211   5.148  0.2251  0.1623 -0.0813
   84SLPC   H7X 8005   1.366   4.132   5.117 -0.0341 -0.6047  1.1802
   84SLPC   H7Y 8006   1.255   4.172   5.245  0.0506  2.0024  0.6321
   84SLPC   C38 8007   1.375   4.339   5.177 -0.3159  0.1911 -0.1933
   84SLPC   H8X 8008   1.376   4.356   5.286 -0.1300 -0.0956 -0.1485
   84SLPC   H8Y 8009   1.317   4.428   5.145 -1.0155 -0.7162 -1.5320
   84SLPC   C39 8010   1.522   4.327   5.130  0.1564  0.1297  0.2735
   84SLPC   H9X 8011   1.538   4.315   5.021  0.6229  0.2367  0.3255
   84SLPC   H9Y 8012   1.549   4.229   5.175 -1.8953 -0.7746 -0.3917
   84SLPC  C310 8013   1.611   4.449   5.191 -1.1114 -0.1087 -0.3845
   84SLPC  H10X 8014   1.714   4.420   5.161 -0.2616  2.0759  0.2777
   84SLPC  H10Y 8015   1.605   4.438   5.301 -0.8659  1.6605 -0.1692
   84SLPC  C311 8016   1.575   4.588   5.133  0.2249  0.1626  1.0579
   84SLPC  H11X 8017   1.647   4.662   5.173  1.3640 -0.4940  0.2587
   84SLPC  H11Y 8018   1.471   4.614   5.163 -0.1334 -1.2320  1.0824
   84SLPC  C312 8019   1.582   4.597   4.977 -0.3531 -0.0677  0.0655
   84SLPC  H12X 8020   1.541   4.502   4.935 -2.8471  0.3240  1.4541
   84SLPC  H12Y 8021   1.690   4.602   4.948 -0.4228  1.0786 -0.0401
   84SLPC  C313 8022   1.490   4.709   4.917 -0.5710 -0.2808  0.0601
   84SLPC  H13X 8023   1.505   4.800   4.978 -0.8872  0.5130 -1.0326
   84SLPC  H13Y 8024   1.381   4.694   4.932 -1.0502  2.6019 -0.0521
   84SLPC  C314 8025   1.521   4.747   4.771  0.6314 -0.2915 -0.9312
   84SLPC  H14X 8026   1.623   4.788   4.753 -0.5200  2.2453 -2.1958
   84SLPC  H14Y 8027   1.457   4.834   4.748  1.1408  0.5678  0.6996
   84SLPC  C315 8028   1.483   4.640   4.678 -0.1936  0.2392  0.4004
   84SLPC  H15X 8029   1.382   4.609   4.711 -0.0204 -0.3237  0.4107
   84SLPC  H15Y 8030   1.550   4.552   4.690 -0.9968 -0.2765  1.1567
   84SLPC  C316 8031   1.473   4.680   4.528  0.4118  0.0050 -0.3230
   84SLPC  H16X 8032   1.570   4.723   4.496 -0.5971  2.1663 -0.6622
   84SLPC  H16Y 8033   1.411   4.769   4.550  1.6416  0.4654  1.4698
   84SLPC  C317 8034   1.420   4.571   4.431 -0.3043  0.0113 -0.1202
   84SLPC  H17X 8035   1.505   4.505   4.405 -0.6887 -0.5467  0.0226
   84SLPC  H17Y 8036   1.385   4.611   4.333 -3.6924  2.0840  1.7159
   84SLPC  C318 8037   1.313   4.470   4.480 -0.1460  0.2929  0.2022
   84SLPC  H18X 8038   1.227   4.531   4.517 -1.5177 -0.3953 -1.7144
   84SLPC  H18Y 8039   1.348   4.407   4.565 -0.8329 -2.0653 -1.1607
   84SLPC  H18Z 8040   1.267   4.396   4.411 -2.6017 -0.2949  2.2755
   85SLPC     N 8041   6.232   1.509   3.579 -0.5809 -0.5957  0.4951
   85SLPC   C13 8042   6.347   1.604   3.553  0.1588  0.0203  0.2865
   85SLPC  H13A 8043   6.439   1.548   3.555 -0.7668 -1.5555  1.5030
   85SLPC  H13B 8044   6.341   1.657   3.459 -0.4002  0.5500  0.6144
   85SLPC  H13C 8045   6.345   1.675   3.635 -0.5165 -1.1294  1.2951
   85SLPC   C14 8046   6.237   1.393   3.484  0.3490 -0.3027  0.1837
   85SLPC  H14A 8047   6.181   1.314   3.532  3.3300 -1.2618  2.4028
   85SLPC  H14B 8048   6.206   1.414   3.383  2.3602  2.9389  0.0845
   85SLPC  H14C 8049   6.343   1.370   3.487  0.6673  0.7857 -1.4895
   85SLPC   C15 8050   6.107   1.581   3.561 -0.2938  0.3338 -0.6912
   85SLPC  H15A 8051   6.108   1.635   3.468 -0.7107 -0.7739 -1.3546
   85SLPC  H15B 8052   6.022   1.514   3.553  0.3953 -0.6689  0.0849
   85SLPC  H15C 8053   6.085   1.648   3.643 -0.7545 -0.0412 -0.5010
   85SLPC   C12 8054   6.234   1.457   3.722 -0.8990 -0.3600 -0.7412
   85SLPC  H12A 8055   6.312   1.383   3.720  0.4044  0.8134  1.6899
   85SLPC  H12B 8056   6.141   1.407   3.743 -1.0566 -0.2982 -1.2615
   85SLPC   C11 8057   6.279   1.561   3.839 -0.2377 -0.2814  0.3962
   85SLPC  H11A 8058   6.269   1.524   3.943  0.8490  1.8299  1.3024
   85SLPC  H11B 8059   6.215   1.650   3.823  0.6878  0.4603  0.7597
   85SLPC     P 8060   6.519   1.496   3.873 -0.1989  0.6304  0.0614
   85SLPC   O13 8061   6.504   1.373   3.796  0.1529  0.1109 -0.3531
   85SLPC   O14 8062   6.650   1.565   3.867  0.1015 -0.2096 -0.2169
   85SLPC   O12 8063   6.417   1.604   3.832 -0.2363 -0.4469  0.0667
   85SLPC   O11 8064   6.481   1.462   4.024  0.2810  0.2729  0.1894
   85SLPC    C1 8065   6.490   1.552   4.133 -0.2882  0.5546 -0.3814
   85SLPC    HA 8066   6.484   1.662   4.115  1.9988  0.5763 -1.3372
   85SLPC    HB 8067   6.403   1.526   4.197 -0.1568  1.9967  0.4428
   85SLPC    C2 8068   6.618   1.536   4.223  1.3040  0.3184 -0.0148
   85SLPC    HS 8069   6.705   1.579   4.169  1.1390 -1.4097 -1.8033
   85SLPC   O21 8070   6.644   1.391   4.237  0.1110 -0.6542 -0.3972
   85SLPC   C21 8071   6.771   1.357   4.245 -0.7457  0.3316 -0.0195
   85SLPC   O22 8072   6.868   1.433   4.218  0.0570  0.1829  0.6349
   85SLPC   C22 8073   6.785   1.211   4.293 -0.4300 -0.1815 -0.1122
   85SLPC   H2R 8074   6.713   1.193   4.375 -0.8723 -2.6433 -0.9478
   85SLPC   H2S 8075   6.767   1.145   4.205  1.4097  1.3134 -1.7246
   85SLPC    C3 8076   6.603   1.608   4.364  0.0869  1.0790 -0.3126
   85SLPC    HX 8077   6.529   1.545   4.418  0.8549 -0.8371 -1.3920
   85SLPC    HY 8078   6.566   1.713   4.354 -1.0037  1.0760  2.8086
   85SLPC   O31 8079   6.722   1.597   4.441 -0.2657  0.3308  0.0051
   85SLPC   C31 8080   6.750   1.694   4.522 -0.1752 -0.3136  0.4741
   85SLPC   O32 8081   6.689   1.802   4.542  0.0909  0.3271 -0.0550
   85SLPC   C32 8082   6.885   1.668   4.582  0.3420 -0.4645  0.1594
   85SLPC   H2X 8083   6.949   1.754   4.552  0.2299  0.2091  1.7600
   85SLPC   H2Y 8084   6.926   1.573   4.542 -1.0013 -0.4021 -1.4626
   85SLPC   C23 8085   6.928   1.191   4.347  0.0382  0.0333  0.3576
   85SLPC   H3R 8086   7.005   1.210   4.269  0.0161 -2.7929 -0.4756
   85SLPC   H3S 8087   6.931   1.080   4.355 -2.6874 -0.1045  0.3555
   85SLPC   C24 8088   6.949   1.259   4.477 -0.1908 -0.3057 -0.2047
   85SLPC   H4R 8089   6.873   1.232   4.554 -0.1682  0.1539 -0.0192
   85SLPC   H4S 8090   6.949   1.367   4.449 -0.7698 -0.9895 -3.2146
   85SLPC   C25 8091   7.077   1.225   4.546 -0.2020 -0.5698 -0.4645
   85SLPC   H5R 8092   7.092   1.115   4.543  0.0901 -0.5180 -1.7350
   85SLPC   H5S 8093   7.158   1.266   4.483  0.3721  1.2058  1.3329
   85SLPC   C26 8094   7.088   1.286   4.690 -0.0933  0.3433 -0.4771
   85SLPC   H6R 8095   7.060   1.394   4.692  2.4071  1.0671 -0.2509
   85SLPC   H6S 8096   7.195   1.282   4.722 -0.4036  1.8022  0.9123
   85SLPC   C27 8097   7.006   1.195   4.786 -0.4929  0.1894 -0.6271
   85SLPC   H7R 8098   7.007   1.091   4.747  0.5656  0.1614 -0.5553
   85SLPC   H7S 8099   6.907   1.245   4.777 -0.1674  0.7128 -1.4511
   85SLPC   C28 8100   7.060   1.183   4.932 -0.5603 -0.2424 -0.2506
   85SLPC   H8R 8101   7.160   1.137   4.916 -0.5213 -0.4698  0.5931
   85SLPC   H8S 8102   6.992   1.115   4.988  1.1600 -2.5357 -0.8007
   85SLPC   C29 8103   7.082   1.310   5.008  0.6004 -0.0457 -0.2777
   85SLPC   H9R 8104   7.110   1.397   4.946  0.4400 -1.1852 -2.0171
   85SLPC  C210 8105   7.079   1.319   5.144 -0.3247  0.2182  0.0610
   85SLPC  H10R 8106   7.087   1.414   5.198  2.1815  0.7675 -1.1155
   85SLPC  C211 8107   7.038   1.206   5.236 -0.5267 -0.1053  0.1333
   85SLPC  H11R 8108   7.125   1.178   5.300 -1.1964  0.4165  1.3102
   85SLPC  H11S 8109   7.016   1.116   5.175 -0.1336 -0.3543  0.3490
   85SLPC  C212 8110   6.919   1.250   5.318 -0.3053  0.6791 -0.1069
   85SLPC  H12R 8111   6.830   1.190   5.295  0.8632 -1.4558  0.7323
   85SLPC  C213 8112   6.907   1.337   5.417  1.1342 -0.2997 -0.1964
   85SLPC  H13R 8113   6.810   1.356   5.466  0.8202 -0.4527 -0.7492
   85SLPC  C214 8114   7.024   1.413   5.482  0.0437  0.8624 -0.1445
   85SLPC  H14R 8115   7.058   1.485   5.405  2.6047 -0.3167 -0.2278
   85SLPC  H14S 8116   7.104   1.338   5.500 -0.9825 -0.0524  0.7236
   85SLPC  C215 8117   6.992   1.473   5.614  0.2796 -0.0570 -0.3348
   85SLPC  H15R 8118   6.907   1.545   5.603  0.6238  0.5908  1.0381
   85SLPC  H15S 8119   7.084   1.521   5.653 -0.1132 -1.5417  2.7048
   85SLPC  C216 8120   6.940   1.374   5.722 -0.0040 -0.3666  0.6910
   85SLPC  H16R 8121   7.025   1.304   5.737  0.7181  0.1957 -0.6815
   85SLPC  H16S 8122   6.862   1.310   5.677  1.1367 -0.4241 -1.3219
   85SLPC  C217 8123   6.901   1.430   5.858 -0.2872 -0.4018 -0.4772
   85SLPC  H17R 8124   6.990   1.492   5.882  0.3790 -0.4674 -2.6068
   85SLPC  H17S 8125   6.888   1.352   5.937  1.4114 -0.2683 -0.0295
   85SLPC  C218 8126   6.770   1.519   5.864  0.3541  0.0554 -0.2661
   85SLPC  H18R 8127   6.748   1.550   5.969  0.3964  1.4878 -0.6652
   85SLPC  H18S 8128   6.691   1.451   5.825 -0.9573  1.0840  0.4809
   85SLPC  H18T 8129   6.780   1.609   5.800 -2.9219  0.4204 -0.4150
   85SLPC   C33 8130   6.883   1.686   4.735  0.0443  0.3756  0.2335
   85SLPC   H3X 8131   6.827   1.777   4.766  0.9298  1.0411 -0.0595
   85SLPC   H3Y 8132   6.989   1.711   4.757  0.5289 -1.5690  0.2950
   85SLPC   C34 8133   6.848   1.560   4.810  0.2972 -0.0762  0.0357
   85SLPC   H4X 8134   6.924   1.479   4.820 -0.6027 -1.1085 -1.1988
   85SLPC   H4Y 8135   6.778   1.505   4.744 -0.7433 -2.5497  2.9156
   85SLPC   C35 8136   6.778   1.577   4.949 -0.4759  0.0675 -0.4929
   85SLPC   H5X 8137   6.749   1.473   4.975 -1.0781  0.1610 -0.7543
   85SLPC   H5Y 8138   6.679   1.627   4.938 -0.2411  1.8172  3.6782
   85SLPC   C36 8139   6.873   1.643   5.043 -0.0170 -0.4976 -0.2720
   85SLPC   H6X 8140   6.924   1.725   4.987 -0.8161 -0.1466 -0.5169
   85SLPC   H6Y 8141   6.954   1.577   5.079 -0.4326 -0.4919  0.6984
   85SLPC   C37 8142   6.804   1.717   5.163 -0.2661  0.1506 -0.0580
   85SLPC   H7X 8143   6.731   1.644   5.204  1.2747 -0.1534  2.3754
   85SLPC   H7Y 8144   6.761   1.814   5.130  0.2671  0.9111  1.3903
   85SLPC   C38 8145   6.905   1.758   5.273 -0.2586 -0.8379 -0.6361
   85SLPC   H8X 8146   6.991   1.795   5.213  1.3654 -0.7036  1.6519
   85SLPC   H8Y 8147   6.952   1.672   5.325  0.4301 -0.4425 -0.5864
   85SLPC   C39 8148   6.862   1.855   5.381 -0.1749 -0.3422 -0.4136
   85SLPC   H9X 8149   6.773   1.811   5.431  0.5920 -3.0201 -1.2264
   85SLPC   H9Y 8150   6.828   1.952   5.339 -1.5219 -0.0630  1.2170
   85SLPC  C310 8151   6.979   1.870   5.482 -1.2405  0.0116  0.0524
   85SLPC  H10X 8152   7.068   1.901   5.423 -2.2508  0.6563 -1.1827
   85SLPC  H10Y 8153   7.017   1.774   5.522 -1.1527  0.1223  0.2369
   85SLPC  C311 8154   6.941   1.970   5.597  0.0321 -0.1803 -0.1007
   85SLPC  H11X 8155   7.024   1.985   5.669 -0.5255  1.1660  0.2995
   85SLPC  H11Y 8156   6.852   1.923   5.645  0.0472 -2.4988 -2.1854
   85SLPC  C312 8157   6.904   2.103   5.550 -0.1893  0.0417  0.6673
   85SLPC  H12X 8158   6.798   2.102   5.516  0.0100  1.4636 -0.0672
   85SLPC  H12Y 8159   6.962   2.130   5.459  0.0539 -2.7497 -0.1195
   85SLPC  C313 8160   6.925   2.211   5.657 -0.2005 -0.1439  0.0240
   85SLPC  H13X 8161   6.908   2.154   5.751 -2.4141 -1.4219 -1.0687
   85SLPC  H13Y 8162   6.863   2.303   5.653 -0.5011 -0.3395  0.1745
   85SLPC  C314 8163   7.076   2.261   5.652  0.4017 -0.3641 -0.0028
   85SLPC  H14X 8164   7.095   2.295   5.548  0.6697  0.1133  0.1997
   85SLPC  H14Y 8165   7.139   2.175   5.684 -0.8298 -1.5618 -0.6819
   85SLPC  C315 8166   7.095   2.376   5.750  0.2162 -0.0472 -0.6011
   85SLPC  H15X 8167   7.027   2.456   5.716  1.2210  0.2533 -1.9957
   85SLPC  H15Y 8168   7.196   2.417   5.728  0.3350 -0.5343 -0.9846
   85SLPC  C316 8169   7.077   2.339   5.901 -0.3553 -0.6590  0.7516
   85SLPC  H16X 8170   7.000   2.260   5.918 -0.0039 -1.1188  0.2459
   85SLPC  H16Y 8171   7.049   2.431   5.956  3.1471 -0.0283  1.6987
   85SLPC  C317 8172   7.205   2.279   5.953 -0.0061  0.2382 -0.0845
   85SLPC  H17X 8173   7.288   2.346   5.923 -0.7212  0.5807 -1.3945
   85SLPC  H17Y 8174   7.223   2.178   5.910 -2.0874 -0.7626  1.2508
   85SLPC  C318 8175   7.208   2.263   6.104 -0.2866 -0.4483  0.2464
   85SLPC  H18X 8176   7.218   2.354   6.167  1.2897 -1.0686  0.9184
   85SLPC  H18Y 8177   7.286   2.195   6.144  1.1204  1.4085  0.7865
   85SLPC  H18Z 8178   7.107   2.228   6.135 -0.7069 -0.4514 -1.0695
   86SLPC     N 8179   0.795   5.830   3.946  1.1271  0.0351  0.1201
   86SLPC   C13 8180   0.817   5.682   3.982 -0.8245  0.1398 -0.3743
   86SLPC  H13A 8181   0.772   5.655   4.076  0.3640 -1.3465 -0.1933
   86SLPC  H13B 8182   0.773   5.621   3.905 -1.6512 -0.0439  0.2321
   86SLPC  H13C 8183   0.925   5.673   3.988 -0.7549  0.6441 -0.7478
   86SLPC   C14 8184   0.646   5.853   3.936  0.4633  0.4029 -0.9732
   86SLPC  H14A 8185   0.599   5.785   3.866  2.1154  1.2566 -3.0115
   86SLPC  H14B 8186   0.604   5.827   4.032  0.9384  0.3795 -0.7674
   86SLPC  H14C 8187   0.625   5.956   3.914 -0.0492  0.1998 -1.4454
   86SLPC   C15 8188   0.851   5.865   3.811  0.3879 -0.0983 -0.3033
   86SLPC  H15A 8189   0.836   5.968   3.782  2.2205  0.4101  0.4437
   86SLPC  H15B 8190   0.954   5.835   3.801  1.3971  1.7656  3.1114
   86SLPC  H15C 8191   0.792   5.814   3.736  0.2642  1.5382 -1.3583
   86SLPC   C12 8192   0.844   5.918   4.058 -0.2773  0.6945  0.7659
   86SLPC  H12A 8193   0.947   5.897   4.080 -0.0056  1.4871  0.2953
   86SLPC  H12B 8194   0.793   5.891   4.149  1.7413  0.3153  1.8316
   86SLPC   C11 8195   0.842   6.067   4.040  0.1907 -0.0922 -0.7724
   86SLPC  H11A 8196   0.910   6.088   3.954  1.7360  0.6057  0.5669
   86SLPC  H11B 8197   0.897   6.105   4.128 -1.1121 -1.1845  0.5489
   86SLPC     P 8198   0.608   6.143   4.142 -0.1197  0.0462  0.1777
   86SLPC   O13 8199   0.613   6.285   4.181 -0.1232  0.3589  0.6325
   86SLPC   O14 8200   0.477   6.095   4.096 -0.1267  0.1786 -0.2251
   86SLPC   O12 8201   0.712   6.130   4.023  0.2036  0.6252 -0.0272
   86SLPC   O11 8202   0.670   6.051   4.250  0.2859 -0.5093  0.2696
   86SLPC    C1 8203   0.598   6.004   4.359 -0.1484 -0.0312  0.0496
   86SLPC    HA 8204   0.491   6.028   4.343  0.2077  1.3817 -0.3419
   86SLPC    HB 8205   0.591   5.893   4.366 -1.1090  0.0258  0.1923
   86SLPC    C2 8206   0.655   6.039   4.495 -0.0507 -0.5072  0.2465
   86SLPC    HS 8207   0.600   5.981   4.572  0.8866 -0.3786  1.0265
   86SLPC   O21 8208   0.630   6.180   4.520 -0.3523  0.0871  0.0548
   86SLPC   C21 8209   0.507   6.211   4.541  0.8254 -0.7329 -0.3159
   86SLPC   O22 8210   0.407   6.138   4.545  0.0980  0.4838  0.4663
   86SLPC   C22 8211   0.501   6.352   4.584  0.2529 -0.0693 -0.1051
   86SLPC   H2R 8212   0.594   6.379   4.637 -0.7759  2.9858  0.3711
   86SLPC   H2S 8213   0.501   6.409   4.488 -2.0395 -2.5484 -1.7212
   86SLPC    C3 8214   0.803   5.999   4.509  0.0368 -0.6791  0.3042
   86SLPC    HX 8215   0.841   6.057   4.422 -2.4570  0.4749 -0.0945
   86SLPC    HY 8216   0.807   5.891   4.484  2.4122 -1.1734  2.4331
   86SLPC   O31 8217   0.851   6.021   4.646  0.5128  0.2650 -0.0012
   86SLPC   C31 8218   0.896   6.145   4.658  0.3109 -0.0316 -0.1047
   86SLPC   O32 8219   0.923   6.227   4.570  0.2268 -0.7821 -0.2643
   86SLPC   C32 8220   0.918   6.178   4.804 -0.7254 -0.2213  0.0118
   86SLPC   H2X 8221   0.828   6.235   4.835 -0.7360  0.3464 -1.0064
   86SLPC   H2Y 8222   1.011   6.238   4.813  0.1444 -1.7616  2.0476
   86SLPC   C23 8223   0.382   6.390   4.672  0.5055  0.2179  0.4800
   86SLPC   H3R 8224   0.292   6.372   4.608 -0.5483 -2.2783  2.4823
   86SLPC   H3S 8225   0.402   6.496   4.699  1.5246  0.2678 -0.4133
   86SLPC   C24 8226   0.362   6.304   4.799 -0.5712  0.3088  1.0453
   86SLPC   H4R 8227   0.337   6.203   4.760  2.2216 -0.1229  0.1475
   86SLPC   H4S 8228   0.277   6.346   4.857 -0.7615  0.6886  0.5056
   86SLPC   C25 8229   0.477   6.306   4.901 -0.3463 -0.5481  0.0230
   86SLPC   H5R 8230   0.477   6.410   4.941 -1.6166 -0.5289  0.0165
   86SLPC   H5S 8231   0.571   6.281   4.848  0.6271 -1.3929  2.0253
   86SLPC   C26 8232   0.462   6.213   5.020  0.2134  0.1635  0.2483
   86SLPC   H6R 8233   0.480   6.116   4.970 -1.2275  0.7374 -1.5057
   86SLPC   H6S 8234   0.355   6.222   5.050  0.2905  0.4627  0.4419
   86SLPC   C27 8235   0.559   6.237   5.132  0.6994 -0.4726  0.8446
   86SLPC   H7R 8236   0.656   6.259   5.083  0.0757 -1.4801 -0.9489
   86SLPC   H7S 8237   0.583   6.149   5.194 -0.6045 -1.0527  0.5686
   86SLPC   C28 8238   0.521   6.352   5.226 -0.1086  0.7268  0.7819
   86SLPC   H8R 8239   0.514   6.446   5.168 -1.2134 -0.0871 -0.4518
   86SLPC   H8S 8240   0.609   6.366   5.293  0.5597 -0.4214  0.1828
   86SLPC   C29 8241   0.386   6.340   5.298 -0.1096 -0.6286 -0.2418
   86SLPC   H9R 8242   0.301   6.389   5.249 -1.7518  0.2462  3.1806
   86SLPC  C210 8243   0.377   6.279   5.416  0.4639 -0.0706 -0.2339
   86SLPC  H10R 8244   0.280   6.262   5.465  0.1480 -0.4144 -0.9607
   86SLPC  C211 8245   0.490   6.224   5.502  0.0196  0.7440 -0.3268
   86SLPC  H11R 8246   0.501   6.294   5.587  1.6663 -0.3678  0.4353
   86SLPC  H11S 8247   0.589   6.216   5.451 -1.1858  0.0023 -2.7438
   86SLPC  C212 8248   0.461   6.087   5.561  0.5914 -0.6983 -0.5569
   86SLPC  H12R 8249   0.460   6.009   5.483  0.7666  0.7285 -2.0443
   86SLPC  C213 8250   0.448   6.045   5.691  0.0602  0.0535  0.6925
   86SLPC  H13R 8251   0.433   5.940   5.722  2.5854 -0.0019  1.9700
   86SLPC  C214 8252   0.457   6.137   5.810  0.0231  0.0898 -0.4316
   86SLPC  H14R 8253   0.394   6.227   5.796  0.1840  0.3061  0.1786
   86SLPC  H14S 8254   0.561   6.174   5.821  0.0540  0.1373 -0.8801
   86SLPC  C215 8255   0.416   6.078   5.951  0.1122 -0.6597 -0.8327
   86SLPC  H15R 8256   0.499   6.015   5.990 -0.2266 -0.2685  0.5836
   86SLPC  H15S 8257   0.320   6.024   5.938 -1.1349  1.0204  0.8503
   86SLPC  C216 8258   0.391   6.190   6.061  0.1201 -0.4294 -0.4484
   86SLPC  H16R 8259   0.473   6.264   6.053  0.5399 -0.9185 -0.8114
   86SLPC  H16S 8260   0.414   6.133   6.154 -0.9613 -1.2122 -0.6422
   86SLPC  C217 8261   0.255   6.252   6.049  0.3702 -0.3598  0.5569
   86SLPC  H17R 8262   0.235   6.284   5.944  3.8499  1.3950  0.2960
   86SLPC  H17S 8263   0.235   6.341   6.113 -1.2748  0.2718 -0.7383
   86SLPC  C218 8264   0.149   6.150   6.090  0.4600 -0.4143  0.5307
   86SLPC  H18R 8265   0.169   6.122   6.196  1.5814 -1.7173 -0.0037
   86SLPC  H18S 8266   0.148   6.059   6.027  0.2117 -1.8375  2.4837
   86SLPC  H18T 8267   0.054   6.200   6.063  1.8426  0.2294 -3.8338
   86SLPC   C33 8268   0.954   6.050   4.887 -0.1885 -0.2418 -0.5703
   86SLPC   H3X 8269   1.008   6.089   4.976 -2.9690  1.9038  0.3319
   86SLPC   H3Y 8270   1.028   5.987   4.835 -0.4188 -2.1493  1.2865
   86SLPC   C34 8271   0.847   5.974   4.957  0.2023 -0.0297 -0.2981
   86SLPC   H4X 8272   0.783   5.915   4.889  0.4137  0.9171 -1.3440
   86SLPC   H4Y 8273   0.771   6.042   5.001 -0.8506 -0.5719 -1.2226
   86SLPC   C35 8274   0.897   5.882   5.074 -0.0974  0.2553  0.1460
   86SLPC   H5X 8275   0.821   5.870   5.155  0.3926 -3.1590  0.2704
   86SLPC   H5Y 8276   0.997   5.918   5.108  0.0546 -1.5401  1.7572
   86SLPC   C36 8277   0.908   5.736   5.027  0.3334  0.0798 -0.4626
   86SLPC   H6X 8278   0.973   5.726   4.937 -0.9133 -0.4407 -1.3367
   86SLPC   H6Y 8279   0.810   5.688   5.007 -0.4966  2.0589 -1.4989
   86SLPC   C37 8280   0.967   5.658   5.143 -0.5109  0.2685  0.4789
   86SLPC   H7X 8281   0.912   5.690   5.234  0.0695 -0.9978  1.2909
   86SLPC   H7Y 8282   1.076   5.676   5.153 -0.6637  0.4473  2.1421
   86SLPC   C38 8283   0.940   5.511   5.127 -0.2809  0.2790 -0.3513
   86SLPC   H8X 8284   0.981   5.466   5.034  2.0738  0.5490  0.4893
   86SLPC   H8Y 8285   0.832   5.485   5.130 -0.8486  2.4115 -1.0356
   86SLPC   C39 8286   1.016   5.434   5.234  0.4444 -0.4275 -0.8044
   86SLPC   H9X 8287   0.993   5.473   5.335 -1.9132 -0.0876 -1.3914
   86SLPC   H9Y 8288   1.125   5.433   5.212  0.4351  0.8875 -1.0057
   86SLPC  C310 8289   0.972   5.285   5.243 -0.4203  0.3746 -0.2476
   86SLPC  H10X 8290   0.976   5.229   5.148  1.1211 -1.5244  0.8581
   86SLPC  H10Y 8291   0.874   5.277   5.294 -0.7932  0.7882 -0.8970
   86SLPC  C311 8292   1.079   5.223   5.336  0.6493  0.5210 -0.3249
   86SLPC  H11X 8293   1.184   5.261   5.341  1.6045 -1.9954  1.2973
   86SLPC  H11Y 8294   1.094   5.118   5.302  1.9903  0.7974 -0.6587
   86SLPC  C312 8295   1.051   5.219   5.483  0.2636  0.7560  0.3903
   86SLPC  H12X 8296   0.956   5.167   5.509  0.7307 -0.0819  0.4530
   86SLPC  H12Y 8297   1.043   5.327   5.508 -1.8668  1.4412 -2.6819
   86SLPC  C313 8298   1.155   5.141   5.559 -0.2091  0.4911  0.5112
   86SLPC  H13X 8299   1.138   5.171   5.664 -1.4265  2.5758 -0.2058
   86SLPC  H13Y 8300   1.256   5.173   5.526  0.5527 -1.8678  0.3980
   86SLPC  C314 8301   1.157   4.991   5.537  0.1968  0.2564  0.6698
   86SLPC  H14X 8302   1.190   4.966   5.434  0.2163  1.6124  0.3290
   86SLPC  H14Y 8303   1.050   4.960   5.539  0.0133  0.8532  0.4027
   86SLPC  C315 8304   1.237   4.901   5.640 -0.0248  0.4843  0.2190
   86SLPC  H15X 8305   1.346   4.922   5.635 -0.5329  3.9717  0.7163
   86SLPC  H15Y 8306   1.236   4.802   5.591 -0.2225  0.4418  0.3077
   86SLPC  C316 8307   1.173   4.894   5.776  0.6228  0.5268 -0.4692
   86SLPC  H16X 8308   1.063   4.903   5.757  0.6777  0.4981 -0.7924
   86SLPC  H16Y 8309   1.193   4.987   5.833 -0.0572 -0.0146  0.6902
   86SLPC  C317 8310   1.203   4.759   5.855 -0.1235 -0.0399 -0.1663
   86SLPC  H17X 8311   1.310   4.768   5.882  0.0952  0.5421 -1.1974
   86SLPC  H17Y 8312   1.180   4.669   5.794 -1.6413  1.3226 -1.6851
   86SLPC  C318 8313   1.117   4.755   5.984 -0.4476 -0.7245 -0.4527
   86SLPC  H18X 8314   1.125   4.657   6.035 -1.9887 -0.8725 -0.4439
   86SLPC  H18Y 8315   1.010   4.766   5.958 -0.7423 -0.9936  0.5985
   86SLPC  H18Z 8316   1.153   4.839   6.048  1.8816 -0.2910 -2.1758
   87SLPC     N 8317   4.474   3.583   3.810 -0.5110 -0.7556 -0.0297
   87SLPC   C13 8318   4.478   3.649   3.943 -0.4063  0.5544 -0.2108
   87SLPC  H13A 8319   4.490   3.754   3.921 -1.3523 -0.0550 -4.6878
   87SLPC  H13B 8320   4.384   3.650   3.996 -0.3824  0.0904 -0.1539
   87SLPC  H13C 8321   4.555   3.623   4.014 -1.8055 -1.9214  0.5180
   87SLPC   C14 8322   4.353   3.620   3.730  0.3163  0.2643 -1.1921
   87SLPC  H14A 8323   4.334   3.724   3.751 -1.1654 -0.2567  0.3337
   87SLPC  H14B 8324   4.367   3.596   3.626 -0.6759 -3.1183 -0.6926
   87SLPC  H14C 8325   4.270   3.559   3.763 -0.0328  1.7510  0.9401
   87SLPC   C15 8326   4.490   3.441   3.812  0.4800 -0.8132  0.7406
   87SLPC  H15A 8327   4.469   3.403   3.714 -4.9116 -2.0040  2.0209
   87SLPC  H15B 8328   4.591   3.412   3.838  0.0970 -1.8302  1.1565
   87SLPC  H15C 8329   4.418   3.386   3.870  0.5346 -2.2763 -0.5201
   87SLPC   C12 8330   4.589   3.633   3.728  0.2278 -0.6000  0.8037
   87SLPC  H12A 8331   4.563   3.732   3.692  1.9251 -0.8877 -1.4060
   87SLPC  H12B 8332   4.586   3.583   3.633 -0.3015 -0.8673  0.9553
   87SLPC   C11 8333   4.728   3.641   3.789 -0.6628  0.4246 -0.0209
   87SLPC  H11A 8334   4.735   3.700   3.884  1.7421 -0.7726  0.6229
   87SLPC  H11B 8335   4.782   3.704   3.715 -1.3928 -0.3269 -1.2340
   87SLPC     P 8336   4.947   3.487   3.801 -0.3407 -0.3299 -0.0352
   87SLPC   O13 8337   4.962   3.344   3.779 -0.8617  0.0622 -0.2523
   87SLPC   O14 8338   5.015   3.579   3.708 -0.1500  0.3927 -0.2249
   87SLPC   O12 8339   4.788   3.513   3.794 -0.5577  0.5602  0.1255
   87SLPC   O11 8340   4.988   3.523   3.952 -0.1255 -1.0338  0.0937
   87SLPC    C1 8341   4.924   3.452   4.052  0.5314  0.1759 -0.2683
   87SLPC    HA 8342   4.815   3.446   4.031  0.4093  0.2551  0.3101
   87SLPC    HB 8343   4.970   3.351   4.060  1.5391  0.6136 -0.4016
   87SLPC    C2 8344   4.924   3.526   4.190 -0.0575 -1.0922  0.0847
   87SLPC    HS 8345   4.832   3.505   4.248 -0.3506  0.2578  0.1555
   87SLPC   O21 8346   4.937   3.668   4.173  0.4615  0.0303  0.0594
   87SLPC   C21 8347   4.829   3.734   4.144 -0.5539 -0.4767 -0.1906
   87SLPC   O22 8348   4.713   3.691   4.152 -0.0436 -0.4640  0.0698
   87SLPC   C22 8349   4.867   3.870   4.089  0.9207 -0.4211  0.1706
   87SLPC   H2R 8350   4.884   3.859   3.980 -0.9605  0.2383 -0.2395
   87SLPC   H2S 8351   4.773   3.930   4.085  0.6972 -0.7744  0.0544
   87SLPC    C3 8352   5.050   3.489   4.271  0.6127 -0.6983  0.3637
   87SLPC    HX 8353   5.131   3.521   4.203 -1.6625  1.3419 -1.5997
   87SLPC    HY 8354   5.042   3.378   4.274 -2.5401 -0.5959 -0.0306
   87SLPC   O31 8355   5.054   3.542   4.404 -0.1107 -0.1633 -0.6618
   87SLPC   C31 8356   5.128   3.651   4.423  0.0049  0.4105 -0.4867
   87SLPC   O32 8357   5.189   3.711   4.331 -0.0561 -0.0591 -0.4488
   87SLPC   C32 8358   5.116   3.683   4.570 -0.0311 -0.2832 -0.4862
   87SLPC   H2X 8359   5.177   3.606   4.621 -1.1819 -0.7488  0.2094
   87SLPC   H2Y 8360   5.013   3.659   4.603 -0.7950  2.4852 -0.6346
   87SLPC   C23 8361   4.976   3.950   4.171  0.0848 -0.3311 -0.0055
   87SLPC   H3R 8362   4.993   4.049   4.122  1.9825 -0.4245  0.3788
   87SLPC   H3S 8363   5.075   3.902   4.155  2.4505  3.0317  2.9379
   87SLPC   C24 8364   4.943   3.984   4.316  0.0564 -0.5691 -0.0668
   87SLPC   H4R 8365   5.013   4.062   4.353  0.2256  0.3302 -2.1106
   87SLPC   H4S 8366   4.954   3.884   4.362 -1.5096 -1.1283 -0.8348
   87SLPC   C25 8367   4.802   4.028   4.353  0.0212 -0.0307 -0.4333
   87SLPC   H5R 8368   4.734   3.956   4.303 -0.3615 -0.5139  0.7411
   87SLPC   H5S 8369   4.769   4.126   4.313 -1.6468 -0.0980  0.6724
   87SLPC   C26 8370   4.803   4.021   4.509  0.1068  0.0841  0.2213
   87SLPC   H6R 8371   4.880   4.090   4.551  0.3776  0.4740 -0.8792
   87SLPC   H6S 8372   4.840   3.919   4.532  0.1564 -0.1765 -0.9457
   87SLPC   C27 8373   4.665   4.037   4.563 -0.5879 -0.4412  0.0965
   87SLPC   H7R 8374   4.611   3.957   4.507  0.2074 -0.5241 -0.5819
   87SLPC   H7S 8375   4.636   4.142   4.545  1.4439  0.0167 -0.8079
   87SLPC   C28 8376   4.658   4.004   4.718 -0.3310  0.2649  0.2170
   87SLPC   H8R 8377   4.711   4.088   4.766 -0.0809 -0.1375  0.6518
   87SLPC   H8S 8378   4.707   3.905   4.732 -0.0716  0.3670  0.0201
   87SLPC   C29 8379   4.521   4.007   4.770  0.1612 -0.0017 -1.0283
   87SLPC   H9R 8380   4.451   4.071   4.716 -0.7193 -0.3596 -0.3351
   87SLPC  C210 8381   4.483   3.922   4.873  0.4613  0.4667  0.2773
   87SLPC  H10R 8382   4.375   3.911   4.895  0.7524 -2.2642  0.5821
   87SLPC  C211 8383   4.566   3.838   4.966  0.2138  0.0784 -0.2701
   87SLPC  H11R 8384   4.557   3.893   5.062  0.1119 -0.2987 -0.0620
   87SLPC  H11S 8385   4.676   3.828   4.955  0.1301 -0.7885 -0.4209
   87SLPC  C212 8386   4.509   3.699   4.987  0.6030  0.5155  0.2988
   87SLPC  H12R 8387   4.425   3.676   4.920 -2.1306  2.0421  2.9747
   87SLPC  C213 8388   4.554   3.612   5.075  0.6368 -0.7958  0.1250
   87SLPC  H13R 8389   4.501   3.516   5.080 -0.5519 -0.2245 -1.0605
   87SLPC  C214 8390   4.678   3.627   5.161  0.3945  0.0953  0.2911
   87SLPC  H14R 8391   4.636   3.632   5.264 -3.4155  0.5266 -1.1088
   87SLPC  H14S 8392   4.743   3.714   5.136 -0.8050  0.6365 -1.1407
   87SLPC  C215 8393   4.766   3.498   5.157  0.5797 -0.4105  0.0885
   87SLPC  H15R 8394   4.824   3.521   5.065  2.1126 -1.6827  0.6849
   87SLPC  H15S 8395   4.706   3.407   5.137  0.0598  0.3172 -1.8403
   87SLPC  C216 8396   4.849   3.477   5.290  0.2274  0.0895  0.3307
   87SLPC  H16R 8397   4.785   3.497   5.378 -0.9262  1.3309 -0.7374
   87SLPC  H16S 8398   4.928   3.556   5.288  0.5959 -0.2815 -0.5936
   87SLPC  C217 8399   4.937   3.345   5.292  0.3283 -0.2611  0.1232
   87SLPC  H17R 8400   4.994   3.346   5.197 -0.4154 -0.5415 -0.3284
   87SLPC  H17S 8401   4.882   3.250   5.278 -1.4030  0.7010  0.0885
   87SLPC  C218 8402   5.024   3.335   5.415  0.5696 -0.1663 -0.4087
   87SLPC  H18R 8403   5.087   3.243   5.413  1.8196  0.6697 -2.0954
   87SLPC  H18S 8404   4.963   3.342   5.508 -1.4683  3.4119 -1.8032
   87SLPC  H18T 8405   5.105   3.411   5.417  1.3866 -1.0360  1.2153
   87SLPC   C33 8406   5.162   3.826   4.605 -0.5319 -0.7232  0.3883
   87SLPC   H3X 8407   5.107   3.906   4.551 -2.0992 -2.9027 -1.3998
   87SLPC   H3Y 8408   5.265   3.835   4.564  0.1599  1.1285  2.3292
   87SLPC   C34 8409   5.149   3.861   4.753 -0.4185 -0.4261 -0.2924
   87SLPC   H4X 8410   5.206   3.953   4.777  0.0673 -0.7107 -0.3408
   87SLPC   H4Y 8411   5.200   3.774   4.801 -0.6926 -0.5782 -0.2753
   87SLPC   C35 8412   5.006   3.886   4.802 -1.2337  0.3849 -0.2313
   87SLPC   H5X 8413   4.947   3.794   4.781  1.0794 -1.4673  0.9700
   87SLPC   H5Y 8414   4.946   3.959   4.742 -0.5269  0.0211 -1.4182
   87SLPC   C36 8415   4.990   3.916   4.953 -0.1307  0.3742 -0.7645
   87SLPC   H6X 8416   4.897   3.867   4.990 -0.9423  1.7222 -0.9743
   87SLPC   H6Y 8417   4.972   4.025   4.958 -1.1995  0.1709  0.4593
   87SLPC   C37 8418   5.115   3.879   5.038  0.2008 -0.9260 -0.4663
   87SLPC   H7X 8419   5.193   3.955   5.014 -0.6654  0.2127  0.2003
   87SLPC   H7Y 8420   5.160   3.779   5.021  1.8985 -0.3340  0.3841
   87SLPC   C38 8421   5.084   3.894   5.188 -0.0448 -0.2084  0.0428
   87SLPC   H8X 8422   4.979   3.865   5.211 -1.0547  2.3449 -0.9890
   87SLPC   H8Y 8423   5.074   4.003   5.203 -2.6009 -0.0464 -2.0890
   87SLPC   C39 8424   5.188   3.833   5.276 -0.0399  0.4670 -0.1215
   87SLPC   H9X 8425   5.291   3.864   5.249 -0.7831  2.6573 -0.6338
   87SLPC   H9Y 8426   5.183   3.723   5.260  1.2566  0.0635  1.9435
   87SLPC  C310 8427   5.152   3.852   5.428 -0.2267 -0.7142 -0.5981
   87SLPC  H10X 8428   5.178   3.769   5.497 -3.4207  0.3969  2.1913
   87SLPC  H10Y 8429   5.043   3.856   5.445 -0.2170 -0.1416 -0.6626
   87SLPC  C311 8430   5.226   3.978   5.479  0.3119 -0.2388  0.0408
   87SLPC  H11X 8431   5.173   4.067   5.438  1.1756  0.8004  1.1139
   87SLPC  H11Y 8432   5.332   3.974   5.446 -0.2575  0.6336 -2.0753
   87SLPC  C312 8433   5.233   3.983   5.632 -0.3415 -0.6310 -0.7531
   87SLPC  H12X 8434   5.287   3.894   5.668  0.8440  0.5326  0.4369
   87SLPC  H12Y 8435   5.131   3.978   5.676  0.7740  1.4145  2.3529
   87SLPC  C313 8436   5.316   4.102   5.680 -0.0782  0.6624  0.0056
   87SLPC  H13X 8437   5.271   4.195   5.640 -0.6859 -0.2709 -1.5655
   87SLPC  H13Y 8438   5.411   4.095   5.623 -0.6780  0.9863 -1.0607
   87SLPC  C314 8439   5.352   4.115   5.838  0.6208 -0.1714  0.0916
   87SLPC  H14X 8440   5.430   4.193   5.853 -0.1533  1.0309 -1.7586
   87SLPC  H14Y 8441   5.410   4.027   5.872  0.3848 -0.1568  0.5415
   87SLPC  C315 8442   5.225   4.156   5.926 -0.1981 -0.0365  0.7852
   87SLPC  H15X 8443   5.138   4.087   5.915  0.0235 -0.4596  1.5447
   87SLPC  H15Y 8444   5.201   4.260   5.898 -0.2484 -0.5712 -1.3487
   87SLPC  C316 8445   5.247   4.148   6.079  0.3227 -0.1527  0.2471
   87SLPC  H16X 8446   5.316   4.228   6.114  0.1231  0.0368  0.2099
   87SLPC  H16Y 8447   5.296   4.050   6.098 -1.5724 -0.9842  1.2182
   87SLPC  C317 8448   5.118   4.151   6.163 -0.2769 -0.3156  0.1343
   87SLPC  H17X 8449   5.080   4.048   6.177 -2.9777  0.4645 -0.8704
   87SLPC  H17Y 8450   5.039   4.218   6.123 -0.1245 -0.5881 -0.6382
   87SLPC  C318 8451   5.154   4.215   6.295  0.3171  0.2489  0.1048
   87SLPC  H18X 8452   5.095   4.158   6.370  1.8001 -4.0656 -1.7149
   87SLPC  H18Y 8453   5.131   4.324   6.293 -0.4250  0.1195  1.1229
   87SLPC  H18Z 8454   5.263   4.202   6.311  0.0592 -1.9980  0.2609
   88SLPC     N 8455   4.427   5.806   3.677 -0.1744  0.3810 -0.3928
   88SLPC   C13 8456   4.350   5.870   3.565  0.6052 -0.1554 -0.7478
   88SLPC  H13A 8457   4.278   5.804   3.519 -0.3258 -0.4097  1.0183
   88SLPC  H13B 8458   4.288   5.951   3.600 -0.2068 -1.5836  1.2790
   88SLPC  H13C 8459   4.418   5.900   3.486  3.2268 -0.9176  1.0990
   88SLPC   C14 8460   4.544   5.892   3.698  0.1260  0.9698 -0.1576
   88SLPC  H14A 8461   4.589   5.907   3.601  1.0894 -0.5479  0.0173
   88SLPC  H14B 8462   4.513   5.985   3.741  2.1358  0.3713  2.8757
   88SLPC  H14C 8463   4.615   5.852   3.768  0.7779 -0.3630 -1.5059
   88SLPC   C15 8464   4.482   5.669   3.639  0.1340  0.4118  0.6837
   88SLPC  H15A 8465   4.532   5.619   3.720 -0.4349 -2.4622 -0.6190
   88SLPC  H15B 8466   4.399   5.608   3.606  1.4887 -1.0238 -0.2084
   88SLPC  H15C 8467   4.541   5.676   3.550 -0.7883 -0.8442 -0.0606
   88SLPC   C12 8468   4.345   5.796   3.806  0.2103 -0.2589 -0.1721
   88SLPC  H12A 8469   4.248   5.751   3.790 -0.3379  1.1112 -0.7584
   88SLPC  H12B 8470   4.334   5.901   3.829  0.8905 -0.5533  1.6538
   88SLPC   C11 8471   4.403   5.724   3.934  0.6752 -0.2449  0.0521
   88SLPC  H11A 8472   4.360   5.771   4.024  3.7529 -1.1705  2.1808
   88SLPC  H11B 8473   4.510   5.746   3.953  0.4033  1.8181 -0.5781
   88SLPC     P 8474   4.228   5.533   3.914  0.0019 -0.0673 -0.1825
   88SLPC   O13 8475   4.157   5.601   3.810 -0.5621  0.3156  0.8330
   88SLPC   O14 8476   4.230   5.386   3.900  0.3370 -0.3265 -0.2046
   88SLPC   O12 8477   4.378   5.591   3.927  0.1732  0.6616 -0.0946
   88SLPC   O11 8478   4.164   5.579   4.052 -0.2553  1.0567 -0.3829
   88SLPC    C1 8479   4.227   5.524   4.172 -0.5259  0.5925 -0.0094
   88SLPC    HA 8480   4.217   5.414   4.176 -0.7432  0.4606 -2.5954
   88SLPC    HB 8481   4.337   5.540   4.173 -0.3718 -0.4180  0.7511
   88SLPC    C2 8482   4.162   5.594   4.291  0.1250 -0.0537  0.3266
   88SLPC    HS 8483   4.198   5.699   4.296  0.7727 -0.1832 -1.1393
   88SLPC   O21 8484   4.197   5.519   4.407 -0.6814 -0.6443  0.4439
   88SLPC   C21 8485   4.235   5.588   4.511 -0.1462  0.2778 -0.3131
   88SLPC   O22 8486   4.259   5.706   4.514  0.0411 -0.3765  0.6963
   88SLPC   C22 8487   4.259   5.491   4.628 -0.2085  0.1363 -0.2471
   88SLPC   H2R 8488   4.164   5.445   4.662  0.2652  0.9985  2.4194
   88SLPC   H2S 8489   4.317   5.411   4.578 -0.6831 -1.3717  1.5426
   88SLPC    C3 8490   4.011   5.596   4.273  0.1234  0.2750  0.7287
   88SLPC    HX 8491   3.983   5.489   4.259 -2.8947  0.7336  2.4544
   88SLPC    HY 8492   3.981   5.658   4.186 -0.6200  0.1372  0.8793
   88SLPC   O31 8493   3.950   5.647   4.394 -0.3092  0.0863 -0.6573
   88SLPC   C31 8494   3.948   5.776   4.408 -0.0355 -0.0479 -0.5898
   88SLPC   O32 8495   4.003   5.860   4.338 -0.2350 -0.2680  0.0987
   88SLPC   C32 8496   3.884   5.815   4.549 -0.2090  0.0230  0.7382
   88SLPC   H2X 8497   3.778   5.779   4.552  0.3816 -1.8501  0.7165
   88SLPC   H2Y 8498   3.894   5.925   4.553  0.0261 -0.0348  2.2911
   88SLPC   C23 8499   4.332   5.550   4.743 -0.0996  0.9240  0.6322
   88SLPC   H3R 8500   4.267   5.625   4.793  0.3708  2.3226 -0.7522
   88SLPC   H3S 8501   4.419   5.615   4.716  1.6457 -0.5657  2.3811
   88SLPC   C24 8502   4.376   5.443   4.850 -0.2465 -0.0766 -0.0538
   88SLPC   H4R 8503   4.431   5.360   4.801  0.5355  2.5686 -4.1689
   88SLPC   H4S 8504   4.284   5.402   4.897 -1.1767 -0.0481 -1.7684
   88SLPC   C25 8505   4.457   5.506   4.961 -0.4448 -0.8986 -0.4384
   88SLPC   H5R 8506   4.383   5.576   5.005  0.7039 -1.0527  1.8655
   88SLPC   H5S 8507   4.551   5.550   4.923 -0.6948 -0.5959 -0.7167
   88SLPC   C26 8508   4.483   5.410   5.075  0.1700  0.0199  1.1097
   88SLPC   H6R 8509   4.537   5.322   5.032  1.2477  0.3495  1.7626
   88SLPC   H6S 8510   4.392   5.384   5.132  1.2095 -1.6776  2.1004
   88SLPC   C27 8511   4.578   5.466   5.184  0.1760  0.3307  0.7737
   88SLPC   H7R 8512   4.541   5.561   5.228  1.4270  0.9873  0.4472
   88SLPC   H7S 8513   4.674   5.487   5.133  1.1027 -0.4643  2.1015
   88SLPC   C28 8514   4.593   5.347   5.280  0.1291 -1.3461  0.1330
   88SLPC   H8R 8515   4.618   5.251   5.230  1.8093 -1.4100  1.0219
   88SLPC   H8S 8516   4.492   5.343   5.326 -0.7511  1.2393 -1.3705
   88SLPC   C29 8517   4.712   5.380   5.365  0.1075 -0.5091 -0.6378
   88SLPC   H9R 8518   4.807   5.392   5.312  1.1729 -1.4729  0.9754
   88SLPC  C210 8519   4.709   5.403   5.498  0.9050 -0.1074 -1.2559
   88SLPC  H10R 8520   4.805   5.427   5.544  0.0031 -1.6235  1.6996
   88SLPC  C211 8521   4.595   5.382   5.601  1.4227 -0.4267 -0.2704
   88SLPC  H11R 8522   4.494   5.399   5.557  0.6702  0.2086  1.5878
   88SLPC  H11S 8523   4.597   5.450   5.689 -0.2136  1.5523 -1.6622
   88SLPC  C212 8524   4.611   5.248   5.650 -0.1831  0.2854 -0.6550
   88SLPC  H12R 8525   4.531   5.188   5.604  0.7035 -1.1473 -0.3557
   88SLPC  C213 8526   4.687   5.201   5.748 -0.0207 -0.0584  0.6385
   88SLPC  H13R 8527   4.670   5.094   5.765 -0.9735  0.0477  0.4263
   88SLPC  C214 8528   4.803   5.273   5.823  0.5864 -0.4988  1.1583
   88SLPC  H14R 8529   4.765   5.307   5.921 -2.1720  0.0962 -0.0148
   88SLPC  H14S 8530   4.836   5.363   5.767  1.0892 -2.0269 -1.1328
   88SLPC  C215 8531   4.934   5.203   5.837  0.0922 -0.4250  0.1172
   88SLPC  H15R 8532   4.916   5.119   5.908 -1.4884 -2.6365 -2.6568
   88SLPC  H15S 8533   5.015   5.268   5.877 -0.0235  0.5764 -1.1900
   88SLPC  C216 8534   4.987   5.142   5.704 -0.2858 -0.1831 -0.2132
   88SLPC  H16R 8535   4.956   5.217   5.628 -1.2697  1.1132  1.4231
   88SLPC  H16S 8536   4.939   5.044   5.686 -1.5579  0.2762  0.5580
   88SLPC  C217 8537   5.144   5.121   5.699 -0.2356  0.2720  0.8019
   88SLPC  H17R 8538   5.195   5.210   5.745 -1.4845  0.7634  1.2754
   88SLPC  H17S 8539   5.165   5.112   5.591 -1.0294  0.3228  0.6392
   88SLPC  C218 8540   5.187   4.996   5.779  0.4338 -0.0835 -0.2944
   88SLPC  H18R 8541   5.294   4.967   5.774  0.2342 -0.9507  0.2754
   88SLPC  H18S 8542   5.127   4.908   5.747  0.2633 -0.4453  0.9665
   88SLPC  H18T 8543   5.160   5.014   5.885 -0.1867  0.2532 -0.5029
   88SLPC   C33 8544   3.953   5.740   4.671 -0.1810 -1.0053 -0.1000
   88SLPC   H3X 8545   4.062   5.763   4.666 -0.1579 -0.6552  1.6189
   88SLPC   H3Y 8546   3.936   5.630   4.663  0.5168 -1.1070 -0.2491
   88SLPC   C34 8547   3.899   5.791   4.805 -0.1628  1.1282  0.1445
   88SLPC   H4X 8548   3.802   5.740   4.826 -0.0466  1.2042  0.8938
   88SLPC   H4Y 8549   3.865   5.897   4.812 -0.6975  1.0067 -0.4581
   88SLPC   C35 8550   4.000   5.762   4.917  0.5475 -0.2291 -0.7002
   88SLPC   H5X 8551   4.087   5.829   4.901 -1.0525  1.7220 -1.8567
   88SLPC   H5Y 8552   4.034   5.657   4.904  0.6330 -0.5960  2.0303
   88SLPC   C36 8553   3.930   5.774   5.058  0.0535 -0.0985  0.1809
   88SLPC   H6X 8554   3.847   5.701   5.067  0.3452 -0.4196  0.2631
   88SLPC   H6Y 8555   3.890   5.878   5.060 -3.1234 -1.1284 -1.6195
   88SLPC   C37 8556   4.033   5.764   5.182 -0.0019 -0.2128 -0.5385
   88SLPC   H7X 8557   3.992   5.836   5.256 -0.4562  0.8299 -1.7674
   88SLPC   H7Y 8558   4.136   5.789   5.150  0.3665  0.3172  0.9939
   88SLPC   C38 8559   4.027   5.619   5.249  0.2425  0.8043  0.2323
   88SLPC   H8X 8560   4.036   5.541   5.171  0.5271  1.4533 -0.4009
   88SLPC   H8Y 8561   3.921   5.621   5.280 -0.0612  0.6842 -0.7587
   88SLPC   C39 8562   4.118   5.601   5.374  0.1614 -0.3779  0.2391
   88SLPC   H9X 8563   4.103   5.695   5.432 -2.2968 -1.4417  1.4923
   88SLPC   H9Y 8564   4.225   5.597   5.344 -0.1267 -0.8685 -0.7552
   88SLPC  C310 8565   4.094   5.480   5.464 -0.5695 -0.4140 -0.0056
   88SLPC  H10X 8566   4.115   5.384   5.411 -2.2081 -0.9280  0.2067
   88SLPC  H10Y 8567   3.988   5.481   5.499 -0.6239 -0.5265 -0.1646
   88SLPC  C311 8568   4.182   5.478   5.585  0.2299  0.6141 -0.9943
   88SLPC  H11X 8569   4.151   5.562   5.650  0.1234 -0.1522 -0.0317
   88SLPC  H11Y 8570   4.290   5.494   5.563  0.6331 -0.5809  0.0317
   88SLPC  C312 8571   4.171   5.345   5.663  0.8960  0.2486 -0.3162
   88SLPC  H12X 8572   4.196   5.253   5.606  0.5368  0.4698 -0.8318
   88SLPC  H12Y 8573   4.066   5.334   5.698  0.7556 -1.3800 -1.1623
   88SLPC  C313 8574   4.249   5.340   5.801  0.0834  0.4604 -0.7674
   88SLPC  H13X 8575   4.219   5.434   5.851 -1.0583 -1.3239  2.1406
   88SLPC  H13Y 8576   4.358   5.356   5.785  0.4102 -0.9896 -0.1721
   88SLPC  C314 8577   4.228   5.217   5.892  0.4066  0.9908 -0.5003
   88SLPC  H14X 8578   4.120   5.191   5.892  0.7239 -0.4318 -0.0467
   88SLPC  H14Y 8579   4.264   5.241   5.995  0.0540 -0.8216  0.0898
   88SLPC  C315 8580   4.286   5.087   5.833  0.2158 -0.5028  0.2818
   88SLPC  H15X 8581   4.396   5.103   5.828  0.2517 -1.0781 -1.2949
   88SLPC  H15Y 8582   4.254   5.080   5.727 -4.0854 -0.9971  1.4344
   88SLPC  C316 8583   4.242   4.955   5.898  0.9548  0.0393 -0.4200
   88SLPC  H16X 8584   4.301   4.877   5.845 -0.6128  0.4713 -2.9779
   88SLPC  H16Y 8585   4.135   4.925   5.894  0.5396  0.3782  3.6746
   88SLPC  C317 8586   4.260   4.953   6.051  0.2689 -1.4010  0.4150
   88SLPC  H17X 8587   4.187   5.012   6.111  1.6575 -0.2126  0.9974
   88SLPC  H17Y 8588   4.352   5.009   6.077 -0.5030  0.8785 -1.4092
   88SLPC  C318 8589   4.279   4.811   6.110  0.1519  0.0150 -0.5974
   88SLPC  H18X 8590   4.189   4.749   6.091  0.3285 -0.1521 -0.8953
   88SLPC  H18Y 8591   4.298   4.805   6.219  1.7789 -1.5781 -0.9334
   88SLPC  H18Z 8592   4.362   4.762   6.055 -0.0909 -0.6845 -0.3427
   89SAPE     N 8593   6.248   1.160   8.162 -0.6467  0.0771 -0.5265
   89SAPE   HN1 8594   6.153   1.190   8.193 -2.0353 -3.5984 -0.6261
   89SAPE   HN2 8595   6.225   1.065   8.127 -1.3013  0.5277 -1.3604
   89SAPE   HN3 8596   6.312   1.141   8.241 -0.7950 -2.2786 -0.9038
   89SAPE   C12 8597   6.301   1.251   8.050 -0.7015 -0.0444 -0.2456
   89SAPE  H12A 8598   6.405   1.220   8.028 -0.4723  0.9202 -0.5943
   89SAPE  H12B 8599   6.309   1.350   8.101  0.1894 -0.1376 -0.1906
   89SAPE   C11 8600   6.216   1.251   7.922 -0.4428  0.7334  0.6740
   89SAPE  H11A 8601   6.211   1.145   7.889 -0.9462  0.0242  2.8407
   89SAPE  H11B 8602   6.269   1.312   7.846 -0.3476 -0.3876 -0.1950
   89SAPE     P 8603   6.040   1.444   7.938 -0.0727 -0.2467  0.3486
   89SAPE   O13 8604   5.918   1.480   8.011 -0.1486 -0.0039 -0.2339
   89SAPE   O14 8605   6.153   1.531   7.967 -0.5117  0.2953  0.1492
   89SAPE   O12 8606   6.081   1.293   7.949 -0.1498 -0.1424  0.1575
   89SAPE   O11 8607   6.009   1.449   7.785 -0.4566 -0.8344 -0.1906
   89SAPE    C1 8608   5.883   1.506   7.729 -0.1773 -1.0153 -0.1493
   89SAPE    HA 8609   5.829   1.563   7.807 -0.8023 -1.1658 -0.4713
   89SAPE    HB 8610   5.902   1.574   7.643 -4.2627  0.4574 -0.0736
   89SAPE    C2 8611   5.788   1.411   7.659  0.0025  0.6356 -0.1498
   89SAPE    HS 8612   5.727   1.356   7.734  2.1403 -3.6487 -1.2643
   89SAPE   O21 8613   5.867   1.314   7.596  0.5191 -0.3078 -0.1531
   89SAPE   C21 8614   5.858   1.184   7.632  0.6132  0.3622 -0.0859
   89SAPE   O22 8615   5.788   1.141   7.722 -0.0273  0.1330  0.5723
   89SAPE   C22 8616   5.964   1.117   7.547  0.3834  0.3505  0.0564
   89SAPE   H2R 8617   5.919   1.105   7.446  0.0183 -0.9314  0.3459
   89SAPE   H2S 8618   6.048   1.189   7.541 -1.0620  2.0778 -0.3978
   89SAPE    C3 8619   5.676   1.474   7.571  0.8921 -0.0617 -0.0471
   89SAPE    HX 8620   5.625   1.548   7.635  2.4381  0.4942  0.5926
   89SAPE    HY 8621   5.602   1.397   7.541  1.7217 -1.3662  1.1091
   89SAPE   O31 8622   5.727   1.545   7.452  0.9163  0.5016  0.3500
   89SAPE   C31 8623   5.746   1.470   7.348  1.0698 -0.5827  0.0906
   89SAPE   O32 8624   5.726   1.351   7.337  0.3031  0.1683  0.0820
   89SAPE   C32 8625   5.800   1.562   7.235 -0.4565  1.0726  0.6603
   89SAPE   H2X 8626   5.878   1.628   7.280  1.5673 -0.4415 -0.4225
   89SAPE   H2Y 8627   5.722   1.629   7.193 -0.9809 -1.0991 -2.0823
   89SAPE   C23 8628   6.003   0.988   7.620  0.4777  0.1234 -0.2052
   89SAPE   H3R 8629   5.909   0.937   7.650  1.1292 -0.2803  1.2173
   89SAPE   H3S 8630   6.057   1.018   7.712 -2.6190  2.1644  1.1251
   89SAPE   C24 8631   6.080   0.890   7.533 -0.0026  0.4834 -0.0707
   89SAPE   H4R 8632   6.119   0.815   7.606 -2.1579  1.9448  2.7892
   89SAPE   H4S 8633   6.165   0.942   7.484  1.3240 -0.0431  1.5805
   89SAPE   C25 8634   5.995   0.819   7.429  0.1949  0.4016 -0.1475
   89SAPE   H5R 8635   5.941   0.731   7.467  1.2894 -0.4243 -0.4431
   89SAPE   C26 8636   5.980   0.853   7.297 -0.6227 -0.7376  0.1477
   89SAPE   H6R 8637   5.931   0.787   7.225  0.9959 -0.8717 -0.8803
   89SAPE   C27 8638   6.047   0.974   7.224  0.6660  0.6843 -0.6163
   89SAPE   H7R 8639   6.137   0.951   7.163  0.9704  1.1346 -0.3405
   89SAPE   H7S 8640   6.090   1.041   7.301  1.0002  1.8430 -1.7990
   89SAPE   C28 8641   5.951   1.052   7.129 -0.5291 -0.0624 -0.3345
   89SAPE   H8R 8642   5.876   1.114   7.181 -0.9297  0.1109 -1.0997
   89SAPE   C29 8643   5.956   1.045   6.997  0.9860 -0.9157  0.9220
   89SAPE   H9R 8644   5.894   1.116   6.941 -1.3311 -0.4722  3.7957
   89SAPE  C210 8645   6.059   0.974   6.907  0.6736  0.3144 -0.8430
   89SAPE  H10R 8646   6.013   0.942   6.811 -0.7824  2.8656 -1.0822
   89SAPE  H10S 8647   6.089   0.882   6.961  0.7192  0.5623 -0.4371
   89SAPE  C211 8648   6.179   1.063   6.885  0.2927 -0.3899 -0.6164
   89SAPE  H11R 8649   6.242   1.098   6.967 -1.4438  0.8305  0.2620
   89SAPE  C212 8650   6.218   1.099   6.760 -0.3397  0.1571  0.1422
   89SAPE  H12R 8651   6.320   1.140   6.755 -1.4117  3.0408  0.4961
   89SAPE  C213 8652   6.156   1.070   6.626  0.6217  0.3577  0.1889
   89SAPE  H13R 8653   6.093   1.160   6.608  1.0547  0.4230 -1.1113
   89SAPE  H13S 8654   6.080   0.989   6.621  0.9570  0.0374  0.1950
   89SAPE  C214 8655   6.243   1.062   6.502 -0.0142  0.0910  0.4377
   89SAPE  H14R 8656   6.345   1.100   6.519  1.5406 -2.7843 -1.5524
   89SAPE  C215 8657   6.216   1.012   6.381 -0.2969  0.2878  0.5465
   89SAPE  H15R 8658   6.285   1.018   6.296 -0.9153  1.8176  0.1338
   89SAPE  C216 8659   6.089   0.939   6.339 -0.4225  0.0896 -0.0326
   89SAPE  H16R 8660   6.005   1.011   6.342 -0.3687  0.1791 -0.4945
   89SAPE  H16S 8661   6.072   0.855   6.409  2.8561 -0.5062  0.2388
   89SAPE  C217 8662   6.081   0.887   6.196 -0.8158 -0.2451  0.8462
   89SAPE  H17R 8663   5.983   0.836   6.185 -0.6422 -0.7085  1.3691
   89SAPE  H17S 8664   6.169   0.822   6.172 -0.8680  0.3954 -1.2976
   89SAPE  C218 8665   6.109   1.000   6.090  0.3370 -0.3547  0.1331
   89SAPE  H18R 8666   6.202   1.058   6.109 -0.4052  1.4788 -1.5509
   89SAPE  H18S 8667   6.025   1.072   6.098  1.5355  1.2657 -1.1963
   89SAPE  C219 8668   6.088   0.955   5.944  0.8366  0.9373 -0.3530
   89SAPE  H19R 8669   6.089   1.053   5.890  1.2408  2.0941  1.6496
   89SAPE  H19S 8670   5.990   0.903   5.939  0.4795  1.6618 -1.1768
   89SAPE  C220 8671   6.205   0.870   5.899  0.3032  0.7403 -0.3238
   89SAPE  H20R 8672   6.205   0.849   5.790 -0.1689 -0.6883 -0.0633
   89SAPE  H20S 8673   6.195   0.772   5.950  0.7255  1.6995  1.6965
   89SAPE  H20T 8674   6.303   0.916   5.924  1.1691 -1.7181  1.1139
   89SAPE   C33 8675   5.874   1.486   7.115 -0.7980 -0.7474 -0.0167
   89SAPE   H3X 8676   5.914   1.389   7.151  2.3739 -0.3519 -2.0887
   89SAPE   H3Y 8677   5.955   1.550   7.075 -1.0242  2.0836  3.5296
   89SAPE   C34 8678   5.775   1.451   7.001 -0.1538 -0.7542  0.4287
   89SAPE   H4X 8679   5.676   1.429   7.045 -0.8628  1.3849  0.0390
   89SAPE   H4Y 8680   5.817   1.352   6.973  0.3114 -0.4371 -0.0201
   89SAPE   C35 8681   5.771   1.539   6.877 -0.1791 -0.1150 -0.6280
   89SAPE   H5X 8682   5.872   1.581   6.858  0.3140 -1.0132 -0.0722
   89SAPE   H5Y 8683   5.706   1.625   6.905 -0.3938 -0.7470  0.9063
   89SAPE   C36 8684   5.711   1.482   6.749 -0.0760 -0.0243 -0.2343
   89SAPE   H6X 8685   5.715   1.560   6.670  3.2368 -0.7467 -0.9421
   89SAPE   H6Y 8686   5.604   1.456   6.766  0.2826 -0.7990  0.9874
   89SAPE   C37 8687   5.781   1.353   6.703 -0.3856  0.0466 -0.2479
   89SAPE   H7X 8688   5.816   1.282   6.781  2.7337  1.6505 -0.0428
   89SAPE   H7Y 8689   5.875   1.391   6.657 -0.5464  0.4461 -0.2466
   89SAPE   C38 8690   5.710   1.284   6.594  0.3150 -0.4051 -0.6277
   89SAPE   H8X 8691   5.669   1.357   6.521  1.6302 -0.1236 -1.1122
   89SAPE   H8Y 8692   5.625   1.229   6.640 -0.6149 -1.7535 -3.7086
   89SAPE   C39 8693   5.810   1.202   6.517 -0.1997 -0.0027  0.5417
   89SAPE   H9X 8694   5.856   1.130   6.588 -0.5490  1.1174  1.9451
   89SAPE   H9Y 8695   5.896   1.261   6.480 -0.1262 -0.4302  0.0192
   89SAPE  C310 8696   5.750   1.131   6.397 -0.1635 -0.0970 -1.2035
   89SAPE  H10X 8697   5.655   1.081   6.427  2.3927 -3.9662  1.3869
   89SAPE  H10Y 8698   5.823   1.053   6.365 -0.8083 -1.1989 -0.0832
   89SAPE  C311 8699   5.729   1.221   6.278 -0.1893  0.2981  0.2940
   89SAPE  H11X 8700   5.815   1.290   6.264  0.8006 -0.8299  0.6704
   89SAPE  H11Y 8701   5.644   1.284   6.311  1.2465  0.6362  3.7787
   89SAPE  C312 8702   5.698   1.138   6.155 -0.4888  0.9750 -0.4977
   89SAPE  H12X 8703   5.596   1.092   6.158  0.4486 -1.4089 -2.1833
   89SAPE  H12Y 8704   5.779   1.064   6.137 -0.3623  1.0518 -0.2362
   89SAPE  C313 8705   5.697   1.216   6.023  0.3485  0.0780 -0.5080
   89SAPE  H13X 8706   5.802   1.241   5.995  0.1264 -0.0057 -1.4668
   89SAPE  H13Y 8707   5.648   1.313   6.044  1.0565  0.3457 -0.0630
   89SAPE  C314 8708   5.617   1.147   5.911 -0.3331  1.2602  0.4313
   89SAPE  H14X 8709   5.513   1.123   5.943 -0.4819  0.7552 -0.4001
   89SAPE  H14Y 8710   5.666   1.050   5.885 -1.8264  0.7541 -0.6712
   89SAPE  C315 8711   5.621   1.217   5.782  0.8329 -0.4319  0.0153
   89SAPE  H15X 8712   5.618   1.327   5.798  0.4146 -0.4633  0.1542
   89SAPE  H15Y 8713   5.534   1.188   5.719  1.4846 -1.1557 -0.5775
   89SAPE  C316 8714   5.748   1.189   5.691 -0.8414 -0.0803 -0.2989
   89SAPE  H16X 8715   5.778   1.082   5.689  0.3719  0.2489 -0.6492
   89SAPE  H16Y 8716   5.831   1.234   5.749 -0.5790 -0.5629 -0.2900
   89SAPE  C317 8717   5.745   1.267   5.554 -0.3880  0.2303 -0.0900
   89SAPE  H17X 8718   5.693   1.366   5.558 -1.5144 -0.3027 -1.1534
   89SAPE  H17Y 8719   5.688   1.221   5.471 -0.6185  4.2631 -2.4340
   89SAPE  C318 8720   5.892   1.279   5.506  0.5035 -0.0056  0.5838
   89SAPE  H18X 8721   5.912   1.351   5.424  0.8324 -1.0764 -0.3000
   89SAPE  H18Y 8722   5.923   1.181   5.466  1.5498  1.5189 -2.6729
   89SAPE  H18Z 8723   5.953   1.323   5.588  0.9703  2.9303 -1.1891
   90SAPE     N 8724   3.669   0.379   0.327 -0.5270 -0.3123 -0.5845
   90SAPE   HN1 8725   3.588   0.424   0.376 -1.1848 -1.8213 -0.2433
   90SAPE   HN2 8726   3.756   0.396   0.381 -0.0326 -0.9833 -1.1625
   90SAPE   HN3 8727   3.681   0.417   0.231  2.8492  0.8447  0.1588
   90SAPE   C12 8728   3.620   0.234   0.331  0.2279  0.2622  0.0343
   90SAPE  H12A 8729   3.658   0.189   0.425  2.3537  1.3269 -0.2609
   90SAPE  H12B 8730   3.650   0.167   0.248  0.4500 -0.2677  0.5415
   90SAPE   C11 8731   3.459   0.236   0.327 -0.7491  0.5067  0.1988
   90SAPE  H11A 8732   3.445   0.292   0.423  0.4345  0.3344  0.4884
   90SAPE  H11B 8733   3.412   0.137   0.344 -0.7587 -0.1969 -3.3051
   90SAPE     P 8734   3.293   0.265   0.110  0.1134  0.3788  0.1243
   90SAPE   O13 8735   3.352   0.165   0.020  0.1544 -0.0483 -0.1769
   90SAPE   O14 8736   3.168   0.229   0.175  0.3449  0.5566  0.0711
   90SAPE   O12 8737   3.398   0.312   0.218 -0.0160 -0.0387 -0.2632
   90SAPE   O11 8738   3.267   0.391   0.027 -0.0036 -0.8366 -0.3352
   90SAPE    C1 8739   3.372   0.452  -0.050  0.0487  0.1830 -0.0898
   90SAPE    HA 8740   3.360   0.563  -0.042 -0.0026  0.0940  1.2899
   90SAPE    HB 8741   3.476   0.430  -0.020 -1.0625 -1.0050  3.3198
   90SAPE    C2 8742   3.353   0.418  -0.201  0.3033  0.3572 -0.1480
   90SAPE    HS 8743   3.431   0.341  -0.220 -0.6034 -1.2625  2.2921
   90SAPE   O21 8744   3.371   0.531  -0.286 -0.0197 -0.2600 -0.5195
   90SAPE   C21 8745   3.493   0.580  -0.292 -0.5346  0.0131  0.5614
   90SAPE   O22 8746   3.593   0.530  -0.241 -0.2302  0.2295 -0.3140
   90SAPE   C22 8747   3.503   0.686  -0.402  0.0117 -0.1547 -0.2568
   90SAPE   H2R 8748   3.434   0.766  -0.369  0.9647 -0.3770  2.5938
   90SAPE   H2S 8749   3.609   0.720  -0.409 -0.3651  0.9329 -0.6853
   90SAPE    C3 8750   3.205   0.353  -0.227  0.2996  0.4049 -0.5578
   90SAPE    HX 8751   3.133   0.423  -0.179 -1.3580 -1.6864  0.2072
   90SAPE    HY 8752   3.198   0.255  -0.174  0.7030  0.9402  0.5015
   90SAPE   O31 8753   3.192   0.334  -0.368  0.0180 -0.3028  0.6336
   90SAPE   C31 8754   3.065   0.321  -0.403 -0.4932  0.1508  0.8701
   90SAPE   O32 8755   2.977   0.286  -0.326  0.0906  0.1251  0.0503
   90SAPE   C32 8756   3.050   0.334  -0.557  0.5873  0.3948 -0.2175
   90SAPE   H2X 8757   3.143   0.293  -0.602  0.2836 -0.5984  0.0431
   90SAPE   H2Y 8758   3.035   0.443  -0.572 -0.9223  0.4208  1.2340
   90SAPE   C23 8759   3.464   0.622  -0.543  0.6273  0.0808 -0.4831
   90SAPE   H3R 8760   3.496   0.518  -0.563  1.6320  0.6299 -1.8390
   90SAPE   H3S 8761   3.504   0.685  -0.625 -1.6634  0.8011 -1.1070
   90SAPE   C24 8762   3.313   0.634  -0.572  0.1372 -0.1250 -0.5404
   90SAPE   H4R 8763   3.252   0.575  -0.499 -0.4629  0.1764 -0.7863
   90SAPE   H4S 8764   3.293   0.581  -0.668  1.7853 -2.7842  0.4824
   90SAPE   C25 8765   3.262   0.772  -0.576  0.0578  0.0654 -0.0924
   90SAPE   H5R 8766   3.345   0.844  -0.580  0.3974 -0.3372 -0.4952
   90SAPE   C26 8767   3.132   0.810  -0.585  0.1173  0.3013  0.3797
   90SAPE   H6R 8768   3.115   0.918  -0.581  0.8621  0.4991 -1.1249
   90SAPE   C27 8769   3.007   0.721  -0.586 -0.0967 -0.9165  0.1593
   90SAPE   H7R 8770   2.931   0.793  -0.550  1.5311  2.2890 -2.3017
   90SAPE   H7S 8771   3.001   0.634  -0.517 -0.4827 -1.0222 -0.0080
   90SAPE   C28 8772   2.975   0.682  -0.728 -0.2518 -0.6452  0.8543
   90SAPE   H8R 8773   3.051   0.624  -0.782  0.7037  2.7328 -1.7612
   90SAPE   C29 8774   2.880   0.735  -0.807 -0.1323 -0.4128  0.4960
   90SAPE   H9R 8775   2.871   0.685  -0.904  1.4276 -1.8995  1.0531
   90SAPE  C210 8776   2.783   0.844  -0.772 -0.2015 -0.3741  0.3179
   90SAPE  H10R 8777   2.733   0.875  -0.866 -0.1292 -2.4204 -0.4468
   90SAPE  H10S 8778   2.837   0.935  -0.738 -0.6679 -1.5928  5.1074
   90SAPE  C211 8779   2.682   0.806  -0.665 -0.4648 -0.2840  0.6919
   90SAPE  H11R 8780   2.726   0.769  -0.571 -1.9419  0.2941  1.6404
   90SAPE  C212 8781   2.544   0.808  -0.670  0.0369  0.3940  0.6534
   90SAPE  H12R 8782   2.480   0.776  -0.587  1.0386 -0.6170  1.0543
   90SAPE  C213 8783   2.457   0.856  -0.791 -0.6097  0.3681  0.0064
   90SAPE  H13R 8784   2.365   0.795  -0.782  0.3572 -1.3596 -1.3644
   90SAPE  H13S 8785   2.501   0.831  -0.890 -1.4122 -0.6062 -0.1167
   90SAPE  C214 8786   2.424   1.002  -0.771 -0.1648 -0.4175  0.3291
   90SAPE  H14R 8787   2.465   1.043  -0.678 -1.1046 -2.2188  1.6082
   90SAPE  C215 8788   2.343   1.074  -0.854 -0.7414  0.2199 -0.8259
   90SAPE  H15R 8789   2.322   1.180  -0.838 -0.5561  0.2814 -0.9816
   90SAPE  C216 8790   2.276   1.029  -0.982 -0.9281  0.6685  0.4348
   90SAPE  H16R 8791   2.169   1.018  -0.955 -0.5463  2.4510  3.0239
   90SAPE  H16S 8792   2.296   0.923  -1.011 -2.2053  0.0882  1.5332
   90SAPE  C217 8793   2.288   1.116  -1.110  0.5366 -0.0641 -0.0659
   90SAPE  H17R 8794   2.268   1.224  -1.093  0.5007  0.4108 -2.6857
   90SAPE  H17S 8795   2.202   1.093  -1.177 -0.2415  0.9360  0.5714
   90SAPE  C218 8796   2.426   1.101  -1.182 -0.7081  0.2487  0.3418
   90SAPE  H18R 8797   2.437   0.992  -1.197 -0.0758  0.3828 -0.2314
   90SAPE  H18S 8798   2.512   1.139  -1.122  0.0843 -1.2203  0.1706
   90SAPE  C219 8799   2.404   1.181  -1.316  0.2901  0.1598  0.0948
   90SAPE  H19R 8800   2.377   1.280  -1.275 -0.0913 -0.0380  0.3273
   90SAPE  H19S 8801   2.315   1.135  -1.365 -0.4973  0.7793  0.9145
   90SAPE  C220 8802   2.525   1.191  -1.409 -0.7725 -0.5637  0.0034
   90SAPE  H20R 8803   2.497   1.220  -1.512  2.1676 -1.5236 -1.1719
   90SAPE  H20S 8804   2.557   1.085  -1.422 -1.3626 -0.4971 -2.4326
   90SAPE  H20T 8805   2.615   1.245  -1.371 -1.2467  0.9669 -0.9590
   90SAPE   C33 8806   2.938   0.256  -0.623  0.0195 -0.4639 -0.0077
   90SAPE   H3X 8807   2.837   0.288  -0.588  0.5097  0.9694  0.1479
   90SAPE   H3Y 8808   2.951   0.148  -0.599  1.6838 -1.3452 -3.9715
   90SAPE   C34 8809   2.944   0.268  -0.777  0.0095 -0.6220 -0.1111
   90SAPE   H4X 8810   3.044   0.231  -0.806 -0.2166 -2.2872  1.0624
   90SAPE   H4Y 8811   2.928   0.377  -0.796  0.0163 -0.4179  0.9782
   90SAPE   C35 8812   2.832   0.188  -0.842  0.1907  0.7710  0.8031
   90SAPE   H5X 8813   2.731   0.225  -0.813 -0.1036  1.2971 -0.8095
   90SAPE   H5Y 8814   2.838   0.084  -0.805  0.0261  0.7825  0.8652
   90SAPE   C36 8815   2.846   0.199  -1.002 -0.0762  0.3487 -0.3156
   90SAPE   H6X 8816   2.945   0.157  -1.029  1.5748  4.1486 -0.7968
   90SAPE   H6Y 8817   2.844   0.307  -1.029 -1.2572  0.4846  0.2601
   90SAPE   C37 8818   2.723   0.125  -1.058  0.5499 -0.3010 -0.0503
   90SAPE   H7X 8819   2.630   0.167  -1.015 -0.5216 -2.3414 -0.2264
   90SAPE   H7Y 8820   2.731   0.015  -1.039 -1.5126 -0.4742 -0.0046
   90SAPE   C38 8821   2.711   0.148  -1.207  0.2704  0.1231  0.3741
   90SAPE   H8X 8822   2.616   0.108  -1.249 -0.0567 -0.0558  1.2445
   90SAPE   H8Y 8823   2.791   0.094  -1.262  0.7183 -1.3889  2.3802
   90SAPE   C39 8824   2.704   0.296  -1.240 -0.1446 -1.2921  0.1279
   90SAPE   H9X 8825   2.808   0.335  -1.245 -0.3348 -0.6956  0.5877
   90SAPE   H9Y 8826   2.659   0.349  -1.153  1.2307 -0.9617  0.6624
   90SAPE  C310 8827   2.625   0.343  -1.362 -0.5115 -0.0398 -0.7911
   90SAPE  H10X 8828   2.603   0.452  -1.364 -0.4975  0.0905  2.1403
   90SAPE  H10Y 8829   2.530   0.284  -1.360  0.3434 -1.4599 -0.8253
   90SAPE  C311 8830   2.692   0.301  -1.491  0.3149  0.5530  0.2022
   90SAPE  H11X 8831   2.735   0.199  -1.476 -1.0112  0.0237  0.5312
   90SAPE  H11Y 8832   2.774   0.373  -1.510 -0.9518  1.7993 -0.6671
   90SAPE  C312 8833   2.595   0.281  -1.607 -0.1191  0.8026  0.6094
   90SAPE  H12X 8834   2.533   0.373  -1.609 -0.1661  0.8128 -2.7589
   90SAPE  H12Y 8835   2.524   0.196  -1.600 -0.9199  1.2928 -1.1808
   90SAPE  C313 8836   2.678   0.260  -1.736  0.0011  0.6197  0.6284
   90SAPE  H13X 8837   2.735   0.171  -1.703 -0.1230 -0.7441 -2.5012
   90SAPE  H13Y 8838   2.748   0.346  -1.744 -0.4060  0.9240  0.2248
   90SAPE  C314 8839   2.621   0.255  -1.880 -0.3494 -0.5035 -0.0639
   90SAPE  H14X 8840   2.707   0.279  -1.945 -1.5471 -0.6440 -1.7813
   90SAPE  H14Y 8841   2.548   0.332  -1.914  0.0812 -0.5104 -1.0202
   90SAPE  C315 8842   2.576   0.118  -1.918  0.0715  0.7748 -0.0173
   90SAPE  H15X 8843   2.531   0.077  -1.826  1.3989 -1.0377 -0.1229
   90SAPE  H15Y 8844   2.667   0.057  -1.931 -0.0312  0.7158 -0.4743
   90SAPE  C316 8845   2.470   0.104  -2.025 -0.2247 -0.4223 -0.0079
   90SAPE  H16X 8846   2.512   0.165  -2.109  3.0694 -0.4649  1.4468
   90SAPE  H16Y 8847   2.378   0.149  -1.983  0.5225  0.2722  0.9456
   90SAPE  C317 8848   2.460  -0.033  -2.085 -0.1505  0.3372  0.4786
   90SAPE  H17X 8849   2.456  -0.109  -2.004  1.2971 -0.7027 -0.3765
   90SAPE  H17Y 8850   2.553  -0.051  -2.143  0.3314 -2.7336  2.0400
   90SAPE  C318 8851   2.345  -0.041  -2.183 -0.2247  0.5224  0.1593
   90SAPE  H18X 8852   2.342  -0.143  -2.228  0.5894  1.0095 -1.0257
   90SAPE  H18Y 8853   2.346   0.035  -2.263  1.4086  1.2973  0.8754
   90SAPE  H18Z 8854   2.248  -0.027  -2.130  0.1373  1.7879  0.5267
   91SAPE     N 8855   4.680   6.012   8.663  0.2758 -0.2593 -0.3256
   91SAPE   HN1 8856   4.699   6.074   8.744 -1.3712  0.2962 -0.3350
   91SAPE   HN2 8857   4.674   5.914   8.697  0.6048  0.3011  1.4501
   91SAPE   HN3 8858   4.760   6.025   8.598  0.6121 -0.6645 -0.0039
   91SAPE   C12 8859   4.558   6.068   8.599  0.4456  0.6201  0.1337
   91SAPE  H12A 8860   4.528   5.997   8.520 -1.3464 -1.2808  2.3705
   91SAPE  H12B 8861   4.587   6.165   8.555 -0.2608  0.2019 -1.3025
   91SAPE   C11 8862   4.442   6.073   8.701  0.5448  0.1117 -0.0372
   91SAPE  H11A 8863   4.468   6.147   8.779  2.1962  0.2984 -0.7352
   91SAPE  H11B 8864   4.435   5.971   8.746  2.0116 -0.1599 -0.3610
   91SAPE     P 8865   4.221   6.021   8.567  0.0566  0.2956 -0.4034
   91SAPE   O13 8866   4.246   5.886   8.624  0.1169  0.5749 -0.4732
   91SAPE   O14 8867   4.085   6.076   8.574  0.6315  0.1510  0.3112
   91SAPE   O12 8868   4.321   6.118   8.648  0.0405 -0.8273  0.2916
   91SAPE   O11 8869   4.271   6.032   8.414  0.1949  0.3031  0.1052
   91SAPE    C1 8870   4.289   6.167   8.362  0.1078 -0.1279  0.5331
   91SAPE    HA 8871   4.337   6.232   8.438 -3.7651  1.9376  1.4584
   91SAPE    HB 8872   4.356   6.163   8.273 -1.0507  1.2064 -0.4435
   91SAPE    C2 8873   4.146   6.231   8.322 -0.0297 -0.3994 -0.1428
   91SAPE    HS 8874   4.083   6.231   8.414  1.2799 -1.0455  0.7904
   91SAPE   O21 8875   4.081   6.154   8.221  0.4433  0.9022  0.3539
   91SAPE   C21 8876   3.945   6.174   8.204  0.7495 -0.0108 -0.8209
   91SAPE   O22 8877   3.877   6.230   8.286 -0.1160  0.6536  0.2485
   91SAPE   C22 8878   3.896   6.103   8.084 -0.0368 -0.5048 -0.3252
   91SAPE   H2R 8879   3.961   6.134   8.000  0.3183  1.9351  0.7603
   91SAPE   H2S 8880   3.904   5.994   8.104  0.4458 -0.6445 -1.2615
   91SAPE    C3 8881   4.163   6.372   8.270  0.1666 -1.0776 -0.1176
   91SAPE    HX 8882   4.188   6.429   8.363 -3.4717  0.2274  0.2048
   91SAPE    HY 8883   4.062   6.411   8.247 -0.2788 -1.4856  1.0648
   91SAPE   O31 8884   4.262   6.365   8.169 -0.7098  0.0455 -0.2281
   91SAPE   C31 8885   4.257   6.464   8.081 -0.6496  0.2615  0.0700
   91SAPE   O32 8886   4.170   6.550   8.069 -0.4258  0.0474 -0.1647
   91SAPE   C32 8887   4.391   6.471   8.003  0.5047  0.4552  0.2436
   91SAPE   H2X 8888   4.452   6.378   7.997  2.0201  1.3867  0.8097
   91SAPE   H2Y 8889   4.453   6.537   8.067  0.9064 -0.5499  0.9134
   91SAPE   C23 8890   3.748   6.139   8.047  0.6785 -0.0237  0.4664
   91SAPE   H3R 8891   3.737   6.249   8.040 -1.3051 -0.2627 -1.3449
   91SAPE   H3S 8892   3.678   6.104   8.126  2.0691  0.0378  1.7623
   91SAPE   C24 8893   3.710   6.071   7.912  0.2129  0.1290  0.3817
   91SAPE   H4R 8894   3.600   6.075   7.901  0.1496  0.0051  0.9352
   91SAPE   H4S 8895   3.731   5.963   7.898  0.0523  0.2154 -0.6050
   91SAPE   C25 8896   3.772   6.158   7.804  0.1517  0.2666 -0.4056
   91SAPE   H5R 8897   3.826   6.247   7.838  0.2035  0.8450 -1.9253
   91SAPE   C26 8898   3.778   6.130   7.672  0.8844 -0.7012 -0.3176
   91SAPE   H6R 8899   3.817   6.207   7.604 -0.9081  0.6857  0.1665
   91SAPE   C27 8900   3.703   6.007   7.608 -0.3485  0.1362 -0.7582
   91SAPE   H7R 8901   3.683   5.938   7.692  0.1297  1.0549  0.1334
   91SAPE   H7S 8902   3.770   5.955   7.536  0.8700  0.3843  0.1448
   91SAPE   C28 8903   3.570   6.013   7.534  0.2570 -0.6567 -0.4711
   91SAPE   H8R 8904   3.491   5.968   7.595  0.3336 -0.8581 -0.5167
   91SAPE   C29 8905   3.548   6.065   7.411 -0.2777 -0.4682 -1.4348
   91SAPE   H9R 8906   3.444   6.061   7.377 -0.9273 -1.0439  0.4623
   91SAPE  C210 8907   3.647   6.133   7.325 -0.5556 -0.5951  0.3578
   91SAPE  H10R 8908   3.715   6.197   7.385 -2.3078 -0.2800  2.1439
   91SAPE  H10S 8909   3.593   6.207   7.263  1.2570 -1.2071 -2.0772
   91SAPE  C211 8910   3.731   6.060   7.220  0.3161 -0.0582  0.2167
   91SAPE  H11R 8911   3.807   5.994   7.265 -1.6871 -1.6680  1.3849
   91SAPE  C212 8912   3.712   6.056   7.085  0.0104 -0.3326  0.9918
   91SAPE  H12R 8913   3.768   5.985   7.022  0.8592  0.0745  1.2725
   91SAPE  C213 8914   3.609   6.134   7.012 -0.4255 -0.0333  0.8332
   91SAPE  H13R 8915   3.647   6.149   6.908 -0.5987  0.8007  0.8822
   91SAPE  H13S 8916   3.612   6.236   7.056 -1.0378  0.1847  0.3769
   91SAPE  C214 8917   3.483   6.059   7.017 -0.2762 -0.2666 -0.3521
   91SAPE  H14R 8918   3.442   6.053   7.119  0.4793  2.1637  0.1555
   91SAPE  C215 8919   3.407   6.028   6.913  0.0987 -0.6430  0.3198
   91SAPE  H15R 8920   3.324   5.960   6.938 -0.4059 -0.6270 -1.1750
   91SAPE  C216 8921   3.444   6.035   6.760 -0.0869 -0.2276  0.0439
   91SAPE  H16R 8922   3.545   5.989   6.752 -0.0651 -0.6737  2.3025
   91SAPE  H16S 8923   3.466   6.139   6.730 -1.0713 -0.4614 -1.6513
   91SAPE  C217 8924   3.346   5.980   6.659  0.7388 -0.6831 -0.5932
   91SAPE  H17R 8925   3.251   6.031   6.685  0.6793  0.2643 -2.5346
   91SAPE  H17S 8926   3.340   5.869   6.668 -1.1314 -0.6167 -0.6469
   91SAPE  C218 8927   3.378   6.029   6.518 -0.4799 -0.5385  0.1977
   91SAPE  H18R 8928   3.384   6.140   6.521  0.2432 -0.5972  1.3107
   91SAPE  H18S 8929   3.295   5.999   6.450 -0.6076  1.8103 -0.7740
   91SAPE  C219 8930   3.510   5.984   6.453 -0.8600 -0.0476  0.0473
   91SAPE  H19R 8931   3.529   5.876   6.472  0.2106  0.4852  2.4276
   91SAPE  H19S 8932   3.589   6.046   6.500 -1.0684  0.6986 -0.5675
   91SAPE  C220 8933   3.511   6.018   6.305  0.5299  0.1684 -0.4029
   91SAPE  H20R 8934   3.440   5.950   6.254  1.5336 -1.9333  0.8752
   91SAPE  H20S 8935   3.613   5.997   6.266  0.3170  0.1615 -0.9732
   91SAPE  H20T 8936   3.496   6.126   6.283 -0.5478  0.0658 -0.1960
   91SAPE   C33 8937   4.367   6.539   7.862  0.0501 -0.0639  0.5581
   91SAPE   H3X 8938   4.464   6.579   7.826  0.5433 -1.1240  0.6577
   91SAPE   H3Y 8939   4.294   6.622   7.876  1.9105  1.7953 -0.2970
   91SAPE   C34 8940   4.314   6.440   7.754 -0.6167 -0.0038 -0.6323
   91SAPE   H4X 8941   4.208   6.412   7.774 -0.5849  0.8865  0.9629
   91SAPE   H4Y 8942   4.378   6.349   7.761 -0.1410  0.3346 -0.5128
   91SAPE   C35 8943   4.334   6.508   7.620  0.0285  0.9628  0.5527
   91SAPE   H5X 8944   4.442   6.530   7.606 -0.0603  2.2146  1.6520
   91SAPE   H5Y 8945   4.268   6.597   7.610 -1.4455 -0.1369  0.1551
   91SAPE   C36 8946   4.299   6.411   7.511  0.1512 -0.0991  0.9205
   91SAPE   H6X 8947   4.189   6.403   7.501  0.4217 -1.6252 -1.7558
   91SAPE   H6Y 8948   4.335   6.310   7.543 -0.5463 -0.5886  0.1830
   91SAPE   C37 8949   4.362   6.437   7.366 -0.1880  1.2472 -0.0893
   91SAPE   H7X 8950   4.472   6.424   7.371 -0.4705 -1.4625  0.6327
   91SAPE   H7Y 8951   4.328   6.538   7.334 -2.5830  0.1569 -1.2759
   91SAPE   C38 8952   4.295   6.343   7.268 -0.6176  0.3614 -0.7681
   91SAPE   H8X 8953   4.186   6.361   7.269 -0.7494 -0.1813 -2.3038
   91SAPE   H8Y 8954   4.307   6.237   7.298 -1.9529  0.6602  1.0080
   91SAPE   C39 8955   4.329   6.364   7.117 -0.4207 -0.3882  0.2165
   91SAPE   H9X 8956   4.312   6.470   7.090 -0.5191 -0.5545 -0.3746
   91SAPE   H9Y 8957   4.274   6.298   7.048  1.3038 -1.6679  0.0132
   91SAPE  C310 8958   4.478   6.323   7.098 -0.4272  0.1933  0.3633
   91SAPE  H10X 8959   4.486   6.217   7.129  0.5122 -0.0330 -0.5611
   91SAPE  H10Y 8960   4.550   6.380   7.161  1.5046 -1.3218 -0.3712
   91SAPE  C311 8961   4.520   6.325   6.944  0.3822  0.1571 -0.9966
   91SAPE  H11X 8962   4.474   6.414   6.895  2.2927  1.4933 -0.4784
   91SAPE  H11Y 8963   4.478   6.234   6.896 -0.7571  1.5616 -2.7844
   91SAPE  C312 8964   4.673   6.329   6.926 -0.1611  0.6175  0.2286
   91SAPE  H12X 8965   4.722   6.257   6.995  0.3568 -0.1123 -0.8777
   91SAPE  H12Y 8966   4.713   6.427   6.960 -0.4074  0.4574  1.0024
   91SAPE  C313 8967   4.714   6.300   6.781 -0.0015  0.2630 -0.0094
   91SAPE  H13X 8968   4.678   6.196   6.762 -1.0745  0.6904 -0.4174
   91SAPE  H13Y 8969   4.824   6.310   6.786 -0.1052  1.5339  0.0312
   91SAPE  C314 8970   4.663   6.395   6.674 -0.5666 -1.0541 -0.2566
   91SAPE  H14X 8971   4.662   6.496   6.723 -1.0886 -1.4690  0.6131
   91SAPE  H14Y 8972   4.558   6.363   6.661 -0.3190 -2.1529  0.3662
   91SAPE  C315 8973   4.736   6.390   6.540 -0.2297 -0.1981 -0.0463
   91SAPE  H15X 8974   4.734   6.287   6.500  0.3122 -0.6078  0.9474
   91SAPE  H15Y 8975   4.840   6.416   6.567 -0.7864  2.2362  0.0455
   91SAPE  C316 8976   4.693   6.481   6.432  0.1296 -0.0171  0.2397
   91SAPE  H16X 8977   4.713   6.590   6.438  0.3004 -0.0269 -0.1153
   91SAPE  H16Y 8978   4.582   6.475   6.419  0.2913 -2.1801 -0.5092
   91SAPE  C317 8979   4.736   6.433   6.293 -0.2558  0.1142  0.0434
   91SAPE  H17X 8980   4.685   6.337   6.271 -0.5064 -0.2154  1.9140
   91SAPE  H17Y 8981   4.846   6.420   6.298 -0.3507 -0.6110  0.3699
   91SAPE  C318 8982   4.706   6.541   6.194  1.3453 -0.2174 -0.1359
   91SAPE  H18X 8983   4.595   6.554   6.201  1.2973 -0.6191 -0.1583
   91SAPE  H18Y 8984   4.729   6.517   6.088  1.2950 -0.4404 -0.0970
   91SAPE  H18Z 8985   4.764   6.634   6.212 -0.1579  0.3003  2.5633
   92SAPE     N 8986   4.273   0.111   8.639 -0.0824  1.0998  0.1099
   92SAPE   HN1 8987   4.190   0.051   8.658  0.0700  1.0565  0.6618
   92SAPE   HN2 8988   4.253   0.188   8.572 -0.5096  1.1917  0.3437
   92SAPE   HN3 8989   4.337   0.042   8.594 -0.2901  0.4407  0.7864
   92SAPE   C12 8990   4.332   0.176   8.760 -0.2772 -0.0203 -0.8100
   92SAPE  H12A 8991   4.380   0.091   8.813 -0.2143  1.2119  1.1986
   92SAPE  H12B 8992   4.251   0.211   8.828  0.8443  0.8804  0.0912
   92SAPE   C11 8993   4.427   0.279   8.722 -0.5297 -0.2897 -0.2040
   92SAPE  H11A 8994   4.509   0.238   8.659 -1.9364 -0.9371 -1.6547
   92SAPE  H11B 8995   4.466   0.324   8.817 -3.1036  1.4675  0.1273
   92SAPE     P 8996   4.375   0.403   8.494 -0.2174  0.0467  0.0768
   92SAPE   O13 8997   4.513   0.446   8.459  0.3905  0.7628 -0.1962
   92SAPE   O14 8998   4.330   0.278   8.430  0.4865 -0.1371 -0.4587
   92SAPE   O12 8999   4.362   0.393   8.652 -0.3335  0.0296 -0.4069
   92SAPE   O11 9000   4.275   0.520   8.456 -0.1406 -0.7286  0.1890
   92SAPE    C1 9001   4.134   0.510   8.446  0.5598 -0.1715  0.4115
   92SAPE    HA 9002   4.082   0.423   8.490 -1.0099  0.5401  0.0393
   92SAPE    HB 9003   4.079   0.594   8.493 -1.6129 -1.3355  0.0486
   92SAPE    C2 9004   4.082   0.518   8.297  0.4290 -0.3905  0.1550
   92SAPE    HS 9005   4.093   0.415   8.256  0.1192 -0.4807  0.2871
   92SAPE   O21 9006   4.161   0.617   8.224  0.3425 -0.2896  0.2599
   92SAPE   C21 9007   4.234   0.574   8.123 -0.0777  0.6302 -0.1897
   92SAPE   O22 9008   4.226   0.465   8.067 -0.2291  0.1271 -0.2262
   92SAPE   C22 9009   4.347   0.676   8.108  0.3669 -0.8731 -0.0650
   92SAPE   H2R 9010   4.301   0.776   8.120  1.3717 -0.7054  3.4675
   92SAPE   H2S 9011   4.413   0.664   8.196  0.8195 -0.3334 -0.3229
   92SAPE    C3 9012   3.934   0.560   8.311 -0.0826 -0.5706  0.0461
   92SAPE    HX 9013   3.935   0.670   8.323  2.5503 -0.5352 -0.0460
   92SAPE    HY 9014   3.895   0.516   8.405  0.8651  1.1214  1.2766
   92SAPE   O31 9015   3.861   0.503   8.196  0.0472  0.2202 -0.0298
   92SAPE   C31 9016   3.780   0.591   8.137 -0.5238 -0.2154  0.3070
   92SAPE   O32 9017   3.796   0.715   8.127  0.6406 -0.3462  0.5132
   92SAPE   C32 9018   3.678   0.507   8.062  0.6009  0.2485  0.3162
   92SAPE   H2X 9019   3.628   0.444   8.140 -1.1923 -0.4524 -1.3184
   92SAPE   H2Y 9020   3.732   0.443   7.990  1.3605  0.6524  0.5212
   92SAPE   C23 9021   4.428   0.668   7.981 -0.5285  0.1008  0.9539
   92SAPE   H3R 9022   4.484   0.574   7.959  0.8074  0.7539  1.4691
   92SAPE   H3S 9023   4.495   0.756   7.991 -0.5908  0.0517  2.0042
   92SAPE   C24 9024   4.336   0.695   7.857 -0.0068  0.4363 -0.4756
   92SAPE   H4R 9025   4.267   0.775   7.892 -0.0721  0.5347 -0.8205
   92SAPE   H4S 9026   4.270   0.607   7.841  1.7534 -1.0295  0.0109
   92SAPE   C25 9027   4.412   0.719   7.728  0.8322  0.3136  0.4434
   92SAPE   H5R 9028   4.490   0.795   7.742  1.9640 -1.0503  1.9864
   92SAPE   C26 9029   4.392   0.649   7.613 -0.3158 -0.0489 -0.1313
   92SAPE   H6R 9030   4.465   0.677   7.536  1.6602  0.4148  1.7974
   92SAPE   C27 9031   4.284   0.544   7.582  0.4055  0.0389  0.4292
   92SAPE   H7R 9032   4.261   0.475   7.666  2.2098  0.3959  1.2751
   92SAPE   H7S 9033   4.329   0.469   7.513  2.4439  1.4944  0.0725
   92SAPE   C28 9034   4.159   0.612   7.523 -0.0917  0.2656 -0.1831
   92SAPE   H8R 9035   4.083   0.645   7.596 -0.6370 -2.5790  0.6516
   92SAPE   C29 9036   4.136   0.645   7.396 -0.2648 -0.8054  0.9279
   92SAPE   H9R 9037   4.039   0.692   7.374  0.0916 -0.1622  0.7057
   92SAPE  C210 9038   4.234   0.626   7.276  0.2198  0.1390  0.1678
   92SAPE  H10R 9039   4.180   0.553   7.212  0.8461 -0.7710  0.6471
   92SAPE  H10S 9040   4.327   0.568   7.297  0.1404  0.0907  0.3879
   92SAPE  C211 9041   4.284   0.752   7.213 -0.3517 -0.0348 -0.3045
   92SAPE  H11R 9042   4.350   0.811   7.278 -1.2219  0.9704 -0.2927
   92SAPE  C212 9043   4.260   0.792   7.086 -0.0140 -0.3464 -0.0459
   92SAPE  H12R 9044   4.306   0.888   7.059 -2.1608  1.7652  3.0423
   92SAPE  C213 9045   4.178   0.721   6.982 -0.1431 -0.1201  0.1607
   92SAPE  H13R 9046   4.164   0.784   6.891 -1.3810  0.5063  0.7534
   92SAPE  H13S 9047   4.076   0.704   7.024 -0.0044  0.2124  0.6408
   92SAPE  C214 9048   4.230   0.588   6.935  0.0227 -0.3737 -0.0792
   92SAPE  H14R 9049   4.249   0.522   7.021 -0.6096  1.6629  1.7013
   92SAPE  C215 9050   4.252   0.538   6.809 -0.6858  0.1018  0.1369
   92SAPE  H15R 9051   4.273   0.430   6.809  2.2400  0.6058  0.0754
   92SAPE  C216 9052   4.229   0.602   6.675 -0.1309 -0.6859 -0.3698
   92SAPE  H16R 9053   4.323   0.608   6.616 -0.6052  2.1660 -0.9720
   92SAPE  H16S 9054   4.185   0.704   6.679 -2.9171 -1.7535 -1.0038
   92SAPE  C217 9055   4.122   0.535   6.588  0.5090 -0.0304  0.3035
   92SAPE  H17R 9056   4.123   0.594   6.494  1.9507  0.3360  0.5153
   92SAPE  H17S 9057   4.024   0.552   6.637  0.1342 -1.5104  0.1187
   92SAPE  C218 9058   4.123   0.383   6.572  0.2079  0.2424  0.0728
   92SAPE  H18R 9059   4.138   0.336   6.672 -0.4689  0.7065  0.3979
   92SAPE  H18S 9060   4.217   0.356   6.520  0.0356  1.0834 -0.6992
   92SAPE  C219 9061   4.007   0.316   6.499 -0.6600 -0.2127  0.7499
   92SAPE  H19R 9062   3.995   0.382   6.410  0.8028  1.8380  1.9781
   92SAPE  H19S 9063   3.910   0.323   6.553 -0.6748 -0.2114  0.7238
   92SAPE  C220 9064   4.046   0.176   6.455  0.6667 -0.0778  0.4949
   92SAPE  H20R 9065   3.972   0.145   6.378  0.4733 -0.7035  0.9223
   92SAPE  H20S 9066   4.027   0.112   6.544  1.1651  0.9098  1.3271
   92SAPE  H20T 9067   4.146   0.169   6.408  1.9999  2.7895  2.5770
   92SAPE   C33 9068   3.580   0.591   7.974  0.4016  0.8176  0.5471
   92SAPE   H3X 9069   3.642   0.633   7.891 -0.2342  1.5955  0.4503
   92SAPE   H3Y 9070   3.529   0.677   8.023 -2.2784 -1.6028  2.2656
   92SAPE   C34 9071   3.466   0.511   7.904  0.1246 -0.0197  0.2933
   92SAPE   H4X 9072   3.398   0.489   7.989  0.4159 -0.9292  0.3006
   92SAPE   H4Y 9073   3.503   0.420   7.853 -0.1842  0.5040 -0.9002
   92SAPE   C35 9074   3.365   0.597   7.815  0.5850 -0.3003 -0.1955
   92SAPE   H5X 9075   3.419   0.615   7.720  0.2583 -0.4800 -0.4170
   92SAPE   H5Y 9076   3.347   0.689   7.874  1.4664  0.0976 -0.5227
   92SAPE   C36 9077   3.233   0.536   7.771  0.4990  0.4263  0.6052
   92SAPE   H6X 9078   3.170   0.616   7.726  2.6302  1.9312  0.1427
   92SAPE   H6Y 9079   3.179   0.502   7.862 -1.2938 -0.2755 -0.6532
   92SAPE   C37 9080   3.264   0.431   7.667 -0.7591  0.2733 -0.2449
   92SAPE   H7X 9081   3.324   0.354   7.720  2.7569  1.7196 -1.8500
   92SAPE   H7Y 9082   3.337   0.471   7.594 -1.9862  0.0024 -1.6627
   92SAPE   C38 9083   3.151   0.371   7.597  0.4249 -0.3080  0.5784
   92SAPE   H8X 9084   3.078   0.445   7.558 -0.3389 -0.4884  1.6095
   92SAPE   H8Y 9085   3.096   0.311   7.673 -0.5698  0.4200  0.4461
   92SAPE   C39 9086   3.198   0.278   7.486  0.1705 -0.4299  0.1279
   92SAPE   H9X 9087   3.244   0.185   7.525  2.3499 -0.0843 -1.3927
   92SAPE   H9Y 9088   3.281   0.333   7.436  1.3450 -1.6190  0.7144
   92SAPE  C310 9089   3.093   0.236   7.380  0.2544  0.6036  0.2008
   92SAPE  H10X 9090   3.027   0.321   7.352 -1.3980 -0.6716  0.0981
   92SAPE  H10Y 9091   3.027   0.162   7.429  1.5695  0.1483  1.3419
   92SAPE  C311 9092   3.135   0.178   7.247 -0.2002 -0.0244  0.0582
   92SAPE  H11X 9093   3.192   0.084   7.260  0.9662  0.7361  0.7004
   92SAPE  H11Y 9094   3.201   0.244   7.185  0.0482  1.1799  1.5433
   92SAPE  C312 9095   3.018   0.144   7.161  0.2319  0.1566  0.3140
   92SAPE  H12X 9096   2.985   0.239   7.115  1.0035  1.2165  1.8318
   92SAPE  H12Y 9097   2.929   0.107   7.216 -0.1011 -1.1432 -1.0448
   92SAPE  C313 9098   3.059   0.045   7.050  0.4625  0.2327 -0.1565
   92SAPE  H13X 9099   3.047  -0.057   7.092  0.6920  0.3326  0.1528
   92SAPE  H13Y 9100   3.158   0.074   7.010  0.5349  2.1831  1.3281
   92SAPE  C314 9101   2.963   0.060   6.931  0.6222  0.5452  0.0898
   92SAPE  H14X 9102   2.963   0.167   6.900  0.4023  0.2388 -0.9930
   92SAPE  H14Y 9103   2.867   0.030   6.978  1.8054 -0.1562  2.1756
   92SAPE  C315 9104   3.014  -0.027   6.816  0.2626 -0.9163 -0.3369
   92SAPE  H15X 9105   3.005  -0.131   6.854 -0.7827 -1.2622 -1.4667
   92SAPE  H15Y 9106   3.116  -0.015   6.773 -0.0639 -0.1228 -0.9195
   92SAPE  C316 9107   2.913  -0.029   6.697  0.1221  0.1029 -0.2018
   92SAPE  H16X 9108   2.910   0.066   6.640  0.2226 -0.4060 -1.0681
   92SAPE  H16Y 9109   2.814  -0.058   6.738 -0.2861  1.1949 -0.4018
   92SAPE  C317 9110   2.964  -0.120   6.587  0.1941 -0.4641  0.0815
   92SAPE  H17X 9111   2.966  -0.225   6.625 -0.4667 -0.8288 -0.8561
   92SAPE  H17Y 9112   3.072  -0.095   6.575 -0.6262  2.2841 -2.8245
   92SAPE  C318 9113   2.881  -0.111   6.458 -0.7197  0.1530  0.6368
   92SAPE  H18X 9114   2.787  -0.169   6.466 -0.7653  0.0252 -0.7303
   92SAPE  H18Y 9115   2.943  -0.145   6.373  0.3746  0.1305  1.4257
   92SAPE  H18Z 9116   2.857  -0.006   6.430  0.6587 -0.4998 -3.7425
   93SAPE     N 9117   0.450   5.627   8.598  0.4055 -0.1384  0.3099
   93SAPE   HN1 9118   0.501   5.711   8.566 -2.9526  1.3135 -1.8137
   93SAPE   HN2 9119   0.419   5.655   8.693  1.5304  2.6635 -0.0413
   93SAPE   HN3 9120   0.506   5.540   8.590  1.4832  0.5879 -0.1777
   93SAPE   C12 9121   0.338   5.599   8.499  0.6946 -0.0289  0.2675
   93SAPE  H12A 9122   0.274   5.689   8.500  0.5935 -0.0853  1.5500
   93SAPE  H12B 9123   0.293   5.506   8.540 -1.8935  1.0483  0.0564
   93SAPE   C11 9124   0.394   5.559   8.364 -0.2721 -0.1705  0.5821
   93SAPE  H11A 9125   0.468   5.640   8.345 -0.3651 -0.0253  0.8387
   93SAPE  H11B 9126   0.313   5.559   8.287  0.3564  1.2235 -0.1066
   93SAPE     P 9127   0.513   5.338   8.271 -0.0026 -0.1437  0.3659
   93SAPE   O13 9128   0.607   5.244   8.343  0.3638 -0.3845 -0.5151
   93SAPE   O14 9129   0.389   5.277   8.215 -0.5861 -0.0319 -0.2662
   93SAPE   O12 9130   0.457   5.434   8.384 -0.1702  0.0102  0.3855
   93SAPE   O11 9131   0.578   5.439   8.173  0.0811  0.3144  0.1280
   93SAPE    C1 9132   0.582   5.428   8.029  0.3872  0.2459 -0.0230
   93SAPE    HA 9133   0.688   5.417   7.996  0.0680  0.7401 -1.2487
   93SAPE    HB 9134   0.522   5.344   7.990  0.7464 -0.2290  0.4332
   93SAPE    C2 9135   0.535   5.556   7.957  0.4000  0.2316 -0.3011
   93SAPE    HS 9136   0.527   5.523   7.852  0.0229 -1.2586  0.1753
   93SAPE   O21 9137   0.617   5.668   7.980 -0.1058  0.2095  0.1448
   93SAPE   C21 9138   0.729   5.669   7.901  0.1024 -0.8204 -0.8991
   93SAPE   O22 9139   0.770   5.572   7.843  0.1047  0.0324 -0.5504
   93SAPE   C22 9140   0.795   5.804   7.903  0.5149 -0.1945  0.0013
   93SAPE   H2R 9141   0.716   5.879   7.925 -1.1166 -2.3375  1.8829
   93SAPE   H2S 9142   0.861   5.812   7.992  0.8985 -0.8648 -0.2139
   93SAPE    C3 9143   0.389   5.583   8.008  0.2024 -1.2712  0.0816
   93SAPE    HX 9144   0.391   5.626   8.110 -1.9808  1.6971 -0.9491
   93SAPE    HY 9145   0.344   5.482   8.011 -0.0930 -1.1254  0.7179
   93SAPE   O31 9146   0.316   5.670   7.914 -1.0225 -0.1261  0.4363
   93SAPE   C31 9147   0.343   5.798   7.916 -0.0203  0.5721  0.2952
   93SAPE   O32 9148   0.410   5.863   7.993  0.5209 -0.2968  0.0453
   93SAPE   C32 9149   0.288   5.863   7.791 -0.3369 -0.5277 -0.5540
   93SAPE   H2X 9150   0.244   5.959   7.827  1.4053 -0.0934  0.5513
   93SAPE   H2Y 9151   0.204   5.794   7.767  0.4244 -1.8326  0.4147
   93SAPE   C23 9152   0.882   5.830   7.772 -0.0564 -0.1916  0.4414
   93SAPE   H3R 9153   0.812   5.834   7.686  0.1266  1.4035  0.3434
   93SAPE   H3S 9154   0.940   5.739   7.745  1.5168  1.3694 -1.7888
   93SAPE   C24 9155   0.964   5.961   7.767 -0.5641  0.6902  0.2271
   93SAPE   H4R 9156   1.027   5.951   7.677 -0.6584  1.0895  0.1133
   93SAPE   H4S 9157   1.033   5.982   7.852  0.2375 -1.7424  0.2561
   93SAPE   C25 9158   0.861   6.074   7.750 -0.0032  0.4180  0.1541
   93SAPE   H5R 9159   0.822   6.118   7.843 -0.5969  1.8554 -0.7305
   93SAPE   C26 9160   0.819   6.124   7.631  0.1394  0.6870 -0.2719
   93SAPE   H6R 9161   0.731   6.189   7.638  0.2410  1.0544 -1.8949
   93SAPE   C27 9162   0.858   6.070   7.498 -0.3778  0.1416 -0.3512
   93SAPE   H7R 9163   0.771   6.085   7.432 -2.1412  0.2116  1.8568
   93SAPE   H7S 9164   0.887   5.963   7.506 -1.1320 -0.0879 -0.6389
   93SAPE   C28 9165   0.978   6.142   7.447 -1.0731 -0.2263  0.3161
   93SAPE   H8R 9166   1.068   6.130   7.508 -0.4430  0.4262 -0.4568
   93SAPE   C29 9167   0.987   6.221   7.338  0.1030  0.2644 -0.2013
   93SAPE   H9R 9168   1.089   6.248   7.307  0.2702 -1.0255 -0.8305
   93SAPE  C210 9169   0.874   6.259   7.238  0.7394  1.0962  0.2687
   93SAPE  H10R 9170   0.774   6.259   7.287 -0.3172  0.9971 -1.7879
   93SAPE  H10S 9171   0.860   6.185   7.157 -0.6822  1.2332  0.3625
   93SAPE  C211 9172   0.877   6.397   7.184  0.8202 -0.2381 -0.3133
   93SAPE  H11R 9173   0.858   6.476   7.258  0.0282 -1.0905  0.4198
   93SAPE  C212 9174   0.925   6.439   7.065 -0.7186  0.6330 -0.4667
   93SAPE  H12R 9175   0.934   6.547   7.047  1.2264  0.2693 -2.0669
   93SAPE  C213 9176   0.969   6.343   6.952  0.9892  0.0784 -0.6877
   93SAPE  H13R 9177   1.046   6.273   6.989 -1.0637 -1.4185  0.9831
   93SAPE  H13S 9178   1.032   6.409   6.888 -0.5190 -0.4085 -2.7866
   93SAPE  C214 9179   0.862   6.273   6.867 -0.9046 -0.1379 -0.2719
   93SAPE  H14R 9180   0.759   6.305   6.890 -0.0561 -0.0838  4.4057
   93SAPE  C215 9181   0.885   6.186   6.775 -0.1193  0.2007 -0.0537
   93SAPE  H15R 9182   0.798   6.142   6.723  0.5371 -0.0583 -0.9727
   93SAPE  C216 9183   1.009   6.131   6.720 -0.1247 -0.3444  0.5853
   93SAPE  H16R 9184   0.988   6.055   6.641  1.6535  1.3114 -1.6154
   93SAPE  H16S 9185   1.060   6.074   6.801 -1.1939 -1.3885  0.5537
   93SAPE  C217 9186   1.115   6.225   6.662 -0.4283 -0.4658 -0.4537
   93SAPE  H17R 9187   1.192   6.153   6.627 -0.9447  0.0754 -2.8601
   93SAPE  H17S 9188   1.170   6.282   6.741 -0.1972  1.3398 -1.8504
   93SAPE  C218 9189   1.070   6.306   6.545  0.1042  0.1479 -0.2831
   93SAPE  H18R 9190   0.973   6.355   6.566  0.0634 -0.8765  2.1417
   93SAPE  H18S 9191   1.056   6.233   6.463  0.6592  2.0171 -2.1539
   93SAPE  C219 9192   1.171   6.413   6.495 -0.0193 -0.4568 -0.5044
   93SAPE  H19R 9193   1.264   6.371   6.451  0.1597  0.4239 -0.9984
   93SAPE  H19S 9194   1.207   6.472   6.581 -0.6511  1.4179 -1.4542
   93SAPE  C220 9195   1.114   6.499   6.385  0.6241  0.0293  0.3328
   93SAPE  H20R 9196   1.038   6.570   6.424  1.4085  0.5576  0.9558
   93SAPE  H20S 9197   1.081   6.431   6.305  2.1623 -2.2041  1.4795
   93SAPE  H20T 9198   1.193   6.562   6.338  0.0717  0.8941  0.5308
   93SAPE   C33 9199   0.394   5.887   7.690  0.4451  0.5343 -0.8838
   93SAPE   H3X 9200   0.478   5.950   7.728  1.1491  0.1202 -1.7247
   93SAPE   H3Y 9201   0.341   5.935   7.605  0.2069  0.2347 -0.9039
   93SAPE   C34 9202   0.460   5.754   7.651 -0.5088  0.3022 -0.3063
   93SAPE   H4X 9203   0.393   5.666   7.644  1.5301 -1.3059 -0.4629
   93SAPE   H4Y 9204   0.533   5.738   7.733 -1.1777 -0.0825  0.2272
   93SAPE   C35 9205   0.527   5.751   7.510  0.4755 -0.4244 -0.5734
   93SAPE   H5X 9206   0.590   5.842   7.499  0.9382 -0.8481 -1.4468
   93SAPE   H5Y 9207   0.451   5.768   7.431  1.5425  2.4416 -1.1008
   93SAPE   C36 9208   0.617   5.632   7.479 -0.5605  0.4597 -0.3449
   93SAPE   H6X 9209   0.567   5.543   7.523 -2.0197  1.6687  0.5477
   93SAPE   H6Y 9210   0.715   5.634   7.532 -0.8471 -1.6634  0.3501
   93SAPE   C37 9211   0.625   5.618   7.332 -0.3987  0.1752  0.2473
   93SAPE   H7X 9212   0.528   5.609   7.279 -0.6993  1.6767  0.5186
   93SAPE   H7Y 9213   0.686   5.533   7.292  0.2183 -0.0951  1.7051
   93SAPE   C38 9214   0.692   5.731   7.255 -0.0493 -0.6681  0.0822
   93SAPE   H8X 9215   0.803   5.727   7.262  0.3135  0.7622 -3.0476
   93SAPE   H8Y 9216   0.670   5.824   7.311  4.4590  0.2787  0.7141
   93SAPE   C39 9217   0.653   5.737   7.104  0.5330  0.0650 -0.0031
   93SAPE   H9X 9218   0.548   5.770   7.092  0.9824  2.5950  2.3171
   93SAPE   H9Y 9219   0.667   5.635   7.062  0.9789 -0.0595  0.4433
   93SAPE  C310 9220   0.732   5.847   7.023  0.5964  0.5007 -0.2674
   93SAPE  H10X 9221   0.836   5.808   7.019 -0.0461 -1.5287  1.2519
   93SAPE  H10Y 9222   0.726   5.948   7.067 -1.7639  0.5034 -0.5154
   93SAPE  C311 9223   0.679   5.865   6.874 -0.7670 -0.1867  0.4233
   93SAPE  H11X 9224   0.760   5.923   6.826  2.1445 -2.1308  2.6097
   93SAPE  H11Y 9225   0.585   5.923   6.881 -0.8416 -0.4149  1.4725
   93SAPE  C312 9226   0.668   5.740   6.780 -0.2354 -0.6627 -0.2079
   93SAPE  H12X 9227   0.649   5.781   6.679  1.5101  4.8775  1.3550
   93SAPE  H12Y 9228   0.574   5.689   6.810  0.5926 -0.3436  3.5146
   93SAPE  C313 9229   0.787   5.645   6.787  0.1041  0.3025 -0.3105
   93SAPE  H13X 9230   0.809   5.619   6.892 -2.7892  0.1633  0.3508
   93SAPE  H13Y 9231   0.884   5.689   6.754  1.6614 -1.3851  1.7084
   93SAPE  C314 9232   0.767   5.508   6.721  0.3184  0.1781  0.5348
   93SAPE  H14X 9233   0.669   5.468   6.754  0.3267 -1.1144 -0.8833
   93SAPE  H14Y 9234   0.829   5.421   6.753  0.6196  0.1125 -0.2051
   93SAPE  C315 9235   0.753   5.500   6.570 -0.2308 -0.9655  0.1336
   93SAPE  H15X 9236   0.672   5.572   6.545 -0.4130 -0.7352  1.3140
   93SAPE  H15Y 9237   0.708   5.401   6.548 -1.1190 -1.0872  2.2629
   93SAPE  C316 9238   0.878   5.526   6.480  0.5677 -0.0994 -0.1369
   93SAPE  H16X 9239   0.949   5.449   6.519 -1.6136 -0.3125  3.9582
   93SAPE  H16Y 9240   0.923   5.625   6.501 -0.3437  0.0956  1.0256
   93SAPE  C317 9241   0.846   5.526   6.325  0.8728 -0.6214  0.5719
   93SAPE  H17X 9242   0.785   5.617   6.306  3.1427  0.3123 -3.5526
   93SAPE  H17Y 9243   0.793   5.435   6.289  0.5853  0.8406 -3.1707
   93SAPE  C318 9244   0.965   5.537   6.230 -0.1644 -0.0742  0.1380
   93SAPE  H18X 9245   0.931   5.525   6.125 -1.9797  0.1163  0.6561
   93SAPE  H18Y 9246   1.037   5.462   6.269 -0.0829  0.1820  0.4934
   93SAPE  H18Z 9247   1.018   5.634   6.239 -0.2567  0.1151 -1.2306
   94SAPE     N 9248   2.789   0.232   8.703 -0.2444 -0.0493  0.6681
   94SAPE   HN1 9249   2.733   0.315   8.734  1.9981  1.6664  0.3420
   94SAPE   HN2 9250   2.837   0.202   8.790  2.4066  1.7884 -0.0763
   94SAPE   HN3 9251   2.864   0.263   8.639 -1.3507  0.1002 -0.6089
   94SAPE   C12 9252   2.685   0.141   8.649 -0.3185 -0.1636 -0.5340
   94SAPE  H12A 9253   2.604   0.127   8.725 -0.8828 -0.3056 -1.1521
   94SAPE  H12B 9254   2.729   0.044   8.618 -0.3111 -0.3083 -0.0838
   94SAPE   C11 9255   2.613   0.208   8.533  0.5671  0.2185 -0.1031
   94SAPE  H11A 9256   2.531   0.145   8.491 -2.2913  1.8792  2.5137
   94SAPE  H11B 9257   2.680   0.223   8.446 -0.2023  0.4195 -0.6735
   94SAPE     P 9258   2.400   0.338   8.603  0.0437  0.7790 -0.2397
   94SAPE   O13 9259   2.369   0.242   8.702  0.7504 -0.5342 -0.3694
   94SAPE   O14 9260   2.353   0.480   8.636 -0.8661  0.7275 -0.7618
   94SAPE   O12 9261   2.558   0.340   8.568 -0.0118  0.3216 -0.1224
   94SAPE   O11 9262   2.332   0.289   8.467  0.3058 -0.0140 -0.1779
   94SAPE    C1 9263   2.247   0.383   8.402 -0.6139 -0.2780 -0.2740
   94SAPE    HA 9264   2.163   0.320   8.366 -1.3980 -1.7262  3.6121
   94SAPE    HB 9265   2.189   0.452   8.466  0.1160 -0.5285  0.6907
   94SAPE    C2 9266   2.325   0.452   8.283  0.1036  0.1415 -0.4604
   94SAPE    HS 9267   2.408   0.509   8.330 -0.0963  0.0497  0.0150
   94SAPE   O21 9268   2.243   0.540   8.205 -0.9779 -0.2281  0.0254
   94SAPE   C21 9269   2.197   0.648   8.262 -0.3875  0.0512  0.0103
   94SAPE   O22 9270   2.217   0.685   8.376  0.1930  0.6624 -0.1123
   94SAPE   C22 9271   2.097   0.719   8.165  0.2329 -0.3568 -0.4920
   94SAPE   H2R 9272   2.136   0.706   8.062  0.1341 -2.0270 -0.3381
   94SAPE   H2S 9273   2.000   0.664   8.167 -0.8571  1.4939 -0.0131
   94SAPE    C3 9274   2.382   0.338   8.194 -0.4702  0.1638  0.0019
   94SAPE    HX 9275   2.297   0.273   8.165 -2.3165  2.6322 -0.4043
   94SAPE    HY 9276   2.444   0.268   8.255 -0.4847  1.2212  1.2826
   94SAPE   O31 9277   2.436   0.380   8.068 -0.0442  0.1379 -0.1283
   94SAPE   C31 9278   2.561   0.430   8.084 -0.4440 -0.5704 -0.6052
   94SAPE   O32 9279   2.626   0.419   8.185 -0.7646 -0.7228  0.1510
   94SAPE   C32 9280   2.608   0.497   7.965  0.0334  0.1254 -0.2128
   94SAPE   H2X 9281   2.702   0.451   7.928 -0.2248 -0.7860  0.2618
   94SAPE   H2Y 9282   2.645   0.593   8.007 -0.9475  0.4083  0.0288
   94SAPE   C23 9283   2.071   0.867   8.199  0.0618  0.4100  0.0051
   94SAPE   H3R 9284   2.167   0.920   8.178  0.9002 -1.4563 -1.1221
   94SAPE   H3S 9285   2.036   0.885   8.303  1.1070 -0.8389  0.6002
   94SAPE   C24 9286   1.956   0.920   8.108  0.7842  0.3083  0.1649
   94SAPE   H4R 9287   1.866   0.890   8.166  1.6691  0.2592  1.5685
   94SAPE   H4S 9288   1.944   0.862   8.014 -2.2966 -0.3706  0.8730
   94SAPE   C25 9289   1.964   1.074   8.087  0.8943  0.6321 -0.3534
   94SAPE   H5R 9290   1.983   1.124   8.183  0.5919 -0.9211  0.5515
   94SAPE   C26 9291   1.932   1.148   7.974 -0.1704 -0.5996  1.0781
   94SAPE   H6R 9292   1.941   1.257   7.991  1.3356 -0.5642  0.2376
   94SAPE   C27 9293   1.884   1.101   7.843  0.1066  0.0565  0.5177
   94SAPE   H7R 9294   1.926   1.001   7.819  1.1558  0.6072 -0.0160
   94SAPE   H7S 9295   1.927   1.166   7.764 -0.7485 -0.4552 -0.3975
   94SAPE   C28 9296   1.729   1.107   7.854 -0.3752 -0.1101  0.7509
   94SAPE   H8R 9297   1.680   1.067   7.944 -0.7980 -0.3303  0.4280
   94SAPE   C29 9298   1.661   1.135   7.746  0.3240  0.4085 -0.3991
   94SAPE   H9R 9299   1.552   1.119   7.756  0.0055  2.3343 -0.3737
   94SAPE  C210 9300   1.707   1.174   7.613 -0.4694 -0.5891  0.1790
   94SAPE  H10R 9301   1.638   1.134   7.535 -0.3510 -1.4166  0.4912
   94SAPE  H10S 9302   1.806   1.126   7.598  0.0173  1.2262 -3.9270
   94SAPE  C211 9303   1.713   1.325   7.619 -0.2941 -0.2134 -1.0412
   94SAPE  H11R 9304   1.751   1.364   7.715  0.0778 -1.7934 -0.5014
   94SAPE  C212 9305   1.675   1.405   7.518 -0.3437 -0.4421 -0.4958
   94SAPE  H12R 9306   1.686   1.514   7.527 -2.7459 -0.1110 -1.0439
   94SAPE  C213 9307   1.616   1.369   7.377  0.0533  0.2579  0.1955
   94SAPE  H13R 9308   1.603   1.262   7.349 -1.4619  0.6573 -0.7350
   94SAPE  H13S 9309   1.679   1.409   7.295  0.4861 -1.4901 -0.3786
   94SAPE  C214 9310   1.473   1.428   7.378  0.7801 -0.2809  0.6541
   94SAPE  H14R 9311   1.427   1.423   7.478  1.4827  1.4501  1.1095
   94SAPE  C215 9312   1.409   1.494   7.277 -0.0518  0.1560  0.7603
   94SAPE  H15R 9313   1.314   1.541   7.307  0.5525  3.0283 -1.4424
   94SAPE  C216 9314   1.457   1.516   7.138 -0.0338  0.2821  0.1841
   94SAPE  H16R 9315   1.538   1.450   7.100 -1.2533 -0.3033 -1.5062
   94SAPE  H16S 9316   1.494   1.621   7.128  1.3636 -0.1793  0.2639
   94SAPE  C217 9317   1.340   1.495   7.034  0.3905 -0.2094  0.4803
   94SAPE  H17R 9318   1.363   1.553   6.942  1.0299 -0.2203  0.6247
   94SAPE  H17S 9319   1.244   1.542   7.065  0.8282  0.6699  0.5313
   94SAPE  C218 9320   1.302   1.346   6.997  0.0071 -0.1779  0.2132
   94SAPE  H18R 9321   1.207   1.349   6.940 -0.0634  1.0937  0.3574
   94SAPE  H18S 9322   1.281   1.295   7.094 -2.9106  3.5010  1.7826
   94SAPE  C219 9323   1.409   1.269   6.918  0.4878  0.9452  0.3297
   94SAPE  H19R 9324   1.394   1.160   6.926 -0.8531  1.1044  0.1890
   94SAPE  H19S 9325   1.507   1.288   6.968  1.1876 -1.4978  0.0093
   94SAPE  C220 9326   1.421   1.292   6.767  0.0010 -0.4232 -0.1420
   94SAPE  H20R 9327   1.322   1.256   6.732 -0.8171 -0.8373  2.3894
   94SAPE  H20S 9328   1.504   1.225   6.737  0.5956  0.8756 -1.5222
   94SAPE  H20T 9329   1.450   1.398   6.750  0.6519 -0.6226 -0.2706
   94SAPE   C33 9330   2.499   0.528   7.859 -0.0683 -0.8954 -0.5692
   94SAPE   H3X 9331   2.413   0.580   7.905  1.1779  0.6523  0.1099
   94SAPE   H3Y 9332   2.451   0.433   7.827 -0.3139 -0.1924 -2.4365
   94SAPE   C34 9333   2.544   0.628   7.754  0.1892 -0.4151  0.5148
   94SAPE   H4X 9334   2.626   0.602   7.684 -1.0731  1.2859 -1.7228
   94SAPE   H4Y 9335   2.562   0.730   7.794  2.0573 -0.3464 -0.3857
   94SAPE   C35 9336   2.434   0.653   7.652  0.2292 -0.1210 -0.3852
   94SAPE   H5X 9337   2.341   0.692   7.698 -0.4409 -2.5198  0.4538
   94SAPE   H5Y 9338   2.386   0.560   7.616 -0.2983  0.4974 -1.3095
   94SAPE   C36 9339   2.480   0.740   7.529 -0.9915 -0.0811 -0.1766
   94SAPE   H6X 9340   2.560   0.684   7.476 -0.4602  0.3024  0.2087
   94SAPE   H6Y 9341   2.523   0.836   7.567 -1.4352  0.1351 -0.2087
   94SAPE   C37 9342   2.362   0.770   7.443 -0.0586 -0.9023 -0.4322
   94SAPE   H7X 9343   2.291   0.834   7.498 -0.0231 -1.7439  0.6359
   94SAPE   H7Y 9344   2.316   0.673   7.415 -1.6857 -0.1981 -0.2913
   94SAPE   C38 9345   2.403   0.847   7.313  0.1597 -0.4438  0.2975
   94SAPE   H8X 9346   2.500   0.810   7.272 -0.4261  0.7301 -2.3965
   94SAPE   H8Y 9347   2.421   0.952   7.344  0.1827 -0.4338  0.2515
   94SAPE   C39 9348   2.298   0.848   7.197 -1.2156 -0.4941  0.4311
   94SAPE   H9X 9349   2.340   0.912   7.117  0.7143  0.1717  1.9016
   94SAPE   H9Y 9350   2.207   0.907   7.224  0.5149  3.1193 -1.0117
   94SAPE  C310 9351   2.258   0.712   7.137  0.4804  0.6789  0.4820
   94SAPE  H10X 9352   2.158   0.675   7.167  0.4040  0.9718  0.5846
   94SAPE  H10Y 9353   2.327   0.642   7.191 -1.1304  0.8610  2.9437
   94SAPE  C311 9354   2.281   0.699   6.982 -0.4116  0.0814 -0.0669
   94SAPE  H11X 9355   2.366   0.766   6.958  1.0269 -1.0514  1.6552
   94SAPE  H11Y 9356   2.196   0.746   6.929 -1.1692 -0.4817  0.6218
   94SAPE  C312 9357   2.329   0.569   6.923  0.0615 -0.1377 -0.2832
   94SAPE  H12X 9358   2.271   0.483   6.963 -1.1743 -0.2160 -2.1250
   94SAPE  H12Y 9359   2.435   0.551   6.951 -0.2404 -1.2961  0.1978
   94SAPE  C313 9360   2.319   0.574   6.775  0.4513 -0.2858  0.1070
   94SAPE  H13X 9361   2.386   0.652   6.731  0.5370  0.1071  0.9149
   94SAPE  H13Y 9362   2.215   0.599   6.744  0.4518  1.9486  1.6542
   94SAPE  C314 9363   2.363   0.437   6.720  0.1877  0.3068  0.3750
   94SAPE  H14X 9364   2.293   0.367   6.771  0.7616  0.7457  1.8371
   94SAPE  H14Y 9365   2.465   0.408   6.752 -0.1394 -1.0880  0.1954
   94SAPE  C315 9366   2.331   0.401   6.574  0.4070  0.3178 -0.1061
   94SAPE  H15X 9367   2.362   0.295   6.560 -0.5867  0.0660 -0.5063
   94SAPE  H15Y 9368   2.402   0.462   6.513 -0.1474 -0.5248 -1.6525
   94SAPE  C316 9369   2.182   0.405   6.538 -0.6823 -0.2001 -0.1215
   94SAPE  H16X 9370   2.135   0.498   6.577 -0.5061  0.7272 -1.9643
   94SAPE  H16Y 9371   2.140   0.318   6.592  0.8344 -1.4698 -0.9168
   94SAPE  C317 9372   2.158   0.384   6.384 -0.4429  0.7282  0.0951
   94SAPE  H17X 9373   2.058   0.343   6.361 -0.4149  0.1571  0.9155
   94SAPE  H17Y 9374   2.225   0.298   6.362 -0.2801  0.7414  0.5198
   94SAPE  C318 9375   2.204   0.503   6.298  0.3355  0.0506 -1.0791
   94SAPE  H18X 9376   2.309   0.526   6.326  0.4562 -2.5023  0.9427
   94SAPE  H18Y 9377   2.144   0.594   6.322  0.0344 -0.6005  0.7437
   94SAPE  H18Z 9378   2.189   0.494   6.188 -1.3649  2.2519 -1.1084
   95SAPE     N 9379   2.736   5.723   8.697  0.5588  0.8009 -0.0267
   95SAPE   HN1 9380   2.731   5.747   8.798 -2.1152 -0.0826  0.1290
   95SAPE   HN2 9381   2.695   5.801   8.642 -2.7739 -1.3452 -0.9135
   95SAPE   HN3 9382   2.682   5.635   8.685  0.8654  0.2844  2.0051
   95SAPE   C12 9383   2.866   5.681   8.648  0.6321  0.1307  0.4479
   95SAPE  H12A 9384   2.851   5.643   8.545  0.9640  0.3071  0.3330
   95SAPE  H12B 9385   2.898   5.589   8.702  2.1067 -1.3442 -2.6547
   95SAPE   C11 9386   2.962   5.802   8.651 -0.6476  0.4141  0.1200
   95SAPE  H11A 9387   2.915   5.894   8.611 -0.8285 -0.1970 -1.1014
   95SAPE  H11B 9388   3.047   5.787   8.581  0.8649 -2.9801  2.3997
   95SAPE     P 9389   3.083   5.960   8.808  0.2751 -0.5555  0.1126
   95SAPE   O13 9390   3.003   6.020   8.918 -0.7085 -0.3045 -0.6222
   95SAPE   O14 9391   3.223   5.927   8.832  0.0834 -0.0667 -0.0538
   95SAPE   O12 9392   3.019   5.825   8.772 -0.3116 -0.0122 -0.3488
   95SAPE   O11 9393   3.074   6.060   8.690 -0.6451  0.1653 -0.1756
   95SAPE    C1 9394   3.166   6.160   8.660  0.0517 -0.3024  0.5833
   95SAPE    HA 9395   3.116   6.259   8.657  0.2148 -0.2430 -1.2980
   95SAPE    HB 9396   3.246   6.175   8.736  0.7881  2.5952 -0.6356
   95SAPE    C2 9397   3.237   6.130   8.526 -0.3774  0.3976  0.7873
   95SAPE    HS 9398   3.296   6.220   8.497  0.9433 -0.5582  0.3742
   95SAPE   O21 9399   3.146   6.093   8.417 -0.0678 -0.1865 -0.6574
   95SAPE   C21 9400   3.071   6.185   8.376  0.4403 -0.8227 -0.1569
   95SAPE   O22 9401   3.085   6.308   8.410 -0.0546 -0.0279  0.2054
   95SAPE   C22 9402   2.961   6.136   8.270 -0.1174  0.3680 -0.0623
   95SAPE   H2R 9403   2.884   6.073   8.321  0.7178 -0.9988 -0.4208
   95SAPE   H2S 9404   2.915   6.227   8.227 -0.4185  0.4838  0.5041
   95SAPE    C3 9405   3.345   6.023   8.530  0.7845 -0.2132  0.2031
   95SAPE    HX 9406   3.293   5.933   8.569 -0.4322  0.0217 -0.7714
   95SAPE    HY 9407   3.416   6.053   8.609  1.2191 -1.0986  0.1546
   95SAPE   O31 9408   3.422   6.002   8.407 -0.9915 -0.5227 -0.0217
   95SAPE   C31 9409   3.398   5.881   8.346  0.0614  0.1659  0.6189
   95SAPE   O32 9410   3.330   5.790   8.380 -0.2223  0.4732 -0.4344
   95SAPE   C32 9411   3.473   5.878   8.203  0.7230  0.1851  0.0459
   95SAPE   H2X 9412   3.576   5.838   8.213  0.0948 -1.0984  1.9441
   95SAPE   H2Y 9413   3.477   5.981   8.161  0.1831 -0.2793 -1.2021
   95SAPE   C23 9414   3.028   6.045   8.166 -0.5204 -0.8570  0.6657
   95SAPE   H3R 9415   3.042   5.948   8.218 -1.3918 -1.9818 -1.1232
   95SAPE   H3S 9416   3.131   6.082   8.145 -0.8552  0.5021  1.2917
   95SAPE   C24 9417   2.936   6.024   8.048 -0.6514 -0.3092 -0.1146
   95SAPE   H4R 9418   2.935   6.115   7.985 -0.6006  0.5346  1.0758
   95SAPE   H4S 9419   2.835   5.994   8.083 -0.8476  0.4442 -0.0246
   95SAPE   C25 9420   2.992   5.911   7.968  0.1681  0.6188 -0.5768
   95SAPE   H5R 9421   3.018   5.814   8.012  1.6816  0.6354 -1.3595
   95SAPE   C26 9422   3.009   5.910   7.833  0.1775  0.8983  0.7326
   95SAPE   H6R 9423   3.034   5.817   7.781  3.3357  2.6563 -1.1482
   95SAPE   C27 9424   2.982   6.024   7.739  0.1802 -0.7174  0.8716
   95SAPE   H7R 9425   2.920   6.094   7.799  1.7143  1.1612  0.3408
   95SAPE   H7S 9426   2.918   5.976   7.661 -0.0093 -0.4286  0.8474
   95SAPE   C28 9427   3.113   6.089   7.695 -0.0734  0.9092 -0.5278
   95SAPE   H8R 9428   3.172   6.120   7.782 -0.1469  2.5800 -1.0398
   95SAPE   C29 9429   3.161   6.119   7.573  0.0501 -0.2701  0.5747
   95SAPE   H9R 9430   3.256   6.176   7.571 -0.7189  1.0690  0.7706
   95SAPE  C210 9431   3.093   6.095   7.440 -0.8598 -1.1923  0.0899
   95SAPE  H10R 9432   3.003   6.162   7.442 -0.5992 -0.8395  2.1119
   95SAPE  H10S 9433   3.054   5.991   7.442 -3.4706 -0.2967 -0.1496
   95SAPE  C211 9434   3.167   6.112   7.313 -0.1819  0.1212  0.0229
   95SAPE  H11R 9435   3.261   6.055   7.312  0.3542  0.9888 -1.7196
   95SAPE  C212 9436   3.140   6.181   7.200 -0.6510  0.5582  0.4797
   95SAPE  H12R 9437   3.218   6.185   7.123 -0.6990  0.0909  0.4040
   95SAPE  C213 9438   3.024   6.277   7.190  0.6049 -0.0865  0.7456
   95SAPE  H13R 9439   3.068   6.366   7.139  3.0778 -2.4970 -1.7324
   95SAPE  H13S 9440   2.989   6.314   7.288  1.2777  0.9833  0.5980
   95SAPE  C214 9441   2.907   6.227   7.114  0.0350 -0.1623  0.6789
   95SAPE  H14R 9442   2.871   6.131   7.153  1.7773 -0.0383  2.7739
   95SAPE  C215 9443   2.845   6.281   7.005 -0.2542 -0.2145  0.8451
   95SAPE  H15R 9444   2.755   6.232   6.967 -0.7128  2.4643 -1.9245
   95SAPE  C216 9445   2.891   6.407   6.929  0.1108 -0.0968 -0.6994
   95SAPE  H16R 9446   2.937   6.478   7.001 -0.4726  2.2437 -2.5526
   95SAPE  H16S 9447   2.800   6.459   6.893 -0.4521 -0.6895 -0.1670
   95SAPE  C217 9448   2.985   6.381   6.813  0.1865 -0.3209 -0.4683
   95SAPE  H17R 9449   3.075   6.323   6.841 -0.7580 -2.2247 -1.1746
   95SAPE  H17S 9450   3.016   6.482   6.779 -0.8326 -0.0211 -0.5573
   95SAPE  C218 9451   2.915   6.318   6.688  0.4026  0.2707 -0.5672
   95SAPE  H18R 9452   2.839   6.389   6.650  1.0815  1.2149 -0.2045
   95SAPE  H18S 9453   2.842   6.241   6.720 -0.5290  1.3077 -0.1340
   95SAPE  C219 9454   3.020   6.272   6.580  0.1753  0.4596  0.2030
   95SAPE  H19R 9455   3.088   6.192   6.615  0.1833 -0.8051 -2.4877
   95SAPE  H19S 9456   3.082   6.361   6.557 -0.3767  0.7040 -0.3886
   95SAPE  C220 9457   2.953   6.222   6.453  0.0824 -0.0563  0.4685
   95SAPE  H20R 9458   2.906   6.308   6.400  0.8627  0.1256  0.0522
   95SAPE  H20S 9459   2.879   6.142   6.472  0.0078 -1.1688 -3.6818
   95SAPE  H20T 9460   3.021   6.174   6.379 -0.4521  1.5057 -1.1075
   95SAPE   C33 9461   3.389   5.810   8.101 -0.3271  0.7098  0.1067
   95SAPE   H3X 9462   3.282   5.839   8.092 -0.3877 -0.0150 -2.1582
   95SAPE   H3Y 9463   3.390   5.703   8.131  0.5951  0.1512 -1.7884
   95SAPE   C34 9464   3.446   5.784   7.968  0.1215 -0.5603  0.1320
   95SAPE   H4X 9465   3.505   5.690   7.977  1.1449 -0.0811 -1.0733
   95SAPE   H4Y 9466   3.513   5.862   7.925 -0.6673 -0.6138 -1.2529
   95SAPE   C35 9467   3.336   5.779   7.864  0.1473  0.7400 -0.0058
   95SAPE   H5X 9468   3.305   5.883   7.841  0.5914  0.9334  0.2723
   95SAPE   H5Y 9469   3.251   5.722   7.908 -0.7042  1.2497 -0.9468
   95SAPE   C36 9470   3.377   5.714   7.728  0.2704  0.2479 -0.0743
   95SAPE   H6X 9471   3.389   5.605   7.744 -1.7459  0.0796  0.5478
   95SAPE   H6Y 9472   3.473   5.760   7.696 -0.0949 -1.2403 -3.8077
   95SAPE   C37 9473   3.265   5.711   7.631 -0.2481 -0.3160 -0.3391
   95SAPE   H7X 9474   3.228   5.815   7.616 -1.2685 -0.7353 -0.8840
   95SAPE   H7Y 9475   3.186   5.655   7.686  1.0080  0.9848  3.0547
   95SAPE   C38 9476   3.305   5.652   7.492 -0.1324  0.0706 -0.4290
   95SAPE   H8X 9477   3.348   5.550   7.499  1.4708  0.7898  1.0076
   95SAPE   H8Y 9478   3.388   5.721   7.464  0.0758 -0.6336 -1.6398
   95SAPE   C39 9479   3.195   5.686   7.387  0.5731  0.6487  0.7811
   95SAPE   H9X 9480   3.152   5.788   7.393  2.3591  1.5877 -1.1748
   95SAPE   H9Y 9481   3.118   5.614   7.423 -0.6843 -0.4276 -3.3913
   95SAPE  C310 9482   3.235   5.653   7.233  0.9188 -0.0809 -0.0202
   95SAPE  H10X 9483   3.255   5.544   7.226  1.4470 -0.0523  0.8351
   95SAPE  H10Y 9484   3.328   5.714   7.224  0.9303  0.7175  3.7556
   95SAPE  C311 9485   3.139   5.696   7.122  0.6951 -0.5320 -0.4769
   95SAPE  H11X 9486   3.124   5.806   7.135 -1.9771 -0.7938 -0.8123
   95SAPE  H11Y 9487   3.039   5.648   7.133 -0.8389  2.6470  1.1532
   95SAPE  C312 9488   3.186   5.660   6.975  0.2042 -0.1983 -0.3343
   95SAPE  H12X 9489   3.187   5.551   6.954  1.2575 -0.0447 -1.1283
   95SAPE  H12Y 9490   3.292   5.694   6.965 -0.2777  2.2710  1.8077
   95SAPE  C313 9491   3.084   5.722   6.872 -0.0717 -0.8582 -0.5299
   95SAPE  H13X 9492   3.086   5.833   6.881  1.0760 -0.5520 -3.4539
   95SAPE  H13Y 9493   2.985   5.678   6.897 -0.4282  0.7863  1.0966
   95SAPE  C314 9494   3.119   5.692   6.724 -0.4598 -0.8018 -0.8309
   95SAPE  H14X 9495   3.127   5.583   6.703 -0.5132 -0.7936 -0.8953
   95SAPE  H14Y 9496   3.222   5.728   6.705 -1.1137  1.2257 -0.7740
   95SAPE  C315 9497   3.023   5.761   6.620  0.0145  0.0683 -0.2527
   95SAPE  H15X 9498   3.022   5.870   6.638  2.2190  0.1698 -0.5772
   95SAPE  H15Y 9499   2.926   5.710   6.641  0.5510 -1.5168 -1.4430
   95SAPE  C316 9500   3.069   5.721   6.474  0.7480  0.2976 -0.5785
   95SAPE  H16X 9501   3.082   5.612   6.458  0.1793  0.2382 -0.6531
   95SAPE  H16Y 9502   3.170   5.765   6.456  1.3630 -0.6205  0.5164
   95SAPE  C317 9503   2.981   5.775   6.365  0.3662  0.0989 -0.4935
   95SAPE  H17X 9504   2.937   5.867   6.409  2.8158  0.5718  1.2090
   95SAPE  H17Y 9505   2.896   5.712   6.332 -1.6885  1.6037  1.6477
   95SAPE  C318 9506   3.055   5.826   6.230  0.1389 -0.8846 -0.6671
   95SAPE  H18X 9507   3.122   5.751   6.183  1.1478 -0.4598  0.0673
   95SAPE  H18Y 9508   3.109   5.920   6.250 -1.1788 -0.5689  1.9181
   95SAPE  H18Z 9509   2.972   5.853   6.161 -0.6460 -1.6568 -0.0544
   96SAPE     N 9510   0.653   5.015   8.203 -0.6439 -0.1292 -0.4816
   96SAPE   HN1 9511   0.711   5.043   8.121 -1.4032  2.4404 -0.2576
   96SAPE   HN2 9512   0.626   5.098   8.260  0.3579  0.0677 -0.2764
   96SAPE   HN3 9513   0.712   4.952   8.260 -2.6576 -1.1779  0.5540
   96SAPE   C12 9514   0.531   4.951   8.155 -0.4799  0.3799 -0.0088
   96SAPE  H12A 9515   0.463   5.018   8.099 -2.1137 -1.1895  0.0116
   96SAPE  H12B 9516   0.471   4.915   8.242  0.4844 -0.8617  0.1729
   96SAPE   C11 9517   0.556   4.822   8.076 -0.1171 -0.7692  0.2053
   96SAPE  H11A 9518   0.611   4.852   7.984 -1.3042  2.2624  0.3916
   96SAPE  H11B 9519   0.461   4.776   8.040  0.0280  1.0247 -2.8517
   96SAPE     P 9520   0.571   4.615   8.232 -0.3952 -0.3373 -0.1440
   96SAPE   O13 9521   0.657   4.501   8.201  0.4840  0.1063  0.7891
   96SAPE   O14 9522   0.547   4.645   8.375 -0.4975  0.4847 -0.3243
   96SAPE   O12 9523   0.639   4.744   8.159 -0.1371  0.4414 -0.2314
   96SAPE   O11 9524   0.438   4.590   8.158  0.1999 -0.6260  0.0207
   96SAPE    C1 9525   0.409   4.470   8.084  0.4798  0.4257 -1.0139
   96SAPE    HA 9526   0.483   4.389   8.099 -0.5308 -0.3167  0.1801
   96SAPE    HB 9527   0.312   4.428   8.117  0.2574  0.9659 -0.9692
   96SAPE    C2 9528   0.389   4.490   7.930 -0.6707  1.0458  0.5554
   96SAPE    HS 9529   0.391   4.386   7.891 -0.9876  0.5158  1.9204
   96SAPE   O21 9530   0.495   4.567   7.870  0.2749  0.1823  0.5344
   96SAPE   C21 9531   0.605   4.498   7.845  0.0926  0.0141 -0.7549
   96SAPE   O22 9532   0.623   4.383   7.836 -0.0899  0.0622  0.5718
   96SAPE   C22 9533   0.714   4.605   7.823  0.4970  0.2646 -0.0170
   96SAPE   H2R 9534   0.707   4.672   7.911 -0.8546 -2.0151  1.7195
   96SAPE   H2S 9535   0.807   4.543   7.827 -0.5313 -1.6081 -2.3280
   96SAPE    C3 9536   0.263   4.562   7.901 -0.0087 -0.3481 -0.8626
   96SAPE    HX 9537   0.261   4.657   7.959 -0.8299 -2.0844  2.1280
   96SAPE    HY 9538   0.172   4.511   7.939  0.0887 -0.5223 -0.8617
   96SAPE   O31 9539   0.240   4.584   7.763  0.3210 -0.0961 -0.9539
   96SAPE   C31 9540   0.282   4.695   7.708  0.2606 -0.0447  0.4417
   96SAPE   O32 9541   0.312   4.797   7.771  0.6761  0.3366  0.1981
   96SAPE   C32 9542   0.267   4.677   7.557 -0.0033 -0.3320 -0.2969
   96SAPE   H2X 9543   0.160   4.680   7.529  0.6567  0.5894 -3.0934
   96SAPE   H2Y 9544   0.288   4.570   7.532  3.0638  0.4460 -1.6363
   96SAPE   C23 9545   0.693   4.697   7.691 -0.7495  0.6266 -0.3741
   96SAPE   H3R 9546   0.781   4.762   7.708  1.9781 -2.9490  0.3262
   96SAPE   H3S 9547   0.603   4.760   7.710 -0.2816  1.3170 -0.4247
   96SAPE   C24 9548   0.677   4.614   7.563 -0.1411 -0.7580  0.4462
   96SAPE   H4R 9549   0.679   4.695   7.487  1.1889  1.1493  2.3913
   96SAPE   H4S 9550   0.577   4.567   7.558 -0.0122 -1.0362  0.4976
   96SAPE   C25 9551   0.771   4.506   7.528 -0.0409 -0.9013  0.1659
   96SAPE   H5R 9552   0.810   4.454   7.617 -0.0690 -1.8398 -0.3522
   96SAPE   C26 9553   0.813   4.486   7.405 -1.1018  0.0842 -0.8889
   96SAPE   H6R 9554   0.882   4.404   7.381  0.2360  0.2198  2.1100
   96SAPE   C27 9555   0.764   4.551   7.274  0.0917 -1.0359  0.6391
   96SAPE   H7R 9556   0.679   4.618   7.299  0.9887  1.0750 -1.5723
   96SAPE   H7S 9557   0.735   4.485   7.190 -1.2287 -0.4959  0.6313
   96SAPE   C28 9558   0.867   4.656   7.218  0.3872  0.0114  0.6654
   96SAPE   H8R 9559   0.890   4.728   7.297 -1.8657 -0.0449  1.4359
   96SAPE   C29 9560   0.926   4.660   7.097 -0.9779  0.0968 -0.1781
   96SAPE   H9R 9561   0.995   4.739   7.065  1.2087 -2.6902 -2.9858
   96SAPE  C210 9562   0.900   4.569   6.982 -0.3455  0.8782 -0.2423
   96SAPE  H10R 9563   0.821   4.494   7.006  0.5340  0.0689  0.2065
   96SAPE  H10S 9564   0.988   4.509   6.952  0.7338  1.8761  0.7858
   96SAPE  C211 9565   0.844   4.651   6.870  0.1456 -0.1491 -0.0352
   96SAPE  H11R 9566   0.790   4.745   6.887 -1.0946 -0.9445  0.5181
   96SAPE  C212 9567   0.849   4.605   6.739 -0.5131 -0.4550 -0.6757
   96SAPE  H12R 9568   0.791   4.668   6.671  1.1643  1.9831  0.0149
   96SAPE  C213 9569   0.906   4.476   6.685 -0.2920 -0.3924  0.5569
   96SAPE  H13R 9570   0.828   4.405   6.651  0.1141  0.8321 -3.5110
   96SAPE  H13S 9571   0.956   4.425   6.770 -2.1548 -0.9865  1.3349
   96SAPE  C214 9572   0.993   4.502   6.562 -0.5547 -0.1823 -0.2868
   96SAPE  H14R 9573   0.947   4.566   6.485 -0.9036 -2.0086 -1.6687
   96SAPE  C215 9574   1.127   4.478   6.558  0.2252  0.0459  0.6951
   96SAPE  H15R 9575   1.174   4.475   6.459  0.2521 -2.2977  0.7238
   96SAPE  C216 9576   1.214   4.426   6.670  0.2728 -0.4054 -0.4226
   96SAPE  H16R 9577   1.176   4.338   6.727  0.4963  1.0737  2.1537
   96SAPE  H16S 9578   1.219   4.516   6.735  2.5876  1.1456 -2.5736
   96SAPE  C217 9579   1.356   4.379   6.634 -0.5714 -0.7175 -0.3107
   96SAPE  H17R 9580   1.404   4.370   6.734  0.2331 -0.8575 -0.7053
   96SAPE  H17S 9581   1.412   4.457   6.578 -0.1495 -0.8837 -0.1188
   96SAPE  C218 9582   1.359   4.242   6.555  0.4525 -0.3380 -0.2392
   96SAPE  H18R 9583   1.295   4.258   6.465  1.5781  2.5122 -0.6462
   96SAPE  H18S 9584   1.325   4.161   6.622 -0.0066 -0.7679 -0.9724
   96SAPE  C219 9585   1.503   4.193   6.517 -0.4493 -0.0583 -1.2717
   96SAPE  H19R 9586   1.568   4.281   6.496 -1.1923  1.0847  0.8979
   96SAPE  H19S 9587   1.496   4.130   6.426  1.6125 -2.3298  0.0534
   96SAPE  C220 9588   1.569   4.117   6.634  0.6740  0.0179 -0.2519
   96SAPE  H20R 9589   1.541   4.011   6.620 -3.3177  0.9289 -0.4071
   96SAPE  H20S 9590   1.528   4.149   6.732 -0.3324 -0.3751 -0.5343
   96SAPE  H20T 9591   1.680   4.124   6.641  0.7745 -2.3428  1.9574
   96SAPE   C33 9592   0.353   4.776   7.474  0.1343 -0.0577  0.2453
   96SAPE   H3X 9593   0.458   4.758   7.503  0.1205 -1.6000 -0.5146
   96SAPE   H3Y 9594   0.322   4.881   7.492 -1.0531 -0.6922  2.2583
   96SAPE   C34 9595   0.347   4.743   7.319  0.1044 -0.3753 -0.2410
   96SAPE   H4X 9596   0.243   4.740   7.281 -0.5586  1.5328  1.2755
   96SAPE   H4Y 9597   0.385   4.639   7.311  1.6976  0.2674 -2.3766
   96SAPE   C35 9598   0.437   4.841   7.244 -0.7616 -0.4181 -0.6454
   96SAPE   H5X 9599   0.540   4.828   7.281 -1.2227  1.1800  1.3698
   96SAPE   H5Y 9600   0.404   4.944   7.271 -1.1706 -0.6112 -0.3971
   96SAPE   C36 9601   0.430   4.815   7.092 -0.1823  0.2060 -0.0172
   96SAPE   H6X 9602   0.480   4.716   7.079  0.3078  0.0198  2.8002
   96SAPE   H6Y 9603   0.488   4.901   7.052 -2.5387  1.4413 -0.9572
   96SAPE   C37 9604   0.292   4.808   7.036 -0.1627  0.2134 -0.4157
   96SAPE   H7X 9605   0.226   4.879   7.090 -3.2650 -1.9910 -1.0311
   96SAPE   H7Y 9606   0.242   4.710   7.054  3.1653 -1.6755 -0.7058
   96SAPE   C38 9607   0.291   4.845   6.888 -0.7151 -0.3022  0.2676
   96SAPE   H8X 9608   0.333   4.948   6.886  0.0816 -0.5464  2.1259
   96SAPE   H8Y 9609   0.189   4.844   6.845  0.2248 -2.3883 -2.1092
   96SAPE   C39 9610   0.383   4.753   6.807 -0.0211  0.4870 -0.1412
   96SAPE   H9X 9611   0.364   4.645   6.826 -0.0874  0.6914  1.0198
   96SAPE   H9Y 9612   0.486   4.787   6.829  0.1413 -0.0166 -0.1009
   96SAPE  C310 9613   0.359   4.763   6.655 -0.2390  0.5655  0.4031
   96SAPE  H10X 9614   0.346   4.868   6.620  0.7792  0.1694 -1.2549
   96SAPE  H10Y 9615   0.267   4.704   6.640  1.9845 -2.5454 -2.5169
   96SAPE  C311 9616   0.468   4.688   6.574 -0.4508  0.0244 -0.2595
   96SAPE  H11X 9617   0.475   4.579   6.593 -1.7913  0.1734  1.4171
   96SAPE  H11Y 9618   0.565   4.738   6.593  0.4778 -0.5045 -3.1421
   96SAPE  C312 9619   0.446   4.707   6.424  0.2647  0.1963 -0.4146
   96SAPE  H12X 9620   0.455   4.818   6.413  1.9627  0.3843  2.0870
   96SAPE  H12Y 9621   0.349   4.662   6.396 -1.7744  2.2488  2.6998
   96SAPE  C313 9622   0.551   4.633   6.330  0.9911  0.0758  0.6998
   96SAPE  H13X 9623   0.542   4.524   6.349 -1.2207  0.3798  1.7396
   96SAPE  H13Y 9624   0.655   4.665   6.352  1.4474  0.1044 -1.3110
   96SAPE  C314 9625   0.519   4.672   6.192 -0.3185 -0.0869 -0.0747
   96SAPE  H14X 9626   0.546   4.779   6.183  0.6244 -0.3066 -0.0115
   96SAPE  H14Y 9627   0.412   4.654   6.169  0.2769 -1.8078 -1.8103
   96SAPE  C315 9628   0.606   4.590   6.093  1.0882  0.7124 -0.6622
   96SAPE  H15X 9629   0.580   4.614   5.988  0.5089 -0.7443 -0.8793
   96SAPE  H15Y 9630   0.568   4.487   6.111 -0.2519  0.8908 -2.2903
   96SAPE  C316 9631   0.757   4.592   6.130  0.5749 -0.7433 -0.5714
   96SAPE  H16X 9632   0.779   4.551   6.231  0.8359 -1.4221 -0.8977
   96SAPE  H16Y 9633   0.782   4.700   6.132 -0.5631 -0.4331 -1.7068
   96SAPE  C317 9634   0.836   4.512   6.024 -0.0917 -1.0363 -0.4270
   96SAPE  H17X 9635   0.942   4.546   6.021  0.2966 -1.8347  2.2057
   96SAPE  H17Y 9636   0.797   4.536   5.922  0.9578  1.6293 -0.2793
   96SAPE  C318 9637   0.839   4.360   6.052 -0.3363 -0.2269  0.7557
   96SAPE  H18X 9638   0.897   4.310   5.972  0.5903  2.7144 -0.5056
   96SAPE  H18Y 9639   0.738   4.317   6.032  0.0347 -2.1694  2.7068
   96SAPE  H18Z 9640   0.868   4.333   6.156  1.6770  1.8435  0.7942
   97SAPE     N 9641   1.657   4.643   8.344  0.1445 -0.2575  0.1499
   97SAPE   HN1 9642   1.712   4.661   8.258 -0.7427 -2.0759 -0.8409
   97SAPE   HN2 9643   1.710   4.691   8.420 -0.2166 -0.2988  0.4306
   97SAPE   HN3 9644   1.663   4.541   8.359  0.2187 -0.4552 -1.1724
   97SAPE   C12 9645   1.513   4.680   8.328  0.2029 -0.0834  0.3994
   97SAPE  H12A 9646   1.478   4.595   8.265 -0.8300  1.5482 -1.3331
   97SAPE  H12B 9647   1.507   4.777   8.275 -1.4707  0.6217  1.7952
   97SAPE   C11 9648   1.437   4.701   8.457  1.3073  0.5693  0.0228
   97SAPE  H11A 9649   1.426   4.602   8.507 -2.5169  0.4128 -0.8484
   97SAPE  H11B 9650   1.329   4.720   8.438 -0.0468 -2.5366  3.3484
   97SAPE     P 9651   1.457   4.947   8.531  0.0355  0.4226 -0.1830
   97SAPE   O13 9652   1.326   4.965   8.601 -0.7736  0.1987  0.2112
   97SAPE   O14 9653   1.567   5.038   8.572  0.3022  0.0852  0.0073
   97SAPE   O12 9654   1.495   4.795   8.545  0.5776  0.1531 -0.0839
   97SAPE   O11 9655   1.434   4.965   8.376  0.1665 -0.3108 -0.5666
   97SAPE    C1 9656   1.371   5.070   8.311  0.4161  0.2904  0.4838
   97SAPE    HA 9657   1.268   5.034   8.290 -0.3981  0.4856  3.6014
   97SAPE    HB 9658   1.363   5.153   8.385 -0.3608 -1.3764  2.3642
   97SAPE    C2 9659   1.453   5.091   8.182 -0.0552  0.7175 -1.1185
   97SAPE    HS 9660   1.397   5.166   8.122 -0.3076  0.9747 -0.5708
   97SAPE   O21 9661   1.475   4.980   8.095 -0.0447 -0.3300 -0.9875
   97SAPE   C21 9662   1.374   4.919   8.036  0.8776  0.3510 -0.4163
   97SAPE   O22 9663   1.256   4.955   8.049  0.2377 -0.9106  0.4038
   97SAPE   C22 9664   1.419   4.804   7.941  0.1130  0.9302 -0.4317
   97SAPE   H2R 9665   1.510   4.829   7.881  0.3943  1.6478  0.2717
   97SAPE   H2S 9666   1.452   4.726   8.013 -1.0105 -0.0668 -0.9572
   97SAPE    C3 9667   1.589   5.145   8.236 -0.2933 -0.0226  0.4330
   97SAPE    HX 9668   1.652   5.063   8.275 -0.9750 -1.4194 -1.2782
   97SAPE    HY 9669   1.571   5.209   8.325  1.0937 -0.4714  1.0503
   97SAPE   O31 9670   1.663   5.227   8.147  0.6327  0.3508 -0.3109
   97SAPE   C31 9671   1.769   5.183   8.085  0.1029 -0.9879  0.0820
   97SAPE   O32 9672   1.831   5.080   8.105  0.2823  0.5168  0.0868
   97SAPE   C32 9673   1.818   5.281   7.977  0.0673 -0.1407 -0.2394
   97SAPE   H2X 9674   1.924   5.308   8.000 -0.9738  2.6047  1.9320
   97SAPE   H2Y 9675   1.763   5.377   7.983  1.3882  0.7679 -1.8916
   97SAPE   C23 9676   1.298   4.732   7.876  0.2474 -0.2462  0.4447
   97SAPE   H3R 9677   1.214   4.713   7.946 -2.3241  1.0691 -2.0728
   97SAPE   H3S 9678   1.322   4.628   7.846  1.5603  0.3064 -0.5126
   97SAPE   C24 9679   1.246   4.806   7.750 -0.0300  0.2962 -0.5113
   97SAPE   H4R 9680   1.336   4.826   7.689 -0.6044  4.3439 -0.3492
   97SAPE   H4S 9681   1.217   4.911   7.773  0.8280  0.5934 -0.7842
   97SAPE   C25 9682   1.130   4.738   7.681  0.6918  0.1196  0.1204
   97SAPE   H5R 9683   1.052   4.698   7.748 -1.3109  3.3292 -0.0586
   97SAPE   C26 9684   1.122   4.723   7.545 -0.7709  0.3360  0.4400
   97SAPE   H6R 9685   1.042   4.662   7.502 -0.5420  0.7264 -0.5631
   97SAPE   C27 9686   1.222   4.769   7.443  0.7746 -0.2182  0.2264
   97SAPE   H7R 9687   1.269   4.863   7.481 -0.4373 -0.6258  2.9638
   97SAPE   H7S 9688   1.176   4.811   7.351  4.5029 -1.4612 -2.4824
   97SAPE   C28 9689   1.326   4.663   7.419 -0.6821 -0.1576 -0.0070
   97SAPE   H8R 9690   1.398   4.660   7.502 -1.3902  3.4567  0.8854
   97SAPE   C29 9691   1.342   4.574   7.315  0.0831 -0.7002 -0.0835
   97SAPE   H9R 9692   1.415   4.493   7.328 -1.5088 -2.2301 -0.3798
   97SAPE  C210 9693   1.250   4.559   7.195  0.3683  0.1341  0.9466
   97SAPE  H10R 9694   1.239   4.652   7.135  1.3321 -1.2043 -1.4273
   97SAPE  H10S 9695   1.150   4.527   7.231  0.7107 -0.3759  1.4569
   97SAPE  C211 9696   1.315   4.467   7.089 -0.0503  0.1754 -0.3657
   97SAPE  H11R 9697   1.280   4.363   7.094 -0.5919  0.2180 -2.3800
   97SAPE  C212 9698   1.415   4.495   7.006  0.0133 -0.2761  0.0481
   97SAPE  H12R 9699   1.440   4.422   6.928 -1.0325  1.7843 -2.3649
   97SAPE  C213 9700   1.468   4.634   6.987  0.1796  0.1909 -0.3860
   97SAPE  H13R 9701   1.578   4.634   7.002  0.0728 -0.8698  0.5729
   97SAPE  H13S 9702   1.436   4.695   7.074  1.1602 -0.4726  0.4675
   97SAPE  C214 9703   1.434   4.701   6.850 -0.5410  0.0762 -0.2826
   97SAPE  H14R 9704   1.330   4.689   6.817 -1.0598 -0.4691  1.4552
   97SAPE  C215 9705   1.517   4.757   6.759  0.0274 -0.4987 -0.4352
   97SAPE  H15R 9706   1.475   4.797   6.665  0.5917  1.5334  0.1272
   97SAPE  C216 9707   1.657   4.790   6.784 -0.5962 -0.7606  0.4204
   97SAPE  H16R 9708   1.696   4.753   6.881  1.0247 -2.7511 -0.9183
   97SAPE  H16S 9709   1.663   4.900   6.800 -0.0178 -0.9277  1.5055
   97SAPE  C217 9710   1.767   4.750   6.678  0.3025  0.5164 -0.7418
   97SAPE  H17R 9711   1.746   4.645   6.648  1.0260  0.1136  0.0995
   97SAPE  H17S 9712   1.873   4.773   6.705 -0.3346  1.4732  1.1558
   97SAPE  C218 9713   1.738   4.817   6.545  0.8754  0.1334  0.8597
   97SAPE  H18R 9714   1.725   4.925   6.568  1.9033  0.3120  0.6390
   97SAPE  H18S 9715   1.644   4.773   6.506  0.7242 -0.2379  1.6158
   97SAPE  C219 9716   1.838   4.793   6.435 -0.5384 -0.8256 -0.2355
   97SAPE  H19R 9717   1.926   4.856   6.460 -0.1824 -1.0835 -0.8334
   97SAPE  H19S 9718   1.800   4.834   6.339 -0.2704  1.9780  0.7397
   97SAPE  C220 9719   1.889   4.654   6.401  0.4244 -0.2178  0.2877
   97SAPE  H20R 9720   1.813   4.580   6.367 -0.6300 -0.2018  2.4985
   97SAPE  H20S 9721   1.936   4.602   6.487  0.0274 -1.1022 -0.0179
   97SAPE  H20T 9722   1.967   4.679   6.325 -0.5527  2.8558  0.1690
   97SAPE   C33 9723   1.799   5.211   7.841 -0.3924  0.2286  1.4373
   97SAPE   H3X 9724   1.872   5.127   7.833  0.9729  1.2474  2.7215
   97SAPE   H3Y 9725   1.823   5.285   7.761 -0.5990  0.3391  1.4770
   97SAPE   C34 9726   1.659   5.163   7.801 -0.1687 -0.2954 -0.1126
   97SAPE   H4X 9727   1.599   5.255   7.793  2.8803  1.6733 -2.9630
   97SAPE   H4Y 9728   1.606   5.098   7.874 -3.7077  2.2344 -0.1941
   97SAPE   C35 9729   1.664   5.111   7.663 -0.9706  0.0127  0.5264
   97SAPE   H5X 9730   1.751   5.041   7.656 -0.0011  1.3498 -2.3168
   97SAPE   H5Y 9731   1.682   5.195   7.592  0.6483 -0.4273  0.3775
   97SAPE   C36 9732   1.537   5.031   7.613  0.0948  0.1766  0.3031
   97SAPE   H6X 9733   1.440   5.083   7.625  1.1502  2.2578  0.2498
   97SAPE   H6Y 9734   1.533   4.930   7.659 -4.3906 -0.0918 -0.2403
   97SAPE   C37 9735   1.554   5.001   7.463 -0.5609  0.1234  0.6903
   97SAPE   H7X 9736   1.500   4.913   7.422 -0.8827  1.0978 -1.1082
   97SAPE   H7Y 9737   1.661   4.978   7.445 -0.5281  0.1557  0.8416
   97SAPE   C38 9738   1.495   5.122   7.380 -0.5357  0.0624  0.0217
   97SAPE   H8X 9739   1.527   5.220   7.421 -0.0921  0.2487 -0.7546
   97SAPE   H8Y 9740   1.386   5.106   7.399 -0.3167 -0.1301  1.2087
   97SAPE   C39 9741   1.535   5.099   7.239  0.1709  0.3590 -0.9601
   97SAPE   H9X 9742   1.498   4.996   7.218 -0.2799  0.4254 -0.5177
   97SAPE   H9Y 9743   1.645   5.105   7.223  0.2852  1.4224  0.0452
   97SAPE  C310 9744   1.463   5.185   7.132 -0.0556  0.2093 -0.2517
   97SAPE  H10X 9745   1.490   5.293   7.142 -1.6102  0.6122 -0.0960
   97SAPE  H10Y 9746   1.355   5.173   7.154 -0.3261 -0.9682 -2.0850
   97SAPE  C311 9747   1.479   5.130   6.989  0.4130 -0.5614 -0.5288
   97SAPE  H11X 9748   1.454   5.022   6.985 -0.5711 -0.4218  1.1892
   97SAPE  H11Y 9749   1.582   5.141   6.950  1.1578  0.0315  1.5394
   97SAPE  C312 9750   1.391   5.213   6.888  0.3383  0.5509  0.0529
   97SAPE  H12X 9751   1.450   5.302   6.859  0.1965  0.8859  0.7720
   97SAPE  H12Y 9752   1.302   5.233   6.951  0.4877 -2.2412  1.3179
   97SAPE  C313 9753   1.339   5.125   6.770  0.1786 -0.1883  0.1596
   97SAPE  H13X 9754   1.277   5.043   6.810 -0.1108  0.2022  0.5139
   97SAPE  H13Y 9755   1.425   5.075   6.720  0.2271 -0.5134  0.5683
   97SAPE  C314 9756   1.263   5.192   6.661  0.0354 -0.6864  0.7115
   97SAPE  H14X 9757   1.168   5.238   6.694  0.1639 -0.7576  1.1868
   97SAPE  H14Y 9758   1.239   5.126   6.575  1.4497 -0.1206 -0.1537
   97SAPE  C315 9759   1.336   5.313   6.591  0.0468  0.2347 -0.2557
   97SAPE  H15X 9760   1.439   5.273   6.582 -0.0737  0.1211 -1.4069
   97SAPE  H15Y 9761   1.343   5.398   6.662 -0.5910 -1.3775  1.8373
   97SAPE  C316 9762   1.279   5.356   6.454 -0.3634  0.1997 -0.2791
   97SAPE  H16X 9763   1.217   5.446   6.477  0.0125 -0.4361  4.1608
   97SAPE  H16Y 9764   1.216   5.280   6.404  0.0669  0.4252 -1.1796
   97SAPE  C317 9765   1.385   5.387   6.341  0.0882  0.4869 -0.5978
   97SAPE  H17X 9766   1.439   5.292   6.321  0.8556  0.6318  0.6538
   97SAPE  H17Y 9767   1.462   5.462   6.369  0.0375 -0.1915  1.4861
   97SAPE  C318 9768   1.305   5.430   6.218  0.1025  0.7672  1.0276
   97SAPE  H18X 9769   1.235   5.511   6.248  0.1807  0.6952  1.4096
   97SAPE  H18Y 9770   1.248   5.341   6.182 -1.9486  1.4798  2.3443
   97SAPE  H18Z 9771   1.381   5.471   6.148 -0.4791  0.8590  0.4410
   98SAPE     N 9772   6.494   6.078   8.668 -0.5238 -0.4060 -0.4872
   98SAPE   HN1 9773   6.546   6.005   8.616  0.8374 -0.3557  0.7480
   98SAPE   HN2 9774   6.409   6.031   8.704 -0.7308 -1.2236 -1.9648
   98SAPE   HN3 9775   6.460   6.143   8.595  0.7368  0.3167 -0.4682
   98SAPE   C12 9776   6.579   6.150   8.773  0.4278  0.9851  0.0491
   98SAPE  H12A 9777   6.598   6.067   8.844  0.4251 -0.6007 -1.7183
   98SAPE  H12B 9778   6.521   6.226   8.829 -0.6985 -0.1749  0.4895
   98SAPE   C11 9779   6.710   6.198   8.717 -0.0979  0.6242 -0.0140
   98SAPE  H11A 9780   6.769   6.111   8.681 -0.9213  0.2075 -0.4119
   98SAPE  H11B 9781   6.756   6.248   8.804  0.1246  0.7204 -0.1857
   98SAPE     P 9782   6.817   6.331   8.530 -0.3429 -0.1662 -0.5611
   98SAPE   O13 9783   6.804   6.464   8.473  0.3764  0.6286 -0.1895
   98SAPE   O14 9784   6.938   6.300   8.607 -0.7316 -0.6686 -0.3884
   98SAPE   O12 9785   6.685   6.283   8.602 -0.3041  0.0406  0.7304
   98SAPE   O11 9786   6.824   6.232   8.406 -0.7369 -1.1000  0.2133
   98SAPE    C1 9787   6.699   6.198   8.345  0.1751 -0.2594 -0.4706
   98SAPE    HA 9788   6.642   6.135   8.416 -1.3762  1.5844  0.0174
   98SAPE    HB 9789   6.632   6.286   8.332 -0.2688 -0.2079  1.8578
   98SAPE    C2 9790   6.714   6.134   8.203 -0.5958  0.9416 -0.1364
   98SAPE    HS 9791   6.794   6.057   8.210 -1.7746 -0.1450  2.6598
   98SAPE   O21 9792   6.733   6.239   8.107 -0.7137 -0.4188  0.6663
   98SAPE   C21 9793   6.798   6.193   8.004  0.2110 -0.5398  0.3155
   98SAPE   O22 9794   6.866   6.094   8.001 -0.6117  0.1462  0.0335
   98SAPE   C22 9795   6.764   6.275   7.876  0.0427  0.1921  0.0244
   98SAPE   H2R 9796   6.736   6.378   7.906  3.2899  0.7229  1.7977
   98SAPE   H2S 9797   6.859   6.282   7.818  0.1230  1.2244  0.2592
   98SAPE    C3 9798   6.590   6.040   8.177 -0.4970  0.6168  1.2412
   98SAPE    HX 9799   6.510   6.107   8.139 -1.0970  0.2620  1.8519
   98SAPE    HY 9800   6.549   5.999   8.272  0.6254 -2.4711  0.5095
   98SAPE   O31 9801   6.614   5.936   8.074 -0.1557  0.4441  0.2863
   98SAPE   C31 9802   6.679   5.833   8.132 -0.5073  0.0761 -0.5892
   98SAPE   O32 9803   6.690   5.824   8.254  0.1955  0.5369  0.6511
   98SAPE   C32 9804   6.703   5.715   8.045 -0.4543  0.1249 -0.1973
   98SAPE   H2X 9805   6.652   5.624   8.081 -0.4401 -0.7984 -2.3561
   98SAPE   H2Y 9806   6.813   5.701   8.048 -0.7597 -2.5057  2.0865
   98SAPE   C23 9807   6.658   6.207   7.781  0.4691 -0.4202 -0.6890
   98SAPE   H3R 9808   6.600   6.284   7.726 -0.3094  0.4680  1.2922
   98SAPE   H3S 9809   6.575   6.163   7.840 -0.1345  1.7336  0.1553
   98SAPE   C24 9810   6.722   6.107   7.680  0.8050 -0.3505 -0.1804
   98SAPE   H4R 9811   6.637   6.040   7.653  1.1302 -0.4737 -0.9007
   98SAPE   H4S 9812   6.793   6.049   7.743  0.3367 -2.0224 -1.1188
   98SAPE   C25 9813   6.785   6.179   7.565 -0.0298 -0.2683  0.1170
   98SAPE   H5R 9814   6.888   6.214   7.580  0.0868 -0.8258  0.6378
   98SAPE   C26 9815   6.736   6.195   7.436  0.0799 -0.2952 -0.0108
   98SAPE   H6R 9816   6.798   6.241   7.357  0.8902 -0.5056  0.4839
   98SAPE   C27 9817   6.602   6.148   7.376 -0.5486 -0.6054 -0.1691
   98SAPE   H7R 9818   6.580   6.043   7.405 -0.0516 -0.9221 -0.9040
   98SAPE   H7S 9819   6.609   6.143   7.265 -2.1267 -1.5328 -0.2524
   98SAPE   C28 9820   6.484   6.235   7.409 -0.2016  0.6165 -0.7169
   98SAPE   H8R 9821   6.467   6.240   7.518  2.8285  2.3036 -0.2110
   98SAPE   C29 9822   6.405   6.313   7.333 -0.1711  0.2744 -0.6923
   98SAPE   H9R 9823   6.317   6.362   7.378  1.0020  2.0717 -0.2261
   98SAPE  C210 9824   6.405   6.319   7.182  0.0023 -0.0449 -0.0486
   98SAPE  H10R 9825   6.319   6.266   7.136 -1.0866  1.6039 -0.0048
   98SAPE  H10S 9826   6.498   6.271   7.144  1.1562  0.7801  1.6358
   98SAPE  C211 9827   6.406   6.461   7.135  0.1658  0.1515  0.3800
   98SAPE  H11R 9828   6.417   6.528   7.221 -2.7771 -0.2947  1.2377
   98SAPE  C212 9829   6.404   6.497   7.006 -0.3005 -0.8481 -0.6058
   98SAPE  H12R 9830   6.405   6.604   6.980  3.7015  0.0364  2.3211
   98SAPE  C213 9831   6.386   6.411   6.891  0.5166  0.0163 -0.2049
   98SAPE  H13R 9832   6.279   6.386   6.875  0.1531  1.1813  0.2564
   98SAPE  H13S 9833   6.436   6.315   6.914 -0.0416  0.1881  1.9826
   98SAPE  C214 9834   6.451   6.462   6.761  0.4439  0.2606 -0.0362
   98SAPE  H14R 9835   6.557   6.483   6.779  0.6642  0.3136 -1.3535
   98SAPE  C215 9836   6.394   6.491   6.640 -0.3101  0.7766 -0.7644
   98SAPE  H15R 9837   6.455   6.527   6.556  0.2468 -1.9432 -1.6341
   98SAPE  C216 9838   6.250   6.483   6.600 -0.0663  0.2274 -0.4342
   98SAPE  H16R 9839   6.195   6.437   6.685 -1.4101 -1.8129 -2.2920
   98SAPE  H16S 9840   6.234   6.417   6.512 -0.6769 -1.7133  1.0440
   98SAPE  C217 9841   6.176   6.615   6.577 -0.0467 -0.0197  0.4840
   98SAPE  H17R 9842   6.248   6.689   6.536  0.2223  1.5372  3.5287
   98SAPE  H17S 9843   6.155   6.660   6.676 -0.6044 -1.4762  1.0457
   98SAPE  C218 9844   6.042   6.612   6.505 -0.2463  0.3877  0.1486
   98SAPE  H18R 9845   5.993   6.712   6.514  1.7600  1.4850 -0.5171
   98SAPE  H18S 9846   5.977   6.540   6.559 -1.0123  1.1805  0.3069
   98SAPE  C219 9847   6.042   6.582   6.356 -0.1504  0.0295  0.0627
   98SAPE  H19R 9848   5.940   6.584   6.312  0.6271  0.1842 -1.8360
   98SAPE  H19S 9849   6.099   6.489   6.336  1.8640  1.5951 -2.0692
   98SAPE  C220 9850   6.107   6.698   6.269  0.2011 -0.4902 -0.2120
   98SAPE  H20R 9851   6.040   6.784   6.289 -0.7903 -1.4302  0.6838
   98SAPE  H20S 9852   6.099   6.666   6.163  0.1970 -0.2790 -0.2744
   98SAPE  H20T 9853   6.210   6.722   6.305  0.3868 -1.4798 -0.0538
   98SAPE   C33 9854   6.662   5.737   7.906 -0.4510 -0.1983 -0.2953
   98SAPE   H3X 9855   6.687   5.839   7.869 -0.5462 -0.2052 -0.3783
   98SAPE   H3Y 9856   6.553   5.740   7.889 -0.8084 -0.2320  1.7489
   98SAPE   C34 9857   6.741   5.650   7.816  0.7429 -0.0354 -0.4184
   98SAPE   H4X 9858   6.692   5.552   7.836 -0.9803  0.0630 -3.5270
   98SAPE   H4Y 9859   6.847   5.641   7.847  0.0688  2.8491  3.4649
   98SAPE   C35 9860   6.713   5.665   7.658 -1.0176  0.4291  0.2269
   98SAPE   H5X 9861   6.608   5.690   7.631 -1.2995 -1.0143 -0.1086
   98SAPE   H5Y 9862   6.727   5.563   7.616 -0.8673  0.7494 -0.5176
   98SAPE   C36 9863   6.811   5.757   7.587  0.7610 -0.7609 -0.0393
   98SAPE   H6X 9864   6.910   5.709   7.580  0.5037 -1.1946 -0.7930
   98SAPE   H6Y 9865   6.810   5.854   7.643  4.1701 -0.3143 -0.5552
   98SAPE   C37 9866   6.771   5.805   7.443  0.6204 -0.0267 -0.0628
   98SAPE   H7X 9867   6.687   5.875   7.465 -0.9758 -1.9328  0.2495
   98SAPE   H7Y 9868   6.732   5.723   7.378  1.1530  0.0899 -0.5364
   98SAPE   C38 9869   6.883   5.885   7.361  0.5607 -0.5985  0.0118
   98SAPE   H8X 9870   6.977   5.827   7.347  0.7633 -0.4021  0.5299
   98SAPE   H8Y 9871   6.928   5.976   7.407  1.0309 -1.1168  0.5995
   98SAPE   C39 9872   6.837   5.921   7.215  0.0243 -0.3490 -0.2516
   98SAPE   H9X 9873   6.902   6.006   7.183  0.1496 -0.4035 -0.1401
   98SAPE   H9Y 9874   6.727   5.938   7.212 -0.4468 -3.0114 -2.1097
   98SAPE  C310 9875   6.873   5.810   7.109  0.3532  0.4814  0.1937
   98SAPE  H10X 9876   6.813   5.719   7.126 -0.4026  0.8809 -0.2514
   98SAPE  H10Y 9877   6.978   5.778   7.125  0.6000  0.5828 -1.0422
   98SAPE  C311 9878   6.848   5.862   6.964  0.1516  0.0213 -0.2756
   98SAPE  H11X 9879   6.901   5.959   6.959 -1.3870  0.9668  0.7128
   98SAPE  H11Y 9880   6.739   5.877   6.950  0.3423  1.4219 -0.3192
   98SAPE  C312 9881   6.899   5.766   6.853  0.3102  0.5056 -0.1601
   98SAPE  H12X 9882   6.832   5.677   6.858 -1.0005  1.4167 -0.8765
   98SAPE  H12Y 9883   7.006   5.754   6.881  0.5109  3.5020  0.7747
   98SAPE  C313 9884   6.883   5.824   6.711 -0.1927 -0.4588 -0.7411
   98SAPE  H13X 9885   6.883   5.935   6.711 -2.0287 -0.3843  1.7679
   98SAPE  H13Y 9886   6.784   5.787   6.677 -1.5230  2.2726 -0.0621
   98SAPE  C314 9887   6.990   5.761   6.620 -0.5309  0.1620  0.6436
   98SAPE  H14X 9888   6.977   5.650   6.626 -2.7384  0.2808 -0.7264
   98SAPE  H14Y 9889   7.087   5.782   6.668  0.1694  1.3841 -1.2153
   98SAPE  C315 9890   6.991   5.824   6.477  0.4075 -0.2884 -0.3282
   98SAPE  H15X 9891   7.073   5.779   6.416  1.8118 -0.6228  1.6715
   98SAPE  H15Y 9892   7.015   5.932   6.479 -0.5841 -0.0481 -0.8655
   98SAPE  C316 9893   6.862   5.802   6.403  0.0427  0.4558  0.3267
   98SAPE  H16X 9894   6.795   5.889   6.418  1.5731  1.4037  2.3232
   98SAPE  H16Y 9895   6.806   5.718   6.451 -1.2102  0.7324 -0.6092
   98SAPE  C317 9896   6.876   5.761   6.257 -0.2158 -0.1654  0.8130
   98SAPE  H17X 9897   6.918   5.659   6.257  1.6268  0.5444  0.2061
   98SAPE  H17Y 9898   6.951   5.828   6.210 -1.4315  0.9158  0.3667
   98SAPE  C318 9899   6.740   5.761   6.185  0.2391 -0.6341  0.3056
   98SAPE  H18X 9900   6.682   5.689   6.247  0.4171 -0.6219  0.4897
   98SAPE  H18Y 9901   6.739   5.749   6.075 -1.9726  1.9138 -0.0596
   98SAPE  H18Z 9902   6.697   5.863   6.197  1.0792  0.1213 -2.4349
   99SAPE     N 9903   2.203   4.429   8.742 -0.1243 -0.2006 -0.0128
   99SAPE   HN1 9904   2.194   4.522   8.789  0.5591 -0.8709  1.5282
   99SAPE   HN2 9905   2.240   4.369   8.818 -0.0016 -0.2687 -0.1272
   99SAPE   HN3 9906   2.267   4.445   8.662 -1.6188  0.0941 -1.1843
   99SAPE   C12 9907   2.070   4.379   8.689  0.0140  0.3998 -0.0331
   99SAPE  H12A 9908   2.002   4.380   8.778 -0.5994  0.8612 -0.4986
   99SAPE  H12B 9909   2.086   4.279   8.643 -0.0613  0.1855  0.4010
   99SAPE   C11 9910   2.033   4.472   8.575  0.3496  0.4880  0.4568
   99SAPE  H11A 9911   1.947   4.440   8.512  0.5334 -0.0507  0.4720
   99SAPE  H11B 9912   2.110   4.441   8.501 -0.7014 -2.2250  0.3794
   99SAPE     P 9913   2.019   4.726   8.495  0.0403 -0.1890 -0.2209
   99SAPE   O13 9914   1.871   4.751   8.482  0.4728  0.0645 -0.5675
   99SAPE   O14 9915   2.094   4.845   8.551 -0.6161 -0.3147  0.3593
   99SAPE   O12 9916   2.048   4.610   8.599  0.2994  0.4740  0.6477
   99SAPE   O11 9917   2.081   4.677   8.358  0.0552  0.0180  0.5216
   99SAPE    C1 9918   2.216   4.719   8.324 -0.0522  0.2846  0.1342
   99SAPE    HA 9919   2.273   4.716   8.419  0.2673  0.3107 -0.0550
   99SAPE    HB 9920   2.256   4.644   8.252  2.3657  1.0097  0.6683
   99SAPE    C2 9921   2.228   4.858   8.266  0.4920 -0.2532 -0.2040
   99SAPE    HS 9922   2.174   4.926   8.336 -0.0710  0.6589 -1.4935
   99SAPE   O21 9923   2.158   4.851   8.139 -0.3386 -0.1678 -0.2664
   99SAPE   C21 9924   2.120   4.963   8.089 -0.5657 -0.4457  0.2526
   99SAPE   O22 9925   2.140   5.073   8.139  0.1694  0.2820  0.0841
   99SAPE   C22 9926   2.084   4.940   7.942 -0.0055 -0.0635  0.1373
   99SAPE   H2R 9927   2.006   4.862   7.927 -0.8491  0.9284 -0.8248
   99SAPE   H2S 9928   2.022   5.025   7.907 -2.9797 -1.8738  0.7206
   99SAPE    C3 9929   2.378   4.892   8.268 -0.5842  0.3588  0.2511
   99SAPE    HX 9930   2.414   4.906   8.372 -1.4296 -0.2863  0.6500
   99SAPE    HY 9931   2.383   4.990   8.216  2.4900  0.2896  0.2407
   99SAPE   O31 9932   2.457   4.788   8.191 -0.3234 -0.0944  0.2542
   99SAPE   C31 9933   2.536   4.830   8.097  0.1735  0.2349  0.0362
   99SAPE   O32 9934   2.550   4.946   8.068  0.4322  0.1316  0.5745
   99SAPE   C32 9935   2.613   4.709   8.040  0.3801 -0.3148  0.1940
   99SAPE   H2X 9936   2.551   4.617   8.047  0.8509 -0.5573  1.5753
   99SAPE   H2Y 9937   2.696   4.686   8.110  0.5824 -0.7446 -0.1824
   99SAPE   C23 9938   2.206   4.894   7.859 -0.3292  0.2566 -0.2884
   99SAPE   H3R 9939   2.248   4.799   7.897 -0.7468 -0.0379 -0.5625
   99SAPE   H3S 9940   2.287   4.971   7.859  0.6532 -0.7107 -1.9161
   99SAPE   C24 9941   2.180   4.879   7.710 -0.3070  0.7905 -0.0695
   99SAPE   H4R 9942   2.134   4.779   7.703  2.3103 -0.4484 -0.8424
   99SAPE   H4S 9943   2.275   4.868   7.653 -1.0963  1.8553 -1.6791
   99SAPE   C25 9944   2.101   4.987   7.644 -0.1775  0.2538 -0.5238
   99SAPE   H5R 9945   2.111   5.077   7.707  1.5652 -0.7875  0.7466
   99SAPE   C26 9946   2.014   4.968   7.539 -0.4543 -0.7409  0.4515
   99SAPE   H6R 9947   1.959   5.054   7.498  1.3041  0.8988  1.4094
   99SAPE   C27 9948   2.016   4.838   7.465 -0.4005 -0.0341  1.0151
   99SAPE   H7R 9949   1.992   4.751   7.531 -0.3313 -0.2186  0.8005
   99SAPE   H7S 9950   2.120   4.818   7.431 -0.5185  1.6634 -0.4580
   99SAPE   C28 9951   1.908   4.846   7.354 -1.0944  0.3685 -0.1106
   99SAPE   H8R 9952   1.808   4.806   7.375 -0.9500 -0.1205 -0.3545
   99SAPE   C29 9953   1.938   4.888   7.232 -0.1451 -0.2458  1.5970
   99SAPE   H9R 9954   1.855   4.879   7.161 -1.0089 -0.0329  2.5641
   99SAPE  C210 9955   2.064   4.945   7.181 -0.7767 -0.2238  0.2906
   99SAPE  H10R 9956   2.150   4.912   7.243 -1.1081 -1.8620 -0.0814
   99SAPE  H10S 9957   2.056   5.056   7.184  2.0349  0.1376 -1.2264
   99SAPE  C211 9958   2.101   4.897   7.036 -0.5594  0.1985 -0.0277
   99SAPE  H11R 9959   2.155   4.801   7.034  0.7792  0.9215  0.0962
   99SAPE  C212 9960   2.085   4.957   6.910  0.0621 -0.1349 -0.3099
   99SAPE  H12R 9961   2.117   4.897   6.823 -1.9604  0.8005 -1.7614
   99SAPE  C213 9962   2.031   5.096   6.891  0.4669  0.0467 -0.5377
   99SAPE  H13R 9963   2.102   5.158   6.832 -1.8167  1.2834 -2.1444
   99SAPE  H13S 9964   2.016   5.151   6.986 -1.5836  1.4648 -1.5890
   99SAPE  C214 9965   1.896   5.085   6.821  0.0369  0.0902  0.1526
   99SAPE  H14R 9966   1.829   5.009   6.865 -0.8581 -0.1560 -1.5318
   99SAPE  C215 9967   1.848   5.162   6.720  0.3498 -0.0346 -1.0980
   99SAPE  H15R 9968   1.740   5.150   6.703 -0.0545  1.3001  0.2980
   99SAPE  C216 9969   1.922   5.265   6.647 -0.4720  0.0861  0.4217
   99SAPE  H16R 9970   2.028   5.282   6.678 -0.6016  3.4979 -0.5550
   99SAPE  H16S 9971   1.875   5.366   6.639  0.5562  0.5498 -0.0486
   99SAPE  C217 9972   1.921   5.236   6.490 -0.3283  0.1552 -0.6733
   99SAPE  H17R 9973   1.821   5.205   6.451  0.0568 -1.0232 -0.7701
   99SAPE  H17S 9974   1.995   5.156   6.467 -3.1911 -2.0952 -2.9004
   99SAPE  C218 9975   1.970   5.356   6.408  0.7340  0.3630  0.0410
   99SAPE  H18R 9976   2.076   5.378   6.431  0.8471  1.0167 -1.0553
   99SAPE  H18S 9977   1.925   5.453   6.438  0.4776  0.9817 -2.1553
   99SAPE  C219 9978   1.961   5.357   6.252  0.5694 -0.1573 -0.5005
   99SAPE  H19R 9979   2.051   5.297   6.225 -1.5343 -3.0105 -1.6257
   99SAPE  H19S 9980   1.976   5.459   6.212 -2.3260  0.0005 -1.3462
   99SAPE  C220 9981   1.843   5.292   6.184  0.3684  0.4167  0.9598
   99SAPE  H20R 9982   1.751   5.338   6.225 -1.1788 -1.7379  0.0597
   99SAPE  H20S 9983   1.852   5.182   6.194  0.9040  0.0107 -2.6592
   99SAPE  H20T 9984   1.846   5.320   6.076  1.5111 -0.7320  0.6737
   99SAPE   C33 9985   2.655   4.732   7.895 -0.2582 -0.0955 -0.0396
   99SAPE   H3X 9986   2.744   4.669   7.876 -0.0291 -0.0856  0.9591
   99SAPE   H3Y 9987   2.691   4.836   7.879 -1.3030  0.2229 -0.4551
   99SAPE   C34 9988   2.540   4.694   7.795  0.1183  0.3289 -0.5041
   99SAPE   H4X 9989   2.476   4.785   7.797  0.5176  0.6067  0.0418
   99SAPE   H4Y 9990   2.477   4.604   7.815  1.3746 -0.2195  1.2888
   99SAPE   C35 9991   2.611   4.678   7.655  0.2235 -0.5301 -0.0993
   99SAPE   H5X 9992   2.693   4.604   7.660 -0.5035 -1.4478 -1.1665
   99SAPE   H5Y 9993   2.658   4.773   7.622  1.2180 -0.5625  1.1579
   99SAPE   C36 9994   2.505   4.633   7.556  0.3219 -0.0728  0.2940
   99SAPE   H6X 9995   2.412   4.690   7.576  2.1771  3.8702 -1.2908
   99SAPE   H6Y 9996   2.487   4.525   7.575  0.1344 -0.3829 -1.4736
   99SAPE   C37 9997   2.545   4.634   7.405  0.7286 -0.1811 -0.3575
   99SAPE   H7X 9998   2.636   4.575   7.380  1.0706  0.3396 -0.3652
   99SAPE   H7Y 9999   2.567   4.739   7.376  2.3416 -0.2010  0.6579
   99SAPE   C3810000   2.427   4.580   7.326 -0.0495  0.4967  0.3246
   99SAPE   H8X10001   2.338   4.643   7.350 -0.6821  0.2190 -1.1418
   99SAPE   H8Y10002   2.402   4.479   7.364 -0.1736  0.0612 -0.8578
   99SAPE   C3910003   2.461   4.573   7.183  0.1611 -0.0197  0.4572
   99SAPE   H9X10004   2.544   4.500   7.174  1.1570  1.2717 -1.9904
   99SAPE   H9Y10005   2.482   4.678   7.152  0.1404  0.0793  0.7770
   99SAPE  C31010006   2.353   4.509   7.096  0.6550 -0.2453  0.9338
   99SAPE  H10X10007   2.258   4.564   7.082  0.4421 -0.9156 -0.4280
   99SAPE  H10Y10008   2.332   4.410   7.143  3.7307  0.0098  3.1916
   99SAPE  C31110009   2.417   4.474   6.960 -0.8661  0.2688  0.1971
   99SAPE  H11X10010   2.506   4.412   6.983 -0.9700  0.5742  1.5266
   99SAPE  H11Y10011   2.472   4.563   6.922  0.7752 -1.0501 -0.6672
   99SAPE  C31210012   2.318   4.421   6.848  0.1911 -0.2533 -0.1141
   99SAPE  H12X10013   2.223   4.396   6.900  0.4143 -0.8434  0.0280
   99SAPE  H12Y10014   2.357   4.319   6.823  0.1282 -0.1461 -0.6669
   99SAPE  C31310015   2.308   4.500   6.723 -0.1883 -0.0191 -0.4710
   99SAPE  H13X10016   2.262   4.444   6.639 -0.5454  0.6418 -0.7178
   99SAPE  H13Y10017   2.407   4.514   6.675 -0.7338  1.0025 -1.3336
   99SAPE  C31410018   2.234   4.632   6.719 -0.1645  0.0680 -0.1868
   99SAPE  H14X10019   2.276   4.698   6.798 -0.7479 -0.4074  0.5282
   99SAPE  H14Y10020   2.134   4.596   6.751  0.5950 -2.8065 -0.7910
   99SAPE  C31510021   2.199   4.711   6.593 -0.4635  1.0778 -0.2478
   99SAPE  H15X10022   2.125   4.790   6.620 -1.1081  1.0265 -1.7693
   99SAPE  H15Y10023   2.157   4.638   6.521  0.9148 -1.0570  0.9987
   99SAPE  C31610024   2.331   4.774   6.537 -0.7041 -0.3819 -0.7702
   99SAPE  H16X10025   2.401   4.694   6.506 -1.5107 -2.2048  1.8253
   99SAPE  H16Y10026   2.376   4.840   6.615  0.6881 -2.0569 -0.1070
   99SAPE  C31710027   2.299   4.869   6.422  0.1963 -0.3210 -0.0485
   99SAPE  H17X10028   2.224   4.836   6.347  1.1063 -0.1483 -1.0634
   99SAPE  H17Y10029   2.390   4.875   6.358  0.2945  0.2955  0.1418
   99SAPE  C31810030   2.254   5.016   6.462 -0.4894  0.6690  1.0114
   99SAPE  H18X10031   2.334   5.071   6.516  0.7326  0.6191 -0.6477
   99SAPE  H18Y10032   2.159   5.010   6.518  0.4211 -1.5452  2.4550
   99SAPE  H18Z10033   2.248   5.074   6.367  2.0404 -2.6509 -1.4380
  100SAPE     N10034   4.042   1.655   8.751 -0.2552 -0.7252 -0.7120
  100SAPE   HN110035   4.016   1.725   8.679  2.6952 -0.4837 -1.7024
  100SAPE   HN210036   4.035   1.559   8.711  0.2084 -1.1397  0.1562
  100SAPE   HN310037   3.973   1.662   8.828 -1.4562 -1.8548 -1.6464
  100SAPE   C1210038   4.184   1.690   8.790 -0.1106 -0.3143  0.5848
  100SAPE  H12A10039   4.209   1.610   8.863  1.4296 -0.4577 -0.0737
  100SAPE  H12B10040   4.174   1.793   8.829 -2.3964  0.8172 -2.5362
  100SAPE   C1110041   4.269   1.696   8.666  0.2872  0.8036 -0.1060
  100SAPE  H11A10042   4.226   1.774   8.600  1.6244  2.2261  0.6317
  100SAPE  H11B10043   4.261   1.610   8.596 -0.7315  1.5318 -0.9150
  100SAPE     P10044   4.477   1.857   8.675 -0.0977 -0.1391  0.2468
  100SAPE   O1310045   4.419   1.964   8.758 -0.4309  0.1446  0.1417
  100SAPE   O1410046   4.625   1.844   8.702 -0.1922 -0.3253  0.3252
  100SAPE   O1210047   4.407   1.717   8.705  0.3907 -0.4460  0.2746
  100SAPE   O1110048   4.449   1.883   8.520 -0.2393 -0.4575  0.4971
  100SAPE    C110049   4.510   1.782   8.433  0.0157  0.4167 -0.4689
  100SAPE    HA10050   4.618   1.759   8.446 -0.3571 -1.2878 -0.1822
  100SAPE    HB10051   4.466   1.684   8.462 -1.8517  1.3443 -0.0266
  100SAPE    C210052   4.491   1.813   8.281 -0.2041  0.0632 -0.0253
  100SAPE    HS10053   4.575   1.879   8.250 -1.5258  1.0279 -1.7142
  100SAPE   O2110054   4.363   1.875   8.241 -0.8938 -0.1682  0.1063
  100SAPE   C2110055   4.260   1.822   8.284  0.9412  0.3000  0.4345
  100SAPE   O2210056   4.247   1.716   8.341  0.6361  0.5499 -0.3765
  100SAPE   C2210057   4.133   1.883   8.225 -0.0822 -0.3427  0.6949
  100SAPE   H2R10058   4.065   1.804   8.186 -1.1368  2.2377 -3.2928
  100SAPE   H2S10059   4.083   1.940   8.306  0.4749  1.1827  0.0137
  100SAPE    C310060   4.522   1.682   8.208  0.5949  0.2573 -0.1446
  100SAPE    HX10061   4.448   1.604   8.236  0.6195 -0.0988 -1.0559
  100SAPE    HY10062   4.622   1.643   8.237 -0.0498 -1.0628  0.4018
  100SAPE   O3110063   4.530   1.699   8.070 -0.0825  0.5561 -0.4523
  100SAPE   C3110064   4.416   1.671   8.002 -0.0340 -0.2611 -0.2008
  100SAPE   O3210065   4.317   1.621   8.052 -0.2014  0.1198  0.0956
  100SAPE   C3210066   4.428   1.708   7.861 -0.0627  0.4009  0.1897
  100SAPE   H2X10067   4.485   1.625   7.813  0.0342  0.6583 -0.1406
  100SAPE   H2Y10068   4.490   1.799   7.851  2.1539 -1.2593 -3.4499
  100SAPE   C2310069   4.157   1.985   8.111  0.2171  0.5375  0.6922
  100SAPE   H3R10070   4.209   1.922   8.035 -2.3995 -0.7894 -0.1275
  100SAPE   H3S10071   4.237   2.061   8.125 -0.3250  1.7220 -1.9310
  100SAPE   C2410072   4.030   2.058   8.058  0.8046 -0.6260 -0.3204
  100SAPE   H4R10073   3.980   2.119   8.136  2.2106 -0.3083  0.3634
  100SAPE   H4S10074   3.958   1.977   8.035 -1.3543  0.1210  3.0181
  100SAPE   C2510075   4.056   2.148   7.937 -0.4397  0.4651 -0.3288
  100SAPE   H5R10076   4.130   2.226   7.962  0.5872 -0.8853  1.0617
  100SAPE   C2610077   4.004   2.138   7.814 -1.4165 -0.0722  0.1283
  100SAPE   H6R10078   4.049   2.205   7.740 -3.1862  1.6791  0.5571
  100SAPE   C2710079   3.909   2.035   7.761 -0.2255 -0.7229 -0.2718
  100SAPE   H7R10080   3.825   2.096   7.720  2.4135  0.9040 -3.8317
  100SAPE   H7S10081   3.869   1.966   7.839  1.7286 -0.8217  0.6858
  100SAPE   C2810082   3.971   1.950   7.645  0.1565  0.1519  0.7526
  100SAPE   H8R10083   4.010   1.858   7.691 -0.7148  0.4063  2.0423
  100SAPE   C2910084   3.980   1.981   7.510 -0.7779  0.3968 -0.7378
  100SAPE   H9R10085   4.031   1.917   7.437  0.7847 -0.3369  0.9365
  100SAPE  C21010086   3.932   2.112   7.458  0.5824  0.5826 -0.5098
  100SAPE  H10R10087   3.981   2.156   7.369 -1.6853  1.9191 -1.1837
  100SAPE  H10S10088   3.960   2.186   7.536  0.4014 -0.6077  0.7236
  100SAPE  C21110089   3.781   2.114   7.436 -0.1162  0.5843 -0.1321
  100SAPE  H11R10090   3.729   2.056   7.515  0.5022 -3.1706 -2.2143
  100SAPE  C21210091   3.720   2.184   7.339 -0.2357  0.1937 -0.1639
  100SAPE  H12R10092   3.611   2.181   7.347 -0.2798 -0.2318 -0.8849
  100SAPE  C21310093   3.787   2.275   7.243 -0.9082 -0.2162  0.1626
  100SAPE  H13R10094   3.718   2.300   7.160 -0.6937  1.7011  0.5217
  100SAPE  H13S10095   3.884   2.237   7.204 -0.6149  0.2069  0.4692
  100SAPE  C21410096   3.832   2.407   7.303 -0.8780 -0.5806 -0.2875
  100SAPE  H14R10097   3.823   2.410   7.413 -3.4889 -0.3284 -0.4521
  100SAPE  C21510098   3.872   2.507   7.230 -0.2366 -0.4457 -0.0114
  100SAPE  H15R10099   3.886   2.602   7.284  0.7811 -0.3522 -0.4071
  100SAPE  C21610100   3.892   2.515   7.083  0.0464 -0.3463 -0.1142
  100SAPE  H16R10101   3.915   2.412   7.048  0.9894 -0.5593  1.0686
  100SAPE  H16S10102   3.978   2.583   7.066 -0.2026  0.7687  2.6221
  100SAPE  C21710103   3.786   2.577   6.993 -0.1465 -0.3125 -0.4299
  100SAPE  H17R10104   3.776   2.683   7.023  1.3575 -0.1941 -0.2685
  100SAPE  H17S10105   3.691   2.522   7.011 -0.8391  0.2766 -2.0669
  100SAPE  C21810106   3.827   2.553   6.850  0.4229 -0.2083 -0.0122
  100SAPE  H18R10107   3.815   2.444   6.832 -0.6019 -0.1112 -0.0019
  100SAPE  H18S10108   3.935   2.576   6.836  0.0627  1.7053  0.0281
  100SAPE  C21910109   3.750   2.633   6.748  0.0702 -0.0660  0.2339
  100SAPE  H19R10110   3.758   2.741   6.769  1.2093  0.3001 -1.8135
  100SAPE  H19S10111   3.640   2.620   6.751  0.3082 -3.0022 -0.5796
  100SAPE  C22010112   3.793   2.612   6.608 -0.2483  0.8330  0.2752
  100SAPE  H20R10113   3.769   2.510   6.570  0.5860  0.4375  0.7554
  100SAPE  H20S10114   3.903   2.628   6.598 -0.2681  1.4499  0.9746
  100SAPE  H20T10115   3.745   2.687   6.542 -0.9213  0.2917  0.1388
  100SAPE   C3310116   4.296   1.727   7.786  0.8944 -0.3102  0.7085
  100SAPE   H3X10117   4.219   1.785   7.841  2.1967 -0.3612  2.6530
  100SAPE   H3Y10118   4.246   1.630   7.766  1.3055 -0.4496  0.3375
  100SAPE   C3410119   4.317   1.790   7.653 -0.1627  0.1740  0.2312
  100SAPE   H4X10120   4.402   1.861   7.664  0.8687 -0.8934 -0.4887
  100SAPE   H4Y10121   4.228   1.850   7.625  0.8899  2.0188  0.7014
  100SAPE   C3510122   4.352   1.687   7.537 -0.6227  0.3587  0.8168
  100SAPE   H5X10123   4.287   1.597   7.546  0.7036 -0.7521 -0.2684
  100SAPE   H5Y10124   4.459   1.661   7.555 -0.1755  2.4563  1.4230
  100SAPE   C3610125   4.340   1.753   7.398  0.2059 -0.3069  0.4228
  100SAPE   H6X10126   4.230   1.759   7.388  0.3094 -0.6552 -0.9922
  100SAPE   H6Y10127   4.372   1.687   7.316  1.4043  0.3173  0.3655
  100SAPE   C3710128   4.392   1.896   7.384 -0.1938  0.1060 -0.2109
  100SAPE   H7X10129   4.502   1.887   7.393 -0.0923  2.8372  3.0622
  100SAPE   H7Y10130   4.352   1.972   7.454  1.2349 -0.2885  1.0862
  100SAPE   C3810131   4.381   1.954   7.234 -0.2025  0.0100 -0.2067
  100SAPE   H8X10132   4.435   1.889   7.163  0.8014  1.7437 -1.0906
  100SAPE   H8Y10133   4.421   2.058   7.241 -0.8128  0.2319  0.1692
  100SAPE   C3910134   4.227   1.966   7.192 -0.1479  0.0185  0.7254
  100SAPE   H9X10135   4.169   2.029   7.262 -0.6213  1.0454 -0.5601
  100SAPE   H9Y10136   4.190   1.862   7.181  1.9700 -0.5857 -1.4249
  100SAPE  C31010137   4.226   2.023   7.047  0.5917 -0.0073  0.3123
  100SAPE  H10X10138   4.276   1.949   6.981  1.5543  1.9515 -1.2510
  100SAPE  H10Y10139   4.280   2.119   7.048  1.0633 -0.2679  0.7762
  100SAPE  C31110140   4.085   2.056   6.993  0.0917 -0.6355 -0.5100
  100SAPE  H11X10141   4.038   2.124   7.068  2.9299 -1.1386  1.9260
  100SAPE  H11Y10142   4.018   1.968   7.004 -1.6291  0.4776 -1.6308
  100SAPE  C31210143   4.095   2.119   6.854 -0.0020  0.0499 -0.1873
  100SAPE  H12X10144   4.182   2.083   6.795  0.3460  2.0342 -0.9712
  100SAPE  H12Y10145   4.116   2.226   6.875 -1.0588  0.3970 -0.7995
  100SAPE  C31310146   3.969   2.093   6.780  0.4856 -0.4848  0.3934
  100SAPE  H13X10147   3.884   2.060   6.844  0.0275 -2.1751 -0.9987
  100SAPE  H13Y10148   3.995   1.996   6.731  3.6379  0.2369  0.4175
  100SAPE  C31410149   3.924   2.189   6.674 -1.2629 -0.7103 -0.1750
  100SAPE  H14X10150   3.973   2.162   6.578  1.5402  0.7011  0.7427
  100SAPE  H14Y10151   3.954   2.295   6.692 -2.2954  0.0292 -2.3707
  100SAPE  C31510152   3.770   2.198   6.648 -0.4662 -0.5981  0.5389
  100SAPE  H15X10153   3.764   2.272   6.566  3.9107 -0.1921  0.3581
  100SAPE  H15Y10154   3.739   2.240   6.746  1.0778 -0.4156  0.9737
  100SAPE  C31610155   3.697   2.071   6.595  0.1005  1.0378  0.2116
  100SAPE  H16X10156   3.692   1.997   6.678 -1.3360 -0.4497 -1.1377
  100SAPE  H16Y10157   3.738   2.033   6.498 -4.2071  0.6236 -1.6494
  100SAPE  C31710158   3.549   2.100   6.550 -0.3492  0.0690 -0.1763
  100SAPE  H17X10159   3.547   2.181   6.474 -2.4906  1.2790  1.0531
  100SAPE  H17Y10160   3.500   2.143   6.640 -0.2824 -1.4826  0.6401
  100SAPE  C31810161   3.468   1.981   6.513  0.0977  0.1230  0.4483
  100SAPE  H18X10162   3.360   2.000   6.494  0.0731 -1.6573 -1.5076
  100SAPE  H18Y10163   3.471   1.906   6.595  0.1992 -0.6043 -0.2085
  100SAPE  H18Z10164   3.514   1.931   6.426 -0.1000 -0.0880  0.4640
  101SAPE     N10165   4.155   4.896   8.515  0.2451 -0.1711  0.2558
  101SAPE   HN110166   4.254   4.866   8.531  0.5545  0.5200 -0.3140
  101SAPE   HN210167   4.156   4.959   8.432  0.0089  0.4350  0.7083
  101SAPE   HN310168   4.107   4.949   8.590  1.0123  0.2335  0.4760
  101SAPE   C1210169   4.091   4.762   8.471  0.1065 -0.2039 -0.5921
  101SAPE  H12A10170   4.156   4.681   8.511  0.5340 -0.0142 -0.9001
  101SAPE  H12B10171   4.093   4.758   8.360 -1.7284  0.8672 -0.7061
  101SAPE   C1110172   3.949   4.750   8.529 -0.4533  0.1376 -0.3730
  101SAPE  H11A10173   3.949   4.770   8.639  2.4634  2.6864 -0.7247
  101SAPE  H11B10174   3.924   4.641   8.523  0.1206 -0.1905  1.9262
  101SAPE     P10175   3.812   4.984   8.488 -0.0012 -0.5919 -0.7481
  101SAPE   O1310176   3.674   4.980   8.543  0.3249  0.0035 -0.5875
  101SAPE   O1410177   3.911   5.046   8.576  0.7891 -0.7146 -0.6814
  101SAPE   O1210178   3.857   4.834   8.465 -0.2965  0.2515  0.3149
  101SAPE   O1110179   3.821   5.039   8.338  0.2020  0.2708  0.3898
  101SAPE    C110180   3.753   5.155   8.292  0.2313 -0.2291 -0.0150
  101SAPE    HA10181   3.650   5.152   8.333  1.4975  2.7157  4.0736
  101SAPE    HB10182   3.804   5.244   8.336  0.8334 -0.1198 -0.9044
  101SAPE    C210183   3.762   5.169   8.144  0.2207  1.2323 -0.0634
  101SAPE    HS10184   3.869   5.164   8.115  0.0252 -0.5658 -0.6058
  101SAPE   O2110185   3.706   5.291   8.093 -0.5473 -0.3541 -0.1537
  101SAPE   C2110186   3.780   5.401   8.120  0.0200 -0.2574 -0.8520
  101SAPE   O2210187   3.886   5.402   8.180 -0.1076 -0.1140 -0.2315
  101SAPE   C2210188   3.700   5.526   8.073  0.1438 -0.0825  0.5874
  101SAPE   H2R10189   3.674   5.513   7.966  2.7265 -0.9979 -0.0150
  101SAPE   H2S10190   3.618   5.538   8.146 -2.4223 -0.8319 -1.9751
  101SAPE    C310191   3.707   5.043   8.072 -0.0263  0.5175  0.2260
  101SAPE    HX10192   3.602   5.027   8.105 -0.3531  1.4625 -0.3279
  101SAPE    HY10193   3.757   4.962   8.129 -1.1585 -0.0867  0.4038
  101SAPE   O3110194   3.732   5.037   7.931 -0.1209 -0.2159 -0.5632
  101SAPE   C3110195   3.857   4.995   7.896 -0.6062  0.2683 -0.1744
  101SAPE   O3210196   3.955   4.996   7.971  0.5625  0.6313  0.0301
  101SAPE   C3210197   3.868   4.964   7.746  0.2762  0.4246 -0.3463
  101SAPE   H2X10198   3.873   4.853   7.733 -2.3133  0.2108  0.0307
  101SAPE   H2Y10199   3.965   5.010   7.716  1.1896 -0.7957  0.5832
  101SAPE   C2310200   3.792   5.656   8.090  1.2159  0.2214 -0.2844
  101SAPE   H3R10201   3.854   5.664   8.182  2.5637 -0.4163 -1.1210
  101SAPE   H3S10202   3.721   5.741   8.105  0.9806  0.0651 -0.4955
  101SAPE   C2410203   3.873   5.707   7.976 -0.0412  0.0486 -0.6292
  101SAPE   H4R10204   3.920   5.803   8.007  0.7021 -0.7909  0.9949
  101SAPE   H4S10205   3.803   5.736   7.895 -1.3136  0.2824  0.5180
  101SAPE   C2510206   3.977   5.609   7.925 -0.1023  0.1039 -0.0029
  101SAPE   H5R10207   4.073   5.599   7.977  0.5528  3.4192 -0.3436
  101SAPE   C2610208   3.966   5.559   7.803  0.2570 -0.6167 -0.7124
  101SAPE   H6R10209   4.042   5.486   7.771  0.1519 -1.4869  0.9161
  101SAPE   C2710210   3.857   5.587   7.707 -0.1991 -0.0723  0.5058
  101SAPE   H7R10211   3.873   5.685   7.658  0.4772 -0.0493  0.7643
  101SAPE   H7S10212   3.759   5.582   7.759 -0.5408  1.5897  0.0617
  101SAPE   C2810213   3.840   5.474   7.614  0.6127 -0.1896  0.2076
  101SAPE   H8R10214   3.912   5.392   7.628 -0.5895 -0.9738  2.2402
  101SAPE   C2910215   3.749   5.462   7.514 -0.1059  0.2628  0.5240
  101SAPE   H9R10216   3.757   5.369   7.456  1.2454  0.5141  0.2534
  101SAPE  C21010217   3.649   5.566   7.459 -0.6912  0.9162 -0.0828
  101SAPE  H10R10218   3.703   5.661   7.438  2.9250 -0.9372 -0.0834
  101SAPE  H10S10219   3.569   5.596   7.530 -0.7973  0.2048  0.1096
  101SAPE  C21110220   3.591   5.523   7.325  0.4022  0.7094 -0.6388
  101SAPE  H11R10221   3.527   5.434   7.338  1.5368  0.0611  0.8421
  101SAPE  C21210222   3.596   5.592   7.208 -0.1740 -0.1215  0.5752
  101SAPE  H12R10223   3.543   5.551   7.120  0.6808  1.7307 -0.8591
  101SAPE  C21310224   3.679   5.713   7.179 -0.7746  0.0023  0.6586
  101SAPE  H13R10225   3.674   5.784   7.264 -0.2386 -0.2870  0.9314
  101SAPE  H13S10226   3.635   5.773   7.096  0.0653  0.4830  0.5444
  101SAPE  C21410227   3.818   5.664   7.150  0.1574 -0.6560  0.2481
  101SAPE  H14R10228   3.870   5.636   7.242 -1.4105 -0.4584  1.2316
  101SAPE  C21510229   3.879   5.670   7.028 -0.2003  0.0577 -0.0341
  101SAPE  H15R10230   3.985   5.643   7.013 -0.1201  0.1928  0.2839
  101SAPE  C21610231   3.809   5.699   6.897  0.3755 -0.6736  0.3452
  101SAPE  H16R10232   3.710   5.748   6.907  0.9162  0.7302 -0.7152
  101SAPE  H16S10233   3.779   5.605   6.847 -0.1234  0.7129 -2.1021
  101SAPE  C21710234   3.896   5.779   6.793 -0.5379  0.1363 -0.3623
  101SAPE  H17R10235   3.986   5.717   6.774 -0.8985 -0.5594  0.2073
  101SAPE  H17S10236   3.913   5.880   6.837 -1.8167 -0.0237  0.5536
  101SAPE  C21810237   3.831   5.802   6.661  0.0363 -0.4831  0.1773
  101SAPE  H18R10238   3.733   5.849   6.685 -0.1866 -0.3195 -0.9657
  101SAPE  H18S10239   3.806   5.699   6.628 -1.0567  0.1764 -1.1740
  101SAPE  C21910240   3.914   5.882   6.563 -0.5461 -0.6097  0.5465
  101SAPE  H19R10241   3.970   5.957   6.624  1.5507  0.2765 -2.2173
  101SAPE  H19S10242   3.850   5.935   6.489 -0.0923 -1.8571 -0.7728
  101SAPE  C22010243   4.023   5.800   6.497 -0.0326 -0.9305 -0.2245
  101SAPE  H20R10244   3.983   5.726   6.424  2.1222 -3.9305  1.3859
  101SAPE  H20S10245   4.073   5.735   6.572 -3.2099  0.8899  3.8330
  101SAPE  H20T10246   4.096   5.868   6.448  0.9083 -1.8190 -0.0971
  101SAPE   C3310247   3.755   5.017   7.651 -0.4833  0.1101  0.2959
  101SAPE   H3X10248   3.713   5.107   7.701 -0.4001  1.2109 -1.5204
  101SAPE   H3Y10249   3.673   4.942   7.655  0.8887 -1.4180  1.0325
  101SAPE   C3410250   3.804   5.050   7.514  0.4276  0.1607 -0.3133
  101SAPE   H4X10251   3.858   4.957   7.486 -1.4552 -1.1995  0.3588
  101SAPE   H4Y10252   3.873   5.137   7.516  0.4032  0.3257 -2.9846
  101SAPE   C3510253   3.691   5.067   7.406 -0.6936 -0.4397 -0.0472
  101SAPE   H5X10254   3.633   5.156   7.438  0.0207  0.2436 -0.6280
  101SAPE   H5Y10255   3.611   4.990   7.410 -1.2615  0.0824 -1.1333
  101SAPE   C3610256   3.742   5.071   7.257 -0.3031 -0.3275  0.6593
  101SAPE   H6X10257   3.844   5.115   7.266 -0.3989 -0.3612  2.1480
  101SAPE   H6Y10258   3.687   5.143   7.193 -0.9238 -0.1323  1.4065
  101SAPE   C3710259   3.733   4.933   7.202  0.6650 -0.6795 -1.0377
  101SAPE   H7X10260   3.628   4.900   7.217 -0.5279  2.4841 -1.4412
  101SAPE   H7Y10261   3.805   4.873   7.261 -0.7080 -0.4573  0.9607
  101SAPE   C3810262   3.772   4.933   7.051 -0.2986 -0.6237 -0.2209
  101SAPE   H8X10263   3.879   4.958   7.043 -0.2577 -1.0699 -1.1554
  101SAPE   H8Y10264   3.715   5.017   7.005  0.7218  1.3117  1.8409
  101SAPE   C3910265   3.755   4.806   6.973  0.1296 -0.3716  0.2339
  101SAPE   H9X10266   3.657   4.754   6.977  1.2799 -2.9062 -1.3482
  101SAPE   H9Y10267   3.829   4.730   7.006 -0.5433 -1.7606 -1.3129
  101SAPE  C31010268   3.764   4.834   6.824 -0.3590 -0.3633 -0.5414
  101SAPE  H10X10269   3.861   4.885   6.807 -0.7460  0.3377 -0.6559
  101SAPE  H10Y10270   3.685   4.903   6.788  0.7747  0.1292 -2.2043
  101SAPE  C31110271   3.745   4.702   6.745  0.1312  0.3536 -0.0176
  101SAPE  H11X10272   3.635   4.694   6.735  0.0500  0.3471  0.8089
  101SAPE  H11Y10273   3.782   4.614   6.801  1.0302  1.5886  1.4473
  101SAPE  C31210274   3.797   4.702   6.607 -0.4185  0.3222  0.1301
  101SAPE  H12X10275   3.903   4.733   6.616 -0.5260  1.0915 -0.9533
  101SAPE  H12Y10276   3.747   4.783   6.549  2.1438  1.7729 -0.2126
  101SAPE  C31310277   3.799   4.560   6.547 -1.2732 -0.9415  0.4282
  101SAPE  H13X10278   3.699   4.510   6.550 -1.2800 -0.9076  0.7350
  101SAPE  H13Y10279   3.868   4.494   6.603  2.7808 -0.7382 -3.6842
  101SAPE  C31410280   3.853   4.552   6.403  0.1764  0.1406 -0.4607
  101SAPE  H14X10281   3.963   4.568   6.402  0.0830  0.8343 -0.0265
  101SAPE  H14Y10282   3.808   4.631   6.339  0.1694  0.7652  0.3052
  101SAPE  C31510283   3.827   4.414   6.339 -0.0048 -0.3586  0.2660
  101SAPE  H15X10284   3.719   4.390   6.345  0.1957 -1.1655  0.9623
  101SAPE  H15Y10285   3.879   4.336   6.400  1.0736 -0.4340 -0.7096
  101SAPE  C31610286   3.880   4.401   6.193 -0.2458  0.1667  0.0209
  101SAPE  H16X10287   3.820   4.480   6.143 -0.8024 -0.9642 -1.1483
  101SAPE  H16Y10288   3.850   4.303   6.150  1.9065 -0.2491 -0.6614
  101SAPE  C31710289   4.032   4.418   6.172 -0.3936  0.8553 -0.5870
  101SAPE  H17X10290   4.072   4.331   6.228 -0.4135  2.1536  1.5625
  101SAPE  H17Y10291   4.076   4.512   6.213  1.5425  0.6034 -1.9456
  101SAPE  C31810292   4.066   4.393   6.024 -0.5736 -1.1716  0.6715
  101SAPE  H18X10293   4.174   4.414   6.006 -0.8646 -1.1545 -1.2462
  101SAPE  H18Y10294   4.006   4.459   5.957  0.6145  0.2290  0.9360
  101SAPE  H18Z10295   4.042   4.290   5.990 -0.0701 -1.5918  1.5457
  102SAPE     N10296   4.578   5.044   8.515  0.0057 -0.1662 -0.3812
  102SAPE   HN110297   4.638   4.997   8.444 -1.1198 -2.1511 -0.0930
  102SAPE   HN210298   4.644   5.087   8.583  3.4220 -0.4984 -3.1725
  102SAPE   HN310299   4.525   4.971   8.567  0.4663 -0.7634 -0.7400
  102SAPE   C1210300   4.471   5.139   8.459 -0.2497  0.1182 -0.3032
  102SAPE  H12A10301   4.453   5.216   8.537  1.1204 -0.9887  1.1771
  102SAPE  H12B10302   4.387   5.067   8.450  0.1438 -0.4190  0.1837
  102SAPE   C1110303   4.511   5.181   8.322 -0.3275  0.5123  0.1020
  102SAPE  H11A10304   4.423   5.239   8.287 -2.1835 -0.8848  2.1929
  102SAPE  H11B10305   4.520   5.097   8.250  1.5990  2.1305 -1.6709
  102SAPE     P10306   4.660   5.400   8.334  0.5100  0.6196 -0.1040
  102SAPE   O1310307   4.660   5.425   8.477 -0.0741  0.0455 -0.9718
  102SAPE   O1410308   4.788   5.418   8.265  0.3484  0.6053 -0.5881
  102SAPE   O1210309   4.634   5.246   8.318  0.3736 -0.5310  0.4051
  102SAPE   O1110310   4.540   5.472   8.260  0.4103 -0.0169 -0.1612
  102SAPE    C110311   4.525   5.447   8.118 -0.6217 -0.2120 -0.3763
  102SAPE    HA10312   4.619   5.474   8.064 -0.6420 -1.8369 -1.2955
  102SAPE    HB10313   4.505   5.341   8.092  2.1687 -0.5462 -1.6242
  102SAPE    C210314   4.425   5.546   8.059  0.3048 -0.3861 -0.2471
  102SAPE    HS10315   4.324   5.518   8.095  0.3369  1.5402  1.5281
  102SAPE   O2110316   4.439   5.550   7.920 -0.6602  0.0647  1.0784
  102SAPE   C2110317   4.373   5.446   7.860 -0.3223  0.2148 -0.4641
  102SAPE   O2210318   4.325   5.352   7.918  0.1857  0.1888  0.0747
  102SAPE   C2210319   4.375   5.453   7.709  0.1509  0.3634  0.6680
  102SAPE   H2R10320   4.366   5.560   7.679  2.0608  0.4494  0.2267
  102SAPE   H2S10321   4.475   5.415   7.677 -0.7395 -0.4524 -1.3034
  102SAPE    C310322   4.442   5.695   8.110  0.4219  0.3375  0.5131
  102SAPE    HX10323   4.544   5.727   8.081  0.1742 -0.6428 -1.6582
  102SAPE    HY10324   4.423   5.693   8.219 -2.4926 -0.0064  0.0889
  102SAPE   O3110325   4.341   5.776   8.054 -0.5482 -0.1095 -0.4002
  102SAPE   C3110326   4.369   5.910   8.052  0.5359  0.3602 -0.0925
  102SAPE   O3210327   4.472   5.961   8.086 -0.1673 -0.1559 -0.5394
  102SAPE   C3210328   4.257   5.987   7.986  0.2279 -0.0363 -0.5073
  102SAPE   H2X10329   4.255   6.092   8.021  1.0546  0.4016 -1.7101
  102SAPE   H2Y10330   4.169   5.929   8.022  0.4518  0.4822  0.9748
  102SAPE   C2310331   4.273   5.353   7.654 -0.6733 -0.9256  0.4568
  102SAPE   H3R10332   4.174   5.372   7.700 -1.4637 -0.4068 -1.3500
  102SAPE   H3S10333   4.302   5.254   7.692  2.8757 -0.8514 -1.6104
  102SAPE   C2410334   4.261   5.335   7.503 -0.5442 -0.1227 -0.3352
  102SAPE   H4R10335   4.189   5.251   7.492 -2.6869  1.8403 -2.6001
  102SAPE   H4S10336   4.364   5.306   7.473 -0.2613  0.0061  0.5068
  102SAPE   C2510337   4.207   5.459   7.441 -0.5133  0.0036  0.7445
  102SAPE   H5R10338   4.237   5.555   7.485 -1.1948 -0.2575  1.8295
  102SAPE   C2610339   4.129   5.472   7.333 -0.3689  0.1937 -0.0782
  102SAPE   H6R10340   4.124   5.574   7.293  3.0466  0.3612 -0.3709
  102SAPE   C2710341   4.066   5.368   7.243  0.3597  0.2016 -0.2488
  102SAPE   H7R10342   3.980   5.412   7.189 -1.0043 -0.5118  1.2630
  102SAPE   H7S10343   4.018   5.298   7.315 -2.7375  0.0750 -2.2623
  102SAPE   C2810344   4.168   5.290   7.165  0.0248  0.7608  0.3444
  102SAPE   H8R10345   4.245   5.237   7.224 -0.3541 -0.3049 -0.1018
  102SAPE   C2910346   4.185   5.288   7.029  0.1817 -0.2919 -0.1634
  102SAPE   H9R10347   4.275   5.238   6.990  1.5988  1.0785  1.1751
  102SAPE  C21010348   4.104   5.358   6.917 -0.2424  0.4018  0.3415
  102SAPE  H10R10349   4.161   5.376   6.823 -0.8160 -1.5046 -0.4244
  102SAPE  H10S10350   4.070   5.459   6.950  0.7383  0.4365  1.3008
  102SAPE  C21110351   3.991   5.252   6.892  0.2810 -0.7351  0.0268
  102SAPE  H11R10352   3.930   5.228   6.980  0.0195 -1.7630 -0.4146
  102SAPE  C21210353   3.975   5.196   6.772 -0.0396  0.2975  0.1106
  102SAPE  H12R10354   3.909   5.109   6.761  2.0442 -1.2519 -0.8900
  102SAPE  C21310355   4.058   5.224   6.643 -0.5876 -0.6016  0.9982
  102SAPE  H13R10356   4.155   5.170   6.654 -1.3239 -2.2970 -0.2457
  102SAPE  H13S10357   4.068   5.334   6.631 -1.5232 -0.4648  1.4007
  102SAPE  C21410358   3.987   5.177   6.522  0.1530  0.3821 -0.1783
  102SAPE  H14R10359   3.892   5.126   6.543  1.2471 -1.4318  0.5713
  102SAPE  C21510360   4.020   5.201   6.393 -0.4295 -0.1209  0.7868
  102SAPE  H15R10361   3.948   5.168   6.316 -0.3149 -0.3424  0.7762
  102SAPE  C21610362   4.140   5.277   6.344  0.8362 -0.3665 -0.3899
  102SAPE  H16R10363   4.180   5.211   6.264  0.4894  1.2874 -1.9932
  102SAPE  H16S10364   4.223   5.290   6.416  2.5122 -1.2681 -2.0578
  102SAPE  C21710365   4.097   5.409   6.284  1.1503  0.2691  0.1256
  102SAPE  H17R10366   4.055   5.477   6.361  1.5294 -0.7890  1.3067
  102SAPE  H17S10367   4.023   5.396   6.202  2.1219 -1.1232 -0.5709
  102SAPE  C21810368   4.208   5.481   6.207  0.7525 -0.2161 -0.4666
  102SAPE  H18R10369   4.226   5.438   6.106  2.4269 -3.5099  1.0544
  102SAPE  H18S10370   4.297   5.472   6.272 -0.7414 -0.0271  1.7098
  102SAPE  C21910371   4.184   5.636   6.191  0.3795  0.2973 -0.4674
  102SAPE  H19R10372   4.260   5.681   6.125 -0.0756  1.3141 -0.3112
  102SAPE  H19S10373   4.204   5.674   6.294 -0.7614  2.4917 -0.9916
  102SAPE  C22010374   4.048   5.671   6.134 -0.1401  0.2452 -0.1974
  102SAPE  H20R10375   4.037   5.606   6.044  2.4438 -2.2866  1.1621
  102SAPE  H20S10376   4.039   5.780   6.112 -1.3608  0.1419 -0.3158
  102SAPE  H20T10377   3.970   5.648   6.209  0.0621  0.8152  0.1903
  102SAPE   C3310378   4.267   5.965   7.836 -0.1153 -0.3962  0.1620
  102SAPE   H3X10379   4.303   5.865   7.803  1.4815  0.7158 -1.7702
  102SAPE   H3Y10380   4.338   6.040   7.794  0.0390 -0.5445  0.1541
  102SAPE   C3410381   4.137   5.991   7.759 -0.2659 -0.4024 -0.4628
  102SAPE   H4X10382   4.100   6.094   7.780 -1.7642 -0.7031 -1.4271
  102SAPE   H4Y10383   4.059   5.924   7.802 -0.6259  0.1816 -0.2006
  102SAPE   C3510384   4.139   5.937   7.614 -0.4722 -0.2635  0.8150
  102SAPE   H5X10385   4.032   5.932   7.584 -0.1571 -1.3605 -0.2053
  102SAPE   H5Y10386   4.164   5.829   7.621  0.5972  0.0345  1.8953
  102SAPE   C3610387   4.225   5.997   7.501 -0.5958  0.6381 -0.2948
  102SAPE   H6X10388   4.327   5.997   7.546 -1.2698  2.8842  1.4268
  102SAPE   H6Y10389   4.199   6.100   7.468 -0.8372  0.1165 -1.8128
  102SAPE   C3710390   4.212   5.917   7.370 -0.0976 -0.3095 -0.1907
  102SAPE   H7X10391   4.208   5.807   7.386  1.8846 -0.2338  1.2441
  102SAPE   H7Y10392   4.304   5.939   7.313  0.5762  2.3485  1.7407
  102SAPE   C3810393   4.087   5.947   7.295  0.5604 -0.8459  0.1897
  102SAPE   H8X10394   4.057   6.051   7.320 -2.1544 -1.2064 -1.1805
  102SAPE   H8Y10395   4.000   5.891   7.336 -1.0403  0.8696 -0.6849
  102SAPE   C3910396   4.103   5.923   7.142  0.2869 -0.2562 -1.0107
  102SAPE   H9X10397   4.002   5.937   7.098  0.4560  0.4405 -1.1906
  102SAPE   H9Y10398   4.134   5.817   7.130 -0.7827 -0.9923  1.8921
  102SAPE  C31010399   4.217   5.994   7.065 -0.8559  0.2692  0.0823
  102SAPE  H10X10400   4.315   5.954   7.098 -1.2291  0.0734  0.9753
  102SAPE  H10Y10401   4.211   6.099   7.103 -0.8759 -0.9239  3.7338
  102SAPE  C31110402   4.200   5.975   6.914  1.0353  0.0938  0.2184
  102SAPE  H11X10403   4.092   5.990   6.895  1.1670 -1.5193 -2.1857
  102SAPE  H11Y10404   4.212   5.868   6.886  0.8147 -0.1349  0.9637
  102SAPE  C31210405   4.280   6.057   6.826  0.0630 -0.7634  0.1718
  102SAPE  H12X10406   4.385   6.020   6.818  0.3399 -0.5657  2.2760
  102SAPE  H12Y10407   4.299   6.157   6.871 -1.3694 -0.1352 -0.5603
  102SAPE  C31310408   4.216   6.073   6.689 -0.5865 -0.4845  0.4424
  102SAPE  H13X10409   4.116   6.122   6.687 -1.0480 -1.3633 -1.9653
  102SAPE  H13Y10410   4.204   5.973   6.642 -0.9592 -0.1391 -0.2224
  102SAPE  C31410411   4.304   6.151   6.593 -0.4861  0.3819  0.8024
  102SAPE  H14X10412   4.341   6.237   6.653 -0.7241  0.0777  1.3898
  102SAPE  H14Y10413   4.239   6.201   6.518  1.7198  0.8805 -0.8708
  102SAPE  C31510414   4.431   6.083   6.538  0.1077  0.5941 -0.0898
  102SAPE  H15X10415   4.489   6.028   6.615 -1.4291  0.0322  0.7226
  102SAPE  H15Y10416   4.480   6.179   6.512 -2.2044  1.6534 -0.8739
  102SAPE  C31610417   4.391   5.989   6.418 -0.1093 -0.3807 -0.5677
  102SAPE  H16X10418   4.307   5.928   6.457 -1.2601  1.6574  0.3017
  102SAPE  H16Y10419   4.468   5.911   6.397 -1.0957 -1.7934  0.7632
  102SAPE  C31710420   4.366   6.071   6.299  0.7089 -0.3026  0.4544
  102SAPE  H17X10421   4.412   6.170   6.317 -0.8662  0.4511  0.5118
  102SAPE  H17Y10422   4.257   6.094   6.292  1.1773  1.8488 -0.6394
  102SAPE  C31810423   4.427   6.019   6.173  0.0397 -0.1818  0.8712
  102SAPE  H18X10424   4.416   6.076   6.079 -0.2433 -1.8758 -0.1736
  102SAPE  H18Y10425   4.405   5.912   6.152  1.6219 -0.1981 -0.9350
  102SAPE  H18Z10426   4.535   6.025   6.199  0.4491  0.3922 -0.8351
  103SAPE     N10427   2.053   0.998   4.468 -0.3175 -0.8015  0.4236
  103SAPE   HN110428   2.112   0.923   4.510  1.7126 -0.8893 -2.3161
  103SAPE   HN210429   2.112   1.053   4.402 -0.1766 -1.1057  0.2947
  103SAPE   HN310430   2.013   1.063   4.539 -0.8027  0.1385 -0.6585
  103SAPE   C1210431   1.956   0.900   4.409  0.2268 -0.5208 -0.0202
  103SAPE  H12A10432   2.005   0.839   4.330  0.8882  0.3302 -0.2881
  103SAPE  H12B10433   1.888   0.967   4.353 -1.5119 -1.5839  0.7329
  103SAPE   C1110434   1.885   0.824   4.519  0.8845  0.0268 -0.1305
  103SAPE  H11A10435   1.812   0.753   4.474  1.6411 -1.5017  0.9714
  103SAPE  H11B10436   1.827   0.898   4.578 -2.0686 -1.3798 -1.0822
  103SAPE     P10437   2.003   0.765   4.748 -0.2550 -0.0211  0.0149
  103SAPE   O1310438   2.111   0.671   4.794  0.8879  0.0934 -0.2659
  103SAPE   O1410439   2.045   0.905   4.762 -0.5194 -0.1765  0.2620
  103SAPE   O1210440   1.972   0.738   4.597  0.6155 -0.2382 -0.4827
  103SAPE   O1110441   1.871   0.733   4.820 -0.1399  0.3334  0.3552
  103SAPE    C110442   1.803   0.613   4.779  0.2122  0.0549 -0.3467
  103SAPE    HA10443   1.746   0.635   4.686 -1.0913  0.7676  0.5927
  103SAPE    HB10444   1.869   0.528   4.750 -0.3287 -0.5478  0.1608
  103SAPE    C210445   1.716   0.547   4.891 -0.3498  0.5438 -0.9844
  103SAPE    HS10446   1.619   0.601   4.890 -1.8247 -1.9688 -0.8417
  103SAPE   O2110447   1.779   0.552   5.016 -0.1626 -0.6985 -0.6740
  103SAPE   C2110448   1.765   0.672   5.082  0.0545  0.4023 -0.0969
  103SAPE   O2210449   1.711   0.770   5.043  0.8361 -0.9858  0.4107
  103SAPE   C2210450   1.841   0.648   5.217  0.3975  0.3732 -0.3822
  103SAPE   H2R10451   1.805   0.545   5.238 -2.9041  1.6801  0.9569
  103SAPE   H2S10452   1.947   0.658   5.184  0.5462 -0.3128 -0.1290
  103SAPE    C310453   1.689   0.403   4.851  0.3000 -0.3231 -0.0565
  103SAPE    HX10454   1.782   0.350   4.821 -0.6358 -1.6499 -0.6945
  103SAPE    HY10455   1.635   0.402   4.754 -0.5136  0.0849  0.3769
  103SAPE   O3110456   1.600   0.338   4.945 -0.0604  0.3080 -0.0040
  103SAPE   C3110457   1.661   0.248   5.029  0.1562  0.2644 -0.4863
  103SAPE   O3210458   1.768   0.199   5.012  0.0449 -0.7303  0.0446
  103SAPE   C3210459   1.572   0.204   5.141 -0.2442 -0.4835  0.6975
  103SAPE   H2X10460   1.593   0.098   5.167 -1.9623 -0.8757  0.6064
  103SAPE   H2Y10461   1.467   0.212   5.105 -0.3627  1.0517  1.2949
  103SAPE   C2310462   1.800   0.751   5.330 -0.1659  0.6658  0.0591
  103SAPE   H3R10463   1.690   0.739   5.345 -0.0308  0.3039  0.8584
  103SAPE   H3S10464   1.821   0.849   5.283  0.1914  0.3182 -0.5161
  103SAPE   C2410465   1.868   0.742   5.472  0.1635  0.7361  0.3130
  103SAPE   H4R10466   1.835   0.829   5.533  0.3888 -0.2515  1.8810
  103SAPE   H4S10467   1.979   0.738   5.462  0.1152  0.1271 -0.0214
  103SAPE   C2510468   1.836   0.615   5.538  0.3451  0.5056  0.4033
  103SAPE   H5R10469   1.884   0.529   5.488 -0.1032  0.1681  0.5473
  103SAPE   C2610470   1.769   0.606   5.655 -0.1882 -0.1790 -0.5648
  103SAPE   H6R10471   1.754   0.509   5.704 -4.0455  0.3411 -0.4147
  103SAPE   C2710472   1.713   0.715   5.744  0.4845 -0.4901 -0.5858
  103SAPE   H7R10473   1.631   0.768   5.691  0.2918  1.5005  1.5635
  103SAPE   H7S10474   1.794   0.785   5.773  0.3156 -0.1719 -0.8654
  103SAPE   C2810475   1.658   0.646   5.869  0.6801  0.1728  0.5698
  103SAPE   H8R10476   1.550   0.625   5.861  0.1552  1.6790  2.8110
  103SAPE   C2910477   1.725   0.604   5.976 -0.4342  0.5077 -0.4092
  103SAPE   H9R10478   1.676   0.552   6.060  0.7310 -0.1949 -0.1476
  103SAPE  C21010479   1.866   0.639   6.009  0.1411 -0.1521  0.3366
  103SAPE  H10R10480   1.929   0.646   5.918 -0.0260 -2.4792 -0.0000
  103SAPE  H10S10481   1.918   0.572   6.080  1.1506  2.2862  2.0611
  103SAPE  C21110482   1.888   0.779   6.060 -0.1887 -1.2173 -0.2329
  103SAPE  H11R10483   1.914   0.856   5.986 -0.3739  0.9917  1.8606
  103SAPE  C21210484   1.859   0.829   6.181 -0.2307 -0.0173 -0.3629
  103SAPE  H12R10485   1.888   0.934   6.198 -1.2024  0.0945  0.7557
  103SAPE  C21310486   1.822   0.753   6.302  0.0591  0.8350  0.7051
  103SAPE  H13R10487   1.815   0.643   6.286  2.2906  1.0867 -3.0966
  103SAPE  H13S10488   1.714   0.777   6.315 -0.8763 -2.2278 -0.3839
  103SAPE  C21410489   1.896   0.787   6.432  0.4948  0.8414  0.2346
  103SAPE  H14R10490   1.966   0.711   6.470 -0.6364 -0.2730  0.1614
  103SAPE  C21510491   1.867   0.896   6.504  0.1743  0.2174  0.7481
  103SAPE  H15R10492   1.923   0.920   6.595  1.8686  1.0368 -0.4733
  103SAPE  C21610493   1.764   0.996   6.450  0.3835 -0.2955 -0.2924
  103SAPE  H16R10494   1.668   0.984   6.504  0.7208  1.6436  0.8171
  103SAPE  H16S10495   1.758   1.001   6.339  1.5104 -0.5061 -0.3754
  103SAPE  C21710496   1.814   1.142   6.491 -0.3835  0.8011 -0.9636
  103SAPE  H17R10497   1.925   1.148   6.485 -0.3985  0.9085 -1.1267
  103SAPE  H17S10498   1.794   1.155   6.600 -2.4087 -0.0516 -1.2014
  103SAPE  C21810499   1.780   1.267   6.407 -0.8955 -0.0641 -0.0937
  103SAPE  H18R10500   1.846   1.352   6.433 -1.7557  0.4551  0.4486
  103SAPE  H18S10501   1.672   1.285   6.428 -0.2539  1.3666  2.3467
  103SAPE  C21910502   1.815   1.248   6.258  0.1079  0.2901 -0.1829
  103SAPE  H19R10503   1.749   1.172   6.210 -0.6787  1.7033 -1.4341
  103SAPE  H19S10504   1.919   1.211   6.256 -0.7688 -2.4098 -1.1038
  103SAPE  C22010505   1.816   1.372   6.170 -0.0798  0.3070  0.2908
  103SAPE  H20R10506   1.713   1.394   6.134 -0.7533 -2.6967  0.1115
  103SAPE  H20S10507   1.877   1.358   6.079 -1.0564  0.3312 -0.3832
  103SAPE  H20T10508   1.865   1.452   6.228  1.6331 -0.2090 -0.3967
  103SAPE   C3310509   1.589   0.300   5.254  0.6967 -0.2164 -1.0271
  103SAPE   H3X10510   1.569   0.402   5.216 -0.7542  0.3405  1.0350
  103SAPE   H3Y10511   1.684   0.310   5.310  0.0165  1.2420 -0.0742
  103SAPE   C3410512   1.483   0.274   5.366 -0.9718 -0.2211 -0.5251
  103SAPE   H4X10513   1.443   0.171   5.375 -0.7058 -0.2016  1.1832
  103SAPE   H4Y10514   1.389   0.331   5.348 -0.9922  0.4161  1.3226
  103SAPE   C3510515   1.528   0.307   5.506 -0.0710 -0.5292  0.7232
  103SAPE   H5X10516   1.545   0.417   5.514  0.9281 -0.8205  4.2357
  103SAPE   H5Y10517   1.621   0.248   5.522  1.5861  1.6194 -0.4172
  103SAPE   C3610518   1.432   0.268   5.621  0.0918  0.0982 -0.1405
  103SAPE   H6X10519   1.419   0.158   5.630 -0.5085  0.2745  1.4626
  103SAPE   H6Y10520   1.336   0.321   5.603  0.5308  0.3478 -1.9306
  103SAPE   C3710521   1.492   0.315   5.753  0.5582 -0.5598  0.1337
  103SAPE   H7X10522   1.491   0.426   5.750 -0.5661 -0.5888 -1.8588
  103SAPE   H7Y10523   1.597   0.289   5.775  0.2791 -1.6249  0.2459
  103SAPE   C3810524   1.407   0.283   5.877 -0.4162 -1.2391 -0.3994
  103SAPE   H8X10525   1.388   0.173   5.875  1.5130 -1.6336  0.0826
  103SAPE   H8Y10526   1.309   0.335   5.878  0.9550  1.4971  0.4890
  103SAPE   C3910527   1.476   0.327   6.005 -0.2388 -0.6325  0.1312
  103SAPE   H9X10528   1.449   0.434   6.012 -1.5871 -0.6735 -2.9568
  103SAPE   H9Y10529   1.587   0.330   5.995 -0.3964 -1.0322 -2.4250
  103SAPE  C31010530   1.430   0.242   6.123 -0.1295 -0.0103  0.0081
  103SAPE  H10X10531   1.466   0.139   6.101  1.8142  0.4790  0.7644
  103SAPE  H10Y10532   1.319   0.251   6.123 -0.2515 -1.2820  1.1055
  103SAPE  C31110533   1.479   0.288   6.265 -0.2979  0.7479 -0.1171
  103SAPE  H11X10534   1.433   0.237   6.353  1.1644 -0.6175 -0.1042
  103SAPE  H11Y10535   1.467   0.397   6.281  0.2803  0.5001  2.4395
  103SAPE  C31210536   1.635   0.263   6.266  0.6032 -0.3560  0.1879
  103SAPE  H12X10537   1.687   0.330   6.194 -0.9626 -1.9048 -2.5628
  103SAPE  H12Y10538   1.656   0.159   6.233  3.2278 -0.8140  2.8719
  103SAPE  C31310539   1.702   0.276   6.405  0.3219  0.8243 -0.6233
  103SAPE  H13X10540   1.810   0.254   6.390  0.4665  0.8832  0.2585
  103SAPE  H13Y10541   1.655   0.203   6.474  0.8318  0.6909 -0.4149
  103SAPE  C31410542   1.677   0.411   6.468 -0.7997  0.0677  0.7645
  103SAPE  H14X10543   1.570   0.433   6.489 -1.6176 -1.0864 -1.8123
  103SAPE  H14Y10544   1.710   0.485   6.393 -0.8170 -1.3197 -0.6652
  103SAPE  C31510545   1.760   0.429   6.603  0.3447 -0.3256 -0.4989
  103SAPE  H15X10546   1.866   0.423   6.570  1.0308  0.1902  1.4405
  103SAPE  H15Y10547   1.731   0.345   6.669 -3.3156  1.1076 -0.0501
  103SAPE  C31610548   1.744   0.561   6.686 -0.9740  0.2680  0.4230
  103SAPE  H16X10549   1.663   0.535   6.757 -2.5647  2.2895 -0.5409
  103SAPE  H16Y10550   1.719   0.646   6.619 -0.8541  1.3433  1.6972
  103SAPE  C31710551   1.869   0.593   6.769  0.5471 -0.3186 -0.8200
  103SAPE  H17X10552   1.859   0.688   6.827  1.1489 -1.5768  1.4238
  103SAPE  H17Y10553   1.958   0.618   6.707  0.6465  0.3212 -0.4257
  103SAPE  C31810554   1.907   0.496   6.888  0.0060 -0.0042  0.0077
  103SAPE  H18X10555   1.924   0.393   6.849  2.3854  0.3550 -0.0763
  103SAPE  H18Y10556   1.823   0.477   6.958 -0.2475 -0.4461 -0.4118
  103SAPE  H18Z10557   2.007   0.527   6.924 -0.1774  1.9119 -1.0220
  104SAPE     N10558   3.578   0.252   4.085  0.4294  0.5514 -0.4288
  104SAPE   HN110559   3.668   0.285   4.043 -0.4856  2.0425 -1.3063
  104SAPE   HN210560   3.581   0.283   4.184 -0.9051  1.0162 -0.5179
  104SAPE   HN310561   3.570   0.152   4.058 -3.7830  1.5598 -3.9948
  104SAPE   C1210562   3.451   0.318   4.030 -0.1271 -0.1050 -0.5411
  104SAPE  H12A10563   3.415   0.276   3.933 -0.9489 -1.6940  0.4007
  104SAPE  H12B10564   3.471   0.426   4.010 -3.3143  0.6745 -0.0918
  104SAPE   C1110565   3.335   0.296   4.136  0.0505 -0.3615  0.8029
  104SAPE  H11A10566   3.359   0.342   4.234 -0.4417 -1.2996  1.3812
  104SAPE  H11B10567   3.314   0.189   4.157  0.7952 -0.4416  1.1867
  104SAPE     P10568   3.186   0.508   4.066  0.5566 -0.5202 -0.0495
  104SAPE   O1310569   3.300   0.581   4.008  0.8904 -0.5183  0.2804
  104SAPE   O1410570   3.054   0.510   3.999  0.0809  0.1069 -0.2481
  104SAPE   O1210571   3.218   0.358   4.077  0.5945  0.6119 -0.3073
  104SAPE   O1110572   3.181   0.564   4.209  0.5358 -0.1285 -0.2540
  104SAPE    C110573   3.120   0.492   4.323  0.8112  0.3922 -0.9598
  104SAPE    HA10574   3.010   0.506   4.323  0.8710  0.9767 -0.0855
  104SAPE    HB10575   3.143   0.385   4.307  0.6005  0.0138  0.9426
  104SAPE    C210576   3.180   0.537   4.466  0.0719  0.1869 -0.3404
  104SAPE    HS10577   3.136   0.461   4.534  1.1676 -0.5999 -0.4807
  104SAPE   O2110578   3.139   0.666   4.510 -0.3679  0.1545  0.1275
  104SAPE   C2110579   3.012   0.668   4.551 -0.3123 -0.0615 -0.5561
  104SAPE   O2210580   2.932   0.580   4.544 -0.1300 -0.3212  0.3737
  104SAPE   C2210581   2.979   0.812   4.607  0.1016 -0.1675  0.1476
  104SAPE   H2R10582   3.002   0.892   4.533  0.0877  0.3165  0.6641
  104SAPE   H2S10583   2.869   0.808   4.622 -0.3361 -3.6971 -2.5701
  104SAPE    C310584   3.334   0.530   4.457 -0.4068  0.6174  0.8595
  104SAPE    HX10585   3.371   0.581   4.365  0.9307 -0.0244  1.0160
  104SAPE    HY10586   3.343   0.420   4.450  0.9912  0.8199 -2.2596
  104SAPE   O3110587   3.399   0.567   4.583  0.5968 -0.0915 -0.4767
  104SAPE   C3110588   3.468   0.689   4.590 -0.1637  0.7461  0.0632
  104SAPE   O3210589   3.473   0.765   4.494 -0.1593 -0.1561 -0.5843
  104SAPE   C3210590   3.540   0.712   4.723 -0.2074 -0.8197  0.0164
  104SAPE   H2X10591   3.568   0.618   4.776 -0.0736 -0.2593  0.9751
  104SAPE   H2Y10592   3.458   0.752   4.785 -2.0798 -3.5343 -0.5312
  104SAPE   C2310593   3.057   0.835   4.736  0.1751 -0.4461 -0.3619
  104SAPE   H3R10594   3.067   0.944   4.755  1.1277 -0.6691  0.5512
  104SAPE   H3S10595   3.163   0.803   4.744 -0.2641 -2.0609 -0.6722
  104SAPE   C2410596   2.980   0.771   4.855  0.7574  0.0703 -0.1309
  104SAPE   H4R10597   2.964   0.663   4.833 -1.1279  0.3614 -0.4025
  104SAPE   H4S10598   2.875   0.808   4.855  0.3670 -1.0067  0.1045
  104SAPE   C2510599   3.055   0.782   4.984 -0.0555 -0.1237 -0.3223
  104SAPE   H5R10600   3.024   0.871   5.041 -0.0661  0.3362 -1.0349
  104SAPE   C2610601   3.134   0.691   5.041 -0.1032  1.0867  0.4647
  104SAPE   H6R10602   3.185   0.723   5.133  1.1771  0.9850 -0.1921
  104SAPE   C2710603   3.175   0.553   4.992 -0.0100  0.5954 -0.5342
  104SAPE   H7R10604   3.121   0.520   4.900 -0.5553 -1.5887  0.5071
  104SAPE   H7S10605   3.129   0.491   5.072  0.6080  2.2609  1.1887
  104SAPE   C2810606   3.320   0.505   4.982 -0.4278  0.2723  0.2734
  104SAPE   H8R10607   3.353   0.459   4.887  1.6543  1.3594  0.4247
  104SAPE   C2910608   3.401   0.497   5.090 -0.4335  0.6185 -0.1758
  104SAPE   H9R10609   3.499   0.449   5.077 -0.7176  0.3784 -1.5672
  104SAPE  C21010610   3.381   0.546   5.226 -0.8098  0.0104  0.0302
  104SAPE  H10R10611   3.421   0.465   5.292  0.6847  0.0198 -0.8266
  104SAPE  H10S10612   3.274   0.559   5.252 -1.1465 -4.3859  1.8990
  104SAPE  C21110613   3.447   0.679   5.260  0.4213 -0.3139 -0.1772
  104SAPE  H11R10614   3.499   0.726   5.175 -2.2445  1.6129 -0.8701
  104SAPE  C21210615   3.460   0.748   5.375  0.0830  0.3607  0.1124
  104SAPE  H12R10616   3.516   0.841   5.359 -1.0997  1.2350  0.8814
  104SAPE  C21310617   3.405   0.721   5.512 -0.0431  0.5748 -0.3975
  104SAPE  H13R10618   3.437   0.793   5.591 -0.7813 -0.6739  1.0979
  104SAPE  H13S10619   3.440   0.625   5.556  0.4799  0.5416 -0.8789
  104SAPE  C21410620   3.248   0.719   5.509  0.0241  0.6300  0.0462
  104SAPE  H14R10621   3.204   0.761   5.418 -0.0993  1.4774  0.4891
  104SAPE  C21510622   3.158   0.681   5.600  0.0204 -0.5277 -0.0643
  104SAPE  H15R10623   3.051   0.696   5.580  0.0059  2.1129  1.5078
  104SAPE  C21610624   3.182   0.627   5.740 -0.0994  0.1478  0.2675
  104SAPE  H16R10625   3.130   0.688   5.816 -0.3147  0.1850  0.0895
  104SAPE  H16S10626   3.289   0.623   5.769 -0.1535 -0.2117  0.4251
  104SAPE  C21710627   3.126   0.491   5.753 -0.2901 -0.0176  0.2863
  104SAPE  H17R10628   3.188   0.414   5.704 -2.1044 -0.1715 -1.9640
  104SAPE  H17S10629   3.028   0.475   5.703  0.5442  0.7183 -1.7119
  104SAPE  C21810630   3.084   0.460   5.900  0.9156  0.1494  0.0849
  104SAPE  H18R10631   3.027   0.364   5.900 -1.2073  1.3508 -1.1033
  104SAPE  H18S10632   3.018   0.540   5.938  0.7111  0.4894 -0.9711
  104SAPE  C21910633   3.203   0.447   5.996  0.2692  0.3684  0.0568
  104SAPE  H19R10634   3.272   0.527   5.962  0.6816  0.3845  0.9050
  104SAPE  H19S10635   3.261   0.356   5.968 -0.8680 -0.0523 -1.0055
  104SAPE  C22010636   3.169   0.452   6.140 -0.5400  0.0956  0.3292
  104SAPE  H20R10637   3.262   0.440   6.200 -1.3256  2.9190  2.2670
  104SAPE  H20S10638   3.102   0.367   6.165  0.0916 -0.5611 -0.1432
  104SAPE  H20T10639   3.122   0.549   6.165 -0.6537  0.0461  0.3079
  104SAPE   C3310640   3.656   0.806   4.688 -0.1545  0.4805 -0.4756
  104SAPE   H3X10641   3.621   0.901   4.642 -3.1412 -0.7704 -1.0107
  104SAPE   H3Y10642   3.735   0.770   4.618  0.5687  1.5490 -0.2213
  104SAPE   C3410643   3.735   0.848   4.819 -0.0765 -0.1352  0.8437
  104SAPE   H4X10644   3.671   0.921   4.873 -1.3839 -1.4114  1.1000
  104SAPE   H4Y10645   3.823   0.910   4.794 -0.9905  0.8738  0.0674
  104SAPE   C3510646   3.766   0.739   4.920  0.8773  0.6114  0.1474
  104SAPE   H5X10647   3.823   0.663   4.862 -0.3133  0.1647 -0.4611
  104SAPE   H5Y10648   3.677   0.686   4.961  1.2926  0.2218  0.5654
  104SAPE   C3610649   3.863   0.777   5.034  0.0983  0.1407  0.3479
  104SAPE   H6X10650   3.946   0.836   4.992  0.6186 -0.7449  0.1026
  104SAPE   H6Y10651   3.904   0.686   5.083  2.9677  1.1900  0.0434
  104SAPE   C3710652   3.791   0.862   5.133  0.2984  0.1065  0.3016
  104SAPE   H7X10653   3.718   0.800   5.188  0.2916  1.7453  2.2612
  104SAPE   H7Y10654   3.752   0.948   5.075  3.1126  0.6252 -0.9837
  104SAPE   C3810655   3.889   0.911   5.239  0.3986 -0.7569  0.1040
  104SAPE   H8X10656   3.834   0.992   5.291 -0.6388 -1.5568  0.2862
  104SAPE   H8Y10657   3.980   0.956   5.194 -0.9350  2.0042 -0.0323
  104SAPE   C3910658   3.931   0.799   5.337  0.6018 -0.3934 -0.3191
  104SAPE   H9X10659   3.994   0.728   5.279 -1.2511 -3.8877  1.6139
  104SAPE   H9Y10660   3.848   0.731   5.368 -1.4190  0.7755 -2.7523
  104SAPE  C31010661   4.009   0.848   5.456 -1.3245 -0.3249  0.3362
  104SAPE  H10X10662   4.067   0.937   5.424 -0.3879 -0.7838  0.7192
  104SAPE  H10Y10663   4.097   0.782   5.473 -1.3728 -0.5806 -0.3519
  104SAPE  C31110664   3.931   0.868   5.588 -0.1470  0.6944  0.9089
  104SAPE  H11X10665   3.917   0.772   5.642 -1.4930  0.3682  0.0214
  104SAPE  H11Y10666   3.830   0.904   5.563  0.3517  0.2480 -2.0823
  104SAPE  C31210667   3.996   0.969   5.682 -0.0907 -0.4653  0.0714
  104SAPE  H12X10668   3.973   1.075   5.657  0.4736  0.2312  2.2838
  104SAPE  H12Y10669   4.107   0.960   5.676 -0.1958 -1.0704 -1.3729
  104SAPE  C31310670   3.971   0.954   5.830 -0.5309  0.0485  0.2621
  104SAPE  H13X10671   3.862   0.957   5.855 -0.7029 -0.9531 -0.3344
  104SAPE  H13Y10672   4.016   1.032   5.896 -1.3285 -0.5126  1.5279
  104SAPE  C31410673   4.029   0.819   5.886  0.2887  0.2952 -0.0622
  104SAPE  H14X10674   4.140   0.818   5.890  0.2678 -0.5918  0.6673
  104SAPE  H14Y10675   4.001   0.733   5.822 -2.9615  1.5034 -0.4547
  104SAPE  C31510676   3.978   0.786   6.026  0.0302 -0.2885  0.5673
  104SAPE  H15X10677   3.876   0.743   6.017 -0.3292  0.8100 -1.0050
  104SAPE  H15Y10678   3.971   0.884   6.077  0.3828  0.6874 -1.2075
  104SAPE  C31610679   4.069   0.695   6.111  0.1058 -0.0469  0.3971
  104SAPE  H16X10680   4.173   0.731   6.105  1.4366 -3.5183  0.1790
  104SAPE  H16Y10681   4.073   0.599   6.054  4.0167 -0.1949  0.6660
  104SAPE  C31710682   4.021   0.675   6.253 -0.5523  0.2437 -0.4859
  104SAPE  H17X10683   4.090   0.597   6.291 -0.7426  0.7482  0.9633
  104SAPE  H17Y10684   3.914   0.647   6.251 -0.1709 -1.2680 -0.3785
  104SAPE  C31810685   4.022   0.795   6.349  0.3086  0.1967  0.2829
  104SAPE  H18X10686   3.980   0.752   6.443  0.0556 -0.1719  0.0037
  104SAPE  H18Y10687   3.951   0.873   6.313  2.2141  1.9910  0.2049
  104SAPE  H18Z10688   4.122   0.839   6.369  0.6037 -0.2824 -0.1317
  105SAPE     N10689   6.640   4.222   3.799  0.0460  0.0626  0.0482
  105SAPE   HN110690   6.676   4.287   3.872  1.4094 -1.1629  0.5149
  105SAPE   HN210691   6.591   4.284   3.731 -1.7676 -0.9516  0.3525
  105SAPE   HN310692   6.572   4.156   3.841  0.4096 -0.2157  0.2025
  105SAPE   C1210693   6.752   4.146   3.739 -0.1038 -0.7122 -0.4100
  105SAPE  H12A10694   6.831   4.222   3.723 -0.1017 -0.1699  1.7628
  105SAPE  H12B10695   6.715   4.101   3.644 -0.2585 -1.0296 -0.2033
  105SAPE   C1110696   6.804   4.041   3.847  0.4626 -0.4623 -0.2616
  105SAPE  H11A10697   6.846   4.096   3.934 -1.1249  1.0116 -0.3742
  105SAPE  H11B10698   6.895   3.993   3.806  0.4719 -1.1454  0.5436
  105SAPE     P10699   6.730   3.793   3.902  0.3501  0.4888  0.3642
  105SAPE   O1310700   6.616   3.720   3.967 -0.3064 -0.2507  0.3976
  105SAPE   O1410701   6.765   3.761   3.757  0.5083 -0.1612 -0.3125
  105SAPE   O1210702   6.703   3.955   3.903 -0.4341 -0.4166 -0.0420
  105SAPE   O1110703   6.862   3.776   3.973  0.7050  0.3033  0.0752
  105SAPE    C110704   6.869   3.697   4.094  0.1723  0.4809 -0.5406
  105SAPE    HA10705   6.812   3.603   4.075  3.2456 -1.7742  0.5566
  105SAPE    HB10706   6.978   3.678   4.100  0.3249  1.4343 -0.1410
  105SAPE    C210707   6.809   3.773   4.222 -0.0654 -0.2440  0.5429
  105SAPE    HS10708   6.700   3.772   4.201  0.3750  0.6423 -2.1441
  105SAPE   O2110709   6.864   3.910   4.217 -0.2353 -0.1127 -0.1494
  105SAPE   C2110710   6.781   3.996   4.274  0.0593  0.6982  0.2220
  105SAPE   O2210711   6.668   3.973   4.318 -0.2615 -0.5559  0.2691
  105SAPE   C2210712   6.844   4.133   4.271 -0.6684 -0.5138 -0.3586
  105SAPE   H2R10713   6.938   4.122   4.213 -0.7033  0.2922 -0.5804
  105SAPE   H2S10714   6.777   4.206   4.222 -0.7079 -0.8574 -0.8250
  105SAPE    C310715   6.829   3.700   4.355 -0.6890  0.3129 -0.2341
  105SAPE    HX10716   6.931   3.657   4.357 -0.3296  1.0204 -1.8551
  105SAPE    HY10717   6.757   3.617   4.368  0.6272 -0.6385  1.2320
  105SAPE   O3110718   6.818   3.789   4.466 -0.3956 -1.3776  0.3840
  105SAPE   C3110719   6.704   3.801   4.532 -0.2032 -0.2098 -0.0145
  105SAPE   O3210720   6.601   3.744   4.497 -0.8248  0.2816 -0.4495
  105SAPE   C3210721   6.727   3.897   4.653 -0.8064  0.0341  0.6523
  105SAPE   H2X10722   6.716   4.003   4.619 -1.6721 -0.5503 -1.0064
  105SAPE   H2Y10723   6.826   3.880   4.700 -0.6886 -0.2782  0.2942
  105SAPE   C2310724   6.887   4.194   4.406  0.4104 -0.0859  0.0452
  105SAPE   H3R10725   6.807   4.192   4.483  0.7968 -2.8918  0.5032
  105SAPE   H3S10726   6.931   4.296   4.399  3.9481 -1.4647  0.0347
  105SAPE   C2410727   7.000   4.111   4.477  0.7967  0.2538  0.0406
  105SAPE   H4R10728   6.975   4.003   4.471  3.0282 -0.5282  3.0966
  105SAPE   H4S10729   6.980   4.145   4.581 -2.7921  2.6126 -1.1838
  105SAPE   C2510730   7.144   4.137   4.426  1.0595  0.4354  0.5591
  105SAPE   H5R10731   7.164   4.111   4.321 -0.7997  1.7010 -0.1487
  105SAPE   C2610732   7.243   4.188   4.508  0.0143 -0.5153 -1.1745
  105SAPE   H6R10733   7.345   4.199   4.467  0.5381 -1.1847 -0.1187
  105SAPE   C2710734   7.230   4.227   4.654  0.4480 -0.1412  0.3385
  105SAPE   H7R10735   7.276   4.146   4.714  0.3174 -0.1738  0.3941
  105SAPE   H7S10736   7.126   4.242   4.691  0.7501 -1.6670  1.9404
  105SAPE   C2810737   7.298   4.353   4.693  0.6845  0.1527  0.1799
  105SAPE   H8R10738   7.290   4.432   4.617  1.8086  0.7424  0.6512
  105SAPE   C2910739   7.363   4.382   4.810  0.2643 -0.1292  0.8602
  105SAPE   H9R10740   7.400   4.484   4.831 -0.0201 -0.3360  2.4947
  105SAPE  C21010741   7.390   4.306   4.932  0.4679  0.8634 -0.5228
  105SAPE  H10R10742   7.301   4.242   4.949  0.9165 -0.7453 -3.4800
  105SAPE  H10S10743   7.398   4.379   5.015  1.1005 -0.7459  0.8717
  105SAPE  C21110744   7.519   4.227   4.928  1.0578  0.1908 -0.1593
  105SAPE  H11R10745   7.549   4.180   4.833  1.9002 -1.7613  1.0064
  105SAPE  C21210746   7.609   4.219   5.027 -0.6162 -0.5515 -0.4926
  105SAPE  H12R10747   7.701   4.159   5.022 -0.6660 -0.8464  1.2331
  105SAPE  C21310748   7.596   4.290   5.163 -0.1397 -0.6776 -0.8183
  105SAPE  H13R10749   7.492   4.275   5.199  1.1633 -0.0664  3.7132
  105SAPE  H13S10750   7.619   4.399   5.154 -2.4799 -0.1616 -1.4003
  105SAPE  C21410751   7.694   4.248   5.264 -0.2962  0.7120  0.2852
  105SAPE  H14R10752   7.799   4.270   5.239 -0.7876  1.8976 -0.8280
  105SAPE  C21510753   7.670   4.183   5.381 -0.8186 -0.3015 -0.3937
  105SAPE  H15R10754   7.757   4.138   5.431 -1.3930 -0.7156  0.2502
  105SAPE  C21610755   7.543   4.144   5.443  0.1695 -0.0539 -0.1764
  105SAPE  H16R10756   7.545   4.033   5.450  1.3934 -0.1654 -1.7534
  105SAPE  H16S10757   7.469   4.159   5.361  2.9077  2.0736 -2.4397
  105SAPE  C21710758   7.508   4.220   5.576  0.0384  0.0065 -0.2528
  105SAPE  H17R10759   7.560   4.181   5.667  1.4602  0.2520 -0.9290
  105SAPE  H17S10760   7.400   4.201   5.593 -0.3402  1.1425 -1.2142
  105SAPE  C21810761   7.520   4.372   5.569  0.0127  0.0003 -0.4824
  105SAPE  H18R10762   7.451   4.408   5.490 -0.8208 -2.8861 -1.2009
  105SAPE  H18S10763   7.618   4.402   5.525  0.3175 -0.2405  0.0248
  105SAPE  C21910764   7.487   4.436   5.701 -0.7924 -0.5134  0.3834
  105SAPE  H19R10765   7.576   4.416   5.764 -0.1827  0.5375 -0.1108
  105SAPE  H19S10766   7.393   4.391   5.741  0.3747 -0.3035  3.6559
  105SAPE  C22010767   7.468   4.589   5.697 -0.2545 -0.0587 -0.0100
  105SAPE  H20R10768   7.388   4.615   5.625  1.4132  0.5741 -1.7008
  105SAPE  H20S10769   7.563   4.643   5.680  1.2143 -2.6739 -0.8037
  105SAPE  H20T10770   7.424   4.616   5.796 -0.0585  0.5236 -0.0839
  105SAPE   C3310771   6.623   3.876   4.770 -0.0505 -0.7153  0.5237
  105SAPE   H3X10772   6.602   3.769   4.789  3.0858 -1.5785 -0.3831
  105SAPE   H3Y10773   6.525   3.904   4.724 -0.0198 -0.8776  0.3596
  105SAPE   C3410774   6.664   3.948   4.894  0.6087 -0.0886 -0.1546
  105SAPE   H4X10775   6.671   4.057   4.875  0.4635 -0.2772 -1.3738
  105SAPE   H4Y10776   6.770   3.925   4.917  1.3730  0.4669 -2.7873
  105SAPE   C3510777   6.578   3.906   5.011 -0.0046  0.3934 -0.0516
  105SAPE   H5X10778   6.573   3.795   5.006  2.0620  0.2642 -0.1933
  105SAPE   H5Y10779   6.474   3.936   4.987 -0.0218  0.3822  0.0098
  105SAPE   C3610780   6.628   3.965   5.145 -0.0164  0.0685 -0.2916
  105SAPE   H6X10781   6.666   4.069   5.145  0.1116  0.0229 -0.1226
  105SAPE   H6Y10782   6.722   3.911   5.170 -1.7731 -2.0040  2.4870
  105SAPE   C3710783   6.538   3.924   5.262  0.1301  0.2429 -0.8384
  105SAPE   H7X10784   6.535   3.814   5.252  1.3885  0.2562 -1.5997
  105SAPE   H7Y10785   6.435   3.962   5.245 -0.6750 -0.2246  2.3178
  105SAPE   C3810786   6.586   3.994   5.390 -0.3073  0.0222 -0.1500
  105SAPE   H8X10787   6.595   4.102   5.368 -2.6263  0.5055  1.0088
  105SAPE   H8Y10788   6.687   3.965   5.426 -0.9236 -2.5202 -0.2869
  105SAPE   C3910789   6.496   3.978   5.513 -0.2301 -1.0140  0.9554
  105SAPE   H9X10790   6.561   3.956   5.600 -0.5482  1.5970  1.9316
  105SAPE   H9Y10791   6.422   3.897   5.494 -2.5955  1.3145 -0.4230
  105SAPE  C31010792   6.426   4.106   5.544  0.5047 -0.4193 -0.0962
  105SAPE  H10X10793   6.379   4.148   5.453 -0.5323 -0.6561  0.3213
  105SAPE  H10Y10794   6.505   4.182   5.565  0.3561  1.2029 -4.3631
  105SAPE  C31110795   6.307   4.088   5.651 -0.2349 -0.3057 -0.5561
  105SAPE  H11X10796   6.357   4.074   5.749 -1.1022 -0.3459 -0.1110
  105SAPE  H11Y10797   6.254   3.994   5.621 -0.8306  0.1933 -1.1003
  105SAPE  C31210798   6.185   4.188   5.661 -0.7786  0.0886 -0.0550
  105SAPE  H12X10799   6.138   4.197   5.561 -0.4844  1.1474 -0.1117
  105SAPE  H12Y10800   6.227   4.290   5.668 -2.0152  0.5573  0.9046
  105SAPE  C31310801   6.065   4.153   5.764 -0.3089  0.5056  0.0560
  105SAPE  H13X10802   6.021   4.054   5.742 -1.3660  1.2234 -1.2482
  105SAPE  H13Y10803   5.975   4.214   5.742 -1.7120 -0.4259  2.8142
  105SAPE  C31410804   6.106   4.150   5.912 -0.2841  0.2805  0.1309
  105SAPE  H14X10805   6.183   4.230   5.920  1.6011 -0.6152 -4.9640
  105SAPE  H14Y10806   6.160   4.057   5.941 -2.0804 -1.3917 -1.5436
  105SAPE  C31510807   5.995   4.176   6.012  0.1308  0.2875 -0.7307
  105SAPE  H15X10808   5.968   4.283   6.011  0.0263  0.2820  0.3082
  105SAPE  H15Y10809   6.045   4.153   6.109  0.6421  2.0362 -0.5465
  105SAPE  C31610810   5.865   4.093   5.988 -0.5768  0.1106  0.0778
  105SAPE  H16X10811   5.889   3.985   5.999  0.6963  0.2828 -0.7635
  105SAPE  H16Y10812   5.830   4.117   5.886 -0.1589  0.5359  0.0282
  105SAPE  C31710813   5.746   4.130   6.077  0.1198 -0.4598 -0.3091
  105SAPE  H17X10814   5.714   4.235   6.064  2.0382  0.3410  0.9816
  105SAPE  H17Y10815   5.769   4.119   6.185  0.8888  0.2300 -0.3967
  105SAPE  C31810816   5.637   4.030   6.034  0.8077 -0.4094  0.0710
  105SAPE  H18X10817   5.622   4.022   5.924 -0.2252 -1.5144  0.2601
  105SAPE  H18Y10818   5.537   4.043   6.082  0.3945  0.7973 -1.0757
  105SAPE  H18Z10819   5.662   3.924   6.055 -0.5392 -1.9176 -4.6862
  106SAPE     N10820   4.851   6.394   3.431  0.4922  0.1840 -0.5930
  106SAPE   HN110821   4.892   6.350   3.516 -0.5200 -0.1044 -0.2479
  106SAPE   HN210822   4.924   6.410   3.359 -2.0899 -1.0043 -3.6793
  106SAPE   HN310823   4.793   6.472   3.468 -1.6645 -0.6895 -1.9991
  106SAPE   C1210824   4.754   6.299   3.379 -0.3678  0.0403 -0.3208
  106SAPE  H12A10825   4.819   6.226   3.326  0.3450 -2.2561  3.3344
  106SAPE  H12B10826   4.685   6.347   3.306  0.0697  1.5429  0.2242
  106SAPE   C1110827   4.678   6.219   3.488  0.1772  0.4017  0.5490
  106SAPE  H11A10828   4.613   6.145   3.435 -1.7507  2.2454  0.2331
  106SAPE  H11B10829   4.617   6.297   3.536 -0.6246 -0.5436  1.1121
  106SAPE     P10830   4.779   6.195   3.723  0.0404 -0.2778 -0.2488
  106SAPE   O1310831   4.851   6.086   3.793 -0.4005  0.0869 -0.0669
  106SAPE   O1410832   4.828   6.333   3.742 -0.1031 -0.2806 -0.5133
  106SAPE   O1210833   4.776   6.161   3.573  0.0380 -0.0384 -0.5565
  106SAPE   O1110834   4.625   6.194   3.763  0.3667  0.1709  0.3335
  106SAPE    C110835   4.559   6.324   3.784 -0.0581 -1.1224  0.4145
  106SAPE    HA10836   4.589   6.399   3.708 -1.8360 -0.2973  0.4893
  106SAPE    HB10837   4.453   6.303   3.760 -0.0118 -0.5059 -0.3894
  106SAPE    C210838   4.583   6.379   3.925 -0.2466  0.2121 -0.4824
  106SAPE    HS10839   4.688   6.410   3.941 -0.3969  0.5121 -0.0604
  106SAPE   O2110840   4.540   6.280   4.022 -0.1395 -0.3268  0.2950
  106SAPE   C2110841   4.630   6.219   4.091 -0.4140 -0.7555  0.4369
  106SAPE   O2210842   4.749   6.243   4.089 -0.5733  0.4202 -0.4629
  106SAPE   C2210843   4.572   6.101   4.166  0.4924 -0.2519 -0.3924
  106SAPE   H2R10844   4.476   6.129   4.214  1.4240  0.8802  0.9018
  106SAPE   H2S10845   4.551   6.017   4.097  0.2185 -0.0760 -0.5263
  106SAPE    C310846   4.504   6.501   3.944  0.1739 -0.5941  0.2783
  106SAPE    HX10847   4.398   6.469   3.945  0.1660 -0.5682  0.8105
  106SAPE    HY10848   4.513   6.576   3.863  1.6677  1.8751  2.5583
  106SAPE   O3110849   4.551   6.564   4.065  0.0370 -0.0937  0.4993
  106SAPE   C3110850   4.479   6.538   4.178  0.1636  0.0183 -1.2392
  106SAPE   O3210851   4.384   6.467   4.190  0.0864 -0.0542  0.4604
  106SAPE   C3210852   4.538   6.612   4.296 -0.6992 -0.2080  0.3508
  106SAPE   H2X10853   4.514   6.720   4.287 -1.6858 -0.5165 -1.2749
  106SAPE   H2Y10854   4.648   6.612   4.282 -0.9404 -0.2040 -1.9948
  106SAPE   C2310855   4.670   6.054   4.274 -0.2301  0.1840 -0.1516
  106SAPE   H3R10856   4.703   6.130   4.348 -1.1267 -0.6351  1.1388
  106SAPE   H3S10857   4.769   6.027   4.233  0.5542 -0.0717  1.7812
  106SAPE   C2410858   4.601   5.939   4.356  0.4990  0.3813 -0.5947
  106SAPE   H4R10859   4.564   5.873   4.274  1.0524  0.7082 -1.1222
  106SAPE   H4S10860   4.512   5.982   4.406  0.3811 -0.5446  0.0151
  106SAPE   C2510861   4.689   5.871   4.457  0.1196 -0.8177 -0.2121
  106SAPE   H5R10862   4.771   5.808   4.420  0.1152 -0.5688 -0.6492
  106SAPE   C2610863   4.682   5.883   4.592  0.2249  0.1084  0.2584
  106SAPE   H6R10864   4.753   5.824   4.652  0.0744  0.2699  0.5992
  106SAPE   C2710865   4.571   5.957   4.668 -0.0583 -0.2838 -0.1344
  106SAPE   H7R10866   4.524   6.025   4.594 -1.4905 -2.2429 -1.1236
  106SAPE   H7S10867   4.624   6.029   4.733  0.2041 -1.2695  0.7759
  106SAPE   C2810868   4.466   5.878   4.744  0.1458  1.0046  1.2664
  106SAPE   H8R10869   4.396   5.823   4.679  0.9927  2.0294 -0.6080
  106SAPE   C2910870   4.467   5.869   4.878 -0.2728  0.3639  0.1178
  106SAPE   H9R10871   4.385   5.827   4.937  2.2675 -0.5376  3.2716
  106SAPE  C21010872   4.567   5.933   4.971  0.3612  0.0533  0.0721
  106SAPE  H10R10873   4.521   6.018   5.026 -0.7067  0.3492 -1.2092
  106SAPE  H10S10874   4.650   5.982   4.915  2.4778 -1.9078  1.3177
  106SAPE  C21110875   4.646   5.848   5.066 -0.3189 -0.0162  0.3497
  106SAPE  H11R10876   4.718   5.774   5.026  0.0147 -1.9915  4.1312
  106SAPE  C21210877   4.649   5.851   5.201 -0.2422 -0.4441  0.1926
  106SAPE  H12R10878   4.714   5.780   5.255  1.5429  0.0613 -1.1991
  106SAPE  C21310879   4.552   5.926   5.291  0.4185  0.2846  0.5576
  106SAPE  H13R10880   4.509   5.848   5.357  0.0280  0.9570  1.1166
  106SAPE  H13S10881   4.467   5.971   5.235  0.5908  0.1009  0.1432
  106SAPE  C21410882   4.612   6.031   5.379 -0.5902  0.7675  0.9229
  106SAPE  H14R10883   4.683   6.094   5.324 -0.2063 -1.8243 -1.8055
  106SAPE  C21510884   4.610   6.040   5.512  0.2371 -0.2815  0.1554
  106SAPE  H15R10885   4.677   6.122   5.541  0.1883 -0.0776 -0.3002
  106SAPE  C21610886   4.524   5.962   5.608  0.5574 -0.4575 -0.2877
  106SAPE  H16R10887   4.588   5.944   5.696  0.7953  0.9945 -0.1391
  106SAPE  H16S10888   4.480   5.874   5.557 -1.3868 -1.9181  3.5184
  106SAPE  C21710889   4.412   6.050   5.654 -0.0814 -0.2981 -0.0004
  106SAPE  H17R10890   4.353   6.095   5.571  1.5644 -0.4078 -1.2882
  106SAPE  H17S10891   4.444   6.138   5.713  0.2123 -0.8545  0.6803
  106SAPE  C21810892   4.318   5.982   5.755 -0.4783 -0.1391 -0.2114
  106SAPE  H18R10893   4.231   6.049   5.770  0.2739  0.4798  1.7191
  106SAPE  H18S10894   4.371   5.984   5.853  1.4865  1.9315 -1.2271
  106SAPE  C21910895   4.259   5.848   5.709 -0.2488  0.2027 -0.1069
  106SAPE  H19R10896   4.331   5.773   5.670 -0.5112 -0.8496  1.3335
  106SAPE  H19S10897   4.181   5.873   5.635 -1.5593 -1.6606  0.5687
  106SAPE  C22010898   4.199   5.787   5.839  0.0691 -0.1271  0.4257
  106SAPE  H20R10899   4.257   5.709   5.893  0.3523  0.0148  0.3332
  106SAPE  H20S10900   4.109   5.729   5.809  1.6126 -1.7330 -1.4204
  106SAPE  H20T10901   4.172   5.867   5.911 -3.5882  0.4084 -1.3078
  106SAPE   C3310902   4.503   6.544   4.429 -0.0703  0.5024  0.3602
  106SAPE   H3X10903   4.396   6.518   4.447 -0.6499  0.0747 -3.0220
  106SAPE   H3Y10904   4.543   6.617   4.502 -0.0188  1.0716 -0.2302
  106SAPE   C3410905   4.576   6.413   4.444  0.3065 -0.1296  1.2046
  106SAPE   H4X10906   4.683   6.441   4.448  0.5473 -1.1237  2.5085
  106SAPE   H4Y10907   4.553   6.344   4.359  1.5424 -0.5282  1.1660
  106SAPE   C3510908   4.546   6.333   4.567  0.1188  0.3513 -0.0916
  106SAPE   H5X10909   4.606   6.240   4.574 -0.1953  0.2135  1.0932
  106SAPE   H5Y10910   4.442   6.293   4.557  0.6248 -1.1795  0.3766
  106SAPE   C3610911   4.548   6.415   4.692  0.0550  0.0872  0.1575
  106SAPE   H6X10912   4.459   6.481   4.689  0.7732  1.1511  1.3212
  106SAPE   H6Y10913   4.636   6.483   4.693  1.0459 -0.9965 -2.5550
  106SAPE   C3710914   4.542   6.333   4.826  0.4210 -0.2273  1.0133
  106SAPE   H7X10915   4.622   6.256   4.826 -0.1679 -0.8745 -0.3244
  106SAPE   H7Y10916   4.451   6.270   4.832  0.6414 -0.5414  1.0617
  106SAPE   C3810917   4.562   6.412   4.958 -0.2434 -0.4852 -1.0088
  106SAPE   H8X10918   4.496   6.501   4.953  3.8035  2.9821  1.0120
  106SAPE   H8Y10919   4.667   6.446   4.962 -0.5737  0.5287 -0.8431
  106SAPE   C3910920   4.530   6.322   5.081  0.1565 -0.2915  0.5505
  106SAPE   H9X10921   4.603   6.240   5.098 -1.0442 -1.4713  0.1409
  106SAPE   H9Y10922   4.431   6.273   5.066 -0.0691 -0.2403  1.7786
  106SAPE  C31010923   4.521   6.393   5.219  0.4307 -0.4867 -0.3262
  106SAPE  H10X10924   4.465   6.324   5.286 -0.2082  0.9567  0.6827
  106SAPE  H10Y10925   4.451   6.479   5.226  0.9834  0.0898 -1.5586
  106SAPE  C31110926   4.654   6.422   5.283 -0.3349 -0.0729 -0.2710
  106SAPE  H11X10927   4.709   6.494   5.219  3.3006 -0.7294  1.8631
  106SAPE  H11Y10928   4.712   6.328   5.273 -0.2828 -0.0569 -0.1291
  106SAPE  C31210929   4.638   6.491   5.421 -0.5315 -0.0984 -0.7909
  106SAPE  H12X10930   4.601   6.418   5.496 -0.8761  1.3572  0.4987
  106SAPE  H12Y10931   4.552   6.561   5.422  0.7197  1.4999  0.5288
  106SAPE  C31310932   4.774   6.549   5.461  0.5715 -0.2364 -0.3863
  106SAPE  H13X10933   4.790   6.638   5.396 -0.3101  1.0351  1.0596
  106SAPE  H13Y10934   4.856   6.478   5.436  0.5548 -0.3231 -0.1989
  106SAPE  C31410935   4.790   6.582   5.609  0.0436 -0.0678 -0.5626
  106SAPE  H14X10936   4.700   6.635   5.648 -1.1802  0.3686 -3.6724
  106SAPE  H14Y10937   4.865   6.664   5.601  0.4060 -0.3991 -0.6079
  106SAPE  C31510938   4.841   6.476   5.710  0.8881  0.6471 -0.0859
  106SAPE  H15X10939   4.746   6.433   5.749  2.0177 -2.3865 -0.4639
  106SAPE  H15Y10940   4.892   6.532   5.792 -2.0308  3.1141  0.2328
  106SAPE  C31610941   4.929   6.366   5.651  0.0314  0.3576 -0.3532
  106SAPE  H16X10942   5.016   6.421   5.609  0.4096  0.1883  0.2102
  106SAPE  H16Y10943   4.876   6.309   5.572 -1.4294  1.0267  0.1151
  106SAPE  C31710944   4.996   6.275   5.757  0.4972  0.3080  0.2762
  106SAPE  H17X10945   5.001   6.331   5.853  0.3597  0.0441  0.4411
  106SAPE  H17Y10946   5.095   6.258   5.710  0.5845  0.8574  0.2557
  106SAPE  C31810947   4.919   6.143   5.772 -0.1508 -0.3692 -0.3374
  106SAPE  H18X10948   4.817   6.167   5.808 -0.3914  0.6191 -1.6427
  106SAPE  H18Y10949   4.969   6.078   5.848  2.9396  2.1050 -0.0468
  106SAPE  H18Z10950   4.916   6.090   5.675 -0.0617  2.2222 -1.8355
  107SAPE     N10951   1.514   3.499   3.789 -0.3085  0.1302  0.5230
  107SAPE   HN110952   1.514   3.538   3.692  2.6521 -1.9315 -0.4405
  107SAPE   HN210953   1.479   3.401   3.782 -1.1788  0.5126 -0.9109
  107SAPE   HN310954   1.442   3.545   3.848  0.4513  1.7406  0.2517
  107SAPE   C1210955   1.659   3.501   3.834  0.0071 -0.2761 -0.0413
  107SAPE  H12A10956   1.707   3.401   3.831  0.4963 -0.1686  2.3813
  107SAPE  H12B10957   1.658   3.508   3.945 -0.9072 -1.2160  0.0247
  107SAPE   C1110958   1.749   3.617   3.782  0.0653  0.0454  0.6203
  107SAPE  H11A10959   1.736   3.622   3.671  0.7253 -0.4841  0.5151
  107SAPE  H11B10960   1.857   3.610   3.803 -0.6456  0.2080  5.2401
  107SAPE     P10961   1.762   3.822   3.962  0.0501 -0.0939 -0.7150
  107SAPE   O1310962   1.890   3.892   3.929  0.0138 -0.3457  0.4779
  107SAPE   O1410963   1.653   3.895   4.025  0.2948  0.5502 -0.6381
  107SAPE   O1210964   1.704   3.739   3.832 -0.1649  0.3238 -0.1520
  107SAPE   O1110965   1.808   3.700   4.052  0.4110  0.1845 -0.3770
  107SAPE    C110966   1.892   3.723   4.168 -0.3497 -0.1251  0.4466
  107SAPE    HA10967   1.994   3.714   4.126 -1.1537 -1.7915 -1.2836
  107SAPE    HB10968   1.880   3.824   4.214  2.9229  1.2183 -1.2864
  107SAPE    C210969   1.879   3.607   4.278 -0.5335  0.7292 -0.6593
  107SAPE    HS10970   1.893   3.506   4.233  1.5331 -0.6918  2.7772
  107SAPE   O2110971   1.745   3.621   4.350  0.0564 -0.4013  0.5826
  107SAPE   C2110972   1.695   3.519   4.411 -0.4206  0.2526  0.5149
  107SAPE   O2210973   1.758   3.412   4.431  0.1597 -0.1719 -0.3736
  107SAPE   C2210974   1.546   3.551   4.443 -0.0989  0.5490  0.1948
  107SAPE   H2R10975   1.555   3.583   4.549  2.1701 -2.7274  1.1435
  107SAPE   H2S10976   1.510   3.636   4.381 -2.9394 -1.1067 -0.5555
  107SAPE    C310977   1.995   3.630   4.379 -0.6742  0.4822  0.5770
  107SAPE    HX10978   2.084   3.603   4.319 -2.9083 -0.9875 -2.3667
  107SAPE    HY10979   1.991   3.554   4.460  1.1275 -0.1213  0.1499
  107SAPE   O3110980   1.997   3.761   4.439  0.5746 -0.6151 -0.0798
  107SAPE   C3110981   1.947   3.771   4.559  0.3295  0.0477  0.2727
  107SAPE   O3210982   1.878   3.699   4.624 -0.0039 -0.2579 -0.1750
  107SAPE   C3210983   1.992   3.907   4.603 -0.1134  0.2221 -0.9730
  107SAPE   H2X10984   1.917   3.942   4.677  0.4588  0.0332 -0.2964
  107SAPE   H2Y10985   1.977   3.981   4.521 -0.7168  1.7704  0.4985
  107SAPE   C2310986   1.453   3.433   4.417  0.5948  0.1370 -0.0290
  107SAPE   H3R10987   1.507   3.343   4.455 -0.3991 -0.8150 -0.7910
  107SAPE   H3S10988   1.423   3.415   4.312 -1.2776  0.0181  0.4901
  107SAPE   C2410989   1.319   3.455   4.489  0.2879  0.2552  0.1173
  107SAPE   H4R10990   1.260   3.538   4.443  0.6347 -0.0073 -0.8369
  107SAPE   H4S10991   1.349   3.490   4.590 -1.3505 -0.7558  1.0028
  107SAPE   C2510992   1.231   3.336   4.514 -0.2346  0.3983  0.0372
  107SAPE   H5R10993   1.213   3.282   4.420  1.8240 -1.1813  0.4861
  107SAPE   C2610994   1.188   3.293   4.629 -0.1600  0.1039 -0.2625
  107SAPE   H6R10995   1.121   3.207   4.639  0.3242 -0.2693 -0.2108
  107SAPE   C2710996   1.205   3.367   4.757  0.0978 -0.1349  0.1547
  107SAPE   H7R10997   1.114   3.343   4.817 -0.0959 -0.8072 -0.3985
  107SAPE   H7S10998   1.202   3.476   4.736  2.4975 -0.3731 -1.8780
  107SAPE   C2810999   1.339   3.339   4.827  0.1095 -1.0245  0.1121
  107SAPE   H8R11000   1.414   3.319   4.749  0.0276 -0.4091 -0.1253
  107SAPE   C2911001   1.379   3.332   4.957 -0.2244  0.5661  0.3741
  107SAPE   H9R11002   1.480   3.291   4.974  0.1609  1.0803 -0.5750
  107SAPE  C21011003   1.290   3.339   5.073  0.5353 -0.3028 -0.3465
  107SAPE  H10R11004   1.301   3.238   5.117  0.9912 -0.0550  0.1087
  107SAPE  H10S11005   1.186   3.364   5.042  0.6754  0.5068 -0.1960
  107SAPE  C21111006   1.328   3.447   5.183  0.5845 -0.4281  0.5066
  107SAPE  H11R11007   1.346   3.544   5.133 -0.2660  0.2199  1.3966
  107SAPE  C21211008   1.359   3.439   5.316 -0.4473 -0.1589 -0.1832
  107SAPE  H12R11009   1.368   3.531   5.375 -0.5092 -2.0527  3.0375
  107SAPE  C21311010   1.360   3.315   5.402 -0.1579 -0.5091  0.6056
  107SAPE  H13R11011   1.406   3.232   5.343 -1.5475  0.1439 -1.5305
  107SAPE  H13S11012   1.262   3.270   5.428 -0.3065 -0.4236  0.2033
  107SAPE  C21411013   1.441   3.336   5.528 -0.2385 -0.4249 -0.2557
  107SAPE  H14R11014   1.542   3.377   5.516 -0.0851 -0.0845  1.7894
  107SAPE  C21511015   1.415   3.291   5.650  0.6623  0.6999  1.0219
  107SAPE  H15R11016   1.490   3.314   5.727  3.8907  1.3530 -2.0630
  107SAPE  C21611017   1.297   3.201   5.699  0.1463  0.4800 -0.8547
  107SAPE  H16R11018   1.320   3.094   5.677 -1.2536  0.2157 -1.1466
  107SAPE  H16S11019   1.207   3.229   5.640 -0.1100  0.7450 -0.3364
  107SAPE  C21711020   1.264   3.220   5.852 -0.3597 -0.5864  0.4334
  107SAPE  H17R11021   1.174   3.156   5.859 -0.8860  0.2078  1.3095
  107SAPE  H17S11022   1.257   3.330   5.870  1.7540 -0.3886  0.2945
  107SAPE  C21811023   1.375   3.168   5.943 -0.2043 -0.3338  0.3440
  107SAPE  H18R11024   1.470   3.223   5.925 -0.5848  0.3998  0.5560
  107SAPE  H18S11025   1.381   3.059   5.918  0.5430 -0.4270  0.8891
  107SAPE  C21911026   1.342   3.179   6.093  0.7698 -0.0696  0.0883
  107SAPE  H19R11027   1.437   3.172   6.150  0.3810  1.6030  0.9957
  107SAPE  H19S11028   1.272   3.103   6.133 -1.9602  1.7723 -0.8710
  107SAPE  C22011029   1.289   3.316   6.138  0.1254  0.0850 -0.1421
  107SAPE  H20R11030   1.369   3.390   6.116  0.4206 -0.2765 -0.3023
  107SAPE  H20S11031   1.278   3.315   6.249 -0.0253  2.5776 -0.0874
  107SAPE  H20T11032   1.191   3.333   6.090 -2.5660 -3.4099  3.4275
  107SAPE   C3311033   2.133   3.902   4.662 -0.3516  0.8317 -0.3362
  107SAPE   H3X11034   2.155   4.011   4.663  0.5341  0.7350 -2.7144
  107SAPE   H3Y11035   2.204   3.854   4.592 -1.6847 -0.0566 -1.1090
  107SAPE   C3411036   2.135   3.832   4.801 -0.4558 -0.3613  0.8101
  107SAPE   H4X11037   2.154   3.723   4.791 -3.1534 -0.6834 -2.0625
  107SAPE   H4Y11038   2.036   3.830   4.851 -0.0170 -0.2045  1.7077
  107SAPE   C3511039   2.232   3.876   4.907  0.3105 -0.4114  0.7669
  107SAPE   H5X11040   2.197   3.978   4.931  0.2689  0.0838 -1.2016
  107SAPE   H5Y11041   2.335   3.894   4.868 -1.1020  3.8780 -1.6509
  107SAPE   C3611042   2.233   3.781   5.023  0.2735  0.0079 -0.4187
  107SAPE   H6X11043   2.309   3.701   5.008 -0.8729 -0.9052 -1.5496
  107SAPE   H6Y11044   2.140   3.723   5.041  0.6862 -0.1836  1.2851
  107SAPE   C3711045   2.261   3.849   5.157  0.2565  0.4977  0.6053
  107SAPE   H7X11046   2.190   3.935   5.161  0.7077  0.9838 -1.2214
  107SAPE   H7Y11047   2.361   3.897   5.155  0.2458  0.5558 -2.0958
  107SAPE   C3811048   2.248   3.752   5.278  0.3733 -0.3546  0.3654
  107SAPE   H8X11049   2.340   3.693   5.297  0.2209 -0.9917 -0.7796
  107SAPE   H8Y11050   2.166   3.678   5.264  0.8793 -1.1516  1.4932
  107SAPE   C3911051   2.213   3.821   5.400  0.5547 -0.9675 -0.4787
  107SAPE   H9X11052   2.108   3.857   5.398  0.2744 -1.7913 -2.1364
  107SAPE   H9Y11053   2.267   3.917   5.405 -0.2926 -0.4988 -0.1322
  107SAPE  C31011054   2.234   3.750   5.526 -0.6642  0.4284  0.0882
  107SAPE  H10X11055   2.341   3.720   5.528  0.4152  3.7194 -0.9261
  107SAPE  H10Y11056   2.165   3.664   5.540 -1.1630  0.9062  0.6422
  107SAPE  C31111057   2.209   3.852   5.648 -0.4727  0.6700  1.8323
  107SAPE  H11X11058   2.110   3.901   5.642 -0.4662  0.5872  0.9798
  107SAPE  H11Y11059   2.285   3.932   5.634 -2.3709  2.4651  1.4161
  107SAPE  C31211060   2.239   3.798   5.784  0.2429  0.3035  0.2848
  107SAPE  H12X11061   2.348   3.777   5.774  0.2062  1.2153 -3.1887
  107SAPE  H12Y11062   2.192   3.702   5.815 -1.0994  0.7634 -0.2390
  107SAPE  C31311063   2.207   3.898   5.892 -0.0109 -0.1076 -0.2393
  107SAPE  H13X11064   2.098   3.917   5.888 -0.5212 -2.7404 -0.6823
  107SAPE  H13Y11065   2.262   3.992   5.873  0.9439 -0.9258 -1.7534
  107SAPE  C31411066   2.249   3.851   6.028 -0.1224  0.1370  0.3826
  107SAPE  H14X11067   2.358   3.832   6.037  0.0559  0.7944 -0.3664
  107SAPE  H14Y11068   2.200   3.753   6.047  0.4127 -0.1581  0.2636
  107SAPE  C31511069   2.216   3.952   6.142  0.5661  0.0349  0.3608
  107SAPE  H15X11070   2.108   3.978   6.143  0.8819  1.6007 -1.3493
  107SAPE  H15Y11071   2.266   4.048   6.117  0.7688 -0.6092 -1.8453
  107SAPE  C31611072   2.260   3.917   6.286  0.1217  1.0554 -0.6269
  107SAPE  H16X11073   2.221   3.815   6.307  0.7394  0.4546 -2.2389
  107SAPE  H16Y11074   2.211   3.992   6.352  1.3739  0.6434  0.8193
  107SAPE  C31711075   2.408   3.925   6.318  0.1033 -0.6174  0.4800
  107SAPE  H17X11076   2.441   4.029   6.338 -2.2750  0.1711  0.5512
  107SAPE  H17Y11077   2.471   3.889   6.234  3.1738  3.2836  0.7881
  107SAPE  C31811078   2.439   3.848   6.441  0.1415 -0.5093  0.0073
  107SAPE  H18X11079   2.375   3.877   6.527 -0.1276 -0.3509 -0.2460
  107SAPE  H18Y11080   2.544   3.863   6.474  0.0468  2.2592 -0.6935
  107SAPE  H18Z11081   2.416   3.739   6.440 -0.1380 -0.5174  2.4839
  108SAPE     N11082   6.166   6.400   3.757 -0.8386 -0.6172 -0.0766
  108SAPE   HN111083   6.216   6.320   3.712 -2.9043 -1.1081 -1.6827
  108SAPE   HN211084   6.085   6.432   3.700 -1.5240 -0.4240  0.9691
  108SAPE   HN311085   6.231   6.481   3.759 -2.8326  1.0826 -0.9009
  108SAPE   C1211086   6.123   6.363   3.896 -0.2546  0.2802  0.4947
  108SAPE  H12A11087   6.206   6.298   3.930  1.2407  2.9495  2.2681
  108SAPE  H12B11088   6.020   6.322   3.890 -0.5699  0.9135  1.4130
  108SAPE   C1111089   6.123   6.487   3.978  0.3316 -0.2272 -0.5397
  108SAPE  H11A11090   6.121   6.455   4.085 -1.9664  0.4301 -0.3269
  108SAPE  H11B11091   6.037   6.551   3.951  0.1774 -1.2514 -2.6513
  108SAPE     P11092   6.315   6.658   4.039  0.3859 -0.1742  0.0956
  108SAPE   O1311093   6.459   6.655   4.008  0.4186 -0.3289  0.0888
  108SAPE   O1411094   6.244   6.787   4.027 -0.6327  0.2778  0.0987
  108SAPE   O1211095   6.248   6.558   3.947  0.2479 -0.4077  0.3360
  108SAPE   O1111096   6.276   6.594   4.177 -0.2896  0.5271  0.4237
  108SAPE    C111097   6.251   6.678   4.292  0.2150  0.3848  0.1627
  108SAPE    HA11098   6.178   6.758   4.265 -0.3111 -0.5981 -1.4547
  108SAPE    HB11099   6.200   6.613   4.366 -0.3949 -0.5655 -1.0427
  108SAPE    C211100   6.372   6.736   4.361 -0.8995 -0.8106 -0.4821
  108SAPE    HS11101   6.421   6.799   4.284 -0.6053  0.0407  0.3826
  108SAPE   O2111102   6.449   6.625   4.408  0.4580 -0.3551 -0.4930
  108SAPE   C2111103   6.578   6.644   4.412  0.1419  0.0639  0.5147
  108SAPE   O2211104   6.644   6.747   4.394  0.0074  0.0149  0.2632
  108SAPE   C2211105   6.641   6.510   4.455 -0.2944 -0.5145  0.6309
  108SAPE   H2R11106   6.560   6.436   4.470 -0.7713 -0.1476 -0.0432
  108SAPE   H2S11107   6.713   6.479   4.375  0.4069  0.4935  0.8385
  108SAPE    C311108   6.315   6.812   4.484  0.3147 -0.0017 -0.1709
  108SAPE    HX11109   6.256   6.743   4.547  0.0737  0.4293  0.0790
  108SAPE    HY11110   6.242   6.889   4.450  1.9221  1.2971 -0.8258
  108SAPE   O3111111   6.425   6.857   4.569  0.3632 -0.4403  0.7699
  108SAPE   C3111112   6.436   6.996   4.584  0.0294 -0.1358  0.2844
  108SAPE   O3211113   6.353   7.071   4.533 -0.5577 -0.8395  0.8183
  108SAPE   C3211114   6.564   7.033   4.655 -0.5105 -0.5125 -0.7370
  108SAPE   H2X11115   6.641   7.040   4.575 -0.0929  2.6420 -0.2204
  108SAPE   H2Y11116   6.594   6.961   4.735 -2.0908  0.0921  0.4637
  108SAPE   C2311117   6.732   6.523   4.582  0.2698 -0.0386  1.0066
  108SAPE   H3R11118   6.673   6.571   4.663  0.1461  1.5317  0.0219
  108SAPE   H3S11119   6.816   6.593   4.561 -0.0030 -0.2791 -1.1378
  108SAPE   C2411120   6.781   6.384   4.629  0.6394  0.5788 -0.1284
  108SAPE   H4R11121   6.878   6.388   4.684  1.6899 -0.3285 -1.8169
  108SAPE   H4S11122   6.804   6.325   4.538 -2.7647 -0.9660 -0.1232
  108SAPE   C2511123   6.671   6.309   4.710 -0.6035 -0.2000 -0.1815
  108SAPE   H5R11124   6.576   6.297   4.656 -0.0504  0.2265 -1.2701
  108SAPE   C2611125   6.694   6.234   4.823  0.5396 -0.8961  0.1116
  108SAPE   H6R11126   6.614   6.171   4.865 -1.6103  0.9889 -0.9647
  108SAPE   C2711127   6.825   6.226   4.888 -0.0349  0.0024 -1.1000
  108SAPE   H7R11128   6.787   6.233   4.993 -1.7277 -1.2222 -1.5799
  108SAPE   H7S11129   6.884   6.317   4.863  0.7357  0.0674  0.7907
  108SAPE   C2811130   6.895   6.097   4.877 -0.0200 -0.2995  0.4132
  108SAPE   H8R11131   6.934   6.060   4.781 -0.2620 -1.1200  0.6253
  108SAPE   C2911132   6.933   6.021   4.981 -0.3481 -0.3337  0.2216
  108SAPE   H9R11133   6.992   5.929   4.967 -2.0165 -1.3867 -0.2181
  108SAPE  C21011134   6.909   6.058   5.125 -0.5266 -0.3882 -0.4070
  108SAPE  H10R11135   6.939   6.164   5.135  2.4738 -0.9726 -1.9976
  108SAPE  H10S11136   6.976   6.002   5.193 -0.9395 -1.2129 -0.6542
  108SAPE  C21111137   6.760   6.043   5.163  0.1486  0.5832 -0.4346
  108SAPE  H11R11138   6.691   5.986   5.100  0.4242 -0.1683 -0.0725
  108SAPE  C21211139   6.718   6.054   5.292  0.1503  0.3859  0.6832
  108SAPE  H12R11140   6.611   6.039   5.310 -0.1410  2.2120  0.6948
  108SAPE  C21311141   6.794   6.113   5.409  0.3526 -0.5269 -0.7550
  108SAPE  H13R11142   6.877   6.178   5.377 -1.0647  1.1346 -1.1618
  108SAPE  H13S11143   6.854   6.035   5.462  2.3941  1.4474 -0.0233
  108SAPE  C21411144   6.719   6.194   5.513  0.1811  0.6114  1.3179
  108SAPE  H14R11145   6.610   6.202   5.496  0.2063 -0.2569  0.6933
  108SAPE  C21511146   6.770   6.250   5.623  0.8961 -0.4620  0.1198
  108SAPE  H15R11147   6.697   6.318   5.670  1.7296 -0.7266  1.9050
  108SAPE  C21611148   6.913   6.259   5.670  0.4862 -0.0544  0.0498
  108SAPE  H16R11149   6.978   6.192   5.609  2.2838  0.3622  1.4412
  108SAPE  H16S11150   6.911   6.222   5.774  1.1096  1.9140  0.8071
  108SAPE  C21711151   6.942   6.411   5.679 -0.1209  0.0745  0.1383
  108SAPE  H17R11152   6.921   6.474   5.590 -0.3019 -0.5031 -0.2347
  108SAPE  H17S11153   7.051   6.414   5.699 -0.0368 -0.6667 -0.1942
  108SAPE  C21811154   6.877   6.473   5.799  0.1214 -0.3104 -0.2293
  108SAPE  H18R11155   6.900   6.411   5.889  1.1188 -2.3272 -1.7965
  108SAPE  H18S11156   6.767   6.483   5.790  0.1169 -0.6708 -0.5679
  108SAPE  C21911157   6.939   6.610   5.829 -0.5962  0.2361 -0.1979
  108SAPE  H19R11158   6.932   6.674   5.738  0.3056 -0.1368 -0.5426
  108SAPE  H19S11159   7.046   6.594   5.850 -0.5317 -0.9678 -1.3117
  108SAPE  C22011160   6.877   6.692   5.941  0.4403  0.1028  0.0411
  108SAPE  H20R11161   6.939   6.783   5.953  1.7517 -0.6110 -1.0452
  108SAPE  H20S11162   6.870   6.635   6.036  0.6245 -0.7297 -0.4292
  108SAPE  H20T11163   6.779   6.723   5.899  0.2082 -0.3068  0.2736
  108SAPE   C3311164   6.558   7.171   4.738 -0.5627  0.0314 -0.3829
  108SAPE   H3X11165   6.521   7.248   4.668 -0.6190  0.7858  0.4624
  108SAPE   H3Y11166   6.661   7.193   4.774  0.0714 -1.4654 -1.1739
  108SAPE   C3411167   6.468   7.171   4.854 -0.2442 -0.0985 -0.5081
  108SAPE   H4X11168   6.361   7.158   4.825 -0.2308  1.6890 -1.5206
  108SAPE   H4Y11169   6.466   7.266   4.912  1.4757 -0.4656  0.1970
  108SAPE   C3511170   6.503   7.058   4.955 -0.6035 -0.6952  0.2551
  108SAPE   H5X11171   6.454   6.960   4.933  0.5846 -1.6041  1.4581
  108SAPE   H5Y11172   6.613   7.042   4.966 -0.6851  0.4324  3.7371
  108SAPE   C3611173   6.452   7.099   5.097 -0.0485 -0.3470 -0.4228
  108SAPE   H6X11174   6.342   7.113   5.090 -0.1547 -0.7480  0.2941
  108SAPE   H6Y11175   6.507   7.194   5.113  1.3278 -1.0899 -0.5942
  108SAPE   C3711176   6.488   7.004   5.214 -0.0126  0.1890  0.1313
  108SAPE   H7X11177   6.599   6.990   5.215  0.4734  3.1671 -0.2929
  108SAPE   H7Y11178   6.433   6.910   5.196 -0.3143 -0.1246  2.3936
  108SAPE   C3811179   6.469   7.064   5.353  0.0432 -0.8223 -0.2430
  108SAPE   H8X11180   6.362   7.059   5.385 -0.0116 -1.7892 -0.5243
  108SAPE   H8Y11181   6.485   7.172   5.335 -1.5115 -0.8821 -2.4957
  108SAPE   C3911182   6.568   7.020   5.454 -1.2767  0.5629  0.4847
  108SAPE   H9X11183   6.588   7.083   5.543  2.3810  0.9955 -0.4950
  108SAPE   H9Y11184   6.667   6.991   5.413 -0.9460  0.1333  1.5511
  108SAPE  C31011185   6.532   6.882   5.509  0.8385 -0.0117  0.2109
  108SAPE  H10X11186   6.612   6.859   5.582  0.9965 -2.5027 -0.6617
  108SAPE  H10Y11187   6.521   6.798   5.437  1.0981 -0.4824  0.7145
  108SAPE  C31111188   6.396   6.873   5.586  0.5241  0.3709 -0.5684
  108SAPE  H11X11189   6.306   6.885   5.522  0.1135 -0.6615 -0.2193
  108SAPE  H11Y11190   6.392   6.956   5.659  3.0111 -1.1167  1.4346
  108SAPE  C31211191   6.381   6.741   5.658  1.0452  0.5897  0.3431
  108SAPE  H12X11192   6.418   6.657   5.596 -1.9046 -1.6498  1.3928
  108SAPE  H12Y11193   6.273   6.725   5.673  1.2760  0.6061  2.2862
  108SAPE  C31311194   6.447   6.740   5.796 -0.8366 -0.1920 -0.0594
  108SAPE  H13X11195   6.395   6.816   5.858 -0.7784 -1.5270  1.7298
  108SAPE  H13Y11196   6.557   6.752   5.795 -0.7965  0.3161  2.8378
  108SAPE  C31411197   6.437   6.610   5.876 -0.1753  0.9694  0.1389
  108SAPE  H14X11198   6.488   6.534   5.811  2.3027  1.3112  1.5731
  108SAPE  H14Y11199   6.335   6.569   5.893  0.3093 -0.4633 -0.2205
  108SAPE  C31511200   6.511   6.619   6.012 -0.6900  0.2110  0.2171
  108SAPE  H15X11201   6.495   6.724   6.045  0.2073  0.8043 -1.1365
  108SAPE  H15Y11202   6.619   6.595   6.002 -0.5672  0.2996  1.3028
  108SAPE  C31611203   6.452   6.530   6.121  0.3585  0.1646  0.4419
  108SAPE  H16X11204   6.466   6.435   6.065  0.2898  1.3086 -1.6489
  108SAPE  H16Y11205   6.343   6.554   6.112  0.5742  0.4792 -4.5935
  108SAPE  C31711206   6.507   6.535   6.265  0.5931 -0.4182 -0.0498
  108SAPE  H17X11207   6.429   6.497   6.334  0.7394 -0.8950 -0.1381
  108SAPE  H17Y11208   6.506   6.642   6.291  0.1336 -0.5664  0.5595
  108SAPE  C31811209   6.640   6.477   6.282 -0.2883 -0.4644  0.3535
  108SAPE  H18X11210   6.705   6.537   6.215 -0.8557  0.9520  1.0494
  108SAPE  H18Y11211   6.650   6.366   6.273  0.6735 -0.3481 -0.2954
  108SAPE  H18Z11212   6.682   6.499   6.382 -1.0418 -0.4032  0.6603
  109SAPE     N11213   3.873   4.025   3.747  0.0516 -0.3347 -0.1799
  109SAPE   HN111214   3.961   3.977   3.776  0.2296  1.2220  2.0593
  109SAPE   HN211215   3.793   3.962   3.768  0.3749 -0.6181  0.2226
  109SAPE   HN311216   3.860   4.046   3.646  0.5598 -0.3610 -0.2529
  109SAPE   C1211217   3.861   4.148   3.834  0.4358  0.5430  0.5202
  109SAPE  H12A11218   3.792   4.223   3.789  1.4234  0.9427 -0.3711
  109SAPE  H12B11219   3.964   4.189   3.834  0.7126 -0.1445  0.3216
  109SAPE   C1111220   3.811   4.105   3.975 -0.2450  0.7444  0.4421
  109SAPE  H11A11221   3.807   4.190   4.046  0.0351  0.4784  0.7758
  109SAPE  H11B11222   3.884   4.041   4.028  0.1181 -0.6691 -1.6196
  109SAPE     P11223   3.546   4.090   3.941 -0.3480  0.1293  0.2357
  109SAPE   O1311224   3.548   4.168   3.808 -0.1230  0.1843 -0.1778
  109SAPE   O1411225   3.452   3.980   3.959  0.4345 -0.1480 -0.6902
  109SAPE   O1211226   3.689   4.029   3.971 -0.4729  0.5354  0.4615
  109SAPE   O1111227   3.523   4.198   4.055 -0.7568 -0.0758 -0.3967
  109SAPE    C111228   3.401   4.204   4.131  0.2572  0.0659  0.3853
  109SAPE    HA11229   3.382   4.313   4.141  1.4163  0.4698 -1.3469
  109SAPE    HB11230   3.315   4.148   4.088  0.4912 -1.7203  2.1032
  109SAPE    C211231   3.419   4.140   4.274 -1.1879 -0.1584 -0.4330
  109SAPE    HS11232   3.424   4.030   4.259 -0.5228  0.1112 -2.5574
  109SAPE   O2111233   3.323   4.192   4.360  0.1337 -0.7791 -0.4832
  109SAPE   C2111234   3.196   4.152   4.356 -0.5446 -0.3581 -0.7165
  109SAPE   O2211235   3.156   4.062   4.285 -0.3077  0.5094  0.3241
  109SAPE   C2211236   3.113   4.237   4.448 -0.7145  0.0164  0.4465
  109SAPE   H2R11237   3.178   4.305   4.507 -1.0373  1.2552 -0.5885
  109SAPE   H2S11238   3.053   4.305   4.384 -0.8936  0.4267  1.0461
  109SAPE    C311239   3.556   4.172   4.338  0.0157  0.3832 -1.0056
  109SAPE    HX11240   3.574   4.280   4.354  3.0894  0.4379 -3.7922
  109SAPE    HY11241   3.639   4.144   4.269  1.1667  1.7293 -0.2180
  109SAPE   O3111242   3.579   4.093   4.461 -0.1763 -0.0512  0.7179
  109SAPE   C3111243   3.631   4.155   4.567  0.0668 -0.5261 -0.2259
  109SAPE   O3211244   3.667   4.272   4.565  0.1321  0.2612  0.5000
  109SAPE   C3211245   3.682   4.059   4.671  0.3023  0.2723 -0.0409
  109SAPE   H2X11246   3.769   4.007   4.627  0.2769 -0.8528  1.1707
  109SAPE   H2Y11247   3.604   3.984   4.695  1.9028 -1.1150  1.0472
  109SAPE   C2311248   3.034   4.150   4.550  0.1348 -0.0268 -0.2237
  109SAPE   H3R11249   2.951   4.099   4.497  0.9400  0.2454 -1.8276
  109SAPE   H3S11250   2.989   4.221   4.622 -2.5532 -1.5983 -0.2277
  109SAPE   C2411251   3.122   4.046   4.617  0.0496 -0.5646  0.4942
  109SAPE   H4R11252   3.201   4.101   4.673 -0.2107  0.5067 -0.1543
  109SAPE   H4S11253   3.167   3.970   4.550 -3.2825 -1.0654 -1.4136
  109SAPE   C2511254   3.033   3.973   4.717  0.4678 -0.0121  0.0010
  109SAPE   H5R11255   2.945   3.918   4.680 -0.1002  0.0310  1.2218
  109SAPE   C2611256   3.051   3.973   4.849 -0.0482 -0.3291  0.2920
  109SAPE   H6R11257   2.969   3.919   4.899 -2.2103  1.7414 -0.8018
  109SAPE   C2711258   3.162   4.025   4.936  0.1237  0.2272 -0.7959
  109SAPE   H7R11259   3.247   4.072   4.883  1.8274  0.1380  1.6963
  109SAPE   H7S11260   3.202   3.944   5.000 -0.3999  0.9828  0.5237
  109SAPE   C2811261   3.108   4.123   5.047 -0.1820  0.1185  0.2398
  109SAPE   H8R11262   3.000   4.144   5.038 -0.3441 -1.0222 -0.8759
  109SAPE   C2911263   3.167   4.168   5.158 -0.1431  0.1492 -0.1815
  109SAPE   H9R11264   3.114   4.243   5.218  0.7078  0.4118  0.2455
  109SAPE  C21011265   3.313   4.145   5.193  0.6745  0.2044  0.6586
  109SAPE  H10R11266   3.364   4.243   5.204 -0.3776  1.2997 -2.9929
  109SAPE  H10S11267   3.363   4.096   5.106 -0.5885  0.6383 -0.3416
  109SAPE  C21111268   3.299   4.050   5.307  0.0463 -0.2606 -0.4453
  109SAPE  H11R11269   3.287   3.944   5.282 -1.2323 -0.3753  0.5363
  109SAPE  C21211270   3.330   4.085   5.436 -0.4812 -0.0190  0.6746
  109SAPE  H12R11271   3.316   4.006   5.511 -2.4154 -1.4061 -1.0481
  109SAPE  C21311272   3.362   4.219   5.490 -0.4709 -0.2896  0.2513
  109SAPE  H13R11273   3.345   4.207   5.599  0.0824 -0.5150  0.3192
  109SAPE  H13S11274   3.288   4.296   5.461  1.7682  1.5093 -1.0844
  109SAPE  C21411275   3.504   4.278   5.463 -0.1833 -0.5379 -0.2967
  109SAPE  H14R11276   3.527   4.281   5.356  0.6236  2.8142 -0.1290
  109SAPE  C21511277   3.596   4.319   5.551  0.0799 -0.3070 -0.4284
  109SAPE  H15R11278   3.686   4.367   5.512  0.3201 -1.0433 -0.8005
  109SAPE  C21611279   3.580   4.294   5.702  0.4857  0.5802  0.2883
  109SAPE  H16R11280   3.679   4.266   5.743 -0.4004  0.0862  2.1861
  109SAPE  H16S11281   3.513   4.208   5.721 -1.4449  1.0950 -3.2618
  109SAPE  C21711282   3.539   4.417   5.780  0.2384 -0.1688 -0.2382
  109SAPE  H17R11283   3.435   4.444   5.749  0.8929  2.8256 -0.1453
  109SAPE  H17S11284   3.602   4.505   5.756  0.8777 -0.3462  0.7379
  109SAPE  C21811285   3.549   4.406   5.943  0.0710 -0.1375  0.8627
  109SAPE  H18R11286   3.651   4.368   5.965  0.8621  2.0732  1.3905
  109SAPE  H18S11287   3.487   4.321   5.978 -1.8792  0.4422 -0.9933
  109SAPE  C21911288   3.513   4.542   6.002 -0.1545  0.4816 -0.5893
  109SAPE  H19R11289   3.425   4.577   5.946 -0.6554 -1.1343 -0.8550
  109SAPE  H19S11290   3.597   4.612   5.979  0.6728  0.0274  0.9178
  109SAPE  C22011291   3.492   4.531   6.152  0.3528 -0.9839 -0.3175
  109SAPE  H20R11292   3.503   4.632   6.196  2.4050 -1.0295 -0.6274
  109SAPE  H20S11293   3.571   4.467   6.196  1.0963 -0.0553 -0.2604
  109SAPE  H20T11294   3.395   4.488   6.184  0.8978 -1.5523  0.6165
  109SAPE   C3311295   3.731   4.127   4.804 -0.0267  0.4036  0.2188
  109SAPE   H3X11296   3.794   4.216   4.788  1.1440  0.0763  2.5504
  109SAPE   H3Y11297   3.786   4.045   4.855  0.0343 -0.2751 -0.8898
  109SAPE   C3411298   3.612   4.169   4.895 -0.2698 -0.1480  0.0911
  109SAPE   H4X11299   3.535   4.092   4.919 -0.3037 -0.2943 -0.4774
  109SAPE   H4Y11300   3.559   4.247   4.836 -2.2224 -0.7888  0.8876
  109SAPE   C3511301   3.665   4.239   5.027  0.0298  0.5537 -0.2842
  109SAPE   H5X11302   3.588   4.307   5.070  0.1994 -0.0692  1.0620
  109SAPE   H5Y11303   3.753   4.304   5.009 -0.1665  0.6281 -0.9860
  109SAPE   C3611304   3.706   4.135   5.129  0.6202 -0.3080  0.3941
  109SAPE   H6X11305   3.755   4.041   5.096  1.6046  0.1601  0.4763
  109SAPE   H6Y11306   3.619   4.110   5.192  0.0270  0.1281 -0.2455
  109SAPE   C3711307   3.806   4.187   5.238 -0.1721  1.0915 -0.2982
  109SAPE   H7X11308   3.761   4.281   5.277 -2.2682 -0.0486  0.1661
  109SAPE   H7Y11309   3.903   4.219   5.195 -0.1462  0.6207 -0.5861
  109SAPE   C3811310   3.834   4.080   5.348 -0.4033 -0.0701 -0.8198
  109SAPE   H8X11311   3.887   3.990   5.312 -0.2753 -0.2312 -0.2378
  109SAPE   H8Y11312   3.740   4.044   5.394 -0.7800  1.2572 -0.4988
  109SAPE   C3911313   3.919   4.133   5.462 -0.8244  0.3122 -0.3246
  109SAPE   H9X11314   3.854   4.207   5.514 -0.9715 -1.0184  1.4904
  109SAPE   H9Y11315   4.012   4.185   5.429 -0.3105  0.3870  1.1578
  109SAPE  C31011316   3.961   4.021   5.562 -0.5107 -0.2061 -0.3471
  109SAPE  H10X11317   4.008   3.945   5.496 -1.4300  0.1694 -1.4691
  109SAPE  H10Y11318   3.871   3.976   5.609 -0.3355 -0.6485 -0.4299
  109SAPE  C31111319   4.072   4.052   5.665 -0.2183 -0.0936  0.7014
  109SAPE  H11X11320   4.022   4.128   5.728 -2.3150  0.2047 -1.1676
  109SAPE  H11Y11321   4.166   4.082   5.614  0.0690 -1.1832  0.5581
  109SAPE  C31211322   4.125   3.925   5.733  0.0568  0.0005 -0.8597
  109SAPE  H12X11323   4.182   3.966   5.819  1.5038 -0.6739 -1.4694
  109SAPE  H12Y11324   4.199   3.876   5.666  1.9355  0.2334  0.9420
  109SAPE  C31311325   4.016   3.834   5.785  0.1510  0.7146 -0.4610
  109SAPE  H13X11326   3.938   3.806   5.712  0.9046 -1.0319 -0.6455
  109SAPE  H13Y11327   3.976   3.887   5.874 -0.9362  0.3547 -0.7308
  109SAPE  C31411328   4.071   3.699   5.834 -0.1287  0.4525  0.1984
  109SAPE  H14X11329   4.148   3.694   5.914 -0.6430 -1.5616  0.6362
  109SAPE  H14Y11330   4.121   3.644   5.752 -1.4984  0.5684 -0.7473
  109SAPE  C31511331   3.962   3.607   5.892  0.0165  0.1557 -0.2159
  109SAPE  H15X11332   3.996   3.502   5.897  0.0159 -0.1050 -3.5422
  109SAPE  H15Y11333   3.893   3.619   5.806 -1.5470  1.4900  1.1657
  109SAPE  C31611334   3.903   3.659   6.025 -0.3446 -0.4342  0.2373
  109SAPE  H16X11335   3.869   3.765   6.016 -1.3109 -0.8434 -1.4132
  109SAPE  H16Y11336   3.975   3.657   6.109 -0.5367 -1.6942  0.3912
  109SAPE  C31711337   3.775   3.581   6.065 -0.6026  0.3270 -0.1184
  109SAPE  H17X11338   3.809   3.476   6.071  0.6988  0.4423 -3.0932
  109SAPE  H17Y11339   3.711   3.593   5.975 -0.9296 -1.3335 -0.1370
  109SAPE  C31811340   3.705   3.644   6.191 -0.2888  0.5677  0.3964
  109SAPE  H18X11341   3.782   3.653   6.270  0.9966  1.7134 -0.9147
  109SAPE  H18Y11342   3.628   3.574   6.229  0.5598 -0.1075  0.9097
  109SAPE  H18Z11343   3.666   3.741   6.153 -0.8533 -0.4705 -1.8640
  110SAPE     N11344   4.183   1.630   4.028 -0.4709 -0.2342 -0.0560
  110SAPE   HN111345   4.095   1.655   3.977 -0.6067 -1.3521 -0.3873
  110SAPE   HN211346   4.256   1.627   3.954 -0.6435 -1.2043 -0.2032
  110SAPE   HN311347   4.179   1.533   4.063  2.7923 -0.8178 -1.0105
  110SAPE   C1211348   4.206   1.714   4.145  0.3134  0.3292 -0.3519
  110SAPE  H12A11349   4.188   1.652   4.236  1.0503 -1.9382 -1.6826
  110SAPE  H12B11350   4.139   1.802   4.136  2.2717  2.0414  0.8538
  110SAPE   C1111351   4.345   1.767   4.134 -0.0668  0.3607 -0.0083
  110SAPE  H11A11352   4.414   1.683   4.158 -1.5041 -0.2719  2.1980
  110SAPE  H11B11353   4.368   1.846   4.209  0.8686 -1.0835  1.2834
  110SAPE     P11354   4.527   1.849   3.955 -0.0368 -0.1628 -0.5158
  110SAPE   O1311355   4.563   1.756   3.845  0.5741 -0.1332 -0.5744
  110SAPE   O1411356   4.535   1.992   3.920  0.4174 -0.2011  0.0898
  110SAPE   O1211357   4.383   1.819   4.007 -0.0867  0.0080 -0.4928
  110SAPE   O1111358   4.626   1.810   4.072  0.3568 -0.3973  0.3786
  110SAPE    C111359   4.765   1.830   4.059 -0.5039 -0.5823 -0.9263
  110SAPE    HA11360   4.807   1.820   3.956 -0.5580  0.6650 -1.0855
  110SAPE    HB11361   4.792   1.929   4.100 -2.5814  0.0186 -0.8879
  110SAPE    C211362   4.834   1.730   4.161 -0.1411 -1.3222  0.4821
  110SAPE    HS11363   4.794   1.634   4.120  0.0713 -0.7748 -1.0964
  110SAPE   O2111364   4.785   1.770   4.288  0.1864 -0.1724 -0.7904
  110SAPE   C2111365   4.710   1.681   4.347 -0.2725 -0.4716  0.0538
  110SAPE   O2211366   4.693   1.563   4.312 -0.1823 -0.8333 -0.3277
  110SAPE   C2211367   4.657   1.747   4.479  0.3787  0.1097 -0.0523
  110SAPE   H2R11368   4.737   1.809   4.526  1.6801 -1.4672 -0.1266
  110SAPE   H2S11369   4.575   1.815   4.448 -0.0280  0.2303  1.2165
  110SAPE    C311370   4.988   1.736   4.146 -0.2593  0.4216  0.1262
  110SAPE    HX11371   5.016   1.694   4.047  1.7980  1.3784  0.2554
  110SAPE    HY11372   5.026   1.840   4.143  1.2782 -0.1216 -0.2906
  110SAPE   O3111373   5.043   1.659   4.255  0.2019 -0.8759  0.5766
  110SAPE   C3111374   5.041   1.527   4.242  0.4883 -0.2624  0.9271
  110SAPE   O3211375   4.982   1.473   4.148 -0.3065  0.2520  0.3741
  110SAPE   C3211376   5.139   1.469   4.348  0.1035 -0.4932 -0.0068
  110SAPE   H2X11377   5.193   1.389   4.293  0.7408 -0.3164  0.3551
  110SAPE   H2Y11378   5.083   1.438   4.439  0.5108 -1.6662 -0.1304
  110SAPE   C2311379   4.602   1.645   4.581  0.5771 -0.4467 -0.5144
  110SAPE   H3R11380   4.692   1.597   4.626  0.3529 -1.0537 -0.7111
  110SAPE   H3S11381   4.552   1.565   4.522 -1.2597  1.6310 -1.9302
  110SAPE   C2411382   4.522   1.706   4.701 -0.1679  0.1147 -0.2115
  110SAPE   H4R11383   4.575   1.786   4.757  1.7072 -0.2615 -1.3516
  110SAPE   H4S11384   4.496   1.628   4.776 -2.3703  1.0594  0.0879
  110SAPE   C2511385   4.399   1.780   4.650 -0.1134  0.2317  0.7474
  110SAPE   H5R11386   4.431   1.856   4.578  3.9392  1.2082  3.2706
  110SAPE   C2611387   4.269   1.774   4.687 -0.5159 -0.0525  0.0587
  110SAPE   H6R11388   4.194   1.845   4.650 -0.2946  0.9192  1.3744
  110SAPE   C2711389   4.221   1.678   4.796 -0.3000  0.3984 -0.0188
  110SAPE   H7R11390   4.211   1.742   4.886  0.9567 -1.9044  1.8756
  110SAPE   H7S11391   4.294   1.602   4.830  1.1935  1.8702  0.1979
  110SAPE   C2811392   4.097   1.599   4.768 -0.2908 -0.5457 -0.4828
  110SAPE   H8R11393   4.110   1.513   4.701 -0.7536  0.8770 -2.5206
  110SAPE   C2911394   3.976   1.629   4.815  0.5246  0.0662  0.0259
  110SAPE   H9R11395   3.895   1.557   4.800  0.6983  0.2222 -1.8543
  110SAPE  C21011396   3.943   1.747   4.903 -0.2795  0.1427 -0.5435
  110SAPE  H10R11397   3.975   1.845   4.863 -0.4506 -0.5696 -2.5094
  110SAPE  H10S11398   4.010   1.735   4.991 -0.4038  0.8543 -0.3505
  110SAPE  C21111399   3.793   1.775   4.922 -0.1358 -0.1799  0.0923
  110SAPE  H11R11400   3.745   1.823   4.836 -0.5502 -1.6868 -0.5426
  110SAPE  C21211401   3.738   1.779   5.042 -0.9523  0.3726 -0.1060
  110SAPE  H12R11402   3.632   1.806   5.054 -1.5873 -1.9750  0.0912
  110SAPE  C21311403   3.804   1.735   5.172 -0.0376  0.5784 -0.7610
  110SAPE  H13R11404   3.802   1.818   5.246  2.4117 -1.3411  1.6771
  110SAPE  H13S11405   3.904   1.688   5.165 -1.0098 -1.4052 -2.5756
  110SAPE  C21411406   3.711   1.627   5.229  0.8855 -0.5690  0.3720
  110SAPE  H14R11407   3.714   1.535   5.170  0.5471 -2.6411  3.3412
  110SAPE  C21511408   3.652   1.615   5.351 -0.5355 -0.9577  0.1972
  110SAPE  H15R11409   3.575   1.538   5.371  0.9342 -1.9661  2.4852
  110SAPE  C21611410   3.653   1.727   5.455  0.0018 -0.1906 -0.2134
  110SAPE  H16R11411   3.553   1.733   5.504 -0.5689 -1.0836 -1.2262
  110SAPE  H16S11412   3.667   1.829   5.413 -0.8532 -1.0657 -2.8672
  110SAPE  C21711413   3.752   1.688   5.558  0.4539 -0.4151 -0.1778
  110SAPE  H17R11414   3.855   1.677   5.517  1.5085  1.4362  1.7497
  110SAPE  H17S11415   3.726   1.587   5.597  0.5163  0.3422  1.9520
  110SAPE  C21811416   3.758   1.777   5.683  0.0013 -0.0099 -0.2611
  110SAPE  H18R11417   3.649   1.787   5.704 -0.6967  0.0215 -3.4361
  110SAPE  H18S11418   3.811   1.874   5.669  0.4271 -0.2659 -0.4098
  110SAPE  C21911419   3.814   1.708   5.806  0.0153  0.0641 -0.0952
  110SAPE  H19R11420   3.915   1.673   5.776  0.3006  1.3904 -0.7285
  110SAPE  H19S11421   3.750   1.617   5.817  1.2488 -0.7497  0.5824
  110SAPE  C22011422   3.811   1.789   5.934 -0.1937  0.0616  0.4882
  110SAPE  H20R11423   3.915   1.808   5.970 -0.6011  3.9976 -0.0147
  110SAPE  H20S11424   3.752   1.724   6.003 -0.5649 -0.4134 -0.2677
  110SAPE  H20T11425   3.771   1.893   5.927  3.0232  1.5077  1.5263
  110SAPE   C3311426   5.252   1.566   4.397  0.3399  0.3718  0.5175
  110SAPE   H3X11427   5.216   1.646   4.466  1.7048 -0.2185  1.9662
  110SAPE   H3Y11428   5.293   1.621   4.310  0.1377 -1.4095 -0.7479
  110SAPE   C3411429   5.362   1.497   4.463 -0.0301  0.0020 -0.4515
  110SAPE   H4X11430   5.452   1.554   4.433 -0.9418  1.3505 -0.6624
  110SAPE   H4Y11431   5.358   1.391   4.429 -0.4584  0.7059 -2.7434
  110SAPE   C3511432   5.345   1.510   4.612 -0.2351 -0.8412 -0.0367
  110SAPE   H5X11433   5.281   1.593   4.650  1.2348  0.5204 -0.3748
  110SAPE   H5Y11434   5.448   1.526   4.651 -0.5988 -1.0479  1.0550
  110SAPE   C3611435   5.296   1.383   4.681  0.6074 -0.0541  0.4653
  110SAPE   H6X11436   5.351   1.294   4.642  1.1587 -0.1560  1.4298
  110SAPE   H6Y11437   5.193   1.365   4.645  0.7349 -1.1972  0.6396
  110SAPE   C3711438   5.291   1.392   4.831  0.0792  0.7252  0.2845
  110SAPE   H7X11439   5.364   1.467   4.868  1.0536  0.0420 -0.2045
  110SAPE   H7Y11440   5.318   1.297   4.881 -0.2952  0.1227 -0.6235
  110SAPE   C3811441   5.155   1.440   4.878 -0.3599 -0.2117 -0.1981
  110SAPE   H8X11442   5.077   1.361   4.868 -0.9268  0.4089 -0.7676
  110SAPE   H8Y11443   5.127   1.530   4.819  0.1382 -0.7247 -1.2522
  110SAPE   C3911444   5.145   1.478   5.026  0.9922 -0.0216 -0.6495
  110SAPE   H9X11445   5.043   1.517   5.047 -0.3445 -3.1754 -0.7638
  110SAPE   H9Y11446   5.216   1.564   5.023  1.4647 -0.4122 -0.8512
  110SAPE  C31011447   5.176   1.366   5.126 -0.1676  0.4033 -0.3439
  110SAPE  H10X11448   5.272   1.317   5.100  0.6307  1.8232 -0.1460
  110SAPE  H10Y11449   5.096   1.290   5.113 -0.7735  1.2037 -1.5143
  110SAPE  C31111450   5.192   1.410   5.275 -0.1144  0.5202  0.5174
  110SAPE  H11X11451   5.091   1.451   5.297 -0.5342 -0.0263 -0.3321
  110SAPE  H11Y11452   5.274   1.485   5.285  1.8647 -1.5763  0.6353
  110SAPE  C31211453   5.219   1.299   5.380 -0.3824  0.4043 -0.4485
  110SAPE  H12X11454   5.319   1.254   5.364 -1.0859 -1.0255 -0.9959
  110SAPE  H12Y11455   5.143   1.219   5.363  0.0512 -0.2518  0.6571
  110SAPE  C31311456   5.214   1.341   5.528 -0.1345  0.2262  0.1306
  110SAPE  H13X11457   5.226   1.251   5.592  1.2447  0.2334 -0.0819
  110SAPE  H13Y11458   5.120   1.395   5.550 -0.0023  2.1644 -3.3238
  110SAPE  C31411459   5.330   1.440   5.554 -0.1530 -0.6348  0.7884
  110SAPE  H14X11460   5.317   1.541   5.509 -0.1151 -0.9435  0.0638
  110SAPE  H14Y11461   5.423   1.403   5.505 -1.1214  0.0629 -1.7453
  110SAPE  C31511462   5.376   1.460   5.702  0.1190  0.1959 -0.8306
  110SAPE  H15X11463   5.477   1.508   5.707 -0.2250  0.8824 -0.2113
  110SAPE  H15Y11464   5.391   1.358   5.741 -1.6392  0.3810  0.4313
  110SAPE  C31611465   5.273   1.522   5.801 -0.3884 -0.0559 -0.1866
  110SAPE  H16X11466   5.175   1.470   5.791 -0.4229  0.0335 -0.3158
  110SAPE  H16Y11467   5.250   1.623   5.763 -0.5037  0.0172  0.0745
  110SAPE  C31711468   5.303   1.520   5.952  0.4416  0.1295  0.7128
  110SAPE  H17X11469   5.323   1.418   5.991 -2.9669 -0.3211  1.5740
  110SAPE  H17Y11470   5.215   1.542   6.015  0.1136 -0.7358  0.5744
  110SAPE  C31811471   5.416   1.617   5.977 -0.1027  0.2225 -0.0299
  110SAPE  H18X11472   5.440   1.618   6.086  2.8328 -0.3700 -0.5875
  110SAPE  H18Y11473   5.379   1.716   5.943 -3.3778 -0.9367 -0.2056
  110SAPE  H18Z11474   5.506   1.590   5.917  0.9858  1.2728  1.0658
  111SAPE     N11475   1.207   6.311   4.189 -0.7488 -0.1677  0.1523
  111SAPE   HN111476   1.264   6.390   4.224  0.4909 -0.2173 -1.5917
  111SAPE   HN211477   1.265   6.230   4.160  0.1868  0.0337  1.3726
  111SAPE   HN311478   1.145   6.350   4.116  1.6231  2.3987 -0.6739
  111SAPE   C1211479   1.114   6.263   4.294  0.1543 -0.0349  0.7400
  111SAPE  H12A11480   1.010   6.280   4.257 -0.2307 -0.2630  1.6795
  111SAPE  H12B11481   1.123   6.329   4.383  1.6822 -1.2137  1.4990
  111SAPE   C1111482   1.145   6.117   4.337 -0.2888 -0.3583 -0.3931
  111SAPE  H11A11483   1.069   6.081   4.409 -0.7582 -0.8144 -1.0972
  111SAPE  H11B11484   1.244   6.114   4.387 -0.6893 -0.2451  0.4202
  111SAPE     P11485   1.194   5.889   4.230  0.3617  0.0086 -0.1524
  111SAPE   O1311486   1.085   5.791   4.199  0.0845 -0.3767 -0.2997
  111SAPE   O1411487   1.318   5.871   4.148  0.0524 -0.0157 -0.7235
  111SAPE   O1211488   1.143   6.038   4.220 -0.7668  0.3961  0.4880
  111SAPE   O1111489   1.228   5.882   4.384  0.1963  0.0986 -0.2894
  111SAPE    C111490   1.307   5.773   4.438 -0.2051 -0.5667  0.4008
  111SAPE    HA11491   1.384   5.750   4.362  0.2479 -1.6585  1.1740
  111SAPE    HB11492   1.355   5.802   4.534  0.2504 -1.0595  0.3257
  111SAPE    C211493   1.230   5.642   4.468  0.5635 -0.1770  0.7505
  111SAPE    HS11494   1.204   5.603   4.367  3.0975  1.7660 -0.7749
  111SAPE   O2111495   1.112   5.669   4.558 -0.0726 -0.6498 -0.1358
  111SAPE   C2111496   1.013   5.590   4.536 -0.3173  0.2032  0.0067
  111SAPE   O2211497   1.014   5.502   4.446 -0.1473  0.9203  0.1669
  111SAPE   C2211498   0.891   5.618   4.621 -0.1360  0.1696 -0.0201
  111SAPE   H2R11499   0.909   5.627   4.730  1.6290  0.8988 -0.3420
  111SAPE   H2S11500   0.851   5.718   4.594 -1.2564  0.3409  2.0246
  111SAPE    C311501   1.312   5.534   4.549 -0.5499  0.6480 -1.0776
  111SAPE    HX11502   1.400   5.513   4.483  1.1874  1.6109  0.8109
  111SAPE    HY11503   1.251   5.443   4.560 -1.4058  1.2719 -0.5566
  111SAPE   O3111504   1.352   5.597   4.676  0.0773 -0.0268  0.4132
  111SAPE   C3111505   1.266   5.578   4.780 -0.7612 -0.4581  0.0818
  111SAPE   O3211506   1.160   5.521   4.778  0.1320 -0.0070  0.3633
  111SAPE   C3211507   1.334   5.637   4.899  0.1188 -0.3333 -0.1809
  111SAPE   H2X11508   1.253   5.692   4.953  1.4414  1.0330  0.4939
  111SAPE   H2Y11509   1.412   5.711   4.871  1.1123 -1.4848 -0.5020
  111SAPE   C2311510   0.775   5.510   4.607  0.5414 -0.2085 -0.0998
  111SAPE   H3R11511   0.762   5.470   4.504  0.7845  0.8811 -0.5586
  111SAPE   H3S11512   0.685   5.565   4.641  0.3638 -1.4341  1.5691
  111SAPE   C2411513   0.801   5.383   4.696 -0.6906  0.4963  0.0515
  111SAPE   H4R11514   0.837   5.428   4.791  1.9670  0.1984 -0.7270
  111SAPE   H4S11515   0.887   5.329   4.651 -0.4216  0.4309  0.6347
  111SAPE   C2511516   0.690   5.279   4.711  0.5138 -0.1294  0.1490
  111SAPE   H5R11517   0.674   5.212   4.625 -1.4877 -0.1318  0.4667
  111SAPE   C2611518   0.603   5.268   4.809  0.0614  0.6406 -0.0720
  111SAPE   H6R11519   0.516   5.201   4.795  1.6593 -1.4041 -0.7496
  111SAPE   C2711520   0.606   5.349   4.932  0.4983  0.4429  0.2136
  111SAPE   H7R11521   0.508   5.401   4.937 -0.3450 -1.1158  0.3544
  111SAPE   H7S11522   0.696   5.414   4.934  0.4109  0.5615  1.7772
  111SAPE   C2811523   0.624   5.270   5.060  0.1181 -0.8268  0.1719
  111SAPE   H8R11524   0.713   5.205   5.056  0.1381 -0.7350 -1.9677
  111SAPE   C2911525   0.542   5.278   5.169 -0.5563  0.2864  0.1909
  111SAPE   H9R11526   0.560   5.212   5.255 -0.0707  2.3748  1.7712
  111SAPE  C21011527   0.404   5.346   5.175 -0.3980  0.0466  0.2392
  111SAPE  H10R11528   0.380   5.386   5.074  1.5167 -2.0149 -1.1288
  111SAPE  H10S11529   0.420   5.437   5.236  1.0542  0.1545 -0.2866
  111SAPE  C21111530   0.292   5.280   5.244  0.0982 -0.0647  0.2374
  111SAPE  H11R11531   0.214   5.240   5.177 -0.2554  1.9915 -0.6814
  111SAPE  C21211532   0.268   5.272   5.377  0.2282  0.2052 -0.1448
  111SAPE  H12R11533   0.181   5.214   5.408 -2.1935  4.2632  1.4288
  111SAPE  C21311534   0.338   5.345   5.489  0.0469 -0.4558  0.7177
  111SAPE  H13R11535   0.288   5.442   5.507  1.0317  0.3850 -0.8306
  111SAPE  H13S11536   0.446   5.366   5.469 -0.4464  3.3998  1.2329
  111SAPE  C21411537   0.320   5.266   5.618  0.4227 -0.3816 -0.6697
  111SAPE  H14R11538   0.336   5.157   5.609  1.6776 -0.6143  2.6970
  111SAPE  C21511539   0.265   5.312   5.736 -0.0987 -0.3194  0.0796
  111SAPE  H15R11540   0.252   5.247   5.824  0.6191 -1.3108 -0.5286
  111SAPE  C21611541   0.227   5.451   5.762  0.0840 -0.4542  0.5591
  111SAPE  H16R11542   0.116   5.454   5.767  0.1111 -1.0912  2.4820
  111SAPE  H16S11543   0.258   5.518   5.680 -0.1748  2.4644  2.6915
  111SAPE  C21711544   0.260   5.530   5.896  0.3652  0.1333 -0.0827
  111SAPE  H17R11545   0.222   5.471   5.982 -0.0026  2.2829  1.3256
  111SAPE  H17S11546   0.223   5.634   5.879  1.6359  0.2185 -2.8122
  111SAPE  C21811547   0.414   5.543   5.919 -0.1029  0.1499  0.4576
  111SAPE  H18R11548   0.455   5.581   5.823 -0.7804 -0.0739  0.0746
  111SAPE  H18S11549   0.444   5.436   5.932 -1.7492 -0.6855 -1.9975
  111SAPE  C21911550   0.457   5.633   6.033  0.1367  0.6002  0.0746
  111SAPE  H19R11551   0.426   5.601   6.134 -0.3132 -2.0238 -0.8163
  111SAPE  H19S11552   0.400   5.727   6.022 -0.9303  0.2459  2.1807
  111SAPE  C22011553   0.605   5.665   6.029 -0.8010 -0.0561 -0.1716
  111SAPE  H20R11554   0.671   5.581   6.058 -0.0874  0.8342  0.8808
  111SAPE  H20S11555   0.621   5.752   6.096  2.4683 -0.4153 -0.3088
  111SAPE  H20T11556   0.629   5.700   5.926 -0.2642  1.4082  0.4190
  111SAPE   C3311557   1.389   5.545   5.006 -0.0201 -0.2795 -0.3139
  111SAPE   H3X11558   1.487   5.509   4.967  1.2841  1.7186  0.9765
  111SAPE   H3Y11559   1.320   5.460   5.021  1.3640 -1.3637  0.1534
  111SAPE   C3411560   1.405   5.611   5.143 -0.3950  0.2810 -0.1290
  111SAPE   H4X11561   1.319   5.669   5.183  1.0249  2.6847 -0.3677
  111SAPE   H4Y11562   1.477   5.691   5.114 -0.7362  0.8420  0.5478
  111SAPE   C3511563   1.459   5.526   5.256  0.5411 -0.4959 -0.3044
  111SAPE   H5X11564   1.544   5.467   5.216  1.6300  0.6931  0.1861
  111SAPE   H5Y11565   1.389   5.442   5.276  0.5841 -0.5507 -0.3808
  111SAPE   C3611566   1.497   5.605   5.383  0.4440  0.1579  0.4443
  111SAPE   H6X11567   1.421   5.681   5.410  2.2582  1.5748  1.8700
  111SAPE   H6Y11568   1.593   5.657   5.362 -0.6264  1.1923 -2.3806
  111SAPE   C3711569   1.535   5.510   5.495 -0.4169 -0.1607 -0.3549
  111SAPE   H7X11570   1.588   5.571   5.572 -0.4980  1.0798 -1.2504
  111SAPE   H7Y11571   1.610   5.436   5.461  2.2289  0.5446  3.2969
  111SAPE   C3811572   1.420   5.450   5.564  0.2004  1.1712 -0.5420
  111SAPE   H8X11573   1.370   5.382   5.492  0.6526  0.5386 -0.2703
  111SAPE   H8Y11574   1.335   5.517   5.589 -1.2234 -0.5151 -0.6182
  111SAPE   C3911575   1.454   5.374   5.695  0.8699  0.5587 -0.0008
  111SAPE   H9X11576   1.354   5.335   5.723  1.0996  0.7200  1.1001
  111SAPE   H9Y11577   1.483   5.445   5.775  0.3108 -0.8907  1.5563
  111SAPE  C31011578   1.545   5.247   5.681  0.5743  0.2885  0.3208
  111SAPE  H10X11579   1.643   5.265   5.632  0.4296  0.3193  0.0388
  111SAPE  H10Y11580   1.491   5.176   5.616 -0.0413 -0.0824  1.2145
  111SAPE  C31111581   1.561   5.171   5.818  0.0311  0.1924  0.5034
  111SAPE  H11X11582   1.465   5.177   5.873 -0.5516 -0.4738 -0.4093
  111SAPE  H11Y11583   1.633   5.239   5.869 -1.2908  2.1370 -0.0962
  111SAPE  C31211584   1.618   5.033   5.816  0.0076  0.5690  0.4680
  111SAPE  H12X11585   1.719   5.045   5.770  0.2289 -0.0683  0.7695
  111SAPE  H12Y11586   1.563   4.966   5.746 -0.9281  2.7887 -1.0231
  111SAPE  C31311587   1.647   4.970   5.954 -0.1310  0.0765  0.4598
  111SAPE  H13X11588   1.688   5.043   6.027  0.3047 -0.9951  1.3042
  111SAPE  H13Y11589   1.723   4.895   5.923 -2.0717 -0.7717 -2.7344
  111SAPE  C31411590   1.518   4.905   6.005  0.2432 -0.1910 -0.0506
  111SAPE  H14X11591   1.513   4.808   5.950 -0.9383  0.8363 -1.8373
  111SAPE  H14Y11592   1.429   4.968   5.986  1.5911  1.9275  0.3120
  111SAPE  C31511593   1.538   4.867   6.154 -0.4343  0.5785 -0.0482
  111SAPE  H15X11594   1.589   4.953   6.203 -3.0104  2.4337 -0.4381
  111SAPE  H15Y11595   1.602   4.776   6.158 -1.4533 -0.1190  1.9511
  111SAPE  C31611596   1.406   4.845   6.222  0.6630  0.0996 -0.8307
  111SAPE  H16X11597   1.368   4.755   6.168  1.4696 -0.7210 -0.0641
  111SAPE  H16Y11598   1.348   4.939   6.212  0.7617  0.1037 -1.3660
  111SAPE  C31711599   1.415   4.811   6.375 -0.4425 -0.5252  0.4385
  111SAPE  H17X11600   1.484   4.883   6.424  1.3439 -2.2363  0.5559
  111SAPE  H17Y11601   1.474   4.717   6.379 -0.6863 -0.9056 -2.4629
  111SAPE  C31811602   1.279   4.811   6.440  0.5611 -0.0339  0.2991
  111SAPE  H18X11603   1.292   4.759   6.538  1.5147  0.0595  0.2382
  111SAPE  H18Y11604   1.193   4.762   6.390 -0.5809 -0.8661  2.8817
  111SAPE  H18Z11605   1.247   4.914   6.465  1.2011 -0.0914  1.4461
  112SAPE     N11606   0.904   1.080   3.792  0.3231 -0.1262  0.2432
  112SAPE   HN111607   0.888   1.175   3.753 -0.4363  0.2408  1.4044
  112SAPE   HN211608   0.972   1.028   3.732 -1.5141 -0.8717 -1.3031
  112SAPE   HN311609   0.811   1.032   3.791  0.7423 -0.9565 -0.3785
  112SAPE   C1211610   0.959   1.095   3.932 -0.0903 -0.9647  0.0997
  112SAPE  H12A11611   0.877   1.125   4.001  0.2108 -0.2086  0.1322
  112SAPE  H12B11612   1.053   1.153   3.939 -0.1531 -0.8773  0.2198
  112SAPE   C1111613   1.004   0.946   3.978  0.2846  0.2548  0.9628
  112SAPE  H11A11614   0.920   0.874   3.986  0.8589 -0.3993  1.1640
  112SAPE  H11B11615   1.051   0.952   4.079  0.9581  4.0187  0.5821
  112SAPE     P11616   1.179   0.762   3.902  0.1368 -0.2172  0.0694
  112SAPE   O1311617   1.093   0.671   3.820  0.1134 -0.1345 -0.4705
  112SAPE   O1411618   1.320   0.778   3.860 -0.0069 -0.2467  0.0636
  112SAPE   O1211619   1.114   0.902   3.892 -0.3344 -0.9251  0.0409
  112SAPE   O1111620   1.168   0.717   4.052  0.2955 -0.2812  0.8736
  112SAPE    C111621   1.282   0.732   4.139  0.2185  0.4284 -0.4935
  112SAPE    HA11622   1.347   0.654   4.095 -1.8499 -0.4181 -2.3001
  112SAPE    HB11623   1.338   0.827   4.129  0.5543  0.3688  0.7149
  112SAPE    C211624   1.246   0.702   4.290  0.1191 -0.5819 -0.5888
  112SAPE    HS11625   1.340   0.671   4.339  0.8694  1.0915 -0.8948
  112SAPE   O2111626   1.142   0.603   4.296 -0.7039 -0.6178  0.4452
  112SAPE   C2111627   1.153   0.510   4.389  0.4389 -0.2587  0.1353
  112SAPE   O2211628   1.233   0.506   4.476  0.1444  0.3867  0.1265
  112SAPE   C2211629   1.057   0.399   4.345 -0.0235 -0.3703 -0.1699
  112SAPE   H2R11630   1.046   0.414   4.235 -2.3098 -0.8542 -0.0573
  112SAPE   H2S11631   1.096   0.299   4.370 -3.3474 -1.4472  1.3041
  112SAPE    C311632   1.175   0.826   4.365  0.6248  0.1715  0.0894
  112SAPE    HX11633   1.089   0.855   4.301  0.7956  0.1073 -0.1671
  112SAPE    HY11634   1.247   0.910   4.355  1.5943 -0.5805  0.5852
  112SAPE   O3111635   1.143   0.790   4.501  0.2658 -0.6272  0.2649
  112SAPE   C3111636   1.019   0.792   4.532  0.2413 -0.2337 -0.4940
  112SAPE   O3211637   0.921   0.807   4.460 -0.5351 -0.0788  0.0024
  112SAPE   C3211638   1.012   0.780   4.681 -0.2994  0.5986  0.5921
  112SAPE   H2X11639   1.080   0.859   4.718 -0.9502  1.8421 -0.7910
  112SAPE   H2Y11640   1.066   0.687   4.708  0.5178  0.5296 -1.1665
  112SAPE   C2311641   0.914   0.402   4.391  0.4130 -0.6688 -0.3621
  112SAPE   H3R11642   0.846   0.347   4.321 -0.0449 -1.2080  0.4882
  112SAPE   H3S11643   0.879   0.506   4.403  0.9317 -0.6646  1.3066
  112SAPE   C2411644   0.891   0.342   4.525  0.3022 -0.3906 -0.8271
  112SAPE   H4R11645   0.949   0.395   4.604 -2.3438 -1.9291  2.4289
  112SAPE   H4S11646   0.923   0.236   4.532  0.3715 -0.2837  1.2961
  112SAPE   C2511647   0.739   0.342   4.563 -0.5957  0.0447  0.2143
  112SAPE   H5R11648   0.668   0.317   4.482  1.6124  0.2609 -1.9084
  112SAPE   C2611649   0.681   0.386   4.678 -0.0969  0.1162  0.7088
  112SAPE   H6R11650   0.574   0.369   4.694 -0.2032  1.0907  1.1070
  112SAPE   C2711651   0.744   0.438   4.804  0.5975 -0.5474 -0.0968
  112SAPE   H7R11652   0.681   0.520   4.844 -0.9509 -1.1613 -1.2051
  112SAPE   H7S11653   0.842   0.485   4.780 -0.3897  1.8855  0.3840
  112SAPE   C2811654   0.772   0.320   4.900  0.3562  0.0380  0.2126
  112SAPE   H8R11655   0.846   0.247   4.864 -0.5737 -0.2958 -1.0956
  112SAPE   C2911656   0.706   0.292   5.015  0.5752 -0.1561  0.5262
  112SAPE   H9R11657   0.723   0.201   5.076 -2.0961  0.5466  2.4954
  112SAPE  C21011658   0.606   0.387   5.078 -0.4190 -0.4299  0.2726
  112SAPE  H10R11659   0.539   0.334   5.149 -1.6280  1.0256  0.2595
  112SAPE  H10S11660   0.546   0.431   4.996  1.7141  1.9834 -0.1431
  112SAPE  C21111661   0.665   0.511   5.151  0.0777  0.3463 -0.6335
  112SAPE  H11R11662   0.638   0.612   5.114 -2.3034  0.4441  1.0791
  112SAPE  C21211663   0.744   0.509   5.260  0.9882 -0.1887 -0.0330
  112SAPE  H12R11664   0.788   0.604   5.292  2.8842 -0.7169 -0.9177
  112SAPE  C21311665   0.803   0.385   5.328  0.4055 -0.3035 -0.3467
  112SAPE  H13R11666   0.904   0.389   5.374 -0.2961 -2.6205  1.6012
  112SAPE  H13S11667   0.823   0.304   5.255  3.8658  2.1818 -2.4502
  112SAPE  C21411668   0.698   0.340   5.426  0.3895  0.1580 -0.1861
  112SAPE  H14R11669   0.601   0.306   5.387  0.0721 -0.1946  0.8666
  112SAPE  C21511670   0.702   0.327   5.558 -0.2222 -0.0957 -0.2644
  112SAPE  H15R11671   0.621   0.281   5.616  1.8398 -1.2150  1.9604
  112SAPE  C21611672   0.821   0.360   5.646 -0.2069  0.4773 -0.1165
  112SAPE  H16R11673   0.812   0.461   5.692 -0.1689  0.8121 -0.8313
  112SAPE  H16S11674   0.911   0.381   5.584 -0.1410  0.7208  0.0569
  112SAPE  C21711675   0.865   0.259   5.751  1.1889  0.0065 -0.1321
  112SAPE  H17R11676   0.962   0.295   5.792  1.5942  1.2704 -2.0560
  112SAPE  H17S11677   0.896   0.164   5.703  1.2749  0.1740 -0.4080
  112SAPE  C21811678   0.764   0.231   5.865  0.8048 -0.4748 -0.2439
  112SAPE  H18R11679   0.800   0.159   5.942 -0.8474 -0.0029  1.0427
  112SAPE  H18S11680   0.670   0.182   5.831 -0.5241  1.3088  0.6963
  112SAPE  C21911681   0.718   0.352   5.942  1.1942  0.6174  0.0309
  112SAPE  H19R11682   0.644   0.323   6.020 -0.5770  1.8665 -1.0855
  112SAPE  H19S11683   0.673   0.422   5.868 -1.6207 -2.1287 -1.1020
  112SAPE  C22011684   0.835   0.418   6.015  0.3148 -1.0587 -0.2330
  112SAPE  H20R11685   0.876   0.325   6.061  0.6127 -0.7948  0.0382
  112SAPE  H20S11686   0.792   0.481   6.095  1.9872  0.2606 -0.3102
  112SAPE  H20T11687   0.914   0.478   5.964  0.4452 -2.3414 -1.6095
  112SAPE   C3311688   0.863   0.801   4.736  0.3867  0.1690  0.6113
  112SAPE   H3X11689   0.793   0.727   4.693  0.3821 -1.1680  2.7604
  112SAPE   H3Y11690   0.820   0.900   4.710 -1.3737 -0.6518  0.2525
  112SAPE   C3411691   0.848   0.792   4.885  0.3595 -0.1474  0.7491
  112SAPE   H4X11692   0.874   0.688   4.915  0.5339 -1.5657 -3.5724
  112SAPE   H4Y11693   0.741   0.815   4.903 -0.1973 -1.8368 -0.1832
  112SAPE   C3511694   0.942   0.876   4.968  0.8299  0.9174 -0.5908
  112SAPE   H5X11695   0.920   0.982   4.943 -0.9039  0.8138  0.2772
  112SAPE   H5Y11696   1.050   0.858   4.953  0.7019  0.1710 -0.6578
  112SAPE   C3611697   0.907   0.856   5.119  0.1491  0.2374  0.2147
  112SAPE   H6X11698   0.927   0.748   5.139  0.5824  0.2608 -0.0950
  112SAPE   H6Y11699   0.800   0.885   5.124  0.3465  0.9046  0.9203
  112SAPE   C3711700   0.995   0.945   5.212  0.3101  0.9253 -0.5876
  112SAPE   H7X11701   1.007   1.048   5.174  0.4649  0.9178 -0.5568
  112SAPE   H7Y11702   1.095   0.901   5.230  0.4414  1.0091 -1.1175
  112SAPE   C3811703   0.928   0.964   5.351  1.3619 -0.0422  0.2950
  112SAPE   H8X11704   0.908   0.864   5.395 -1.1073 -0.5118 -1.6612
  112SAPE   H8Y11705   0.826   1.006   5.338  1.7728  1.3156  1.2416
  112SAPE   C3911706   1.013   1.057   5.444 -0.0062 -0.0391 -0.3523
  112SAPE   H9X11707   0.996   1.160   5.406  1.7381  0.3174 -0.2563
  112SAPE   H9Y11708   1.117   1.025   5.420 -0.4130 -3.1764  1.5350
  112SAPE  C31011709   0.985   1.040   5.590  0.4927  0.3215 -0.1533
  112SAPE  H10X11710   1.017   0.946   5.639 -3.0223 -0.9420 -0.0272
  112SAPE  H10Y11711   0.875   1.038   5.606  0.7164 -3.5781  1.9379
  112SAPE  C31111712   1.052   1.154   5.664  0.1576 -1.1581 -0.3441
  112SAPE  H11X11713   1.034   1.247   5.607 -2.8375 -1.0303  0.6463
  112SAPE  H11Y11714   1.159   1.143   5.691  0.1806 -0.1801 -0.0222
  112SAPE  C31211715   0.987   1.192   5.801 -0.6390 -0.3267  0.2561
  112SAPE  H12X11716   0.878   1.206   5.791 -0.6676  0.5717  1.6420
  112SAPE  H12Y11717   1.041   1.285   5.831  1.8736 -0.4618 -3.2075
  112SAPE  C31311718   1.012   1.091   5.920  0.2423 -0.0626 -0.5179
  112SAPE  H13X11719   1.117   1.095   5.955  0.1308  0.1797 -0.2032
  112SAPE  H13Y11720   0.982   0.991   5.883 -1.6057  0.3832 -0.3444
  112SAPE  C31411721   0.919   1.118   6.035 -0.2042 -0.7637  0.6377
  112SAPE  H14X11722   0.813   1.116   6.001 -0.0348  0.3252 -0.0189
  112SAPE  H14Y11723   0.940   1.210   6.095  0.9826  0.7067 -1.8833
  112SAPE  C31511724   0.918   1.010   6.149  0.1083 -0.0508  0.3645
  112SAPE  H15X11725   1.021   0.999   6.187 -0.0968 -0.3609  0.8317
  112SAPE  H15Y11726   0.887   0.911   6.109  0.7627 -1.1939  2.5543
  112SAPE  C31611727   0.826   1.052   6.267  0.6048  0.8619 -0.5362
  112SAPE  H16X11728   0.736   1.100   6.225  1.5229  1.7099 -1.6066
  112SAPE  H16Y11729   0.878   1.131   6.325  1.2012  1.1389 -1.4255
  112SAPE  C31711730   0.789   0.928   6.361  0.4793  0.4633  0.0153
  112SAPE  H17X11731   0.879   0.872   6.394  1.2130  1.5690 -0.0199
  112SAPE  H17Y11732   0.738   0.853   6.297  0.5575  1.0090 -0.7038
  112SAPE  C31811733   0.709   0.963   6.486 -0.0602 -0.2262  0.2415
  112SAPE  H18X11734   0.608   0.998   6.455  0.0171  0.8570  1.1594
  112SAPE  H18Y11735   0.767   1.042   6.538  1.1603  0.3631 -1.8847
  112SAPE  H18Z11736   0.707   0.876   6.555 -1.2013  0.9256  1.7123
  113SAPE     N11737   1.115   6.799   4.168  0.6884 -0.6821 -0.1064
  113SAPE   HN111738   1.086   6.728   4.239 -0.0434 -0.5970 -0.3119
  113SAPE   HN211739   1.039   6.866   4.190 -1.2699 -2.0110 -2.2200
  113SAPE   HN311740   1.101   6.763   4.071 -0.1707  0.3900 -0.3961
  113SAPE   C1211741   1.257   6.846   4.202 -0.3101 -0.4899  0.1361
  113SAPE  H12A11742   1.264   6.949   4.163  1.6039 -0.5869  0.1149
  113SAPE  H12B11743   1.332   6.779   4.154  0.4832  1.0955 -0.9096
  113SAPE   C1111744   1.265   6.854   4.356  0.1246  1.0905  0.7139
  113SAPE  H11A11745   1.187   6.927   4.388 -0.5916  1.0912 -0.9420
  113SAPE  H11B11746   1.368   6.890   4.375  0.3746  1.4496 -1.0929
  113SAPE     P11747   1.332   6.601   4.423 -0.1589 -0.2913  0.0938
  113SAPE   O1311748   1.330   6.529   4.292  0.1087  0.3904 -0.4591
  113SAPE   O1411749   1.464   6.639   4.475 -0.2710 -0.7234 -0.2384
  113SAPE   O1211750   1.235   6.724   4.415 -0.3438  0.3405 -0.1888
  113SAPE   O1111751   1.260   6.512   4.526  0.2225  0.2236  0.1027
  113SAPE    C111752   1.145   6.536   4.592 -0.4616 -0.6297  0.3656
  113SAPE    HA11753   1.090   6.623   4.549  0.9244 -0.8963 -2.1103
  113SAPE    HB11754   1.077   6.449   4.606 -2.2913  0.9281  1.8909
  113SAPE    C211755   1.177   6.571   4.747  0.3449  0.2724 -0.5600
  113SAPE    HS11756   1.075   6.579   4.791  0.1899 -0.4348 -0.7705
  113SAPE   O2111757   1.257   6.693   4.750  0.5786  0.6836 -0.1509
  113SAPE   C2111758   1.179   6.801   4.738  0.1123 -0.8375  0.3283
  113SAPE   O2211759   1.059   6.807   4.724  0.2344 -0.4356  0.4508
  113SAPE   C2211760   1.271   6.923   4.738  0.5982  0.6799  0.4122
  113SAPE   H2R11761   1.324   6.932   4.836  1.4050  0.4142  0.0115
  113SAPE   H2S11762   1.348   6.897   4.662  0.7509 -0.9962  1.0912
  113SAPE    C311763   1.252   6.455   4.824 -0.3694 -0.6987 -0.4346
  113SAPE    HX11764   1.341   6.437   4.760 -0.2555 -0.0719 -0.4634
  113SAPE    HY11765   1.186   6.366   4.814 -1.2665 -0.1376  0.3429
  113SAPE   O3111766   1.257   6.483   4.960 -0.1189 -0.0227  0.3662
  113SAPE   C3111767   1.386   6.474   5.004 -0.0455  0.6277  0.6065
  113SAPE   O3211768   1.482   6.436   4.938 -0.3876 -0.2948  0.1614
  113SAPE   C3211769   1.390   6.509   5.147  0.0004 -0.1473  1.7269
  113SAPE   H2X11770   1.378   6.414   5.204  0.9964 -1.2399  0.1781
  113SAPE   H2Y11771   1.300   6.564   5.181 -0.3573  0.2965  0.1289
  113SAPE   C2311772   1.203   7.057   4.693 -0.7605 -0.3520 -0.3571
  113SAPE   H3R11773   1.138   7.038   4.605 -1.4247 -0.9928  0.2571
  113SAPE   H3S11774   1.291   7.122   4.672 -1.7241  1.1514  0.0425
  113SAPE   C2411775   1.124   7.127   4.802 -0.4098  0.2413  0.1826
  113SAPE   H4R11776   1.031   7.067   4.808 -1.0053  1.1843  0.7260
  113SAPE   H4S11777   1.089   7.223   4.756 -0.5431  0.2018  0.2014
  113SAPE   C2511778   1.189   7.154   4.941  0.7698  0.1025  0.3462
  113SAPE   H5R11779   1.256   7.240   4.929  0.4504  0.0892 -2.0506
  113SAPE   C2611780   1.179   7.090   5.057  0.1033 -0.1277 -0.1245
  113SAPE   H6R11781   1.227   7.143   5.140 -0.0259 -0.7301  0.3444
  113SAPE   C2711782   1.110   6.964   5.080  0.5141 -0.0893 -0.3800
  113SAPE   H7R11783   1.085   6.905   4.989  0.1504 -0.0795 -0.2871
  113SAPE   H7S11784   1.007   6.978   5.120  0.6062  0.7000 -0.4160
  113SAPE   C2811785   1.198   6.882   5.170 -0.1974 -0.4951 -0.4314
  113SAPE   H8R11786   1.302   6.883   5.135 -0.6423  0.2367 -1.7674
  113SAPE   C2911787   1.177   6.846   5.298 -0.6834 -0.3146 -0.0982
  113SAPE   H9R11788   1.260   6.797   5.352 -1.5848 -0.5816  1.0835
  113SAPE  C21011789   1.047   6.850   5.373 -0.8430 -0.2309  0.5029
  113SAPE  H10R11790   1.005   6.747   5.377  0.1495 -0.7020 -0.5790
  113SAPE  H10S11791   0.976   6.917   5.321 -1.9088 -1.9930 -0.4379
  113SAPE  C21111792   1.068   6.911   5.510 -0.6711 -0.0775 -0.4063
  113SAPE  H11R11793   1.051   7.019   5.519  0.8483  0.1676 -0.0490
  113SAPE  C21211794   1.098   6.835   5.619  0.5758 -0.7527 -1.0028
  113SAPE  H12R11795   1.111   6.890   5.713  0.5806 -1.9316 -0.2849
  113SAPE  C21311796   1.102   6.683   5.636  0.3034  0.4209 -0.1946
  113SAPE  H13R11797   1.100   6.626   5.541 -2.7992  1.4289 -0.8542
  113SAPE  H13S11798   1.008   6.658   5.690  0.3566 -0.3100 -0.4431
  113SAPE  C21411799   1.230   6.647   5.710 -0.0325 -0.2037 -0.2978
  113SAPE  H14R11800   1.312   6.641   5.637 -2.1112  1.4874 -2.9588
  113SAPE  C21511801   1.251   6.635   5.845  0.2039  0.2986 -0.5985
  113SAPE  H15R11802   1.346   6.607   5.893 -0.5972 -0.7414  0.4305
  113SAPE  C21611803   1.136   6.662   5.940 -0.3834  0.9447  0.2342
  113SAPE  H16R11804   1.115   6.572   6.002 -1.0576  1.2684  0.4795
  113SAPE  H16S11805   1.044   6.709   5.900 -1.4643 -1.2951 -0.0857
  113SAPE  C21711806   1.188   6.761   6.052 -0.0250  0.2854 -0.0354
  113SAPE  H17R11807   1.197   6.855   5.993 -0.2423  0.0372 -0.4708
  113SAPE  H17S11808   1.288   6.747   6.096 -0.4551  0.6505  1.1048
  113SAPE  C21811809   1.084   6.796   6.165  0.2009  0.7977 -0.1560
  113SAPE  H18R11810   1.057   6.703   6.220  0.4090  0.8477  0.0311
  113SAPE  H18S11811   0.985   6.821   6.120  0.4326  1.6324 -0.2072
  113SAPE  C21911812   1.133   6.892   6.271  0.1130 -0.0080 -0.5367
  113SAPE  H19R11813   1.126   6.996   6.231 -2.0720 -0.4027 -1.3100
  113SAPE  H19S11814   1.234   6.860   6.307  0.3697  1.0506 -0.2882
  113SAPE  C22011815   1.026   6.886   6.381 -0.9391  0.3795  0.2916
  113SAPE  H20R11816   0.995   6.781   6.400  1.7647 -0.1548  2.3342
  113SAPE  H20S11817   0.941   6.951   6.352 -0.6801  0.1258 -1.1113
  113SAPE  H20T11818   1.067   6.923   6.478  0.7312 -0.1032 -0.1897
  113SAPE   C3311819   1.524   6.581   5.175 -0.4501 -0.1899  0.5296
  113SAPE   H3X11820   1.532   6.674   5.116  2.8305  1.4724  3.2346
  113SAPE   H3Y11821   1.615   6.520   5.153  1.2957  1.2223  3.2674
  113SAPE   C3411822   1.535   6.620   5.327  0.4903 -0.2478  0.1262
  113SAPE   H4X11823   1.550   6.530   5.391 -0.6972 -0.3946  0.2153
  113SAPE   H4Y11824   1.440   6.663   5.364  1.5042  0.8969  1.5085
  113SAPE   C3511825   1.646   6.716   5.370 -0.7132 -0.5472  0.0327
  113SAPE   H5X11826   1.623   6.812   5.320 -1.3141 -1.9614 -2.5587
  113SAPE   H5Y11827   1.743   6.680   5.331  0.8819  1.0918  2.2593
  113SAPE   C3611828   1.652   6.741   5.525 -0.5735  0.6598 -0.2246
  113SAPE   H6X11829   1.658   6.636   5.561 -0.3549 -0.1207 -2.3885
  113SAPE   H6Y11830   1.554   6.785   5.555  0.4847  2.2509  1.0228
  113SAPE   C3711831   1.756   6.836   5.582  0.7475  0.8840  0.0725
  113SAPE   H7X11832   1.749   6.930   5.525  0.1962  0.4332 -0.6172
  113SAPE   H7Y11833   1.855   6.789   5.559 -0.3575 -0.8605 -1.4053
  113SAPE   C3811834   1.752   6.857   5.734  0.5752 -0.6508 -0.6857
  113SAPE   H8X11835   1.649   6.874   5.772  0.8352 -3.2685  1.5708
  113SAPE   H8Y11836   1.782   6.759   5.778  1.2690 -0.3606 -0.4929
  113SAPE   C3911837   1.855   6.974   5.768 -0.0030 -0.0311  0.0642
  113SAPE   H9X11838   1.831   7.069   5.717 -1.0791 -1.1383 -1.5973
  113SAPE   H9Y11839   1.951   6.950   5.716  0.1637  1.2169 -0.2242
  113SAPE  C31011840   1.893   7.000   5.916  0.4112  1.1502 -0.6955
  113SAPE  H10X11841   1.802   6.999   5.980  0.6546 -0.4980 -0.3112
  113SAPE  H10Y11842   1.945   7.097   5.928 -2.0221  2.4767 -0.2856
  113SAPE  C31111843   1.974   6.892   5.994 -0.1597 -0.2080  0.1661
  113SAPE  H11X11844   2.058   6.851   5.933 -0.6607 -1.1669  0.0921
  113SAPE  H11Y11845   1.902   6.808   6.005  0.0682 -0.6417 -1.3638
  113SAPE  C31211846   2.022   6.940   6.132  0.1705 -0.7922 -0.5316
  113SAPE  H12X11847   1.933   6.968   6.192 -0.5841  3.1614 -3.1190
  113SAPE  H12Y11848   2.073   7.038   6.117 -1.9573  0.2891 -0.9608
  113SAPE  C31311849   2.112   6.839   6.201 -0.0558 -0.2079 -0.2500
  113SAPE  H13X11850   2.060   6.741   6.207  0.9189 -0.7825 -0.8304
  113SAPE  H13Y11851   2.133   6.864   6.307 -3.3287 -0.6544  0.6074
  113SAPE  C31411852   2.257   6.818   6.144 -0.5748 -0.3462  0.0772
  113SAPE  H14X11853   2.291   6.921   6.121 -3.3372  0.5124 -0.6832
  113SAPE  H14Y11854   2.255   6.773   6.042  0.0551  2.4997 -1.2781
  113SAPE  C31511855   2.359   6.758   6.247  0.0022 -0.2572  0.0432
  113SAPE  H15X11856   2.359   6.823   6.337 -1.7282  0.1706 -0.2345
  113SAPE  H15Y11857   2.457   6.769   6.196 -0.2691 -2.1965 -1.0077
  113SAPE  C31611858   2.321   6.611   6.277 -0.6986 -0.3485 -0.3540
  113SAPE  H16X11859   2.300   6.553   6.185 -0.9155 -0.9610  0.0701
  113SAPE  H16Y11860   2.229   6.614   6.340 -1.1060 -1.5117 -0.8665
  113SAPE  C31711861   2.430   6.535   6.357  0.1094 -0.7178  1.0351
  113SAPE  H17X11862   2.453   6.604   6.441  0.8247 -0.1368  0.3723
  113SAPE  H17Y11863   2.527   6.534   6.304  1.3103  0.1301  3.0781
  113SAPE  C31811864   2.384   6.397   6.409 -0.6447 -0.3760  0.1711
  113SAPE  H18X11865   2.284   6.413   6.455 -1.0331 -2.1661  0.0082
  113SAPE  H18Y11866   2.456   6.366   6.488 -0.1449  2.5949  1.0323
  113SAPE  H18Z11867   2.361   6.325   6.328  0.0153 -0.5191  0.1076
  114SAPE     N11868   0.200   2.285   3.970  0.1465  1.0543  0.0642
  114SAPE   HN111869   0.166   2.226   3.892  3.3778  0.5178 -1.1298
  114SAPE   HN211870   0.232   2.376   3.932 -0.9814  0.7660 -1.6882
  114SAPE   HN311871   0.282   2.225   3.994 -1.4903 -2.0222 -1.5456
  114SAPE   C1211872   0.097   2.288   4.075  0.1628 -0.5464  0.1158
  114SAPE  H12A11873   0.019   2.357   4.037  0.9754 -0.6876 -1.9057
  114SAPE  H12B11874   0.133   2.342   4.165 -1.5055 -0.0764  0.5429
  114SAPE   C1111875   0.031   2.149   4.091  0.2843  0.3819 -0.0094
  114SAPE  H11A11876  -0.022   2.130   3.996 -1.2368  3.1917  0.1994
  114SAPE  H11B11877  -0.044   2.143   4.173  1.0546 -1.3583  0.6417
  114SAPE     P11878   0.082   1.906   4.164 -0.1555 -0.1969  0.2438
  114SAPE   O1311879  -0.047   1.881   4.092 -0.4935  0.1630  0.1662
  114SAPE   O1411880   0.193   1.815   4.130  0.0045  0.4395 -0.0996
  114SAPE   O1211881   0.129   2.050   4.115  0.0129  0.4652  0.1171
  114SAPE   O1111882   0.068   1.895   4.325  0.2706 -0.5467  0.3097
  114SAPE    C111883   0.090   2.012   4.408 -0.5373  0.2750 -0.5214
  114SAPE    HA11884   0.061   2.105   4.356 -0.6432  0.7156  0.3120
  114SAPE    HB11885   0.032   1.989   4.500 -0.6777  0.4192 -0.5743
  114SAPE    C211886   0.244   2.023   4.441  0.5280 -0.0976 -0.3141
  114SAPE    HS11887   0.283   2.058   4.343 -3.2039 -0.0162 -1.9761
  114SAPE   O2111888   0.290   1.897   4.489 -0.3848  0.3045  0.1190
  114SAPE   C2111889   0.405   1.859   4.442  0.0396  0.5669 -0.5037
  114SAPE   O2211890   0.468   1.910   4.353  0.0952 -0.0362 -0.8068
  114SAPE   C2211891   0.451   1.744   4.528  0.3448 -0.0523 -0.6123
  114SAPE   H2R11892   0.382   1.657   4.526  0.0675  0.0063  2.3852
  114SAPE   H2S11893   0.541   1.698   4.480  2.2561  1.8704  0.9089
  114SAPE    C311894   0.279   2.132   4.548 -0.4385 -0.1978  0.7103
  114SAPE    HX11895   0.223   2.102   4.639 -1.3270  1.8442  0.8992
  114SAPE    HY11896   0.248   2.236   4.524  0.9793  0.4214  1.4315
  114SAPE   O3111897   0.423   2.145   4.574  0.3914 -0.1124  0.2008
  114SAPE   C3111898   0.494   2.198   4.483 -0.0589  0.1491  0.0338
  114SAPE   O3211899   0.460   2.227   4.370 -0.6377  0.1414 -0.1976
  114SAPE   C3211900   0.642   2.204   4.542 -0.2113 -0.0812 -0.3404
  114SAPE   H2X11901   0.714   2.152   4.475 -1.0508 -1.0450 -0.5190
  114SAPE   H2Y11902   0.644   2.144   4.635 -1.1857 -0.2334 -0.4059
  114SAPE   C2311903   0.489   1.786   4.665 -0.3423 -0.0051 -0.9827
  114SAPE   H3R11904   0.399   1.822   4.719  1.2475 -0.6829  2.3737
  114SAPE   H3S11905   0.558   1.872   4.653 -1.6165  0.8121 -2.9331
  114SAPE   C2411906   0.560   1.672   4.742  0.0601 -0.0678 -0.0619
  114SAPE   H4R11907   0.619   1.604   4.677 -1.1038  0.7549 -2.0869
  114SAPE   H4S11908   0.481   1.612   4.792 -1.8814  2.0744 -0.3912
  114SAPE   C2511909   0.649   1.733   4.848  0.5646  0.0052 -0.2985
  114SAPE   H5R11910   0.753   1.763   4.828  1.4555 -0.2997  3.1918
  114SAPE   C2611911   0.618   1.750   4.980 -0.1237 -0.2407  0.4450
  114SAPE   H6R11912   0.699   1.796   5.038 -0.9824  0.3336  1.2096
  114SAPE   C2711913   0.492   1.713   5.052 -0.6196 -0.1275 -0.2495
  114SAPE   H7R11914   0.407   1.709   4.980 -0.7606  1.3610 -0.1911
  114SAPE   H7S11915   0.464   1.793   5.124 -0.4289  0.2437 -0.5842
  114SAPE   C2811916   0.507   1.589   5.133  0.3701  0.7100  0.2854
  114SAPE   H8R11917   0.520   1.504   5.064  0.8491  1.5875 -0.7136
  114SAPE   C2911918   0.507   1.569   5.260 -0.1801 -0.0068 -0.8570
  114SAPE   H9R11919   0.518   1.466   5.299 -0.9144 -0.3501 -1.5161
  114SAPE  C21011920   0.485   1.674   5.368 -0.7569 -0.2532  1.1001
  114SAPE  H10R11921   0.410   1.619   5.430 -0.2045 -1.5284  0.6671
  114SAPE  H10S11922   0.429   1.764   5.334 -1.5752 -0.6934  1.2417
  114SAPE  C21111923   0.622   1.715   5.425 -0.3733 -0.2357 -0.2189
  114SAPE  H11R11924   0.709   1.728   5.358  1.1705 -1.5207  1.4279
  114SAPE  C21211925   0.660   1.750   5.549 -0.0791  0.4898  0.0918
  114SAPE  H12R11926   0.766   1.777   5.561 -0.6057  2.6883  0.2954
  114SAPE  C21311927   0.569   1.732   5.670 -0.1222  0.7720 -0.0814
  114SAPE  H13R11928   0.633   1.693   5.752 -0.5795  1.2790  0.5333
  114SAPE  H13S11929   0.496   1.656   5.637  2.2262 -0.9220 -1.6983
  114SAPE  C21411930   0.510   1.857   5.717 -0.1716  0.3511 -0.6915
  114SAPE  H14R11931   0.508   1.943   5.647  0.3837  0.9214 -0.0251
  114SAPE  C21511932   0.456   1.880   5.838  0.0776 -0.1182  0.4182
  114SAPE  H15R11933   0.414   1.977   5.869  0.8252 -0.4527  2.6304
  114SAPE  C21611934   0.446   1.781   5.949 -0.2883  0.3003  0.3241
  114SAPE  H16R11935   0.458   1.674   5.923 -1.1368 -0.1743  1.7700
  114SAPE  H16S11936   0.339   1.782   5.981 -1.5765 -1.9289 -3.3074
  114SAPE  C21711937   0.537   1.802   6.076 -0.2357 -0.1132  0.4739
  114SAPE  H17R11938   0.640   1.765   6.059 -0.7514 -1.5048  0.2624
  114SAPE  H17S11939   0.503   1.745   6.165  1.1400  0.8598  1.6658
  114SAPE  C21811940   0.552   1.953   6.114 -0.0680  0.5144 -0.2736
  114SAPE  H18R11941   0.454   2.001   6.134 -0.1987 -0.1180  0.6708
  114SAPE  H18S11942   0.590   2.009   6.025  0.0125 -0.5147 -0.9051
  114SAPE  C21911943   0.652   1.994   6.220 -0.0825 -0.6515  0.4844
  114SAPE  H19R11944   0.628   2.098   6.251 -0.3131 -0.9522  1.3443
  114SAPE  H19S11945   0.754   1.986   6.178  0.8312 -2.2868  2.7716
  114SAPE  C22011946   0.649   1.893   6.340  0.4047 -0.6568  0.2873
  114SAPE  H20R11947   0.719   1.919   6.422  1.5821 -1.5957 -0.3891
  114SAPE  H20S11948   0.680   1.793   6.303  2.9158  0.5101 -1.0460
  114SAPE  H20T11949   0.544   1.891   6.375 -0.7731 -0.9091 -2.9182
  114SAPE   C3311950   0.677   2.348   4.576  0.2915  0.3321 -0.2593
  114SAPE   H3X11951   0.621   2.417   4.509  0.2193  0.5527  0.0269
  114SAPE   H3Y11952   0.783   2.361   4.548  0.3774  1.4644  0.5179
  114SAPE   C3411953   0.671   2.392   4.722 -0.2703 -0.7544  0.1617
  114SAPE   H4X11954   0.739   2.328   4.782  0.8645 -0.0905 -0.3768
  114SAPE   H4Y11955   0.569   2.385   4.764 -0.3075  2.1614  0.7415
  114SAPE   C3511956   0.713   2.547   4.744 -0.8937  0.1480  0.4649
  114SAPE   H5X11957   0.631   2.601   4.795 -1.0244  0.6665 -0.2747
  114SAPE   H5Y11958   0.705   2.582   4.639 -1.2437 -0.4359  0.2937
  114SAPE   C3611959   0.852   2.565   4.804  0.5608 -0.0854  0.8346
  114SAPE   H6X11960   0.898   2.649   4.747  0.8086  0.8322  2.3538
  114SAPE   H6Y11961   0.916   2.476   4.790 -0.5898 -0.6644 -1.3559
  114SAPE   C3711962   0.853   2.604   4.953  0.1883  0.1448 -0.5883
  114SAPE   H7X11963   0.804   2.701   4.974  0.3620 -0.1974  1.5662
  114SAPE   H7Y11964   0.957   2.618   4.989  0.5252 -0.3288 -1.3566
  114SAPE   C3811965   0.799   2.502   5.055  0.6377 -0.1583 -0.1363
  114SAPE   H8X11966   0.861   2.410   5.048  0.9027  0.1457 -2.7296
  114SAPE   H8Y11967   0.696   2.476   5.023  0.0510  0.5303  1.1169
  114SAPE   C3911968   0.794   2.537   5.201 -0.5332  0.0248  0.0556
  114SAPE   H9X11969   0.893   2.576   5.234 -1.5513  1.8267  1.1510
  114SAPE   H9Y11970   0.765   2.453   5.269  1.0936  0.3877  1.2451
  114SAPE  C31011971   0.697   2.657   5.235  0.0761 -0.0258  0.3845
  114SAPE  H10X11972   0.603   2.607   5.207  0.1400  1.6625 -3.5708
  114SAPE  H10Y11973   0.711   2.749   5.173  1.7461 -0.3613  0.1985
  114SAPE  C31111974   0.676   2.680   5.388  0.3420  0.8234  0.1571
  114SAPE  H11X11975   0.637   2.784   5.400 -0.2172  0.5310  1.0278
  114SAPE  H11Y11976   0.772   2.671   5.442  0.4916  0.4049 -0.1749
  114SAPE  C31211977   0.563   2.584   5.445  0.1396  0.1349  0.3921
  114SAPE  H12X11978   0.602   2.481   5.460 -0.5067 -0.3357 -1.0267
  114SAPE  H12Y11979   0.473   2.586   5.381  1.0997  0.8889 -0.9762
  114SAPE  C31311980   0.502   2.634   5.573 -0.4477 -0.1736  0.9779
  114SAPE  H13X11981   0.411   2.573   5.593 -0.4237 -0.6195 -0.1597
  114SAPE  H13Y11982   0.461   2.734   5.547 -1.3190 -1.1499 -1.7390
  114SAPE  C31411983   0.599   2.624   5.697  0.1963 -0.1479 -0.1333
  114SAPE  H14X11984   0.687   2.687   5.673 -0.2949  0.8693  0.6860
  114SAPE  H14Y11985   0.625   2.516   5.705  1.0711  0.1482  1.3293
  114SAPE  C31511986   0.531   2.668   5.826  0.5118 -0.2557  0.4800
  114SAPE  H15X11987   0.432   2.619   5.841  0.7719 -0.4892  1.4788
  114SAPE  H15Y11988   0.486   2.769   5.819 -3.5882 -1.6350  3.0157
  114SAPE  C31611989   0.619   2.647   5.950  0.7863 -0.6705 -0.7128
  114SAPE  H16X11990   0.636   2.538   5.962 -3.2448 -1.3059  0.7921
  114SAPE  H16Y11991   0.551   2.669   6.036  2.6354  0.2189  0.5868
  114SAPE  C31711992   0.744   2.730   5.946  0.2494 -0.4049 -0.6994
  114SAPE  H17X11993   0.710   2.835   5.935 -1.5303 -0.8070  0.4539
  114SAPE  H17Y11994   0.814   2.718   5.861  1.2781 -1.3390  0.2332
  114SAPE  C31811995   0.827   2.708   6.080 -0.1412 -0.5658  0.4675
  114SAPE  H18X11996   0.755   2.661   6.151 -2.0172  0.1683 -0.8736
  114SAPE  H18Y11997   0.861   2.806   6.119 -1.2780 -0.2048  0.5888
  114SAPE  H18Z11998   0.905   2.630   6.065  0.3347  0.5193 -3.8502
  115SAPE     N11999   5.542   3.192   3.920  0.1407  0.2822  0.0243
  115SAPE   HN112000   5.603   3.254   3.978 -0.3568  0.2397  0.6134
  115SAPE   HN212001   5.579   3.205   3.824  0.4514  0.8368  0.2122
  115SAPE   HN312002   5.446   3.231   3.917  0.0931  0.1632  0.0041
  115SAPE   C1212003   5.534   3.043   3.945 -0.5760  1.3707  0.6318
  115SAPE  H12A12004   5.530   3.019   4.054  0.8934 -1.4855  0.1538
  115SAPE  H12B12005   5.626   3.001   3.901 -1.8485 -0.2209 -0.6457
  115SAPE   C1112006   5.416   2.980   3.877  0.9122  0.3077 -0.3987
  115SAPE  H11A12007   5.316   3.013   3.914  1.3769 -1.3299  2.6715
  115SAPE  H11B12008   5.413   2.876   3.916 -1.3728  1.1074  1.8805
  115SAPE     P12009   5.341   2.874   3.649  0.2099 -0.1455  0.1503
  115SAPE   O1312010   5.200   2.891   3.677  0.0109 -0.1394 -0.2104
  115SAPE   O1412011   5.374   2.905   3.509  0.0104  0.5756 -0.2463
  115SAPE   O1212012   5.422   2.973   3.737 -0.2616 -0.8073  0.6576
  115SAPE   O1112013   5.381   2.726   3.689  0.4738  0.0007 -0.0727
  115SAPE    C112014   5.490   2.655   3.640  0.3578  0.3705 -0.8424
  115SAPE    HA12015   5.453   2.555   3.609  0.5439  0.2672 -0.7309
  115SAPE    HB12016   5.523   2.709   3.549  0.8214  0.7604 -0.4441
  115SAPE    C212017   5.606   2.632   3.743 -0.1489 -0.1779  0.4243
  115SAPE    HS12018   5.668   2.543   3.718 -0.2914 -0.1600 -0.0095
  115SAPE   O2112019   5.555   2.629   3.879 -0.0176  0.6204  0.6397
  115SAPE   C2112020   5.518   2.507   3.923  0.2899  0.5830 -0.9211
  115SAPE   O2212021   5.538   2.400   3.869 -0.7437  0.0776 -0.0892
  115SAPE   C2212022   5.421   2.528   4.042  0.3152  0.2885  0.7099
  115SAPE   H2R12023   5.445   2.624   4.091  1.0438  0.1512  0.6357
  115SAPE   H2S12024   5.320   2.545   4.000  0.3477  0.1486  0.5717
  115SAPE    C312025   5.718   2.737   3.733 -0.6579  0.1649  0.1276
  115SAPE    HX12026   5.667   2.832   3.760 -0.7667  0.1721 -0.0965
  115SAPE    HY12027   5.753   2.742   3.628 -3.2594  1.5317 -0.7537
  115SAPE   O3112028   5.820   2.701   3.827  0.4797 -0.5209  0.1856
  115SAPE   C3112029   5.885   2.806   3.880 -0.5548 -0.0296 -0.2298
  115SAPE   O3212030   5.894   2.914   3.830 -0.1211 -0.2550  0.6700
  115SAPE   C3212031   5.929   2.772   4.019  0.3929 -0.0879  0.0363
  115SAPE   H2X12032   5.923   2.664   4.042  0.3362  0.2760  1.9562
  115SAPE   H2Y12033   5.852   2.820   4.083  1.9826  0.4628  1.6363
  115SAPE   C2312034   5.412   2.415   4.150 -0.5128  0.2134 -0.1522
  115SAPE   H3R12035   5.507   2.428   4.206 -0.2336  0.1885 -0.6148
  115SAPE   H3S12036   5.410   2.318   4.096  0.7362  1.8277 -3.3463
  115SAPE   C2412037   5.291   2.438   4.241 -0.0165 -0.1240  0.0159
  115SAPE   H4R12038   5.209   2.473   4.174  0.1253  1.2871  0.5499
  115SAPE   H4S12039   5.302   2.523   4.310 -2.2882  0.0998  0.1604
  115SAPE   C2512040   5.263   2.318   4.317  0.1340 -0.8479 -0.1911
  115SAPE   H5R12041   5.178   2.268   4.269  0.0406  2.7004 -4.4014
  115SAPE   C2612042   5.310   2.282   4.438 -0.4566 -0.0964 -1.1909
  115SAPE   H6R12043   5.280   2.186   4.484  0.4200  0.3743  0.4209
  115SAPE   C2712044   5.428   2.356   4.503 -0.4568  0.3545 -0.2871
  115SAPE   H7R12045   5.468   2.430   4.431 -0.1722  0.5440  0.0655
  115SAPE   H7S12046   5.507   2.282   4.530  0.2515  0.1656 -2.6579
  115SAPE   C2812047   5.376   2.427   4.631  0.4353  0.7534 -0.5437
  115SAPE   H8R12048   5.273   2.465   4.630  0.0342 -0.3021 -0.7563
  115SAPE   C2912049   5.431   2.434   4.750 -0.3922 -0.1521 -1.0347
  115SAPE   H9R12050   5.362   2.471   4.828  1.5491  0.7125  0.3458
  115SAPE  C21012051   5.569   2.378   4.789  0.2850  0.3595  0.0269
  115SAPE  H10R12052   5.638   2.378   4.702  1.0415  2.3310  0.5714
  115SAPE  H10S12053   5.552   2.269   4.802  0.2701  0.1596 -1.4340
  115SAPE  C21112054   5.638   2.433   4.910 -0.3863 -0.7109  0.8475
  115SAPE  H11R12055   5.638   2.543   4.915  1.4182 -0.5031 -1.5962
  115SAPE  C21212056   5.684   2.366   5.012 -0.5024  0.5814 -0.3305
  115SAPE  H12R12057   5.755   2.423   5.074  1.4050 -2.3122  0.3403
  115SAPE  C21312058   5.688   2.215   5.044  0.4067 -0.2346 -0.2301
  115SAPE  H13R12059   5.793   2.194   5.073 -0.3911 -1.1485  2.2357
  115SAPE  H13S12060   5.665   2.152   4.956 -1.6458  0.8161 -0.5091
  115SAPE  C21412061   5.592   2.194   5.157 -0.7681  0.4208  0.1648
  115SAPE  H14R12062   5.490   2.173   5.121 -0.5667 -1.1181  0.4192
  115SAPE  C21512063   5.618   2.221   5.289  0.3446  1.0597 -0.0680
  115SAPE  H15R12064   5.538   2.205   5.362  0.4391  2.1314  0.2935
  115SAPE  C21612065   5.745   2.272   5.348  0.8296  0.2110  0.2311
  115SAPE  H16R12066   5.713   2.352   5.419 -0.3645 -1.8278  2.1404
  115SAPE  H16S12067   5.810   2.323   5.274 -1.4989  1.3324 -1.1386
  115SAPE  C21712068   5.810   2.161   5.433  0.6321 -0.1837 -0.9488
  115SAPE  H17R12069   5.850   2.089   5.358 -0.4208  0.1315 -1.8469
  115SAPE  H17S12070   5.741   2.101   5.497  1.8793  0.5597  1.1828
  115SAPE  C21812071   5.933   2.211   5.506  0.2779  0.0269 -0.7183
  115SAPE  H18R12072   5.903   2.261   5.600 -0.4709  0.4221 -1.1667
  115SAPE  H18S12073   5.988   2.280   5.439  2.4380  0.8269  1.6921
  115SAPE  C21912074   6.034   2.100   5.538  0.4407 -0.3013  0.4964
  115SAPE  H19R12075   6.096   2.082   5.447  0.8751  1.4453  0.4158
  115SAPE  H19S12076   5.989   2.004   5.571  1.3447 -0.3533  1.6461
  115SAPE  C22012077   6.125   2.153   5.648  0.5255 -0.2233 -0.1081
  115SAPE  H20R12078   6.189   2.239   5.620  1.3513 -0.2210  1.6570
  115SAPE  H20S12079   6.182   2.068   5.692  0.6640  0.9653  2.1858
  115SAPE  H20T12080   6.063   2.190   5.732  1.1804  0.8972 -0.1123
  115SAPE   C3312081   6.067   2.821   4.067 -0.0069 -0.2574 -0.1364
  115SAPE   H3X12082   6.057   2.931   4.064  0.6883 -0.1954 -0.3783
  115SAPE   H3Y12083   6.138   2.791   3.987  0.3570 -0.1362  0.1405
  115SAPE   C3412084   6.106   2.778   4.205 -0.0498 -0.3861  0.5201
  115SAPE   H4X12085   6.207   2.817   4.230 -0.2277  0.5842 -0.1914
  115SAPE   H4Y12086   6.110   2.667   4.207 -1.8412 -0.4586  1.3071
  115SAPE   C3512087   6.029   2.830   4.329  0.3432  0.0462  0.0125
  115SAPE   H5X12088   5.921   2.807   4.311  0.0844 -0.0977  1.6069
  115SAPE   H5Y12089   6.024   2.941   4.334 -0.6638  0.0338 -0.3583
  115SAPE   C3612090   6.079   2.774   4.463  0.4715 -0.7263  0.4424
  115SAPE   H6X12091   6.189   2.776   4.480  0.5210  1.2855  0.1688
  115SAPE   H6Y12092   6.045   2.669   4.464  0.3750 -0.7382 -1.4403
  115SAPE   C3712093   6.005   2.831   4.588  0.2260 -0.2438 -0.3994
  115SAPE   H7X12094   5.899   2.802   4.574  0.5625 -1.1794 -1.1488
  115SAPE   H7Y12095   6.021   2.940   4.598  0.3597 -0.2872 -0.1308
  115SAPE   C3812096   6.044   2.769   4.722 -0.1413  0.6351  0.2819
  115SAPE   H8X12097   6.152   2.788   4.737  0.8741 -3.0135 -1.3360
  115SAPE   H8Y12098   6.023   2.661   4.708  1.4170  0.2458  0.7439
  115SAPE   C3912099   5.962   2.810   4.841 -0.7315 -0.2631 -0.6807
  115SAPE   H9X12100   5.855   2.796   4.815 -1.8248 -0.1386  3.1837
  115SAPE   H9Y12101   5.985   2.918   4.855  1.2929 -0.8100  0.6623
  115SAPE  C31012102   6.010   2.739   4.969  0.2352  0.0138  0.7790
  115SAPE  H10X12103   6.119   2.761   4.977  0.4201 -0.5138 -0.1709
  115SAPE  H10Y12104   6.006   2.629   4.960 -2.0352  0.2352 -2.3995
  115SAPE  C31112105   5.926   2.770   5.094 -1.1704 -0.2908  0.0498
  115SAPE  H11X12106   5.819   2.767   5.064 -1.0006 -0.9918 -0.5222
  115SAPE  H11Y12107   5.950   2.871   5.132 -2.0468 -0.4373  1.0356
  115SAPE  C31212108   5.945   2.670   5.208 -0.1802  0.0580  0.5157
  115SAPE  H12X12109   6.053   2.654   5.228  0.0465  0.4908 -0.3079
  115SAPE  H12Y12110   5.881   2.584   5.179 -0.1224  0.3929 -0.6570
  115SAPE  C31312111   5.890   2.736   5.335  0.2727  0.6633  0.4793
  115SAPE  H13X12112   5.781   2.755   5.328  0.4951  1.8524 -0.0467
  115SAPE  H13Y12113   5.941   2.830   5.364 -0.1181  0.6101  1.3709
  115SAPE  C31412114   5.923   2.639   5.454 -0.0775 -0.0538 -0.3529
  115SAPE  H14X12115   6.031   2.611   5.449  0.3739  0.6651  3.0693
  115SAPE  H14Y12116   5.861   2.548   5.436 -0.2491 -0.3894  1.6755
  115SAPE  C31512117   5.885   2.703   5.581  0.0483 -1.1264 -1.1770
  115SAPE  H15X12118   5.791   2.761   5.570 -0.0803 -1.3459 -1.2532
  115SAPE  H15Y12119   5.957   2.784   5.601 -0.8457 -1.0095  2.0482
  115SAPE  C31612120   5.860   2.610   5.697  0.0926  0.2744  0.0042
  115SAPE  H16X12121   5.850   2.660   5.796  0.1164 -2.2781  1.3837
  115SAPE  H16Y12122   5.948   2.541   5.703 -0.7089 -0.6823  4.0076
  115SAPE  C31712123   5.733   2.517   5.679 -0.3733  0.2713  0.1004
  115SAPE  H17X12124   5.742   2.460   5.585  0.4025  1.2239 -0.4233
  115SAPE  H17Y12125   5.649   2.584   5.654 -1.9042 -1.4396  0.4521
  115SAPE  C31812126   5.700   2.420   5.786  0.2715 -0.1180 -0.2830
  115SAPE  H18X12127   5.605   2.369   5.760 -0.4887  0.4920  1.1442
  115SAPE  H18Y12128   5.687   2.469   5.885  0.6265  0.5342 -0.5520
  115SAPE  H18Z12129   5.777   2.341   5.797  1.7594  1.3169  0.1256
  116SAPE     N12130   5.965   4.951   3.784 -0.4213 -0.3350 -0.0241
  116SAPE   HN112131   5.930   4.865   3.830  0.0539  0.0437  1.0814
  116SAPE   HN212132   6.068   4.951   3.770 -0.4725  2.2342 -1.0935
  116SAPE   HN312133   5.942   5.033   3.844 -1.1108  1.0174 -2.0301
  116SAPE   C1212134   5.885   4.968   3.657  0.1333 -0.0659 -0.5156
  116SAPE  H12A12135   5.839   4.867   3.660  1.3082 -0.6149  2.2210
  116SAPE  H12B12136   5.950   4.973   3.567  0.1097 -1.2116 -0.6016
  116SAPE   C1112137   5.790   5.092   3.666  0.0949 -0.4385 -0.2657
  116SAPE  H11A12138   5.709   5.074   3.591  1.0047  1.1837 -1.7237
  116SAPE  H11B12139   5.838   5.186   3.631  0.5884 -1.0584 -1.2951
  116SAPE     P12140   5.772   5.225   3.890  0.1902  0.2199 -0.4065
  116SAPE   O1312141   5.912   5.216   3.927 -0.1927  0.6346  1.1406
  116SAPE   O1412142   5.726   5.356   3.832 -0.5487  0.2863 -0.2325
  116SAPE   O1212143   5.733   5.105   3.796 -0.1163 -0.5538 -0.0246
  116SAPE   O1112144   5.691   5.205   4.017 -0.3268 -0.7011 -0.2449
  116SAPE    C112145   5.716   5.094   4.109  0.2055  0.2236 -0.4533
  116SAPE    HA12146   5.756   5.005   4.056  3.4266  1.3537 -0.1318
  116SAPE    HB12147   5.805   5.116   4.171  1.4761  0.0091 -2.1417
  116SAPE    C212148   5.598   5.062   4.207  0.1082  0.1504 -0.4432
  116SAPE    HS12149   5.505   5.059   4.145 -2.4372  0.3692  3.0576
  116SAPE   O2112150   5.585   5.157   4.312  0.0347 -0.1451  0.5151
  116SAPE   C2112151   5.456   5.167   4.356 -0.3829  0.9499  0.0388
  116SAPE   O2212152   5.365   5.090   4.327 -0.3562 -0.7877  0.5240
  116SAPE   C2212153   5.444   5.275   4.460 -0.1948 -0.2494  0.1236
  116SAPE   H2R12154   5.546   5.305   4.491 -1.2743  4.7100 -0.3689
  116SAPE   H2S12155   5.379   5.358   4.424 -0.4897 -0.4277  0.2372
  116SAPE    C312156   5.616   4.918   4.270 -0.6055  0.2508 -0.4664
  116SAPE    HX12157   5.623   4.855   4.179 -2.3745  0.9250 -1.1130
  116SAPE    HY12158   5.528   4.872   4.320  2.2718 -1.4579  3.6623
  116SAPE   O3112159   5.749   4.906   4.339 -0.2430  0.0228  0.0217
  116SAPE   C3112160   5.735   4.891   4.473 -0.5777 -0.3149  0.4533
  116SAPE   O3212161   5.631   4.891   4.535  0.3828  0.2551  0.5236
  116SAPE   C3212162   5.877   4.885   4.526 -0.3718  0.0035 -0.4751
  116SAPE   H2X12163   5.945   4.940   4.457 -0.9859  0.2857 -0.8568
  116SAPE   H2Y12164   5.901   4.777   4.536 -1.2338 -0.2734 -1.3008
  116SAPE   C2312165   5.348   5.215   4.567 -0.0697  0.2519  0.3120
  116SAPE   H3R12166   5.389   5.126   4.619 -0.4925 -0.2126 -0.1443
  116SAPE   H3S12167   5.257   5.176   4.517  0.6213 -0.8459 -0.1390
  116SAPE   C2412168   5.315   5.323   4.670 -0.0706  0.7561 -1.1415
  116SAPE   H4R12169   5.234   5.286   4.736  1.3349 -1.7438 -0.7049
  116SAPE   H4S12170   5.258   5.401   4.615 -1.5066 -1.3198 -2.7909
  116SAPE   C2512171   5.439   5.368   4.738 -0.3533 -0.0925 -0.9521
  116SAPE   H5R12172   5.484   5.459   4.697  2.7015 -0.7340  0.6406
  116SAPE   C2612173   5.495   5.320   4.853  0.0329 -0.1580 -1.2952
  116SAPE   H6R12174   5.593   5.354   4.891  0.4101 -0.3601 -2.0647
  116SAPE   C2712175   5.437   5.208   4.942  0.2238 -0.1115  0.2371
  116SAPE   H7R12176   5.391   5.133   4.874 -0.2719  1.8851 -1.7628
  116SAPE   H7S12177   5.344   5.256   4.982 -1.6808 -0.0279 -3.8152
  116SAPE   C2812178   5.540   5.152   5.035  0.3085  0.5258  0.2374
  116SAPE   H8R12179   5.619   5.097   4.981  2.2132  3.7015 -0.5034
  116SAPE   C2912180   5.543   5.156   5.167 -0.1485 -0.2185  0.7758
  116SAPE   H9R12181   5.637   5.123   5.213  1.4650 -0.1687 -2.1950
  116SAPE  C21012182   5.447   5.228   5.262 -0.4292  0.5065 -0.3934
  116SAPE  H10R12183   5.382   5.301   5.209 -0.1078 -1.7189 -4.1990
  116SAPE  H10S12184   5.504   5.286   5.337 -0.2688 -1.0924  0.7717
  116SAPE  C21112185   5.368   5.122   5.327 -0.6919  0.3542 -0.8942
  116SAPE  H11R12186   5.273   5.112   5.272 -1.2590  0.5280  0.0387
  116SAPE  C21212187   5.400   5.053   5.441  0.0555  0.0270  0.3151
  116SAPE  H12R12188   5.329   4.974   5.470 -1.0784  0.9322  0.1117
  116SAPE  C21312189   5.538   5.065   5.503 -0.3947  0.3740 -0.4703
  116SAPE  H13R12190   5.535   5.083   5.612 -1.1679 -1.7929 -0.0901
  116SAPE  H13S12191   5.587   5.155   5.458 -0.3353  0.8537  0.5267
  116SAPE  C21412192   5.611   4.934   5.465 -0.2233 -0.7032  0.0307
  116SAPE  H14R12193   5.602   4.912   5.358 -0.9461  2.7671 -0.7431
  116SAPE  C21512194   5.697   4.865   5.541 -0.3006  0.4721  0.4334
  116SAPE  H15R12195   5.751   4.777   5.502  3.5169  0.6214  4.4704
  116SAPE  C21612196   5.747   4.898   5.679  0.7368 -1.1414 -0.7917
  116SAPE  H16R12197   5.773   5.006   5.682 -1.0853 -0.6099 -2.1930
  116SAPE  H16S12198   5.833   4.833   5.705  1.9543 -0.5094 -3.0104
  116SAPE  C21712199   5.643   4.885   5.795 -0.6863  0.5706  0.1265
  116SAPE  H17R12200   5.590   4.789   5.782  2.4458 -1.4899  1.3765
  116SAPE  H17S12201   5.561   4.959   5.781 -2.2852 -1.5929 -3.1224
  116SAPE  C21812202   5.703   4.887   5.938 -0.2945 -0.4513  1.1934
  116SAPE  H18R12203   5.765   4.976   5.960 -0.8609 -0.5755  3.4687
  116SAPE  H18S12204   5.778   4.807   5.953  2.3893  2.2058  3.1204
  116SAPE  C21912205   5.587   4.874   6.036 -0.7154  0.0079 -0.1116
  116SAPE  H19R12206   5.525   4.785   6.011  1.6673 -2.3373  1.7248
  116SAPE  H19S12207   5.519   4.962   6.038  0.2381  0.9833 -3.6969
  116SAPE  C22012208   5.633   4.833   6.178 -0.4260  0.1188  0.0478
  116SAPE  H20R12209   5.536   4.808   6.227  0.2821 -2.3377  0.3368
  116SAPE  H20S12210   5.687   4.914   6.230  0.8917 -2.3711  2.8794
  116SAPE  H20T12211   5.702   4.745   6.174  1.6201  1.4236  2.9757
  116SAPE   C3312212   5.886   4.969   4.659 -0.0562 -0.5928 -0.7212
  116SAPE   H3X12213   5.809   5.049   4.670 -1.3576 -1.9182  0.1267
  116SAPE   H3Y12214   5.980   5.028   4.658 -0.4788  0.3681  2.7416
  116SAPE   C3412215   5.884   4.889   4.789  0.0244 -0.3858 -0.5928
  116SAPE   H4X12216   5.970   4.818   4.785  0.8376  0.6048 -0.9486
  116SAPE   H4Y12217   5.790   4.832   4.808 -0.4457  0.7808  0.7267
  116SAPE   C3512218   5.899   4.983   4.910 -0.5888  0.1190  0.0209
  116SAPE   H5X12219   5.806   5.045   4.907 -1.0447 -0.5535  0.0980
  116SAPE   H5Y12220   5.986   5.051   4.893  0.8283 -1.4585  0.6969
  116SAPE   C3612221   5.914   4.920   5.052 -0.4250 -0.1352  0.1439
  116SAPE   H6X12222   6.006   4.858   5.044  0.5177  1.1724  0.5303
  116SAPE   H6Y12223   5.826   4.861   5.086  0.5983 -0.5015  2.3285
  116SAPE   C3712224   5.947   5.023   5.160 -0.5262 -0.4499 -0.0576
  116SAPE   H7X12225   5.856   5.085   5.178  0.3380  0.7768  0.2007
  116SAPE   H7Y12226   6.033   5.090   5.139 -1.1156  0.1151 -0.7336
  116SAPE   C3812227   5.999   4.970   5.298 -1.1802 -0.6331  0.6125
  116SAPE   H8X12228   6.095   4.919   5.276 -0.7448  0.5312 -0.2555
  116SAPE   H8Y12229   5.920   4.898   5.327 -0.0813 -1.7809  0.8194
  116SAPE   C3912230   6.014   5.075   5.410 -0.0746  0.0193  0.2977
  116SAPE   H9X12231   5.921   5.135   5.405 -0.9842 -1.3693  0.0150
  116SAPE   H9Y12232   6.100   5.135   5.373  0.2512 -1.8599 -2.3008
  116SAPE  C31012233   6.054   5.027   5.558  0.1886 -0.5006  0.6802
  116SAPE  H10X12234   6.151   4.973   5.553 -0.4170 -1.5526 -0.0420
  116SAPE  H10Y12235   6.003   4.935   5.592 -0.3724 -1.0446 -1.4784
  116SAPE  C31112236   6.032   5.142   5.660 -0.5270 -0.5740 -0.2052
  116SAPE  H11X12237   5.928   5.179   5.649 -0.6475 -0.8207  0.1011
  116SAPE  H11Y12238   6.098   5.228   5.636  0.1527 -0.8218  0.7416
  116SAPE  C31212239   6.048   5.102   5.814  0.2526 -0.4359  0.2068
  116SAPE  H12X12240   6.152   5.069   5.837  0.3722 -1.2297 -1.3604
  116SAPE  H12Y12241   5.973   5.027   5.845 -2.3455  1.2048 -1.7098
  116SAPE  C31312242   6.019   5.228   5.902  0.8248 -0.5836  0.1015
  116SAPE  H13X12243   5.913   5.262   5.899  1.0124 -0.0779 -2.6018
  116SAPE  H13Y12244   6.083   5.308   5.859  0.1750 -1.7108 -3.2147
  116SAPE  C31412245   6.050   5.195   6.051  0.3126  0.0672 -0.4027
  116SAPE  H14X12246   6.039   5.287   6.113  0.9727 -1.3935  2.0129
  116SAPE  H14Y12247   6.158   5.168   6.054  0.0706 -0.8919 -0.0428
  116SAPE  C31512248   5.957   5.086   6.109  0.0064 -0.0143  0.1228
  116SAPE  H15X12249   5.979   4.989   6.059  0.1686 -0.0428  0.2512
  116SAPE  H15Y12250   5.849   5.110   6.092 -0.2151 -2.1050 -1.9823
  116SAPE  C31612251   5.974   5.042   6.250 -0.2224  0.0594  0.2650
  116SAPE  H16X12252   6.072   4.991   6.262  0.1626  1.0019  1.3124
  116SAPE  H16Y12253   5.903   4.962   6.277  1.0078 -1.2726 -0.2810
  116SAPE  C31712254   5.953   5.155   6.356 -0.3620  0.4099  0.2033
  116SAPE  H17X12255   6.019   5.239   6.324 -2.0211  0.6347 -3.0721
  116SAPE  H17Y12256   5.981   5.122   6.458 -0.2657 -3.0621 -0.8302
  116SAPE  C31812257   5.801   5.193   6.368 -0.1225 -0.0835  0.0447
  116SAPE  H18X12258   5.799   5.275   6.444 -0.4188  1.8161 -1.8938
  116SAPE  H18Y12259   5.736   5.109   6.399 -1.1636  2.1869  4.9094
  116SAPE  H18Z12260   5.765   5.240   6.274  0.1839 -0.6216 -0.3457
  117SOPE     N12261   4.806   6.534   8.566  0.6997 -0.2837  0.3659
  117SOPE   HN112262   4.891   6.587   8.540 -0.0554  1.3342  1.0082
  117SOPE   HN212263   4.724   6.596   8.585 -0.5566 -2.4172  2.4510
  117SOPE   HN312264   4.827   6.475   8.649  1.0947  1.2398  1.4062
  117SOPE   C1212265   4.760   6.448   8.455  0.6410  0.3276 -0.2189
  117SOPE  H12A12266   4.706   6.358   8.493  1.1625  0.3967  0.7097
  117SOPE  H12B12267   4.849   6.412   8.400 -1.4958 -1.4654 -2.7823
  117SOPE   C1112268   4.669   6.524   8.358  0.2278  0.3119  0.2476
  117SOPE  H11A12269   4.618   6.466   8.278 -1.3323  0.7149  0.9236
  117SOPE  H11B12270   4.742   6.600   8.321 -0.0437 -0.0811 -1.1548
  117SOPE     P12271   4.499   6.719   8.402 -0.1198  0.1169  0.4221
  117SOPE   O1312272   4.465   6.788   8.529 -0.3373 -0.2452 -0.7242
  117SOPE   O1412273   4.385   6.714   8.299  0.2962  0.0376  0.1121
  117SOPE   O1212274   4.560   6.583   8.435  0.2908  0.0067  0.5610
  117SOPE   O1112275   4.623   6.805   8.341  0.4103  0.5139 -0.3595
  117SOPE    C112276   4.615   6.926   8.271  0.3713 -0.0101  0.0189
  117SOPE    HA12277   4.710   6.980   8.289  2.5543 -3.8851  1.5002
  117SOPE    HB12278   4.531   6.983   8.315  2.5834  1.9111  1.9885
  117SOPE    C212279   4.601   6.901   8.122  0.9080 -0.7027 -0.3716
  117SOPE    HS12280   4.530   6.817   8.107  0.6138 -1.1045  2.6485
  117SOPE   O2112281   4.731   6.882   8.066 -0.1556  0.0748 -0.0336
  117SOPE   C2112282   4.733   6.780   7.982  0.3872  0.3989  0.2379
  117SOPE   O2212283   4.644   6.696   7.972  0.1273  0.3641  0.1513
  117SOPE   C2212284   4.853   6.792   7.886 -0.2449 -0.1947 -0.8526
  117SOPE   H2R12285   4.940   6.758   7.946 -2.2384 -0.8348  1.8437
  117SOPE   H2S12286   4.859   6.898   7.854  0.9912  0.2210  0.6527
  117SOPE    C312287   4.543   7.028   8.049  0.5259 -1.0946 -0.4756
  117SOPE    HX12288   4.623   7.103   8.036  0.4473 -0.8447  0.3886
  117SOPE    HY12289   4.475   7.077   8.122 -1.6379 -2.4859 -1.4533
  117SOPE   O3112290   4.474   6.994   7.926  0.1021 -0.5495 -0.9164
  117SOPE   C3112291   4.342   6.976   7.937  0.1143 -0.1698 -0.7111
  117SOPE   O3212292   4.275   6.958   8.035 -0.3830 -0.5361 -0.2219
  117SOPE   C3212293   4.283   6.998   7.797 -0.0797 -0.4819 -0.1989
  117SOPE   H2X12294   4.318   7.095   7.754  0.9668  0.0269  1.6992
  117SOPE   H2Y12295   4.175   7.022   7.808  0.0879 -0.6104  2.3267
  117SOPE   C2312296   4.839   6.702   7.764  0.0077 -0.2165  0.0421
  117SOPE   H3R12297   4.812   6.597   7.790  0.9557 -0.5084 -0.1102
  117SOPE   H3S12298   4.941   6.694   7.720  1.1641  0.0211  2.5265
  117SOPE   C2412299   4.731   6.737   7.666 -0.1778  0.0046  0.8795
  117SOPE   H4R12300   4.631   6.738   7.716 -0.1914  2.3037  0.9431
  117SOPE   H4S12301   4.752   6.844   7.645 -0.8634  0.2698  1.4980
  117SOPE   C2512302   4.734   6.656   7.529 -0.1644 -0.5341 -0.1712
  117SOPE   H5R12303   4.838   6.639   7.493  0.1844 -3.9986  2.0840
  117SOPE   H5S12304   4.688   6.556   7.542  2.2065 -1.7280 -0.3650
  117SOPE   C2612305   4.669   6.745   7.417 -0.6216 -0.0862  0.3182
  117SOPE   H6R12306   4.566   6.770   7.450 -0.1324  0.0490  1.8340
  117SOPE   H6S12307   4.729   6.838   7.410  2.3713 -1.7624  1.5957
  117SOPE   C2712308   4.658   6.675   7.281  0.4586  0.5599 -0.5041
  117SOPE   H7R12309   4.757   6.675   7.231  0.5901  0.6420 -0.2440
  117SOPE   H7S12310   4.638   6.569   7.307  1.8616  0.7883  1.7598
  117SOPE   C2812311   4.557   6.731   7.182 -0.2587 -0.1504  0.7354
  117SOPE   H8R12312   4.558   6.670   7.089 -0.3244  0.4743  0.3123
  117SOPE   H8S12313   4.450   6.722   7.212 -0.5798  0.6598 -0.1022
  117SOPE   C2912314   4.593   6.879   7.154 -0.0712 -0.0573  0.1174
  117SOPE   H9112315   4.618   6.940   7.242  1.9501 -0.5799 -0.0422
  117SOPE  C21012316   4.596   6.940   7.032 -0.7057  0.5951  1.2436
  117SOPE  H10112317   4.619   7.047   7.026  0.4529  0.2617 -2.5212
  117SOPE  C21112318   4.562   6.875   6.903  0.0944  0.1322 -0.5548
  117SOPE  H11R12319   4.609   6.775   6.907 -0.6454 -0.2188 -0.5624
  117SOPE  H11S12320   4.612   6.927   6.818  2.9539 -1.8246 -0.1893
  117SOPE  C21212321   4.407   6.848   6.883  0.3702  0.2501 -0.3880
  117SOPE  H12R12322   4.363   6.947   6.907  1.3064  0.9962 -1.5906
  117SOPE  H12S12323   4.364   6.778   6.957 -3.1670  2.2885 -0.3018
  117SOPE  C21312324   4.392   6.786   6.745 -0.1962  0.9019 -0.5552
  117SOPE  H13R12325   4.454   6.693   6.750  0.3065  1.2856  0.5370
  117SOPE  H13S12326   4.428   6.862   6.672  0.3969  2.1195  0.9528
  117SOPE  C21412327   4.250   6.734   6.699 -0.4046  0.4694  0.0536
  117SOPE  H14R12328   4.185   6.824   6.705 -0.9075  0.3763 -2.5871
  117SOPE  H14S12329   4.219   6.647   6.761 -2.4289  0.6191 -0.6753
  117SOPE  C21512330   4.248   6.690   6.550  0.4544 -0.1375  0.0979
  117SOPE  H15R12331   4.331   6.618   6.537 -0.4414 -1.6421  2.1691
  117SOPE  H15S12332   4.281   6.777   6.490  0.6024  0.7776  1.4499
  117SOPE  C21612333   4.115   6.615   6.517 -0.4155 -0.0435  0.8090
  117SOPE  H16R12334   4.037   6.693   6.530  0.4423  1.0681 -0.3167
  117SOPE  H16S12335   4.103   6.543   6.600  0.7045 -0.9297  0.2311
  117SOPE  C21712336   4.093   6.578   6.371  0.1536 -0.5104 -0.4022
  117SOPE  H17R12337   4.016   6.499   6.356 -0.0780 -0.2598 -0.5494
  117SOPE  H17S12338   4.186   6.525   6.343  0.2456 -1.7188  1.9342
  117SOPE  C21812339   4.075   6.694   6.268  0.6344 -0.0761  0.3831
  117SOPE  H18R12340   4.169   6.754   6.268  1.5484 -1.3595 -2.4006
  117SOPE  H18S12341   3.981   6.752   6.281 -0.7894 -1.2537 -3.4806
  117SOPE  H18T12342   4.057   6.650   6.168  1.3966 -0.3526  0.3609
  117SOPE   C3312343   4.307   6.888   7.690  0.1005  0.3595  0.3396
  117SOPE   H3X12344   4.268   6.799   7.743 -0.3545 -0.1891 -0.8821
  117SOPE   H3Y12345   4.418   6.884   7.685  0.0809 -0.5251  0.5925
  117SOPE   C3412346   4.240   6.902   7.556  0.8040 -1.2514 -0.3065
  117SOPE   H4X12347   4.226   7.011   7.544 -0.2130 -1.4169 -0.7312
  117SOPE   H4Y12348   4.133   6.873   7.562  0.7915 -0.9596  1.5170
  117SOPE   C3512349   4.299   6.842   7.429 -0.2785 -0.4292 -0.2153
  117SOPE   H5X12350   4.352   6.747   7.451 -1.2501 -0.6631  1.3160
  117SOPE   H5Y12351   4.369   6.918   7.390 -1.1029  0.3994 -0.0961
  117SOPE   C3612352   4.198   6.817   7.307  0.3580  0.1337  0.5017
  117SOPE   H6X12353   4.110   6.758   7.340  0.4578 -0.9823 -1.0916
  117SOPE   H6Y12354   4.251   6.752   7.233 -0.2178  1.7721 -1.4600
  117SOPE   C3712355   4.158   6.945   7.237 -0.5093 -0.5987 -0.1151
  117SOPE   H7X12356   4.254   6.994   7.210 -0.4641 -0.1744  0.7691
  117SOPE   H7Y12357   4.095   7.012   7.299 -0.3550  1.1543 -1.7549
  117SOPE   C3812358   4.096   6.913   7.097 -0.0915 -0.2772 -1.0575
  117SOPE   H8X12359   3.991   6.878   7.099 -1.0273  2.0917 -3.0117
  117SOPE   H8Y12360   4.158   6.833   7.051  0.8446 -0.7428  0.9115
  117SOPE   C3912361   4.064   7.037   7.008  0.8635  0.1691  0.4220
  117SOPE   H9X12362   4.020   6.989   6.918  0.0412  1.5411  0.0539
  117SOPE   H9Y12363   4.165   7.075   6.982  1.6254 -2.0811 -0.0991
  117SOPE  C31012364   3.958   7.134   7.057  0.2439  0.2305 -0.6655
  117SOPE  H10X12365   3.996   7.198   7.139  0.0603 -1.6517  0.9516
  117SOPE  H10Y12366   3.885   7.074   7.116  1.6270 -0.2400  0.6291
  117SOPE  C31112367   3.910   7.219   6.943 -0.2199  0.4077  0.1503
  117SOPE  H11X12368   3.854   7.160   6.867  0.5297 -0.9988  0.6531
  117SOPE  H11Y12369   4.007   7.255   6.900  0.1766  0.0654  0.7505
  117SOPE  C31212370   3.823   7.335   6.999  1.0583  0.0728  0.1746
  117SOPE  H12X12371   3.877   7.376   7.086  3.0785 -0.9869 -0.5080
  117SOPE  H12Y12372   3.727   7.283   7.024  1.8437 -1.7975 -0.5338
  117SOPE  C31312373   3.797   7.451   6.899  0.6359 -0.5580  0.2568
  117SOPE  H13X12374   3.741   7.405   6.814 -2.0398  2.7899  0.0158
  117SOPE  H13Y12375   3.893   7.481   6.851 -1.5240  2.7813 -2.4592
  117SOPE  C31412376   3.706   7.571   6.935 -0.0373 -0.0761  0.5772
  117SOPE  H14X12377   3.607   7.548   6.981 -0.8017  0.3295 -0.8053
  117SOPE  H14Y12378   3.676   7.625   6.843  0.0589 -2.7733 -1.1526
  117SOPE  C31512379   3.776   7.657   7.030 -0.0704  0.1459 -0.1211
  117SOPE  H15X12380   3.872   7.693   6.987 -0.2478  0.7663 -0.0102
  117SOPE  H15Y12381   3.809   7.599   7.120  0.7224 -0.1028 -0.5638
  117SOPE  C31612382   3.693   7.786   7.078  0.0663 -0.0007  0.3241
  117SOPE  H16X12383   3.609   7.754   7.143 -0.4934  1.7739  0.5382
  117SOPE  H16Y12384   3.668   7.843   6.986  0.1782 -1.2649 -0.5066
  117SOPE  C31712385   3.786   7.877   7.165 -0.4823  0.9355  0.4205
  117SOPE  H17X12386   3.842   7.941   7.094 -0.9168  0.9504  0.0835
  117SOPE  H17Y12387   3.859   7.815   7.222 -0.8122 -0.9583 -1.1049
  117SOPE  C31812388   3.708   7.968   7.258  0.2270 -0.1886  0.5990
  117SOPE  H18X12389   3.664   7.909   7.341 -1.1283  0.0666  0.0759
  117SOPE  H18Y12390   3.619   8.018   7.215  2.1778  1.4606 -1.8856
  117SOPE  H18Z12391   3.771   8.049   7.300  1.8854 -0.5977 -0.9367
  118SOPE     N12392   6.453   1.833   8.119 -0.7503 -0.3137 -0.0124
  118SOPE   HN112393   6.352   1.827   8.092 -0.2578 -0.7410 -1.9092
  118SOPE   HN212394   6.478   1.791   8.210 -0.2415 -1.4378 -0.6629
  118SOPE   HN312395   6.487   1.931   8.113  0.0816 -0.6252 -0.4684
  118SOPE   C1212396   6.521   1.742   8.017 -0.2903 -0.3662 -0.3483
  118SOPE  H12A12397   6.632   1.744   8.022 -0.3212 -0.6207  1.2030
  118SOPE  H12B12398   6.483   1.775   7.919  0.0621  0.5713 -0.1733
  118SOPE   C1112399   6.487   1.601   8.043 -0.3550  0.0795 -0.5044
  118SOPE  H11A12400   6.515   1.541   7.954 -0.1143  1.4930 -1.4222
  118SOPE  H11B12401   6.377   1.590   8.056 -0.6126  2.5790 -0.1197
  118SOPE     P12402   6.661   1.437   8.162  0.1682 -0.0627 -0.2827
  118SOPE   O1312403   6.588   1.310   8.194  0.1878  0.2496  0.0766
  118SOPE   O1412404   6.771   1.480   8.252 -0.6394 -0.1699 -0.6444
  118SOPE   O1212405   6.554   1.551   8.151  0.1098  0.3528 -0.3680
  118SOPE   O1112406   6.717   1.417   8.020  0.1554 -0.2373 -0.2530
  118SOPE    C112407   6.775   1.305   7.971 -1.3024  0.2786  0.2751
  118SOPE    HA12408   6.800   1.322   7.864 -1.7812 -1.2964 -0.1118
  118SOPE    HB12409   6.700   1.224   7.956 -1.0088 -0.0150  0.3626
  118SOPE    C212410   6.901   1.256   8.052 -0.0891  1.0183  0.2139
  118SOPE    HS12411   6.877   1.235   8.158  0.6661 -0.0541  0.1954
  118SOPE   O2112412   7.000   1.363   8.041 -0.2407  0.2379 -0.1412
  118SOPE   C2112413   7.084   1.362   8.139  0.0935 -0.3371 -0.2450
  118SOPE   O2212414   7.095   1.278   8.224 -0.2810  1.0392 -0.4467
  118SOPE   C2212415   7.178   1.479   8.136 -0.5304 -0.2241 -0.1319
  118SOPE   H2R12416   7.283   1.442   8.145  0.0892  1.4070 -0.2889
  118SOPE   H2S12417   7.146   1.537   8.225 -2.5537 -1.4739  0.0125
  118SOPE    C312418   6.955   1.124   7.982 -0.1490  0.3517 -0.2889
  118SOPE    HX12419   6.881   1.042   7.994  1.7102 -1.6622 -1.8144
  118SOPE    HY12420   7.050   1.092   8.031 -0.2517  1.1538  0.4506
  118SOPE   O3112421   6.975   1.136   7.841 -0.1411 -0.2656 -0.0736
  118SOPE   C3112422   7.102   1.146   7.795  0.0407 -0.3195  0.7060
  118SOPE   O3212423   7.201   1.140   7.863  0.1947 -0.6647 -0.3606
  118SOPE   C3212424   7.105   1.155   7.646  0.4862 -1.0281 -0.0673
  118SOPE   H2X12425   7.041   1.236   7.606 -0.1231 -1.2225  0.5060
  118SOPE   H2Y12426   7.051   1.062   7.617 -2.8542  0.8049 -0.1435
  118SOPE   C2312427   7.165   1.576   8.009 -0.2854  0.3019  0.2978
  118SOPE   H3R12428   7.059   1.604   7.991  0.3442  0.3920 -4.6837
  118SOPE   H3S12429   7.186   1.514   7.919  0.5343  0.7662  0.1653
  118SOPE   C2412430   7.239   1.702   8.030  0.2562  0.3680  0.5952
  118SOPE   H4R12431   7.212   1.751   8.126  3.4646  1.0001  1.2817
  118SOPE   H4S12432   7.349   1.690   8.033  0.4169 -0.4230 -3.2127
  118SOPE   C2512433   7.205   1.794   7.909 -0.8931 -0.6715  0.0897
  118SOPE   H5R12434   7.196   1.741   7.812  0.6970 -1.3523  0.2901
  118SOPE   H5S12435   7.107   1.845   7.923 -0.0768  1.1046 -0.4508
  118SOPE   C2612436   7.321   1.903   7.895 -0.3760  0.4107 -0.0180
  118SOPE   H6R12437   7.333   1.963   7.988 -1.1983  1.3203 -0.4817
  118SOPE   H6S12438   7.420   1.854   7.890 -1.8910 -2.8824 -0.6615
  118SOPE   C2712439   7.303   2.002   7.777  0.3712  0.1838 -0.5116
  118SOPE   H7R12440   7.305   1.952   7.678  0.7639  0.7256 -0.7804
  118SOPE   H7S12441   7.206   2.056   7.777 -0.2255 -0.7818  1.6959
  118SOPE   C2812442   7.425   2.105   7.772  0.3272 -0.3678  0.8037
  118SOPE   H8R12443   7.414   2.196   7.710 -3.3692  0.5263  2.4696
  118SOPE   H8S12444   7.436   2.141   7.877  0.5197 -1.4375  1.1683
  118SOPE   C2912445   7.542   2.035   7.726 -0.4796  0.1209  0.1678
  118SOPE   H9112446   7.601   1.970   7.793  1.7101 -0.9141 -2.5589
  118SOPE  C21012447   7.579   2.035   7.594 -0.4428  0.2933  0.0531
  118SOPE  H10112448   7.666   1.975   7.563  0.0324  0.7116  0.5519
  118SOPE  C21112449   7.511   2.117   7.489 -0.2222  1.0802 -0.3300
  118SOPE  H11R12450   7.535   2.225   7.502 -1.2741  1.2635  0.1940
  118SOPE  H11S12451   7.404   2.110   7.518  0.4110 -1.6397  1.8091
  118SOPE  C21212452   7.531   2.090   7.339  0.0554 -0.3162 -0.7575
  118SOPE  H12R12453   7.634   2.108   7.302  0.5556 -0.5654  0.4608
  118SOPE  H12S12454   7.469   2.165   7.286  0.7487  1.6770  1.0974
  118SOPE  C21312455   7.486   1.954   7.302 -0.2507  0.3428  0.0916
  118SOPE  H13R12456   7.376   1.950   7.318 -0.0869  0.8978  1.4953
  118SOPE  H13S12457   7.532   1.878   7.368  0.6007 -0.9531 -1.9191
  118SOPE  C21412458   7.526   1.909   7.156  0.8360  0.0810  0.4619
  118SOPE  H14R12459   7.474   1.812   7.141 -1.2983  1.1493  0.4942
  118SOPE  H14S12460   7.636   1.900   7.147  1.1915  1.2986  2.7068
  118SOPE  C21512461   7.471   2.015   7.059 -0.6213  0.1121 -0.5932
  118SOPE  H15R12462   7.505   2.115   7.096 -0.6627  0.2184 -0.8408
  118SOPE  H15S12463   7.360   2.012   7.061 -0.6927  1.8264 -0.0655
  118SOPE  C21612464   7.525   1.999   6.913  0.0680 -0.7780  0.3141
  118SOPE  H16R12465   7.506   1.896   6.877 -0.2858 -0.8057  0.5778
  118SOPE  H16S12466   7.633   2.022   6.911  0.1876 -0.5769  3.7990
  118SOPE  C21712467   7.448   2.096   6.818  0.0061  0.5997 -0.4333
  118SOPE  H17R12468   7.437   2.200   6.858 -4.1864  0.0967  0.1754
  118SOPE  H17S12469   7.345   2.058   6.800  1.3124 -2.6256 -1.7609
  118SOPE  C21812470   7.526   2.100   6.680  0.6871  0.2971 -0.0989
  118SOPE  H18R12471   7.594   2.188   6.679 -0.1733  0.9872  0.8138
  118SOPE  H18S12472   7.444   2.125   6.609 -0.2031  0.1962  0.8639
  118SOPE  H18T12473   7.579   2.006   6.652  0.3676  0.6160 -1.9459
  118SOPE   C3312474   7.248   1.167   7.591 -0.4176  0.8821  0.2074
  118SOPE   H3X12475   7.305   1.072   7.604  1.2148  1.3521 -2.7353
  118SOPE   H3Y12476   7.313   1.236   7.648  1.4060 -0.9361  0.4256
  118SOPE   C3412477   7.274   1.197   7.445 -0.4781 -0.1799  0.5241
  118SOPE   H4X12478   7.379   1.168   7.424 -0.8171 -2.7388  1.9756
  118SOPE   H4Y12479   7.265   1.304   7.416 -3.2558 -0.8698 -1.6543
  118SOPE   C3512480   7.180   1.121   7.342  0.6706  0.0400 -1.3036
  118SOPE   H5X12481   7.089   1.185   7.331  0.0806 -0.2831  1.1622
  118SOPE   H5Y12482   7.144   1.030   7.395  2.3961  0.4154  0.6388
  118SOPE   C3612483   7.245   1.089   7.215  0.0162 -0.1582  0.1364
  118SOPE   H6X12484   7.183   1.012   7.163  0.7100 -1.8564  1.6902
  118SOPE   H6Y12485   7.345   1.041   7.223 -0.0420 -0.3659 -0.3483
  118SOPE   C3712486   7.243   1.215   7.122 -0.3628  0.0029 -0.4664
  118SOPE   H7X12487   7.293   1.298   7.177  1.1382 -1.1599 -0.0245
  118SOPE   H7Y12488   7.134   1.222   7.101 -0.8734 -1.5219  1.4174
  118SOPE   C3812489   7.334   1.188   7.002 -0.1316 -0.4952  0.2005
  118SOPE   H8X12490   7.282   1.128   6.925  0.7909  0.9043 -1.5875
  118SOPE   H8Y12491   7.421   1.126   7.031 -0.8525 -1.1335  1.0706
  118SOPE   C3912492   7.382   1.320   6.942 -0.7682  0.4647 -0.0966
  118SOPE   H9X12493   7.295   1.389   6.936  0.2766  1.7251 -1.1901
  118SOPE   H9Y12494   7.416   1.291   6.841 -2.4912  3.0707 -1.5253
  118SOPE  C31012495   7.509   1.381   7.001 -0.3774 -0.2495 -0.9646
  118SOPE  H10X12496   7.589   1.303   7.002  0.3656  0.4472  1.2289
  118SOPE  H10Y12497   7.487   1.408   7.107 -0.0949  2.0895 -1.4444
  118SOPE  C31112498   7.561   1.518   6.939 -0.2527  0.5609  0.6003
  118SOPE  H11X12499   7.476   1.589   6.944  0.4228  1.3650  0.7026
  118SOPE  H11Y12500   7.574   1.508   6.829 -1.7654  1.4727  0.3091
  118SOPE  C31212501   7.688   1.571   7.009  0.1168 -0.4230  0.2367
  118SOPE  H12X12502   7.763   1.489   7.007  0.0848 -0.4834 -2.9056
  118SOPE  H12Y12503   7.675   1.587   7.118 -1.1088  0.3801 -0.0059
  118SOPE  C31312504   7.752   1.691   6.938 -0.6250  0.1960  0.8272
  118SOPE  H13X12505   7.799   1.739   7.027  1.0273 -1.2853  0.8153
  118SOPE  H13Y12506   7.678   1.765   6.903 -1.2701  1.0795  3.7235
  118SOPE  C31412507   7.867   1.680   6.842  0.5272  0.0079 -0.0725
  118SOPE  H14X12508   7.948   1.617   6.885 -0.6302 -1.5550 -0.1118
  118SOPE  H14Y12509   7.904   1.779   6.805 -0.2288  0.2846 -0.0966
  118SOPE  C31512510   7.848   1.597   6.710 -0.3396  0.2445  0.3788
  118SOPE  H15X12511   7.767   1.640   6.648 -1.9149 -0.5110  1.8234
  118SOPE  H15Y12512   7.812   1.495   6.737  2.5815 -1.2697 -0.9953
  118SOPE  C31612513   7.976   1.580   6.621 -0.1248  0.5619 -0.4274
  118SOPE  H16X12514   8.038   1.509   6.679 -1.4379 -0.3385 -0.0530
  118SOPE  H16Y12515   8.036   1.672   6.613  0.8990 -0.0380  0.0817
  118SOPE  C31712516   7.934   1.515   6.488  0.5440  0.8306  1.2565
  118SOPE  H17X12517   7.886   1.417   6.511  2.8424 -0.6230  0.3089
  118SOPE  H17Y12518   8.025   1.487   6.431 -0.5901 -0.6926  0.0893
  118SOPE  C31812519   7.848   1.599   6.391  0.0964  0.0491  0.0279
  118SOPE  H18X12520   7.750   1.626   6.435 -0.6783  2.2674 -2.7935
  118SOPE  H18Y12521   7.835   1.532   6.303 -2.3425  0.9486 -0.3774
  118SOPE  H18Z12522   7.907   1.691   6.373  0.9909 -0.5818 -0.3318
  119SOPE     N12523   1.475   3.391   8.507  0.2466 -0.1143  0.1332
  119SOPE   HN112524   1.481   3.318   8.580  0.0189  0.2567  0.5248
  119SOPE   HN212525   1.538   3.470   8.532  0.3061 -0.0738 -0.1354
  119SOPE   HN312526   1.377   3.427   8.511  0.1295 -0.3732 -0.2742
  119SOPE   C1212527   1.511   3.317   8.381  0.2429  0.1594  0.4286
  119SOPE  H12A12528   1.560   3.386   8.309 -0.7414 -0.7534 -1.1573
  119SOPE  H12B12529   1.421   3.277   8.330  0.2127 -1.0155  1.3548
  119SOPE   C1112530   1.611   3.203   8.408  0.1626  0.1245 -0.8786
  119SOPE  H11A12531   1.706   3.235   8.457 -0.5232  0.4896  0.2703
  119SOPE  H11B12532   1.648   3.180   8.306 -1.7141  1.5137 -1.9236
  119SOPE     P12533   1.673   2.985   8.529  0.1916  0.1410 -0.1183
  119SOPE   O1312534   1.606   2.851   8.549  1.0626  0.3842 -0.1822
  119SOPE   O1412535   1.738   3.037   8.649  0.8775 -0.2362 -0.4616
  119SOPE   O1212536   1.562   3.088   8.471  0.1184  0.4541 -0.5178
  119SOPE   O1112537   1.784   2.968   8.422 -0.0696  0.5563  0.3139
  119SOPE    C112538   1.758   2.960   8.278  0.6034 -0.0535 -0.3741
  119SOPE    HA12539   1.799   3.043   8.217  0.5891 -0.1633 -0.5360
  119SOPE    HB12540   1.650   2.955   8.252  0.9916  0.4686 -2.2244
  119SOPE    C212541   1.816   2.833   8.210  0.1004  0.1241 -0.0905
  119SOPE    HS12542   1.799   2.761   8.293  1.0346  0.6223  0.5581
  119SOPE   O2112543   1.958   2.840   8.206 -0.1570 -0.4650 -1.2691
  119SOPE   C2112544   2.028   2.739   8.165  0.0103  0.2598 -0.0354
  119SOPE   O2212545   1.993   2.619   8.155 -0.0189 -0.0031  0.0286
  119SOPE   C2212546   2.171   2.793   8.143  0.4176  0.2933 -0.3005
  119SOPE   H2R12547   2.232   2.753   8.227 -2.1459 -0.8728  1.1410
  119SOPE   H2S12548   2.173   2.903   8.154 -1.7788  0.3027  0.7038
  119SOPE    C312549   1.751   2.797   8.076 -0.6719 -0.5318 -0.2308
  119SOPE    HX12550   1.642   2.813   8.064 -0.5751  0.2731 -0.0881
  119SOPE    HY12551   1.765   2.686   8.069  1.1582 -0.2512 -2.7024
  119SOPE   O3112552   1.818   2.865   7.968 -0.4502 -0.2255  0.3333
  119SOPE   C3112553   1.770   2.983   7.921 -0.1307 -0.2590 -0.1727
  119SOPE   O3212554   1.664   3.032   7.962 -0.7518 -0.1838 -0.0465
  119SOPE   C3212555   1.856   3.034   7.809  0.0989 -0.9069  0.1707
  119SOPE   H2X12556   1.907   2.946   7.765  0.8001 -2.4974  3.8001
  119SOPE   H2Y12557   1.937   3.089   7.861  0.0943  0.3009 -1.0268
  119SOPE   C2312558   2.241   2.755   8.012 -0.2284 -0.3303  0.1430
  119SOPE   H3R12559   2.235   2.646   7.994 -0.8956 -0.4750  1.1877
  119SOPE   H3S12560   2.349   2.782   8.007 -0.3752  0.0816 -1.1569
  119SOPE   C2412561   2.170   2.824   7.892 -0.4355  0.2390  0.0922
  119SOPE   H4R12562   2.064   2.791   7.883 -0.0194 -0.7420 -1.8913
  119SOPE   H4S12563   2.165   2.934   7.903 -2.2180  0.4071 -1.7065
  119SOPE   C2512564   2.240   2.790   7.760 -0.0466 -0.9219  0.0572
  119SOPE   H5R12565   2.349   2.785   7.781  0.1971 -0.8977 -1.0926
  119SOPE   H5S12566   2.213   2.691   7.716 -2.6693 -1.1316  1.9279
  119SOPE   C2612567   2.212   2.903   7.655  0.2083  0.2335 -0.4509
  119SOPE   H6R12568   2.117   2.880   7.602  0.8331 -1.0291 -1.0682
  119SOPE   H6S12569   2.199   3.001   7.704  1.0093  0.5759 -0.9045
  119SOPE   C2712570   2.332   2.920   7.562  0.9648 -0.6345  0.0217
  119SOPE   H7R12571   2.421   2.903   7.626  1.2776  0.4488 -0.1048
  119SOPE   H7S12572   2.327   2.834   7.491  0.1176 -0.4443 -0.1578
  119SOPE   C2812573   2.323   3.059   7.496 -0.7037 -0.0950  0.3787
  119SOPE   H8R12574   2.312   3.140   7.571 -1.4032 -0.7095  0.9540
  119SOPE   H8S12575   2.414   3.072   7.433 -2.4852  0.8523 -2.2063
  119SOPE   C2912576   2.211   3.061   7.398  0.5403  0.3190  0.3532
  119SOPE   H9112577   2.112   3.053   7.446 -0.3066 -0.4060 -1.4306
  119SOPE  C21012578   2.208   3.053   7.264 -0.2298  0.2652 -0.4166
  119SOPE  H10112579   2.107   3.055   7.222 -1.1631  4.7223  1.5365
  119SOPE  C21112580   2.330   3.034   7.174  0.0276  0.5613  0.0755
  119SOPE  H11R12581   2.413   2.991   7.234 -0.0721 -0.7255 -0.6704
  119SOPE  H11S12582   2.356   3.130   7.125  1.1873 -0.5351 -1.5748
  119SOPE  C21212583   2.305   2.938   7.057  0.2408  0.1246  0.0656
  119SOPE  H12R12584   2.244   2.846   7.072 -0.2504  0.3491 -0.4924
  119SOPE  H12S12585   2.401   2.889   7.029 -0.8709 -0.3912 -3.3622
  119SOPE  C21312586   2.245   3.021   6.941  0.0568 -0.6322  1.0573
  119SOPE  H13R12587   2.314   3.106   6.925  1.1560 -1.7621 -0.5315
  119SOPE  H13S12588   2.144   3.061   6.966 -0.6749 -0.2319 -2.1561
  119SOPE  C21412589   2.226   2.938   6.803 -0.6380  0.2217 -0.0995
  119SOPE  H14R12590   2.161   2.982   6.725  0.1051  2.6088  0.5354
  119SOPE  H14S12591   2.167   2.849   6.832 -0.9576  0.0262 -1.2954
  119SOPE  C21512592   2.367   2.902   6.742  0.5034 -0.4284  0.0776
  119SOPE  H15R12593   2.436   2.852   6.813 -1.7947 -0.6016  2.3353
  119SOPE  H15S12594   2.412   2.993   6.697 -2.0115  1.1252  0.5507
  119SOPE  C21612595   2.338   2.801   6.633  0.2140 -0.1165  0.4725
  119SOPE  H16R12596   2.301   2.700   6.661  0.2268 -0.2386  0.0465
  119SOPE  H16S12597   2.437   2.779   6.588 -0.1977  1.7880 -1.4743
  119SOPE  C21712598   2.251   2.860   6.516  0.0732 -0.6583  0.0891
  119SOPE  H17R12599   2.145   2.873   6.546 -0.7023  3.7204 -3.4269
  119SOPE  H17S12600   2.250   2.778   6.441  1.2564  1.5799 -2.5844
  119SOPE  C21812601   2.316   2.989   6.456 -0.2155  0.2298  0.2795
  119SOPE  H18R12602   2.424   2.978   6.431  0.0574  2.5527  0.2386
  119SOPE  H18S12603   2.305   3.076   6.524 -0.2009  0.5434 -0.1187
  119SOPE  H18T12604   2.260   2.999   6.361 -0.1291 -0.9655  0.0754
  119SOPE   C3312605   1.777   3.141   7.722  0.5620  0.5564 -0.2868
  119SOPE   H3X12606   1.770   3.237   7.778  0.3331  0.6718 -0.5102
  119SOPE   H3Y12607   1.678   3.105   7.687  0.5507  0.1171  0.1787
  119SOPE   C3412608   1.851   3.163   7.593 -0.8672 -0.4684  0.1311
  119SOPE   H4X12609   1.847   3.078   7.522 -2.0479  0.3074 -0.7959
  119SOPE   H4Y12610   1.956   3.188   7.619 -0.6441 -1.1478 -0.0923
  119SOPE   C3512611   1.798   3.293   7.523 -0.5730  0.2250 -0.5357
  119SOPE   H5X12612   1.833   3.383   7.578  0.6287 -0.1520 -0.6503
  119SOPE   H5Y12613   1.689   3.301   7.505 -0.4896 -0.7044 -1.5684
  119SOPE   C3612614   1.872   3.311   7.391  0.0348 -0.1483 -0.4653
  119SOPE   H6X12615   1.981   3.324   7.407  0.5230  1.0660 -3.8345
  119SOPE   H6Y12616   1.847   3.408   7.343  1.0427 -0.6845 -2.1944
  119SOPE   C3712617   1.856   3.197   7.286  0.2566 -0.1807  0.3281
  119SOPE   H7X12618   1.747   3.173   7.284  0.0488  0.7442  0.3359
  119SOPE   H7Y12619   1.906   3.105   7.323 -1.3883 -1.4003 -0.3461
  119SOPE   C3812620   1.899   3.239   7.148 -0.1216  0.0594 -0.4483
  119SOPE   H8X12621   1.932   3.152   7.087 -1.3859 -1.6441  1.2016
  119SOPE   H8Y12622   1.987   3.308   7.151  0.0873 -0.2237  2.1348
  119SOPE   C3912623   1.782   3.317   7.071  0.0662 -0.5396 -0.0554
  119SOPE   H9X12624   1.753   3.407   7.129  0.3719 -1.1018  1.0027
  119SOPE   H9Y12625   1.689   3.256   7.075 -0.4732  0.2557 -0.1651
  119SOPE  C31012626   1.808   3.372   6.932  0.1281 -0.4561 -0.0695
  119SOPE  H10X12627   1.863   3.305   6.862  1.3098  3.0478 -2.8251
  119SOPE  H10Y12628   1.856   3.472   6.935 -1.0333  0.1047  0.3407
  119SOPE  C31112629   1.672   3.390   6.856  0.3154  0.1603  0.6977
  119SOPE  H11X12630   1.597   3.424   6.931 -1.6132 -2.0059 -0.1440
  119SOPE  H11Y12631   1.635   3.288   6.831  0.1265  0.4130 -0.0997
  119SOPE  C31212632   1.667   3.485   6.735 -0.1105  0.4903 -0.1846
  119SOPE  H12X12633   1.752   3.457   6.668 -0.5351 -0.5223 -0.3283
  119SOPE  H12Y12634   1.681   3.590   6.768 -0.1076 -0.1991  2.1680
  119SOPE  C31312635   1.527   3.483   6.668 -0.0073 -0.0390  0.5193
  119SOPE  H13X12636   1.456   3.513   6.749  0.4492  1.3134  0.4521
  119SOPE  H13Y12637   1.513   3.381   6.626  1.3831  1.2461 -3.4917
  119SOPE  C31412638   1.511   3.581   6.551 -0.1116  1.3869 -0.7581
  119SOPE  H14X12639   1.590   3.559   6.476  0.1927  0.4369 -0.1847
  119SOPE  H14Y12640   1.515   3.687   6.584  0.0948  1.5145 -1.1798
  119SOPE  C31512641   1.378   3.565   6.473  0.0527  0.1059  0.2009
  119SOPE  H15X12642   1.295   3.611   6.532 -1.1871  1.3428 -2.3351
  119SOPE  H15Y12643   1.351   3.460   6.452 -1.7314  0.5534  0.1270
  119SOPE  C31612644   1.373   3.639   6.336  0.1808  0.2630 -0.6975
  119SOPE  H16X12645   1.275   3.627   6.284 -0.4025 -1.4384  0.6707
  119SOPE  H16Y12646   1.444   3.582   6.273 -0.2523 -0.6943 -0.3453
  119SOPE  C31712647   1.402   3.783   6.341  0.4361  0.4430  0.8260
  119SOPE  H17X12648   1.397   3.817   6.235  3.2685  1.3486  0.8953
  119SOPE  H17Y12649   1.502   3.814   6.376  0.7549 -0.6960  0.9884
  119SOPE  C31812650   1.303   3.875   6.404  1.1883  0.7082  0.2577
  119SOPE  H18X12651   1.285   3.847   6.510 -0.0932  1.2001  0.1920
  119SOPE  H18Y12652   1.203   3.867   6.355  0.2446  0.0992  2.1593
  119SOPE  H18Z12653   1.338   3.978   6.384  0.1045  0.8358 -1.1654
  120SOPE     N12654   6.730   2.671   8.172  0.2577  0.0019 -0.1958
  120SOPE   HN112655   6.774   2.615   8.248  2.3275  0.2863 -1.0940
  120SOPE   HN212656   6.732   2.629   8.077  0.4019  1.4623 -0.8701
  120SOPE   HN312657   6.783   2.760   8.161 -2.4145  1.8962  1.1502
  120SOPE   C1212658   6.578   2.698   8.201 -0.5384 -0.2597  0.2490
  120SOPE  H12A12659   6.534   2.735   8.106 -1.1087  0.8680  0.9415
  120SOPE  H12B12660   6.578   2.778   8.277  1.9014  1.3131 -1.2720
  120SOPE   C1112661   6.503   2.570   8.242 -0.1663  0.2246 -0.1981
  120SOPE  H11A12662   6.489   2.508   8.151 -1.5626  0.4918 -0.1906
  120SOPE  H11B12663   6.411   2.609   8.290  0.1374 -0.4181  0.9264
  120SOPE     P12664   6.631   2.351   8.336 -0.2691 -0.2674 -0.0440
  120SOPE   O1312665   6.528   2.247   8.311 -0.1114  0.1301  0.0850
  120SOPE   O1412666   6.726   2.344   8.448 -0.4036 -0.0261 -0.3993
  120SOPE   O1212667   6.570   2.498   8.340  0.4202 -0.0432 -0.3873
  120SOPE   O1112668   6.709   2.369   8.204  0.0123 -0.5861  0.0085
  120SOPE    C112669   6.790   2.278   8.150  0.3791  0.0052  0.0827
  120SOPE    HA12670   6.751   2.175   8.138  0.2650 -0.0230  0.6653
  120SOPE    HB12671   6.884   2.271   8.209  0.2408 -1.7203  0.1282
  120SOPE    C212672   6.825   2.319   8.003 -0.8124 -0.6942  0.7134
  120SOPE    HS12673   6.862   2.424   8.002  0.4265 -1.1192  0.5950
  120SOPE   O2112674   6.712   2.307   7.917 -0.2027  0.4229  0.0554
  120SOPE   C2112675   6.634   2.418   7.917 -0.2193 -0.4080 -0.1681
  120SOPE   O2212676   6.657   2.519   7.974  0.1246 -0.0486  0.2348
  120SOPE   C2212677   6.508   2.383   7.839  0.3838 -0.0813 -0.1059
  120SOPE   H2R12678   6.446   2.473   7.857  0.5068  0.1682 -0.9152
  120SOPE   H2S12679   6.452   2.304   7.894  0.3572 -0.5052 -0.7250
  120SOPE    C312680   6.928   2.227   7.933 -0.2261 -0.8651  0.3025
  120SOPE    HX12681   6.898   2.120   7.940  1.3084 -1.1896  3.3412
  120SOPE    HY12682   7.017   2.238   7.999 -0.9183 -3.5907  1.8673
  120SOPE   O3112683   6.968   2.264   7.798 -0.2159  0.1191 -0.0398
  120SOPE   C3112684   6.899   2.217   7.696  0.3991  0.5044 -0.2528
  120SOPE   O3212685   6.816   2.129   7.710 -0.3428  0.9007 -0.1962
  120SOPE   C3212686   6.950   2.281   7.565  0.0003 -0.2059  0.0056
  120SOPE   H2X12687   6.956   2.391   7.581 -1.6360  0.2558 -2.1436
  120SOPE   H2Y12688   6.870   2.259   7.491 -2.0946 -1.6786  2.5127
  120SOPE   C2312689   6.535   2.353   7.694 -0.3812  0.6335  0.8721
  120SOPE   H3R12690   6.450   2.330   7.625  2.6805 -1.7920 -2.5126
  120SOPE   H3S12691   6.603   2.267   7.677  0.7926  1.7301 -0.2239
  120SOPE   C2412692   6.596   2.474   7.616 -0.3868  0.3986  0.0184
  120SOPE   H4R12693   6.541   2.569   7.633  0.4298  1.1085 -1.1869
  120SOPE   H4S12694   6.696   2.493   7.661 -0.9182  1.7483  0.7016
  120SOPE   C2512695   6.621   2.450   7.464  0.5066  0.3432  0.0028
  120SOPE   H5R12696   6.678   2.356   7.450 -2.7176 -1.4313 -2.8488
  120SOPE   H5S12697   6.526   2.445   7.406  0.1277  0.7874  0.5619
  120SOPE   C2612698   6.706   2.564   7.408 -0.7836 -0.7162 -0.0566
  120SOPE   H6R12699   6.654   2.662   7.416 -0.7715 -0.7544  0.5481
  120SOPE   H6S12700   6.795   2.562   7.474  0.4099  1.2651 -1.4877
  120SOPE   C2712701   6.744   2.540   7.258  0.3744  0.1607  0.4774
  120SOPE   H7R12702   6.792   2.441   7.252 -1.4642 -0.7822  0.5033
  120SOPE   H7S12703   6.645   2.534   7.206  1.3969 -2.4816 -1.3825
  120SOPE   C2812704   6.834   2.659   7.197  0.4908  0.1513  0.2270
  120SOPE   H8R12705   6.761   2.743   7.193 -0.6007 -0.7246  0.8488
  120SOPE   H8S12706   6.918   2.684   7.264 -0.3565  5.0867 -0.1690
  120SOPE   C2912707   6.895   2.617   7.065  0.3457 -0.8002  0.2746
  120SOPE   H9112708   6.988   2.559   7.070  0.2225 -1.2275 -1.6798
  120SOPE  C21012709   6.864   2.643   6.934  0.2065  0.2034 -0.8952
  120SOPE  H10112710   6.934   2.611   6.855 -2.5004 -1.3917 -2.8023
  120SOPE  C21112711   6.745   2.732   6.889  0.2017 -0.4204  0.2958
  120SOPE  H11R12712   6.660   2.727   6.961  1.1904  2.4676  1.8296
  120SOPE  H11S12713   6.704   2.697   6.792 -1.9230  1.8504  0.2887
  120SOPE  C21212714   6.795   2.873   6.866 -0.2586  0.3291  0.1704
  120SOPE  H12R12715   6.855   2.900   6.956  2.1647 -0.7285 -1.0215
  120SOPE  H12S12716   6.712   2.941   6.840  0.0407 -0.4780 -3.4644
  120SOPE  C21312717   6.895   2.878   6.744  0.3613  0.1804 -0.1341
  120SOPE  H13R12718   6.997   2.848   6.778 -0.1096 -1.2823  0.0498
  120SOPE  H13S12719   6.903   2.983   6.709  0.1222  0.6675  1.1921
  120SOPE  C21412720   6.866   2.792   6.625  0.8282  0.6934  0.0692
  120SOPE  H14R12721   6.767   2.827   6.589  0.7489  2.3225  1.6685
  120SOPE  H14S12722   6.881   2.683   6.640 -0.3771  0.5966  0.6993
  120SOPE  C21512723   6.967   2.813   6.512  0.2648 -0.6045 -0.4381
  120SOPE  H15R12724   7.063   2.773   6.550  0.6963  1.1917  0.5153
  120SOPE  H15S12725   6.982   2.923   6.514 -2.5295 -0.1626 -0.1288
  120SOPE  C21612726   6.926   2.761   6.381  0.3087 -0.0145 -0.1379
  120SOPE  H16R12727   6.834   2.819   6.358 -0.4827 -0.4019  1.8633
  120SOPE  H16S12728   6.890   2.656   6.374  1.2910 -0.3650 -0.1534
  120SOPE  C21712729   7.032   2.798   6.277 -0.1859  0.1096  0.2918
  120SOPE  H17R12730   7.016   2.906   6.257  0.2931 -0.1403 -1.5970
  120SOPE  H17S12731   7.017   2.746   6.180  0.9198 -0.1503  0.2434
  120SOPE  C21812732   7.178   2.789   6.313 -0.2622 -0.1592 -0.2335
  120SOPE  H18R12733   7.250   2.819   6.234  2.1078 -2.7245  0.7972
  120SOPE  H18S12734   7.191   2.683   6.341 -0.4948 -0.0849  0.1612
  120SOPE  H18T12735   7.188   2.849   6.406 -1.2313  0.1152 -0.2963
  120SOPE   C3312736   7.094   2.239   7.536  0.5355  0.1344  0.4793
  120SOPE   H3X12737   7.095   2.128   7.532 -1.3786  0.1135 -2.1405
  120SOPE   H3Y12738   7.169   2.284   7.604 -1.1025  2.0593  1.1172
  120SOPE   C3412739   7.147   2.282   7.395  0.2368  0.6486  0.1572
  120SOPE   H4X12740   7.255   2.263   7.377 -0.0556  0.1543 -1.1597
  120SOPE   H4Y12741   7.131   2.392   7.385 -1.6379  0.2244 -2.7841
  120SOPE   C3512742   7.061   2.236   7.284  0.3007  0.5897 -0.0388
  120SOPE   H5X12743   6.956   2.271   7.296  0.3968  0.7070  0.4957
  120SOPE   H5Y12744   7.068   2.125   7.287  0.5847  0.5873 -0.7448
  120SOPE   C3612745   7.122   2.280   7.155  0.5193  0.3756 -0.7748
  120SOPE   H6X12746   7.214   2.221   7.132  0.3373 -0.4599  0.5323
  120SOPE   H6Y12747   7.160   2.384   7.164 -1.2312  0.9526  0.4868
  120SOPE   C3712748   7.034   2.285   7.036 -0.4505  0.5667  0.1599
  120SOPE   H7X12749   6.934   2.332   7.052 -1.9597 -1.8231 -1.5471
  120SOPE   H7Y12750   7.012   2.181   7.004 -0.0101  0.9081 -1.3280
  120SOPE   C3812751   7.114   2.333   6.907 -0.1366 -0.1888 -1.0206
  120SOPE   H8X12752   7.193   2.254   6.902 -0.9249 -1.2371  1.4179
  120SOPE   H8Y12753   7.150   2.436   6.927  0.8324 -0.7641  0.4300
  120SOPE   C3912754   7.033   2.322   6.784  0.5577  1.2346  0.7879
  120SOPE   H9X12755   6.944   2.387   6.785  1.0306  1.8844  1.6190
  120SOPE   H9Y12756   7.004   2.215   6.772  0.0213  1.3696  0.8668
  120SOPE  C31012757   7.108   2.356   6.652  0.7240  0.1881  0.2875
  120SOPE  H10X12758   7.188   2.280   6.638  2.3268  1.4130  2.2745
  120SOPE  H10Y12759   7.144   2.460   6.664 -0.3957  0.4079  2.1765
  120SOPE  C31112760   7.016   2.341   6.525  0.3238 -0.0412 -0.2658
  120SOPE  H11X12761   7.078   2.376   6.440 -2.1732  0.6496 -1.9053
  120SOPE  H11Y12762   6.932   2.412   6.534  0.1599  0.1197 -2.4667
  120SOPE  C31212763   6.975   2.189   6.509  0.2705 -0.4901  0.2491
  120SOPE  H12X12764   6.890   2.172   6.579 -0.4239 -0.4198 -0.5650
  120SOPE  H12Y12765   7.049   2.112   6.537  2.7372  0.7766 -2.3322
  120SOPE  C31312766   6.909   2.153   6.372 -0.5998 -0.2503 -0.4797
  120SOPE  H13X12767   6.989   2.156   6.295 -0.4809 -2.7763 -0.5155
  120SOPE  H13Y12768   6.833   2.230   6.345 -0.4748 -0.2348 -0.8009
  120SOPE  C31412769   6.856   2.007   6.358 -0.3359 -0.1749  0.3525
  120SOPE  H14X12770   6.789   1.989   6.445 -1.6659  1.3210 -0.3218
  120SOPE  H14Y12771   6.943   1.939   6.367  0.4089  0.6744 -0.1913
  120SOPE  C31512772   6.784   1.997   6.226  0.4989  0.0793 -0.3707
  120SOPE  H15X12773   6.710   2.079   6.224  1.3318  0.8973  0.8977
  120SOPE  H15Y12774   6.735   1.897   6.225 -0.2014  0.4217 -0.9579
  120SOPE  C31612775   6.874   2.009   6.098  0.0178  0.6024  0.2618
  120SOPE  H16X12776   6.964   1.945   6.109  0.5895  0.6364 -3.0896
  120SOPE  H16Y12777   6.913   2.112   6.090 -0.0472  0.5039 -2.6051
  120SOPE  C31712778   6.810   1.962   5.967  0.3161  0.0084  0.1966
  120SOPE  H17X12779   6.767   1.860   5.984  0.1781  0.1260  0.5684
  120SOPE  H17Y12780   6.884   1.955   5.884 -1.1148  1.1825 -1.2469
  120SOPE  C31812781   6.692   2.057   5.919  0.2572 -0.1845 -0.0729
  120SOPE  H18X12782   6.641   2.013   5.831  1.5987  0.8118 -1.4158
  120SOPE  H18Y12783   6.745   2.149   5.883 -0.2667 -0.3212 -1.2483
  120SOPE  H18Z12784   6.626   2.077   6.005  0.4994 -1.8506  0.5233
  121SOPE     N12785   6.377   3.393   8.359  0.5364  0.3021 -1.0955
  121SOPE   HN112786   6.396   3.293   8.341  0.5959 -0.2693  1.7251
  121SOPE   HN212787   6.419   3.417   8.452 -1.0224  0.5292 -0.4232
  121SOPE   HN312788   6.276   3.415   8.355 -0.2084 -2.3915  0.5051
  121SOPE   C1212789   6.462   3.469   8.263 -0.5806 -0.1068 -0.0210
  121SOPE  H12A12790   6.455   3.577   8.285  1.5293  0.2915 -1.0667
  121SOPE  H12B12791   6.417   3.451   8.163 -1.8200  0.4390  0.4198
  121SOPE   C1112792   6.608   3.419   8.269  0.1807 -0.1203 -0.2715
  121SOPE  H11A12793   6.658   3.485   8.343 -1.0043  1.8767 -1.1659
  121SOPE  H11B12794   6.665   3.445   8.178  0.3627  2.3576  0.4806
  121SOPE     P12795   6.671   3.163   8.236  0.2299 -0.0753 -0.0837
  121SOPE   O1312796   6.580   3.046   8.253 -0.4817  0.5179  0.9163
  121SOPE   O1412797   6.812   3.158   8.275 -0.5366 -0.2628  0.3569
  121SOPE   O1212798   6.600   3.284   8.311  0.0388 -0.3075  0.4906
  121SOPE   O1112799   6.670   3.218   8.088  0.3947  0.0148  0.2203
  121SOPE    C112800   6.541   3.201   8.012 -0.6687 -0.2762 -0.7405
  121SOPE    HA12801   6.533   3.279   7.934  0.4557 -1.0763 -1.7035
  121SOPE    HB12802   6.454   3.228   8.075  0.3326  1.3858  0.0074
  121SOPE    C212803   6.520   3.061   7.949  0.1086  0.5618  0.8355
  121SOPE    HS12804   6.537   2.987   8.030 -0.1895 -0.1025  0.3003
  121SOPE   O2112805   6.616   3.045   7.846  0.0824  0.4062 -0.1116
  121SOPE   C2112806   6.636   2.916   7.802 -0.3801 -0.0879  0.4872
  121SOPE   O2212807   6.570   2.822   7.843 -0.2655  0.3923  0.3793
  121SOPE   C2212808   6.743   2.920   7.697 -0.9291 -0.1708  0.5215
  121SOPE   H2R12809   6.758   2.816   7.659 -1.7548 -0.7348  1.6911
  121SOPE   H2S12810   6.837   2.952   7.747 -1.4157  0.8321  0.8156
  121SOPE    C312811   6.377   3.061   7.891  0.7487 -0.4947  0.4047
  121SOPE    HX12812   6.307   3.091   7.972  1.8022 -2.2634  2.0621
  121SOPE    HY12813   6.349   2.958   7.860 -2.9152  0.2104  0.9608
  121SOPE   O3112814   6.360   3.162   7.786  0.1398 -0.0194  0.2329
  121SOPE   C3112815   6.358   3.124   7.659 -0.1163  0.0449  0.1942
  121SOPE   O3212816   6.392   3.020   7.608  0.2131  0.2021 -0.9511
  121SOPE   C3212817   6.318   3.245   7.575  0.2788  0.0490 -0.5243
  121SOPE   H2X12818   6.384   3.330   7.601  1.0107 -0.3889 -0.9372
  121SOPE   H2Y12819   6.218   3.281   7.607  0.6476  1.5965 -1.0551
  121SOPE   C2312820   6.708   3.005   7.573 -0.3767  1.0993  0.2439
  121SOPE   H3R12821   6.692   3.110   7.606  0.2394  0.8537  1.3718
  121SOPE   H3S12822   6.621   2.966   7.516  0.7803 -0.3916 -0.5863
  121SOPE   C2412823   6.823   3.007   7.473 -0.5291 -0.1579  0.6770
  121SOPE   H4R12824   6.889   3.090   7.507  0.5208  0.1883 -1.9703
  121SOPE   H4S12825   6.883   2.915   7.458 -1.4631 -0.5029 -1.2835
  121SOPE   C2512826   6.779   3.052   7.335 -0.5505 -0.6569  0.6577
  121SOPE   H5R12827   6.701   2.979   7.305  0.1532 -0.7373 -1.0745
  121SOPE   H5S12828   6.748   3.158   7.346 -0.7993 -0.6984  0.3699
  121SOPE   C2612829   6.892   3.042   7.227  0.5646 -0.3197  0.3532
  121SOPE   H6R12830   6.921   2.935   7.218  0.3519 -0.2940 -0.7948
  121SOPE   H6S12831   6.844   3.070   7.131  0.9189 -1.5450 -0.2037
  121SOPE   C2712832   7.019   3.125   7.259 -0.1689  0.0991 -0.2019
  121SOPE   H7R12833   6.972   3.203   7.322 -2.5255 -0.9203 -0.5925
  121SOPE   H7S12834   7.099   3.066   7.310  0.6624  3.0075  2.1380
  121SOPE   C2812835   7.075   3.195   7.135 -0.2668 -0.0533  1.1290
  121SOPE   H8R12836   6.992   3.254   7.090  2.1599  1.7981 -1.2847
  121SOPE   H8S12837   7.151   3.268   7.169  0.5450 -0.7506  0.8393
  121SOPE   C2912838   7.122   3.097   7.036 -0.6197  0.0477  0.7652
  121SOPE   H9112839   7.186   3.018   7.078 -0.8541 -1.2764 -1.2103
  121SOPE  C21012840   7.103   3.100   6.907  0.5255  0.6869 -0.8999
  121SOPE  H10112841   7.142   3.013   6.852  0.9057  1.8588 -2.5726
  121SOPE  C21112842   7.036   3.210   6.824  0.0738  0.2830  1.0435
  121SOPE  H11R12843   6.953   3.263   6.876 -2.9674 -2.6421 -0.3783
  121SOPE  H11S12844   6.977   3.167   6.740 -0.3054  0.9337  0.9765
  121SOPE  C21212845   7.131   3.322   6.771  0.5419  0.6065 -1.0710
  121SOPE  H12R12846   7.185   3.272   6.689  1.2852 -1.6522  0.6926
  121SOPE  H12S12847   7.196   3.360   6.853 -0.4944 -1.6544  0.8892
  121SOPE  C21312848   7.045   3.440   6.715  0.1111 -0.0816 -0.1569
  121SOPE  H13R12849   7.001   3.496   6.800 -1.7381  0.0555 -1.1467
  121SOPE  H13S12850   6.962   3.406   6.649  1.0699 -0.3767 -1.2461
  121SOPE  C21412851   7.117   3.549   6.633 -0.4927 -0.3423 -0.6279
  121SOPE  H14R12852   7.159   3.526   6.533 -0.1325  1.7386 -1.0071
  121SOPE  H14S12853   7.199   3.568   6.706 -1.0639 -0.3994  0.0381
  121SOPE  C21512854   7.036   3.678   6.633  0.3881 -0.3214  0.1385
  121SOPE  H15R12855   7.105   3.761   6.608  0.6998 -0.6554 -0.1188
  121SOPE  H15S12856   6.997   3.703   6.734 -1.8282  0.3293 -0.8038
  121SOPE  C21612857   6.924   3.681   6.540  0.1882 -0.2917  0.7770
  121SOPE  H16R12858   6.856   3.759   6.580 -0.3282 -0.9480  1.2083
  121SOPE  H16S12859   6.863   3.588   6.548  0.4272 -0.4355  0.9285
  121SOPE  C21712860   6.950   3.734   6.395  0.2140 -0.4197 -0.8991
  121SOPE  H17R12861   6.854   3.705   6.348 -0.9233 -0.0875  1.0906
  121SOPE  H17S12862   7.027   3.669   6.348 -0.3085  0.9555 -3.8342
  121SOPE  C21812863   6.979   3.891   6.376 -0.5401  0.2903 -0.4064
  121SOPE  H18R12864   6.958   3.916   6.270 -3.3270 -2.5857 -0.7145
  121SOPE  H18S12865   7.083   3.904   6.413 -0.5601 -3.4135  1.4404
  121SOPE  H18T12866   6.907   3.943   6.443 -1.6469 -1.9676  0.2823
  121SOPE   C3312867   6.316   3.228   7.421 -0.1722  0.2959 -0.4656
  121SOPE   H3X12868   6.240   3.151   7.396  0.1905 -0.1792 -0.1278
  121SOPE   H3Y12869   6.408   3.169   7.405 -0.1827 -0.4859  1.9343
  121SOPE   C3412870   6.303   3.362   7.350  0.1459  0.4031  0.4331
  121SOPE   H4X12871   6.398   3.416   7.369 -0.7806  1.7688  1.4476
  121SOPE   H4Y12872   6.223   3.418   7.403  0.5967  1.2742  0.2058
  121SOPE   C3512873   6.269   3.329   7.206  0.0711 -0.1782 -0.2546
  121SOPE   H5X12874   6.180   3.262   7.201 -0.1133 -0.0169  0.6053
  121SOPE   H5Y12875   6.350   3.272   7.158 -0.4963 -0.7189 -0.5866
  121SOPE   C3612876   6.227   3.460   7.128 -0.3750  0.6367 -0.0145
  121SOPE   H6X12877   6.327   3.502   7.101  0.2970  0.4173  1.9206
  121SOPE   H6Y12878   6.166   3.538   7.178 -0.3867  0.8764 -0.4006
  121SOPE   C3712879   6.168   3.425   6.988  0.0330  0.4428 -1.5462
  121SOPE   H7X12880   6.063   3.392   7.007 -0.0908  1.2976 -0.6457
  121SOPE   H7Y12881   6.232   3.351   6.935  0.6684 -1.1851  1.2846
  121SOPE   C3812882   6.141   3.549   6.904  0.4012  0.2817  0.5435
  121SOPE   H8X12883   6.238   3.596   6.878 -0.3449  1.6284  0.0566
  121SOPE   H8Y12884   6.081   3.615   6.970  0.4783 -0.5554  1.4668
  121SOPE   C3912885   6.064   3.510   6.775 -0.2799  0.3336 -0.2212
  121SOPE   H9X12886   5.954   3.512   6.789 -0.5258 -1.4809 -1.4832
  121SOPE   H9Y12887   6.100   3.417   6.725 -3.2206 -0.7260 -0.5809
  121SOPE  C31012888   6.086   3.612   6.672  0.3343 -0.3838  0.2166
  121SOPE  H10X12889   6.189   3.600   6.632  1.3005 -1.4725  2.8611
  121SOPE  H10Y12890   6.080   3.711   6.721 -0.2367 -0.0667 -0.4672
  121SOPE  C31112891   5.984   3.586   6.562 -0.6234  0.0397 -0.2996
  121SOPE  H11X12892   5.885   3.566   6.608 -0.5494 -0.3327 -0.3010
  121SOPE  H11Y12893   6.012   3.489   6.515 -2.8234 -0.2651 -1.0655
  121SOPE  C31212894   5.986   3.696   6.451 -0.0382  0.9351  0.7064
  121SOPE  H12X12895   6.093   3.715   6.428 -0.7672  4.6874 -0.1940
  121SOPE  H12Y12896   5.953   3.789   6.503  0.1171 -0.2379  3.0422
  121SOPE  C31312897   5.899   3.667   6.334 -0.1268  0.2417 -0.7372
  121SOPE  H13X12898   5.886   3.745   6.256  0.9578 -1.4392 -2.7329
  121SOPE  H13Y12899   5.800   3.647   6.381  0.9613  1.3707  2.2807
  121SOPE  C31412900   5.940   3.540   6.259 -0.2637 -0.7929  0.4668
  121SOPE  H14X12901   5.987   3.456   6.316 -0.6757 -1.9469 -0.8424
  121SOPE  H14Y12902   6.021   3.559   6.185  0.4206 -2.3803  0.7532
  121SOPE  C31512903   5.826   3.473   6.182 -0.2280  0.2141 -0.2758
  121SOPE  H15X12904   5.751   3.432   6.253  1.5020 -1.6898  0.5440
  121SOPE  H15Y12905   5.869   3.384   6.132 -1.6990 -1.7658  1.7821
  121SOPE  C31612906   5.747   3.564   6.082  0.9643  0.5477 -0.7095
  121SOPE  H16X12907   5.709   3.660   6.124  0.2473 -0.0500  0.0593
  121SOPE  H16Y12908   5.661   3.501   6.051  0.7311 -0.0654  1.0517
  121SOPE  C31712909   5.835   3.586   5.955  0.2567  0.2398 -0.0081
  121SOPE  H17X12910   5.867   3.487   5.915  0.9151  0.6883 -0.6063
  121SOPE  H17Y12911   5.919   3.650   5.988 -0.9504  0.9354  1.8471
  121SOPE  C31812912   5.770   3.654   5.836 -0.1276  0.5155  0.0439
  121SOPE  H18X12913   5.709   3.738   5.876 -2.4093 -1.5595  1.1857
  121SOPE  H18Y12914   5.692   3.584   5.801  0.2965  0.6764 -1.2754
  121SOPE  H18Z12915   5.837   3.672   5.749 -0.1294 -1.0041 -0.2935
  122SOPE     N12916   2.914   3.918   8.432  0.0595  0.2947  0.1179
  122SOPE   HN112917   2.908   3.909   8.535  2.0870 -1.0859  0.1739
  122SOPE   HN212918   2.981   3.844   8.403  0.6511  0.1937  1.6734
  122SOPE   HN312919   2.954   4.012   8.410  3.2440 -1.0705 -0.4629
  122SOPE   C1212920   2.772   3.888   8.387  0.1738 -0.5020  0.3282
  122SOPE  H12A12921   2.759   3.779   8.405 -0.4956 -0.2852  1.2147
  122SOPE  H12B12922   2.772   3.904   8.277  1.5569 -2.4371 -0.0080
  122SOPE   C1112923   2.663   3.971   8.454  0.1455  0.6718 -0.0624
  122SOPE  H11A12924   2.653   3.939   8.560 -1.0337 -0.5144 -0.5042
  122SOPE  H11B12925   2.562   3.939   8.421 -0.4963  3.1115 -0.6325
  122SOPE     P12926   2.588   4.200   8.351 -0.7640 -0.1705 -0.3021
  122SOPE   O1312927   2.651   4.326   8.312 -0.0077  0.2402  0.0979
  122SOPE   O1412928   2.461   4.210   8.425  0.0178 -0.2179  0.0764
  122SOPE   O1212929   2.688   4.111   8.437 -0.1470  0.0101 -0.1330
  122SOPE   O1112930   2.568   4.117   8.221 -0.3210 -0.0355 -0.6923
  122SOPE    C112931   2.657   4.127   8.105  0.0560 -0.4734 -0.2315
  122SOPE    HA12932   2.765   4.119   8.134 -0.5142 -1.2021  1.9200
  122SOPE    HB12933   2.639   4.226   8.059 -1.1203  0.4096  1.9743
  122SOPE    C212934   2.621   4.013   8.008 -0.1347 -0.0524 -0.5271
  122SOPE    HS12935   2.647   3.916   8.055 -1.2188 -0.1149 -0.0289
  122SOPE   O2112936   2.689   4.015   7.890 -0.3136  0.0150 -0.4069
  122SOPE   C2112937   2.817   3.973   7.889  0.0650 -0.6168 -0.3044
  122SOPE   O2212938   2.888   3.951   7.984  0.0810 -0.4528  0.4905
  122SOPE   C2212939   2.866   3.954   7.746 -0.1077  0.2739  0.3629
  122SOPE   H2R12940   2.974   3.929   7.745 -0.7415 -3.4975 -3.4392
  122SOPE   H2S12941   2.849   4.051   7.694 -1.8461 -0.5350 -0.6732
  122SOPE    C312942   2.465   4.022   7.972 -0.1760 -0.9919  0.2072
  122SOPE    HX12943   2.462   4.118   7.916 -0.6020  0.3388  2.3960
  122SOPE    HY12944   2.417   4.044   8.070 -0.1310 -0.1111  0.0397
  122SOPE   O3112945   2.408   3.908   7.909  0.3701  0.1682  0.7961
  122SOPE   C3112946   2.390   3.919   7.775 -0.5053  0.0539  0.2497
  122SOPE   O3212947   2.402   4.023   7.709 -0.5175  0.4909 -0.1096
  122SOPE   C3212948   2.374   3.773   7.720  0.6225  0.5100  0.1098
  122SOPE   H2X12949   2.275   3.730   7.748  1.4367 -0.9570  0.8591
  122SOPE   H2Y12950   2.451   3.707   7.765  0.3267  0.1169  0.0509
  122SOPE   C2312951   2.798   3.835   7.674  0.5318 -0.3313  0.1389
  122SOPE   H3R12952   2.688   3.843   7.680  0.5462 -0.1830  0.2010
  122SOPE   H3S12953   2.825   3.742   7.729 -0.2753 -0.1340  0.9049
  122SOPE   C2412954   2.834   3.833   7.521 -0.0478  0.0188  0.3791
  122SOPE   H4R12955   2.807   3.933   7.481 -0.6091  0.2836  1.3974
  122SOPE   H4S12956   2.942   3.809   7.518  0.0338 -0.0090  2.3555
  122SOPE   C2512957   2.752   3.735   7.438 -0.4367 -0.4138 -0.0858
  122SOPE   H5R12958   2.764   3.631   7.474  3.9375 -0.8031 -2.0768
  122SOPE   H5S12959   2.647   3.772   7.441 -0.0720  0.5981  0.9985
  122SOPE   C2612960   2.810   3.725   7.297  0.4811 -0.0912  0.9985
  122SOPE   H6R12961   2.817   3.829   7.257 -1.5148  0.2050  1.2811
  122SOPE   H6S12962   2.913   3.685   7.307  0.8264  0.5610  0.1573
  122SOPE   C2712963   2.709   3.657   7.198 -0.9093 -0.1133 -1.0594
  122SOPE   H7R12964   2.700   3.559   7.249 -0.4328  0.2862 -0.1727
  122SOPE   H7S12965   2.617   3.718   7.192 -0.7321  0.2761 -0.0190
  122SOPE   C2812966   2.769   3.638   7.058  0.5854  0.3319 -0.0278
  122SOPE   H8R12967   2.875   3.607   7.074  0.9055 -0.2107 -2.7944
  122SOPE   H8S12968   2.712   3.553   7.015  2.3736 -0.9408  0.0270
  122SOPE   C2912969   2.765   3.765   6.983  0.3642  0.5111  0.0585
  122SOPE   H9112970   2.807   3.857   7.028  0.6807  0.0008  0.8337
  122SOPE  C21012971   2.699   3.775   6.867 -0.2541  0.8806  0.3975
  122SOPE  H10112972   2.722   3.872   6.819  1.3057  1.1477  1.6092
  122SOPE  C21112973   2.631   3.664   6.790  0.8208 -0.3852 -0.0870
  122SOPE  H11R12974   2.540   3.709   6.744  0.1599 -1.4697  0.1388
  122SOPE  H11S12975   2.595   3.581   6.854  1.8018 -0.4281  0.4293
  122SOPE  C21212976   2.704   3.604   6.675  0.1458  1.0181  0.1675
  122SOPE  H12R12977   2.741   3.688   6.612  1.2669  0.6748  0.3560
  122SOPE  H12S12978   2.625   3.551   6.617  1.4283  0.3494 -1.0242
  122SOPE  C21312979   2.817   3.508   6.721  0.2808  0.4759  0.1911
  122SOPE  H13R12980   2.770   3.432   6.787 -1.6603 -0.4716 -2.1222
  122SOPE  H13S12981   2.885   3.570   6.782 -0.7666  2.1756 -0.2896
  122SOPE  C21412982   2.896   3.436   6.606  0.0421 -0.4582 -0.0414
  122SOPE  H14R12983   2.918   3.514   6.530 -1.5284  0.8944  0.8187
  122SOPE  H14S12984   2.821   3.368   6.561 -1.5142 -0.8070  2.8340
  122SOPE  C21512985   3.036   3.374   6.631  0.7059 -0.3252 -0.3362
  122SOPE  H15R12986   3.035   3.283   6.695 -0.5071 -0.5916 -0.7057
  122SOPE  H15S12987   3.087   3.453   6.690  1.7161 -1.8106  0.8934
  122SOPE  C21612988   3.090   3.327   6.494 -0.3843 -0.3651  0.0018
  122SOPE  H16R12989   3.084   3.404   6.415 -1.8982 -1.8961 -1.4658
  122SOPE  H16S12990   3.033   3.240   6.456 -0.1617  0.0211 -1.2706
  122SOPE  C21712991   3.239   3.277   6.507  0.1161  0.2135  0.8016
  122SOPE  H17R12992   3.255   3.202   6.588  0.9667 -0.7174 -0.2001
  122SOPE  H17S12993   3.300   3.366   6.533 -0.3141  1.0858 -1.0370
  122SOPE  C21812994   3.304   3.216   6.375 -0.3615 -0.1462 -0.4049
  122SOPE  H18R12995   3.229   3.136   6.358 -0.4881 -0.1033 -0.0655
  122SOPE  H18S12996   3.402   3.170   6.399  0.4452  1.4445 -0.4896
  122SOPE  H18T12997   3.308   3.288   6.290 -0.2891  0.4500  0.0922
  122SOPE   C3312998   2.390   3.782   7.568 -0.1482 -0.4954 -0.1540
  122SOPE   H3X12999   2.499   3.798   7.551 -0.2074  0.2775  0.1833
  122SOPE   H3Y13000   2.331   3.866   7.527 -0.4642 -0.6787 -0.0792
  122SOPE   C3413001   2.333   3.660   7.489  0.6474 -0.9652 -0.2149
  122SOPE   H4X13002   2.223   3.670   7.482  0.7607 -0.3031 -1.0944
  122SOPE   H4Y13003   2.357   3.576   7.558 -0.1972 -1.7091 -0.8037
  122SOPE   C3513004   2.385   3.646   7.355  0.4092  0.5956 -0.0888
  122SOPE   H5X13005   2.494   3.622   7.354 -0.0128 -1.5673 -1.1736
  122SOPE   H5Y13006   2.376   3.744   7.304  1.9700  0.4628 -0.6888
  122SOPE   C3613007   2.330   3.528   7.271 -0.1183  0.1878  0.6825
  122SOPE   H6X13008   2.220   3.540   7.271 -0.1722 -0.2834  1.1907
  122SOPE   H6Y13009   2.364   3.436   7.323  2.1453  1.2500  1.2090
  122SOPE   C3713010   2.386   3.533   7.126 -0.1432 -0.3172 -0.0452
  122SOPE   H7X13011   2.490   3.494   7.134  0.6278  1.9440  1.8369
  122SOPE   H7Y13012   2.393   3.640   7.098 -0.4453  0.1854  1.6622
  122SOPE   C3813013   2.298   3.448   7.044 -0.2423  0.2342  0.0989
  122SOPE   H8X13014   2.204   3.507   7.040 -0.4646 -0.1913 -1.6312
  122SOPE   H8Y13015   2.283   3.352   7.098  1.6491  0.3334  0.8811
  122SOPE   C3913016   2.352   3.415   6.907 -0.5074  0.7189  0.2375
  122SOPE   H9X13017   2.301   3.319   6.885 -1.5596  1.1565  0.6979
  122SOPE   H9Y13018   2.463   3.405   6.910 -0.6280 -2.3089 -1.5326
  122SOPE  C31013019   2.308   3.529   6.813  0.0874  0.4773 -0.3879
  122SOPE  H10X13020   2.351   3.626   6.848  1.3076 -0.0514 -0.3850
  122SOPE  H10Y13021   2.199   3.544   6.824  0.3310  0.5294  2.7160
  122SOPE  C31113022   2.336   3.506   6.666 -0.3056  0.0626 -0.3168
  122SOPE  H11X13023   2.444   3.482   6.666 -0.7130 -1.9624  0.5533
  122SOPE  H11Y13024   2.308   3.594   6.604  0.3813 -0.5305 -1.5193
  122SOPE  C31213025   2.275   3.383   6.599  0.5113  0.8962  0.3192
  122SOPE  H12X13026   2.308   3.289   6.648  2.0305  1.2101 -0.0603
  122SOPE  H12Y13027   2.306   3.390   6.493  0.9260  0.3078  0.3964
  122SOPE  C31313028   2.121   3.396   6.589  0.3391  0.0425  0.1412
  122SOPE  H13X13029   2.112   3.490   6.531  0.0015 -0.9056 -1.4342
  122SOPE  H13Y13030   2.059   3.406   6.680  0.0952  2.3541 -0.2147
  122SOPE  C31413031   2.057   3.275   6.516 -0.1748  0.3888 -0.2516
  122SOPE  H14X13032   2.039   3.197   6.593 -1.6491 -0.1123 -1.0365
  122SOPE  H14Y13033   2.139   3.233   6.455  0.0654  0.1711  0.2217
  122SOPE  C31513034   1.936   3.311   6.434 -0.0192 -0.0929  0.1404
  122SOPE  H15X13035   1.962   3.389   6.359 -0.2440 -2.5127 -2.6369
  122SOPE  H15Y13036   1.866   3.354   6.510  0.2852  1.2256 -0.2926
  122SOPE  C31613037   1.873   3.192   6.359 -0.3713 -0.2375  0.9012
  122SOPE  H16X13038   1.830   3.120   6.431 -0.3738  1.1217  2.3133
  122SOPE  H16Y13039   1.952   3.141   6.300  0.3607  0.4566  1.2724
  122SOPE  C31713040   1.771   3.251   6.258  0.4542  0.2117  0.7950
  122SOPE  H17X13041   1.725   3.170   6.197 -2.4359  1.7295  0.7388
  122SOPE  H17Y13042   1.829   3.320   6.194 -0.8959  1.8005  1.2175
  122SOPE  C31813043   1.653   3.324   6.323 -0.0292 -0.0217 -0.0966
  122SOPE  H18X13044   1.596   3.265   6.398  1.0831 -0.5910  0.3347
  122SOPE  H18Y13045   1.582   3.367   6.249 -1.2238  0.1995  1.1410
  122SOPE  H18Z13046   1.685   3.411   6.384 -2.8380  0.2081  1.1853
  123SOPE     N13047   2.137   3.822   3.849 -0.2064  0.2004 -0.0305
  123SOPE   HN113048   2.142   3.851   3.750  1.6099  0.3376  0.0583
  123SOPE   HN213049   2.041   3.847   3.880  0.0310  1.9945 -0.6442
  123SOPE   HN313050   2.206   3.883   3.899 -0.6674  1.1195 -0.4967
  123SOPE   C1213051   2.166   3.673   3.860 -0.0862 -0.4738 -0.4746
  123SOPE  H12A13052   2.073   3.620   3.832  0.1614 -0.9996 -0.3205
  123SOPE  H12B13053   2.174   3.644   3.967 -2.3135  0.7525  0.0934
  123SOPE   C1113054   2.288   3.622   3.782  0.1821  0.2176 -0.2706
  123SOPE  H11A13055   2.287   3.650   3.675 -0.9124  2.4556  0.2605
  123SOPE  H11B13056   2.294   3.512   3.785  0.1381  0.2128  2.2514
  123SOPE     P13057   2.506   3.619   3.934 -0.3131 -0.3212  0.2246
  123SOPE   O1313058   2.577   3.725   4.011  0.4358  0.1030  0.0670
  123SOPE   O1413059   2.581   3.519   3.855 -0.3755  0.1656 -0.1142
  123SOPE   O1213060   2.404   3.684   3.834  0.2295  0.1429  0.4772
  123SOPE   O1113061   2.400   3.544   4.025  0.1434 -0.7560 -0.0610
  123SOPE    C113062   2.414   3.407   4.073  0.1263 -0.9208 -0.2560
  123SOPE    HA13063   2.523   3.387   4.077  0.5928  0.9847 -2.0968
  123SOPE    HB13064   2.358   3.329   4.018 -2.4325 -2.3980  3.9680
  123SOPE    C213065   2.360   3.386   4.221  0.2355  0.6982  0.0188
  123SOPE    HS13066   2.268   3.448   4.227 -0.6886 -0.6745  0.6113
  123SOPE   O2113067   2.459   3.429   4.315 -0.4964 -0.2576 -0.0149
  123SOPE   C2113068   2.418   3.525   4.405 -0.2347  0.8547  0.2142
  123SOPE   O2213069   2.314   3.585   4.390 -0.2810 -0.0839  0.2465
  123SOPE   C2213070   2.510   3.519   4.525  0.2604  0.5774  0.1365
  123SOPE   H2R13071   2.613   3.521   4.484 -1.2278  0.0568 -4.0833
  123SOPE   H2S13072   2.506   3.417   4.569  0.5867  0.1979 -0.7049
  123SOPE    C313073   2.311   3.235   4.243 -0.5002 -0.0937  0.4052
  123SOPE    HX13074   2.402   3.171   4.251 -2.0659 -2.5676 -0.3107
  123SOPE    HY13075   2.252   3.212   4.152  0.1149 -1.4775  0.3386
  123SOPE   O3113076   2.235   3.219   4.364 -0.4627  0.3105  0.0124
  123SOPE   C3113077   2.113   3.262   4.356  0.2544  0.0870  0.2306
  123SOPE   O3213078   2.057   3.321   4.269 -0.5029  0.0042 -0.2215
  123SOPE   C3213079   2.039   3.211   4.487 -0.4322 -0.1907 -0.5111
  123SOPE   H2X13080   2.013   3.104   4.469  0.3507 -0.9002  2.1361
  123SOPE   H2Y13081   1.939   3.259   4.497 -1.9904 -2.7319 -2.4346
  123SOPE   C2313082   2.473   3.639   4.623  0.0644 -0.5118  0.6523
  123SOPE   H3R13083   2.377   3.619   4.676 -1.3356 -1.0177 -1.8815
  123SOPE   H3S13084   2.474   3.732   4.563 -1.4845 -1.6211 -1.2148
  123SOPE   C2413085   2.579   3.666   4.735  0.0019  0.2766 -0.0066
  123SOPE   H4R13086   2.683   3.666   4.696  0.4257  2.1247  0.9967
  123SOPE   H4S13087   2.556   3.764   4.780  1.1440  1.1771 -1.2925
  123SOPE   C2513088   2.564   3.565   4.847 -0.3968  1.0433 -0.1851
  123SOPE   H5R13089   2.460   3.557   4.884 -1.0463 -1.0327 -2.1935
  123SOPE   H5S13090   2.593   3.471   4.795  0.8613  1.7722 -0.8506
  123SOPE   C2613091   2.669   3.582   4.962  0.6911 -0.1135  0.2709
  123SOPE   H6R13092   2.762   3.539   4.917 -0.6521 -0.6951 -2.1038
  123SOPE   H6S13093   2.675   3.690   4.989 -0.6653  0.3722 -1.2448
  123SOPE   C2713094   2.625   3.503   5.086  0.2373  0.3030 -0.0963
  123SOPE   H7R13095   2.517   3.512   5.107 -0.4121 -2.6569 -1.6377
  123SOPE   H7S13096   2.623   3.400   5.045 -0.0246  0.8020 -1.3952
  123SOPE   C2813097   2.728   3.504   5.198  0.9425  0.2921  0.8635
  123SOPE   H8R13098   2.710   3.419   5.267 -1.0125  0.9543  1.2468
  123SOPE   H8S13099   2.831   3.494   5.159  0.8558  0.0456  0.6955
  123SOPE   C2913100   2.718   3.632   5.284  0.2116  0.2646 -0.1818
  123SOPE   H9113101   2.763   3.718   5.233 -1.2434 -0.0345 -2.1058
  123SOPE  C21013102   2.646   3.642   5.400  0.1967 -1.3596  0.0240
  123SOPE  H10113103   2.659   3.740   5.447  2.4586 -1.7460  0.3213
  123SOPE  C21113104   2.583   3.525   5.473  0.1394 -0.0692  0.0810
  123SOPE  H11R13105   2.573   3.435   5.410 -2.0715 -0.0260  0.3077
  123SOPE  H11S13106   2.482   3.550   5.511  0.1512  0.5110 -0.2598
  123SOPE  C21213107   2.654   3.465   5.593 -0.3885  0.3017  0.5860
  123SOPE  H12R13108   2.748   3.411   5.573 -0.1149  0.9129  0.1981
  123SOPE  H12S13109   2.592   3.378   5.622 -0.3982 -0.5566 -1.7909
  123SOPE  C21313110   2.679   3.570   5.711 -0.5367  0.0742  0.3104
  123SOPE  H13R13111   2.582   3.618   5.737 -0.3861  0.8029 -0.4407
  123SOPE  H13S13112   2.742   3.655   5.677  0.1131 -0.9583 -1.1854
  123SOPE  C21413113   2.753   3.515   5.825  0.5268  0.1724 -0.6736
  123SOPE  H14R13114   2.838   3.456   5.785 -0.5274 -1.8770 -0.0431
  123SOPE  H14S13115   2.698   3.437   5.881  1.6007 -1.4617 -1.8210
  123SOPE  C21513116   2.812   3.621   5.925 -0.1287 -0.0178 -0.3159
  123SOPE  H15R13117   2.727   3.685   5.954  1.8025  1.7891  1.7764
  123SOPE  H15S13118   2.892   3.683   5.879  0.3007  0.2512  0.7587
  123SOPE  C21613119   2.866   3.562   6.051  0.4096 -0.4038 -0.0822
  123SOPE  H16R13120   2.946   3.490   6.022  0.2591  0.4742 -2.9749
  123SOPE  H16S13121   2.788   3.492   6.087  0.1956 -1.7130 -2.8681
  123SOPE  C21713122   2.899   3.651   6.169 -0.3779  0.5268 -0.4778
  123SOPE  H17R13123   2.977   3.725   6.139  0.5244 -0.1668  0.0747
  123SOPE  H17S13124   2.953   3.590   6.245  0.9859  1.8671 -0.3023
  123SOPE  C21813125   2.783   3.737   6.241 -0.1651  0.6345 -0.2527
  123SOPE  H18R13126   2.707   3.782   6.173  0.5921  0.1833 -1.4179
  123SOPE  H18S13127   2.831   3.821   6.296 -0.3306 -0.4901  1.6809
  123SOPE  H18T13128   2.728   3.684   6.322 -1.0963  0.9112 -0.6928
  123SOPE   C3313129   2.124   3.228   4.620  0.1906 -0.8100 -0.7677
  123SOPE   H3X13130   2.231   3.198   4.617  0.9413  1.0518  2.7954
  123SOPE   H3Y13131   2.066   3.163   4.688  1.4395 -1.0483  0.0927
  123SOPE   C3413132   2.129   3.374   4.676  0.3377 -0.0537 -0.3652
  123SOPE   H4X13133   2.025   3.402   4.702 -0.1120 -2.5443  0.7692
  123SOPE   H4Y13134   2.169   3.431   4.589 -1.9848  1.9480 -0.2331
  123SOPE   C3513135   2.223   3.399   4.802  0.7471  0.2498  0.1308
  123SOPE   H5X13136   2.226   3.508   4.823  4.7595  0.9504 -2.8541
  123SOPE   H5Y13137   2.326   3.378   4.764  0.4495  0.6850 -0.9657
  123SOPE   C3613138   2.182   3.312   4.919 -0.0613 -0.1354 -0.5042
  123SOPE   H6X13139   2.220   3.209   4.903 -0.0365  0.1008 -2.0945
  123SOPE   H6Y13140   2.071   3.312   4.927 -0.0087  1.1776  0.5385
  123SOPE   C3713141   2.251   3.362   5.046 -0.2141  0.2441 -0.8062
  123SOPE   H7X13142   2.233   3.472   5.053  1.8875  0.6727 -1.2405
  123SOPE   H7Y13143   2.359   3.336   5.045 -0.3795 -0.4668 -0.3441
  123SOPE   C3813144   2.188   3.302   5.175  0.3628  0.7466 -0.2969
  123SOPE   H8X13145   2.214   3.197   5.200 -0.4391  0.4330 -0.7493
  123SOPE   H8Y13146   2.078   3.307   5.169  0.2025 -0.8250  0.7759
  123SOPE   C3913147   2.234   3.363   5.317 -0.6355 -0.2354  0.1322
  123SOPE   H9X13148   2.196   3.467   5.324  0.4235  0.1783 -0.0016
  123SOPE   H9Y13149   2.343   3.379   5.297 -0.5350  0.5832  1.2258
  123SOPE  C31013150   2.218   3.275   5.437  0.3530  0.1177 -0.1073
  123SOPE  H10X13151   2.284   3.186   5.426  2.0014  1.4120 -1.0730
  123SOPE  H10Y13152   2.116   3.230   5.437  0.9101 -1.3175 -2.3905
  123SOPE  C31113153   2.259   3.346   5.564  0.1728 -0.4468 -0.3511
  123SOPE  H11X13154   2.198   3.438   5.570  1.5871  0.5468  5.7110
  123SOPE  H11Y13155   2.360   3.392   5.561  0.1500 -0.3111  0.5435
  123SOPE  C31213156   2.240   3.278   5.699  0.0892  0.1606  0.1298
  123SOPE  H12X13157   2.309   3.191   5.710  1.1195  0.9206 -0.1849
  123SOPE  H12Y13158   2.140   3.231   5.705 -0.3880  0.5763 -3.0348
  123SOPE  C31313159   2.248   3.379   5.819 -0.3077  0.7290  0.1003
  123SOPE  H13X13160   2.180   3.464   5.799  1.8058  1.9062 -2.9629
  123SOPE  H13Y13161   2.349   3.422   5.836 -0.2878  1.5980 -1.9307
  123SOPE  C31413162   2.204   3.307   5.944 -0.0502  0.3810  0.2979
  123SOPE  H14X13163   2.250   3.207   5.950 -1.5537 -0.2818  1.6380
  123SOPE  H14Y13164   2.097   3.278   5.943  0.0027  0.1428  0.8914
  123SOPE  C31513165   2.225   3.409   6.057  0.6192  0.0207 -0.4988
  123SOPE  H15X13166   2.132   3.423   6.116  0.8306  0.9982 -0.3963
  123SOPE  H15Y13167   2.256   3.510   6.025 -1.4473  0.4474 -1.3219
  123SOPE  C31613168   2.331   3.361   6.160  0.4136  0.5536  0.3458
  123SOPE  H16X13169   2.409   3.315   6.094  0.2456 -0.4461  0.8258
  123SOPE  H16Y13170   2.281   3.283   6.222  1.5085 -0.1647  0.3648
  123SOPE  C31713171   2.376   3.483   6.232  0.0389  0.9129  0.0648
  123SOPE  H17X13172   2.303   3.527   6.304  0.6996  2.6395 -0.2686
  123SOPE  H17Y13173   2.379   3.576   6.170 -3.3712  1.3132  0.3023
  123SOPE  C31813174   2.517   3.476   6.301 -0.0124 -0.5890 -0.4519
  123SOPE  H18X13175   2.555   3.570   6.346 -0.0380 -0.2425 -1.1330
  123SOPE  H18Y13176   2.599   3.442   6.233  1.1839 -1.7611  1.5003
  123SOPE  H18Z13177   2.520   3.394   6.375  2.5389 -0.5781 -0.4370
  124SOPE     N13178   0.033   6.105   4.240 -0.6730  0.4773 -0.0156
  124SOPE   HN113179   0.089   6.090   4.154 -0.2042  1.0722  0.1847
  124SOPE   HN213180  -0.014   6.013   4.252  1.5153 -0.9805 -1.8173
  124SOPE   HN313181  -0.039   6.177   4.219 -0.7293 -0.1559 -2.2857
  124SOPE   C1213182   0.126   6.129   4.351 -0.5537 -0.0038 -0.2737
  124SOPE  H12A13183   0.189   6.039   4.370 -0.7187  0.2675  1.8127
  124SOPE  H12B13184   0.062   6.141   4.441  1.1946  0.2805  0.9996
  124SOPE   C1113185   0.205   6.260   4.313  0.0960  0.0962  0.0331
  124SOPE  H11A13186   0.265   6.224   4.227 -1.0514 -0.8765 -0.3856
  124SOPE  H11B13187   0.268   6.295   4.398  0.7721  1.8394 -1.1228
  124SOPE     P13188   0.156   6.488   4.188 -0.7809  0.3302 -0.4732
  124SOPE   O1313189   0.031   6.563   4.168 -0.7521 -0.2572  0.2353
  124SOPE   O1413190   0.240   6.443   4.075 -0.1021  0.1763 -0.1636
  124SOPE   O1213191   0.110   6.362   4.275  0.2561 -0.4442 -0.0809
  124SOPE   O1113192   0.257   6.558   4.288  0.6194  0.5818  0.1741
  124SOPE    C113193   0.206   6.620   4.408  1.2001 -0.1047 -0.2298
  124SOPE    HA13194   0.208   6.549   4.494 -0.7973  0.1325  0.0603
  124SOPE    HB13195   0.103   6.660   4.394  1.3117  0.3052  0.1021
  124SOPE    C213196   0.282   6.739   4.459  0.7757 -0.4370  0.2872
  124SOPE    HS13197   0.301   6.812   4.378  2.1165  1.0539  1.8570
  124SOPE   O2113198   0.409   6.692   4.503  0.9749  0.0969  0.4930
  124SOPE   C2113199   0.494   6.785   4.527 -0.2248  0.3305 -0.7461
  124SOPE   O2213200   0.482   6.904   4.506  0.1004 -0.4974  0.1881
  124SOPE   C2213201   0.614   6.711   4.590  0.2166  0.5757  0.6938
  124SOPE   H2R13202   0.705   6.768   4.563 -0.5002  1.8654  0.8694
  124SOPE   H2S13203   0.625   6.611   4.543  0.1847 -0.1529  2.1937
  124SOPE    C313204   0.200   6.801   4.574 -0.1245 -0.5704 -0.3385
  124SOPE    HX13205   0.101   6.823   4.530  0.7016 -0.0068 -2.0048
  124SOPE    HY13206   0.241   6.901   4.599 -1.2284 -0.3753  0.8104
  124SOPE   O3113207   0.194   6.713   4.684  0.1254  0.1002 -0.0523
  124SOPE   C3113208   0.138   6.768   4.800  0.9556  1.2593  0.2004
  124SOPE   O3213209   0.097   6.877   4.814  0.1927 -0.3704  0.3444
  124SOPE   C3213210   0.116   6.655   4.897  0.5498  0.4543  0.4354
  124SOPE   H2X13211   0.138   6.560   4.844 -2.5197 -0.3426  0.3928
  124SOPE   H2Y13212   0.012   6.659   4.936 -0.3494  1.4943 -1.8807
  124SOPE   C2313213   0.602   6.704   4.742 -0.1738  0.3407 -0.0608
  124SOPE   H3R13214   0.516   6.643   4.777 -0.4367 -0.3318 -1.7865
  124SOPE   H3S13215   0.570   6.797   4.794 -1.0997  0.7514 -1.2927
  124SOPE   C2413216   0.724   6.647   4.806 -0.1448  0.9816 -0.3372
  124SOPE   H4R13217   0.736   6.538   4.789  1.1678  0.6576  2.2409
  124SOPE   H4S13218   0.813   6.703   4.770 -1.9445  3.6759 -0.9751
  124SOPE   C2513219   0.730   6.658   4.955 -0.5239 -0.7426 -0.0107
  124SOPE   H5R13220   0.750   6.764   4.979  0.1570 -1.3285  2.1858
  124SOPE   H5S13221   0.633   6.627   5.000 -0.2013 -2.5824 -0.5121
  124SOPE   C2613222   0.842   6.579   5.019  0.6482  0.5177  0.0340
  124SOPE   H6R13223   0.838   6.474   4.983  1.6476  0.5194 -0.1002
  124SOPE   H6S13224   0.935   6.622   4.976  0.6635  0.0311 -0.4312
  124SOPE   C2713225   0.853   6.585   5.175  0.4019  0.1322  0.3940
  124SOPE   H7R13226   0.865   6.693   5.201 -3.0296  0.7595 -0.1516
  124SOPE   H7S13227   0.753   6.564   5.219  1.0119  0.3407  1.9713
  124SOPE   C2813228   0.969   6.503   5.239 -0.2584 -0.3861  0.8517
  124SOPE   H8R13229   1.062   6.559   5.216  0.6702 -1.7409  1.2045
  124SOPE   H8S13230   0.957   6.520   5.348  1.1077 -0.9465  1.1040
  124SOPE   C2913231   0.967   6.359   5.199 -0.7517  0.1266  0.0975
  124SOPE   H9113232   0.956   6.343   5.090  2.3470  1.3596 -0.4923
  124SOPE  C21013233   0.949   6.258   5.289 -0.6537 -0.6587  0.5915
  124SOPE  H10113234   0.934   6.156   5.251 -0.3952 -0.2396 -0.6862
  124SOPE  C21113235   0.942   6.267   5.442  0.0845 -0.7344  0.8066
  124SOPE  H11R13236   0.838   6.279   5.477 -0.4370  1.1217 -1.1422
  124SOPE  H11S13237   1.004   6.356   5.469 -0.1232 -0.6726  1.0812
  124SOPE  C21213238   1.011   6.140   5.495  0.0923  0.3556 -0.2277
  124SOPE  H12R13239   1.041   6.155   5.601  0.7948 -0.0938 -0.3572
  124SOPE  H12S13240   1.101   6.102   5.442  1.6025  1.7483  1.2298
  124SOPE  C21313241   0.926   6.010   5.491  0.0316  0.4318  0.6192
  124SOPE  H13R13242   0.934   5.958   5.393 -1.9959  0.2275  0.5215
  124SOPE  H13S13243   0.818   6.025   5.515  0.0961  0.1691  1.0894
  124SOPE  C21413244   0.967   5.910   5.600  0.1400 -0.3075  0.1288
  124SOPE  H14R13245   0.920   5.812   5.578  1.4151 -0.5952 -1.5185
  124SOPE  H14S13246   0.925   5.950   5.695 -0.8427 -1.5257  0.2270
  124SOPE  C21513247   1.113   5.885   5.627 -0.5685  0.1398  0.1038
  124SOPE  H15R13248   1.178   5.975   5.641 -1.2283  0.5594  0.5431
  124SOPE  H15S13249   1.162   5.836   5.541  0.4747  1.5955 -0.1688
  124SOPE  C21613250   1.134   5.774   5.730  0.0178 -0.5060  0.4730
  124SOPE  H16R13251   1.124   5.672   5.686 -2.8580  0.8298 -2.3453
  124SOPE  H16S13252   1.046   5.792   5.796 -1.4301 -2.0840 -0.9284
  124SOPE  C21713253   1.266   5.781   5.808  0.6524 -0.2698  0.0768
  124SOPE  H17R13254   1.248   5.869   5.874 -1.5052 -0.7406  0.1967
  124SOPE  H17S13255   1.352   5.782   5.737 -0.0589 -1.9867 -0.8646
  124SOPE  C21813256   1.294   5.664   5.909  0.0452  0.1485  0.0031
  124SOPE  H18R13257   1.302   5.569   5.853 -1.6258  0.0565 -0.1527
  124SOPE  H18S13258   1.209   5.659   5.981 -0.0997  2.2516  0.0527
  124SOPE  H18T13259   1.384   5.674   5.972 -1.5168  1.3669  2.1719
  124SOPE   C3313260   0.210   6.675   5.023 -0.2988 -0.0446  0.4500
  124SOPE   H3X13261   0.315   6.658   4.990 -0.9656  0.3783 -2.0697
  124SOPE   H3Y13262   0.178   6.601   5.099 -2.6753 -0.2412 -0.6532
  124SOPE   C3413263   0.213   6.815   5.091 -0.3136 -0.3469  0.7068
  124SOPE   H4X13264   0.117   6.858   5.127  0.1758 -0.8400  2.7141
  124SOPE   H4Y13265   0.252   6.879   5.009  0.9945  0.0382  1.5968
  124SOPE   C3513266   0.293   6.835   5.218 -0.0848 -0.7230 -0.5275
  124SOPE   H5X13267   0.262   6.755   5.288  1.3506 -2.2657 -1.5757
  124SOPE   H5Y13268   0.271   6.933   5.265  1.8856 -0.2883 -0.3984
  124SOPE   C3613269   0.449   6.846   5.202 -0.4446  0.8762 -0.2698
  124SOPE   H6X13270   0.464   6.943   5.150 -0.4109  0.9826 -0.0637
  124SOPE   H6Y13271   0.476   6.767   5.130  2.0300  0.6540  0.8059
  124SOPE   C3713272   0.521   6.835   5.333 -0.0673 -0.1104 -0.0536
  124SOPE   H7X13273   0.486   6.895   5.420  1.6446 -1.6080  1.7731
  124SOPE   H7Y13274   0.625   6.867   5.309 -0.4053  1.1725  0.1092
  124SOPE   C3813275   0.521   6.686   5.380  0.1618  1.1327  0.7188
  124SOPE   H8X13276   0.551   6.618   5.297  0.4860  2.3608 -0.1945
  124SOPE   H8Y13277   0.416   6.666   5.412 -0.5225  1.7074 -1.0038
  124SOPE   C3913278   0.631   6.655   5.484 -0.3300 -1.0587 -1.0117
  124SOPE   H9X13279   0.613   6.737   5.556 -1.6099  0.3374 -2.8421
  124SOPE   H9Y13280   0.729   6.653   5.432 -0.1955  2.1555 -1.0448
  124SOPE  C31013281   0.611   6.532   5.573  0.2225  0.5677 -0.5208
  124SOPE  H10X13282   0.619   6.439   5.513 -0.0457  0.1378  0.0986
  124SOPE  H10Y13283   0.509   6.536   5.619  0.4264  1.5828 -0.1374
  124SOPE  C31113284   0.716   6.537   5.696  0.1130  0.2669  0.1252
  124SOPE  H11X13285   0.706   6.635   5.748  0.4948  1.7156 -2.3281
  124SOPE  H11Y13286   0.809   6.544   5.636 -0.7703  2.6360 -1.1346
  124SOPE  C31213287   0.723   6.419   5.792 -0.1035  0.6359 -0.5759
  124SOPE  H12X13288   0.719   6.327   5.730  3.3889 -2.6320  3.3995
  124SOPE  H12Y13289   0.628   6.405   5.846 -0.6336 -0.9682 -1.8353
  124SOPE  C31313290   0.847   6.411   5.882  0.3566  0.2691  0.1419
  124SOPE  H13X13291   0.872   6.514   5.916 -3.5725  1.8556 -1.1783
  124SOPE  H13Y13292   0.937   6.377   5.827  0.9667  2.7563 -0.5431
  124SOPE  C31413293   0.827   6.319   6.001 -0.0195 -0.5636 -0.2791
  124SOPE  H14X13294   0.727   6.336   6.046  0.4665 -0.5186  0.8079
  124SOPE  H14Y13295   0.899   6.355   6.078  0.6471  0.1484 -1.2017
  124SOPE  C31513296   0.855   6.169   5.967  0.2308 -0.5954  0.7901
  124SOPE  H15X13297   0.939   6.163   5.893 -1.3045 -1.3080 -0.9709
  124SOPE  H15Y13298   0.767   6.135   5.909 -0.0279  0.7121  0.3991
  124SOPE  C31613299   0.880   6.097   6.102 -0.6033  0.1389 -0.2181
  124SOPE  H16X13300   0.810   6.146   6.173  0.9783 -0.5055  1.8964
  124SOPE  H16Y13301   0.980   6.129   6.140 -1.8332  1.7790  1.8645
  124SOPE  C31713302   0.857   5.947   6.091  0.4564 -0.5872  0.1943
  124SOPE  H17X13303   0.771   5.932   6.022  1.8310  0.5604 -1.8654
  124SOPE  H17Y13304   0.839   5.908   6.193  0.0553 -2.5805 -0.5749
  124SOPE  C31813305   0.972   5.874   6.027 -0.1030 -0.0734  0.3481
  124SOPE  H18X13306   1.063   5.886   6.090 -1.2102  0.3919  1.9333
  124SOPE  H18Y13307   1.007   5.923   5.934 -0.0304  0.7606  0.8100
  124SOPE  H18Z13308   0.955   5.765   6.009 -3.0884  0.3895 -0.2108
  125SOPE     N13309   3.266   1.299   3.824  0.0893  0.0417  0.7178
  125SOPE   HN113310   3.178   1.246   3.846  0.2401 -1.6938 -2.2583
  125SOPE   HN213311   3.254   1.339   3.729  0.9738  1.3694  1.1362
  125SOPE   HN313312   3.329   1.216   3.820 -0.9823 -0.7488 -0.8608
  125SOPE   C1213313   3.314   1.376   3.936  0.5403 -0.8215 -0.6791
  125SOPE  H12A13314   3.230   1.445   3.962  1.5923  0.0994  0.3901
  125SOPE  H12B13315   3.395   1.446   3.907  0.8097 -0.3133  1.1432
  125SOPE   C1113316   3.348   1.295   4.059 -0.2654  0.6725  0.3482
  125SOPE  H11A13317   3.263   1.248   4.114  1.5109 -0.3821  2.3047
  125SOPE  H11B13318   3.401   1.364   4.128  0.6020  1.9378 -1.5053
  125SOPE     P13319   3.536   1.135   4.139  0.2273  0.4149 -0.5109
  125SOPE   O1313320   3.633   1.245   4.154  0.0385 -0.3169 -0.3756
  125SOPE   O1413321   3.589   1.013   4.074 -0.1186  0.3535 -0.1975
  125SOPE   O1213322   3.431   1.184   4.027 -0.5698  0.2528 -0.5853
  125SOPE   O1113323   3.451   1.084   4.267 -0.2346  0.0712 -0.1455
  125SOPE    C113324   3.402   1.179   4.361 -0.0542 -0.0161  1.2610
  125SOPE    HA13325   3.292   1.190   4.359  0.1016  1.5416  0.1232
  125SOPE    HB13326   3.447   1.277   4.334  0.5886 -0.5604  0.2691
  125SOPE    C213327   3.460   1.164   4.502  0.4740 -0.0447  0.6261
  125SOPE    HS13328   3.458   1.265   4.548  2.7815  1.1226 -1.5678
  125SOPE   O2113329   3.582   1.101   4.501 -0.0906 -0.2686 -0.5651
  125SOPE   C2113330   3.683   1.179   4.486 -0.1782 -0.0522  0.2708
  125SOPE   O2213331   3.680   1.303   4.488  0.0032 -0.3434 -0.4557
  125SOPE   C2213332   3.798   1.089   4.455  0.2407 -0.2357  0.3261
  125SOPE   H2R13333   3.782   1.063   4.348 -3.3605  0.6856  0.5125
  125SOPE   H2S13334   3.779   1.001   4.522 -1.2641  1.2238  1.9264
  125SOPE    C313335   3.364   1.072   4.593 -0.4499  0.5231  0.1334
  125SOPE    HX13336   3.356   0.969   4.553 -0.3160  0.4710  0.2438
  125SOPE    HY13337   3.260   1.111   4.593 -0.2508  1.0757 -0.4910
  125SOPE   O3113338   3.414   1.042   4.727  0.3524 -0.3377 -0.0584
  125SOPE   C3113339   3.414   1.145   4.813 -0.5812 -0.1330 -0.1353
  125SOPE   O3213340   3.359   1.252   4.793  0.2113 -0.2175 -0.3830
  125SOPE   C3213341   3.508   1.118   4.931 -0.3250  0.4273 -0.6288
  125SOPE   H2X13342   3.615   1.137   4.907  0.1489 -2.5445 -1.2652
  125SOPE   H2Y13343   3.509   1.007   4.940 -0.1552  0.1898 -2.9376
  125SOPE   C2313344   3.934   1.153   4.469  0.7018  0.2517 -0.0342
  125SOPE   H3R13345   3.930   1.262   4.448 -0.3135  0.3067  0.3783
  125SOPE   H3S13346   4.004   1.101   4.400  1.8249  0.1746  1.1208
  125SOPE   C2413347   4.000   1.133   4.614  0.1517 -0.1647 -0.5889
  125SOPE   H4R13348   3.995   1.023   4.630 -1.6168 -0.7144 -3.8284
  125SOPE   H4S13349   4.107   1.155   4.599  0.6842 -2.5412 -0.7425
  125SOPE   C2513350   3.917   1.205   4.718  0.2328  0.0274  0.0124
  125SOPE   H5R13351   3.901   1.306   4.675 -0.6810  0.3090  0.9691
  125SOPE   H5S13352   3.818   1.159   4.738  1.4049 -3.2197 -1.0886
  125SOPE   C2613353   3.976   1.221   4.859  0.0333  0.4917 -0.6605
  125SOPE   H6R13354   4.010   1.120   4.891  1.1397  1.0350 -0.0812
  125SOPE   H6S13355   4.068   1.282   4.866 -0.7743  1.6370  0.2114
  125SOPE   C2713356   3.879   1.284   4.967  0.5871  0.4698  0.3221
  125SOPE   H7R13357   3.805   1.357   4.928  0.2808  0.5591  1.0537
  125SOPE   H7S13358   3.819   1.201   5.012 -0.8707  1.3452  0.0588
  125SOPE   C2813359   3.953   1.356   5.084 -0.8405 -0.2168 -0.2641
  125SOPE   H8R13360   3.994   1.448   5.036 -0.3690 -0.0033  0.5461
  125SOPE   H8S13361   3.879   1.392   5.159  0.4238 -0.8377  1.3370
  125SOPE   C2913362   4.062   1.279   5.145 -0.4976  0.3358  0.0805
  125SOPE   H9113363   4.156   1.281   5.088 -0.3684 -1.1816  0.1996
  125SOPE  C21013364   4.050   1.228   5.268 -0.5710  0.4412  0.1254
  125SOPE  H10113365   4.141   1.178   5.305  0.2252  0.4561 -1.7374
  125SOPE  C21113366   3.931   1.235   5.363 -0.3079 -0.3403  0.1524
  125SOPE  H11R13367   3.919   1.144   5.427 -0.5220 -0.1371  0.4024
  125SOPE  H11S13368   3.837   1.251   5.305  0.3612 -0.5248 -0.9978
  125SOPE  C21213369   3.948   1.352   5.458  0.3112 -0.4293  0.4459
  125SOPE  H12R13370   3.854   1.365   5.516 -0.8394  2.7721 -1.8311
  125SOPE  H12S13371   3.944   1.444   5.395 -0.4578 -0.2608  0.7252
  125SOPE  C21313372   4.066   1.339   5.557 -0.0975  0.8496 -0.0321
  125SOPE  H13R13373   4.158   1.357   5.497  2.7607 -2.2963  2.9238
  125SOPE  H13S13374   4.085   1.239   5.601  1.8860  1.7374  1.3111
  125SOPE  C21413375   4.050   1.441   5.672 -0.0286  0.0605 -0.1615
  125SOPE  H14R13376   3.962   1.409   5.732  0.8236 -1.6979  0.2205
  125SOPE  H14S13377   4.033   1.542   5.628  0.4401  0.6957  1.0406
  125SOPE  C21513378   4.165   1.438   5.772  0.1379 -0.5238  0.6051
  125SOPE  H15R13379   4.262   1.430   5.718 -0.1839  2.0462 -0.5132
  125SOPE  H15S13380   4.145   1.346   5.831 -1.9950 -1.1388 -0.9483
  125SOPE  C21613381   4.172   1.558   5.866 -0.0167 -0.2947 -0.6960
  125SOPE  H16R13382   4.246   1.543   5.948 -0.5358  0.5146 -0.0622
  125SOPE  H16S13383   4.078   1.589   5.915  1.0238 -0.9175  1.8303
  125SOPE  C21713384   4.225   1.686   5.786 -0.4048 -0.5239  0.0106
  125SOPE  H17R13385   4.143   1.736   5.731  1.1222  3.0050  0.6702
  125SOPE  H17S13386   4.297   1.656   5.707 -0.6113 -1.7059  0.2516
  125SOPE  C21813387   4.287   1.796   5.871  0.4745  0.2535  0.0096
  125SOPE  H18R13388   4.332   1.871   5.804 -0.0539  1.3388  0.8448
  125SOPE  H18S13389   4.365   1.754   5.939  0.3540 -1.4368 -0.8447
  125SOPE  H18T13390   4.210   1.850   5.930 -0.0540 -1.3225  0.8241
  125SOPE   C3313391   3.474   1.192   5.060 -0.2552 -0.4033  0.2605
  125SOPE   H3X13392   3.364   1.200   5.077 -0.5709 -2.1016 -0.8051
  125SOPE   H3Y13393   3.508   1.298   5.061 -0.5474 -0.2971  1.9157
  125SOPE   C3413394   3.525   1.128   5.188  0.3618 -0.2320  0.3051
  125SOPE   H4X13395   3.633   1.106   5.174  1.1581  1.5338  2.8918
  125SOPE   H4Y13396   3.470   1.031   5.197 -1.6358  0.7189 -1.0398
  125SOPE   C3513397   3.510   1.221   5.312 -0.0281 -0.3855  0.0818
  125SOPE   H5X13398   3.404   1.243   5.336 -0.4228 -2.1376  0.1418
  125SOPE   H5Y13399   3.561   1.317   5.290  0.3812 -0.5738  0.2046
  125SOPE   C3613400   3.575   1.154   5.433  0.0193  0.1524 -0.8498
  125SOPE   H6X13401   3.686   1.144   5.424  0.3497  1.1543  1.2894
  125SOPE   H6Y13402   3.525   1.055   5.441  0.5297 -0.0847 -0.4526
  125SOPE   C3713403   3.564   1.243   5.562 -0.7322  0.2516 -0.1148
  125SOPE   H7X13404   3.458   1.251   5.594 -0.1484  0.6510  1.8745
  125SOPE   H7Y13405   3.614   1.342   5.557  0.6858 -0.3939  0.4637
  125SOPE   C3813406   3.639   1.200   5.691 -0.1640  0.0509 -0.2186
  125SOPE   H8X13407   3.742   1.174   5.658  0.7000  0.0848  2.2610
  125SOPE   H8Y13408   3.604   1.101   5.726  2.8938 -0.8870  0.5466
  125SOPE   C3913409   3.660   1.300   5.797 -0.1622  0.2201  0.0178
  125SOPE   H9X13410   3.563   1.324   5.846 -0.3715 -1.1087  0.2788
  125SOPE   H9Y13411   3.712   1.388   5.753 -0.1230  0.6904  0.9755
  125SOPE  C31013412   3.750   1.250   5.911  0.0416  0.6243  0.2501
  125SOPE  H10X13413   3.778   1.326   5.986 -1.1242 -0.4391  1.8315
  125SOPE  H10Y13414   3.847   1.216   5.869  0.4107  0.3017  1.3407
  125SOPE  C31113415   3.680   1.136   5.994  0.7023  0.6118 -0.2531
  125SOPE  H11X13416   3.660   1.050   5.927  0.1485 -0.8111  1.6519
  125SOPE  H11Y13417   3.589   1.187   6.033  1.1478  0.5499  0.9030
  125SOPE  C31213418   3.761   1.103   6.112  1.3084  0.0097  0.3724
  125SOPE  H12X13419   3.869   1.112   6.088  1.3084 -0.2532  0.2728
  125SOPE  H12Y13420   3.734   1.000   6.141 -0.1103 -0.5260 -2.4867
  125SOPE  C31313421   3.733   1.183   6.235  0.3321 -1.1833 -0.4771
  125SOPE  H13X13422   3.625   1.166   6.257 -0.3294  1.9108 -0.8436
  125SOPE  H13Y13423   3.748   1.292   6.215  4.1919 -1.4356  0.4189
  125SOPE  C31413424   3.811   1.148   6.364  0.1928  0.1767 -0.6410
  125SOPE  H14X13425   3.911   1.196   6.360  0.5892 -0.4868  0.6514
  125SOPE  H14Y13426   3.838   1.041   6.364 -0.2885  0.0426  0.1353
  125SOPE  C31513427   3.747   1.178   6.492 -0.0323 -0.0881 -0.6091
  125SOPE  H15X13428   3.684   1.087   6.506  0.1304 -0.1236 -0.0839
  125SOPE  H15Y13429   3.683   1.269   6.482  0.9299  0.4130 -2.8318
  125SOPE  C31613430   3.844   1.186   6.612 -0.1075  0.1362  0.4031
  125SOPE  H16X13431   3.907   1.275   6.591  2.1466 -1.0715  1.7057
  125SOPE  H16Y13432   3.905   1.094   6.626 -0.7038 -0.3662 -0.2071
  125SOPE  C31713433   3.777   1.226   6.742  0.1481  0.0947  0.2700
  125SOPE  H17X13434   3.725   1.133   6.773  1.8666 -0.6436  1.0553
  125SOPE  H17Y13435   3.702   1.305   6.721 -0.8983 -0.6885  0.9926
  125SOPE  C31813436   3.875   1.269   6.848 -0.5674  0.2252  0.7602
  125SOPE  H18X13437   3.930   1.177   6.878  1.6124  0.0323 -3.1332
  125SOPE  H18Y13438   3.834   1.327   6.933  0.6777  1.0880  0.8015
  125SOPE  H18Z13439   3.955   1.338   6.813 -0.7185  0.4757  0.9002
  126SOPE     N13440   3.724   3.714   4.224  0.4601 -0.4553  0.3958
  126SOPE   HN113441   3.810   3.679   4.177  1.2567  0.5698  1.0535
  126SOPE   HN213442   3.716   3.654   4.308 -0.4488 -0.3489  0.3989
  126SOPE   HN313443   3.635   3.702   4.172 -0.0278 -0.5905  1.2453
  126SOPE   C1213444   3.739   3.857   4.265  0.0087 -0.3608 -0.7398
  126SOPE  H12A13445   3.653   3.874   4.334  0.4716  0.5450 -0.3803
  126SOPE  H12B13446   3.709   3.918   4.178 -2.3081 -0.1382  0.1387
  126SOPE   C1113447   3.879   3.899   4.319  0.0422 -0.2949  0.2427
  126SOPE  H11A13448   3.908   3.812   4.381  1.4677 -0.3998 -0.5487
  126SOPE  H11B13449   3.869   3.994   4.376 -0.1889  0.9658 -1.7977
  126SOPE     P13450   4.115   3.979   4.209  0.3028 -0.3065 -0.2359
  126SOPE   O1313451   4.107   4.126   4.233  0.8435  0.0873  0.4920
  126SOPE   O1413452   4.179   3.943   4.083  0.1585 -0.1290  0.4226
  126SOPE   O1213453   3.970   3.914   4.212  0.2709  0.5981  0.3002
  126SOPE   O1113454   4.203   3.913   4.320 -0.7528 -0.0038  0.1913
  126SOPE    C113455   4.221   3.772   4.322 -0.0502 -0.0612  0.4958
  126SOPE    HA13456   4.249   3.727   4.224 -2.5475  0.9949 -0.7770
  126SOPE    HB13457   4.131   3.711   4.345 -1.0920 -0.2481 -3.3893
  126SOPE    C213458   4.320   3.731   4.431  0.5700 -0.3054 -0.0974
  126SOPE    HS13459   4.308   3.624   4.458  1.0119 -0.3046  0.0928
  126SOPE   O2113460   4.294   3.803   4.555 -0.6380  0.2148  1.1366
  126SOPE   C2113461   4.176   3.778   4.603  0.0619  0.3704  0.6584
  126SOPE   O2213462   4.123   3.668   4.596  0.1751  0.3982  0.4252
  126SOPE   C2213463   4.135   3.896   4.686 -0.2460  0.8688 -0.3509
  126SOPE   H2R13464   4.092   3.973   4.618  0.5025  1.4562 -0.1756
  126SOPE   H2S13465   4.227   3.942   4.728  0.6407 -1.1520 -0.0021
  126SOPE    C313466   4.470   3.744   4.395 -0.3294  0.0659 -1.2817
  126SOPE    HX13467   4.498   3.847   4.365 -0.7774 -0.1750 -2.5837
  126SOPE    HY13468   4.497   3.687   4.303  0.4124  0.0832 -1.0788
  126SOPE   O3113469   4.560   3.726   4.508  0.6930 -0.3097 -0.1502
  126SOPE   C3113470   4.593   3.601   4.535 -0.2756 -0.0387 -0.1020
  126SOPE   O3213471   4.550   3.502   4.478 -0.1731 -0.4450  0.7124
  126SOPE   C3213472   4.696   3.604   4.651  0.8474 -0.2613  0.1961
  126SOPE   H2X13473   4.628   3.610   4.738 -0.2163  1.5077 -0.6903
  126SOPE   H2Y13474   4.743   3.705   4.649  1.8845 -0.7479 -0.8799
  126SOPE   C2313475   4.037   3.859   4.800 -0.4710 -0.1461 -0.6249
  126SOPE   H3R13476   3.945   3.810   4.761  0.5096 -2.4015 -0.2600
  126SOPE   H3S13477   4.010   3.956   4.848 -0.0328  0.3766 -1.4074
  126SOPE   C2413478   4.100   3.769   4.912  0.4902  0.1525  0.5049
  126SOPE   H4R13479   4.083   3.665   4.878 -2.0615  0.7555 -0.2627
  126SOPE   H4S13480   4.211   3.770   4.922  0.5961  1.0429 -0.5994
  126SOPE   C2513481   4.039   3.780   5.048  0.2100 -0.5759  0.1796
  126SOPE   H5R13482   4.046   3.887   5.076 -1.1178 -0.4609  0.1252
  126SOPE   H5S13483   3.932   3.754   5.056 -0.0621  0.3494 -0.2548
  126SOPE   C2613484   4.111   3.698   5.149 -0.4465 -0.2427 -0.1797
  126SOPE   H6R13485   4.063   3.597   5.143  0.2964 -0.6415  0.4525
  126SOPE   H6S13486   4.219   3.705   5.125 -0.7769  0.7963 -1.4379
  126SOPE   C2713487   4.086   3.748   5.296  0.2977  0.5226 -0.0013
  126SOPE   H7R13488   4.089   3.858   5.284  0.6401  0.5205  0.0499
  126SOPE   H7S13489   3.982   3.715   5.316  0.4190  1.2948  2.1050
  126SOPE   C2813490   4.182   3.693   5.393  0.7262 -0.1196  0.5121
  126SOPE   H8R13491   4.287   3.707   5.357  0.6013 -2.3830 -0.9364
  126SOPE   H8S13492   4.171   3.753   5.486  0.7205  1.7894 -0.6633
  126SOPE   C2913493   4.147   3.544   5.426  0.1925 -0.5091  0.4180
  126SOPE   H9113494   4.045   3.535   5.466  0.6865  0.6849  2.0563
  126SOPE  C21013495   4.214   3.438   5.382 -0.3833 -0.1580 -0.1759
  126SOPE  H10113496   4.188   3.337   5.417  1.2353 -0.8687 -0.8889
  126SOPE  C21113497   4.349   3.437   5.312  1.0300 -0.3477 -0.1183
  126SOPE  H11R13498   4.357   3.528   5.249 -0.2711 -1.1501 -1.5247
  126SOPE  H11S13499   4.364   3.346   5.250  0.3907 -0.7340  0.2766
  126SOPE  C21213500   4.470   3.436   5.405 -0.2188 -0.0466 -0.0948
  126SOPE  H12R13501   4.465   3.535   5.456 -0.2902  0.6239 -1.3759
  126SOPE  H12S13502   4.566   3.432   5.350 -0.8009 -0.8369 -1.0659
  126SOPE  C21313503   4.464   3.319   5.501 -0.0987  0.2083  0.4359
  126SOPE  H13R13504   4.478   3.223   5.445 -0.0292  1.0056 -0.9764
  126SOPE  H13S13505   4.365   3.313   5.549 -1.0211  0.7094 -1.3019
  126SOPE  C21413506   4.571   3.333   5.607  0.9356  0.3362 -0.3495
  126SOPE  H14R13507   4.538   3.403   5.687 -1.0269  0.2937 -1.0684
  126SOPE  H14S13508   4.662   3.380   5.565  0.8281 -0.7725 -1.9028
  126SOPE  C21513509   4.618   3.192   5.659  0.4032 -1.3254  0.2807
  126SOPE  H15R13510   4.641   3.133   5.567  1.3977  0.1637 -0.4709
  126SOPE  H15S13511   4.537   3.157   5.726 -1.1697  0.1398 -0.7785
  126SOPE  C21613512   4.748   3.196   5.746 -0.1868 -0.7471  0.7778
  126SOPE  H16R13513   4.755   3.287   5.810  1.2295  2.2461 -3.1966
  126SOPE  H16S13514   4.833   3.215   5.677 -0.0726  1.2585  1.3934
  126SOPE  C21713515   4.784   3.071   5.829  0.1307  0.0310 -0.2509
  126SOPE  H17R13516   4.886   3.078   5.871  0.1935 -2.5699  0.1721
  126SOPE  H17S13517   4.772   2.977   5.772 -2.7008  0.5225 -0.6379
  126SOPE  C21813518   4.690   3.061   5.961 -0.0674  0.7768  0.0533
  126SOPE  H18R13519   4.724   2.974   6.022 -1.1913  1.0060  1.0356
  126SOPE  H18S13520   4.584   3.054   5.929 -0.7765  2.1447  1.9648
  126SOPE  H18T13521   4.705   3.150   6.025  0.3249 -0.1279  1.2679
  126SOPE   C3313522   4.798   3.491   4.649 -0.0552  0.5086  0.4861
  126SOPE   H3X13523   4.864   3.492   4.560  0.3931  3.1311  0.7535
  126SOPE   H3Y13524   4.740   3.396   4.639 -0.4281  0.7998 -0.2211
  126SOPE   C3413525   4.871   3.492   4.785 -0.0591  0.0479  0.5106
  126SOPE   H4X13526   4.800   3.484   4.870  0.5083  3.8042  1.5076
  126SOPE   H4Y13527   4.916   3.594   4.787 -1.2454  0.6090 -0.0343
  126SOPE   C3513528   4.982   3.384   4.785 -0.2115 -0.2323  0.7090
  126SOPE   H5X13529   5.048   3.393   4.697  2.5445  1.4992  2.7667
  126SOPE   H5Y13530   4.917   3.297   4.762 -0.8854  0.5885 -0.6171
  126SOPE   C3613531   5.071   3.366   4.910  0.0116 -0.3912 -0.0014
  126SOPE   H6X13532   5.012   3.320   4.992 -0.3299  1.9562  1.1647
  126SOPE   H6Y13533   5.097   3.465   4.954  1.3862 -0.8511  0.2834
  126SOPE   C3713534   5.198   3.296   4.868  0.1440  0.8780 -0.4071
  126SOPE   H7X13535   5.243   3.352   4.783 -0.1494  2.1687  0.2656
  126SOPE   H7Y13536   5.171   3.194   4.833  1.8657 -0.1797  1.1766
  126SOPE   C3813537   5.301   3.276   4.984 -0.6147  0.0618  0.0375
  126SOPE   H8X13538   5.391   3.238   4.932 -0.3123 -2.0251  1.9376
  126SOPE   H8Y13539   5.270   3.193   5.050 -2.2638  0.3551 -0.3230
  126SOPE   C3913540   5.343   3.396   5.066  0.2403  0.8143  0.3986
  126SOPE   H9X13541   5.405   3.358   5.150 -0.8264 -2.6759 -0.2366
  126SOPE   H9Y13542   5.254   3.430   5.124 -0.4162 -0.3653  0.1137
  126SOPE  C31013543   5.404   3.514   4.991 -0.1717 -0.5625 -0.0743
  126SOPE  H10X13544   5.325   3.572   4.940  0.2598  0.5951  0.5394
  126SOPE  H10Y13545   5.460   3.465   4.908  1.3319  1.1632 -0.1518
  126SOPE  C31113546   5.492   3.608   5.077 -0.2829  0.3344 -0.1821
  126SOPE  H11X13547   5.571   3.543   5.119  0.8116  0.0238 -2.5395
  126SOPE  H11Y13548   5.424   3.662   5.147 -1.2344  2.0958 -2.3198
  126SOPE  C31213549   5.572   3.706   4.982  0.1559 -0.3193  0.2679
  126SOPE  H12X13550   5.500   3.763   4.919  1.4774  0.1663 -0.8465
  126SOPE  H12Y13551   5.636   3.652   4.909  1.2305 -0.5518  1.3565
  126SOPE  C31313552   5.661   3.807   5.048 -0.0818  0.6054 -0.3080
  126SOPE  H13X13553   5.736   3.756   5.112 -0.7555  0.5924  0.4926
  126SOPE  H13Y13554   5.602   3.867   5.120  1.3990  2.2282 -0.3993
  126SOPE  C31413555   5.711   3.914   4.948 -0.0534 -0.1031  0.3500
  126SOPE  H14X13556   5.740   4.004   5.007  0.5131  0.3266 -0.5421
  126SOPE  H14Y13557   5.624   3.937   4.884  0.1901 -2.2656 -0.8695
  126SOPE  C31513558   5.823   3.873   4.852 -0.1549  0.5440 -0.6778
  126SOPE  H15X13559   5.831   3.762   4.859 -1.4385  0.4586 -0.2925
  126SOPE  H15Y13560   5.919   3.917   4.883 -0.7173  0.4089  1.3728
  126SOPE  C31613561   5.808   3.919   4.704  0.1506 -0.3085  0.3410
  126SOPE  H16X13562   5.717   3.874   4.659  2.7081 -4.2503 -1.4400
  126SOPE  H16Y13563   5.888   3.878   4.640 -0.4317 -1.3117  0.2286
  126SOPE  C31713564   5.803   4.074   4.684  0.0957  0.1602 -0.0978
  126SOPE  H17X13565   5.722   4.120   4.745 -0.2570  1.1285 -1.2567
  126SOPE  H17Y13566   5.765   4.091   4.581  1.5968  0.4091 -0.6375
  126SOPE  C31813567   5.942   4.140   4.697  0.0883  0.6363  0.4425
  126SOPE  H18X13568   5.974   4.115   4.800 -0.9470  1.2934  0.9487
  126SOPE  H18Y13569   5.931   4.250   4.688 -0.2562  0.4422 -2.7679
  126SOPE  H18Z13570   6.011   4.092   4.624 -1.8479  0.6574 -1.5180
  127SOPE     N13571   3.528   4.884   3.665  0.5065 -0.3871 -0.9984
  127SOPE   HN113572   3.573   4.824   3.592  2.6428 -1.3224  0.9635
  127SOPE   HN213573   3.452   4.938   3.619  0.7372  0.3763 -0.5039
  127SOPE   HN313574   3.606   4.942   3.701  3.1572 -2.2194 -3.3373
  127SOPE   C1213575   3.478   4.787   3.772  0.1246 -0.2774  0.1989
  127SOPE  H12A13576   3.562   4.767   3.843  0.6172  2.5373  0.5160
  127SOPE  H12B13577   3.446   4.696   3.716  2.5059 -0.5135 -0.9122
  127SOPE   C1113578   3.359   4.841   3.855  0.4839 -0.1785 -0.0255
  127SOPE  H11A13579   3.397   4.926   3.916 -2.4931  1.0467  0.2679
  127SOPE  H11B13580   3.319   4.763   3.922 -2.2505  1.3372  0.2526
  127SOPE     P13581   3.223   5.032   3.742  0.4172 -0.3461 -0.1942
  127SOPE   O1313582   3.090   5.054   3.677  0.0487 -0.2296 -0.6918
  127SOPE   O1413583   3.342   5.074   3.662  0.2767 -0.0496  0.3624
  127SOPE   O1213584   3.244   4.879   3.769  0.0841 -0.1539 -0.3743
  127SOPE   O1113585   3.214   5.103   3.878 -0.0070  0.4833 -0.2263
  127SOPE    C113586   3.155   5.039   3.985  0.2337  0.3152  0.4121
  127SOPE    HA13587   3.194   4.939   4.016 -0.3921 -0.4092 -1.0601
  127SOPE    HB13588   3.052   5.012   3.954  0.8653 -0.2769 -1.2679
  127SOPE    C213589   3.142   5.125   4.118  0.7711  0.1386 -0.8002
  127SOPE    HS13590   3.134   5.234   4.096  0.6556 -0.1528 -2.3149
  127SOPE   O2113591   3.261   5.095   4.196 -0.2081  0.1734 -0.2038
  127SOPE   C2113592   3.368   5.151   4.157 -0.0803  0.4283  0.2798
  127SOPE   O2213593   3.382   5.232   4.069 -0.4083 -0.2601 -0.2468
  127SOPE   C2213594   3.492   5.082   4.229  0.8195 -0.0901 -0.4367
  127SOPE   H2R13595   3.580   5.150   4.229  2.2643 -1.9040  0.3991
  127SOPE   H2S13596   3.506   4.984   4.180 -2.1406 -0.7105 -0.2182
  127SOPE    C313597   3.018   5.086   4.203 -0.2318 -0.7024 -0.1238
  127SOPE    HX13598   3.003   4.977   4.187 -2.3097 -0.6572  1.1221
  127SOPE    HY13599   2.926   5.140   4.171 -1.1432 -2.3132 -0.3332
  127SOPE   O3113600   3.040   5.104   4.344  0.1445 -0.7116 -0.1477
  127SOPE   C3113601   3.040   5.232   4.386 -0.3592  0.3195 -0.7841
  127SOPE   O3213602   3.041   5.333   4.319  0.1578  0.3236 -0.6945
  127SOPE   C3213603   3.038   5.225   4.542 -0.1221 -0.0894 -0.5016
  127SOPE   H2X13604   3.114   5.148   4.569 -0.8244 -0.5059  0.3135
  127SOPE   H2Y13605   2.946   5.179   4.583  0.5961 -0.3963  0.8048
  127SOPE   C2313606   3.463   5.049   4.379  0.5655  0.0112 -0.3124
  127SOPE   H3R13607   3.514   4.953   4.402 -2.0535 -1.7991 -1.4969
  127SOPE   H3S13608   3.360   5.015   4.402  0.9259 -0.8544  0.0659
  127SOPE   C2413609   3.514   5.151   4.478 -0.3804 -0.2856  0.7568
  127SOPE   H4R13610   3.501   5.113   4.581  0.4821 -0.0349  0.9716
  127SOPE   H4S13611   3.619   5.170   4.446  0.4764  1.3386  4.1102
  127SOPE   C2513612   3.436   5.281   4.458  0.4723 -0.4253  0.1341
  127SOPE   H5R13613   3.465   5.331   4.363  2.1106 -0.6424  0.4945
  127SOPE   H5S13614   3.329   5.250   4.457  0.2908  0.1960 -0.4388
  127SOPE   C2613615   3.454   5.394   4.561 -0.6801  0.3630 -0.0921
  127SOPE   H6R13616   3.558   5.427   4.542  0.0288 -1.1065  1.0558
  127SOPE   H6S13617   3.381   5.468   4.523 -0.9129 -0.8342 -2.0942
  127SOPE   C2713618   3.441   5.351   4.707 -0.1675 -0.5854 -0.3624
  127SOPE   H7R13619   3.342   5.300   4.707 -0.6872  0.3935 -0.7515
  127SOPE   H7S13620   3.526   5.283   4.726  0.1498 -0.2811 -0.6826
  127SOPE   C2813621   3.448   5.467   4.808  0.2055  0.8363 -0.4179
  127SOPE   H8R13622   3.537   5.529   4.783  1.0659 -0.2914 -0.2130
  127SOPE   H8S13623   3.360   5.535   4.798 -0.3546 -0.0423 -1.7830
  127SOPE   C2913624   3.477   5.414   4.947 -0.2857 -0.3331  0.1396
  127SOPE   H9113625   3.392   5.394   5.013  0.1292 -0.2263  0.7222
  127SOPE  C21013626   3.602   5.410   5.004  0.0424  0.1028 -0.2779
  127SOPE  H10113627   3.613   5.367   5.104  1.8957  3.8941  1.3786
  127SOPE  C21113628   3.742   5.430   4.949 -0.5391  1.0965  0.8578
  127SOPE  H11R13629   3.801   5.491   5.021  1.3823 -0.7221  0.9322
  127SOPE  H11S13630   3.736   5.473   4.847 -0.5709  0.0030  0.3809
  127SOPE  C21213631   3.827   5.298   4.939 -0.5076  1.0497  0.0412
  127SOPE  H12R13632   3.920   5.322   4.884 -0.4049 -0.1073 -0.3062
  127SOPE  H12S13633   3.772   5.229   4.871 -0.7369  2.4881 -1.2933
  127SOPE  C21313634   3.880   5.238   5.071 -0.0462  0.5024  0.0834
  127SOPE  H13R13635   3.798   5.206   5.138 -0.5941 -0.4462 -1.0096
  127SOPE  H13S13636   3.940   5.321   5.115  1.5768 -1.4503  1.7711
  127SOPE  C21413637   3.968   5.113   5.041  0.4171  0.4126  0.5834
  127SOPE  H14R13638   4.057   5.133   4.977  0.3310 -2.2882 -0.5313
  127SOPE  H14S13639   3.902   5.045   4.983  0.8161  1.9529 -1.7944
  127SOPE  C21513640   4.010   5.038   5.166  0.3047 -0.1067 -0.4000
  127SOPE  H15R13641   4.073   4.961   5.116  2.5039  2.4285 -1.7654
  127SOPE  H15S13642   3.924   4.993   5.220 -0.0825  2.3047  1.1499
  127SOPE  C21613643   4.089   5.119   5.271 -0.0058  0.6541  0.2012
  127SOPE  H16R13644   4.042   5.208   5.318  1.5774  2.0019 -0.6860
  127SOPE  H16S13645   4.188   5.151   5.231  1.6525  0.8844  4.0252
  127SOPE  C21713646   4.142   5.026   5.378  0.0549 -1.0826 -0.5661
  127SOPE  H17R13647   4.226   5.079   5.429 -0.7799 -0.4561  0.1902
  127SOPE  H17S13648   4.171   4.928   5.336 -2.1042 -1.5848 -1.0040
  127SOPE  C21813649   4.025   4.997   5.477 -0.2372  0.3266  0.1085
  127SOPE  H18R13650   4.053   4.914   5.545 -0.1646  1.1900  1.1591
  127SOPE  H18S13651   3.935   4.967   5.419 -0.2895 -0.1492  0.4251
  127SOPE  H18T13652   4.012   5.080   5.549  1.7887 -1.5028  2.8097
  127SOPE   C3313653   3.053   5.356   4.613 -0.3828  0.4309 -0.5875
  127SOPE   H3X13654   2.972   5.426   4.583 -0.1050  1.1854  0.3650
  127SOPE   H3Y13655   3.156   5.388   4.583  0.0796  0.4904  0.9861
  127SOPE   C3413656   3.047   5.345   4.765  0.0591 -0.1597  0.5695
  127SOPE   H4X13657   3.103   5.254   4.796 -2.0440 -2.1372 -1.1004
  127SOPE   H4Y13658   2.943   5.315   4.786  0.0355 -0.2692  0.3050
  127SOPE   C3513659   3.070   5.475   4.839  0.8290  0.6807  0.7679
  127SOPE   H5X13660   2.984   5.541   4.811  0.3070  0.1246  1.0289
  127SOPE   H5Y13661   3.163   5.528   4.810  0.9061  0.5125  0.7075
  127SOPE   C3613662   3.055   5.459   4.986  0.0232 -0.0174  0.0057
  127SOPE   H6X13663   3.139   5.398   5.025 -0.0229  0.6660  1.2068
  127SOPE   H6Y13664   2.957   5.410   5.007  0.0229 -0.4861 -1.0280
  127SOPE   C3713665   3.039   5.582   5.062 -0.9300 -0.8716 -0.0441
  127SOPE   H7X13666   2.960   5.646   5.017 -0.2910 -0.3299 -0.4209
  127SOPE   H7Y13667   3.138   5.633   5.053 -0.7753 -0.4611  2.8999
  127SOPE   C3813668   3.015   5.563   5.208  0.5455 -0.7474  0.2915
  127SOPE   H8X13669   2.924   5.507   5.236 -0.2348 -0.8283 -2.1802
  127SOPE   H8Y13670   3.003   5.663   5.256 -1.0869 -0.8722  0.1922
  127SOPE   C3913671   3.140   5.508   5.288  0.3347 -0.1992  0.9957
  127SOPE   H9X13672   3.215   5.589   5.273 -1.2060  0.9308 -1.1575
  127SOPE   H9Y13673   3.168   5.415   5.235 -1.3066 -0.0791 -0.1850
  127SOPE  C31013674   3.105   5.480   5.436  0.0292  0.6960 -0.0121
  127SOPE  H10X13675   3.017   5.413   5.443  0.9386 -0.8607 -2.2801
  127SOPE  H10Y13676   3.062   5.575   5.473 -1.6646  0.0268 -0.1704
  127SOPE  C31113677   3.222   5.415   5.509 -0.3101  0.1729  0.2052
  127SOPE  H11X13678   3.315   5.468   5.480  1.0225 -2.0502  0.1414
  127SOPE  H11Y13679   3.234   5.312   5.469  0.0562 -1.1456  3.3648
  127SOPE  C31213680   3.212   5.397   5.657 -0.5766 -0.0585  0.1482
  127SOPE  H12X13681   3.107   5.366   5.679 -0.1782 -0.6086  1.3216
  127SOPE  H12Y13682   3.225   5.499   5.698  1.9167 -0.4340  0.3950
  127SOPE  C31313683   3.321   5.300   5.717  0.2980 -0.8769  0.3435
  127SOPE  H13X13684   3.420   5.352   5.720  0.3197 -0.9323  0.5955
  127SOPE  H13Y13685   3.325   5.201   5.668  1.2365 -0.9873  0.6169
  127SOPE  C31413686   3.316   5.272   5.865 -0.2265 -0.4609  0.0108
  127SOPE  H14X13687   3.333   5.370   5.915 -2.0439  0.5850 -1.3063
  127SOPE  H14Y13688   3.403   5.207   5.888 -0.6428 -0.9019  0.3706
  127SOPE  C31513689   3.190   5.198   5.914 -0.4842  0.0019 -0.5326
  127SOPE  H15X13690   3.172   5.106   5.855 -0.2420 -0.1545 -0.3649
  127SOPE  H15Y13691   3.102   5.259   5.884  0.9525  1.8416 -1.2178
  127SOPE  C31613692   3.169   5.145   6.065 -0.0966  0.6024  0.3381
  127SOPE  H16X13693   3.246   5.069   6.091  0.0604  0.4235 -0.5938
  127SOPE  H16Y13694   3.071   5.094   6.078  0.3128 -0.3656 -0.2826
  127SOPE  C31713695   3.174   5.255   6.171 -0.6677  0.3244 -0.0803
  127SOPE  H17X13696   3.147   5.207   6.268  0.3611  0.7995  0.4523
  127SOPE  H17Y13697   3.102   5.334   6.141 -0.5904  0.5102  0.2165
  127SOPE  C31813698   3.300   5.339   6.195 -0.8881 -0.0604 -0.0602
  127SOPE  H18X13699   3.303   5.377   6.299  1.4554 -0.0639 -0.0653
  127SOPE  H18Y13700   3.310   5.421   6.121 -1.9867 -0.9209 -1.2034
  127SOPE  H18Z13701   3.381   5.264   6.187 -1.6971 -0.7311 -4.0822
  128SOPE     N13702   2.217   4.707   4.266 -0.0328 -0.2864  0.0060
  128SOPE   HN113703   2.211   4.795   4.322 -0.4814  0.6184 -1.4022
  128SOPE   HN213704   2.152   4.725   4.187 -0.0752 -2.0209 -0.3961
  128SOPE   HN313705   2.167   4.634   4.320 -1.3696 -0.6202 -1.6241
  128SOPE   C1213706   2.353   4.656   4.231  0.6136  0.0474  0.3607
  128SOPE  H12A13707   2.406   4.632   4.326 -0.6056 -2.8345  0.4178
  128SOPE  H12B13708   2.414   4.732   4.177  2.5330 -1.2175  0.6289
  128SOPE   C1113709   2.338   4.531   4.144 -0.0233  0.1918  0.1705
  128SOPE  H11A13710   2.443   4.495   4.137 -0.1030 -0.1727  0.7783
  128SOPE  H11B13711   2.307   4.551   4.039  1.7719  0.9169 -0.2520
  128SOPE     P13712   2.255   4.280   4.193  0.2002 -0.0718 -0.2644
  128SOPE   O1313713   2.383   4.231   4.134  0.0570  0.2435 -0.6474
  128SOPE   O1413714   2.133   4.218   4.131 -0.0430  0.2613 -0.1883
  128SOPE   O1213715   2.246   4.439   4.208 -0.4806 -0.2397  0.3305
  128SOPE   O1113716   2.258   4.229   4.344  0.2221  0.6054  0.2581
  128SOPE    C113717   2.185   4.289   4.455 -0.1721 -0.6642  0.2520
  128SOPE    HA13718   2.120   4.217   4.509 -1.5667 -0.5133 -1.1397
  128SOPE    HB13719   2.113   4.363   4.412 -1.8217 -1.9094  0.7562
  128SOPE    C213720   2.286   4.356   4.545  0.3184 -0.5121  0.1421
  128SOPE    HS13721   2.359   4.413   4.484  0.1165 -0.2588  0.1335
  128SOPE   O2113722   2.339   4.242   4.616 -0.0266 -0.3831  0.0119
  128SOPE   C2113723   2.438   4.274   4.696  0.2394 -0.3727  0.0278
  128SOPE   O2213724   2.515   4.369   4.684  0.2842  0.4122 -0.3607
  128SOPE   C2213725   2.449   4.162   4.796 -0.3776 -0.4297  0.2219
  128SOPE   H2R13726   2.481   4.073   4.739 -1.7257 -1.2130  0.6493
  128SOPE   H2S13727   2.355   4.158   4.856  0.5527  0.5310  1.8262
  128SOPE    C313728   2.209   4.446   4.649 -0.2937  0.4284  0.3259
  128SOPE    HX13729   2.142   4.372   4.698  1.4674 -1.1133  0.5064
  128SOPE    HY13730   2.148   4.520   4.593 -0.2253 -0.0994 -0.4687
  128SOPE   O3113731   2.281   4.509   4.754 -0.0631 -0.1107  0.2146
  128SOPE   C3113732   2.336   4.620   4.722  0.3895 -0.7948 -0.1706
  128SOPE   O3213733   2.337   4.671   4.611 -0.2224 -0.8180  0.7598
  128SOPE   C3213734   2.409   4.682   4.842  0.3555 -0.0375  0.5297
  128SOPE   H2X13735   2.403   4.792   4.833  3.3426  0.1660 -0.1135
  128SOPE   H2Y13736   2.513   4.642   4.844  1.0315  1.6195  0.3135
  128SOPE   C2313737   2.548   4.189   4.912 -0.7678 -0.1171  0.4743
  128SOPE   H3R13738   2.505   4.271   4.973  1.0249  1.4024 -0.2088
  128SOPE   H3S13739   2.644   4.223   4.868 -0.5028 -0.8836  0.4517
  128SOPE   C2413740   2.565   4.061   4.985 -0.5195 -0.2348 -0.7512
  128SOPE   H4R13741   2.471   4.005   5.003 -0.3071 -0.5098 -0.4849
  128SOPE   H4S13742   2.620   3.991   4.919 -0.7278 -0.1635 -1.0026
  128SOPE   C2513743   2.650   4.093   5.119  0.3880 -0.3842  0.3552
  128SOPE   H5R13744   2.730   4.165   5.094 -0.2722 -0.0148 -0.8265
  128SOPE   H5S13745   2.592   4.149   5.195  0.0240  1.6274 -1.3284
  128SOPE   C2613746   2.691   3.964   5.191  0.2316  0.2289  0.7202
  128SOPE   H6R13747   2.602   3.920   5.241 -1.8826  1.6974 -1.5488
  128SOPE   H6S13748   2.716   3.895   5.108 -2.6181 -3.3469  2.5551
  128SOPE   C2713749   2.802   3.992   5.301 -0.1124  0.0014  0.5527
  128SOPE   H7R13750   2.871   3.908   5.324  1.8305  1.5579  0.7123
  128SOPE   H7S13751   2.861   4.076   5.257 -1.2673 -0.3864 -1.9239
  128SOPE   C2813752   2.757   4.048   5.431  0.3445 -0.1472 -0.4619
  128SOPE   H8R13753   2.679   4.126   5.411 -1.5559 -1.8709 -0.1393
  128SOPE   H8S13754   2.705   3.966   5.485  0.7398  0.8937  1.6013
  128SOPE   C2913755   2.872   4.095   5.518 -0.1700 -0.0242  0.6179
  128SOPE   H9113756   2.920   4.189   5.486 -0.2794  0.5564  2.1168
  128SOPE  C21013757   2.928   4.043   5.630  0.1718  0.1155 -0.4747
  128SOPE  H10113758   3.021   4.094   5.655 -1.1291  2.4393 -0.1536
  128SOPE  C21113759   2.885   3.925   5.711  0.7096  0.0316  0.1866
  128SOPE  H11R13760   2.973   3.857   5.705 -0.7153 -1.8171 -0.4404
  128SOPE  H11S13761   2.802   3.878   5.655  0.2331 -1.7518  2.2912
  128SOPE  C21213762   2.865   3.969   5.858  0.2775 -0.2854 -0.7314
  128SOPE  H12R13763   2.952   4.029   5.891 -1.2563  0.6762  1.8583
  128SOPE  H12S13764   2.870   3.887   5.933  0.0081  1.1592  0.9263
  128SOPE  C21313765   2.740   4.047   5.881 -0.4771 -0.1494 -0.8851
  128SOPE  H13R13766   2.643   4.011   5.839 -2.2522  1.1599  1.8192
  128SOPE  H13S13767   2.766   4.149   5.848  0.9014  0.4119  1.7084
  128SOPE  C21413768   2.713   4.072   6.025  0.1828 -0.1211 -0.2184
  128SOPE  H14R13769   2.798   4.129   6.068  0.8105 -1.4637  0.3966
  128SOPE  H14S13770   2.675   3.983   6.080  0.5117  0.0116  0.2298
  128SOPE  C21513771   2.600   4.178   6.032 -0.5861  0.7498  0.3370
  128SOPE  H15R13772   2.505   4.127   6.007  0.8717 -1.9428 -0.0748
  128SOPE  H15S13773   2.622   4.261   5.961  0.1614  1.6742  1.5998
  128SOPE  C21613774   2.575   4.258   6.161 -0.3273 -0.6439  0.0981
  128SOPE  H16R13775   2.672   4.261   6.214  0.1995 -0.6867 -0.8438
  128SOPE  H16S13776   2.506   4.201   6.227 -1.6670 -0.3892 -1.0404
  128SOPE  C21713777   2.509   4.396   6.139  0.1795 -0.4667  0.0860
  128SOPE  H17R13778   2.404   4.381   6.106  0.8524 -0.4650 -2.2444
  128SOPE  H17S13779   2.565   4.441   6.054 -0.8350 -2.8513 -1.9914
  128SOPE  C21813780   2.509   4.485   6.262  0.5955 -0.0322  0.6165
  128SOPE  H18R13781   2.615   4.508   6.288  0.9279  0.4405 -1.0521
  128SOPE  H18S13782   2.458   4.424   6.340 -2.0152  2.1915  0.7845
  128SOPE  H18T13783   2.450   4.579   6.267  0.7764  0.0980  0.2868
  128SOPE   C3313784   2.328   4.646   4.972  0.0628  0.5459  0.1479
  128SOPE   H3X13785   2.353   4.539   4.989  0.9323  0.6383 -0.4445
  128SOPE   H3Y13786   2.218   4.638   4.960  0.4594 -2.1527 -3.3004
  128SOPE   C3413787   2.368   4.739   5.083  0.3523 -0.4249  0.1767
  128SOPE   H4X13788   2.297   4.742   5.168 -1.3504 -0.3398 -1.1794
  128SOPE   H4Y13789   2.350   4.840   5.040  1.3129  0.0936  0.9540
  128SOPE   C3513790   2.504   4.727   5.146  0.1970  0.5562 -0.4559
  128SOPE   H5X13791   2.572   4.738   5.059  0.8775 -1.3372 -0.2113
  128SOPE   H5Y13792   2.510   4.623   5.185 -0.6298  0.7613  0.2460
  128SOPE   C3613793   2.560   4.828   5.244 -0.4302  0.1837  0.3372
  128SOPE   H6X13794   2.546   4.932   5.208  0.5861  0.2086 -0.0404
  128SOPE   H6Y13795   2.671   4.816   5.244 -0.1280  2.3509 -1.1278
  128SOPE   C3713796   2.516   4.817   5.395  0.7897 -0.6203  0.6963
  128SOPE   H7X13797   2.519   4.714   5.435 -0.9846 -1.0694 -0.1886
  128SOPE   H7Y13798   2.413   4.859   5.406  1.0983  1.2027 -2.1115
  128SOPE   C3813799   2.630   4.878   5.478  0.0213  0.5245 -0.1341
  128SOPE   H8X13800   2.640   4.987   5.460 -0.5897  0.6630  0.3487
  128SOPE   H8Y13801   2.722   4.821   5.451 -1.1099 -1.3755 -0.1710
  128SOPE   C3913802   2.598   4.873   5.630  0.1350 -0.0815 -0.9418
  128SOPE   H9X13803   2.597   4.766   5.661 -0.0416  0.7170  2.1239
  128SOPE   H9Y13804   2.501   4.925   5.643  0.9527  1.3623 -0.3992
  128SOPE  C31013805   2.699   4.948   5.705 -0.7709 -0.2411 -0.7920
  128SOPE  H10X13806   2.710   5.053   5.670 -1.2619  0.7545  1.8657
  128SOPE  H10Y13807   2.796   4.893   5.700  1.2276  2.3440  3.5884
  128SOPE  C31113808   2.673   4.950   5.858  0.1823  0.0980  0.2867
  128SOPE  H11X13809   2.648   4.849   5.897 -1.7472 -0.0888 -1.2701
  128SOPE  H11Y13810   2.596   5.022   5.892 -0.5262 -0.6534  0.3010
  128SOPE  C31213811   2.795   5.005   5.935 -1.0276  0.4205  0.2670
  128SOPE  H12X13812   2.819   5.102   5.887 -0.6165 -0.2100 -0.8295
  128SOPE  H12Y13813   2.886   4.941   5.928  0.2562  2.0858  1.1621
  128SOPE  C31313814   2.758   5.040   6.079  0.4851 -0.4922  0.2820
  128SOPE  H13X13815   2.674   5.113   6.080  1.0534  0.1667  0.4351
  128SOPE  H13Y13816   2.842   5.091   6.130  2.5797 -0.4352 -3.0095
  128SOPE  C31413817   2.715   4.924   6.162  0.4982 -0.2448  0.6669
  128SOPE  H14X13818   2.621   4.900   6.109 -0.1992  1.8882  0.8297
  128SOPE  H14Y13819   2.687   4.940   6.268 -1.0939 -2.1023  0.5770
  128SOPE  C31513820   2.815   4.806   6.152 -0.2802 -0.5886  0.0656
  128SOPE  H15X13821   2.922   4.837   6.146  0.4351 -2.8307  0.4780
  128SOPE  H15Y13822   2.797   4.739   6.065 -1.2166 -0.4847  0.1716
  128SOPE  C31613823   2.806   4.725   6.278  0.0537 -0.1381  0.4368
  128SOPE  H16X13824   2.704   4.688   6.303  0.1120  0.9769  2.5517
  128SOPE  H16Y13825   2.847   4.785   6.362 -0.4175 -1.6229  1.7814
  128SOPE  C31713826   2.885   4.596   6.278  0.0394  0.1204  0.1458
  128SOPE  H17X13827   2.985   4.618   6.235  0.0151 -1.4397 -0.7888
  128SOPE  H17Y13828   2.840   4.523   6.208 -0.0078  0.1955  0.0988
  128SOPE  C31813829   2.910   4.529   6.418 -0.4547  0.7133  0.4171
  128SOPE  H18X13830   2.812   4.504   6.462 -1.5922  1.8844 -1.3200
  128SOPE  H18Y13831   2.963   4.602   6.483 -1.2228  0.7476  1.0095
  128SOPE  H18Z13832   2.973   4.439   6.404  0.5711  1.5725 -0.8525
  129OSM      N13833   5.362   2.590   8.535 -0.6017 -0.0923  0.4097
  129OSM    C1513834   5.410   2.448   8.526  0.0878 -0.0237 -0.0094
  129OSM   H15A13835   5.513   2.445   8.493 -0.0729 -0.0133 -0.5294
  129OSM   H15B13836   5.354   2.401   8.446  0.2542  0.5211 -0.4492
  129OSM   H15C13837   5.397   2.385   8.613  1.0911  0.9667  0.8832
  129OSM    C1413838   5.217   2.611   8.566 -0.0775 -1.2880 -0.1432
  129OSM   H14A13839   5.199   2.709   8.606  2.0188 -0.1688 -1.7602
  129OSM   H14B13840   5.180   2.536   8.635 -0.2980 -0.7621  0.3091
  129OSM   H14C13841   5.166   2.589   8.473  1.8824  0.3872 -1.7261
  129OSM    C1313842   5.435   2.645   8.658 -0.3364  0.2710 -0.5224
  129OSM   H13A13843   5.413   2.750   8.668 -0.7933  0.1665 -0.4520
  129OSM   H13B13844   5.543   2.636   8.648 -0.2150 -0.9001  1.3282
  129OSM   H13C13845   5.410   2.589   8.747 -0.0748  0.1732 -0.5095
  129OSM    C1213846   5.390   2.681   8.409 -0.1386  0.1619  0.2426
  129OSM   H12A13847   5.483   2.734   8.420  0.4125 -0.6341 -0.4788
  129OSM   H12B13848   5.321   2.764   8.417 -1.4006 -0.9423  1.3997
  129OSM    C1113849   5.345   2.626   8.271 -0.2652  0.3100  0.0079
  129OSM   H11A13850   5.385   2.526   8.244 -0.1782 -0.1422  1.7352
  129OSM   H11B13851   5.382   2.697   8.194 -1.7346  0.4910 -0.5599
  129OSM      P13852   5.120   2.733   8.191 -0.0809 -0.4266 -0.1499
  129OSM    O1313853   4.982   2.694   8.207 -0.2061 -0.4215 -0.1093
  129OSM    O1413854   5.165   2.868   8.227  0.0859 -0.9534  0.2849
  129OSM    O1113855   5.164   2.692   8.044 -0.0771 -0.2171 -0.0808
  129OSM    O1213856   5.202   2.620   8.273 -0.6001  0.1163 -0.0526
  129OSM    C1S13857   5.162   2.558   8.002  0.5246  0.5717  0.3758
  129OSM    H1S13858   5.080   2.505   8.053  0.5982 -0.5932 -0.6779
  129OSM    H1T13859   5.256   2.506   8.032 -0.0643 -3.0160 -3.1340
  129OSM     NF13860   5.120   2.423   7.817  0.3673 -0.3906 -0.3121
  129OSM    HNF13861   5.200   2.365   7.804  0.1536 -1.1904  1.6779
  129OSM    C2S13862   5.159   2.561   7.854 -0.8819 -0.3180  0.4651
  129OSM    H2S13863   5.089   2.641   7.821 -0.4199  0.8621  2.1671
  129OSM    C3S13864   5.299   2.602   7.806 -0.5976 -0.4032 -0.5627
  129OSM    H3S13865   5.384   2.548   7.851 -2.0373 -1.0156  1.5831
  129OSM     O313866   5.334   2.736   7.848  0.0015  0.5245  0.1043
  129OSM    HO313867   5.256   2.743   7.903  1.1222 -3.1319  2.5728
  129OSM    C4S13868   5.301   2.596   7.656 -0.0317  0.2234 -0.1451
  129OSM    H4S13869   5.253   2.685   7.611 -0.1592 -0.2461 -0.9666
  129OSM    C5S13870   5.351   2.503   7.576 -0.0081 -0.1327 -0.3915
  129OSM    H5S13871   5.368   2.404   7.622 -0.0314 -1.6508 -3.4259
  129OSM    C6S13872   5.343   2.515   7.428 -1.0004  0.5507 -0.1634
  129OSM    H6S13873   5.364   2.614   7.384  2.6474  0.3928  0.8339
  129OSM    H6T13874   5.241   2.485   7.395 -2.5933  2.8912  2.2437
  129OSM    C7S13875   5.443   2.414   7.368  0.2072  0.1391  0.4630
  129OSM    H7S13876   5.424   2.313   7.410 -0.4599 -0.3904 -1.0526
  129OSM    H7T13877   5.549   2.437   7.391 -0.0908  0.5604  1.4566
  129OSM    C8S13878   5.440   2.403   7.216 -0.2020 -0.0015  0.2039
  129OSM    H8S13879   5.339   2.368   7.185 -1.6709  2.7208  1.5353
  129OSM    H8T13880   5.495   2.308   7.198 -0.5801 -0.2439  0.3012
  129OSM    C9S13881   5.484   2.531   7.139 -0.3629  0.6161  0.3365
  129OSM    H9S13882   5.568   2.577   7.195 -0.8462  0.4694  1.1968
  129OSM    H9T13883   5.404   2.606   7.152  1.6419  2.7953  0.7526
  129OSM   C10S13884   5.513   2.506   6.989  0.3049 -0.1007 -0.0026
  129OSM   H10S13885   5.617   2.465   6.984  1.2149  1.9806  0.6593
  129OSM   H10T13886   5.510   2.604   6.937 -2.0815 -0.5879 -0.9201
  129OSM   C11S13887   5.405   2.422   6.926 -0.2804  0.2291  0.7579
  129OSM   H11S13888   5.311   2.470   6.958  0.6731  1.8610  1.2589
  129OSM   H11T13889   5.414   2.315   6.956  1.5218 -0.9221 -3.1442
  129OSM   C12S13890   5.416   2.421   6.773 -0.4006  0.4212 -0.0946
  129OSM   H12S13891   5.512   2.367   6.757 -1.7838 -1.3987 -3.1980
  129OSM   H12T13892   5.420   2.520   6.723  0.1428 -0.2441 -1.4048
  129OSM   C13S13893   5.306   2.331   6.715 -0.2929  0.5518  0.6889
  129OSM   H13S13894   5.209   2.360   6.763  0.4703  0.0651  2.6260
  129OSM   H13T13895   5.325   2.228   6.753 -0.0686  0.3666  0.0782
  129OSM   C14S13896   5.283   2.340   6.565 -0.5973  0.1281 -0.0179
  129OSM   H14S13897   5.364   2.310   6.495  1.3622  0.3035  2.0670
  129OSM   H14T13898   5.260   2.447   6.546  0.5531  0.7667  1.9120
  129OSM   C15S13899   5.160   2.256   6.525 -0.7701 -0.0075 -0.6203
  129OSM   H15S13900   5.072   2.264   6.593 -0.9006 -2.1738 -0.4510
  129OSM   H15T13901   5.191   2.149   6.523 -3.8300 -0.9962 -1.8854
  129OSM   C16S13902   5.110   2.295   6.393 -0.0637 -0.8959 -0.6260
  129OSM   H16S13903   5.042   2.212   6.363 -1.3559  0.0382 -0.3635
  129OSM   H16T13904   5.189   2.279   6.317  1.4737  0.0704  0.6939
  129OSM   C17S13905   5.038   2.431   6.374 -0.0312 -0.0771 -0.6596
  129OSM   H17S13906   5.113   2.512   6.387 -0.3945  0.9405 -3.9214
  129OSM   H17T13907   4.962   2.461   6.450  1.3432  0.7325  0.4492
  129OSM   C18S13908   4.985   2.454   6.232  0.0253  0.6717  0.0451
  129OSM   H18S13909   4.922   2.366   6.205  1.4753 -0.4076  0.0447
  129OSM   H18T13910   5.075   2.444   6.167 -0.5104 -4.1226 -0.3380
  129OSM   H18U13911   4.933   2.550   6.215  1.3517  1.3303 -0.3894
  129OSM    C1F13912   5.003   2.370   7.832  0.5248 -0.0002  0.0154
  129OSM     OF13913   4.906   2.437   7.857 -0.1705  0.1286 -0.0425
  129OSM    C2F13914   4.997   2.222   7.821 -0.4016  1.1730 -0.3742
  129OSM    H2F13915   4.971   2.176   7.919 -0.4177 -2.2188 -1.8428
  129OSM    H2G13916   5.095   2.182   7.788 -0.7759  0.0508 -0.1413
  129OSM    C3F13917   4.884   2.176   7.723 -0.1345 -0.0773  0.0327
  129OSM    H3F13918   4.788   2.218   7.759  1.0256  1.8365  1.0699
  129OSM    H3G13919   4.875   2.065   7.725 -1.3228 -0.0764 -2.3009
  129OSM    C4F13920   4.913   2.200   7.576  0.0719 -0.6861 -0.0595
  129OSM    H4F13921   5.013   2.165   7.543  0.4116  0.5939 -0.4259
  129OSM    H4G13922   4.933   2.307   7.556  1.1389 -0.6972  0.8501
  129OSM    C5F13923   4.802   2.151   7.492 -0.1419  1.3541 -0.2749
  129OSM    H5F13924   4.706   2.197   7.523  0.0216  0.0550  2.3657
  129OSM    H5G13925   4.793   2.041   7.499 -1.3489  1.2581 -2.4100
  129OSM    C6F13926   4.815   2.173   7.344 -0.1522  0.6561  0.0211
  129OSM    H6F13927   4.901   2.114   7.304 -0.5409  0.0207  0.1042
  129OSM    H6G13928   4.843   2.279   7.327 -1.2489  1.0800  0.7610
  129OSM    C7F13929   4.689   2.123   7.272 -0.3790 -0.5736  0.0725
  129OSM    H7F13930   4.601   2.189   7.289  0.0794  0.2224 -0.5420
  129OSM    H7G13931   4.664   2.020   7.305  0.0952 -0.8652 -0.4657
  129OSM    C8F13932   4.696   2.116   7.120 -0.1775 -0.5317  0.3335
  129OSM    H8F13933   4.625   2.037   7.090  0.1812 -1.7267  2.3903
  129OSM    H8G13934   4.789   2.072   7.080 -1.0868 -0.9993 -1.3516
  129OSM    C9F13935   4.670   2.246   7.047  0.3773  0.8494  0.2023
  129OSM    H9F13936   4.690   2.331   7.113 -0.1672  0.0494  1.4419
  129OSM   C10F13937   4.617   2.270   6.928 -0.8788 -0.4767  0.3032
  129OSM   H10F13938   4.572   2.367   6.901 -1.2504 -0.7650 -0.1250
  129OSM   C11F13939   4.571   2.169   6.833 -0.0277  0.3315  0.1262
  129OSM   H11F13940   4.547   2.070   6.878 -0.2981  0.6494  0.7032
  129OSM   H11G13941   4.654   2.143   6.764 -1.0603  2.0963 -1.8943
  129OSM   C12F13942   4.450   2.192   6.746 -0.3532  0.6049 -0.0325
  129OSM   H12F13943   4.368   2.220   6.815  0.1907 -0.3416  1.0176
  129OSM   H12G13944   4.422   2.100   6.691  0.2808  0.5236 -0.2270
  129OSM   C13F13945   4.467   2.296   6.634 -0.3324 -0.3378 -0.0157
  129OSM   H13F13946   4.564   2.278   6.583  0.7597  1.3080  1.3598
  129OSM   H13G13947   4.475   2.400   6.670  0.2610  0.5171 -2.4424
  129OSM   C14F13948   4.348   2.307   6.541 -0.2319 -0.0107 -0.0753
  129OSM   H14F13949   4.250   2.310   6.593 -1.2567  0.3118 -1.9300
  129OSM   H14G13950   4.351   2.206   6.494  0.1842 -1.6387  3.1454
  129OSM   C15F13951   4.364   2.410   6.430  0.7599 -0.0873 -0.9896
  129OSM   H15F13952   4.471   2.405   6.401  0.9764 -0.5221 -0.1557
  129OSM   H15G13953   4.345   2.510   6.474 -2.2069  0.1828 -2.6076
  129OSM   C16F13954   4.262   2.401   6.322  0.6838 -0.2304  0.7801
  129OSM   H16F13955   4.160   2.413   6.366  1.4009  0.8225  2.2309
  129OSM   H16G13956   4.267   2.308   6.262 -0.6475 -1.4349  2.4257
  129OSM   C17F13957   4.283   2.529   6.234 -1.0700 -0.6412 -0.1441
  129OSM   H17F13958   4.388   2.528   6.196 -1.4150  0.6723 -1.2376
  129OSM   H17G13959   4.288   2.616   6.304 -1.0471  0.1427 -1.0892
  129OSM   C18F13960   4.200   2.557   6.113  0.3614 -0.8414  0.5948
  129OSM   H18F13961   4.203   2.472   6.041  2.0522  0.3123 -0.7524
  129OSM   H18G13962   4.236   2.652   6.070 -1.8062  0.5859  1.7525
  129OSM   H18H13963   4.096   2.578   6.147  0.2283 -2.8875  1.6317
  130OSM      N13964   6.577   4.497   8.797 -0.6174  0.3375  0.5775
  130OSM    C1513965   6.603   4.646   8.839  0.6178  0.2003  0.0081
  130OSM   H15A13966   6.513   4.705   8.855  0.6309 -0.4378  2.9493
  130OSM   H15B13967   6.666   4.695   8.766  1.4503 -2.5333 -1.2553
  130OSM   H15C13968   6.650   4.654   8.936 -0.5889 -1.1003  0.7283
  130OSM    C1413969   6.699   4.418   8.795 -0.8036 -0.0445  0.4920
  130OSM   H14A13970   6.753   4.444   8.885 -1.8277 -0.2337  1.1789
  130OSM   H14B13971   6.765   4.446   8.714  0.1119  0.4432  1.3787
  130OSM   H14C13972   6.684   4.311   8.797 -1.2536 -0.0289 -0.9144
  130OSM    C1313973   6.474   4.430   8.887 -0.3532 -0.2602  0.3500
  130OSM   H13A13974   6.444   4.331   8.854 -1.2124 -0.4343  1.6146
  130OSM   H13B13975   6.376   4.476   8.889  0.0839  0.7175  0.1346
  130OSM   H13C13976   6.508   4.419   8.988 -0.2326  1.9112  0.5869
  130OSM    C1213977   6.518   4.511   8.656  0.2031 -0.4799 -0.8104
  130OSM   H12A13978   6.594   4.543   8.586 -1.8173  1.4025 -2.3018
  130OSM   H12B13979   6.448   4.592   8.670 -0.9629 -1.6897  0.7317
  130OSM    C1113980   6.440   4.396   8.599  0.2733 -0.5470  0.2726
  130OSM   H11A13981   6.415   4.424   8.494 -2.0953 -0.6642  0.7532
  130OSM   H11B13982   6.341   4.379   8.646  0.2751  0.3345  0.6105
  130OSM      P13983   6.456   4.142   8.538 -0.0925  0.0984  0.4289
  130OSM    O1313984   6.567   4.048   8.506 -0.2302  0.5439 -0.2505
  130OSM    O1413985   6.344   4.091   8.618  0.9491  0.5730 -0.5086
  130OSM    O1113986   6.389   4.197   8.404 -0.4027 -0.1934  0.0416
  130OSM    O1213987   6.515   4.275   8.606  0.0948 -0.8897  0.3147
  130OSM    C1S13988   6.471   4.244   8.294 -0.0594  0.1780  0.0833
  130OSM    H1S13989   6.540   4.164   8.260  0.0512  0.6383 -0.8017
  130OSM    H1T13990   6.524   4.336   8.327 -1.4909  0.6329  1.2444
  130OSM     NF13991   6.488   4.326   8.065 -0.1338  0.1783  0.6331
  130OSM    HNF13992   6.483   4.413   8.017 -1.1007  0.6424  1.5569
  130OSM    C2S13993   6.391   4.287   8.168 -0.5397  0.2562 -0.6900
  130OSM    H2S13994   6.330   4.197   8.143 -0.5861 -0.9737  3.1926
  130OSM    C3S13995   6.287   4.399   8.216  0.4421 -0.2351 -0.1812
  130OSM    H3S13996   6.351   4.487   8.240 -0.5197  0.6105 -0.6029
  130OSM     O313997   6.216   4.373   8.337 -0.0271  0.7493  0.4190
  130OSM    HO313998   6.255   4.288   8.357  0.8634  1.3448  1.2889
  130OSM    C4S13999   6.191   4.436   8.105 -0.0152  0.2408  0.0910
  130OSM    H4S14000   6.229   4.509   8.032 -1.0554  0.9827  0.2660
  130OSM    C5S14001   6.066   4.390   8.095 -0.0692 -1.1532 -0.1227
  130OSM    H5S14002   6.040   4.316   8.172 -0.7526  0.5946  1.3969
  130OSM    C6S14003   5.963   4.434   7.993 -0.1335 -0.1853  1.1362
  130OSM    H6S14004   5.911   4.529   8.020 -1.5846 -0.8350  0.7366
  130OSM    H6T14005   5.895   4.349   7.971  0.1707 -0.1224 -0.1301
  130OSM    C7S14006   6.031   4.462   7.859 -0.2877  0.2267  0.4410
  130OSM    H7S14007   6.092   4.375   7.826  0.6335  0.8411  0.4565
  130OSM    H7T14008   6.100   4.549   7.870 -0.2294 -0.1036  3.9134
  130OSM    C8S14009   5.932   4.493   7.751  0.5777  0.0459 -0.5217
  130OSM    H8S14010   5.880   4.588   7.775  0.1028 -0.6197  1.1849
  130OSM    H8T14011   5.861   4.408   7.754  1.3404 -0.5937 -0.2543
  130OSM    C9S14012   5.995   4.507   7.610 -1.0572 -1.0777  0.3479
  130OSM    H9S14013   6.055   4.422   7.570 -1.9487 -1.6192  0.1148
  130OSM    H9T14014   6.075   4.583   7.623 -1.7312 -0.4016  0.5896
  130OSM   C10S14015   5.904   4.552   7.501  0.3586  0.7949 -0.3501
  130OSM   H10S14016   5.884   4.660   7.517  3.9219  1.4470  0.4812
  130OSM   H10T14017   5.807   4.499   7.516 -0.0460  1.9500  1.4766
  130OSM   C11S14018   5.956   4.564   7.352 -0.3219 -0.0029 -0.3526
  130OSM   H11S14019   6.019   4.653   7.331 -0.8415  0.1309 -1.4025
  130OSM   H11T14020   5.865   4.587   7.293 -2.0683 -0.1204  2.1093
  130OSM   C12S14021   6.019   4.431   7.315  0.4167  0.5851 -0.2305
  130OSM   H12S14022   5.971   4.341   7.358 -1.0689  0.7713 -1.4231
  130OSM   H12T14023   6.128   4.426   7.337  0.9270 -0.3777 -2.6200
  130OSM   C13S14024   6.010   4.411   7.165 -0.5501  0.6605 -0.0253
  130OSM   H13S14025   5.907   4.382   7.136 -0.2672 -0.0855 -0.3222
  130OSM   H13T14026   6.078   4.329   7.132  0.8328  2.0229 -0.6854
  130OSM   C14S14027   6.061   4.523   7.075  0.1010 -0.0365 -0.3976
  130OSM   H14S14028   6.157   4.556   7.121 -0.2076  0.7000 -0.2730
  130OSM   H14T14029   5.997   4.614   7.078  1.7593  1.1722  0.0481
  130OSM   C15S14030   6.090   4.477   6.933  1.0793 -0.0119 -0.3333
  130OSM   H15S14031   6.167   4.398   6.936 -0.4413 -1.5205  1.2118
  130OSM   H15T14032   6.112   4.573   6.881 -2.1980  0.6934 -0.6813
  130OSM   C16S14033   5.955   4.430   6.872 -0.3865 -0.0424 -0.3093
  130OSM   H16S14034   5.870   4.497   6.897 -0.2531 -0.9899  3.1470
  130OSM   H16T14035   5.930   4.330   6.914 -1.7015  0.5547  0.3806
  130OSM   C17S14036   5.965   4.436   6.722  0.3431 -0.2723  0.0491
  130OSM   H17S14037   6.051   4.373   6.692  1.5878  1.8266 -0.9953
  130OSM   H17T14038   5.995   4.536   6.683 -0.7395 -0.3270 -1.0059
  130OSM   C18S14039   5.843   4.385   6.645 -0.2671 -0.8406  0.8851
  130OSM   H18S14040   5.864   4.396   6.537  0.1862  0.6283  1.0956
  130OSM   H18T14041   5.754   4.450   6.656  0.4172  0.4893 -0.8469
  130OSM   H18U14042   5.806   4.285   6.674 -1.0841 -1.3515 -1.6822
  130OSM    C1F14043   6.567   4.239   7.998 -0.2142  0.0558 -0.0003
  130OSM     OF14044   6.577   4.121   8.028 -0.7172  0.3272 -0.2488
  130OSM    C2F14045   6.662   4.311   7.908  0.2007  0.3993  0.2452
  130OSM    H2F14046   6.764   4.303   7.952 -0.2907 -2.7571  1.0872
  130OSM    H2G14047   6.633   4.418   7.913 -0.2021  0.2611  0.8292
  130OSM    C3F14048   6.655   4.263   7.759  0.7264  0.4759 -0.1893
  130OSM    H3F14049   6.653   4.152   7.746 -0.2395  0.3297  1.0357
  130OSM    H3G14050   6.747   4.299   7.707 -0.3123  1.6273 -1.2866
  130OSM    C4F14051   6.526   4.310   7.689 -0.5851 -0.1966 -0.1548
  130OSM    H4F14052   6.518   4.418   7.709  1.6366 -0.2394  1.3528
  130OSM    H4G14053   6.438   4.265   7.741 -1.8963  0.8370 -1.4168
  130OSM    C5F14054   6.536   4.281   7.541  0.6658 -0.7195  0.3775
  130OSM    H5F14055   6.434   4.307   7.505  0.5959  2.0480  2.2526
  130OSM    H5G14056   6.568   4.179   7.512  3.3579  0.5792 -1.6757
  130OSM    C6F14057   6.639   4.358   7.460 -0.3913 -0.1479  0.2016
  130OSM    H6F14058   6.745   4.334   7.483  0.4039  0.2674 -2.6745
  130OSM    H6G14059   6.613   4.466   7.468 -3.3256 -0.6785 -0.8364
  130OSM    C7F14060   6.626   4.319   7.315  0.2309 -0.5192 -0.0515
  130OSM    H7F14061   6.543   4.368   7.260  2.0121  0.9870 -1.5560
  130OSM    H7G14062   6.608   4.210   7.313 -1.6276 -0.2325 -0.7052
  130OSM    C8F14063   6.759   4.346   7.232  0.3836 -0.0049  0.0128
  130OSM    H8F14064   6.749   4.292   7.136  0.6639 -3.2840  1.7080
  130OSM    H8G14065   6.846   4.295   7.277  0.4980  0.5105  0.3858
  130OSM    C9F14066   6.787   4.493   7.215 -0.2140  0.1860 -0.8799
  130OSM    H9F14067   6.823   4.534   7.311 -0.8084 -0.3912 -0.3988
  130OSM   C10F14068   6.743   4.561   7.109 -0.6661  0.2957  0.6113
  130OSM   H10F14069   6.757   4.670   7.116  0.3117  0.2445 -0.2209
  130OSM   C11F14070   6.698   4.512   6.972  0.5254  0.1484 -0.1707
  130OSM   H11F14071   6.721   4.404   6.961 -1.7601 -0.4368  0.1273
  130OSM   H11G14072   6.732   4.562   6.880  0.0067 -0.0603 -0.4817
  130OSM   C12F14073   6.543   4.520   6.966  0.6078 -0.7892 -0.1374
  130OSM   H12F14074   6.498   4.451   7.042  0.8421 -0.7798  0.0098
  130OSM   H12G14075   6.501   4.493   6.867  1.6004 -0.7697 -0.5688
  130OSM   C13F14076   6.484   4.661   7.002  0.5134 -0.2962  0.7657
  130OSM   H13F14077   6.522   4.703   7.098  3.8893  0.5524 -0.7940
  130OSM   H13G14078   6.373   4.657   7.007  0.5148 -0.6221  0.5433
  130OSM   C14F14079   6.514   4.754   6.890  0.4078 -0.4778  0.6546
  130OSM   H14F14080   6.474   4.698   6.803  0.0610 -0.4285  0.7829
  130OSM   H14G14081   6.624   4.765   6.872  0.4030  0.0911  0.9404
  130OSM   C15F14082   6.448   4.890   6.914 -0.3019 -0.0300 -0.2063
  130OSM   H15F14083   6.513   4.949   6.982  1.2333  2.3551 -3.4551
  130OSM   H15G14084   6.358   4.861   6.973 -0.2460 -0.6267 -0.4065
  130OSM   C16F14085   6.408   4.987   6.794  0.5583  0.4985 -0.7232
  130OSM   H16F14086   6.502   5.025   6.749 -0.0980  2.1166 -0.7806
  130OSM   H16G14087   6.338   5.062   6.834  1.7590  1.2831 -0.0267
  130OSM   C17F14088   6.317   4.922   6.682  1.0966  0.0201  0.6879
  130OSM   H17F14089   6.219   4.888   6.721  1.4424  0.0032  1.5555
  130OSM   H17G14090   6.347   4.823   6.641 -1.0005 -0.8364  1.0664
  130OSM   C18F14091   6.275   5.033   6.578 -0.1474 -0.4795 -0.2485
  130OSM   H18F14092   6.232   5.120   6.632 -2.9748 -0.2952 -2.5564
  130OSM   H18G14093   6.195   4.991   6.512 -0.4835  0.9892 -0.8199
  130OSM   H18H14094   6.364   5.062   6.517 -0.3282 -0.9319 -0.7424
  131OSM      N14095   6.345   6.540   8.632  0.5505  0.4533 -0.0221
  131OSM    C1514096   6.301   6.447   8.739  0.3362  0.3038 -0.3410
  131OSM   H15A14097   6.384   6.427   8.805  0.0250 -2.1142 -0.5621
  131OSM   H15B14098   6.255   6.357   8.700 -1.0925  0.6511  0.4434
  131OSM   H15C14099   6.222   6.493   8.796 -0.8010  0.6448 -2.1135
  131OSM    C1414100   6.231   6.576   8.547  0.0201 -0.4510 -0.3581
  131OSM   H14A14101   6.141   6.575   8.607 -1.2518  0.8250 -2.1151
  131OSM   H14B14102   6.202   6.508   8.469  0.1230 -1.6631  0.6321
  131OSM   H14C14103   6.239   6.677   8.509  0.2218 -0.3229  0.0212
  131OSM    C1314104   6.377   6.667   8.701  0.3288 -0.0874  0.3397
  131OSM   H13A14105   6.426   6.743   8.642  0.2593  0.6965  1.2553
  131OSM   H13B14106   6.436   6.634   8.785 -0.0659 -0.2064  0.5733
  131OSM   H13C14107   6.284   6.706   8.742 -0.4775 -1.1060 -0.4640
  131OSM    C1214108   6.468   6.486   8.566 -0.4009 -1.0442 -0.1564
  131OSM   H12A14109   6.465   6.379   8.551 -0.4507 -0.9400 -0.9164
  131OSM   H12B14110   6.548   6.505   8.636 -1.2833 -1.6790  1.0752
  131OSM    C1114111   6.506   6.558   8.436 -0.1599 -1.1062  0.0537
  131OSM   H11A14112   6.417   6.560   8.369 -1.1636 -1.9179  1.3198
  131OSM   H11B14113   6.579   6.490   8.387  0.5155 -1.1181  1.0609
  131OSM      P14114   6.534   6.802   8.348  0.1044 -0.3274 -0.1545
  131OSM    O1314115   6.386   6.805   8.329 -0.1497  0.2014 -0.1799
  131OSM    O1414116   6.605   6.926   8.380  0.6381 -0.0771 -0.3391
  131OSM    O1114117   6.602   6.741   8.215 -0.0687 -0.1907  0.1368
  131OSM    O1214118   6.562   6.694   8.451 -0.0937  0.7240  0.1996
  131OSM    C1S14119   6.666   6.840   8.135 -1.0682 -0.3795 -0.0729
  131OSM    H1S14120   6.764   6.860   8.184 -0.7545  1.1372 -1.2162
  131OSM    H1T14121   6.624   6.942   8.121  1.3104  0.5515 -1.0218
  131OSM     NF14122   6.775   6.881   7.921  0.0382  0.4120 -0.1102
  131OSM    HNF14123   6.741   6.954   7.863 -3.5364 -0.5349  0.5905
  131OSM    C2S14124   6.689   6.784   7.991 -0.4752 -0.6587 -0.2059
  131OSM    H2S14125   6.747   6.690   8.005  1.1343  0.5883  2.1634
  131OSM    C3S14126   6.553   6.751   7.921  0.2150  0.3275  0.5831
  131OSM    H3S14127   6.491   6.843   7.922 -0.1067  0.1211  0.1770
  131OSM     O314128   6.480   6.654   7.990  0.2392 -0.8195 -0.2344
  131OSM    HO314129   6.533   6.648   8.070  1.9789 -0.2395 -1.2890
  131OSM    C4S14130   6.548   6.696   7.779  0.1603  0.3604  0.6012
  131OSM    H4S14131   6.486   6.748   7.705  1.6104  1.5908  0.2032
  131OSM    C5S14132   6.643   6.605   7.737 -0.1762  0.4137 -0.6630
  131OSM    H5S14133   6.724   6.580   7.807 -0.8302 -2.5898 -0.8441
  131OSM    C6S14134   6.660   6.553   7.595 -0.4666  0.9005 -1.0829
  131OSM    H6S14135   6.600   6.462   7.577  0.6704  0.1614 -1.2886
  131OSM    H6T14136   6.767   6.521   7.597 -1.1656 -1.8704  3.1888
  131OSM    C7S14137   6.632   6.647   7.479  0.1880  0.2464 -0.0384
  131OSM    H7S14138   6.668   6.750   7.502  2.5141 -0.8800  1.7747
  131OSM    H7T14139   6.527   6.644   7.442  0.0545  1.0835  0.2404
  131OSM    C8S14140   6.712   6.600   7.353  0.3328 -0.3189  0.3215
  131OSM    H8S14141   6.683   6.496   7.329  0.6506 -0.4435  0.4750
  131OSM    H8T14142   6.818   6.600   7.387 -0.1468  2.0839  2.0822
  131OSM    C9S14143   6.688   6.689   7.231  0.4163 -0.0832  0.2585
  131OSM    H9S14144   6.724   6.791   7.255 -0.4877 -0.0937  1.7714
  131OSM    H9T14145   6.577   6.688   7.221  0.1959  0.9231  2.1759
  131OSM   C10S14146   6.753   6.627   7.107  0.5154 -0.1162  0.1079
  131OSM   H10S14147   6.707   6.528   7.085 -3.3670  1.6765 -0.6347
  131OSM   H10T14148   6.862   6.624   7.126  0.4319 -0.8104  0.5437
  131OSM   C11S14149   6.751   6.714   6.979 -0.1609 -0.6397  0.5602
  131OSM   H11S14150   6.824   6.797   6.995  0.0159 -1.3162  3.9766
  131OSM   H11T14151   6.652   6.762   6.962  1.3943  2.7932  0.2437
  131OSM   C12S14152   6.798   6.635   6.852  0.0897  0.4087 -0.6987
  131OSM   H12S14153   6.733   6.551   6.818  0.2696  0.6081 -1.5483
  131OSM   H12T14154   6.891   6.579   6.877 -0.6817 -0.1732  1.0416
  131OSM   C13S14155   6.826   6.720   6.729 -0.5264  0.2104  0.2838
  131OSM   H13S14156   6.888   6.810   6.750 -0.1776 -0.0024  0.1754
  131OSM   H13T14157   6.732   6.745   6.675  0.5592 -0.2975 -1.9885
  131OSM   C14S14158   6.907   6.642   6.628 -0.1251 -0.5442  0.2821
  131OSM   H14S14159   6.867   6.538   6.621  0.6511 -0.9149  1.1728
  131OSM   H14T14160   7.012   6.624   6.660 -0.1634 -1.5087 -0.0848
  131OSM   C15S14161   6.919   6.696   6.480  0.7633  0.4467  0.3685
  131OSM   H15S14162   6.935   6.806   6.482 -1.0920  0.8151 -1.5530
  131OSM   H15T14163   6.825   6.677   6.424  2.6864  2.0704 -3.7647
  131OSM   C16S14164   7.028   6.616   6.408  0.1207  0.0238 -0.3066
  131OSM   H16S14165   7.124   6.612   6.463 -0.7609  1.8682  1.5268
  131OSM   H16T14166   7.052   6.678   6.320 -1.3481 -0.3072 -0.9704
  131OSM   C17S14167   7.001   6.480   6.353  0.2129 -0.4526  0.0328
  131OSM   H17S14168   7.102   6.457   6.311  0.4548 -0.0616  0.3936
  131OSM   H17T14169   6.935   6.505   6.267 -0.6313 -0.8067  0.5746
  131OSM   C18S14170   6.958   6.356   6.434 -0.2832  0.2295  0.4017
  131OSM   H18S14171   7.001   6.364   6.536 -0.5235 -0.0012  0.5219
  131OSM   H18T14172   6.991   6.264   6.381 -1.0464 -0.0279  0.3629
  131OSM   H18U14173   6.847   6.357   6.442 -0.3304  1.4630 -0.1730
  131OSM    C1F14174   6.896   6.896   7.967 -0.7053  0.2875  0.2171
  131OSM     OF14175   6.949   6.813   8.043  1.2665 -0.7923  0.0237
  131OSM    C2F14176   6.985   7.018   7.918 -0.5668  0.7629 -0.7201
  131OSM    H2F14177   7.040   7.046   8.010  0.4629 -0.9825 -0.7614
  131OSM    H2G14178   6.922   7.107   7.897 -1.6003  0.5774  1.3481
  131OSM    C3F14179   7.063   7.009   7.788  0.2651  0.7333  0.1750
  131OSM    H3F14180   7.129   6.919   7.796  0.2029  0.5285 -1.3183
  131OSM    H3G14181   7.123   7.103   7.783  1.0127  0.2383 -0.3821
  131OSM    C4F14182   6.978   6.993   7.666 -0.7530  0.0470  0.1197
  131OSM    H4F14183   6.909   7.079   7.652  0.3779  0.8204 -0.9128
  131OSM    H4G14184   6.913   6.904   7.675 -3.1364  1.7827  1.1808
  131OSM    C5F14185   7.062   6.983   7.540 -0.2647 -0.3200  0.4185
  131OSM    H5F14186   7.129   6.895   7.548  0.3292  0.1689  0.8829
  131OSM    H5G14187   7.122   7.076   7.546 -1.5726  0.6615 -0.9162
  131OSM    C6F14188   6.997   6.967   7.407 -0.0667 -0.4402  0.2442
  131OSM    H6F14189   6.940   7.061   7.387  0.8377  0.5232  1.9669
  131OSM    H6G14190   6.933   6.879   7.429  0.9279 -0.7822  1.9010
  131OSM    C7F14191   7.084   6.947   7.287  0.5004 -0.3851 -0.7348
  131OSM    H7F14192   7.128   6.845   7.296 -1.8000 -1.2551  1.4892
  131OSM    H7G14193   7.163   7.025   7.283 -0.2371  0.4718  0.8641
  131OSM    C8F14194   7.016   6.936   7.148  0.6737  0.4252  0.1385
  131OSM    H8F14195   6.946   7.019   7.125 -1.3246 -1.5428 -1.3018
  131OSM    H8G14196   6.954   6.844   7.158 -2.2566  2.3479  1.1806
  131OSM    C9F14197   7.112   6.922   7.032 -0.4262  0.6812 -0.4795
  131OSM    H9F14198   7.207   6.877   7.066  0.5403  1.8918 -1.4534
  131OSM   C10F14199   7.104   6.995   6.919  0.3811 -1.0125  0.5013
  131OSM   H10F14200   7.179   6.990   6.838  2.0288  1.0636  1.8053
  131OSM   C11F14201   6.979   7.077   6.881  0.4113  0.4360  0.2581
  131OSM   H11F14202   6.966   7.166   6.945 -0.8706  0.8592 -0.5549
  131OSM   H11G14203   6.893   7.007   6.891  1.4637 -0.7734  1.2474
  131OSM   C12F14204   6.965   7.119   6.734 -0.2612  0.2403 -0.8377
  131OSM   H12F14205   6.967   7.025   6.675  3.1692  0.0808 -0.6552
  131OSM   H12G14206   7.058   7.174   6.711  2.0366 -1.6675  2.8719
  131OSM   C13F14207   6.844   7.205   6.695 -0.1431 -0.1275  0.0132
  131OSM   H13F14208   6.841   7.300   6.753  1.2122 -0.1822  0.1939
  131OSM   H13G14209   6.763   7.147   6.744  0.9607  0.0879  2.2431
  131OSM   C14F14210   6.834   7.219   6.546  0.2984 -0.4296  0.2302
  131OSM   H14F14211   6.737   7.267   6.521 -0.1460 -1.0213  0.7843
  131OSM   H14G14212   6.842   7.123   6.492 -1.9892  0.4682 -1.8919
  131OSM   C15F14213   6.940   7.313   6.484 -0.3795  0.8420  0.2274
  131OSM   H15F14214   7.035   7.257   6.497 -0.1126  1.0862 -0.6439
  131OSM   H15G14215   6.948   7.409   6.540  0.9941 -0.4677  2.4415
  131OSM   C16F14216   6.910   7.346   6.333 -0.4774 -0.3438  0.4081
  131OSM   H16F14217   6.813   7.399   6.341  1.5979  3.5833  3.3156
  131OSM   H16G14218   6.910   7.247   6.282  2.1639 -0.7274  1.0278
  131OSM   C17F14219   7.024   7.419   6.262  0.4358 -0.2314 -0.5008
  131OSM   H17F14220   7.103   7.350   6.226  0.0675 -0.8381 -0.1686
  131OSM   H17G14221   7.073   7.490   6.333  0.0250  0.0311 -0.4723
  131OSM   C18F14222   6.986   7.504   6.143 -0.8308 -0.6187 -0.2654
  131OSM   H18F14223   7.077   7.530   6.085  0.3044 -1.2818  1.1425
  131OSM   H18G14224   6.938   7.599   6.177 -0.3007  0.1164 -1.5035
  131OSM   H18H14225   6.914   7.454   6.075 -2.5194  1.0756  0.1883
  132OSM      N14226   3.241   1.958   0.018 -0.4685  0.3436  0.0129
  132OSM    C1514227   3.372   1.888  -0.002 -1.0735  0.3863 -0.5241
  132OSM   H15A14228   3.374   1.788  -0.041  1.7908  0.4254 -0.7241
  132OSM   H15B14229   3.420   1.896   0.095 -2.5669 -0.3739  0.3211
  132OSM   H15C14230   3.443   1.938  -0.066 -0.1506 -0.8732 -0.5401
  132OSM    C1414231   3.167   1.894   0.133 -0.2267  0.1785 -0.1694
  132OSM   H14A14232   3.239   1.891   0.213  1.3578  1.9608 -1.4289
  132OSM   H14B14233   3.127   1.795   0.116  1.9297 -0.6103 -1.0615
  132OSM   H14C14234   3.095   1.962   0.175  1.7624  1.5223  1.2386
  132OSM    C1314235   3.267   2.098   0.052 -0.1661 -0.0696  0.1793
  132OSM   H13A14236   3.290   2.151  -0.039  0.0500 -0.5094 -0.0239
  132OSM   H13B14237   3.344   2.124   0.123  0.5521  3.2142 -1.5661
  132OSM   H13C14238   3.173   2.143   0.082 -1.1319 -0.4279 -2.1001
  132OSM    C1214239   3.150   1.948  -0.107  0.4886 -0.9285 -0.1078
  132OSM   H12A14240   3.061   2.007  -0.086 -0.7030 -2.4629 -0.6335
  132OSM   H12B14241   3.114   1.847  -0.119  0.6779 -1.1478  1.0699
  132OSM    C1114242   3.217   2.008  -0.238  0.8308  0.3443  0.5790
  132OSM   H11A14243   3.162   1.968  -0.326 -1.4063  1.2880  1.4574
  132OSM   H11B14244   3.319   1.970  -0.257  1.1834  1.3782  0.3587
  132OSM      P14245   3.088   2.232  -0.239 -0.0374 -0.5497  0.2664
  132OSM    O1314246   3.040   2.258  -0.101 -0.2740 -0.1618 -0.7440
  132OSM    O1414247   3.113   2.353  -0.322 -0.1679 -0.5345  0.2798
  132OSM    O1114248   2.996   2.130  -0.325 -0.0378  0.0356 -0.0390
  132OSM    O1214249   3.224   2.148  -0.239  0.7920  0.3114  0.8267
  132OSM    C1S14250   2.950   2.166  -0.448 -0.0428  0.9159  0.5115
  132OSM    H1S14251   3.006   2.115  -0.529 -2.0082 -1.5178  0.5819
  132OSM    H1T14252   2.949   2.275  -0.472 -1.9229  0.5484 -1.3950
  132OSM     NF14253   2.772   2.157  -0.621  0.1242  0.3538 -0.0252
  132OSM    HNF14254   2.736   2.244  -0.652 -0.7135  0.5885  1.5177
  132OSM    C2S14255   2.799   2.138  -0.484 -0.9861  0.3607 -0.1910
  132OSM    H2S14256   2.785   2.033  -0.453 -2.2368  1.0330  1.6505
  132OSM    C3S14257   2.713   2.220  -0.386  0.2107  0.3630  0.8026
  132OSM    H3S14258   2.694   2.322  -0.426 -1.4445 -0.7506 -1.4850
  132OSM     O314259   2.761   2.234  -0.249  0.9836 -0.3416  0.3907
  132OSM    HO314260   2.843   2.186  -0.262 -0.1678 -1.9914 -1.1117
  132OSM    C4S14261   2.570   2.176  -0.392  0.1167 -0.1274  0.0839
  132OSM    H4S14262   2.513   2.247  -0.453  1.9119  0.2242 -1.2446
  132OSM    C5S14263   2.508   2.068  -0.335  0.0122  0.1524 -0.1620
  132OSM    H5S14264   2.556   2.002  -0.262  0.2517 -1.6638 -1.8531
  132OSM    C6S14265   2.360   2.038  -0.358  0.3916  0.2761  0.5786
  132OSM    H6S14266   2.320   2.119  -0.423 -0.9108  0.3894  1.4948
  132OSM    H6T14267   2.297   2.032  -0.267 -1.6860 -1.0161 -0.8365
  132OSM    C7S14268   2.343   1.899  -0.428 -0.0616  0.5512 -0.1190
  132OSM    H7S14269   2.240   1.858  -0.418 -0.6798  1.8768 -0.8379
  132OSM    H7T14270   2.402   1.826  -0.369 -0.0241  0.8702  0.2473
  132OSM    C8S14271   2.377   1.901  -0.573 -0.2279 -0.2611  0.3073
  132OSM    H8S14272   2.389   1.796  -0.607 -0.5698 -1.0056  2.3712
  132OSM    H8T14273   2.482   1.933  -0.592 -0.1022 -0.3821  0.7850
  132OSM    C9S14274   2.283   1.964  -0.670  0.1464 -0.3007  0.2787
  132OSM    H9S14275   2.293   2.074  -0.664 -1.2805 -0.2232  1.7843
  132OSM    H9T14276   2.186   1.932  -0.628 -0.7470  1.1751 -0.5596
  132OSM   C10S14277   2.304   1.912  -0.814 -0.2621 -0.3707 -0.3205
  132OSM   H10S14278   2.300   1.801  -0.819  1.1320 -0.4025 -1.3814
  132OSM   H10T14279   2.402   1.941  -0.857  0.9755 -2.3310  1.0198
  132OSM   C11S14280   2.204   1.981  -0.906 -0.5207 -0.9429 -0.1740
  132OSM   H11S14281   2.220   2.091  -0.898  2.1236 -1.3518  1.5502
  132OSM   H11T14282   2.100   1.964  -0.871 -0.3453  1.0319  1.5081
  132OSM   C12S14283   2.238   1.943  -1.053 -0.6498 -0.0575 -0.2460
  132OSM   H12S14284   2.227   1.836  -1.081  2.7361 -0.7179  0.5029
  132OSM   H12T14285   2.344   1.973  -1.067 -0.2841 -1.1384  0.1169
  132OSM   C13S14286   2.155   2.034  -1.150  0.1738 -0.1414  0.9005
  132OSM   H13S14287   2.162   2.142  -1.125  1.4795 -0.5394  2.4593
  132OSM   H13T14288   2.049   2.004  -1.158 -0.6125  2.8801 -1.5932
  132OSM   C14S14289   2.216   2.026  -1.295 -0.3198 -0.2384  0.3435
  132OSM   H14S14290   2.310   2.081  -1.312 -1.9253  2.8115  0.6133
  132OSM   H14T14291   2.135   2.069  -1.358  0.5584 -1.5749 -1.8095
  132OSM   C15S14292   2.225   1.885  -1.345 -0.3893  0.2660  0.0852
  132OSM   H15S14293   2.142   1.822  -1.309  1.1192 -0.8759  1.7480
  132OSM   H15T14294   2.321   1.836  -1.316  0.1263  1.3651  0.2906
  132OSM   C16S14295   2.221   1.881  -1.503 -0.2025 -0.1933  0.2105
  132OSM   H16S14296   2.116   1.896  -1.533 -0.8826 -1.9695  1.5070
  132OSM   H16T14297   2.254   1.779  -1.533  0.3682  0.4932 -1.6390
  132OSM   C17S14298   2.330   1.973  -1.564 -0.2447 -0.6128  0.2533
  132OSM   H17S14299   2.422   1.972  -1.502 -0.1931 -0.3840  0.1803
  132OSM   H17T14300   2.298   2.079  -1.573 -0.0856 -0.5910 -0.0625
  132OSM   C18S14301   2.387   1.930  -1.707 -0.7655  0.5536  0.1818
  132OSM   H18S14302   2.317   1.941  -1.793  0.9487  1.2911 -1.2050
  132OSM   H18T14303   2.402   1.821  -1.691 -1.6421  0.1056 -1.7522
  132OSM   H18U14304   2.488   1.973  -1.726 -0.8368  0.3647 -0.6645
  132OSM    C1F14305   2.795   2.065  -0.710 -0.1142  0.0374 -0.3385
  132OSM     OF14306   2.811   1.954  -0.675  0.5103  0.5015 -0.2175
  132OSM    C2F14307   2.828   2.103  -0.858  0.5818 -0.4331 -0.1058
  132OSM    H2F14308   2.938   2.102  -0.870  0.5025  2.8528 -2.0969
  132OSM    H2G14309   2.786   2.202  -0.885  0.2066 -0.3228  0.8413
  132OSM    C3F14310   2.783   1.992  -0.952 -0.2439 -0.3513 -0.4026
  132OSM    H3F14311   2.672   1.986  -0.955 -0.2126 -1.2395 -0.0886
  132OSM    H3G14312   2.820   1.897  -0.908  1.3428  1.2984  2.0617
  132OSM    C4F14313   2.832   1.988  -1.098  0.6346 -0.2254 -0.2817
  132OSM    H4F14314   2.777   1.910  -1.155 -0.7255 -1.1037  2.0619
  132OSM    H4G14315   2.940   1.963  -1.099  0.4323 -1.3348  1.2541
  132OSM    C5F14316   2.797   2.119  -1.167  0.3968 -0.3509  0.2356
  132OSM    H5F14317   2.855   2.197  -1.114  0.9086 -1.2490  1.0374
  132OSM    H5G14318   2.690   2.146  -1.160 -0.0170 -1.2972 -1.6929
  132OSM    C6F14319   2.833   2.125  -1.314 -0.1636 -0.0950  0.0641
  132OSM    H6F14320   2.837   2.019  -1.349  0.4322 -0.4737  1.2225
  132OSM    H6G14321   2.930   2.173  -1.338 -0.3184  1.4964  2.2602
  132OSM    C7F14322   2.729   2.196  -1.392 -0.1224  0.4392 -0.4244
  132OSM    H7F14323   2.751   2.305  -1.383  0.9078  0.2794 -0.8698
  132OSM    H7G14324   2.628   2.174  -1.353  0.4843 -0.1454  0.8590
  132OSM    C8F14325   2.734   2.151  -1.533  0.1663  0.8964  0.3614
  132OSM    H8F14326   2.663   2.213  -1.591 -2.7645 -2.3765  0.1569
  132OSM    H8G14327   2.701   2.045  -1.532  0.7118  0.6371 -2.3512
  132OSM    C9F14328   2.870   2.175  -1.594 -0.1517  0.0963 -0.4185
  132OSM    H9F14329   2.937   2.251  -1.550  1.3684 -0.0469 -2.3637
  132OSM   C10F14330   2.910   2.117  -1.705  0.3257 -0.2639  0.1258
  132OSM   H10F14331   3.004   2.149  -1.752 -0.0072 -0.1733 -0.4815
  132OSM   C11F14332   2.822   2.022  -1.794 -0.5331 -0.6376  0.2616
  132OSM   H11F14333   2.728   1.982  -1.750 -0.1487 -1.7635  0.0842
  132OSM   H11G14334   2.882   1.930  -1.788  1.8847  0.7728 -0.9072
  132OSM   C12F14335   2.802   2.069  -1.941  0.3931 -0.1668  0.0462
  132OSM   H12F14336   2.903   2.101  -1.976  0.0037 -0.9513 -1.8677
  132OSM   H12G14337   2.737   2.158  -1.945 -0.2228 -0.6604 -1.5742
  132OSM   C13F14338   2.760   1.961  -2.042  0.0521  0.3405  0.2580
  132OSM   H13F14339   2.650   1.957  -2.033 -0.1496 -3.5052 -1.6204
  132OSM   H13G14340   2.798   1.871  -1.988 -0.8823  1.5981  3.1998
  132OSM   C14F14341   2.808   1.977  -2.188  0.4687 -0.6009  0.2129
  132OSM   H14F14342   2.865   2.072  -2.198 -0.8474 -0.0191 -3.1716
  132OSM   H14G14343   2.718   1.983  -2.252  1.2680 -0.0562 -0.9049
  132OSM   C15F14344   2.890   1.866  -2.248 -0.1146  0.0927 -0.9844
  132OSM   H15F14345   2.923   1.892  -2.351  0.1747  0.3894 -0.8210
  132OSM   H15G14346   2.828   1.774  -2.262  2.7317 -1.6636 -3.3077
  132OSM   C16F14347   3.014   1.839  -2.171  0.0462  0.3684 -0.4397
  132OSM   H16F14348   3.000   1.820  -2.063  1.8260 -1.0180 -0.4095
  132OSM   H16G14349   3.077   1.930  -2.169  1.5614 -0.6654  1.0152
  132OSM   C17F14350   3.098   1.721  -2.228 -0.9797 -0.5944 -0.1740
  132OSM   H17F14351   3.129   1.756  -2.329 -4.4759  1.4483 -0.6891
  132OSM   H17G14352   3.045   1.623  -2.236 -1.0988 -0.4396 -1.4893
  132OSM   C18F14353   3.222   1.706  -2.136 -0.1129 -0.6989  0.0795
  132OSM   H18F14354   3.297   1.637  -2.182  1.5409  0.6035  0.6938
  132OSM   H18G14355   3.206   1.652  -2.041  3.1847 -1.1240  0.5381
  132OSM   H18H14356   3.271   1.803  -2.115  0.4576 -1.3994  2.1582
  133OSM      N14357   6.549   2.567   8.720  0.3546  0.1993  0.7673
  133OSM    C1514358   6.690   2.509   8.719  0.1502  0.2728  0.0780
  133OSM   H15A14359   6.769   2.582   8.722  2.5610 -2.1301 -1.1802
  133OSM   H15B14360   6.713   2.439   8.640 -1.1453 -1.3392  1.0716
  133OSM   H15C14361   6.692   2.454   8.812 -1.5586  0.0615  0.0221
  133OSM    C1414362   6.450   2.454   8.739 -0.8767  0.6199 -0.7415
  133OSM   H14A14363   6.455   2.417   8.841 -2.0487  1.0197 -0.5262
  133OSM   H14B14364   6.484   2.369   8.682 -0.7449 -0.5384  0.9822
  133OSM   H14C14365   6.349   2.486   8.719 -0.9926  0.5266 -0.3231
  133OSM    C1314366   6.546   2.666   8.829  0.0521 -0.2669  0.1280
  133OSM   H13A14367   6.603   2.635   8.915 -1.0820  0.6435  1.2350
  133OSM   H13B14368   6.446   2.675   8.868 -1.1825 -3.5861 -1.8737
  133OSM   H13C14369   6.590   2.762   8.806 -0.4158 -0.3023 -1.0078
  133OSM    C1214370   6.515   2.637   8.594 -0.5644  0.6431  0.2864
  133OSM   H12A14371   6.526   2.562   8.517  0.3357  1.7971 -0.7602
  133OSM   H12B14372   6.593   2.705   8.563 -1.4537  0.5576 -2.3953
  133OSM    C1114373   6.383   2.712   8.575 -0.5566 -0.7810 -0.3479
  133OSM   H11A14374   6.380   2.754   8.472  0.7350  0.7313  0.2011
  133OSM   H11B14375   6.393   2.800   8.640  1.5474 -1.4246  0.2573
  133OSM      P14376   6.124   2.713   8.629 -0.1175 -0.0660  0.0168
  133OSM    O1314377   6.034   2.609   8.686 -0.8001 -0.0410  0.5799
  133OSM    O1414378   6.151   2.826   8.716 -0.0890 -0.3051  0.1992
  133OSM    O1114379   6.069   2.752   8.485  0.7970  0.1028 -0.1473
  133OSM    O1214380   6.258   2.637   8.594 -0.6055  0.3352  0.5282
  133OSM    C1S14381   6.037   2.649   8.395 -0.5694 -0.9895  0.1471
  133OSM    H1S14382   5.943   2.604   8.434 -0.8205 -0.0312  0.6729
  133OSM    H1T14383   6.112   2.567   8.386 -0.6437 -1.0814  0.3618
  133OSM     NF14384   5.937   2.631   8.163 -0.9712 -0.2271  0.3163
  133OSM    HNF14385   5.992   2.583   8.094  1.0799  0.8508  1.1207
  133OSM    C2S14386   6.007   2.713   8.256 -0.9078 -0.4939  0.2976
  133OSM    H2S14387   5.933   2.795   8.273 -2.6334 -1.9868  0.3817
  133OSM    C3S14388   6.141   2.775   8.199  0.2469 -0.1505 -0.3221
  133OSM    H3S14389   6.197   2.686   8.163  1.9902 -0.0052  1.8510
  133OSM     O314390   6.233   2.833   8.289  0.1081  0.3923  0.3724
  133OSM    HO314391   6.185   2.811   8.369 -1.7468  1.3145 -0.4330
  133OSM    C4S14392   6.110   2.875   8.091 -0.4219  0.7306 -0.0274
  133OSM    H4S14393   6.117   2.820   7.995 -3.1428 -0.7168  0.5148
  133OSM    C5S14394   6.046   2.995   8.107  0.3074  0.5105 -0.3287
  133OSM    H5S14395   5.997   3.025   8.201 -0.1520  4.0109 -1.5169
  133OSM    C6S14396   6.006   3.089   7.995 -0.2719 -0.6775 -0.6647
  133OSM    H6S14397   6.073   3.177   7.987 -1.8879  0.5868 -0.9922
  133OSM    H6T14398   5.906   3.138   8.005  0.8766  1.8516 -0.8911
  133OSM    C7S14399   5.986   3.026   7.852 -0.6795 -0.2353  0.0090
  133OSM    H7S14400   5.897   2.961   7.844  0.3289 -1.8603  1.2352
  133OSM    H7T14401   6.066   2.949   7.835 -0.9786 -0.1448 -2.1459
  133OSM    C8S14402   5.991   3.135   7.743 -0.6849 -0.6678  0.4436
  133OSM    H8S14403   6.071   3.212   7.753 -0.9186 -0.3862  0.1318
  133OSM    H8T14404   5.901   3.199   7.748 -1.0121 -0.6018 -3.3860
  133OSM    C9S14405   5.996   3.071   7.605 -0.2018  0.1673 -0.7858
  133OSM    H9S14406   5.933   2.979   7.605 -1.6002  1.0874 -0.3241
  133OSM    H9T14407   6.101   3.038   7.589 -1.2190 -2.4359 -2.8641
  133OSM   C10S14408   5.961   3.158   7.480 -0.2281  0.0379 -0.3497
  133OSM   H10S14409   6.043   3.230   7.457  1.0705 -1.1185  0.4525
  133OSM   H10T14410   5.878   3.222   7.516  1.2517  0.8785  1.7945
  133OSM   C11S14411   5.928   3.088   7.350  0.2042 -0.0551 -0.3916
  133OSM   H11S14412   5.847   3.014   7.363 -0.8193  0.7607 -1.8412
  133OSM   H11T14413   6.020   3.042   7.308  0.9203  0.4953  0.5270
  133OSM   C12S14414   5.892   3.191   7.245 -0.6551 -0.0071 -0.7214
  133OSM   H12S14415   5.982   3.256   7.233  0.1034 -0.9725 -0.3772
  133OSM   H12T14416   5.810   3.261   7.274  1.0153  0.5015  3.5519
  133OSM   C13S14417   5.871   3.127   7.111  0.9919 -0.3762  0.3287
  133OSM   H13S14418   5.800   3.043   7.128 -1.8420  1.4734 -1.6102
  133OSM   H13T14419   5.970   3.090   7.075  0.9167 -0.0506 -0.2150
  133OSM   C14S14420   5.811   3.223   7.010  0.3655  0.9555 -0.1323
  133OSM   H14S14421   5.882   3.306   6.993  2.4907 -0.7052  0.1720
  133OSM   H14T14422   5.719   3.273   7.046  0.8163  1.8480 -0.2046
  133OSM   C15S14423   5.777   3.147   6.875  0.7147  0.6254 -0.2205
  133OSM   H15S14424   5.710   3.062   6.901 -0.9992  1.3615 -1.9638
  133OSM   H15T14425   5.869   3.106   6.829  0.2501 -1.3585  0.5435
  133OSM   C16S14426   5.704   3.236   6.779  0.5196  0.9149 -0.2126
  133OSM   H16S14427   5.757   3.332   6.757 -0.3271  1.5409  0.3937
  133OSM   H16T14428   5.608   3.270   6.822 -0.0201 -0.2289 -0.4949
  133OSM   C17S14429   5.672   3.164   6.643  0.1949  0.1692  0.6824
  133OSM   H17S14430   5.602   3.079   6.653 -1.5064  0.8752 -3.2623
  133OSM   H17T14431   5.768   3.120   6.607  0.5829  0.8542  0.8499
  133OSM   C18S14432   5.605   3.253   6.544  0.5675 -0.4086  0.2929
  133OSM   H18S14433   5.506   3.260   6.592  1.5362 -1.2333  2.5535
  133OSM   H18T14434   5.600   3.193   6.451 -2.7151  0.2562 -0.0574
  133OSM   H18U14435   5.644   3.356   6.528  0.2026 -0.2445  0.4576
  133OSM    C1F14436   5.812   2.610   8.178  0.5958  0.1088 -0.8502
  133OSM     OF14437   5.749   2.648   8.282  0.2090  0.2553  0.1793
  133OSM    C2F14438   5.741   2.520   8.085  0.1057 -0.0891  0.7925
  133OSM    H2F14439   5.677   2.454   8.146 -0.5682 -2.0136 -1.8109
  133OSM    H2G14440   5.820   2.465   8.029  0.9127 -0.1885  1.9862
  133OSM    C3F14441   5.633   2.584   7.990 -0.0844 -0.7963  0.4817
  133OSM    H3F14442   5.565   2.644   8.054 -1.5225 -0.9982 -0.8113
  133OSM    H3G14443   5.573   2.496   7.960  0.3765 -1.6368  1.9237
  133OSM    C4F14444   5.678   2.659   7.867  0.9025  0.0161 -0.6716
  133OSM    H4F14445   5.755   2.730   7.905  2.6098 -2.3504  0.5988
  133OSM    H4G14446   5.583   2.710   7.840 -0.0787  0.1277  2.5533
  133OSM    C5F14447   5.741   2.580   7.752  0.0060 -0.5195 -0.3670
  133OSM    H5F14448   5.664   2.507   7.720  0.9853 -0.6073 -2.7167
  133OSM    H5G14449   5.830   2.527   7.793 -0.6068  0.6321  2.7330
  133OSM    C6F14450   5.790   2.670   7.640 -0.1496 -0.0313  0.6880
  133OSM    H6F14451   5.890   2.710   7.667  0.4168 -0.5523 -0.5767
  133OSM    H6G14452   5.721   2.757   7.641 -0.8785 -0.6077  1.4230
  133OSM    C7F14453   5.795   2.596   7.504 -0.3106 -0.4247  0.0346
  133OSM    H7F14454   5.693   2.557   7.486 -0.6520 -0.0782  1.1283
  133OSM    H7G14455   5.869   2.514   7.521  0.2845 -0.0563 -0.7105
  133OSM    C8F14456   5.860   2.671   7.380  0.8573 -0.2069  0.2407
  133OSM    H8F14457   5.960   2.715   7.402  1.0474 -0.4226 -0.1663
  133OSM    H8G14458   5.791   2.757   7.362 -1.5951 -2.0806  0.1652
  133OSM    C9F14459   5.868   2.577   7.262  0.4249  0.2035  0.1346
  133OSM    H9F14460   5.897   2.472   7.275  1.2978  0.1217 -2.0056
  133OSM   C10F14461   5.842   2.600   7.133  0.3921 -0.0373 -0.1471
  133OSM   H10F14462   5.858   2.518   7.061 -2.8944  0.1230 -1.2301
  133OSM   C11F14463   5.815   2.738   7.072  0.5301 -1.9410  0.3652
  133OSM   H11F14464   5.849   2.813   7.146 -0.9876 -1.0469  0.1914
  133OSM   H11G14465   5.706   2.757   7.079  1.1211  1.1880  3.1418
  133OSM   C12F14466   5.891   2.763   6.942  0.1662  0.0873 -0.5060
  133OSM   H12F14467   5.990   2.713   6.943  0.4489  0.4248  3.3109
  133OSM   H12G14468   5.913   2.872   6.938  0.0558  0.1457  0.3340
  133OSM   C13F14469   5.811   2.707   6.822 -0.8865 -0.5125  0.3280
  133OSM   H13F14470   5.721   2.768   6.804 -0.5138  0.2198  0.8917
  133OSM   H13G14471   5.763   2.616   6.863 -1.2617 -0.0152  1.0045
  133OSM   C14F14472   5.886   2.684   6.684  0.4298  0.0372  0.2475
  133OSM   H14F14473   5.989   2.647   6.703 -0.5832 -2.4946  1.3358
  133OSM   H14G14474   5.886   2.778   6.625 -0.7335 -0.3134 -0.3423
  133OSM   C15F14475   5.823   2.568   6.606  0.3818 -0.4804 -0.0014
  133OSM   H15F14476   5.786   2.493   6.680 -1.9206  2.0047  1.5701
  133OSM   H15G14477   5.907   2.526   6.548  1.0442  2.0458 -1.0015
  133OSM   C16F14478   5.705   2.612   6.518  0.6189  0.7723  0.1922
  133OSM   H16F14479   5.733   2.690   6.444 -3.0860  1.7799 -0.3769
  133OSM   H16G14480   5.613   2.644   6.572  0.2155 -2.2519  1.5329
  133OSM   C17F14481   5.651   2.493   6.430 -0.7467 -0.3494 -0.3957
  133OSM   H17F14482   5.601   2.425   6.502  0.4402 -0.2748  0.5359
  133OSM   H17G14483   5.740   2.433   6.399 -1.0494 -1.4680  0.8084
  133OSM   C18F14484   5.564   2.530   6.315  0.2673 -0.3604 -1.0199
  133OSM   H18F14485   5.485   2.602   6.344 -1.8900 -2.6945 -0.6647
  133OSM   H18G14486   5.522   2.443   6.259 -0.9933  1.2069 -2.6144
  133OSM   H18H14487   5.622   2.598   6.250  1.7741  1.0782  1.6545
  134OSM      N14488   4.907   1.577   8.783 -0.0005 -0.1705 -0.6589
  134OSM    C1514489   4.804   1.471   8.803 -0.1559  0.3825 -0.3629
  134OSM   H15A14490   4.829   1.385   8.743 -0.1832 -1.3886  2.0383
  134OSM   H15B14491   4.705   1.504   8.775  0.8580  2.4944 -1.7257
  134OSM   H15C14492   4.797   1.427   8.901 -1.0331  1.5559  0.1270
  134OSM    C1414493   4.846   1.699   8.849  0.1897  0.5862 -0.3741
  134OSM   H14A14494   4.820   1.689   8.954 -0.3914 -0.2516 -0.5865
  134OSM   H14B14495   4.746   1.720   8.812  0.0732 -1.7366 -1.5750
  134OSM   H14C14496   4.909   1.786   8.840 -0.7203  1.2177 -0.8244
  134OSM    C1314497   5.037   1.544   8.850  0.0236 -0.0195 -0.6068
  134OSM   H13A14498   5.107   1.604   8.794 -0.3149  0.4792 -0.5026
  134OSM   H13B14499   5.064   1.439   8.855 -1.9499 -0.5667 -0.7054
  134OSM   H13C14500   5.041   1.583   8.951  0.9783  0.6132 -0.8772
  134OSM    C1214501   4.932   1.604   8.642  0.2043  0.4453  0.3286
  134OSM   H12A14502   4.999   1.688   8.633 -2.4958  3.1182  2.9734
  134OSM   H12B14503   4.834   1.611   8.598  1.1136  2.6466 -1.5456
  134OSM    C1114504   4.998   1.480   8.558 -0.8792 -0.3555  0.3795
  134OSM   H11A14505   5.083   1.432   8.612 -0.0892  1.9131  1.2674
  134OSM   H11B14506   5.050   1.520   8.468  1.6920 -1.2286  1.3616
  134OSM      P14507   4.801   1.390   8.413  0.0644  0.0581 -0.2296
  134OSM    O1314508   4.747   1.252   8.385 -0.4083 -0.5178  0.1069
  134OSM    O1414509   4.706   1.493   8.451  0.1833  0.5229 -0.5199
  134OSM    O1114510   4.875   1.446   8.291  0.1864 -0.3973  0.2230
  134OSM    O1214511   4.904   1.382   8.526 -0.2479  0.1138  0.5108
  134OSM    C1S14512   4.951   1.362   8.207  0.2848  0.4365 -1.2962
  134OSM    H1S14513   4.912   1.258   8.216 -1.7097  1.1055 -1.6599
  134OSM    H1T14514   5.060   1.365   8.229 -0.0566 -0.9308  0.9815
  134OSM     NF14515   4.995   1.301   7.982 -0.1234  0.0080 -0.2412
  134OSM    HNF14516   5.068   1.330   7.921 -0.1206 -0.8575 -0.6670
  134OSM    C2S14517   4.935   1.408   8.058 -0.5516  0.0581  0.0380
  134OSM    H2S14518   4.825   1.409   8.042 -0.7985  0.2139  1.5823
  134OSM    C3S14519   4.978   1.567   8.036  0.2662 -0.4924  0.1696
  134OSM    H3S14520   5.088   1.566   8.027  0.3558 -2.4315  0.9420
  134OSM     O314521   4.963   1.649   8.149 -0.4763  0.4363 -0.4647
  134OSM    HO314522   4.929   1.591   8.218  0.4653 -0.6578 -0.8928
  134OSM    C4S14523   4.935   1.636   7.905  0.2429 -0.1788 -0.9472
  134OSM    H4S14524   5.021   1.625   7.838  0.9453 -0.7869  0.0241
  134OSM    C5S14525   4.816   1.695   7.873 -0.0120  0.2346  0.6921
  134OSM    H5S14526   4.725   1.680   7.934 -0.8616  1.3034 -0.2639
  134OSM    C6S14527   4.792   1.756   7.736  0.4097  0.6795  0.4651
  134OSM    H6S14528   4.827   1.861   7.745  0.9012  0.5748 -0.1351
  134OSM    H6T14529   4.682   1.758   7.723  0.5207  1.6876 -0.4476
  134OSM    C7S14530   4.820   1.668   7.613 -0.0787  0.6597 -0.0962
  134OSM    H7S14531   4.745   1.586   7.618  0.8710 -0.1591  1.5692
  134OSM    H7T14532   4.915   1.610   7.623 -0.7809 -0.3404  1.0830
  134OSM    C8S14533   4.800   1.736   7.476 -0.0858  0.1326  0.5523
  134OSM    H8S14534   4.829   1.843   7.463  3.1839 -0.6722  0.3252
  134OSM    H8T14535   4.704   1.711   7.427 -0.0906  3.6895 -1.6441
  134OSM    C9S14536   4.899   1.664   7.370 -0.4339 -0.4312 -0.2610
  134OSM    H9S14537   4.887   1.554   7.370 -1.1898 -0.4675 -3.6441
  134OSM    H9T14538   5.007   1.687   7.382 -0.6460 -0.2439  1.4962
  134OSM   C10S14539   4.857   1.701   7.222  0.5468 -0.4215 -0.0824
  134OSM   H10S14540   4.913   1.628   7.160 -1.3177 -1.2235 -0.8675
  134OSM   H10T14541   4.878   1.806   7.191 -4.7394  1.2895  1.0654
  134OSM   C11S14542   4.703   1.686   7.191 -0.2789 -0.1853  0.0590
  134OSM   H11S14543   4.656   1.776   7.236  0.7156  0.5956 -0.4493
  134OSM   H11T14544   4.680   1.597   7.254  0.2470 -0.6422 -0.3866
  134OSM   C12S14545   4.681   1.678   7.043 -0.0111  0.1084 -0.1827
  134OSM   H12S14546   4.758   1.609   7.004  1.1467  1.1903  0.1337
  134OSM   H12T14547   4.700   1.781   7.007 -0.5201  0.0434 -0.6486
  134OSM   C13S14548   4.540   1.634   7.006 -0.0875  0.5298 -0.3467
  134OSM   H13S14549   4.464   1.681   7.073 -0.9472 -1.1232 -0.1235
  134OSM   H13T14550   4.533   1.524   7.009  0.3485  0.4886 -0.7883
  134OSM   C14S14551   4.508   1.660   6.859  0.2354 -0.0542 -0.0177
  134OSM   H14S14552   4.563   1.594   6.789  3.1951  1.2912  0.8854
  134OSM   H14T14553   4.542   1.763   6.836  1.5478 -0.7879 -1.5717
  134OSM   C15S14554   4.355   1.652   6.818  0.2288 -0.0318 -0.7603
  134OSM   H15S14555   4.308   1.728   6.884 -1.4565 -1.1556 -0.6174
  134OSM   H15T14556   4.319   1.548   6.834  1.0639 -0.1421  0.6584
  134OSM   C16S14557   4.327   1.689   6.675  0.3793 -0.1898 -0.2475
  134OSM   H16S14558   4.367   1.609   6.610 -0.7412 -1.8485  1.0319
  134OSM   H16T14559   4.383   1.782   6.648 -1.7157  0.7823 -1.4664
  134OSM   C17S14560   4.178   1.722   6.648  0.4377  0.7921  0.0979
  134OSM   H17S14561   4.146   1.797   6.723  0.6498 -1.9946  3.2301
  134OSM   H17T14562   4.119   1.632   6.677  2.7721 -1.6651 -2.1612
  134OSM   C18S14563   4.136   1.764   6.507  0.0820  0.0125  0.4391
  134OSM   H18S14564   4.141   1.677   6.437  0.2588 -1.2729  1.9893
  134OSM   H18T14565   4.211   1.841   6.477 -0.7048  1.6191  2.3843
  134OSM   H18U14566   4.038   1.812   6.489  0.1040 -0.2130 -0.3515
  134OSM    C1F14567   4.948   1.175   7.973  1.1105 -0.6499 -0.5399
  134OSM     OF14568   4.843   1.136   8.029  0.0020 -0.5462 -0.4783
  134OSM    C2F14569   5.020   1.084   7.884 -0.2760  0.0919 -0.5792
  134OSM    H2F14570   5.024   0.991   7.945 -0.8943  1.7544  2.1749
  134OSM    H2G14571   5.120   1.121   7.853 -0.6085  1.0222 -0.5954
  134OSM    C3F14572   4.942   1.056   7.751  0.1505  0.3116  0.4555
  134OSM    H3F14573   4.835   1.028   7.761 -0.3072  0.1958 -3.2031
  134OSM    H3G14574   4.993   0.967   7.707  1.8212  1.7252 -0.6074
  134OSM    C4F14575   4.951   1.178   7.653  0.2658 -0.0141  0.3826
  134OSM    H4F14576   5.059   1.192   7.634  0.0056  0.8305 -0.5243
  134OSM    H4G14577   4.901   1.264   7.704  0.0871  0.4299 -0.5266
  134OSM    C5F14578   4.876   1.138   7.528  0.2828  0.2636  0.0000
  134OSM    H5F14579   4.772   1.104   7.549  0.6273 -1.4814 -0.9519
  134OSM    H5G14580   4.924   1.045   7.493  1.5892  0.6399  0.7355
  134OSM    C6F14581   4.875   1.247   7.421  0.0761  0.0071 -0.3872
  134OSM    H6F14582   4.979   1.272   7.391  0.5029 -2.2857 -0.9925
  134OSM    H6G14583   4.832   1.343   7.458  0.1360 -0.8181  1.9742
  134OSM    C7F14584   4.815   1.195   7.294  0.3075 -0.4570  0.0473
  134OSM    H7F14585   4.719   1.146   7.321  0.1119  0.6815  1.5378
  134OSM    H7G14586   4.883   1.123   7.243 -0.7249 -1.1631 -0.3698
  134OSM    C8F14587   4.780   1.307   7.191  0.0290  0.3853 -0.3796
  134OSM    H8F14588   4.735   1.390   7.249  0.6949 -0.6062  1.6625
  134OSM    H8G14589   4.699   1.270   7.124 -1.5519  1.8785  0.6029
  134OSM    C9F14590   4.898   1.354   7.108  0.1639 -0.2713 -0.4684
  134OSM    H9F14591   4.971   1.411   7.167  1.0943 -0.8924 -0.9927
  134OSM   C10F14592   4.928   1.326   6.984 -0.3567 -0.4820  0.4121
  134OSM   H10F14593   5.018   1.374   6.942 -1.3713  1.3493  0.2189
  134OSM   C11F14594   4.848   1.248   6.888 -0.1629  0.3709 -0.3597
  134OSM   H11F14595   4.750   1.218   6.931  0.0000 -2.3888 -1.6827
  134OSM   H11G14596   4.896   1.154   6.855  0.0296  0.1093  0.6330
  134OSM   C12F14597   4.810   1.331   6.769  0.2414  0.6410  0.1607
  134OSM   H12F14598   4.894   1.388   6.723  1.6060 -0.5620  1.0738
  134OSM   H12G14599   4.750   1.415   6.810 -1.6251 -0.3856 -0.3537
  134OSM   C13F14600   4.739   1.259   6.655 -0.4539 -0.7171 -1.1405
  134OSM   H13F14601   4.652   1.204   6.698  1.0466  0.3054  3.8067
  134OSM   H13G14602   4.799   1.181   6.604  0.1264  0.2360 -1.9499
  134OSM   C14F14603   4.689   1.358   6.556  1.1846 -0.6801  0.0751
  134OSM   H14F14604   4.779   1.406   6.512  0.3390  0.8035 -0.1215
  134OSM   H14G14605   4.629   1.435   6.609  0.9642 -1.5621  1.1359
  134OSM   C15F14606   4.607   1.294   6.437  0.0146  0.1830 -0.2000
  134OSM   H15F14607   4.517   1.242   6.476  0.5802 -2.3481 -1.9955
  134OSM   H15G14608   4.667   1.212   6.391  1.2547  1.4398 -0.9176
  134OSM   C16F14609   4.573   1.390   6.330 -0.3306 -0.1890  0.6184
  134OSM   H16F14610   4.546   1.340   6.235 -1.7919 -0.5694  1.2126
  134OSM   H16G14611   4.666   1.446   6.305 -0.0938  0.2501  2.3395
  134OSM   C17F14612   4.463   1.495   6.365 -0.1194  0.2983  0.8793
  134OSM   H17F14613   4.498   1.556   6.452 -0.6159 -1.0414  2.0644
  134OSM   H17G14614   4.370   1.449   6.406  0.2247 -1.5742 -0.3469
  134OSM   C18F14615   4.423   1.585   6.246 -0.0945 -0.3767 -0.1336
  134OSM   H18F14616   4.513   1.638   6.207 -1.3897  1.7897 -0.3322
  134OSM   H18G14617   4.352   1.663   6.281  1.0029  0.5535  0.0513
  134OSM   H18H14618   4.380   1.526   6.162  0.6551  0.2017 -0.9525
  135OSM      N14619   3.284   4.060   8.733 -0.1339  0.4677 -0.1067
  135OSM    C1514620   3.167   3.967   8.718  0.0617  0.1209  0.5325
  135OSM   H15A14621   3.135   3.940   8.818 -0.6183 -0.2760  0.2134
  135OSM   H15B14622   3.188   3.874   8.668  2.2535  0.9906 -0.2671
  135OSM   H15C14623   3.091   4.018   8.660  1.1722  0.4125 -0.7230
  135OSM    C1414624   3.388   4.016   8.827  1.1351  0.2541 -0.6830
  135OSM   H14A14625   3.342   3.981   8.919  2.7324 -2.0999 -0.6738
  135OSM   H14B14626   3.457   4.094   8.856 -0.8835  1.7362  0.3725
  135OSM   H14C14627   3.450   3.939   8.782  1.8694  1.3877 -1.6842
  135OSM    C1314628   3.352   4.082   8.603  0.0023 -0.0823  0.0582
  135OSM   H13A14629   3.289   4.139   8.536 -1.4395  0.6110  1.9211
  135OSM   H13B14630   3.386   3.991   8.556  2.7058  1.1055 -0.5049
  135OSM   H13C14631   3.441   4.142   8.614 -1.4105  1.9463  0.9241
  135OSM    C1214632   3.238   4.192   8.786  0.8081 -0.3602  0.2128
  135OSM   H12A14633   3.326   4.254   8.796  0.4778  0.5069 -1.8165
  135OSM   H12B14634   3.211   4.171   8.889 -0.0212  1.1739  0.3464
  135OSM    C1114635   3.134   4.279   8.717 -0.0655  0.1196 -0.6163
  135OSM   H11A14636   3.091   4.350   8.790 -1.3505 -2.1968  0.9866
  135OSM   H11B14637   3.044   4.219   8.694  0.0625 -0.6149  0.6841
  135OSM      P14638   3.289   4.460   8.619 -0.0170 -0.2812 -0.0286
  135OSM    O1314639   3.213   4.552   8.704  0.5565 -0.2344  0.6265
  135OSM    O1414640   3.422   4.416   8.673 -0.5271  0.3883  0.2163
  135OSM    O1114641   3.305   4.518   8.473  0.1133  0.1456  0.0353
  135OSM    O1214642   3.190   4.339   8.597 -0.3257  0.3772  0.2076
  135OSM    C1S14643   3.320   4.406   8.375  0.7267  0.2781 -0.1189
  135OSM    H1S14644   3.222   4.357   8.359 -0.2575  2.7551 -2.4156
  135OSM    H1T14645   3.392   4.327   8.406  0.5944  0.2428  0.1024
  135OSM     NF14646   3.396   4.346   8.152 -0.0355  0.7709 -0.0774
  135OSM    HNF14647   3.491   4.323   8.129  0.6691  1.1846  2.1613
  135OSM    C2S14648   3.367   4.458   8.236 -0.1715  0.9509  0.0927
  135OSM    H2S14649   3.280   4.508   8.188  0.1409  0.3860 -1.1146
  135OSM    C3S14650   3.478   4.563   8.240 -0.1895  0.0009 -0.0440
  135OSM    H3S14651   3.570   4.504   8.256 -0.1947 -0.9438 -2.8866
  135OSM     O314652   3.476   4.660   8.344  0.2073  1.0528  0.4358
  135OSM    HO314653   3.405   4.617   8.392 -1.1846  0.9375 -1.5781
  135OSM    C4S14654   3.506   4.621   8.099 -0.8369  0.6932 -0.2409
  135OSM    H4S14655   3.582   4.571   8.037 -0.9432 -1.5496  1.3205
  135OSM    C5S14656   3.435   4.717   8.035 -0.5871 -0.0445  0.3251
  135OSM    H5S14657   3.358   4.774   8.089 -0.5429 -1.3722  1.8659
  135OSM    C6S14658   3.467   4.773   7.902 -0.2877  0.1142  0.5948
  135OSM    H6S14659   3.570   4.745   7.870 -0.9218 -1.3191 -0.3113
  135OSM    H6T14660   3.454   4.883   7.902  0.5703  0.2504 -1.1124
  135OSM    C7S14661   3.381   4.718   7.784 -0.2891  0.1861 -0.0886
  135OSM    H7S14662   3.273   4.744   7.790  0.1565  2.2476 -0.3902
  135OSM    H7T14663   3.375   4.607   7.785 -1.2676  0.2238  1.1328
  135OSM    C8S14664   3.435   4.753   7.640 -0.5880  0.3142 -0.5061
  135OSM    H8S14665   3.542   4.727   7.629 -1.0460 -1.9496 -0.1057
  135OSM    H8T14666   3.435   4.864   7.629 -1.8490  0.2755 -1.0903
  135OSM    C9S14667   3.339   4.703   7.529  0.1426 -0.8069 -0.2003
  135OSM    H9S14668   3.244   4.744   7.569 -0.4319 -2.0230 -0.2863
  135OSM    H9T14669   3.341   4.593   7.519 -0.9298 -0.7285 -1.4856
  135OSM   C10S14670   3.373   4.752   7.388  0.7634 -0.0795 -0.1113
  135OSM   H10S14671   3.483   4.751   7.376  1.0798  0.7666  2.1918
  135OSM   H10T14672   3.342   4.858   7.373 -0.4281 -0.3591  0.2800
  135OSM   C11S14673   3.300   4.662   7.284  0.5714  0.4515  0.9221
  135OSM   H11S14674   3.190   4.667   7.295  0.3519 -3.3064  1.7428
  135OSM   H11T14675   3.328   4.557   7.308 -2.2803 -0.4085  0.7604
  135OSM   C12S14676   3.341   4.684   7.132 -0.1457 -0.1162  0.3014
  135OSM   H12S14677   3.451   4.680   7.117 -0.2664  1.0032 -1.1044
  135OSM   H12T14678   3.324   4.792   7.111 -0.8181 -0.1102  0.8462
  135OSM   C13S14679   3.269   4.600   7.028 -0.5087  0.0085  0.1269
  135OSM   H13S14680   3.158   4.600   7.036 -0.8652  1.5695 -3.2854
  135OSM   H13T14681   3.294   4.491   7.030  0.4049  0.1652 -1.3969
  135OSM   C14S14682   3.295   4.653   6.884 -0.7269 -0.0621 -0.4078
  135OSM   H14S14683   3.403   4.661   6.862 -0.8028  0.7650 -0.4980
  135OSM   H14T14684   3.261   4.758   6.892 -1.8453 -0.5332  4.1370
  135OSM   C15S14685   3.226   4.579   6.773 -0.1765 -0.1185 -0.5778
  135OSM   H15S14686   3.246   4.638   6.681 -2.4082  0.7271 -0.5788
  135OSM   H15T14687   3.117   4.575   6.794 -0.2530 -0.2115 -0.9727
  135OSM   C16S14688   3.277   4.440   6.730  0.4555  0.3516 -1.0431
  135OSM   H16S14689   3.265   4.373   6.817  0.3077  0.3991 -1.0264
  135OSM   H16T14690   3.386   4.432   6.708  1.2232 -1.4325  2.6737
  135OSM   C17S14691   3.202   4.388   6.615  0.2153  0.4825  0.3386
  135OSM   H17S14692   3.210   4.468   6.539 -1.3255  1.7107  1.3967
  135OSM   H17T14693   3.098   4.390   6.653 -0.5656  1.3220 -1.7262
  135OSM   C18S14694   3.236   4.248   6.565 -0.2649 -0.0088  0.2219
  135OSM   H18S14695   3.222   4.172   6.645  0.5942  1.8505  2.2299
  135OSM   H18T14696   3.341   4.244   6.530  0.1946  1.2645  1.3926
  135OSM   H18U14697   3.179   4.232   6.471  0.6026  0.5234 -0.4120
  135OSM    C1F14698   3.296   4.257   8.131  0.0028  0.1846  0.6471
  135OSM     OF14699   3.174   4.284   8.155 -0.2273  0.7460 -0.5174
  135OSM    C2F14700   3.341   4.132   8.059 -0.0904  1.3010 -0.1747
  135OSM    H2F14701   3.429   4.091   8.113 -0.5907  2.0559  1.2475
  135OSM    H2G14702   3.367   4.160   7.954 -0.6708 -0.6017 -0.8623
  135OSM    C3F14703   3.229   4.024   8.053 -0.3442  0.2941 -0.1968
  135OSM    H3F14704   3.135   4.065   8.009  0.9910  3.0553 -0.7038
  135OSM    H3G14705   3.212   3.993   8.158  0.1997  0.5451 -0.0332
  135OSM    C4F14706   3.274   3.890   7.987  0.6872  0.6396  0.6730
  135OSM    H4F14707   3.375   3.858   8.020 -0.3042 -1.0493  2.2413
  135OSM    H4G14708   3.205   3.806   8.011 -0.9011  1.4701 -0.7365
  135OSM    C5F14709   3.261   3.896   7.832 -0.2072 -0.0290  0.2587
  135OSM    H5F14710   3.314   3.988   7.801 -1.1179 -0.1246 -1.6909
  135OSM    H5G14711   3.153   3.904   7.808 -0.0658 -0.7794 -0.6857
  135OSM    C6F14712   3.316   3.782   7.760 -1.2706  0.0888 -0.2294
  135OSM    H6F14713   3.299   3.701   7.835  1.3521  0.4924  0.9050
  135OSM    H6G14714   3.425   3.797   7.745 -0.6747 -0.4689  2.8139
  135OSM    C7F14715   3.240   3.760   7.632  0.1798  0.0627 -0.1305
  135OSM    H7F14716   3.134   3.773   7.663  0.5411 -3.6954  3.6818
  135OSM    H7G14717   3.238   3.657   7.590  0.5073  0.4959 -1.2432
  135OSM    C8F14718   3.263   3.866   7.515 -0.1004 -0.0440  0.3726
  135OSM    H8F14719   3.293   3.969   7.546 -0.7579  0.1687  0.3003
  135OSM    H8G14720   3.165   3.880   7.465  0.1791 -0.5986 -0.3436
  135OSM    C9F14721   3.358   3.823   7.414  0.0575  0.1816 -0.0661
  135OSM    H9F14722   3.461   3.857   7.432  0.8994 -0.5373 -2.8944
  135OSM   C10F14723   3.342   3.758   7.296 -0.3384  0.2415 -0.0299
  135OSM   H10F14724   3.430   3.740   7.234 -0.0112  1.4988  0.0441
  135OSM   C11F14725   3.215   3.703   7.237  0.2032 -0.3649 -0.1105
  135OSM   H11F14726   3.124   3.729   7.296 -0.1628  2.1292 -1.6171
  135OSM   H11G14727   3.227   3.593   7.235  0.7046 -0.3523  1.0417
  135OSM   C12F14728   3.178   3.758   7.102  0.4274 -0.1066  0.4651
  135OSM   H12F14729   3.155   3.867   7.102 -0.7832 -0.3214 -1.1618
  135OSM   H12G14730   3.088   3.701   7.070  0.0926  0.3321  0.6176
  135OSM   C13F14731   3.276   3.719   6.995  0.4876  0.1920 -0.3473
  135OSM   H13F14732   3.286   3.609   7.005 -1.1324  0.1265  0.9217
  135OSM   H13G14733   3.374   3.770   7.013  0.1956  0.6583 -0.0637
  135OSM   C14F14734   3.234   3.763   6.850  0.3446  0.1961  0.1730
  135OSM   H14F14735   3.229   3.874   6.851 -1.0540  0.1450  0.9096
  135OSM   H14G14736   3.135   3.722   6.820  0.5386  0.2442 -0.5534
  135OSM   C15F14737   3.336   3.704   6.749  0.2775 -0.1969  0.1474
  135OSM   H15F14738   3.339   3.596   6.775 -1.4602 -0.8757 -2.2203
  135OSM   H15G14739   3.440   3.743   6.758  0.5960 -1.1946  1.0783
  135OSM   C16F14740   3.287   3.717   6.607 -0.3976  0.0857  0.0908
  135OSM   H16F14741   3.258   3.819   6.574 -1.5385 -0.5275 -0.8647
  135OSM   H16G14742   3.199   3.650   6.601 -1.5421  1.5826 -0.5655
  135OSM   C17F14743   3.390   3.666   6.504 -0.1947 -0.1392 -0.4551
  135OSM   H17F14744   3.459   3.584   6.533  1.3104  0.4591 -2.1541
  135OSM   H17G14745   3.466   3.745   6.492  2.7140 -2.4847  1.1289
  135OSM   C18F14746   3.327   3.626   6.368 -0.6141  0.2022  0.2137
  135OSM   H18F14747   3.222   3.660   6.355 -0.8135 -0.0121  1.1825
  135OSM   H18G14748   3.329   3.516   6.352 -1.8578  0.2867 -0.7143
  135OSM   H18H14749   3.391   3.679   6.294 -1.0784 -0.5055 -0.7256
  136OSM      N14750   0.338   1.020   8.716 -0.1962  0.1670 -0.3404
  136OSM    C1514751   0.360   0.948   8.846  0.4402  0.0013 -0.0284
  136OSM   H15A14752   0.453   0.971   8.895 -0.8759  1.6683  1.8569
  136OSM   H15B14753   0.354   0.841   8.835  3.2892 -0.0257 -2.2399
  136OSM   H15C14754   0.285   0.968   8.921  0.6021 -2.4064  0.8550
  136OSM    C1414755   0.201   0.995   8.666  0.2617  0.3156 -0.5169
  136OSM   H14A14756   0.183   1.023   8.564 -2.1733 -3.1937 -1.2391
  136OSM   H14B14757   0.128   1.039   8.733 -1.0202  1.3219 -2.4633
  136OSM   H14C14758   0.177   0.890   8.653 -0.7607  0.5943 -1.0398
  136OSM    C1314759   0.367   1.161   8.752 -0.3751  0.0195 -0.1207
  136OSM   H13A14760   0.467   1.173   8.792 -0.8219 -0.9711  1.3753
  136OSM   H13B14761   0.296   1.200   8.824 -0.5664 -0.5632  0.0077
  136OSM   H13C14762   0.360   1.224   8.664 -0.2485  0.3925  0.1331
  136OSM    C1214763   0.447   0.982   8.610 -0.0449 -0.1987 -0.2684
  136OSM   H12A14764   0.439   0.876   8.588 -1.2748  0.1512 -1.7192
  136OSM   H12B14765   0.545   1.002   8.650 -0.6356  1.4278  0.4679
  136OSM    C1114766   0.434   1.059   8.483 -0.5281 -0.5171  0.9479
  136OSM   H11A14767   0.327   1.072   8.454 -0.2411  1.8340  0.7775
  136OSM   H11B14768   0.472   1.002   8.395 -0.8733  1.6584 -0.6979
  136OSM      P14769   0.646   1.207   8.464  0.1395  0.0458  0.4013
  136OSM    O1314770   0.678   1.349   8.463  0.2222 -0.4177 -0.4813
  136OSM    O1414771   0.721   1.133   8.560  0.7152 -0.5676  0.1366
  136OSM    O1114772   0.680   1.157   8.320 -0.0464  0.8494  0.8814
  136OSM    O1214773   0.490   1.190   8.492  0.0857 -1.0226  0.4686
  136OSM    C1S14774   0.629   1.234   8.204 -0.4135  0.6169  0.2846
  136OSM    H1S14775   0.664   1.339   8.210  0.9412  0.1221  1.6182
  136OSM    H1T14776   0.518   1.236   8.203 -0.4044  2.2058  0.6469
  136OSM     NF14777   0.643   1.235   7.961 -0.2305  0.0625 -0.5227
  136OSM    HNF14778   0.569   1.214   7.898  1.8557 -0.5175 -2.9813
  136OSM    C2S14779   0.676   1.161   8.079 -0.1441 -0.1716 -0.1680
  136OSM    H2S14780   0.787   1.150   8.078 -0.2230 -1.3006 -2.6097
  136OSM    C3S14781   0.628   1.017   8.069  0.4760 -0.4105 -0.0782
  136OSM    H3S14782   0.517   1.016   8.065  0.4824  0.8392 -1.9638
  136OSM     O314783   0.659   0.936   8.185 -0.1251 -0.7184 -0.3851
  136OSM    HO314784   0.640   0.990   8.262 -1.1214 -0.2004 -0.9703
  136OSM    C4S14785   0.690   0.944   7.955 -0.0276 -0.1016  0.0700
  136OSM    H4S14786   0.785   0.893   7.976  0.1201 -0.3234 -1.0746
  136OSM    C5S14787   0.638   0.914   7.831  0.3081 -0.0125 -0.5825
  136OSM    H5S14788   0.535   0.948   7.811  0.7264  1.4607 -0.3313
  136OSM    C6S14789   0.718   0.838   7.734  0.0348  0.8012  0.1595
  136OSM    H6S14790   0.770   0.753   7.783  0.7049  1.2964  0.3133
  136OSM    H6T14791   0.800   0.898   7.689  1.2428 -0.4150  0.6990
  136OSM    C7S14792   0.629   0.776   7.631  0.2504  0.0130  0.3783
  136OSM    H7S14793   0.582   0.865   7.584  0.1201  1.5875  3.2839
  136OSM    H7T14794   0.547   0.712   7.669 -0.7260  1.5197  0.9024
  136OSM    C8S14795   0.722   0.696   7.540 -0.0532  0.0386  0.9427
  136OSM    H8S14796   0.773   0.619   7.600 -1.5299 -0.2199  1.9186
  136OSM    H8T14797   0.806   0.761   7.505  0.7886 -1.8979 -0.8544
  136OSM    C9S14798   0.655   0.632   7.416 -0.3081 -0.3694  0.2195
  136OSM    H9S14799   0.606   0.712   7.356  0.5172  0.8000  1.0693
  136OSM    H9T14800   0.567   0.572   7.450  0.0628 -0.8620  0.3187
  136OSM   C10S14801   0.746   0.557   7.316  0.3178 -0.4350 -0.3145
  136OSM   H10S14802   0.780   0.462   7.363 -0.1955 -0.7656 -0.6030
  136OSM   H10T14803   0.830   0.629   7.299 -0.0792  0.3431  0.8746
  136OSM   C11S14804   0.686   0.515   7.177 -0.4561  0.0213 -0.1087
  136OSM   H11S14805   0.665   0.607   7.119 -3.4872 -1.3903 -1.4463
  136OSM   H11T14806   0.585   0.474   7.196 -0.6976  2.1341  4.4955
  136OSM   C12S14807   0.772   0.419   7.091 -0.4441  0.3478  0.3506
  136OSM   H12S14808   0.783   0.323   7.147 -3.4328 -0.1094  0.3211
  136OSM   H12T14809   0.872   0.465   7.076 -1.2196  1.7839 -0.5155
  136OSM   C13S14810   0.714   0.396   6.953 -0.6021 -0.1451 -0.5731
  136OSM   H13S14811   0.671   0.493   6.920  2.0141  0.4078 -2.7146
  136OSM   H13T14812   0.630   0.324   6.968 -2.4485  1.8649 -0.7524
  136OSM   C14S14813   0.803   0.342   6.839  0.2962  0.6602 -0.3051
  136OSM   H14S14814   0.861   0.252   6.870 -0.3277  0.7794  1.2754
  136OSM   H14T14815   0.885   0.415   6.819  0.1925  0.9960  0.4544
  136OSM   C15S14816   0.732   0.317   6.716 -0.4372 -0.5094 -0.3880
  136OSM   H15S14817   0.632   0.272   6.732 -0.7047 -0.1542 -0.9921
  136OSM   H15T14818   0.794   0.255   6.648  0.8224  0.2035  0.0744
  136OSM   C16S14819   0.702   0.452   6.645 -0.4867 -0.3847 -0.0631
  136OSM   H16S14820   0.796   0.506   6.618 -1.3194  2.5217  2.2850
  136OSM   H16T14821   0.654   0.532   6.705 -2.4406 -1.5699  0.0069
  136OSM   C17S14822   0.608   0.438   6.530  0.0731 -0.5492  0.4625
  136OSM   H17S14823   0.505   0.417   6.566 -0.3124  0.7559  0.1888
  136OSM   H17T14824   0.646   0.350   6.473  0.7930 -0.1868  0.3655
  136OSM   C18S14825   0.599   0.560   6.438 -0.1727 -0.2312 -0.2027
  136OSM   H18S14826   0.705   0.589   6.418 -0.1830 -0.4153 -0.5293
  136OSM   H18T14827   0.559   0.647   6.493 -0.8144 -0.1300 -0.8260
  136OSM   H18U14828   0.544   0.544   6.343  2.1582  1.1353 -1.8849
  136OSM    C1F14829   0.701   1.355   7.933  0.4407  0.0516 -0.1410
  136OSM     OF14830   0.789   1.411   8.002 -0.1467  0.3793 -0.8811
  136OSM    C2F14831   0.647   1.426   7.815 -0.0839 -0.0563  0.4305
  136OSM    H2F14832   0.543   1.455   7.843 -0.9649 -0.2773 -2.3142
  136OSM    H2G14833   0.639   1.354   7.731  1.6575 -1.6764  1.5904
  136OSM    C3F14834   0.725   1.557   7.788  0.2288  0.7318  0.0430
  136OSM    H3F14835   0.829   1.528   7.761  0.4112 -0.6533  2.0659
  136OSM    H3G14836   0.717   1.622   7.878  2.2550 -2.5779  2.8369
  136OSM    C4F14837   0.681   1.642   7.661  0.2016  0.1136  0.4371
  136OSM    H4F14838   0.751   1.726   7.639  2.6748 -1.9606 -0.2197
  136OSM    H4G14839   0.585   1.688   7.691 -0.9323 -0.0927 -2.5983
  136OSM    C5F14840   0.655   1.566   7.528  0.6134 -0.8841 -0.1382
  136OSM    H5F14841   0.610   1.636   7.454 -0.5672 -1.3626  0.1126
  136OSM    H5G14842   0.580   1.484   7.535  0.5224 -0.7447  0.5517
  136OSM    C6F14843   0.791   1.516   7.481 -0.0778 -0.8140  0.0822
  136OSM    H6F14844   0.825   1.445   7.559 -0.7583  0.9289  2.0394
  136OSM    H6G14845   0.866   1.597   7.475  0.1475 -1.0755 -0.9707
  136OSM    C7F14846   0.797   1.454   7.339  0.3337  0.0010 -0.1532
  136OSM    H7F14847   0.755   1.525   7.264  0.4343 -0.9135 -1.0896
  136OSM    H7G14848   0.727   1.368   7.347 -0.4255  0.6225  0.1364
  136OSM    C8F14849   0.929   1.390   7.309  0.0346 -0.8040 -0.6554
  136OSM    H8F14850   0.999   1.467   7.269 -2.4711  1.4199 -1.0242
  136OSM    H8G14851   0.915   1.326   7.220  1.0714 -0.3594 -1.1572
  136OSM    C9F14852   0.984   1.297   7.422 -0.0740 -0.2334 -0.4435
  136OSM    H9F14853   1.052   1.357   7.484  2.4121 -2.8569 -0.4279
  136OSM   C10F14854   0.951   1.171   7.447  0.1060  0.3544 -0.3321
  136OSM   H10F14855   1.010   1.112   7.519 -0.4781  0.8355  0.5586
  136OSM   C11F14856   0.862   1.091   7.355 -0.5705  0.2338 -0.0811
  136OSM   H11F14857   0.795   1.153   7.291 -0.0924 -0.2734 -1.0888
  136OSM   H11G14858   0.808   1.021   7.423  2.3884 -1.5037  0.6500
  136OSM   C12F14859   0.937   1.017   7.239  0.1467  0.4259  0.2625
  136OSM   H12F14860   1.016   0.957   7.289  1.0517  1.9411  0.7223
  136OSM   H12G14861   0.985   1.096   7.177  0.4614  0.9491  1.1487
  136OSM   C13F14862   0.851   0.928   7.148 -0.8811 -0.6928 -0.4590
  136OSM   H13F14863   0.770   0.972   7.086 -0.6143 -1.5305 -1.4254
  136OSM   H13G14864   0.797   0.862   7.219 -1.4859  0.2879  0.0217
  136OSM   C14F14865   0.932   0.835   7.055  0.5803 -0.6608 -0.2461
  136OSM   H14F14866   0.861   0.775   6.994 -0.1352  0.6273 -0.7356
  136OSM   H14G14867   0.981   0.758   7.118 -0.8040 -1.1685  0.2372
  136OSM   C15F14868   1.040   0.903   6.968 -0.2599  0.1680  0.3839
  136OSM   H15F14869   1.076   0.818   6.906  1.8993 -0.4034  2.2960
  136OSM   H15G14870   1.137   0.930   7.014  0.8158  0.1335 -1.7669
  136OSM   C16F14871   0.986   1.015   6.886 -0.3643 -0.1190  0.9890
  136OSM   H16F14872   1.054   1.101   6.904 -1.4027  1.0263 -0.4501
  136OSM   H16G14873   0.885   1.045   6.922 -0.2731  1.2253  0.1856
  136OSM   C17F14874   0.977   1.004   6.730 -0.1507  0.3181 -0.9956
  136OSM   H17F14875   0.889   0.944   6.698 -0.8171  0.4503  0.5111
  136OSM   H17G14876   1.077   0.963   6.703  0.3214 -0.1742  1.2493
  136OSM   C18F14877   0.971   1.146   6.667 -0.3707  0.1947 -0.2254
  136OSM   H18F14878   1.060   1.211   6.677 -1.1787  1.3387 -0.2479
  136OSM   H18G14879   0.889   1.206   6.712  0.7100  1.9153 -0.4816
  136OSM   H18H14880   0.951   1.143   6.557 -1.6315 -1.0406  0.0108
  137OSM      N14881   5.852   4.789   0.151 -0.5972  0.0241  0.4747
  137OSM    C1514882   5.938   4.874   0.243  0.0935  0.0578 -0.3814
  137OSM   H15A14883   6.036   4.900   0.206  1.2329 -3.2718 -0.0819
  137OSM   H15B14884   5.954   4.811   0.329 -3.4963 -2.1199 -1.1209
  137OSM   H15C14885   5.895   4.968   0.271  1.9947  1.3218 -1.4511
  137OSM    C1414886   5.907   4.650   0.156 -0.1041 -0.2792 -0.4634
  137OSM   H14A14887   6.009   4.643   0.121 -1.1321 -0.0095 -3.9350
  137OSM   H14B14888   5.850   4.576   0.101  0.0927 -2.6525  2.2974
  137OSM   H14C14889   5.905   4.610   0.256  0.9208 -1.5787 -0.9325
  137OSM    C1314890   5.721   4.785   0.221 -0.5994  0.0506 -0.0971
  137OSM   H13A14891   5.721   4.730   0.314 -1.6764  1.4986  0.8029
  137OSM   H13B14892   5.651   4.750   0.147 -0.2051 -2.8949  0.8053
  137OSM   H13C14893   5.686   4.882   0.251 -0.9336  0.3053 -1.2579
  137OSM    C1214894   5.838   4.844   0.016 -0.0006  0.4055  0.3705
  137OSM   H12A14895   5.939   4.871  -0.013  0.3295 -2.0720 -1.0792
  137OSM   H12B14896   5.790   4.941   0.013  3.4304  2.4022  2.6267
  137OSM    C1114897   5.792   4.742  -0.090 -0.3611  0.1143 -0.4758
  137OSM   H11A14898   5.860   4.656  -0.107 -0.7007  0.2552 -2.8582
  137OSM   H11B14899   5.781   4.802  -0.183 -3.9415 -0.1805 -0.3937
  137OSM      P14900   5.617   4.539  -0.059  0.5370  0.1134  0.1691
  137OSM    O1314901   5.706   4.451   0.020 -0.0342  0.5055 -0.4467
  137OSM    O1414902   5.467   4.527  -0.032 -0.1864  0.2282 -0.3708
  137OSM    O1114903   5.633   4.497  -0.209 -0.2709  0.7460  0.5724
  137OSM    O1214904   5.663   4.688  -0.061 -0.2670 -0.8010  0.7889
  137OSM    C1S14905   5.606   4.572  -0.321 -0.1914 -0.7789  1.2520
  137OSM    H1S14906   5.654   4.672  -0.310 -0.0663 -0.8047  0.9431
  137OSM    H1T14907   5.497   4.594  -0.329  0.2919  1.2466 -1.2796
  137OSM     NF14908   5.639   4.588  -0.573  0.2650  0.6336 -0.6199
  137OSM    HNF14909   5.581   4.553  -0.647  1.3516 -1.0079 -0.7322
  137OSM    C2S14910   5.658   4.505  -0.451  0.5490 -0.0610 -0.2503
  137OSM    H2S14911   5.768   4.488  -0.445  0.8659  1.6823 -0.7135
  137OSM    C3S14912   5.603   4.362  -0.467  0.3357 -0.0417 -0.2114
  137OSM    H3S14913   5.498   4.361  -0.503  0.2355 -0.2018  0.0776
  137OSM     O314914   5.597   4.274  -0.353 -0.2427 -0.3733 -0.1071
  137OSM    HO314915   5.632   4.326  -0.280  0.1355 -2.2055  1.0795
  137OSM    C4S14916   5.676   4.284  -0.575 -0.2196  0.0962 -0.1251
  137OSM    H4S14917   5.767   4.239  -0.534 -0.0100  1.5037  1.0282
  137OSM    C5S14918   5.621   4.231  -0.688  0.3687  0.2851 -0.5902
  137OSM    H5S14919   5.513   4.243  -0.705  0.4237 -0.7296 -1.8014
  137OSM    C6S14920   5.692   4.121  -0.764 -0.1016 -0.0862  1.0814
  137OSM    H6S14921   5.720   4.035  -0.700 -0.9992 -0.3205  1.1726
  137OSM    H6T14922   5.788   4.151  -0.809 -0.2602  1.1422  1.5162
  137OSM    C7S14923   5.613   4.065  -0.888 -0.0032  0.4475 -0.7745
  137OSM    H7S14924   5.512   4.032  -0.855  0.5957 -1.4387 -0.6949
  137OSM    H7T14925   5.661   3.968  -0.914 -0.3083  0.2957 -0.7699
  137OSM    C8S14926   5.623   4.161  -0.996 -0.1440 -0.9373  0.0152
  137OSM    H8S14927   5.728   4.180  -1.023 -0.4581  1.5684  0.3085
  137OSM    H8T14928   5.592   4.263  -0.963  0.1993 -0.9004  0.2263
  137OSM    C9S14929   5.540   4.105  -1.116  0.4768 -0.2861  0.2807
  137OSM    H9S14930   5.436   4.104  -1.078  0.4046 -0.5169  0.0815
  137OSM    H9T14931   5.563   3.999  -1.141 -0.1939 -0.2823 -0.3955
  137OSM   C10S14932   5.561   4.197  -1.244  0.7973 -0.1114  0.4539
  137OSM   H10S14933   5.657   4.244  -1.276 -0.9286  4.4121  1.1849
  137OSM   H10T14934   5.497   4.284  -1.218  1.8115  0.4771  1.0597
  137OSM   C11S14935   5.486   4.144  -1.369 -0.1797  0.5100 -0.0109
  137OSM   H11S14936   5.376   4.140  -1.355 -0.1335 -1.1064  0.1286
  137OSM   H11T14937   5.528   4.042  -1.386 -2.1710 -0.1537 -1.2550
  137OSM   C12S14938   5.511   4.226  -1.493  0.0107 -0.2858 -0.2776
  137OSM   H12S14939   5.618   4.198  -1.504  0.0913 -0.8958  1.6467
  137OSM   H12T14940   5.491   4.331  -1.465  0.4780 -0.5652  1.1794
  137OSM   C13S14941   5.442   4.182  -1.621 -0.2897 -0.1394 -0.5095
  137OSM   H13S14942   5.334   4.180  -1.595 -0.4920 -0.2475 -1.3322
  137OSM   H13T14943   5.467   4.080  -1.658  1.8289  0.6954 -1.5519
  137OSM   C14S14944   5.459   4.282  -1.739  0.6008  0.4044  0.2407
  137OSM   H14S14945   5.411   4.375  -1.702  2.1204 -0.1824  4.1300
  137OSM   H14T14946   5.409   4.235  -1.827  1.4052 -0.7131  0.3546
  137OSM   C15S14947   5.604   4.321  -1.771  0.3820  0.1023 -0.8340
  137OSM   H15S14948   5.663   4.379  -1.697  0.3533 -0.0239 -0.7112
  137OSM   H15T14949   5.601   4.388  -1.860 -2.3387  0.1496 -0.8051
  137OSM   C16S14950   5.682   4.192  -1.820  0.3233 -0.2219 -0.8523
  137OSM   H16S14951   5.687   4.131  -1.728 -1.8104  1.6990  0.6300
  137OSM   H16T14952   5.788   4.213  -1.845 -0.0285  1.0705 -1.3379
  137OSM   C17S14953   5.630   4.118  -1.944  0.9307  0.0035  0.2683
  137OSM   H17S14954   5.588   4.191  -2.016 -0.2146 -3.1475 -2.5379
  137OSM   H17T14955   5.547   4.046  -1.923  0.7723 -0.7035 -2.3554
  137OSM   C18S14956   5.736   4.045  -2.037 -0.0727 -0.1624  0.0832
  137OSM   H18S14957   5.755   3.947  -1.989 -1.0383 -0.0288  0.7675
  137OSM   H18T14958   5.829   4.106  -2.050  1.2403 -2.0873  0.0445
  137OSM   H18U14959   5.693   4.030  -2.138 -1.4393 -0.7335  0.7321
  137OSM    C1F14960   5.697   4.707  -0.592  0.1516  0.3257 -0.3175
  137OSM     OF14961   5.785   4.752  -0.518 -0.1479 -0.0885  0.2921
  137OSM    C2F14962   5.653   4.778  -0.718  0.2653  0.8548 -0.6012
  137OSM    H2F14963   5.745   4.825  -0.759  1.6877 -0.1332  1.3077
  137OSM    H2G14964   5.580   4.854  -0.682  1.5840  1.5171  0.8220
  137OSM    C3F14965   5.601   4.677  -0.823 -0.5036 -0.4459 -0.0057
  137OSM    H3F14966   5.506   4.627  -0.795 -1.2617  1.6699  1.5034
  137OSM    H3G14967   5.681   4.601  -0.828  2.8809  2.6090  2.6704
  137OSM    C4F14968   5.577   4.747  -0.958 -0.2620 -0.4067 -0.1937
  137OSM    H4F14969   5.670   4.803  -0.983 -0.2056  0.7775  2.3599
  137OSM    H4G14970   5.494   4.820  -0.946  0.9939  0.7864  1.8739
  137OSM    C5F14971   5.539   4.653  -1.081 -0.2656 -0.1917 -0.0939
  137OSM    H5F14972   5.446   4.595  -1.068 -0.0125 -0.2335  1.6743
  137OSM    H5G14973   5.622   4.580  -1.095  0.5987  0.7791 -0.1193
  137OSM    C6F14974   5.523   4.737  -1.207 -0.4874 -0.6410  0.4119
  137OSM    H6F14975   5.621   4.780  -1.237  0.1318  0.0645  3.2293
  137OSM    H6G14976   5.468   4.832  -1.186  1.9245  1.1113 -0.6702
  137OSM    C7F14977   5.477   4.645  -1.318  0.6499  0.4382  0.5677
  137OSM    H7F14978   5.395   4.578  -1.286 -0.1231  0.8673 -0.4706
  137OSM    H7G14979   5.556   4.572  -1.347  0.1132  0.3179 -0.6836
  137OSM    C8F14980   5.434   4.726  -1.447  0.1050  0.2738 -0.2014
  137OSM    H8F14981   5.341   4.782  -1.421  1.2615  1.5597  1.3583
  137OSM    H8G14982   5.408   4.654  -1.528  1.1309  0.8818 -1.0936
  137OSM    C9F14983   5.528   4.828  -1.493 -0.0316  0.8539  0.8933
  137OSM    H9F14984   5.511   4.927  -1.449 -0.5264  1.3152 -0.3060
  137OSM   C10F14985   5.623   4.814  -1.582  0.0714 -0.2805  0.7023
  137OSM   H10F14986   5.671   4.909  -1.610 -1.5380 -0.4027 -3.0503
  137OSM   C11F14987   5.655   4.685  -1.659 -0.0005 -0.0018  0.7901
  137OSM   H11F14988   5.636   4.599  -1.591 -1.6830  1.1049  1.7985
  137OSM   H11G14989   5.762   4.691  -1.686 -0.0266 -1.7014  0.1993
  137OSM   C12F14990   5.573   4.685  -1.793 -0.5306  0.6053  0.2043
  137OSM   H12F14991   5.465   4.690  -1.771 -0.1356  0.8679  2.2695
  137OSM   H12G14992   5.585   4.594  -1.856  1.1416  0.2664  0.9509
  137OSM   C13F14993   5.622   4.809  -1.878  0.4502 -0.7512 -0.7397
  137OSM   H13F14994   5.655   4.896  -1.817 -0.8432 -0.6053 -0.2095
  137OSM   H13G14995   5.530   4.845  -1.929  0.3774 -0.1871 -0.2361
  137OSM   C14F14996   5.730   4.776  -1.977 -0.1589  0.1011  0.4771
  137OSM   H14F14997   5.694   4.712  -2.060 -1.2731  0.4518  0.6686
  137OSM   H14G14998   5.815   4.732  -1.921 -1.3085 -0.4911  1.8175
  137OSM   C15F14999   5.787   4.907  -2.042  0.0531  0.1956 -0.5382
  137OSM   H15F15000   5.832   4.974  -1.966  2.9256  1.8871 -3.4744
  137OSM   H15G15001   5.699   4.954  -2.091 -0.0227 -0.8167 -1.4149
  137OSM   C16F15002   5.897   4.885  -2.147 -0.6714  0.3462 -0.0005
  137OSM   H16F15003   5.981   4.830  -2.100 -2.0302 -0.7367  1.2185
  137OSM   H16G15004   5.931   4.981  -2.192  2.0503 -1.5896 -2.4970
  137OSM   C17F15005   5.846   4.800  -2.258 -0.5813  0.0989 -0.1156
  137OSM   H17F15006   5.756   4.846  -2.304  0.2357  2.4031  0.4825
  137OSM   H17G15007   5.817   4.700  -2.219  3.8282 -0.9941  0.9328
  137OSM   C18F15008   5.951   4.797  -2.365 -0.6043 -0.2243 -0.3079
  137OSM   H18F15009   5.993   4.900  -2.375  0.4226 -0.4569  1.3495
  137OSM   H18G15010   5.928   4.755  -2.465 -1.0898  5.4452 -2.9644
  137OSM   H18H15011   6.026   4.736  -2.311 -0.8186 -1.4958 -1.4209
  138OSM      N15012   6.341   0.456   8.465  0.1217 -0.0783  0.0905
  138OSM    C1515013   6.196   0.413   8.489 -0.3131 -0.4850 -0.1844
  138OSM   H15A15014   6.141   0.412   8.396 -0.4620 -2.7840 -0.1434
  138OSM   H15B15015   6.143   0.471   8.563 -2.0138  0.0795 -1.7857
  138OSM   H15C15016   6.196   0.315   8.535 -1.4440 -0.6541 -0.5277
  138OSM    C1415017   6.346   0.584   8.402 -0.0985  0.6743 -0.1101
  138OSM   H14A15018   6.448   0.617   8.386 -0.1759  1.7208  1.4177
  138OSM   H14B15019   6.288   0.648   8.466 -0.4249  2.7420 -2.3480
  138OSM   H14C15020   6.299   0.571   8.306  1.4268 -3.4420 -0.5237
  138OSM    C1315021   6.414   0.474   8.600  0.1187  0.2162  0.0828
  138OSM   H13A15022   6.356   0.545   8.657  0.3647 -0.3183  1.0166
  138OSM   H13B15023   6.513   0.516   8.587  0.0127  1.7028  3.0890
  138OSM   H13C15024   6.412   0.382   8.655 -2.3430 -1.6376 -2.8104
  138OSM    C1215025   6.413   0.345   8.388 -0.0405 -0.6193  0.2510
  138OSM   H12A15026   6.407   0.254   8.446 -1.9432 -0.0275  1.0616
  138OSM   H12B15027   6.519   0.362   8.378  0.1357 -2.5859 -2.2522
  138OSM    C1115028   6.365   0.313   8.242 -0.2315  0.2236  0.0958
  138OSM   H11A15029   6.261   0.274   8.254 -1.3747  2.8359 -0.6476
  138OSM   H11B15030   6.433   0.235   8.200  0.2970  1.3472 -1.2052
  138OSM      P15031   6.523   0.464   8.096 -0.5790 -0.1831  0.2159
  138OSM    O1315032   6.534   0.608   8.061  0.7525  0.0715  0.4023
  138OSM    O1415033   6.638   0.404   8.174 -0.0609 -0.8027  0.5060
  138OSM    O1115034   6.517   0.380   7.961  0.5153  0.0134 -0.9658
  138OSM    O1215035   6.381   0.427   8.160 -0.0623 -0.3558  0.2092
  138OSM    C1S15036   6.394   0.356   7.881 -0.3796  0.2161 -0.3751
  138OSM    H1S15037   6.314   0.428   7.908 -2.1973 -1.2768 -1.5446
  138OSM    H1T15038   6.342   0.261   7.907 -3.5401  1.6038 -1.1248
  138OSM     NF15039   6.290   0.367   7.667  0.5722 -0.0902  0.6989
  138OSM    HNF15040   6.273   0.293   7.602 -0.2366 -0.1453  0.9689
  138OSM    C2S15041   6.419   0.368   7.732 -1.0174 -0.0882  0.5389
  138OSM    H2S15042   6.469   0.466   7.717 -1.6949  0.2910  0.6839
  138OSM    C3S15043   6.520   0.253   7.692  0.3241  0.5977 -1.0867
  138OSM    H3S15044   6.460   0.161   7.708 -0.2102  1.1554  0.2503
  138OSM     O315045   6.632   0.251   7.771  0.1077 -0.7968  0.1455
  138OSM    HO315046   6.617   0.316   7.840  1.3193 -0.2475 -0.0721
  138OSM    C4S15047   6.537   0.270   7.543  0.4752  0.2604  0.2098
  138OSM    H4S15048   6.457   0.230   7.479  0.6833 -0.0107  0.1135
  138OSM    C5S15049   6.645   0.316   7.470  0.5902  0.2756 -0.1663
  138OSM    H5S15050   6.734   0.348   7.526  0.5578  0.7536 -0.3831
  138OSM    C6S15051   6.644   0.316   7.320 -0.1526 -0.3437  0.0261
  138OSM    H6S15052   6.741   0.280   7.278 -0.1238  1.9080 -2.0515
  138OSM    H6T15053   6.639   0.422   7.288  1.4897 -0.4011 -0.4955
  138OSM    C7S15054   6.532   0.241   7.245  0.0568  0.4801  0.6355
  138OSM    H7S15055   6.441   0.302   7.265 -2.0197 -2.5565  1.1214
  138OSM    H7T15056   6.520   0.138   7.284 -1.2915 -0.1224 -1.2262
  138OSM    C8S15057   6.563   0.243   7.090  0.2209 -0.5345  0.2759
  138OSM    H8S15058   6.670   0.212   7.089  0.0475 -1.1722  0.5668
  138OSM    H8T15059   6.559   0.350   7.062  0.7766 -0.6328 -0.1997
  138OSM    C9S15060   6.471   0.161   7.010 -0.7218  0.2392  0.6705
  138OSM    H9S15061   6.367   0.197   7.022 -1.2208 -0.9396  0.1304
  138OSM    H9T15062   6.480   0.053   7.037 -0.5851  0.3347  1.0047
  138OSM   C10S15063   6.486   0.166   6.856  0.3031 -0.6881 -0.0606
  138OSM   H10S15064   6.594   0.144   6.841  0.5724  1.1879 -1.1380
  138OSM   H10T15065   6.481   0.274   6.831 -0.3047 -0.0185  2.5840
  138OSM   C11S15066   6.404   0.075   6.772  0.2945  0.5189  0.9734
  138OSM   H11S15067   6.294   0.084   6.783 -0.5460 -2.0598 -3.1534
  138OSM   H11T15068   6.427  -0.026   6.813  0.6257  0.0111 -0.4274
  138OSM   C12S15069   6.437   0.088   6.627 -0.2338  0.5934  0.6829
  138OSM   H12S15070   6.413  -0.010   6.579 -0.7813  1.6527 -1.3455
  138OSM   H12T15071   6.541   0.125   6.617  0.0813 -0.1472  1.1235
  138OSM   C13S15072   6.339   0.187   6.554 -0.1818 -1.2612  0.4933
  138OSM   H13S15073   6.354   0.293   6.585 -1.3839 -0.9417 -0.0015
  138OSM   H13T15074   6.236   0.164   6.586 -1.4374  1.6660 -1.0716
  138OSM   C14S15075   6.345   0.158   6.401 -0.5442 -1.1809  0.6237
  138OSM   H14S15076   6.258   0.213   6.358  0.1264 -0.3580  0.3000
  138OSM   H14T15077   6.315   0.051   6.394  0.2648 -1.3695 -0.1770
  138OSM   C15S15078   6.476   0.190   6.342 -1.0951  0.1791  0.6661
  138OSM   H15S15079   6.558   0.177   6.415 -1.2798  0.5876  0.9510
  138OSM   H15T15080   6.483   0.300   6.328  2.9753  0.1413  1.3420
  138OSM   C16S15081   6.483   0.127   6.203 -0.3557 -0.1324 -0.9735
  138OSM   H16S15082   6.395   0.157   6.142 -1.2410 -3.0514 -1.3176
  138OSM   H16T15083   6.467   0.018   6.219 -0.8730 -0.1687 -1.7086
  138OSM   C17S15084   6.614   0.152   6.123 -0.5897 -0.4601  0.4247
  138OSM   H17S15085   6.611   0.259   6.093 -0.8176  0.1569  2.4968
  138OSM   H17T15086   6.608   0.085   6.035  1.6717 -1.8343  1.2396
  138OSM   C18S15087   6.747   0.119   6.192  0.0659  0.2068 -0.1085
  138OSM   H18S15088   6.766   0.193   6.273 -1.3520 -0.1606  0.5944
  138OSM   H18T15089   6.828   0.123   6.116  0.0235 -0.3159 -0.1856
  138OSM   H18U15090   6.744   0.014   6.228 -0.2863  0.8090  1.7358
  138OSM    C1F15091   6.210   0.476   7.664  0.0114 -0.0232  0.4555
  138OSM     OF15092   6.246   0.576   7.731  0.3157 -0.0391  0.0177
  138OSM    C2F15093   6.088   0.482   7.575  0.3029 -0.7047 -0.6829
  138OSM    H2F15094   6.039   0.580   7.596  1.4649 -0.1647 -0.4076
  138OSM    H2G15095   6.016   0.401   7.599 -1.6114  1.1959  0.3823
  138OSM    C3F15096   6.124   0.480   7.423 -0.2332  0.0526  0.2169
  138OSM    H3F15097   6.039   0.536   7.378 -0.9369 -0.8420  0.4129
  138OSM    H3G15098   6.112   0.381   7.374  1.4211  0.7727 -1.8257
  138OSM    C4F15099   6.263   0.543   7.385  0.1819  0.0603 -0.3487
  138OSM    H4F15100   6.345   0.476   7.418 -0.5760 -0.9153 -0.3984
  138OSM    H4G15101   6.277   0.644   7.430 -1.2672  1.0861 -2.0459
  138OSM    C5F15102   6.273   0.567   7.233  0.0348  0.6603  0.0113
  138OSM    H5F15103   6.188   0.633   7.205 -1.6268 -1.9010 -1.2547
  138OSM    H5G15104   6.251   0.465   7.197  1.5909  0.0992  0.5571
  138OSM    C6F15105   6.400   0.625   7.172 -0.9281  0.0596 -0.4174
  138OSM    H6F15106   6.477   0.551   7.142  0.8465  2.3982 -2.1035
  138OSM    H6G15107   6.449   0.688   7.250  0.9424 -1.4226 -0.3123
  138OSM    C7F15108   6.372   0.693   7.040  0.4218 -0.7502 -1.0808
  138OSM    H7F15109   6.466   0.728   6.992  2.3855 -1.8912  1.6772
  138OSM    H7G15110   6.316   0.787   7.058 -0.6428 -1.9381  2.7205
  138OSM    C8F15111   6.287   0.613   6.937  0.0941  0.2511 -0.7274
  138OSM    H8F15112   6.188   0.585   6.978  1.0507 -0.3317  1.3011
  138OSM    H8G15113   6.346   0.519   6.935  1.4920  1.0594  0.7459
  138OSM    C9F15114   6.265   0.667   6.797  0.2845  0.6641 -0.7785
  138OSM    H9F15115   6.165   0.707   6.778  0.1331  0.9947  0.6217
  138OSM   C10F15116   6.349   0.659   6.694 -0.3504  0.1681  1.6149
  138OSM   H10F15117   6.322   0.717   6.604 -0.0706  0.3104  1.6202
  138OSM   C11F15118   6.492   0.609   6.700 -0.3165 -0.0935 -0.4219
  138OSM   H11F15119   6.502   0.524   6.629  3.3258  0.0710 -0.2556
  138OSM   H11G15120   6.522   0.571   6.800  4.0749 -0.4031 -1.6579
  138OSM   C12F15121   6.596   0.722   6.674 -0.7936  0.5602 -0.2550
  138OSM   H12F15122   6.697   0.690   6.706 -1.4677 -1.9996 -0.5021
  138OSM   H12G15123   6.564   0.809   6.735 -1.7844 -0.2539  0.4150
  138OSM   C13F15124   6.606   0.761   6.527  0.3386  0.2213  0.9088
  138OSM   H13F15125   6.504   0.741   6.489  1.2976 -0.1098 -1.6685
  138OSM   H13G15126   6.667   0.681   6.481 -0.0948 -2.8104  5.0420
  138OSM   C14F15127   6.663   0.903   6.499  0.1182 -0.2104  0.8896
  138OSM   H14F15128   6.765   0.907   6.545  0.1984 -1.5964  0.8717
  138OSM   H14G15129   6.598   0.985   6.537 -0.1150  0.9167 -1.7135
  138OSM   C15F15130   6.682   0.927   6.345 -0.5790 -0.2427 -0.1389
  138OSM   H15F15131   6.747   0.849   6.300  0.3197  0.1121  0.5232
  138OSM   H15G15132   6.732   1.025   6.333  1.6972 -1.0236  2.1099
  138OSM   C16F15133   6.554   0.943   6.260 -0.7807  0.3166  0.4035
  138OSM   H16F15134   6.511   1.039   6.296 -3.4152 -0.9895  1.0121
  138OSM   H16G15135   6.474   0.869   6.283  0.5688 -1.2133  0.3554
  138OSM   C17F15136   6.582   0.971   6.112 -0.1793 -0.1538  0.2724
  138OSM   H17F15137   6.489   1.006   6.064  1.0032 -0.3064 -2.3105
  138OSM   H17G15138   6.621   0.879   6.062 -1.0433  0.2629 -1.2240
  138OSM   C18F15139   6.676   1.091   6.099 -0.2398  0.0633 -0.5623
  138OSM   H18F15140   6.777   1.079   6.144 -0.8355 -1.0121  0.5430
  138OSM   H18G15141   6.627   1.181   6.142  0.8997  1.5956 -2.2848
  138OSM   H18H15142   6.689   1.109   5.990  0.1617  0.3852 -0.4672
  139OSM      N15143   3.056   1.495   0.196 -0.1200 -0.0725 -0.4887
  139OSM    C1515144   3.053   1.367   0.277  0.2722  0.7268  0.5011
  139OSM   H15A15145   2.948   1.342   0.289  0.3496 -0.4550 -0.9002
  139OSM   H15B15146   3.099   1.387   0.372 -3.4569  3.1787  2.0200
  139OSM   H15C15147   3.103   1.299   0.210 -0.5147 -0.4070  1.0335
  139OSM    C1415148   3.001   1.593   0.284 -0.3056 -0.8233  0.2467
  139OSM   H14A15149   3.010   1.695   0.250  1.5015 -0.8271  0.5695
  139OSM   H14B15150   3.053   1.600   0.379 -0.3925  1.7913  0.1778
  139OSM   H14C15151   2.895   1.583   0.301 -0.4506 -0.3744 -0.3911
  139OSM    C1315152   3.202   1.520   0.176  0.0182 -0.6237 -0.1574
  139OSM   H13A15153   3.198   1.612   0.118 -1.5697  0.0308  0.9304
  139OSM   H13B15154   3.246   1.437   0.123 -1.0973 -0.2923 -1.7009
  139OSM   H13C15155   3.252   1.551   0.266 -0.3517 -1.3443  0.2981
  139OSM    C1215156   2.977   1.485   0.069 -0.0572 -0.2570  0.0875
  139OSM   H12A15157   2.872   1.492   0.092  0.0740  0.4255  0.5044
  139OSM   H12B15158   2.998   1.389   0.025 -0.4325 -0.3500  0.1087
  139OSM    C1115159   3.007   1.592  -0.037  1.0351 -0.2107 -0.6024
  139OSM   H11A15160   2.964   1.554  -0.132  1.1566  0.4659 -0.9368
  139OSM   H11B15161   3.116   1.587  -0.061  0.6146  1.1343 -3.0878
  139OSM      P15162   2.816   1.761  -0.032 -0.4985  0.0243 -0.3901
  139OSM    O1315163   2.722   1.685   0.059  0.0891 -0.0953  0.5770
  139OSM    O1415164   2.795   1.907  -0.030 -0.1556  0.1466  0.1984
  139OSM    O1115165   2.807   1.703  -0.184  0.4733  0.0379 -0.0721
  139OSM    O1215166   2.969   1.724  -0.007  0.0196 -0.8981 -0.0851
  139OSM    C1S15167   2.879   1.768  -0.289  0.3638 -0.1203  1.3156
  139OSM    H1S15168   2.988   1.753  -0.279  0.4369 -1.4840 -0.8057
  139OSM    H1T15169   2.848   1.874  -0.300  0.0040 -0.4947 -3.1906
  139OSM     NF15170   2.912   1.752  -0.533  0.0359  0.0601  0.6043
  139OSM    HNF15171   2.887   1.825  -0.596  2.6667 -0.4242 -1.1320
  139OSM    C2S15172   2.837   1.702  -0.426  0.1317  0.4493 -0.2357
  139OSM    H2S15173   2.851   1.594  -0.407  2.8578  0.6115 -0.9371
  139OSM    C3S15174   2.674   1.729  -0.444 -0.1251 -0.0826 -0.0716
  139OSM    H3S15175   2.661   1.840  -0.439 -2.1877 -0.2875  0.0050
  139OSM     O315176   2.595   1.677  -0.337  0.5987 -0.2826  0.0262
  139OSM    HO315177   2.644   1.647  -0.260 -1.4277 -2.8426  0.4631
  139OSM    C4S15178   2.627   1.686  -0.584  0.5359  0.1946 -0.0201
  139OSM    H4S15179   2.596   1.764  -0.656 -2.6867 -0.8244  0.0769
  139OSM    C5S15180   2.592   1.561  -0.613  0.5990  0.1623 -0.0467
  139OSM    H5S15181   2.603   1.488  -0.531 -0.6239  0.6930  0.6078
  139OSM    C6S15182   2.527   1.509  -0.738  0.6350 -0.4121  0.0024
  139OSM    H6S15183   2.418   1.525  -0.721  0.3555 -0.2879 -1.7691
  139OSM    H6T15184   2.546   1.402  -0.763  1.3383 -0.2399 -0.2267
  139OSM    C7S15185   2.566   1.589  -0.868  0.2354 -0.1103 -0.2699
  139OSM    H7S15186   2.676   1.596  -0.871  0.2838 -0.3817  0.4950
  139OSM    H7T15187   2.527   1.693  -0.865  1.1370  0.2206  1.2703
  139OSM    C8S15188   2.511   1.515  -0.995 -0.4136  0.1487 -0.7407
  139OSM    H8S15189   2.400   1.526  -1.002 -0.2235  1.4918 -2.2793
  139OSM    H8T15190   2.518   1.405  -0.984 -1.1980  0.2249  0.8399
  139OSM    C9S15191   2.579   1.548  -1.123 -0.1791  0.0132  0.2571
  139OSM    H9S15192   2.577   1.465  -1.197 -0.9845 -0.6950  1.0412
  139OSM    H9T15193   2.687   1.550  -1.098 -0.1303 -1.6719  0.2867
  139OSM   C10S15194   2.523   1.671  -1.190 -0.5060  0.0494  0.8112
  139OSM   H10S15195   2.550   1.758  -1.126  0.9603 -1.1050  1.8478
  139OSM   H10T15196   2.413   1.664  -1.196 -0.3458 -1.9816 -2.2331
  139OSM   C11S15197   2.578   1.704  -1.336  0.0231 -1.0317 -0.0479
  139OSM   H11S15198   2.687   1.690  -1.353  0.0829  0.6427 -1.2749
  139OSM   H11T15199   2.549   1.806  -1.368  0.2097 -0.7922  0.5426
  139OSM   C12S15200   2.513   1.606  -1.436 -0.2318  0.2282 -0.4193
  139OSM   H12S15201   2.403   1.621  -1.436 -0.0516  2.3496  2.2016
  139OSM   H12T15202   2.529   1.500  -1.410 -0.3435  0.5959  1.2508
  139OSM   C13S15203   2.552   1.617  -1.583  0.1278 -0.1191  0.6638
  139OSM   H13S15204   2.655   1.576  -1.590 -0.5267 -2.1762  2.1623
  139OSM   H13T15205   2.574   1.722  -1.613  2.3163 -1.1137 -1.5655
  139OSM   C14S15206   2.451   1.549  -1.686  0.2498 -0.0861  1.0677
  139OSM   H14S15207   2.353   1.602  -1.688  0.8214  1.0066  1.2585
  139OSM   H14T15208   2.437   1.445  -1.650  2.8838 -0.6324  0.7180
  139OSM   C15S15209   2.500   1.540  -1.826 -0.3604 -0.2727 -0.4478
  139OSM   H15S15210   2.602   1.496  -1.823  0.3683  1.3724  0.7520
  139OSM   H15T15211   2.517   1.637  -1.878 -2.5025  0.9293  0.9311
  139OSM   C16S15212   2.414   1.451  -1.919  0.3528 -0.4988  0.0432
  139OSM   H16S15213   2.467   1.442  -2.016  1.5016 -2.5135  0.7871
  139OSM   H16T15214   2.318   1.503  -1.938  0.9328  0.2187 -1.0203
  139OSM   C17S15215   2.406   1.300  -1.884  0.5906 -0.9139 -0.9232
  139OSM   H17S15216   2.360   1.300  -1.783  3.4901 -0.5993  0.5094
  139OSM   H17T15217   2.503   1.246  -1.874 -0.6028 -2.8076  1.2856
  139OSM   C18S15218   2.317   1.225  -1.982 -0.4372  0.3205  0.3350
  139OSM   H18S15219   2.324   1.116  -1.961  1.6166  0.0536 -1.3043
  139OSM   H18T15220   2.366   1.229  -2.082  0.4961 -1.4990  0.6792
  139OSM   H18U15221   2.209   1.249  -1.993 -1.2187 -2.2380  1.6122
  139OSM    C1F15222   3.036   1.714  -0.550  0.3039 -0.1202 -0.5152
  139OSM     OF15223   3.079   1.607  -0.502  0.6627  0.0696 -0.1184
  139OSM    C2F15224   3.129   1.806  -0.632 -0.4425 -0.3459 -0.4948
  139OSM    H2F15225   3.203   1.846  -0.559 -0.5933  0.8664 -0.9933
  139OSM    H2G15226   3.067   1.895  -0.656 -1.2825 -1.1299 -1.2942
  139OSM    C3F15227   3.184   1.740  -0.765 -0.3676  0.0347 -0.5633
  139OSM    H3F15228   3.227   1.639  -0.749 -0.8090 -0.3840 -1.8774
  139OSM    H3G15229   3.265   1.811  -0.791 -1.1591  0.9318 -0.6519
  139OSM    C4F15230   3.076   1.724  -0.872 -0.1466  0.0297  0.4618
  139OSM    H4F15231   3.042   1.828  -0.889 -0.1666 -0.0598 -0.0635
  139OSM    H4G15232   2.998   1.658  -0.830 -0.3510  0.3184  0.5362
  139OSM    C5F15233   3.129   1.650  -0.995 -0.2654  0.1280 -0.0177
  139OSM    H5F15234   3.160   1.549  -0.961  0.3760  0.5845  0.7841
  139OSM    H5G15235   3.206   1.711  -1.045  0.0251  0.9290  1.3528
  139OSM    C6F15236   3.020   1.622  -1.099 -0.3478 -0.6218  0.2111
  139OSM    H6F15237   2.975   1.719  -1.129  1.2903  0.5551  1.4536
  139OSM    H6G15238   2.936   1.579  -1.040 -1.7049  0.4668 -0.8371
  139OSM    C7F15239   3.046   1.532  -1.222  0.0569  0.1606 -1.0385
  139OSM    H7F15240   3.049   1.429  -1.180  1.4702 -0.4707 -2.5712
  139OSM    H7G15241   3.146   1.557  -1.264  0.5456  0.8039  0.4139
  139OSM    C8F15242   2.932   1.545  -1.319  0.9100 -0.7584 -0.4662
  139OSM    H8F15243   2.937   1.646  -1.364  0.7164 -0.4738  0.1350
  139OSM    H8G15244   2.834   1.554  -1.267  0.7151 -2.8228 -0.4154
  139OSM    C9F15245   2.918   1.426  -1.416  0.0054 -0.2119 -0.5477
  139OSM    H9F15246   2.856   1.345  -1.374 -2.5256  0.3757 -2.8700
  139OSM   C10F15247   2.960   1.424  -1.539 -0.2611 -0.3918  0.0115
  139OSM   H10F15248   2.946   1.334  -1.601  3.9341 -0.7656 -0.6917
  139OSM   C11F15249   3.040   1.531  -1.611  0.3790  0.2784  0.1115
  139OSM   H11F15250   3.113   1.479  -1.677 -1.2556 -1.2802 -0.5531
  139OSM   H11G15251   3.092   1.593  -1.535  0.7863 -0.2787  0.2961
  139OSM   C12F15252   2.969   1.619  -1.710 -0.6055 -0.2701 -0.0559
  139OSM   H12F15253   3.050   1.672  -1.763 -0.6394  0.8232  0.9579
  139OSM   H12G15254   2.904   1.691  -1.656  0.5918  2.0208 -1.5010
  139OSM   C13F15255   2.883   1.550  -1.818  0.3955 -0.9960 -0.0356
  139OSM   H13F15256   2.848   1.631  -1.886  1.1944 -2.1737 -1.9138
  139OSM   H13G15257   2.786   1.515  -1.777 -0.7812  0.9507 -0.9925
  139OSM   C14F15258   2.946   1.439  -1.899  0.7877 -0.1729 -0.5909
  139OSM   H14F15259   2.980   1.358  -1.831  0.4841  1.2323  1.3448
  139OSM   H14G15260   3.040   1.476  -1.945  1.2412 -1.3189 -0.6071
  139OSM   C15F15261   2.846   1.381  -2.004  0.5120  0.8308 -0.1470
  139OSM   H15F15262   2.822   1.455  -2.084 -1.6034  1.4010  0.9113
  139OSM   H15G15263   2.755   1.342  -1.953  0.9235  0.3713  0.2290
  139OSM   C16F15264   2.900   1.244  -2.061 -0.2204 -0.3765 -0.1160
  139OSM   H16F15265   2.922   1.165  -1.986 -1.2743 -1.7824 -1.2461
  139OSM   H16G15266   2.999   1.273  -2.102 -1.1767 -0.0057 -2.2998
  139OSM   C17F15267   2.806   1.179  -2.158  0.7186  0.4443  0.3474
  139OSM   H17F15268   2.865   1.125  -2.236 -0.2235 -1.2229  0.7317
  139OSM   H17G15269   2.738   1.251  -2.207 -1.9455 -1.5058  0.9596
  139OSM   C18F15270   2.724   1.067  -2.098 -0.7112  0.3319  0.8171
  139OSM   H18F15271   2.790   0.995  -2.046 -1.6784  0.6367  2.5411
  139OSM   H18G15272   2.662   1.019  -2.177 -0.1228  0.9919 -0.0730
  139OSM   H18H15273   2.646   1.107  -2.030 -0.1447  1.4664  0.8298
  140OSM      N15274   2.924   5.119   8.799 -0.1359 -0.0194 -0.6984
  140OSM    C1515275   2.984   4.979   8.796  0.1031  0.1299 -0.4257
  140OSM   H15A15276   3.062   4.976   8.722 -0.2771 -1.5282 -0.8124
  140OSM   H15B15277   2.917   4.900   8.764 -0.1946  0.2921 -0.2027
  140OSM   H15C15278   3.025   4.959   8.893 -1.3581  2.9298  0.8796
  140OSM    C1415279   2.785   5.123   8.843 -0.5140 -0.1635  0.2007
  140OSM   H14A15280   2.764   5.218   8.889 -0.4198 -0.3104  0.5515
  140OSM   H14B15281   2.770   5.047   8.918 -3.4486  1.5061  1.4835
  140OSM   H14C15282   2.719   5.108   8.759 -0.8100 -0.7246  0.5287
  140OSM    C1315283   2.995   5.205   8.901  0.0891  0.7356 -0.4933
  140OSM   H13A15284   3.102   5.192   8.896  0.0598 -0.7546  1.6635
  140OSM   H13B15285   2.976   5.178   9.004  0.5033  1.8092 -0.1150
  140OSM   H13C15286   2.966   5.309   8.891  0.1758  0.8295  0.1832
  140OSM    C1215287   2.955   5.187   8.661 -0.1701 -0.8263 -0.4364
  140OSM   H12A15288   2.902   5.127   8.589 -0.2057 -1.2340 -0.0824
  140OSM   H12B15289   3.062   5.168   8.654  0.7267  2.7206  1.2826
  140OSM    C1115290   2.927   5.340   8.637  0.1531  0.3504 -0.0269
  140OSM   H11A15291   2.944   5.366   8.531  1.0493  0.9568  0.2630
  140OSM   H11B15292   3.008   5.392   8.692  0.4863 -1.1919  1.0293
  140OSM      P15293   2.660   5.362   8.615 -0.4728 -0.4748 -0.1692
  140OSM    O1315294   2.584   5.260   8.688  0.4296  0.0286 -0.3407
  140OSM    O1415295   2.606   5.501   8.604 -0.1240  0.2232  0.1201
  140OSM    O1115296   2.695   5.308   8.476  0.0700 -0.6119 -0.1917
  140OSM    O1215297   2.797   5.376   8.686  0.0646 -0.4802 -0.0066
  140OSM    C1S15298   2.602   5.264   8.384  0.1607 -0.0647 -0.4230
  140OSM    H1S15299   2.525   5.343   8.369  0.0869 -0.1926 -0.7289
  140OSM    H1T15300   2.551   5.169   8.410 -1.9418  0.9041 -0.8596
  140OSM     NF15301   2.591   5.230   8.136  0.0836 -0.1525  0.7068
  140OSM    HNF15302   2.565   5.139   8.105  1.3107 -0.1373 -0.4555
  140OSM    C2S15303   2.680   5.244   8.246 -0.2119 -0.1218  0.7286
  140OSM    H2S15304   2.741   5.336   8.233 -1.2231  0.5302  0.4882
  140OSM    C3S15305   2.779   5.124   8.264 -0.4377  0.2505  0.1494
  140OSM    H3S15306   2.718   5.044   8.311  2.2650 -1.7219  0.5501
  140OSM     O315307   2.881   5.162   8.354 -0.3488 -0.1414  0.4813
  140OSM    HO315308   2.856   5.252   8.377 -1.4792 -0.4347  0.4501
  140OSM    C4S15309   2.842   5.076   8.134  0.4237 -0.4191 -0.3244
  140OSM    H4S15310   2.776   5.016   8.070 -0.6520 -0.0740  0.4366
  140OSM    C5S15311   2.956   5.110   8.079 -0.1674 -0.1951  0.1561
  140OSM    H5S15312   3.029   5.170   8.135 -0.3292  0.0299  0.1292
  140OSM    C6S15313   2.994   5.068   7.939  0.2735 -0.0833  1.3984
  140OSM    H6S15314   3.099   5.097   7.915 -0.6839  0.1176 -3.6025
  140OSM    H6T15315   2.925   5.105   7.861  1.3217 -1.7648 -0.4262
  140OSM    C7S15316   2.994   4.918   7.913  0.3409  0.3985 -0.1700
  140OSM    H7S15317   2.898   4.868   7.939  1.7867 -2.2153  0.4582
  140OSM    H7T15318   3.062   4.861   7.979  0.2822 -0.3659 -0.7488
  140OSM    C8S15319   3.034   4.888   7.765  0.5087  0.0037  0.1819
  140OSM    H8S15320   3.031   4.777   7.761  2.4809 -0.1437  1.3187
  140OSM    H8T15321   3.137   4.923   7.741 -0.1835  0.7388 -1.9411
  140OSM    C9S15322   2.935   4.933   7.656  0.1660  0.0205 -0.3456
  140OSM    H9S15323   2.946   5.042   7.639 -0.1734 -0.0534 -1.0634
  140OSM    H9T15324   2.828   4.916   7.680 -0.1433 -1.3699 -2.5098
  140OSM   C10S15325   2.958   4.873   7.516  0.0434  0.4921  0.1039
  140OSM   H10S15326   2.938   4.764   7.522 -0.9276  0.5670 -1.3772
  140OSM   H10T15327   3.065   4.884   7.486  0.6336 -0.6101  1.6582
  140OSM   C11S15328   2.867   4.933   7.409  0.1591  0.3609  0.2604
  140OSM   H11S15329   2.879   5.044   7.411  1.5632  0.2688 -1.2507
  140OSM   H11T15330   2.756   4.923   7.419 -0.0146  0.6209 -1.1414
  140OSM   C12S15331   2.904   4.892   7.266  0.1234  0.3903 -0.5552
  140OSM   H12S15332   3.014   4.878   7.259 -0.1544 -1.7762 -1.3935
  140OSM   H12T15333   2.859   4.966   7.196 -1.8058 -0.7596 -0.6119
  140OSM   C13S15334   2.859   4.753   7.223 -0.3386  0.2272 -0.3525
  140OSM   H13S15335   2.758   4.721   7.255 -0.1970  0.0227 -0.1072
  140OSM   H13T15336   2.923   4.691   7.290  1.9949  1.1728 -1.5728
  140OSM   C14S15337   2.900   4.726   7.074  0.0181 -0.0181  0.4257
  140OSM   H14S15338   2.907   4.615   7.070  2.4804  0.1177 -2.3743
  140OSM   H14T15339   2.990   4.782   7.040 -0.7868 -0.2696 -2.3883
  140OSM   C15S15340   2.801   4.753   6.965 -0.5922  0.3099  0.6785
  140OSM   H15S15341   2.759   4.855   6.965  0.9181  1.0684 -2.3525
  140OSM   H15T15342   2.707   4.697   6.986  0.5604 -1.1122  2.3553
  140OSM   C16S15343   2.844   4.710   6.820  0.7836  0.3762 -0.1118
  140OSM   H16S15344   2.844   4.600   6.811 -0.7250  0.3778 -0.3917
  140OSM   H16T15345   2.944   4.756   6.804  0.0512  1.7472 -0.9539
  140OSM   C17S15346   2.748   4.767   6.704 -0.3178 -0.0803  0.0516
  140OSM   H17S15347   2.645   4.737   6.733  0.4562 -1.8413  1.1363
  140OSM   H17T15348   2.779   4.712   6.613  0.2258 -1.4015  0.9911
  140OSM   C18S15349   2.749   4.913   6.658 -0.3985 -1.2724  0.3184
  140OSM   H18S15350   2.853   4.950   6.641 -1.4793  1.6021 -0.5630
  140OSM   H18T15351   2.704   4.972   6.740 -1.3088 -0.4054 -0.7673
  140OSM   H18U15352   2.690   4.928   6.565 -0.6561  0.0597  0.6711
  140OSM    C1F15353   2.538   5.344   8.083  0.0617 -0.1858 -0.0037
  140OSM     OF15354   2.534   5.448   8.155  0.7544  0.0570  0.3720
  140OSM    C2F15355   2.473   5.325   7.947 -0.3726  0.2681  0.4558
  140OSM    H2F15356   2.507   5.418   7.897  0.6833 -0.1296  0.4166
  140OSM    H2G15357   2.364   5.344   7.953 -0.2637  0.9240  0.4368
  140OSM    C3F15358   2.501   5.195   7.873 -0.7020 -0.2487  0.0424
  140OSM    H3F15359   2.475   5.103   7.930  0.0625  0.2791  1.2824
  140OSM    H3G15360   2.612   5.183   7.878 -0.8782 -2.1785  0.0457
  140OSM    C4F15361   2.441   5.203   7.731 -0.3746  0.1583 -0.1938
  140OSM    H4F15362   2.478   5.297   7.682 -3.3255  1.7370  0.3667
  140OSM    H4G15363   2.331   5.220   7.734  0.0029  3.2882 -0.2620
  140OSM    C5F15364   2.480   5.092   7.644  0.7444  0.5823  0.8434
  140OSM    H5F15365   2.445   4.992   7.677 -1.5565  1.3302  0.8446
  140OSM    H5G15366   2.591   5.085   7.641  0.6407 -1.5275 -0.5917
  140OSM    C6F15367   2.439   5.112   7.499  0.0843  0.1085 -0.1981
  140OSM    H6F15368   2.332   5.140   7.508  0.5092  1.4909  0.8447
  140OSM    H6G15369   2.443   5.014   7.446  0.1236 -0.2214  0.3969
  140OSM    C7F15370   2.520   5.219   7.413  0.2936 -1.1683  0.3439
  140OSM    H7F15371   2.619   5.172   7.434 -0.9941 -2.0771  5.9262
  140OSM    H7G15372   2.519   5.318   7.464  0.5874 -1.6546  1.3066
  140OSM    C8F15373   2.477   5.224   7.267  0.1916 -0.1153 -0.6337
  140OSM    H8F15374   2.557   5.281   7.215  0.4693  1.6197  1.5825
  140OSM    H8G15375   2.385   5.286   7.258  0.2664  0.0605 -0.1696
  140OSM    C9F15376   2.446   5.089   7.203  0.8033 -0.0636  0.7484
  140OSM    H9F15377   2.383   5.021   7.262 -0.8519 -0.4336 -1.2797
  140OSM   C10F15378   2.459   5.058   7.075 -0.2712  0.5234  0.0350
  140OSM   H10F15379   2.422   4.964   7.030 -0.6592  0.5915  0.2090
  140OSM   C11F15380   2.513   5.148   6.972  0.8042 -0.4818  0.0986
  140OSM   H11F15381   2.573   5.090   6.899  0.9230 -1.5558  1.0279
  140OSM   H11G15382   2.571   5.232   7.015  1.1097 -0.8309  0.3646
  140OSM   C12F15383   2.396   5.209   6.890 -0.0810  0.9937 -0.1892
  140OSM   H12F15384   2.347   5.280   6.961  1.7416  0.8422  1.3087
  140OSM   H12G15385   2.333   5.127   6.850 -1.6200 -0.0641  3.8821
  140OSM   C13F15386   2.451   5.276   6.762  0.1828 -0.1225  0.2919
  140OSM   H13F15387   2.476   5.184   6.705  0.1061 -0.9056  1.4784
  140OSM   H13G15388   2.538   5.343   6.774  0.2475  0.0707 -1.1194
  140OSM   C14F15389   2.329   5.356   6.697 -0.6246  1.0994 -0.4504
  140OSM   H14F15390   2.298   5.435   6.768 -3.4277 -1.2835  1.2151
  140OSM   H14G15391   2.252   5.278   6.679 -0.5125  1.1457 -1.1770
  140OSM   C15F15392   2.372   5.422   6.567 -0.3784 -0.6568 -0.0766
  140OSM   H15F15393   2.293   5.476   6.510 -0.5680  2.6227  2.9114
  140OSM   H15G15394   2.423   5.359   6.491 -0.5964  0.0190 -0.8004
  140OSM   C16F15395   2.463   5.548   6.596  0.4715 -0.1194 -0.7705
  140OSM   H16F15396   2.554   5.531   6.657 -1.5806  0.0913  2.6341
  140OSM   H16G15397   2.407   5.615   6.665 -0.4951 -0.7892 -0.8796
  140OSM   C17F15398   2.504   5.624   6.470  0.2701 -0.0215  0.2441
  140OSM   H17F15399   2.428   5.624   6.388 -1.2006 -1.6555  1.5361
  140OSM   H17G15400   2.588   5.573   6.420  1.4407  0.9970  1.1214
  140OSM   C18F15401   2.548   5.768   6.484 -0.4208  0.0779  0.1122
  140OSM   H18F15402   2.644   5.788   6.535 -0.4861 -2.7484  1.5152
  140OSM   H18G15403   2.484   5.824   6.555 -0.2344  0.9554 -0.3988
  140OSM   H18H15404   2.549   5.824   6.388 -0.5564  3.0521  1.7441
  141OSM      N15405   1.498   4.188   0.076  0.1027  0.2421 -0.3648
  141OSM    C1515406   1.578   4.181   0.200 -0.0086 -0.3173 -0.7263
  141OSM   H15A15407   1.678   4.218   0.181  1.2697 -3.9491 -1.9894
  141OSM   H15B15408   1.589   4.077   0.224 -0.6928 -0.1998  0.1302
  141OSM   H15C15409   1.534   4.233   0.284  0.3382 -2.9019  1.1517
  141OSM    C1415410   1.364   4.129   0.100  0.0833 -0.0945  0.1622
  141OSM   H14A15411   1.319   4.173   0.188 -1.6615 -0.9721 -0.2567
  141OSM   H14B15412   1.361   4.024   0.124 -1.1812 -0.4212 -1.2713
  141OSM   H14C15413   1.294   4.139   0.019  1.1107 -0.1489 -0.7601
  141OSM    C1315414   1.491   4.332   0.033 -0.4395 -0.4741 -0.9526
  141OSM   H13A15415   1.424   4.336  -0.052  1.4659 -0.9657 -2.5596
  141OSM   H13B15416   1.587   4.373   0.006 -0.0193 -0.1628  0.8955
  141OSM   H13C15417   1.447   4.396   0.108  0.0828  0.0028 -1.0503
  141OSM    C1215418   1.570   4.101  -0.026 -0.2667  0.8008  0.8884
  141OSM   H12A15419   1.508   4.092  -0.113  0.3177  1.5625  0.3777
  141OSM   H12B15420   1.572   3.999   0.009  0.0377  0.0000 -1.3150
  141OSM    C1115421   1.711   4.146  -0.080 -0.1130  0.0444  0.5503
  141OSM   H11A15422   1.740   4.070  -0.156 -0.3272  1.2526 -0.7779
  141OSM   H11B15423   1.788   4.152   0.001 -0.2668  0.7573  0.6505
  141OSM      P15424   1.662   4.290  -0.311  0.0187  0.1088  0.2211
  141OSM    O1315425   1.523   4.235  -0.341 -0.2885 -0.7211 -0.1696
  141OSM    O1415426   1.680   4.431  -0.342 -0.5568 -0.0137  0.1947
  141OSM    O1115427   1.760   4.201  -0.394  0.0314  0.0904  0.1223
  141OSM    O1215428   1.705   4.276  -0.154  0.8387  0.7059 -0.1902
  141OSM    C1S15429   1.743   4.194  -0.539 -0.0792  0.0751  1.3437
  141OSM    H1S15430   1.638   4.210  -0.573  0.4694 -1.1132 -1.1097
  141OSM    H1T15431   1.765   4.093  -0.578  2.8525 -0.2008  3.3816
  141OSM     NF15432   1.810   4.305  -0.745  0.1746  0.8254 -0.4091
  141OSM    HNF15433   1.848   4.242  -0.812 -0.7636 -0.4179  0.1978
  141OSM    C2S15434   1.850   4.281  -0.611 -0.0576  0.0695 -0.2689
  141OSM    H2S15435   1.844   4.378  -0.556  0.4667 -1.1520  2.0435
  141OSM    C3S15436   1.988   4.215  -0.589  0.0761 -0.5913  0.0904
  141OSM    H3S15437   1.994   4.117  -0.640  1.4784 -0.9933  0.9802
  141OSM     O315438   2.022   4.182  -0.452 -0.8061  0.2406  0.7531
  141OSM    HO315439   1.948   4.204  -0.396 -0.7370  0.1731  0.8716
  141OSM    C4S15440   2.103   4.295  -0.653 -0.1958 -0.1776  0.1992
  141OSM    H4S15441   2.118   4.391  -0.600 -0.9686  0.0802 -0.0357
  141OSM    C5S15442   2.196   4.269  -0.752  0.2408 -0.6152 -0.3753
  141OSM    H5S15443   2.193   4.163  -0.781 -0.4994 -0.7456  0.1700
  141OSM    C6S15444   2.309   4.371  -0.782  0.2521  0.6620 -0.1146
  141OSM    H6S15445   2.390   4.329  -0.845  1.5137  2.1417  0.4767
  141OSM    H6T15446   2.373   4.405  -0.698  2.2703  1.8153 -2.0251
  141OSM    C7S15447   2.260   4.502  -0.844 -0.2949 -0.3837  0.2083
  141OSM    H7S15448   2.352   4.564  -0.853 -1.4978  1.6869  1.5303
  141OSM    H7T15449   2.195   4.570  -0.785  1.0484  0.9518  0.2170
  141OSM    C8S15450   2.185   4.479  -0.976  0.0281  0.3274 -0.1835
  141OSM    H8S15451   2.181   4.577  -1.028 -2.4032  1.1207  1.3755
  141OSM    H8T15452   2.082   4.447  -0.950  0.6831 -0.6165  1.4175
  141OSM    C9S15453   2.257   4.388  -1.076  0.1525 -0.4310  0.6482
  141OSM    H9S15454   2.263   4.279  -1.055  0.1018 -0.6052 -0.1949
  141OSM    H9T15455   2.363   4.421  -1.073  0.2351 -0.6908  0.6262
  141OSM   C10S15456   2.195   4.395  -1.221  0.5315 -0.0845 -0.5483
  141OSM   H10S15457   2.191   4.495  -1.268  0.7820  0.9351  1.5110
  141OSM   H10T15458   2.088   4.373  -1.200  1.0286 -2.0158  0.2297
  141OSM   C11S15459   2.223   4.284  -1.320 -0.4337 -0.2701 -0.1750
  141OSM   H11S15460   2.202   4.182  -1.283  0.9326 -0.5793 -0.1897
  141OSM   H11T15461   2.328   4.293  -1.357 -1.0757  0.5130 -1.9227
  141OSM   C12S15462   2.142   4.307  -1.448 -0.1476  0.5715  0.3347
  141OSM   H12S15463   2.173   4.403  -1.494 -0.6655  0.9246  0.7255
  141OSM   H12T15464   2.032   4.307  -1.432 -0.2522 -2.4788  0.2858
  141OSM   C13S15465   2.169   4.184  -1.549 -0.7938 -0.3388 -0.3100
  141OSM   H13S15466   2.131   4.200  -1.653 -1.9126 -0.0003  0.1352
  141OSM   H13T15467   2.123   4.096  -1.500 -0.3117  0.4094  1.5396
  141OSM   C14S15468   2.321   4.148  -1.563 -0.1992  0.3699 -0.1689
  141OSM   H14S15469   2.364   4.106  -1.470 -0.6690 -0.3234 -0.2543
  141OSM   H14T15470   2.396   4.224  -1.593 -0.3809  1.4930  2.0189
  141OSM   C15S15471   2.344   4.036  -1.663 -0.1395 -0.3998 -0.0393
  141OSM   H15S15472   2.255   3.969  -1.654  0.2389 -0.7584  1.1904
  141OSM   H15T15473   2.438   3.979  -1.644 -0.2673 -0.5571  0.1309
  141OSM   C16S15474   2.356   4.087  -1.807 -0.0654  0.1759 -0.1664
  141OSM   H16S15475   2.443   4.155  -1.806  0.2184 -0.1800  1.5097
  141OSM   H16T15476   2.270   4.152  -1.836 -0.9617 -0.3548  1.1785
  141OSM   C17S15477   2.381   3.971  -1.901  0.4458 -0.0414  0.2260
  141OSM   H17S15478   2.315   3.883  -1.884  2.3932 -1.9679 -1.5859
  141OSM   H17T15479   2.487   3.939  -1.885 -0.3655 -4.0413 -1.2241
  141OSM   C18S15480   2.360   4.010  -2.040  0.6458 -0.0395  0.1701
  141OSM   H18S15481   2.362   3.923  -2.109 -0.1907 -1.7376  2.1791
  141OSM   H18T15482   2.434   4.078  -2.088  0.2662 -0.5941 -1.2692
  141OSM   H18U15483   2.261   4.060  -2.045  0.0248 -1.2131  0.4208
  141OSM    C1F15484   1.710   4.377  -0.778  0.0101  0.2855  0.2512
  141OSM     OF15485   1.635   4.430  -0.697 -0.4536 -0.5424  0.0648
  141OSM    C2F15486   1.680   4.386  -0.924 -0.0586  0.1367 -0.0818
  141OSM    H2F15487   1.578   4.346  -0.945 -0.2830  0.6445  0.0259
  141OSM    H2G15488   1.753   4.329  -0.985 -2.3403 -2.9706 -0.2281
  141OSM    C3F15489   1.663   4.531  -0.972 -0.2579 -0.2158 -0.1143
  141OSM    H3F15490   1.760   4.581  -0.950 -0.9557  0.9960  0.3288
  141OSM    H3G15491   1.582   4.584  -0.916 -0.4070 -0.1096 -0.4248
  141OSM    C4F15492   1.633   4.548  -1.124 -0.5905 -0.1492  0.2015
  141OSM    H4F15493   1.612   4.657  -1.128  2.0845  0.4206 -0.5732
  141OSM    H4G15494   1.546   4.489  -1.160  0.2990 -0.5840 -1.3705
  141OSM    C5F15495   1.758   4.537  -1.214 -0.7935  0.0369 -0.1756
  141OSM    H5F15496   1.793   4.432  -1.200 -3.3961 -0.7065  1.3349
  141OSM    H5G15497   1.834   4.612  -1.185  0.5536 -0.8991 -1.1519
  141OSM    C6F15498   1.734   4.553  -1.365 -0.1198 -0.0232 -0.7389
  141OSM    H6F15499   1.832   4.589  -1.403 -0.5490  2.0612 -0.0081
  141OSM    H6G15500   1.674   4.646  -1.377 -1.5015 -0.7388  0.3372
  141OSM    C7F15501   1.687   4.421  -1.426  0.4512 -0.1659 -0.0947
  141OSM    H7F15502   1.584   4.406  -1.388  0.6565 -0.0219  0.5438
  141OSM    H7G15503   1.742   4.342  -1.371  1.4273  1.9762  2.2306
  141OSM    C8F15504   1.693   4.423  -1.586  0.6207 -0.2124  0.3156
  141OSM    H8F15505   1.624   4.505  -1.615 -0.7578 -1.3203  0.3887
  141OSM    H8G15506   1.644   4.330  -1.620 -0.3621  0.1154  0.8092
  141OSM    C9F15507   1.831   4.444  -1.652 -0.0253 -0.2202  0.2844
  141OSM    H9F15508   1.910   4.482  -1.586 -1.7124  1.1663  1.6131
  141OSM   C10F15509   1.869   4.406  -1.775 -0.3654 -0.3109 -0.0987
  141OSM   H10F15510   1.966   4.439  -1.814 -0.5739 -0.2719 -0.5847
  141OSM   C11F15511   1.784   4.341  -1.876 -0.4903 -0.1281  0.4546
  141OSM   H11F15512   1.707   4.416  -1.907 -1.0565 -0.2255  1.5773
  141OSM   H11G15513   1.727   4.267  -1.815  0.2169 -0.0954  1.1692
  141OSM   C12F15514   1.859   4.272  -1.997 -1.0893 -0.3442 -0.0960
  141OSM   H12F15515   1.803   4.184  -2.036 -2.0131 -0.2139  0.8720
  141OSM   H12G15516   1.948   4.222  -1.955 -0.6601  0.9870  0.6435
  141OSM   C13F15517   1.896   4.372  -2.107  0.4422  0.1767 -0.1638
  141OSM   H13F15518   1.955   4.449  -2.052 -0.5968  1.3483 -0.6421
  141OSM   H13G15519   1.811   4.423  -2.157 -0.8689 -1.1486  0.6460
  141OSM   C14F15520   1.993   4.320  -2.209 -0.9138  0.2605 -0.0483
  141OSM   H14F15521   2.073   4.264  -2.157 -1.5814 -1.9685 -1.2624
  141OSM   H14G15522   2.044   4.404  -2.261  1.2563 -0.5043  0.7472
  141OSM   C15F15523   1.937   4.225  -2.320 -0.5759  0.1776  0.6014
  141OSM   H15F15524   1.850   4.275  -2.369  0.7091  0.1024 -1.9325
  141OSM   H15G15525   1.900   4.129  -2.277 -1.6835 -0.0245 -0.7321
  141OSM   C16F15526   2.028   4.203  -2.448  0.4055  0.2352  0.5848
  141OSM   H16F15527   1.975   4.127  -2.508  0.2189 -1.1708  2.4379
  141OSM   H16G15528   2.124   4.158  -2.413  0.3141 -1.1731 -0.8530
  141OSM   C17F15529   2.064   4.322  -2.534 -0.6244  0.7708  0.4156
  141OSM   H17F15530   2.118   4.389  -2.463  0.3548 -1.2530  1.6535
  141OSM   H17G15531   1.970   4.380  -2.544 -0.9130  0.0369 -1.9066
  141OSM   C18F15532   2.139   4.288  -2.654  0.1139  0.6756  0.4688
  141OSM   H18F15533   2.161   4.375  -2.719  0.6216 -0.9017 -1.6012
  141OSM   H18G15534   2.079   4.220  -2.718  2.4960 -2.0854  0.9471
  141OSM   H18H15535   2.232   4.233  -2.629 -0.1656  0.0902  0.2463
  142OSM      N15536   1.017   1.983   8.516 -0.3552 -0.0886  0.6014
  142OSM    C1515537   0.902   1.926   8.441 -0.3345 -0.4377 -0.6191
  142OSM   H15A15538   0.813   1.923   8.502 -0.1029  0.0367 -0.2563
  142OSM   H15B15539   0.915   1.825   8.406 -3.4823 -0.7617 -1.1593
  142OSM   H15C15540   0.886   1.978   8.348  0.5173 -1.1944 -1.2125
  142OSM    C1415541   0.973   2.121   8.566  0.3679 -0.4939 -0.0536
  142OSM   H14A15542   0.905   2.101   8.647  1.4376 -0.3177  0.9268
  142OSM   H14B15543   0.932   2.188   8.492  0.8916 -0.1462 -0.0394
  142OSM   H14C15544   1.057   2.181   8.601  0.1944  1.3648 -2.5046
  142OSM    C1315545   1.040   1.904   8.638 -0.4505 -0.2613 -0.0797
  142OSM   H13A15546   0.963   1.901   8.714  0.2645 -1.9472  0.6511
  142OSM   H13B15547   1.130   1.939   8.687  0.0042 -3.8141  2.0034
  142OSM   H13C15548   1.060   1.799   8.622 -0.8054 -0.4962  0.9083
  142OSM    C1215549   1.139   1.990   8.420  0.2991  0.1928  0.1797
  142OSM   H12A15550   1.099   2.015   8.323  0.8867 -1.7704 -0.6132
  142OSM   H12B15551   1.174   1.890   8.401  0.0951  0.4319 -1.6465
  142OSM    C1115552   1.249   2.090   8.457  0.0879  0.4730 -0.3709
  142OSM   H11A15553   1.329   2.051   8.391  1.0190 -0.4499  1.2466
  142OSM   H11B15554   1.263   2.090   8.567  1.0299  1.1087 -0.4796
  142OSM      P15555   1.259   2.348   8.482  0.0411 -0.1759 -0.0119
  142OSM    O1315556   1.148   2.438   8.519  0.9808  0.2712  0.6722
  142OSM    O1415557   1.345   2.316   8.596  0.6879 -0.3192 -0.6094
  142OSM    O1115558   1.343   2.423   8.370  0.1996 -0.2493 -0.2923
  142OSM    O1215559   1.198   2.221   8.411 -0.0365  0.0455 -0.4499
  142OSM    C1S15560   1.466   2.368   8.315 -0.2402  0.3247  0.1452
  142OSM    H1S15561   1.478   2.260   8.340 -0.6960  0.6353  1.8180
  142OSM    H1T15562   1.556   2.418   8.357  1.1836 -3.0762  1.4692
  142OSM     NF15563   1.586   2.303   8.113 -0.2706  0.3884  1.0950
  142OSM    HNF15564   1.675   2.344   8.093 -0.3650 -0.7503 -2.2540
  142OSM    C2S15565   1.483   2.390   8.159  0.0800  0.7240 -0.1922
  142OSM    H2S15566   1.389   2.355   8.112 -1.7762  0.6002  3.2975
  142OSM    C3S15567   1.511   2.542   8.122  0.7724 -0.3645  0.3661
  142OSM    H3S15568   1.618   2.557   8.146  1.3211 -1.0605 -1.4525
  142OSM     O315569   1.437   2.640   8.202  0.7849 -0.2390 -0.2039
  142OSM    HO315570   1.416   2.593   8.283 -1.5888 -1.0662 -1.2071
  142OSM    C4S15571   1.493   2.556   7.970  0.4440 -0.5176  0.2533
  142OSM    H4S15572   1.565   2.498   7.911 -2.4987 -2.2937 -1.8708
  142OSM    C5S15573   1.392   2.615   7.901 -0.4366  0.4513  0.2805
  142OSM    H5S15574   1.311   2.672   7.949 -1.9765 -0.8544 -0.6323
  142OSM    C6S15575   1.405   2.625   7.751 -0.5406  0.1205 -0.2354
  142OSM    H6S15576   1.303   2.611   7.708 -1.0282 -1.9924  1.4750
  142OSM    H6T15577   1.459   2.544   7.697 -0.8369  0.3215 -0.8517
  142OSM    C7S15578   1.479   2.752   7.716  0.2275 -0.0810 -0.3459
  142OSM    H7S15579   1.576   2.734   7.767  0.0304  1.3315  0.5677
  142OSM    H7T15580   1.425   2.841   7.755  0.5375  0.8136 -1.9123
  142OSM    C8S15581   1.502   2.765   7.563 -0.8177  0.6042  0.1032
  142OSM    H8S15582   1.407   2.754   7.507 -1.2294 -0.6205  0.9948
  142OSM    H8T15583   1.568   2.680   7.533  0.4854  1.7127 -0.2990
  142OSM    C9S15584   1.583   2.894   7.537  0.2747 -0.0405  0.3776
  142OSM    H9S15585   1.675   2.889   7.599 -0.0214 -0.0502  0.8214
  142OSM    H9T15586   1.520   2.980   7.570  1.0135  0.6862 -0.0588
  142OSM   C10S15587   1.622   2.905   7.394  0.4743 -0.2463 -0.2204
  142OSM   H10S15588   1.678   3.000   7.379 -0.6786  1.0424  2.7586
  142OSM   H10T15589   1.536   2.908   7.323  1.3677  0.7051 -1.2820
  142OSM   C11S15590   1.721   2.792   7.355  0.0936  0.4470 -0.1015
  142OSM   H11S15591   1.668   2.695   7.358 -1.0611  0.9956 -1.4857
  142OSM   H11T15592   1.798   2.787   7.435 -1.2655  1.2856  1.2918
  142OSM   C12S15593   1.779   2.807   7.214 -0.3620 -0.4973 -0.1574
  142OSM   H12S15594   1.836   2.715   7.192 -0.1101 -0.2335 -0.6217
  142OSM   H12T15595   1.852   2.891   7.209 -0.3989 -0.4869 -0.6101
  142OSM   C13S15596   1.699   2.852   7.089 -0.3637  0.3665  0.1597
  142OSM   H13S15597   1.649   2.950   7.108  0.2125  0.7005 -0.0329
  142OSM   H13T15598   1.616   2.779   7.077  0.2737 -0.4709  0.6976
  142OSM   C14S15599   1.778   2.835   6.953 -0.4750 -0.3264 -0.9007
  142OSM   H14S15600   1.829   2.736   6.956  3.6317  1.5924  1.1622
  142OSM   H14T15601   1.849   2.920   6.944 -1.9376  0.8393 -1.9320
  142OSM   C15S15602   1.681   2.826   6.832 -0.8014 -0.0053  0.4843
  142OSM   H15S15603   1.617   2.737   6.848  0.7797 -0.9909  1.5963
  142OSM   H15T15604   1.742   2.803   6.742 -1.2255 -0.4558  0.3089
  142OSM   C16S15605   1.587   2.951   6.813  0.4901 -0.2147  0.5918
  142OSM   H16S15606   1.638   3.050   6.808 -1.5685  0.8582 -0.2296
  142OSM   H16T15607   1.527   2.954   6.906  2.2453  1.0470  1.7445
  142OSM   C17S15608   1.490   2.937   6.695  0.1633 -0.4345 -0.6442
  142OSM   H17S15609   1.410   3.013   6.694  1.0474  0.5136 -0.4820
  142OSM   H17T15610   1.447   2.834   6.695 -0.1101 -0.3398  0.6135
  142OSM   C18S15611   1.560   2.951   6.563 -0.1678  0.4830 -0.7065
  142OSM   H18S15612   1.651   2.887   6.558  0.6726  1.4146  1.4836
  142OSM   H18T15613   1.606   3.052   6.564  1.6226 -0.2791  0.9640
  142OSM   H18U15614   1.487   2.928   6.482 -1.4239 -0.9195  0.7376
  142OSM    C1F15615   1.586   2.169   8.111 -0.1040 -0.1083 -0.5946
  142OSM     OF15616   1.500   2.109   8.167 -0.6550 -0.4431 -0.1230
  142OSM    C2F15617   1.702   2.099   8.055  0.1245  0.2984  0.6480
  142OSM    H2F15618   1.785   2.091   8.128  1.4096  2.2607 -0.5275
  142OSM    H2G15619   1.743   2.152   7.967  2.7515 -1.0840  0.9490
  142OSM    C3F15620   1.674   1.957   8.000  0.5222  0.5401  0.6068
  142OSM    H3F15621   1.584   1.949   7.936  0.7883  0.3009  0.2558
  142OSM    H3G15622   1.637   1.911   8.094  0.6111  0.0626  0.4106
  142OSM    C4F15623   1.783   1.870   7.948  1.1475  0.1612 -1.0476
  142OSM    H4F15624   1.758   1.763   7.963 -0.7625  0.6500 -0.4994
  142OSM    H4G15625   1.874   1.873   8.012 -0.1557  0.4879  0.8748
  142OSM    C5F15626   1.810   1.889   7.797 -0.0661 -0.3052  0.8798
  142OSM    H5F15627   1.887   1.814   7.768  1.6779  1.3367  1.0151
  142OSM    H5G15628   1.840   1.994   7.776 -2.3282  0.3585  0.7264
  142OSM    C6F15629   1.693   1.850   7.698 -0.5553  0.3940 -0.2939
  142OSM    H6F15630   1.617   1.931   7.696 -0.1407  0.7829 -0.5039
  142OSM    H6G15631   1.647   1.756   7.735  1.6249 -1.3195 -1.6455
  142OSM    C7F15632   1.748   1.817   7.557 -0.1707  0.0211  0.5412
  142OSM    H7F15633   1.802   1.720   7.566  0.4469  0.4067  1.1134
  142OSM    H7G15634   1.816   1.895   7.517 -0.1376 -1.1495 -1.8386
  142OSM    C8F15635   1.637   1.811   7.449  0.3709  0.1674  0.1523
  142OSM    H8F15636   1.582   1.907   7.456  0.3297  0.2590 -1.0820
  142OSM    H8G15637   1.572   1.728   7.482  1.5697 -0.1975  1.6860
  142OSM    C9F15638   1.702   1.785   7.306  0.0247  0.0368  0.4261
  142OSM    H9F15639   1.792   1.724   7.313 -0.0971 -0.3600 -1.1675
  142OSM   C10F15640   1.663   1.842   7.188 -0.2757 -0.1715  0.2749
  142OSM   H10F15641   1.721   1.812   7.100 -1.4539 -0.7322 -0.3311
  142OSM   C11F15642   1.555   1.955   7.176 -0.3129  0.2265 -0.0238
  142OSM   H11F15643   1.596   2.044   7.124  0.6431  0.7082  1.5037
  142OSM   H11G15644   1.507   1.981   7.273  0.8702  0.4838  0.5104
  142OSM   C12F15645   1.440   1.912   7.082  0.4817  0.3758  0.2966
  142OSM   H12F15646   1.366   1.995   7.075  2.3128  2.1263  0.7131
  142OSM   H12G15647   1.399   1.815   7.117  0.0342  0.4987  0.1138
  142OSM   C13F15648   1.494   1.889   6.940 -0.7213 -0.5282 -0.0107
  142OSM   H13F15649   1.582   1.821   6.938 -1.0056 -0.8956 -0.5101
  142OSM   H13G15650   1.521   1.990   6.903 -0.5732 -0.8901 -0.9365
  142OSM   C14F15651   1.390   1.865   6.832 -0.8121 -0.0072  0.1577
  142OSM   H14F15652   1.309   1.940   6.841 -0.2906  0.8877 -2.1323
  142OSM   H14G15653   1.353   1.761   6.847 -1.5532  0.0669 -1.0471
  142OSM   C15F15654   1.452   1.876   6.695 -0.4906 -0.3836 -0.6127
  142OSM   H15F15655   1.500   1.975   6.677 -0.2596 -0.6323 -1.4092
  142OSM   H15G15656   1.380   1.855   6.614  0.1586  1.6721 -1.7999
  142OSM   C16F15657   1.570   1.771   6.673  0.3940 -0.3891  0.0642
  142OSM   H16F15658   1.516   1.676   6.697 -0.9591  0.3754  0.1710
  142OSM   H16G15659   1.660   1.777   6.737  2.2857 -1.3308 -2.3559
  142OSM   C17F15660   1.623   1.769   6.529  0.1764  0.3146  0.1005
  142OSM   H17F15661   1.699   1.846   6.508  0.6014  0.2519  1.3618
  142OSM   H17G15662   1.534   1.776   6.462  2.2536  1.6575 -2.7007
  142OSM   C18F15663   1.693   1.634   6.495  0.0489 -0.4326  0.1844
  142OSM   H18F15664   1.783   1.648   6.558  1.5295  1.4444 -2.1509
  142OSM   H18G15665   1.713   1.632   6.385  0.7115 -0.5202  0.3017
  142OSM   H18H15666   1.638   1.544   6.529  1.0234 -1.5085 -1.0216
  143OSM      N15667   4.453   3.540   0.299 -0.4459 -0.3226 -0.2637
  143OSM    C1515668   4.528   3.444   0.210  0.5753 -0.2139  0.5568
  143OSM   H15A15669   4.525   3.343   0.248 -2.4879 -0.1964  0.5914
  143OSM   H15B15670   4.625   3.482   0.178 -1.0092  2.0561 -2.0941
  143OSM   H15C15671   4.466   3.433   0.122 -0.3137 -0.5745  1.2140
  143OSM    C1415672   4.320   3.478   0.329 -0.4612 -0.6466  0.0564
  143OSM   H14A15673   4.319   3.378   0.370 -0.5691 -0.1130  1.4287
  143OSM   H14B15674   4.264   3.467   0.238  1.3610  0.9560 -1.3390
  143OSM   H14C15675   4.267   3.539   0.400  0.7299 -2.2894  2.5207
  143OSM    C1315676   4.535   3.573   0.421  0.0765 -0.4061  0.4748
  143OSM   H13A15677   4.568   3.486   0.476 -1.1878 -0.0035  1.9528
  143OSM   H13B15678   4.478   3.626   0.496 -1.0048 -2.0569  0.8722
  143OSM   H13C15679   4.622   3.628   0.389  0.5296 -0.5699  1.4165
  143OSM    C1215680   4.430   3.671   0.220  0.8799  0.2797 -0.3789
  143OSM   H12A15681   4.524   3.704   0.179  0.6497  0.7777 -0.5112
  143OSM   H12B15682   4.409   3.749   0.292  1.2587 -1.0601  1.2677
  143OSM    C1115683   4.332   3.675   0.101  1.1456 -0.2938 -0.4322
  143OSM   H11A15684   4.376   3.617   0.018  2.1993 -0.4039  0.1977
  143OSM   H11B15685   4.339   3.782   0.071  1.4263 -0.1401  0.1697
  143OSM      P15686   4.091   3.602   0.042  0.3428  0.6342  0.0081
  143OSM    O1315687   4.098   3.459   0.002  0.2978 -0.2239  0.0870
  143OSM    O1415688   3.961   3.650   0.088  0.3928  0.0590 -0.0888
  143OSM    O1115689   4.142   3.692  -0.076 -0.1761 -0.1094  0.1469
  143OSM    O1215690   4.202   3.634   0.148 -0.4044 -0.6330 -0.8360
  143OSM    C1S15691   4.181   3.639  -0.202  0.1101 -0.1923 -0.4640
  143OSM    H1S15692   4.148   3.535  -0.219 -0.4415 -0.0860 -0.0679
  143OSM    H1T15693   4.291   3.622  -0.205 -0.2825 -3.8502  1.1231
  143OSM     NF15694   4.200   3.675  -0.461  0.1921 -0.3571  0.0844
  143OSM    HNF15695   4.253   3.744  -0.510 -1.1232 -0.4998 -1.6179
  143OSM    C2S15696   4.127   3.716  -0.332  0.1917 -0.0979 -0.0251
  143OSM    H2S15697   4.021   3.685  -0.341 -0.2232  0.9977  0.7645
  143OSM    C3S15698   4.117   3.875  -0.315  0.1315 -0.1375 -0.4741
  143OSM    H3S15699   4.218   3.921  -0.312 -0.4065  1.3175 -2.5959
  143OSM     O315700   4.047   3.907  -0.191  0.5187  0.5259 -0.2961
  143OSM    HO315701   4.063   3.820  -0.153 -0.2201  0.9053  0.9291
  143OSM    C4S15702   4.053   3.946  -0.422  0.3127 -0.2691  0.0761
  143OSM    H4S15703   3.944   3.933  -0.421  0.3052 -0.1776  0.6566
  143OSM    C5S15704   4.101   4.018  -0.521 -0.2505  0.3411 -0.0473
  143OSM    H5S15705   4.210   4.025  -0.537  0.2338 -2.9208  1.1731
  143OSM    C6S15706   4.009   4.071  -0.621  0.5927 -0.4234  0.1487
  143OSM    H6S15707   3.988   4.180  -0.608 -0.5283 -0.4678 -1.1004
  143OSM    H6T15708   3.905   4.034  -0.613  0.7368 -1.0278 -0.6637
  143OSM    C7S15709   4.060   4.067  -0.774 -0.5874  0.5370 -0.4521
  143OSM    H7S15710   3.971   4.098  -0.834 -1.7071 -2.9974 -0.8283
  143OSM    H7T15711   4.067   3.959  -0.800  2.7495  0.0544  1.8799
  143OSM    C8S15712   4.190   4.144  -0.810  0.5265 -0.7910 -0.2529
  143OSM    H8S15713   4.283   4.126  -0.752  1.2466 -0.1578 -1.1795
  143OSM    H8T15714   4.178   4.254  -0.803  0.7530 -0.7706 -0.1833
  143OSM    C9S15715   4.227   4.122  -0.959  0.2113  0.0409 -0.6290
  143OSM    H9S15716   4.241   4.014  -0.982 -1.1075 -0.3836  0.4336
  143OSM    H9T15717   4.328   4.166  -0.972  0.0667  0.1849 -1.2828
  143OSM   C10S15718   4.146   4.197  -1.064  0.8863  0.5496 -0.2782
  143OSM   H10S15719   4.131   4.296  -1.016  2.2703 -0.2206  1.8910
  143OSM   H10T15720   4.045   4.149  -1.064  0.5107  1.3100 -1.3797
  143OSM   C11S15721   4.193   4.198  -1.207  0.2683  0.7952  0.4361
  143OSM   H11S15722   4.173   4.096  -1.248  3.1114  0.4574 -0.3371
  143OSM   H11T15723   4.303   4.215  -1.213  0.1827  1.4660  0.6906
  143OSM   C12S15724   4.124   4.304  -1.292  0.8310  0.2044  0.7890
  143OSM   H12S15725   4.171   4.402  -1.269  1.2432  0.0569  0.5678
  143OSM   H12T15726   4.013   4.309  -1.285  0.5681 -1.0416 -1.5796
  143OSM   C13S15727   4.162   4.294  -1.444  0.1010 -0.0684 -0.2707
  143OSM   H13S15728   4.153   4.187  -1.472 -0.3224  0.1346 -0.9295
  143OSM   H13T15729   4.270   4.314  -1.437 -0.1388  0.6520  3.7856
  143OSM   C14S15730   4.085   4.382  -1.539 -0.2377  0.1388 -0.1675
  143OSM   H14S15731   4.094   4.489  -1.510  2.9737 -0.1644  0.2649
  143OSM   H14T15732   3.979   4.351  -1.526 -0.0878 -0.6129 -0.6771
  143OSM   C15S15733   4.128   4.361  -1.679  0.7733  0.7733 -0.7980
  143OSM   H15S15734   4.147   4.257  -1.713 -1.5288  0.9882 -2.9903
  143OSM   H15T15735   4.231   4.401  -1.694  1.8706 -1.5853  0.0228
  143OSM   C16S15736   4.039   4.445  -1.772  0.1964  0.0843 -0.2495
  143OSM   H16S15737   4.031   4.547  -1.729 -0.3293 -0.7942  1.8619
  143OSM   H16T15738   3.937   4.402  -1.773  0.4381 -0.5120  0.0759
  143OSM   C17S15739   4.086   4.462  -1.921 -0.6666  0.7249  0.2336
  143OSM   H17S15740   4.187   4.507  -1.920  0.9733 -2.3638 -3.0332
  143OSM   H17T15741   4.018   4.523  -1.985  1.2242  2.6259 -0.0489
  143OSM   C18S15742   4.097   4.327  -1.988  0.1461 -0.2531 -0.4782
  143OSM   H18S15743   4.188   4.277  -1.949  0.0760 -0.7509 -0.9393
  143OSM   H18T15744   4.118   4.362  -2.092  1.1254  2.2310  0.4720
  143OSM   H18U15745   4.002   4.271  -1.975 -0.6957  0.7277 -2.0063
  143OSM    C1F15746   4.203   3.550  -0.512  0.0207 -0.6490 -0.7364
  143OSM     OF15747   4.140   3.462  -0.464 -0.1802  0.2386 -0.5087
  143OSM    C2F15748   4.292   3.544  -0.630 -0.8657  0.8054  0.7144
  143OSM    H2F15749   4.326   3.438  -0.632 -0.9852  0.6973  2.7042
  143OSM    H2G15750   4.384   3.606  -0.629 -0.5985  0.4092  1.7296
  143OSM    C3F15751   4.215   3.566  -0.769  0.3061 -0.6185 -0.2293
  143OSM    H3F15752   4.126   3.500  -0.762 -0.3687  0.3106  0.1423
  143OSM    H3G15753   4.281   3.531  -0.852  0.2262  1.2440 -1.1186
  143OSM    C4F15754   4.180   3.709  -0.791  0.5699 -0.4664 -0.4170
  143OSM    H4F15755   4.267   3.772  -0.761  0.8964 -1.4508  0.7558
  143OSM    H4G15756   4.092   3.737  -0.730  2.0518  2.1061  0.7159
  143OSM    C5F15757   4.149   3.733  -0.944  0.8963  0.0199 -0.6566
  143OSM    H5F15758   4.097   3.831  -0.947  1.3139  0.2438 -0.6921
  143OSM    H5G15759   4.085   3.648  -0.977  1.8650  0.0494 -2.7882
  143OSM    C6F15760   4.273   3.721  -1.037  0.4768 -0.2711 -0.6683
  143OSM    H6F15761   4.310   3.617  -1.023  1.2027  0.1050  0.2725
  143OSM    H6G15762   4.355   3.789  -1.004  0.4868 -1.3953  1.8527
  143OSM    C7F15763   4.246   3.759  -1.182  0.2791  0.1896 -0.2079
  143OSM    H7F15764   4.199   3.860  -1.188  0.1359  0.0356 -2.3902
  143OSM    H7G15765   4.168   3.688  -1.217  0.8364 -0.6890  0.3009
  143OSM    C8F15766   4.378   3.757  -1.272  0.0569 -0.0778  0.2834
  143OSM    H8F15767   4.423   3.658  -1.295  1.3434  0.5131  0.1944
  143OSM    H8G15768   4.453   3.821  -1.222 -2.2472  2.8573  0.2357
  143OSM    C9F15769   4.353   3.823  -1.406  0.7776 -0.8254 -0.3234
  143OSM    H9F15770   4.359   3.932  -1.396 -1.4487 -0.5597 -1.1194
  143OSM   C10F15771   4.318   3.765  -1.521  0.0909  0.3211  0.6553
  143OSM   H10F15772   4.325   3.815  -1.618  0.0581 -2.4204 -0.8373
  143OSM   C11F15773   4.286   3.617  -1.546  0.1366  0.2810  0.2192
  143OSM   H11F15774   4.183   3.597  -1.582 -0.0320 -2.0850  1.7911
  143OSM   H11G15775   4.301   3.558  -1.453  1.5364  0.7726  0.3310
  143OSM   C12F15776   4.386   3.575  -1.652  0.1753  1.0253  0.5701
  143OSM   H12F15777   4.384   3.464  -1.652 -0.1018  1.0228  1.7697
  143OSM   H12G15778   4.486   3.622  -1.643  0.6309  0.2335 -0.0969
  143OSM   C13F15779   4.341   3.614  -1.794 -0.7078  0.3168  0.4386
  143OSM   H13F15780   4.305   3.718  -1.807 -1.6092  0.0299  0.6133
  143OSM   H13G15781   4.268   3.534  -1.817  0.5068 -1.6315  2.8236
  143OSM   C14F15782   4.446   3.587  -1.912 -0.0714  0.3129  0.1088
  143OSM   H14F15783   4.391   3.606  -2.006 -2.1687  0.8534  1.3697
  143OSM   H14G15784   4.480   3.481  -1.917 -1.4786 -0.1035 -2.1705
  143OSM   C15F15785   4.566   3.683  -1.918 -0.2334  0.0352 -0.2003
  143OSM   H15F15786   4.653   3.651  -1.857 -0.2696  2.0323  1.0206
  143OSM   H15G15787   4.536   3.781  -1.874 -1.5902 -0.4793  0.0970
  143OSM   C16F15788   4.620   3.702  -2.057 -0.7011 -0.1599  0.6860
  143OSM   H16F15789   4.698   3.782  -2.051 -1.8959  1.0341  0.8443
  143OSM   H16G15790   4.538   3.726  -2.129 -0.7577 -2.2860 -0.0196
  143OSM   C17F15791   4.663   3.568  -2.125  0.1999 -0.0260  0.4578
  143OSM   H17F15792   4.693   3.592  -2.230  1.2470 -0.9918  0.5130
  143OSM   H17G15793   4.579   3.497  -2.138  0.2665 -0.2137  1.0541
  143OSM   C18F15794   4.780   3.489  -2.063  0.9062 -0.4842  0.0594
  143OSM   H18F15795   4.781   3.392  -2.117 -0.7785 -1.6957  2.0746
  143OSM   H18G15796   4.757   3.451  -1.961  1.8610 -2.0052 -0.2532
  143OSM   H18H15797   4.874   3.547  -2.074  0.3126  0.2171 -1.5513
  144OSM      N15798   2.512   1.380   8.840  0.0583 -0.1684 -0.2649
  144OSM    C1515799   2.455   1.263   8.781 -0.0313  0.3559  0.1862
  144OSM   H15A15800   2.534   1.191   8.770  0.5404  1.1290 -0.9645
  144OSM   H15B15801   2.406   1.279   8.686 -2.4851 -0.7056  1.1942
  144OSM   H15C15802   2.386   1.224   8.854  1.2020 -3.5694 -0.5468
  144OSM    C1415803   2.408   1.475   8.900 -0.2687 -0.4225 -0.1527
  144OSM   H14A15804   2.456   1.551   8.959 -1.5188  0.8353 -0.7170
  144OSM   H14B15805   2.339   1.423   8.964 -0.3426 -0.1882 -0.0418
  144OSM   H14C15806   2.349   1.526   8.825  2.6172  2.5705 -0.6127
  144OSM    C1315807   2.600   1.342   8.960 -0.3433  0.2630 -0.2884
  144OSM   H13A15808   2.689   1.295   8.920 -0.4734  0.6191 -1.0056
  144OSM   H13B15809   2.539   1.282   9.026  1.7577 -0.3245  1.2298
  144OSM   H13C15810   2.630   1.436   9.003 -1.9810  0.2065  1.0707
  144OSM    C1215811   2.597   1.455   8.737  0.6208  0.0449 -0.0607
  144OSM   H12A15812   2.649   1.542   8.775  0.6443  0.6536 -1.4337
  144OSM   H12B15813   2.528   1.501   8.667 -1.7581 -2.8249  0.1688
  144OSM    C1115814   2.701   1.369   8.665  0.5504 -0.0916 -0.2500
  144OSM   H11A15815   2.731   1.430   8.577  2.1016  0.6130  0.7299
  144OSM   H11B15816   2.654   1.278   8.621  0.3843 -0.5873  0.9171
  144OSM      P15817   2.907   1.211   8.706  0.3358  0.1993  0.1787
  144OSM    O1315818   3.043   1.232   8.752 -0.0778  0.0488  0.3634
  144OSM    O1415819   2.845   1.084   8.753 -0.3655 -0.3628  0.5813
  144OSM    O1115820   2.898   1.214   8.550  0.6399  0.5244  0.5823
  144OSM    O1215821   2.814   1.337   8.744  0.1740 -0.0593  0.7752
  144OSM    C1S15822   2.987   1.306   8.478  0.1554 -0.5038  1.1948
  144OSM    H1S15823   3.093   1.295   8.509  0.5526 -1.4881 -0.3737
  144OSM    H1T15824   2.954   1.412   8.479 -0.5687 -0.6608 -0.7134
  144OSM     NF15825   3.108   1.324   8.272  0.6021 -0.7825  0.4058
  144OSM    HNF15826   3.093   1.420   8.251 -0.2238 -0.9312  0.2778
  144OSM    C2S15827   2.994   1.258   8.322  0.3909  0.5806 -0.8298
  144OSM    H2S15828   3.008   1.149   8.310 -2.3185  0.2914 -2.1180
  144OSM    C3S15829   2.856   1.299   8.256 -0.5846  0.2866  0.0197
  144OSM    H3S15830   2.840   1.407   8.277 -0.4686 -0.0225  1.9382
  144OSM     O315831   2.741   1.250   8.329 -0.1450  0.5611 -0.3653
  144OSM    HO315832   2.779   1.210   8.407 -0.7600  0.6701 -0.0083
  144OSM    C4S15833   2.843   1.254   8.120  0.1293 -1.3129 -0.1980
  144OSM    H4S15834   2.821   1.148   8.103 -0.1501 -1.1535 -0.8268
  144OSM    C5S15835   2.878   1.330   8.011  0.2836  0.0319  0.3137
  144OSM    H5S15836   2.911   1.435   8.008 -1.8437  0.7270 -0.2132
  144OSM    C6S15837   2.878   1.285   7.870  0.1529 -0.1474 -0.0186
  144OSM    H6S15838   2.984   1.306   7.843  0.0878 -1.6056 -1.4928
  144OSM    H6T15839   2.817   1.340   7.796 -0.4837 -0.4567  0.2710
  144OSM    C7S15840   2.855   1.135   7.845 -0.4014 -0.3372  0.6228
  144OSM    H7S15841   2.752   1.101   7.870  0.3900 -1.2622  2.8561
  144OSM    H7T15842   2.918   1.084   7.921  1.6506  0.7605 -0.2655
  144OSM    C8S15843   2.891   1.092   7.700 -0.6620 -0.1041 -0.7399
  144OSM    H8S15844   2.993   1.125   7.672 -0.6648 -0.3923 -1.0923
  144OSM    H8T15845   2.829   1.144   7.623 -1.5373  0.0109  0.0157
  144OSM    C9S15846   2.901   0.941   7.686  0.5505 -0.0522  0.2055
  144OSM    H9S15847   2.811   0.914   7.744 -1.4920  2.0225 -1.8016
  144OSM    H9T15848   2.988   0.900   7.742  0.9926 -0.9837 -1.1062
  144OSM   C10S15849   2.889   0.900   7.541 -0.7440  0.1915  0.5543
  144OSM   H10S15850   2.982   0.932   7.489 -1.2885 -0.6930 -1.0316
  144OSM   H10T15851   2.803   0.948   7.490  0.2643  0.4932 -0.9183
  144OSM   C11S15852   2.876   0.749   7.515  0.5321  0.0884 -0.1573
  144OSM   H11S15853   2.775   0.705   7.530  1.0086 -0.8546  0.3936
  144OSM   H11T15854   2.946   0.693   7.581  0.3715  0.4824  0.3501
  144OSM   C12S15855   2.911   0.688   7.384 -0.8174 -0.7400  0.3324
  144OSM   H12S15856   2.953   0.585   7.386  1.0923  0.0019  0.3494
  144OSM   H12T15857   2.998   0.738   7.337 -0.6823 -4.1588 -3.6458
  144OSM   C13S15858   2.800   0.683   7.279  0.1154 -0.2837 -0.2440
  144OSM   H13S15859   2.744   0.779   7.270 -3.4813 -2.2320 -0.4730
  144OSM   H13T15860   2.732   0.603   7.314  0.4509 -0.5858 -0.2811
  144OSM   C14S15861   2.853   0.651   7.137 -0.3340 -0.2707  0.2365
  144OSM   H14S15862   2.902   0.553   7.154 -1.2341 -0.4686  1.7669
  144OSM   H14T15863   2.930   0.729   7.116 -1.2988  0.4660 -0.6711
  144OSM   C15S15864   2.755   0.654   7.024  0.1528  0.2146  0.5781
  144OSM   H15S15865   2.710   0.755   7.034  1.1748  0.7484  0.0188
  144OSM   H15T15866   2.668   0.587   7.042 -1.5135  2.0350 -0.3349
  144OSM   C16S15867   2.811   0.619   6.885 -0.5375 -0.5208  0.2324
  144OSM   H16S15868   2.836   0.512   6.867 -0.3912 -0.1259 -2.2777
  144OSM   H16T15869   2.898   0.682   6.855 -1.0002  0.1166  0.2270
  144OSM   C17S15870   2.703   0.638   6.772  0.5692 -0.3715 -0.1081
  144OSM   H17S15871   2.663   0.741   6.770 -1.1049 -0.9863 -0.0070
  144OSM   H17T15872   2.617   0.573   6.801 -1.0704  1.4616 -0.6650
  144OSM   C18S15873   2.753   0.587   6.637  0.8746 -0.3986 -0.5119
  144OSM   H18S15874   2.835   0.650   6.596 -0.4477  1.4622 -0.4218
  144OSM   H18T15875   2.666   0.589   6.567 -0.0606 -1.5494  0.5741
  144OSM   H18U15876   2.778   0.479   6.644 -0.5647 -0.9190 -2.4358
  144OSM    C1F15877   3.234   1.300   8.299  0.1724 -0.5523 -0.2615
  144OSM     OF15878   3.262   1.184   8.315 -0.5485  0.7429  0.0218
  144OSM    C2F15879   3.342   1.412   8.296 -0.3436  0.1842  0.7467
  144OSM    H2F15880   3.357   1.434   8.404  0.9442  0.0825  0.6059
  144OSM    H2G15881   3.300   1.498   8.241 -1.2104 -1.3648 -1.1208
  144OSM    C3F15882   3.468   1.370   8.221  0.3405  0.7045 -0.0863
  144OSM    H3F15883   3.495   1.269   8.259 -1.7074  0.2704  0.3635
  144OSM    H3G15884   3.560   1.428   8.244  0.5431 -0.1096  1.2750
  144OSM    C4F15885   3.432   1.370   8.073 -0.4563 -0.7572 -0.8531
  144OSM    H4F15886   3.395   1.470   8.044  1.3607 -0.2430 -1.4711
  144OSM    H4G15887   3.350   1.296   8.057 -0.1082 -1.1418 -0.8832
  144OSM    C5F15888   3.552   1.333   7.983  0.2611 -0.2996 -0.5121
  144OSM    H5F15889   3.584   1.229   8.007  0.1328  0.1554  1.8137
  144OSM    H5G15890   3.632   1.404   8.013 -1.3913  0.5854  2.1728
  144OSM    C6F15891   3.532   1.354   7.828  0.5606  0.3661  0.7111
  144OSM    H6F15892   3.631   1.341   7.780  0.4489 -1.8646  0.9529
  144OSM    H6G15893   3.491   1.456   7.810  1.7032  0.5492 -1.0666
  144OSM    C7F15894   3.444   1.237   7.777 -0.1259 -0.3252  0.3063
  144OSM    H7F15895   3.339   1.249   7.811  0.2207 -1.1077  1.7498
  144OSM    H7G15896   3.476   1.135   7.808 -2.9968 -1.5394 -0.4626
  144OSM    C8F15897   3.433   1.244   7.628 -0.3557 -1.1009 -0.4124
  144OSM    H8F15898   3.537   1.265   7.595 -1.2362  0.3746 -2.5025
  144OSM    H8G15899   3.370   1.330   7.596  0.7717  0.1459  0.5973
  144OSM    C9F15900   3.397   1.117   7.569 -0.1388  0.5463 -0.4127
  144OSM    H9F15901   3.449   1.030   7.610 -1.0881 -1.0797 -2.4348
  144OSM   C10F15902   3.325   1.097   7.459 -0.0064  0.0602  0.2993
  144OSM   H10F15903   3.301   0.995   7.426  0.6830  0.5559 -1.8821
  144OSM   C11F15904   3.266   1.205   7.369 -0.4779  0.8046 -0.3462
  144OSM   H11F15905   3.340   1.287   7.364  0.9243 -0.4807 -2.0991
  144OSM   H11G15906   3.181   1.251   7.424 -0.3436 -2.1546  2.7021
  144OSM   C12F15907   3.237   1.150   7.227  0.7914 -0.3747  0.0206
  144OSM   H12F15908   3.338   1.133   7.184 -0.1300 -1.8374 -1.6701
  144OSM   H12G15909   3.206   1.239   7.168  0.6278  0.2694  1.0533
  144OSM   C13F15910   3.125   1.047   7.210 -0.6595  0.3110  0.2072
  144OSM   H13F15911   3.043   1.084   7.274  0.1542  1.6173  0.5281
  144OSM   H13G15912   3.168   0.953   7.253 -0.2994  0.1393 -0.5068
  144OSM   C14F15913   3.091   1.032   7.063  0.5091  0.2746  0.6794
  144OSM   H14F15914   3.074   1.132   7.016  0.5216  0.5288  1.2019
  144OSM   H14G15915   3.000   0.969   7.052  1.1477 -0.8342  1.5719
  144OSM   C15F15916   3.199   0.950   6.993 -0.6613 -0.0681 -0.3651
  144OSM   H15F15917   3.226   0.853   7.039  0.0140 -0.6111 -1.8686
  144OSM   H15G15918   3.291   1.012   6.993 -1.4719  1.1832 -0.9219
  144OSM   C16F15919   3.155   0.917   6.849  0.0416  0.2039 -0.1538
  144OSM   H16F15920   3.137   1.010   6.791 -1.1428  0.6883  0.9461
  144OSM   H16G15921   3.064   0.854   6.862 -0.2896  1.0799  2.2320
  144OSM   C17F15922   3.252   0.837   6.763  0.4199  0.1415  0.3321
  144OSM   H17F15923   3.247   0.732   6.798  0.2626 -0.6585 -1.9485
  144OSM   H17G15924   3.355   0.879   6.768  0.6346 -0.5282  2.1465
  144OSM   C18F15925   3.199   0.839   6.618 -0.0934 -0.2561 -0.4529
  144OSM   H18F15926   3.260   0.761   6.566 -0.0006 -0.7151  0.3213
  144OSM   H18G15927   3.224   0.932   6.563 -1.5720 -0.7324 -1.9920
  144OSM   H18H15928   3.090   0.822   6.605 -0.0629  1.0338 -3.1164
  145OSM      N15929   4.514   2.238   8.373 -0.3005 -0.7953  0.1759
  145OSM    C1515930   4.645   2.175   8.399 -0.2208  0.0149 -0.1464
  145OSM   H15A15931   4.717   2.213   8.329 -1.4877  0.6842 -1.1241
  145OSM   H15B15932   4.650   2.070   8.376 -1.9539  0.0717 -0.9713
  145OSM   H15C15933   4.676   2.185   8.502 -1.2380  0.2902  0.1522
  145OSM    C1415934   4.542   2.382   8.352 -0.0115 -0.6293 -1.0990
  145OSM   H14A15935   4.459   2.445   8.323 -0.0013  0.5934  1.2478
  145OSM   H14B15936   4.608   2.395   8.268  1.2992 -0.8014 -0.1161
  145OSM   H14C15937   4.585   2.419   8.444 -2.1339  0.0135 -0.2857
  145OSM    C1315938   4.462   2.177   8.248  0.2949 -0.1952 -0.3275
  145OSM   H13A15939   4.541   2.164   8.175  1.4483  1.3850  0.5653
  145OSM   H13B15940   4.383   2.237   8.207  0.1757 -1.0048 -1.3426
  145OSM   H13C15941   4.418   2.079   8.261  0.1338 -0.0518  0.2367
  145OSM    C1215942   4.418   2.212   8.483 -0.0159 -0.0899 -0.4539
  145OSM   H12A15943   4.407   2.105   8.489 -0.7711  0.0263  0.5159
  145OSM   H12B15944   4.318   2.242   8.453  0.6477  0.3661 -2.3741
  145OSM    C1115945   4.439   2.281   8.621  0.0753  0.4184 -0.2952
  145OSM   H11A15946   4.540   2.265   8.664  0.0784  1.0819 -0.0472
  145OSM   H11B15947   4.364   2.228   8.684 -1.8341  1.2828 -1.7387
  145OSM      P15948   4.261   2.478   8.595 -0.3060 -0.0520  0.1915
  145OSM    O1315949   4.156   2.387   8.641  0.8320  0.6194  0.2863
  145OSM    O1415950   4.254   2.623   8.633 -0.1634 -0.0242 -0.5816
  145OSM    O1115951   4.247   2.463   8.440  0.2121 -0.7137  0.8220
  145OSM    O1215952   4.407   2.419   8.621 -0.6955 -0.7065 -0.0588
  145OSM    C1S15953   4.121   2.494   8.372 -0.5554 -0.0664 -0.1422
  145OSM    H1S15954   4.051   2.537   8.446 -0.4277 -0.6058  0.3021
  145OSM    H1T15955   4.079   2.400   8.331  0.4465 -0.2434 -0.8145
  145OSM     NF15956   4.031   2.687   8.228  0.0482 -0.3306 -0.8356
  145OSM    HNF15957   3.992   2.695   8.137  0.2963  1.5432 -0.8135
  145OSM    C2S15958   4.142   2.593   8.257 -0.7995 -0.1594 -0.3838
  145OSM    H2S15959   4.225   2.660   8.287 -1.2990  0.3366 -0.0743
  145OSM    C3S15960   4.183   2.519   8.128 -0.4991 -0.9723 -0.3375
  145OSM    H3S15961   4.095   2.463   8.089 -0.7578 -0.7744 -0.0412
  145OSM     O315962   4.285   2.423   8.161  0.7478  0.7958 -0.3059
  145OSM    HO315963   4.285   2.420   8.257 -1.3974 -3.6701 -0.1637
  145OSM    C4S15964   4.221   2.616   8.010  0.8415 -0.5743  0.6030
  145OSM    H4S15965   4.140   2.634   7.938  0.3343  2.6458  1.8053
  145OSM    C5S15966   4.338   2.660   7.973  0.6616 -1.0857  0.3770
  145OSM    H5S15967   4.432   2.639   8.028 -1.2632 -2.6687  3.3157
  145OSM    C6S15968   4.375   2.731   7.845 -0.4172  0.1674 -0.1074
  145OSM    H6S15969   4.438   2.659   7.788 -1.5700 -0.4994 -0.5818
  145OSM    H6T15970   4.429   2.826   7.861 -1.2614  1.4466 -3.7724
  145OSM    C7S15971   4.259   2.776   7.749  0.3648  0.4005  0.1497
  145OSM    H7S15972   4.194   2.846   7.806  0.6975  1.5800 -0.8681
  145OSM    H7T15973   4.200   2.689   7.714  0.6961  1.1971 -2.5617
  145OSM    C8S15974   4.314   2.857   7.632  0.9700 -0.2640 -0.0626
  145OSM    H8S15975   4.397   2.807   7.577 -0.1951 -1.7819 -0.4961
  145OSM    H8T15976   4.346   2.955   7.673 -1.9063  0.9939 -0.5938
  145OSM    C9S15977   4.200   2.888   7.531  0.1119  0.4563  0.1759
  145OSM    H9S15978   4.114   2.938   7.580  0.0023 -1.9833  2.7255
  145OSM    H9T15979   4.156   2.801   7.479  0.2117  0.9144 -0.7061
  145OSM   C10S15980   4.249   2.978   7.419 -0.2525  0.9078 -0.0365
  145OSM   H10S15981   4.332   2.931   7.362  0.3593 -0.6002  1.9872
  145OSM   H10T15982   4.297   3.074   7.448 -2.3039  1.8392  0.4630
  145OSM   C11S15983   4.128   3.013   7.329  0.2517 -0.7423 -0.1265
  145OSM   H11S15984   4.049   3.061   7.389  0.4037 -0.2365 -0.3240
  145OSM   H11T15985   4.088   2.917   7.290 -1.2842  0.4987 -1.7787
  145OSM   C12S15986   4.181   3.093   7.208  0.4700 -0.1077  0.1800
  145OSM   H12S15987   4.233   3.031   7.132  0.8587  1.5100 -0.9290
  145OSM   H12T15988   4.255   3.169   7.241 -0.2761  0.1928  1.2510
  145OSM   C13S15989   4.064   3.167   7.139  0.2640  0.2439 -0.3615
  145OSM   H13S15990   4.023   3.244   7.208 -2.5764 -0.3840 -1.1804
  145OSM   H13T15991   3.980   3.097   7.116 -0.8133  0.6447  2.1048
  145OSM   C14S15992   4.105   3.245   7.014 -0.7648 -0.0572  0.2350
  145OSM   H14S15993   4.192   3.304   7.051 -0.1173 -1.8139  1.7092
  145OSM   H14T15994   4.029   3.311   6.968 -1.3356 -0.3673  0.7179
  145OSM   C15S15995   4.167   3.159   6.907 -0.2366 -0.3006  0.0913
  145OSM   H15S15996   4.262   3.110   6.940 -0.3781  0.3441  1.5529
  145OSM   H15T15997   4.195   3.226   6.824 -0.3520  0.8261  0.9383
  145OSM   C16S15998   4.086   3.051   6.844 -0.3200 -0.6047  0.4038
  145OSM   H16S15999   4.076   2.969   6.918 -3.1373 -0.2762  0.4818
  145OSM   H16T16000   4.148   2.989   6.775 -1.3564 -0.4198 -0.7321
  145OSM   C17S16001   3.952   3.092   6.784 -0.0512 -0.2302 -0.4026
  145OSM   H17S16002   3.885   3.102   6.871  1.4102  1.9729  0.5500
  145OSM   H17T16003   3.909   3.006   6.727 -2.0181  0.5903 -0.2401
  145OSM   C18S16004   3.952   3.218   6.694 -0.3953  0.7233  0.2874
  145OSM   H18S16005   3.852   3.249   6.657 -0.3766  0.7265  0.2394
  145OSM   H18T16006   4.006   3.196   6.600 -1.0166 -1.8394  0.4730
  145OSM   H18U16007   4.007   3.299   6.746  0.6545 -0.0085  0.3356
  145OSM    C1F16008   3.975   2.763   8.320 -0.6335 -0.0494  0.0383
  145OSM     OF16009   4.017   2.769   8.433  0.3339  0.1464 -0.7585
  145OSM    C2F16010   3.853   2.835   8.261  0.3201  0.0681  0.0445
  145OSM    H2F16011   3.773   2.766   8.297  1.0019 -0.3851  0.7087
  145OSM    H2G16012   3.850   2.833   8.150 -1.2266  0.8440  0.0421
  145OSM    C3F16013   3.823   2.983   8.307  0.3165  0.4607  0.0312
  145OSM    H3F16014   3.912   3.047   8.287  0.4450 -0.1833 -1.5869
  145OSM    H3G16015   3.810   2.973   8.417 -0.2559 -0.6953 -0.1355
  145OSM    C4F16016   3.693   3.040   8.238 -0.4999  0.1641  0.1234
  145OSM    H4F16017   3.655   3.129   8.293  0.6629 -0.2508  1.6611
  145OSM    H4G16018   3.622   2.956   8.253  0.8987 -1.4616 -1.7060
  145OSM    C5F16019   3.708   3.073   8.093  0.2184 -0.1718  1.1457
  145OSM    H5F16020   3.734   2.979   8.039  2.0713 -0.4732  2.4626
  145OSM    H5G16021   3.783   3.154   8.091 -2.2867  2.3112  1.4908
  145OSM    C6F16022   3.575   3.115   8.019  0.3943 -0.6061 -0.8808
  145OSM    H6F16023   3.548   3.214   8.061 -0.8537 -1.1076 -0.4445
  145OSM    H6G16024   3.490   3.050   8.050  2.0086 -0.9187  3.5150
  145OSM    C7F16025   3.593   3.137   7.865  0.5195 -0.1256 -0.1030
  145OSM    H7F16026   3.488   3.136   7.829  0.4233 -3.0533  0.0179
  145OSM    H7G16027   3.643   3.048   7.822  2.4342  1.0128 -0.3694
  145OSM    C8F16028   3.666   3.273   7.827 -0.6757  0.5493 -0.4779
  145OSM    H8F16029   3.770   3.272   7.867 -0.8540  1.3676  0.0296
  145OSM    H8G16030   3.624   3.359   7.883 -1.5992 -0.7838  0.9531
  145OSM    C9F16031   3.673   3.293   7.681 -0.0554 -0.1094 -0.1205
  145OSM    H9F16032   3.760   3.261   7.622  0.8226  0.5597  0.7695
  145OSM   C10F16033   3.585   3.371   7.614  0.2378  0.5467 -0.0112
  145OSM   H10F16034   3.613   3.392   7.510 -3.0545 -0.8682 -1.3175
  145OSM   C11F16035   3.465   3.444   7.660 -0.7193 -0.0548 -0.6891
  145OSM   H11F16036   3.483   3.552   7.640  1.7204  0.0294  1.4651
  145OSM   H11G16037   3.451   3.443   7.770 -0.2552  0.8424 -0.6093
  145OSM   C12F16038   3.330   3.382   7.613 -0.2887  0.1990  0.0324
  145OSM   H12F16039   3.250   3.451   7.646 -1.1217 -1.3630  1.4739
  145OSM   H12G16040   3.313   3.284   7.663 -0.2662 -0.9170 -2.0584
  145OSM   C13F16041   3.325   3.353   7.461 -0.1593  0.0527  0.1357
  145OSM   H13F16042   3.396   3.270   7.442 -0.8625 -0.5627  0.1593
  145OSM   H13G16043   3.352   3.441   7.399  0.1176  0.9315  1.4569
  145OSM   C14F16044   3.186   3.300   7.418 -0.4795  0.4428  0.8634
  145OSM   H14F16045   3.126   3.393   7.408  0.4315  0.9597 -0.1433
  145OSM   H14G16046   3.141   3.234   7.495 -1.4141 -1.6199 -1.3205
  145OSM   C15F16047   3.186   3.216   7.284  0.4328 -0.0686  0.2065
  145OSM   H15F16048   3.105   3.141   7.272 -1.2947  1.9798 -1.7014
  145OSM   H15G16049   3.278   3.153   7.279  0.3548 -0.2368  0.8482
  145OSM   C16F16050   3.172   3.312   7.168 -0.3727 -0.4827  0.2142
  145OSM   H16F16051   3.250   3.390   7.181 -1.8767  0.7372  2.4517
  145OSM   H16G16052   3.075   3.365   7.161  0.7866  1.6814 -0.7221
  145OSM   C17F16053   3.187   3.229   7.040 -0.3054 -0.5388  0.1152
  145OSM   H17F16054   3.086   3.187   7.021 -1.6517  2.3092  0.5093
  145OSM   H17G16055   3.267   3.152   7.049  1.1540  0.9963  0.8886
  145OSM   C18F16056   3.226   3.317   6.909  0.4879 -0.4063 -0.6229
  145OSM   H18F16057   3.146   3.390   6.887  0.4178 -0.7724 -1.5995
  145OSM   H18G16058   3.222   3.256   6.817 -0.3971 -1.3407  0.0179
  145OSM   H18H16059   3.321   3.370   6.933 -1.1561  1.0567  3.8346
  146OSM      N16060   1.188   2.872   8.306 -0.1921 -0.7560 -0.4799
  146OSM    C1516061   1.190   2.736   8.362 -0.3327 -0.1967 -0.0215
  146OSM   H15A16062   1.097   2.686   8.339 -0.1236 -0.3128 -0.6217
  146OSM   H15B16063   1.199   2.733   8.470 -1.6740 -2.0605  0.0924
  146OSM   H15C16064   1.273   2.674   8.332  0.7163  0.8379  0.6472
  146OSM    C1416065   1.315   2.939   8.338 -0.4330 -0.7506 -1.0240
  146OSM   H14A16066   1.327   3.039   8.299 -1.5005  0.9655  2.6316
  146OSM   H14B16067   1.401   2.875   8.324  0.3620  0.5140 -2.3163
  146OSM   H14C16068   1.318   2.956   8.444  1.8280  2.1803 -1.4286
  146OSM    C1316069   1.185   2.862   8.155 -0.4775  0.4673  0.3767
  146OSM   H13A16070   1.190   2.962   8.116 -0.0951  0.2925 -0.0282
  146OSM   H13B16071   1.093   2.811   8.132  0.0789 -1.5246  2.1356
  146OSM   H13C16072   1.269   2.800   8.126  0.1792  2.0296 -1.2521
  146OSM    C1216073   1.056   2.937   8.351  0.4782  0.1720 -0.2570
  146OSM   H12A16074   1.056   2.914   8.457  0.3044 -0.1371 -0.3222
  146OSM   H12B16075   0.976   2.872   8.318  0.5760 -0.5772  0.9329
  146OSM    C1116076   1.025   3.083   8.314 -0.3897 -0.3828 -0.1259
  146OSM   H11A16077   0.919   3.103   8.341  0.3302  1.2640  1.7704
  146OSM   H11B16078   1.046   3.090   8.206  1.7942  0.6220  0.3107
  146OSM      P16079   1.097   3.317   8.381  0.0525 -0.2020 -0.0845
  146OSM    O1316080   0.952   3.347   8.410 -0.0324 -0.5650 -0.2938
  146OSM    O1416081   1.195   3.384   8.461 -0.5785  0.0823 -0.3100
  146OSM    O1116082   1.133   3.356   8.225 -0.2225 -0.0626 -0.0335
  146OSM    O1216083   1.120   3.169   8.382 -0.3474  0.2614  0.4767
  146OSM    C1S16084   1.030   3.383   8.132  0.4407  0.3468  0.5328
  146OSM    H1S16085   0.993   3.485   8.157  3.5110  2.1968 -1.7746
  146OSM    H1T16086   0.938   3.325   8.150 -2.3749  4.8408  2.5253
  146OSM     NF16087   0.999   3.443   7.890  0.0497  0.3173  0.1803
  146OSM    HNF16088   0.935   3.389   7.836 -1.3278  1.1225  0.9444
  146OSM    C2S16089   1.090   3.381   7.986  0.3430 -0.4198 -0.3053
  146OSM    H2S16090   1.187   3.434   7.981 -0.1492  0.5484  0.1955
  146OSM    C3S16091   1.126   3.233   7.943 -0.2656 -0.1403  0.2412
  146OSM    H3S16092   1.023   3.191   7.952 -0.6920  0.7617 -0.2825
  146OSM     O316093   1.204   3.154   8.036 -0.2254  0.4740  0.0629
  146OSM    HO316094   1.210   3.223   8.103  0.5311  1.7521 -1.2695
  146OSM    C4S16095   1.170   3.224   7.806  0.3922 -0.2593 -0.2930
  146OSM    H4S16096   1.084   3.216   7.738 -0.2320 -1.3032  0.5940
  146OSM    C5S16097   1.294   3.240   7.762 -0.6021  0.0263 -0.1138
  146OSM    H5S16098   1.381   3.259   7.827 -0.9596 -2.1627  1.1289
  146OSM    C6S16099   1.334   3.223   7.619 -0.4185  0.0218  0.2686
  146OSM    H6S16100   1.414   3.147   7.610 -1.8395 -1.5866  0.5804
  146OSM    H6T16101   1.370   3.321   7.583 -0.2670 -0.0015  0.3535
  146OSM    C7S16102   1.223   3.158   7.523  0.2925 -0.1063  0.4305
  146OSM    H7S16103   1.155   3.237   7.486 -0.8619 -1.5197 -0.6095
  146OSM    H7T16104   1.168   3.087   7.589 -0.4601  0.5447  0.5180
  146OSM    C8S16105   1.286   3.102   7.396 -0.3466  0.1433  0.2050
  146OSM    H8S16106   1.213   3.056   7.326 -1.7394  1.0371  1.0141
  146OSM    H8T16107   1.347   3.018   7.436  0.1019  0.0799 -0.5907
  146OSM    C9S16108   1.380   3.193   7.327 -0.0423 -0.0975 -0.5275
  146OSM    H9S16109   1.480   3.190   7.375  0.3567 -1.0964 -1.3768
  146OSM    H9T16110   1.338   3.294   7.312 -4.2985 -1.6571 -0.3609
  146OSM   C10S16111   1.402   3.157   7.177 -0.5083  0.6387 -1.1047
  146OSM   H10S16112   1.443   3.055   7.164  2.1679  1.7076 -1.6167
  146OSM   H10T16113   1.489   3.212   7.135  1.5402 -2.2578 -0.9344
  146OSM   C11S16114   1.276   3.161   7.094 -0.1922  0.6174 -0.2348
  146OSM   H11S16115   1.215   3.253   7.103 -0.8580  0.3945 -2.0852
  146OSM   H11T16116   1.206   3.078   7.119  0.5040 -0.6039 -2.1425
  146OSM   C12S16117   1.305   3.146   6.947  0.1743 -0.5412  0.9095
  146OSM   H12S16118   1.322   3.039   6.922 -0.0543 -0.5994  0.9964
  146OSM   H12T16119   1.399   3.200   6.923 -1.7208  2.1674 -0.8953
  146OSM   C13S16120   1.185   3.210   6.866 -0.2410  0.3005  0.1410
  146OSM   H13S16121   1.192   3.320   6.882 -0.6121  0.8015 -2.6103
  146OSM   H13T16122   1.085   3.171   6.896 -0.3004 -0.1664 -0.6295
  146OSM   C14S16123   1.190   3.196   6.714  0.3158  0.0318 -0.1047
  146OSM   H14S16124   1.166   3.090   6.691  0.6675 -0.1961  0.5381
  146OSM   H14T16125   1.290   3.218   6.670  0.3055 -0.3463 -0.3162
  146OSM   C15S16126   1.085   3.272   6.632 -0.0348 -0.6919  0.1005
  146OSM   H15S16127   0.982   3.236   6.652 -1.4814  2.4009 -1.1297
  146OSM   H15T16128   1.110   3.247   6.526  3.2446  3.4775 -0.3912
  146OSM   C16S16129   1.087   3.421   6.650  0.3804 -0.3793  0.0696
  146OSM   H16S16130   1.192   3.456   6.648 -0.1222  1.2073 -0.3431
  146OSM   H16T16131   1.048   3.440   6.753  2.7220  0.1137  0.9310
  146OSM   C17S16132   1.011   3.496   6.541 -0.7988 -0.4849 -0.7339
  146OSM   H17S16133   0.906   3.460   6.538 -0.6489 -0.9953 -0.1105
  146OSM   H17T16134   1.066   3.473   6.447  0.4135  1.4169 -0.5426
  146OSM   C18S16135   1.007   3.654   6.553 -0.0853  0.9479 -0.1718
  146OSM   H18S16136   1.112   3.691   6.554 -0.6517  2.6429  0.0641
  146OSM   H18T16137   0.956   3.678   6.649 -3.2699 -4.6879 -0.0375
  146OSM   H18U16138   0.958   3.694   6.462 -2.6823 -2.6138 -0.5704
  146OSM    C1F16139   0.979   3.578   7.887  0.3326  0.3640 -0.5696
  146OSM     OF16140   1.037   3.651   7.966  0.5972 -0.2500 -0.1563
  146OSM    C2F16141   0.879   3.636   7.789  0.2419  0.4665 -0.4946
  146OSM    H2F16142   0.808   3.702   7.843 -1.4017 -1.1805 -0.5309
  146OSM    H2G16143   0.821   3.548   7.753  1.2707 -0.4512  0.0451
  146OSM    C3F16144   0.947   3.710   7.678  0.2982  0.7774 -0.4120
  146OSM    H3F16145   1.017   3.790   7.711  2.1258 -0.5604 -0.8558
  146OSM    H3G16146   0.866   3.750   7.614  0.7751  0.2999 -1.3413
  146OSM    C4F16147   1.037   3.631   7.577  0.5796 -0.0767 -0.9904
  146OSM    H4F16148   1.123   3.591   7.635  1.2508  2.5516 -0.0504
  146OSM    H4G16149   1.070   3.706   7.502 -2.1652 -1.3535 -3.6882
  146OSM    C5F16150   0.963   3.519   7.499 -0.5017 -0.1913 -0.1463
  146OSM    H5F16151   0.867   3.569   7.471  0.0504  2.4771  2.1954
  146OSM    H5G16152   0.941   3.431   7.564 -0.6240 -1.6562 -2.1085
  146OSM    C6F16153   1.047   3.463   7.388 -0.2549 -0.0239  0.2089
  146OSM    H6F16154   1.145   3.434   7.432  0.2128  0.0176 -0.7980
  146OSM    H6G16155   1.085   3.540   7.318  1.0988 -0.3618  0.5577
  146OSM    C7F16156   0.979   3.345   7.312 -0.0613 -0.8551  0.2337
  146OSM    H7F16157   0.934   3.278   7.389  2.7173 -3.0787  0.0474
  146OSM    H7G16158   1.057   3.284   7.263  0.4788  0.5756 -0.7488
  146OSM    C8F16159   0.874   3.398   7.212  0.1989  0.2917  0.5230
  146OSM    H8F16160   0.790   3.455   7.258 -2.0016 -0.4386 -2.2776
  146OSM    H8G16161   0.822   3.308   7.173  0.1289 -0.8329  3.0280
  146OSM    C9F16162   0.932   3.487   7.108  0.5829  0.0656 -1.0059
  146OSM    H9F16163   1.018   3.547   7.142 -0.9892  1.7834  0.1079
  146OSM   C10F16164   0.889   3.508   6.988 -0.4237  0.0271 -1.0227
  146OSM   H10F16165   0.940   3.589   6.934  0.9668 -0.9152 -1.1919
  146OSM   C11F16166   0.758   3.458   6.927 -0.5362  0.0233  0.2112
  146OSM   H11F16167   0.711   3.378   6.988 -1.6452  1.0398  0.7471
  146OSM   H11G16168   0.800   3.417   6.833  1.0048  1.3208  0.2889
  146OSM   C12F16169   0.660   3.567   6.893 -0.0903 -0.6289  0.4264
  146OSM   H12F16170   0.582   3.511   6.838  0.0978 -0.3344 -0.1473
  146OSM   H12G16171   0.707   3.647   6.831  0.0383 -0.2485  1.0008
  146OSM   C13F16172   0.595   3.645   7.011  0.1222 -0.0151  0.9238
  146OSM   H13F16173   0.524   3.721   6.972  0.1519 -0.4925 -0.0975
  146OSM   H13G16174   0.672   3.703   7.065  0.1739 -0.0560  0.8942
  146OSM   C14F16175   0.536   3.546   7.112 -0.3677 -0.4950 -0.4756
  146OSM   H14F16176   0.463   3.473   7.071  1.3843 -2.1769 -0.7492
  146OSM   H14G16177   0.628   3.498   7.151 -0.4038 -1.4004 -1.4670
  146OSM   C15F16178   0.476   3.608   7.242  0.6754  0.0701 -0.7319
  146OSM   H15F16179   0.392   3.679   7.227  0.6171 -0.3760 -2.8881
  146OSM   H15G16180   0.555   3.679   7.274 -0.8738  2.8276 -2.6923
  146OSM   C16F16181   0.437   3.505   7.343  0.2244 -0.5082  0.6573
  146OSM   H16F16182   0.506   3.419   7.354  1.4545  0.1462 -1.5067
  146OSM   H16G16183   0.353   3.446   7.301  1.4746 -1.5762 -0.4213
  146OSM   C17F16184   0.406   3.570   7.477 -0.2730 -0.8098  0.8057
  146OSM   H17F16185   0.499   3.617   7.513  0.3924 -0.5044 -1.1738
  146OSM   H17G16186   0.373   3.503   7.560 -0.5187  1.2472  2.4441
  146OSM   C18F16187   0.306   3.685   7.486  0.2108 -0.0596  0.6194
  146OSM   H18F16188   0.209   3.656   7.442  0.6096 -1.3554  0.5666
  146OSM   H18G16189   0.347   3.771   7.429 -0.7832 -1.2973 -2.1040
  146OSM   H18H16190   0.299   3.719   7.592 -0.0994  2.0897 -0.0415
  147OSM      N16191   2.059   6.737   3.871 -0.4659  0.3489 -0.5991
  147OSM    C1516192   2.162   6.848   3.854  0.1894  0.1149 -0.2163
  147OSM   H15A16193   2.116   6.934   3.808  0.9809 -0.0699 -1.3764
  147OSM   H15B16194   2.242   6.821   3.788  0.5197  0.6316 -0.0357
  147OSM   H15C16195   2.200   6.870   3.953  1.6583 -1.6967 -0.3206
  147OSM    C1416196   1.946   6.798   3.949  0.1318 -0.4323 -0.1728
  147OSM   H14A16197   1.973   6.834   4.047  0.5683 -1.5021  0.1119
  147OSM   H14B16198   1.866   6.729   3.969  0.0992  0.0552  1.5304
  147OSM   H14C16199   1.911   6.885   3.896  1.6090 -0.5509 -1.4004
  147OSM    C1316200   2.016   6.683   3.729 -0.5358 -0.1028  0.3643
  147OSM   H13A16201   2.016   6.760   3.654  0.2813  0.7005  1.1678
  147OSM   H13B16202   1.916   6.642   3.732 -0.8131  0.5861  0.7344
  147OSM   H13C16203   2.084   6.601   3.708  0.7852  0.7351  1.2097
  147OSM    C1216204   2.119   6.618   3.960 -0.6170 -0.3882  0.2776
  147OSM   H12A16205   2.201   6.581   3.900 -0.0407 -2.1225  2.0333
  147OSM   H12B16206   2.045   6.541   3.976 -2.0155  0.8030 -0.1743
  147OSM    C1116207   2.179   6.648   4.098  0.5238 -0.4818 -0.6965
  147OSM   H11A16208   2.177   6.558   4.163  1.3873 -0.8584 -1.1782
  147OSM   H11B16209   2.110   6.725   4.140  0.4783 -1.1897  0.5897
  147OSM      P16210   2.421   6.609   4.041 -0.1197  0.2420 -0.3386
  147OSM    O1316211   2.361   6.499   3.964  0.3430 -0.1890 -0.0185
  147OSM    O1416212   2.518   6.689   3.967 -0.6840  0.7554 -0.0704
  147OSM    O1116213   2.489   6.553   4.168 -0.5617 -0.2952 -0.2820
  147OSM    O1216214   2.310   6.700   4.095 -0.3033 -0.6577 -0.6747
  147OSM    C1S16215   2.555   6.631   4.270  0.1737 -0.1045  0.3091
  147OSM    H1S16216   2.541   6.741   4.256  0.1971 -0.4160 -3.1677
  147OSM    H1T16217   2.665   6.619   4.260  0.0548 -2.5191  1.2096
  147OSM     NF16218   2.588   6.674   4.518 -0.3970 -0.1947  0.6624
  147OSM    HNF16219   2.658   6.636   4.577 -0.8370 -2.7380 -0.3613
  147OSM    C2S16220   2.524   6.580   4.420  0.2088 -0.2501  0.0773
  147OSM    H2S16221   2.414   6.592   4.433 -0.2790 -2.5016 -1.4513
  147OSM    C3S16222   2.560   6.428   4.442 -0.5858 -0.2650  0.3214
  147OSM    H3S16223   2.670   6.418   4.425 -1.0198 -1.7901 -1.9876
  147OSM     O316224   2.493   6.341   4.349 -0.0047  0.5854  0.1084
  147OSM    HO316225   2.457   6.405   4.288 -1.3447  1.4002  1.6855
  147OSM    C4S16226   2.542   6.383   4.583  0.1327  0.1435 -0.0357
  147OSM    H4S16227   2.631   6.356   4.643 -1.1205 -1.8413  1.0447
  147OSM    C5S16228   2.419   6.365   4.636 -0.5252  0.2088 -0.9777
  147OSM    H5S16229   2.330   6.384   4.574 -0.5673 -0.2544 -1.0591
  147OSM    C6S16230   2.385   6.307   4.773 -0.0079  0.4466 -0.0406
  147OSM    H6S16231   2.366   6.198   4.768  1.0767  0.3018 -2.3033
  147OSM    H6T16232   2.299   6.367   4.811 -1.3736 -1.3016 -0.2421
  147OSM    C7S16233   2.498   6.325   4.874  0.1166  0.0929 -0.5739
  147OSM    H7S16234   2.527   6.432   4.878  1.9241 -0.3470 -1.0133
  147OSM    H7T16235   2.584   6.262   4.843  0.6002  1.1198 -1.3671
  147OSM    C8S16236   2.458   6.281   5.019 -0.5858  0.4532  0.2207
  147OSM    H8S16237   2.553   6.258   5.072 -1.3011  0.3823  1.5006
  147OSM    H8T16238   2.414   6.180   5.004  0.8095 -0.0544 -0.7089
  147OSM    C9S16239   2.369   6.383   5.077  0.1542  0.2631 -0.6067
  147OSM    H9S16240   2.282   6.394   5.008  0.1086  2.4798 -0.2588
  147OSM    H9T16241   2.417   6.482   5.076  0.2304  0.2310 -1.6846
  147OSM   C10S16242   2.316   6.347   5.212 -0.2111  0.1134 -1.2998
  147OSM   H10S16243   2.258   6.252   5.209  0.4870 -0.3059 -2.1913
  147OSM   H10T16244   2.251   6.427   5.254  1.9042  1.3559 -0.2089
  147OSM   C11S16245   2.425   6.359   5.322 -0.3850  0.1989 -0.1268
  147OSM   H11S16246   2.431   6.469   5.334  1.3091 -0.1260  3.1680
  147OSM   H11T16247   2.526   6.331   5.284 -1.0180 -2.2679 -0.1535
  147OSM   C12S16248   2.377   6.289   5.445 -0.0237  0.2820  0.2264
  147OSM   H12S16249   2.354   6.181   5.433  2.7780 -0.3449 -0.1244
  147OSM   H12T16250   2.281   6.339   5.472 -0.6429  0.2843 -1.8174
  147OSM   C13S16251   2.481   6.290   5.561 -0.0335 -0.6245  0.9898
  147OSM   H13S16252   2.520   6.392   5.582 -0.4943 -0.2213 -0.0228
  147OSM   H13T16253   2.566   6.239   5.510 -1.5589  0.6815 -3.2636
  147OSM   C14S16254   2.430   6.222   5.690  0.1186  0.3456  0.3199
  147OSM   H14S16255   2.408   6.114   5.674  1.0705  0.1139  0.4929
  147OSM   H14T16256   2.335   6.267   5.724  0.3891  1.6392 -0.5720
  147OSM   C15S16257   2.530   6.227   5.802  0.1689 -0.2630 -0.2385
  147OSM   H15S16258   2.520   6.328   5.847 -1.3611  0.0555 -1.2166
  147OSM   H15T16259   2.630   6.221   5.754  1.4276  2.1215  1.8410
  147OSM   C16S16260   2.508   6.125   5.915  0.4173  0.6080  0.3464
  147OSM   H16S16261   2.514   6.024   5.871  2.4323  0.9658 -0.2955
  147OSM   H16T16262   2.403   6.142   5.948 -0.3685  0.7890 -2.0218
  147OSM   C17S16263   2.602   6.130   6.028  0.0948 -0.3149 -0.2470
  147OSM   H17S16264   2.576   6.218   6.092  0.3095 -1.2809  1.2038
  147OSM   H17T16265   2.704   6.137   5.986 -0.2559  0.7102 -0.9730
  147OSM   C18S16266   2.597   6.007   6.118 -0.3120 -0.0655  0.1731
  147OSM   H18S16267   2.684   6.014   6.187 -1.7071  0.9771  1.9475
  147OSM   H18T16268   2.617   5.920   6.053  1.1776  1.3929 -1.4059
  147OSM   H18U16269   2.511   6.014   6.188 -1.6880 -2.2311 -1.1913
  147OSM    C1F16270   2.556   6.808   4.525  0.8722  1.0781 -0.2129
  147OSM     OF16271   2.466   6.853   4.460 -0.1746 -0.5574 -0.0376
  147OSM    C2F16272   2.644   6.887   4.620  0.1908 -0.6790 -0.3620
  147OSM    H2F16273   2.651   6.993   4.587 -0.5173 -0.6087 -0.3003
  147OSM    H2G16274   2.739   6.834   4.603 -0.2145 -1.1673 -1.1183
  147OSM    C3F16275   2.601   6.890   4.771 -0.3275 -0.4725 -0.1673
  147OSM    H3F16276   2.503   6.941   4.779  1.6234  3.2624  3.2870
  147OSM    H3G16277   2.680   6.961   4.804  0.0013 -0.2299 -1.4465
  147OSM    C4F16278   2.627   6.764   4.853 -0.4875 -0.5848 -0.3026
  147OSM    H4F16279   2.733   6.736   4.866 -0.3606 -0.3464 -0.7781
  147OSM    H4G16280   2.577   6.681   4.798  1.1153 -0.6347 -1.7812
  147OSM    C5F16281   2.564   6.772   4.997  0.6302 -0.4589  0.4009
  147OSM    H5F16282   2.617   6.694   5.055  1.5725 -0.5922 -0.6049
  147OSM    H5G16283   2.457   6.743   4.983  0.4472  0.9980 -1.6152
  147OSM    C6F16284   2.575   6.912   5.056 -0.0382  0.0623  0.7342
  147OSM    H6F16285   2.520   6.985   4.993 -1.1595 -0.0712  1.5161
  147OSM    H6G16286   2.682   6.942   5.058 -0.0691  0.4641 -1.6183
  147OSM    C7F16287   2.516   6.918   5.193  0.1128  0.4454  0.2615
  147OSM    H7F16288   2.421   6.862   5.183 -0.1002  0.5136  1.6760
  147OSM    H7G16289   2.502   7.023   5.225 -0.0095 -0.4144  3.3494
  147OSM    C8F16290   2.598   6.850   5.307  0.7673 -0.8468  0.4500
  147OSM    H8F16291   2.592   6.740   5.292  0.2916 -1.0566  1.9397
  147OSM    H8G16292   2.555   6.865   5.409  0.8034  3.9550 -0.0132
  147OSM    C9F16293   2.738   6.886   5.319  0.1501  0.3478  1.2897
  147OSM    H9F16294   2.796   6.840   5.238  1.6814  0.1288  2.4627
  147OSM   C10F16295   2.805   6.939   5.423  0.5342  0.0949 -0.5771
  147OSM   H10F16296   2.914   6.956   5.424  0.1729  2.7846 -0.2082
  147OSM   C11F16297   2.747   7.001   5.553 -0.5200 -0.0754  0.2350
  147OSM   H11F16298   2.793   6.933   5.627  0.9740 -2.3675 -2.5827
  147OSM   H11G16299   2.637   6.990   5.548 -0.4276 -1.0547  0.1989
  147OSM   C12F16300   2.796   7.146   5.571 -0.0865 -0.9073 -0.3367
  147OSM   H12F16301   2.904   7.148   5.595  0.0119 -0.4000 -0.7890
  147OSM   H12G16302   2.739   7.175   5.662 -2.8547 -0.5921 -2.0354
  147OSM   C13F16303   2.759   7.237   5.456  0.6889 -0.3793  0.4759
  147OSM   H13F16304   2.739   7.341   5.489 -2.6754 -0.7194 -0.1361
  147OSM   H13G16305   2.667   7.203   5.402 -0.1418  0.7839  1.1177
  147OSM   C14F16306   2.856   7.239   5.340  0.2459  0.1676  0.8124
  147OSM   H14F16307   2.857   7.143   5.283  2.1088 -0.5738  1.9965
  147OSM   H14G16308   2.961   7.249   5.373  1.1087  0.1952 -1.6859
  147OSM   C15F16309   2.828   7.339   5.227  0.0257  0.5742  0.3179
  147OSM   H15F16310   2.920   7.400   5.217 -1.2950  2.6942  0.4935
  147OSM   H15G16311   2.744   7.406   5.256 -0.5381  0.0270 -0.0207
  147OSM   C16F16312   2.808   7.272   5.094  0.0791 -0.0744  0.6256
  147OSM   H16F16313   2.733   7.190   5.103 -0.1006  0.1039  0.7551
  147OSM   H16G16314   2.906   7.234   5.059 -0.3899  0.4097 -1.3123
  147OSM   C17F16315   2.751   7.373   4.990  0.1089 -0.4099 -0.3890
  147OSM   H17F16316   2.833   7.447   4.986 -1.6916  1.7434  0.6837
  147OSM   H17G16317   2.669   7.432   5.036  0.8404 -0.3375  0.8469
  147OSM   C18F16318   2.714   7.321   4.852 -0.3086 -0.4621 -0.2538
  147OSM   H18F16319   2.787   7.241   4.827 -0.7346 -0.8732 -0.1896
  147OSM   H18G16320   2.714   7.413   4.790  1.1933  1.1367  1.9796
  147OSM   H18H16321   2.615   7.273   4.841 -0.4941 -0.4176  1.0545
  148OSM      N16322   2.828   6.529   3.758  0.5031  0.5119  0.2862
  148OSM    C1516323   2.781   6.403   3.691 -0.2894 -0.3267 -0.1116
  148OSM   H15A16324   2.835   6.390   3.599  0.6112 -0.2478  0.3879
  148OSM   H15B16325   2.675   6.407   3.671 -0.7599 -1.9013  1.7523
  148OSM   H15C16326   2.814   6.309   3.732 -0.4602 -1.7532 -2.9904
  148OSM    C1416327   2.984   6.531   3.775 -0.4856 -0.2948 -0.2330
  148OSM   H14A16328   3.013   6.633   3.793 -0.1619  0.2650 -3.3353
  148OSM   H14B16329   3.030   6.501   3.682  3.0027  1.8091  0.6080
  148OSM   H14C16330   3.032   6.476   3.855 -0.7096 -0.4923 -0.2345
  148OSM    C1316331   2.798   6.647   3.674 -0.1236 -0.1021  0.0917
  148OSM   H13A16332   2.828   6.746   3.707  2.0918 -0.6485 -0.1093
  148OSM   H13B16333   2.693   6.643   3.652 -0.3994  0.9230  1.1514
  148OSM   H13C16334   2.862   6.635   3.587 -0.8591  0.3486 -0.5328
  148OSM    C1216335   2.758   6.550   3.893  0.1897 -0.7883  0.0696
  148OSM   H12A16336   2.653   6.532   3.880 -0.1925 -0.0058  1.8134
  148OSM   H12B16337   2.775   6.654   3.915  0.6839 -0.6578 -0.8383
  148OSM    C1116338   2.808   6.479   4.017  0.2131  0.4436  0.5590
  148OSM   H11A16339   2.818   6.370   3.996  1.3942  0.5059  0.7423
  148OSM   H11B16340   2.732   6.482   4.098  0.0273  0.3479  0.3892
  148OSM      P16341   2.962   6.634   4.167 -0.4825 -0.0371 -0.2341
  148OSM    O1316342   3.103   6.682   4.164 -0.0100 -0.8302  0.2224
  148OSM    O1416343   2.859   6.736   4.154  0.1634 -0.1345 -0.1469
  148OSM    O1116344   2.942   6.543   4.284  0.1771  0.4140 -0.2414
  148OSM    O1216345   2.936   6.534   4.046  0.0950  0.2666  0.0500
  148OSM    C1S16346   2.997   6.569   4.410  0.5794 -0.6938 -0.2675
  148OSM    H1S16347   2.929   6.636   4.467  0.4930 -2.0900  1.3420
  148OSM    H1T16348   3.101   6.607   4.412  0.6658 -0.8804 -1.0753
  148OSM     NF16349   3.029   6.454   4.630 -0.2983 -0.5717  0.0719
  148OSM    HNF16350   3.122   6.431   4.656  1.1380  1.5106 -2.6505
  148OSM    C2S16351   2.992   6.431   4.486 -0.1342 -0.4714 -0.1596
  148OSM    H2S16352   2.890   6.387   4.484 -0.8103  1.0016  0.2093
  148OSM    C3S16353   3.079   6.315   4.417  0.1785 -0.2458  0.2597
  148OSM    H3S16354   3.182   6.356   4.415 -0.3019  1.0374  0.3340
  148OSM     O316355   3.035   6.282   4.287 -0.1365  0.0433  0.0756
  148OSM    HO316356   2.963   6.345   4.278 -1.6150 -1.7573 -1.7162
  148OSM    C4S16357   3.078   6.187   4.501  0.1885  0.5965 -0.3343
  148OSM    H4S16358   3.017   6.106   4.457 -0.7034  0.5446  0.9177
  148OSM    C5S16359   3.141   6.157   4.617 -0.0348  0.0645  1.2811
  148OSM    H5S16360   3.193   6.234   4.677  1.3048 -0.6555  1.0791
  148OSM    C6S16361   3.133   6.025   4.682  0.2580  0.3662 -0.2059
  148OSM    H6S16362   3.237   5.988   4.698  1.7918  3.5149 -1.9138
  148OSM    H6T16363   3.079   5.940   4.635  0.5474  0.2568 -0.3413
  148OSM    C7S16364   3.075   6.039   4.834  0.0171  0.3799  0.4391
  148OSM    H7S16365   2.970   6.071   4.816 -0.0534  0.5539  1.1062
  148OSM    H7T16366   3.123   6.126   4.885  0.9704  0.4387 -0.5283
  148OSM    C8S16367   3.085   5.918   4.921  0.6069 -0.0739 -0.5247
  148OSM    H8S16368   3.160   5.846   4.883  0.6131 -0.3141 -0.0540
  148OSM    H8T16369   2.988   5.864   4.918  0.2904  0.4833 -0.5839
  148OSM    C9S16370   3.135   5.959   5.058 -0.0854  0.1953 -0.8354
  148OSM    H9S16371   3.238   6.000   5.052 -0.9153  2.4369 -0.8849
  148OSM    H9T16372   3.144   5.870   5.124 -3.2318 -0.4315 -1.0875
  148OSM   C10S16373   3.044   6.062   5.126  0.5141  0.0732  0.4589
  148OSM   H10S16374   2.960   6.016   5.181  0.0066  0.6779  0.2014
  148OSM   H10T16375   3.003   6.131   5.049  0.3791 -2.5838 -2.0280
  148OSM   C11S16376   3.119   6.157   5.224 -0.0452 -0.2803 -0.8931
  148OSM   H11S16377   3.032   6.215   5.260 -0.5634 -2.7658  2.2682
  148OSM   H11T16378   3.195   6.227   5.182  3.1398 -0.8677  3.2986
  148OSM   C12S16379   3.183   6.078   5.344 -0.2937 -0.2451 -0.1868
  148OSM   H12S16380   3.241   6.153   5.402 -0.3431  0.8544 -1.4842
  148OSM   H12T16381   3.250   5.999   5.306  0.4840 -0.0521  0.7682
  148OSM   C13S16382   3.081   5.992   5.422  0.1616  0.6162  0.1401
  148OSM   H13S16383   3.068   5.897   5.366  0.9290 -0.2631  1.4138
  148OSM   H13T16384   2.984   6.045   5.429 -0.1461 -0.1017  1.4768
  148OSM   C14S16385   3.118   5.953   5.567 -0.4487 -0.5133  0.4579
  148OSM   H14S16386   3.038   5.888   5.609 -1.2073  0.6079  0.7869
  148OSM   H14T16387   3.129   6.036   5.640  0.6744 -1.1077  0.9997
  148OSM   C15S16388   3.227   5.856   5.583  0.0189  0.2737  0.4387
  148OSM   H15S16389   3.330   5.889   5.556  0.4123  1.0876  2.6852
  148OSM   H15T16390   3.198   5.764   5.529 -0.6499  0.2518  0.8166
  148OSM   C16S16391   3.231   5.806   5.731  0.6261  0.0836  0.7007
  148OSM   H16S16392   3.149   5.733   5.747  1.0893 -1.5000 -3.0189
  148OSM   H16T16393   3.213   5.892   5.798 -0.2896  0.2772  0.2174
  148OSM   C17S16394   3.368   5.744   5.760 -0.5617  0.1590  0.6021
  148OSM   H17S16395   3.442   5.823   5.738 -0.8916 -0.0443 -1.3873
  148OSM   H17T16396   3.399   5.662   5.692  0.5967  0.8946  0.2215
  148OSM   C18S16397   3.376   5.707   5.909 -0.2549 -0.0952 -0.6790
  148OSM   H18S16398   3.289   5.641   5.929 -0.7047  1.5247  3.5581
  148OSM   H18T16399   3.368   5.790   5.981  1.0706 -0.1966 -0.3787
  148OSM   H18U16400   3.465   5.644   5.933 -0.7365 -1.4118 -2.1421
  148OSM    C1F16401   2.932   6.502   4.710  0.2321  0.8463 -0.0741
  148OSM     OF16402   2.823   6.539   4.673  0.2451 -0.2223 -0.2548
  148OSM    C2F16403   2.980   6.510   4.851 -0.2816 -0.2291 -0.3124
  148OSM    H2F16404   2.981   6.621   4.863 -0.9194 -0.0679 -1.5776
  148OSM    H2G16405   3.087   6.479   4.857 -0.0494  0.5237 -0.3608
  148OSM    C3F16406   2.880   6.462   4.958 -0.5821 -0.1137  0.0669
  148OSM    H3F16407   2.886   6.352   4.964  1.4795  0.0490  2.3836
  148OSM    H3G16408   2.775   6.497   4.943 -0.4842 -0.0106 -0.3980
  148OSM    C4F16409   2.935   6.493   5.100 -0.6726 -0.2460 -0.2253
  148OSM    H4F16410   2.967   6.599   5.107  1.4282 -0.8350 -0.3343
  148OSM    H4G16411   3.026   6.439   5.134  0.6365  0.6399 -2.1113
  148OSM    C5F16412   2.821   6.476   5.206  0.3322  0.5253  0.9060
  148OSM    H5F16413   2.789   6.370   5.196 -1.7814  1.2021 -0.1837
  148OSM    H5G16414   2.735   6.546   5.195 -0.9467 -1.0931  0.0832
  148OSM    C6F16415   2.882   6.479   5.348 -0.4582  0.2768 -0.8928
  148OSM    H6F16416   2.863   6.581   5.389 -0.1591  0.7923 -1.9783
  148OSM    H6G16417   2.990   6.456   5.345 -0.5854 -0.3442 -0.7589
  148OSM    C7F16418   2.825   6.379   5.442 -0.5617 -0.0939 -0.3324
  148OSM    H7F16419   2.837   6.275   5.403 -2.4915 -1.3222  1.9899
  148OSM    H7G16420   2.719   6.410   5.456 -0.5959 -1.2087  2.6992
  148OSM    C8F16421   2.897   6.366   5.579 -1.1176 -0.3246  0.1806
  148OSM    H8F16422   2.869   6.263   5.611 -2.6567  0.3459  1.1090
  148OSM    H8G16423   2.847   6.436   5.649 -0.8242 -1.9810  2.1391
  148OSM    C9F16424   3.049   6.376   5.584  0.4771 -0.1694 -0.4900
  148OSM    H9F16425   3.104   6.287   5.550  0.8505 -0.3956  0.6831
  148OSM   C10F16426   3.120   6.483   5.638  0.2471 -0.2462  0.7994
  148OSM   H10F16427   3.230   6.482   5.644  0.3969  2.0925 -0.2627
  148OSM   C11F16428   3.073   6.614   5.690  0.0972  0.6615 -0.1997
  148OSM   H11F16429   2.972   6.604   5.735  0.6343 -0.6952  0.7952
  148OSM   H11G16430   3.059   6.677   5.600 -0.8567 -0.1338 -0.6353
  148OSM   C12F16431   3.157   6.688   5.795 -0.1690  0.1487 -0.4493
  148OSM   H12F16432   3.259   6.706   5.754  1.0319 -0.8501  1.9171
  148OSM   H12G16433   3.172   6.626   5.886  0.6596  1.1803  0.1360
  148OSM   C13F16434   3.087   6.813   5.837 -0.4287  0.4652  1.1266
  148OSM   H13F16435   2.982   6.785   5.857 -1.1696  0.2592 -2.4081
  148OSM   H13G16436   3.086   6.884   5.752 -0.5342 -0.2483  0.5180
  148OSM   C14F16437   3.150   6.887   5.959 -0.7179  0.1508 -0.0440
  148OSM   H14F16438   3.098   6.984   5.974 -1.1951 -0.0569 -0.3645
  148OSM   H14G16439   3.247   6.926   5.920 -2.3443  4.0157 -0.6862
  148OSM   C15F16440   3.164   6.802   6.084 -0.3121 -0.2108 -0.1447
  148OSM   H15F16441   3.224   6.711   6.061 -0.3151 -0.2516  0.0102
  148OSM   H15G16442   3.068   6.764   6.126 -0.0154 -1.9259 -0.9164
  148OSM   C16F16443   3.237   6.876   6.194 -0.2909 -0.5260 -0.3202
  148OSM   H16F16444   3.166   6.954   6.230 -0.0068 -0.3010 -0.2349
  148OSM   H16G16445   3.329   6.918   6.149 -0.4091 -0.2102 -0.2710
  148OSM   C17F16446   3.280   6.797   6.321  0.4295 -0.4887  0.5065
  148OSM   H17F16447   3.368   6.740   6.287 -0.9259 -1.7618 -1.0618
  148OSM   H17G16448   3.192   6.732   6.338  0.2135  0.0334  1.5086
  148OSM   C18F16449   3.310   6.878   6.450 -0.2603 -0.2962  0.3718
  148OSM   H18F16450   3.221   6.941   6.471  0.1815  1.0434 -1.5097
  148OSM   H18G16451   3.401   6.939   6.429 -0.2540 -0.3498  0.2463
  148OSM   H18H16452   3.331   6.811   6.536 -0.5919 -1.9937 -0.8321
  149OSM      N16453   2.833   5.625   3.906  0.1044  0.3230  0.8475
  149OSM    C1516454   2.687   5.634   3.898 -0.5154  0.4881 -0.1842
  149OSM   H15A16455   2.641   5.537   3.907  1.4086 -0.5206 -0.5843
  149OSM   H15B16456   2.665   5.685   3.805  1.2967  0.6181 -0.5825
  149OSM   H15C16457   2.653   5.685   3.986  0.6832 -1.4779  1.5084
  149OSM    C1416458   2.862   5.570   4.040  0.4006  0.2478 -0.3879
  149OSM   H14A16459   2.805   5.480   4.054  0.3378  0.4708  0.8821
  149OSM   H14B16460   2.831   5.645   4.111  1.0470  0.5332 -0.4016
  149OSM   H14C16461   2.968   5.553   4.046  0.4343  0.8128  0.7384
  149OSM    C1316462   2.887   5.530   3.803 -0.0814 -1.0693  0.6660
  149OSM   H13A16463   2.869   5.572   3.705 -0.3031 -1.1179  0.6846
  149OSM   H13B16464   2.846   5.430   3.807  0.5472 -1.6157 -2.8559
  149OSM   H13C16465   2.994   5.516   3.802 -0.0215 -1.2188 -2.8048
  149OSM    C1216466   2.909   5.757   3.893 -0.2198 -0.6377 -0.5825
  149OSM   H12A16467   3.013   5.738   3.913 -0.5856 -1.1244  1.0034
  149OSM   H12B16468   2.861   5.825   3.963  0.9762  2.3438 -2.4309
  149OSM    C1116469   2.923   5.831   3.754  0.6362 -0.2108  0.4743
  149OSM   H11A16470   3.001   5.766   3.708  0.3089 -0.7310  0.6386
  149OSM   H11B16471   2.966   5.933   3.761  0.8377 -0.0382 -2.2055
  149OSM      P16472   2.693   5.951   3.702  0.7138 -0.1955  0.3275
  149OSM    O1316473   2.739   6.071   3.630 -1.2838  0.2661 -0.2078
  149OSM    O1416474   2.556   5.910   3.667  0.2186  0.0210  0.4934
  149OSM    O1116475   2.701   5.969   3.862  0.1008 -0.4585 -0.1266
  149OSM    O1216476   2.797   5.836   3.675 -0.5442 -0.1762 -0.1370
  149OSM    C1S16477   2.620   6.062   3.937 -0.3232  0.0340 -0.8785
  149OSM    H1S16478   2.515   6.066   3.901 -0.8370 -1.9081  0.2755
  149OSM    H1T16479   2.679   6.156   3.936  0.1272 -0.2335  0.0216
  149OSM     NF16480   2.487   6.099   4.153 -0.0361 -0.1699 -0.7147
  149OSM    HNF16481   2.513   6.158   4.230  0.4238 -1.9561  0.5663
  149OSM    C2S16482   2.593   6.020   4.089 -0.1461  0.1074 -0.5266
  149OSM    H2S16483   2.554   5.917   4.101 -0.1593  0.0907 -0.7142
  149OSM    C3S16484   2.728   6.025   4.166 -0.0423 -1.0983  0.5134
  149OSM    H3S16485   2.739   6.135   4.181  1.6059 -1.0974 -0.4024
  149OSM     O316486   2.833   5.981   4.082 -0.1542 -0.6894 -0.1136
  149OSM    HO316487   2.789   5.977   3.997 -0.8220 -0.9680  0.2400
  149OSM    C4S16488   2.742   5.948   4.293 -0.1655  0.0658  0.8589
  149OSM    H4S16489   2.766   5.841   4.284 -1.8296 -0.5094  2.5330
  149OSM    C5S16490   2.721   5.994   4.423 -0.1567 -0.1969  0.3708
  149OSM    H5S16491   2.691   6.096   4.452  2.1943 -0.2962  3.7579
  149OSM    C6S16492   2.744   5.908   4.540  0.2348 -0.2776 -1.0560
  149OSM    H6S16493   2.853   5.890   4.551  0.4204  1.0394 -0.5468
  149OSM    H6T16494   2.676   5.821   4.536  1.4435 -1.2342 -1.6758
  149OSM    C7S16495   2.701   5.981   4.671  0.6533  0.2361 -0.5586
  149OSM    H7S16496   2.591   5.989   4.687  1.0118  0.7486  2.1895
  149OSM    H7T16497   2.740   6.084   4.679  1.1570  0.0107 -0.0289
  149OSM    C8S16498   2.738   5.896   4.793  0.2492  0.2815 -0.8686
  149OSM    H8S16499   2.849   5.897   4.785  0.2716  0.8485 -0.5326
  149OSM    H8T16500   2.698   5.792   4.791 -0.8280  0.5895  1.2018
  149OSM    C9S16501   2.696   5.957   4.929 -0.6876  0.2931  0.0989
  149OSM    H9S16502   2.588   5.984   4.934 -0.0802  2.7869  3.2878
  149OSM    H9T16503   2.756   6.050   4.939  0.2390 -0.2886  0.1338
  149OSM   C10S16504   2.717   5.867   5.045 -0.0624 -0.8576  0.1843
  149OSM   H10S16505   2.825   5.838   5.044  0.7521  1.9175 -0.8580
  149OSM   H10T16506   2.652   5.779   5.026 -0.7898  0.0306 -1.6861
  149OSM   C11S16507   2.672   5.940   5.171 -0.2122 -0.2247  0.1469
  149OSM   H11S16508   2.565   5.969   5.176  0.1110  0.9222  4.1901
  149OSM   H11T16509   2.736   6.030   5.173 -1.8142  0.9497  0.2403
  149OSM   C12S16510   2.702   5.872   5.310 -0.5060  0.4112  0.5236
  149OSM   H12S16511   2.811   5.874   5.331 -0.3722  2.1534 -0.1417
  149OSM   H12T16512   2.671   5.766   5.317 -2.1957  0.9413  1.8388
  149OSM   C13S16513   2.640   5.963   5.410 -0.6544 -0.6402 -0.4711
  149OSM   H13S16514   2.530   5.962   5.392 -0.8653  3.9514 -0.7097
  149OSM   H13T16515   2.668   6.067   5.382 -0.8217 -0.9700 -1.9594
  149OSM   C14S16516   2.687   5.929   5.557  0.1312 -0.0725 -0.5253
  149OSM   H14S16517   2.638   6.012   5.611  0.5250  0.3663 -0.8304
  149OSM   H14T16518   2.797   5.928   5.574 -0.0229  0.5206  0.5424
  149OSM   C15S16519   2.645   5.793   5.607 -0.2543 -0.3643  0.8726
  149OSM   H15S16520   2.693   5.719   5.540 -2.5236 -2.7973  1.7978
  149OSM   H15T16521   2.538   5.778   5.584 -0.2791  0.8090  0.1518
  149OSM   C16S16522   2.663   5.776   5.760 -0.2073 -0.0891  0.2994
  149OSM   H16S16523   2.587   5.697   5.779  0.7197 -1.7979 -2.5153
  149OSM   H16T16524   2.621   5.867   5.808  0.8322  1.8726 -2.2392
  149OSM   C17S16525   2.806   5.746   5.798 -0.4161 -1.0740 -0.4584
  149OSM   H17S16526   2.876   5.790   5.724 -0.6203  0.7250  0.3878
  149OSM   H17T16527   2.813   5.635   5.788 -0.6479 -0.9743 -2.0671
  149OSM   C18S16528   2.849   5.813   5.931 -0.0134 -0.0860  0.2385
  149OSM   H18S16529   2.811   5.918   5.933 -0.2626 -0.0899 -1.7304
  149OSM   H18T16530   2.959   5.813   5.939  0.0354  1.8733 -0.0766
  149OSM   H18U16531   2.802   5.754   6.013 -4.7107  1.5731 -0.9140
  149OSM    C1F16532   2.364   6.106   4.099  0.8527 -0.0020 -0.5810
  149OSM     OF16533   2.329   6.016   4.024 -0.3497  0.8645  0.0737
  149OSM    C2F16534   2.288   6.226   4.118 -0.1845  0.5178 -0.3935
  149OSM    H2F16535   2.256   6.263   4.018 -0.2609  2.4684  0.3093
  149OSM    H2G16536   2.341   6.313   4.162  0.3745 -0.5505  1.1059
  149OSM    C3F16537   2.154   6.194   4.188  0.0723 -0.2650 -0.3392
  149OSM    H3F16538   2.101   6.119   4.126  0.6025 -1.8690  1.0476
  149OSM    H3G16539   2.098   6.290   4.185  0.3105 -0.1340 -0.6197
  149OSM    C4F16540   2.168   6.143   4.331 -0.4452  0.0085  0.6061
  149OSM    H4F16541   2.257   6.191   4.377  1.1511 -0.0300 -2.1767
  149OSM    H4G16542   2.204   6.038   4.327 -1.0111 -0.1524 -1.5824
  149OSM    C5F16543   2.038   6.159   4.412  0.3848 -0.3788  0.1306
  149OSM    H5F16544   1.968   6.074   4.395  0.3753 -0.2258 -0.6572
  149OSM    H5G16545   1.990   6.247   4.365 -0.8517 -0.0460  1.9161
  149OSM    C6F16546   2.043   6.178   4.564  0.0578 -0.3363 -1.2619
  149OSM    H6F16547   2.122   6.253   4.587 -1.2303  0.6122  0.3168
  149OSM    H6G16548   2.078   6.082   4.607  0.0096  0.3854  0.4893
  149OSM    C7F16549   1.912   6.213   4.638  0.3823 -0.9644  0.4610
  149OSM    H7F16550   1.832   6.140   4.613 -0.2611  0.1077 -0.7588
  149OSM    H7G16551   1.884   6.310   4.593  2.0077 -1.4515 -1.7972
  149OSM    C8F16552   1.946   6.215   4.790 -0.4496  0.7549 -0.5956
  149OSM    H8F16553   2.007   6.306   4.804 -0.8392  0.9666 -0.2615
  149OSM    H8G16554   2.005   6.128   4.826  2.0826  2.3736 -0.5679
  149OSM    C9F16555   1.816   6.241   4.857 -0.4885  0.0438 -0.1525
  149OSM    H9F16556   1.745   6.300   4.796 -0.2008  1.6613  0.9977
  149OSM   C10F16557   1.769   6.192   4.974  0.8179  0.0071  0.3980
  149OSM   H10F16558   1.668   6.213   5.012 -0.2736 -2.6586 -0.7938
  149OSM   C11F16559   1.853   6.113   5.070  0.0386  0.3787  0.1210
  149OSM   H11F16560   1.935   6.064   5.013  0.8887  2.3704 -0.4550
  149OSM   H11G16561   1.785   6.034   5.109  0.7000  0.4292  1.4236
  149OSM   C12F16562   1.911   6.186   5.189 -0.2590 -0.2640  0.3260
  149OSM   H12F16563   1.971   6.270   5.148  1.9873 -2.3962 -1.0475
  149OSM   H12G16564   1.988   6.124   5.239  1.0654  1.0466 -0.0005
  149OSM   C13F16565   1.816   6.234   5.300 -0.0984 -0.5235  1.0383
  149OSM   H13F16566   1.743   6.159   5.337 -4.5291  1.3290 -2.7626
  149OSM   H13G16567   1.771   6.333   5.278  0.8059 -0.4382 -0.6490
  149OSM   C14F16568   1.914   6.266   5.418  0.4260 -0.0272 -0.1244
  149OSM   H14F16569   2.009   6.309   5.381  0.9928  0.3561  1.6719
  149OSM   H14G16570   1.941   6.166   5.458  1.3595  0.3329  0.1586
  149OSM   C15F16571   1.861   6.342   5.534 -0.2690 -0.3403 -0.1608
  149OSM   H15F16572   1.809   6.269   5.600  0.1949 -1.0699 -0.5917
  149OSM   H15G16573   1.798   6.427   5.499 -1.3200 -0.7615  0.6692
  149OSM   C16F16574   1.980   6.398   5.615 -0.1231 -0.7068 -0.3679
  149OSM   H16F16575   2.017   6.490   5.564 -1.2516  1.1515  1.9244
  149OSM   H16G16576   2.064   6.327   5.627  1.3583  1.0564  0.2774
  149OSM   C17F16577   1.939   6.455   5.752 -0.5446 -0.4152  0.9636
  149OSM   H17F16578   1.909   6.362   5.806 -0.4043 -1.1233 -0.1614
  149OSM   H17G16579   1.849   6.519   5.742 -0.1006 -0.0155 -0.6604
  149OSM   C18F16580   2.041   6.526   5.837  0.5276 -0.2818 -0.1493
  149OSM   H18F16581   1.994   6.542   5.936 -1.6504  2.0654 -1.4637
  149OSM   H18G16582   2.056   6.632   5.808 -1.6956  0.0888 -0.1216
  149OSM   H18H16583   2.142   6.481   5.834  0.8677  0.4570 -0.0822
  150OSM      N16584   0.568   1.492   4.104 -0.0381 -0.6352 -0.0968
  150OSM    C1516585   0.507   1.480   4.247 -0.1204 -0.1446  0.3577
  150OSM   H15A16586   0.573   1.511   4.327  1.2418 -1.4153 -0.2283
  150OSM   H15B16587   0.474   1.378   4.253 -0.8139 -0.0482 -1.3155
  150OSM   H15C16588   0.407   1.520   4.257 -1.0906 -2.2395 -0.3060
  150OSM    C1416589   0.459   1.474   3.997  0.1751 -0.0921 -0.8159
  150OSM   H14A16590   0.394   1.392   4.024 -0.7719  1.0719  0.5741
  150OSM   H14B16591   0.521   1.462   3.909  1.2973  1.6171 -0.3179
  150OSM   H14C16592   0.405   1.565   3.979 -1.3976 -1.0475 -1.0780
  150OSM    C1316593   0.632   1.627   4.086  0.4879  0.3558  0.0359
  150OSM   H13A16594   0.685   1.630   3.992 -1.0574  1.6218 -0.8643
  150OSM   H13B16595   0.698   1.652   4.168  0.4355  0.4857  0.0383
  150OSM   H13C16596   0.556   1.703   4.075 -2.7107 -2.7884 -1.4988
  150OSM    C1216597   0.674   1.381   4.083  0.5862 -1.3833 -1.0911
  150OSM   H12A16598   0.728   1.415   3.996 -2.1382  0.8479 -2.0932
  150OSM   H12B16599   0.628   1.287   4.057 -0.7069 -2.5127  4.0865
  150OSM    C1116600   0.780   1.366   4.198 -0.1291  0.2264 -0.5360
  150OSM   H11A16601   0.823   1.264   4.199  1.2748  0.7272 -2.7080
  150OSM   H11B16602   0.733   1.370   4.299 -3.7783  0.1349 -2.1038
  150OSM      P16603   0.998   1.443   4.085 -0.3091  0.3242 -0.2641
  150OSM    O1316604   0.945   1.390   3.955  0.3615  0.3286  0.3096
  150OSM    O1416605   1.092   1.558   4.081  0.5260 -0.0464 -0.2126
  150OSM    O1116606   1.077   1.325   4.155  0.5023  0.1372  0.4497
  150OSM    O1216607   0.881   1.470   4.187  0.6245 -0.7755  0.6070
  150OSM    C1S16608   1.152   1.347   4.276 -0.7719 -0.1731  0.2863
  150OSM    H1S16609   1.194   1.450   4.272 -0.3905 -0.2035  2.4818
  150OSM    H1T16610   1.237   1.277   4.281 -0.2443  0.4481  0.1855
  150OSM     NF16611   1.150   1.394   4.521  0.1773  0.3450  0.4611
  150OSM    HNF16612   1.196   1.338   4.590  1.4016  0.1300 -0.4807
  150OSM    C2S16613   1.074   1.323   4.415  0.3572  0.3713 -0.4605
  150OSM    H2S16614   0.974   1.372   4.410  0.5450  0.8079  0.0128
  150OSM    C3S16615   1.049   1.176   4.431 -0.2569 -0.6831 -1.0015
  150OSM    H3S16616   1.141   1.121   4.460 -0.9273 -1.1804  0.2516
  150OSM     O316617   1.000   1.111   4.318  0.2162  0.5259 -0.2560
  150OSM    HO316618   1.024   1.182   4.258 -0.1292  2.1421  1.4294
  150OSM    C4S16619   0.953   1.154   4.550  0.4453 -0.3953  0.5480
  150OSM    H4S16620   0.997   1.101   4.636 -1.1745 -0.7153  1.2191
  150OSM    C5S16621   0.828   1.195   4.556 -0.5230  0.4714 -0.6323
  150OSM    H5S16622   0.780   1.222   4.460 -0.6143  0.0785 -0.6962
  150OSM    C6S16623   0.743   1.186   4.678  1.3507  0.7221  0.2189
  150OSM    H6S16624   0.708   1.081   4.683  1.2145  0.6913 -0.9905
  150OSM    H6T16625   0.647   1.241   4.668  0.8023 -0.2373  0.0790
  150OSM    C7S16626   0.804   1.230   4.809 -0.4812 -0.2445 -0.0589
  150OSM    H7S16627   0.804   1.340   4.799  1.1872 -0.3973 -2.8103
  150OSM    H7T16628   0.906   1.195   4.834 -1.3760 -1.9280  1.5205
  150OSM    C8S16629   0.714   1.205   4.930  0.4181  0.0313 -0.5000
  150OSM    H8S16630   0.694   1.096   4.942  1.6652 -0.0376  1.5435
  150OSM    H8T16631   0.613   1.242   4.905  0.2358 -0.1845 -0.1008
  150OSM    C9S16632   0.763   1.269   5.062  0.4140  0.3020  0.1985
  150OSM    H9S16633   0.776   1.379   5.069 -1.0605  0.4051  2.6203
  150OSM    H9T16634   0.865   1.230   5.081  0.9334  1.3112 -0.4650
  150OSM   C10S16635   0.661   1.225   5.170  0.3738 -0.2660 -0.2794
  150OSM   H10S16636   0.653   1.114   5.176 -1.1772 -0.1476  0.1837
  150OSM   H10T16637   0.563   1.271   5.148  0.7341  0.7137  0.1113
  150OSM   C11S16638   0.709   1.271   5.312  0.4309 -0.1241 -1.0473
  150OSM   H11S16639   0.719   1.381   5.313 -0.4022 -0.0320  0.9360
  150OSM   H11T16640   0.810   1.225   5.320  0.5374  0.1787 -0.6166
  150OSM   C12S16641   0.622   1.227   5.432  0.6836 -0.2282  0.0554
  150OSM   H12S16642   0.632   1.122   5.464  1.2434 -0.0010  0.6562
  150OSM   H12T16643   0.519   1.249   5.398  0.9629  0.5185 -0.3448
  150OSM   C13S16644   0.642   1.322   5.554  0.6112  0.5081 -0.8201
  150OSM   H13S16645   0.606   1.421   5.519 -0.7918 -0.0841 -1.0940
  150OSM   H13T16646   0.752   1.334   5.567  0.1768  5.9704  0.1069
  150OSM   C14S16647   0.577   1.265   5.682  0.2172  0.6882  0.1753
  150OSM   H14S16648   0.652   1.199   5.732  1.9031  2.3591 -0.0140
  150OSM   H14T16649   0.482   1.214   5.659  0.8447 -0.8480  0.8683
  150OSM   C15S16650   0.537   1.375   5.778 -0.2003 -0.0703 -0.3152
  150OSM   H15S16651   0.491   1.458   5.720  1.5543  1.1111 -0.1001
  150OSM   H15T16652   0.633   1.420   5.811 -0.0623 -0.9144  0.4678
  150OSM   C16S16653   0.455   1.349   5.906  0.0326 -0.2750  0.6839
  150OSM   H16S16654   0.349   1.354   5.871  0.8502  0.4398 -1.8978
  150OSM   H16T16655   0.474   1.424   5.985 -1.9849  0.8517  0.1841
  150OSM   C17S16656   0.470   1.207   5.965  1.0730 -0.3965  0.1194
  150OSM   H17S16657   0.561   1.206   6.028  0.0084  2.2941  1.9236
  150OSM   H17T16658   0.479   1.131   5.885 -0.4163  0.8692 -1.3168
  150OSM   C18S16659   0.337   1.173   6.039  0.3491  0.7079 -0.0818
  150OSM   H18S16660   0.314   1.226   6.134  0.0865 -3.4949  2.4124
  150OSM   H18T16661   0.329   1.069   6.075 -0.8919 -0.0351 -2.3364
  150OSM   H18U16662   0.247   1.184   5.975 -0.7603 -0.1607  1.2878
  150OSM    C1F16663   1.149   1.524   4.539 -0.1973 -0.6268  0.3451
  150OSM     OF16664   1.077   1.604   4.479 -0.8142 -0.1295  0.5731
  150OSM    C2F16665   1.239   1.585   4.643  0.8116 -0.4459 -0.1853
  150OSM    H2F16666   1.302   1.665   4.598 -0.1515 -0.4122 -1.5502
  150OSM    H2G16667   1.314   1.512   4.682  1.6331 -0.3691 -1.5561
  150OSM    C3F16668   1.159   1.641   4.767 -0.2352  0.4905  0.4132
  150OSM    H3F16669   1.123   1.739   4.727 -0.5865  0.8349  1.5533
  150OSM    H3G16670   1.236   1.672   4.841  2.6283 -2.7498 -0.9257
  150OSM    C4F16671   1.050   1.549   4.819 -0.0290  0.0124  0.2823
  150OSM    H4F16672   1.074   1.441   4.808 -0.1647  0.0517 -0.5252
  150OSM    H4G16673   0.950   1.555   4.771  0.0149  3.8358  0.3827
  150OSM    C5F16674   1.001   1.585   4.964  0.3104  0.1899 -0.0046
  150OSM    H5F16675   0.901   1.543   4.987  0.3220  0.9346  1.4840
  150OSM    H5G16676   0.997   1.695   4.976  0.4322  0.2069 -0.1165
  150OSM    C6F16677   1.102   1.542   5.074  0.0832  0.4079  0.5341
  150OSM    H6F16678   1.204   1.567   5.038 -1.1876  1.7439 -2.4830
  150OSM    H6G16679   1.087   1.432   5.085  2.3241  0.0371  0.2508
  150OSM    C7F16680   1.078   1.613   5.213  0.1562  0.2549 -0.3890
  150OSM    H7F16681   0.974   1.600   5.250 -0.0748  3.2095  0.2756
  150OSM    H7G16682   1.098   1.722   5.220 -1.4550  0.6518 -1.4347
  150OSM    C8F16683   1.160   1.552   5.329 -0.5644  0.1275  0.5274
  150OSM    H8F16684   1.246   1.499   5.282 -0.6439  0.6145 -0.1842
  150OSM    H8G16685   1.092   1.473   5.367  0.0540 -0.4585  0.4400
  150OSM    C9F16686   1.220   1.643   5.430 -0.4284  0.2756 -0.2638
  150OSM    H9F16687   1.276   1.730   5.392  0.5197 -0.0599  0.3394
  150OSM   C10F16688   1.198   1.643   5.560 -0.9772  0.2018 -0.6818
  150OSM   H10F16689   1.255   1.711   5.624 -1.4976  0.0547 -0.0461
  150OSM   C11F16690   1.104   1.558   5.637 -1.3490  0.1362 -0.5780
  150OSM   H11F16691   1.156   1.492   5.711 -2.1070  0.9785  0.7552
  150OSM   H11G16692   1.041   1.494   5.571 -0.0192 -0.1293 -1.6294
  150OSM   C12F16693   0.996   1.643   5.701  0.1360  0.5347 -0.4600
  150OSM   H12F16694   0.906   1.580   5.716 -0.5131  1.7322  1.0475
  150OSM   H12G16695   0.957   1.719   5.629 -0.7063  2.2176  1.6558
  150OSM   C13F16696   1.038   1.690   5.837  0.4584 -0.9350 -0.1764
  150OSM   H13F16697   1.137   1.738   5.822  0.7629 -0.4659  2.6918
  150OSM   H13G16698   1.044   1.600   5.901 -4.5499 -0.0188  2.1228
  150OSM   C14F16699   0.944   1.800   5.896 -0.5545 -0.1587 -0.4534
  150OSM   H14F16700   0.979   1.815   6.001 -0.8898 -0.9596 -0.2158
  150OSM   H14G16701   0.847   1.746   5.910 -0.0782 -0.8722  0.2044
  150OSM   C15F16702   0.945   1.929   5.809  0.5387 -0.0589 -0.3698
  150OSM   H15F16703   0.904   1.904   5.708 -2.9485  2.4574  0.2280
  150OSM   H15G16704   1.051   1.962   5.802  0.6219 -0.2795 -0.1731
  150OSM   C16F16705   0.870   2.048   5.864 -0.2232  0.4286 -0.2621
  150OSM   H16F16706   0.911   2.093   5.957  2.2883  0.7455 -1.4481
  150OSM   H16G16707   0.768   2.014   5.890  0.7582 -0.5623  2.6102
  150OSM   C17F16708   0.857   2.164   5.764 -0.1094 -0.1704 -1.0023
  150OSM   H17F16709   0.776   2.230   5.801 -0.4928 -0.2739 -1.6505
  150OSM   H17G16710   0.825   2.125   5.665 -1.5396  1.0287 -1.0348
  150OSM   C18F16711   0.979   2.252   5.750 -0.3001 -0.1749  0.8430
  150OSM   H18F16712   1.056   2.241   5.829  0.1607 -2.6296  0.1396
  150OSM   H18G16713   0.946   2.356   5.730  1.9693  0.1945 -1.3966
  150OSM   H18H16714   1.034   2.211   5.662 -0.0892  0.8201  0.5011
  151OSM      N16715   1.808   1.220   4.041  0.2702 -0.0354  0.3731
  151OSM    C1516716   1.884   1.291   3.929 -0.3132 -0.1179  0.2652
  151OSM   H15A16717   1.976   1.331   3.967  0.1880 -0.6171 -0.3991
  151OSM   H15B16718   1.827   1.379   3.906  0.9077  0.8880  0.9832
  151OSM   H15C16719   1.908   1.219   3.852 -1.1209 -2.4509  2.0611
  151OSM    C1416720   1.685   1.163   3.971  0.7861 -0.2272  0.0643
  151OSM   H14A16721   1.618   1.246   3.955  3.2652  2.3169  1.8958
  151OSM   H14B16722   1.633   1.093   4.035 -1.9439  1.3976 -0.2002
  151OSM   H14C16723   1.706   1.110   3.879  1.1565 -0.4164  0.2582
  151OSM    C1316724   1.891   1.102   4.074  0.3643 -0.5499 -0.8394
  151OSM   H13A16725   1.854   1.035   4.150  0.4037  0.3731  0.0037
  151OSM   H13B16726   1.990   1.130   4.104 -0.1698  0.7416 -0.1971
  151OSM   H13C16727   1.910   1.045   3.984  1.3581 -2.6362  0.6231
  151OSM    C1216728   1.768   1.305   4.164 -0.2412  0.2352  0.4448
  151OSM   H12A16729   1.662   1.316   4.151 -0.3426 -1.3620 -0.2892
  151OSM   H12B16730   1.829   1.395   4.163  1.8615 -1.1035 -1.5486
  151OSM    C1116731   1.779   1.239   4.307  0.7136  0.2715  0.3093
  151OSM   H11A16732   1.730   1.316   4.371 -1.7214 -1.8101  1.1182
  151OSM   H11B16733   1.886   1.231   4.333  0.5651  1.8038  1.5827
  151OSM      P16734   1.563   1.085   4.292 -0.3626 -0.1450 -0.1621
  151OSM    O1316735   1.496   1.212   4.274 -0.1958 -0.6115 -0.3250
  151OSM    O1416736   1.551   0.979   4.190 -0.1923  0.0192  0.0307
  151OSM    O1116737   1.511   1.015   4.421  0.7383  0.7943  0.0560
  151OSM    O1216738   1.720   1.109   4.320 -0.4028  0.0407 -0.3249
  151OSM    C1S16739   1.503   1.088   4.545 -0.0895  0.3335  0.5210
  151OSM    H1S16740   1.452   1.184   4.524 -0.7826 -0.2571 -0.6171
  151OSM    H1T16741   1.604   1.107   4.588 -0.3557 -1.0816  1.8764
  151OSM     NF16742   1.441   1.084   4.788 -0.0322 -0.2421 -0.3739
  151OSM    HNF16743   1.514   1.062   4.852 -0.7346 -2.8603 -0.3841
  151OSM    C2S16744   1.438   1.009   4.665  0.2949 -0.3436  0.6393
  151OSM    H2S16745   1.333   0.988   4.637  0.6112 -0.5169 -0.4611
  151OSM    C3S16746   1.501   0.870   4.677 -0.7408 -0.1644  0.2236
  151OSM    H3S16747   1.611   0.881   4.686 -0.8658 -0.0862  2.1523
  151OSM     O316748   1.478   0.783   4.566  0.4924  0.1807  0.6139
  151OSM    HO316749   1.435   0.843   4.505 -0.0135  1.2180  1.9558
  151OSM    C4S16750   1.459   0.807   4.809  0.4300  0.0157  0.6410
  151OSM    H4S16751   1.510   0.843   4.899  1.1615 -1.9262  1.0580
  151OSM    C5S16752   1.368   0.710   4.833  0.6666  0.2314  0.2679
  151OSM    H5S16753   1.310   0.663   4.753  2.0488 -2.1297  0.5697
  151OSM    C6S16754   1.333   0.656   4.965 -0.2079  0.9573 -0.4367
  151OSM    H6S16755   1.407   0.576   4.988  0.3807  1.8462  0.8987
  151OSM    H6T16756   1.228   0.619   4.970  0.1557 -0.0199  0.2453
  151OSM    C7S16757   1.355   0.755   5.075 -0.0108  0.2259 -0.0249
  151OSM    H7S16758   1.289   0.842   5.054 -1.6382 -1.0557 -0.4672
  151OSM    H7T16759   1.463   0.777   5.085  0.3900 -0.6857 -1.8820
  151OSM    C8S16760   1.309   0.699   5.212  0.5849 -0.3491  0.1236
  151OSM    H8S16761   1.338   0.593   5.225  0.2406 -0.7563 -1.9969
  151OSM    H8T16762   1.198   0.707   5.211  0.5103 -1.0426  1.1761
  151OSM    C9S16763   1.375   0.776   5.324 -0.0426 -0.1068 -0.0626
  151OSM    H9S16764   1.337   0.880   5.325 -0.7072 -0.3228  2.0602
  151OSM    H9T16765   1.486   0.772   5.314  0.1068  3.0939 -0.6311
  151OSM   C10S16766   1.337   0.710   5.463  0.0781  0.1951  0.3601
  151OSM   H10S16767   1.402   0.751   5.543 -0.2079  2.0093 -0.2918
  151OSM   H10T16768   1.362   0.602   5.452  0.5048  0.3793 -0.6160
  151OSM   C11S16769   1.194   0.724   5.511 -0.6643  0.1929  0.1380
  151OSM   H11S16770   1.126   0.705   5.425  0.3458 -0.9688 -0.4177
  151OSM   H11T16771   1.200   0.835   5.519  0.3440  0.1318  0.3295
  151OSM   C12S16772   1.147   0.658   5.637  0.2296  0.5059  0.0892
  151OSM   H12S16773   1.162   0.549   5.621 -0.8071  0.6288 -2.0379
  151OSM   H12T16774   1.036   0.665   5.644  0.3886  1.7124  2.8414
  151OSM   C13S16775   1.218   0.713   5.765 -0.1784  0.6672  0.3388
  151OSM   H13S16776   1.207   0.823   5.758 -0.4960  0.6086 -0.1699
  151OSM   H13T16777   1.324   0.681   5.768  0.0166  1.3534  0.9170
  151OSM   C14S16778   1.154   0.653   5.888  0.1611 -0.1133 -0.2446
  151OSM   H14S16779   1.163   0.543   5.888  0.4428 -0.0979 -1.0970
  151OSM   H14T16780   1.046   0.680   5.895 -0.1103 -1.4393  1.5115
  151OSM   C15S16781   1.204   0.711   6.022 -1.3117 -0.5967 -0.1700
  151OSM   H15S16782   1.194   0.822   6.022  0.7646 -0.3633  0.0795
  151OSM   H15T16783   1.311   0.696   6.047 -0.9713  0.6907 -0.7558
  151OSM   C16S16784   1.119   0.666   6.136  0.0702  0.1756 -0.7549
  151OSM   H16S16785   1.013   0.642   6.115 -0.6751  1.0836  1.6648
  151OSM   H16T16786   1.123   0.742   6.217 -0.9065 -0.0611 -0.4660
  151OSM   C17S16787   1.173   0.535   6.203 -0.1916 -0.1739  0.0482
  151OSM   H17S16788   1.282   0.550   6.219  0.6106  0.6026 -4.6093
  151OSM   H17T16789   1.172   0.445   6.137  0.8593 -1.2974  1.5050
  151OSM   C18S16790   1.108   0.494   6.330  0.3402 -0.3403 -0.3995
  151OSM   H18S16791   0.997   0.497   6.323  0.2937 -0.7507  0.1091
  151OSM   H18T16792   1.147   0.552   6.416  1.6978 -1.3944 -0.2809
  151OSM   H18U16793   1.127   0.385   6.347  1.2110 -0.5814 -2.5671
  151OSM    C1F16794   1.365   1.193   4.802  0.0877  0.5385  0.0977
  151OSM     OF16795   1.288   1.234   4.717 -0.4754 -0.1409 -0.4606
  151OSM    C2F16796   1.366   1.265   4.932 -0.1653  0.1134  0.6955
  151OSM    H2F16797   1.367   1.372   4.903 -1.2538  0.0753  0.4706
  151OSM    H2G16798   1.455   1.243   4.994 -0.9977 -2.4020  1.1305
  151OSM    C3F16799   1.243   1.222   5.019  0.3759  0.7119 -0.0606
  151OSM    H3F16800   1.207   1.119   5.002  0.8183  0.5731 -0.1553
  151OSM    H3G16801   1.160   1.284   4.979 -0.3204 -0.1635  0.0083
  151OSM    C4F16802   1.261   1.243   5.172 -0.2113  0.1208 -0.5173
  151OSM    H4F16803   1.159   1.253   5.216 -0.8497  0.1753 -1.9577
  151OSM    H4G16804   1.312   1.341   5.169 -0.4779  0.2689 -0.3098
  151OSM    C5F16805   1.351   1.142   5.247  0.0023 -0.1551 -0.3446
  151OSM    H5F16806   1.436   1.129   5.177 -0.8492  0.2840 -1.4938
  151OSM    H5G16807   1.290   1.049   5.237 -1.8880  1.1503 -1.6079
  151OSM    C6F16808   1.393   1.187   5.392 -0.1576  0.4827 -0.1875
  151OSM    H6F16809   1.297   1.206   5.444 -0.2299 -1.3989  0.4498
  151OSM    H6G16810   1.450   1.281   5.375  0.0721  0.3913  0.0662
  151OSM    C7F16811   1.481   1.093   5.473  0.2277  0.1426 -0.0959
  151OSM    H7F16812   1.569   1.068   5.410 -1.3640 -1.9273 -1.6114
  151OSM    H7G16813   1.423   0.999   5.487 -1.7759  0.8510 -2.8665
  151OSM    C8F16814   1.515   1.157   5.605 -0.0966 -0.5354  0.4316
  151OSM    H8F16815   1.420   1.190   5.653 -0.2003  2.6147 -1.6938
  151OSM    H8G16816   1.563   1.257   5.595  2.4810 -1.7153  0.3082
  151OSM    C9F16817   1.609   1.073   5.684  0.2159  0.1698  0.3136
  151OSM    H9F16818   1.696   1.028   5.635 -1.5599 -1.9517 -1.0900
  151OSM   C10F16819   1.588   1.038   5.811 -0.1047 -0.0611  0.1068
  151OSM   H10F16820   1.655   0.969   5.865  0.5675  0.7941  0.3821
  151OSM   C11F16821   1.456   1.065   5.890 -0.1834 -0.6723  0.6665
  151OSM   H11F16822   1.372   1.013   5.839  0.0284 -0.1217 -0.2590
  151OSM   H11G16823   1.442   1.175   5.892  0.4977 -0.5190 -1.1507
  151OSM   C12F16824   1.475   1.019   6.037  0.3125 -0.0415 -1.0558
  151OSM   H12F16825   1.570   1.066   6.071 -0.3081  0.2176  0.3982
  151OSM   H12G16826   1.497   0.912   6.056  1.0724  0.4877  1.2644
  151OSM   C13F16827   1.360   1.057   6.130  0.0060 -0.2743 -0.2386
  151OSM   H13F16828   1.275   0.996   6.094  0.9915 -1.5924 -0.4075
  151OSM   H13G16829   1.337   1.166   6.122  0.3739 -0.2419 -1.0406
  151OSM   C14F16830   1.383   1.030   6.282  0.0537  0.3071  0.2425
  151OSM   H14F16831   1.438   1.119   6.319 -1.8250  1.5104  0.3123
  151OSM   H14G16832   1.438   0.938   6.311  2.1890  1.1616 -0.9025
  151OSM   C15F16833   1.260   1.026   6.378 -0.7722 -0.6092 -0.0805
  151OSM   H15F16834   1.183   0.949   6.355 -0.8590 -0.0513 -1.8123
  151OSM   H15G16835   1.209   1.123   6.357 -1.3665 -0.4474  1.9075
  151OSM   C16F16836   1.300   1.023   6.527 -0.4236 -0.4740  0.0630
  151OSM   H16F16837   1.210   1.032   6.591  1.3395  0.2515  2.6069
  151OSM   H16G16838   1.355   1.114   6.560 -2.8291  0.6715  1.1025
  151OSM   C17F16839   1.368   0.896   6.580 -0.3364  0.1184  0.0139
  151OSM   H17F16840   1.467   0.893   6.530  0.2325  0.6544  1.0709
  151OSM   H17G16841   1.303   0.811   6.548  1.5439 -1.2970 -0.2054
  151OSM   C18F16842   1.377   0.893   6.729  0.5744  0.3304  0.1581
  151OSM   H18F16843   1.397   0.991   6.775  0.0830  0.2664  0.5065
  151OSM   H18G16844   1.464   0.827   6.750 -0.2491 -0.2219  2.0015
  151OSM   H18H16845   1.295   0.838   6.780  1.6813 -0.3706  1.2633
  152OSM      N16846   1.571   1.795   3.916 -0.0784  0.3753  0.1377
  152OSM    C1516847   1.686   1.892   3.938 -0.1213  0.4230 -0.3022
  152OSM   H15A16848   1.767   1.875   3.869 -0.8745  1.1543 -1.4025
  152OSM   H15B16849   1.716   1.872   4.040  0.4563 -2.9645 -1.0174
  152OSM   H15C16850   1.664   1.996   3.919  2.4179  0.9534 -0.6052
  152OSM    C1416851   1.445   1.856   3.966  1.0375  0.4459  0.8959
  152OSM   H14A16852   1.364   1.787   3.953  0.5073  0.6500  2.7503
  152OSM   H14B16853   1.420   1.949   3.916  1.1822  0.8563  1.5720
  152OSM   H14C16854   1.458   1.877   4.072  0.9103  1.5073  0.7174
  152OSM    C1316855   1.561   1.774   3.768  0.7677  0.7164  0.8500
  152OSM   H13A16856   1.519   1.859   3.717  1.9109  0.4824 -0.5375
  152OSM   H13B16857   1.505   1.687   3.738 -0.0205 -0.0456  4.0714
  152OSM   H13C16858   1.661   1.762   3.730 -0.1222  0.1377 -1.4639
  152OSM    C1216859   1.599   1.662   3.986  0.1778  0.3688 -0.4374
  152OSM   H12A16860   1.685   1.630   3.929 -0.2196 -1.7225  0.0613
  152OSM   H12B16861   1.522   1.590   3.962 -0.0686 -0.0698  1.4549
  152OSM    C1116862   1.632   1.654   4.140 -0.1929 -0.3008 -0.4640
  152OSM   H11A16863   1.637   1.546   4.167  0.9309 -0.6602 -1.9937
  152OSM   H11B16864   1.553   1.694   4.207 -0.9345 -0.0909 -1.4540
  152OSM      P16865   1.878   1.652   4.229  0.1222 -0.4467  0.2815
  152OSM    O1316866   1.936   1.560   4.132 -0.0460  0.1513 -0.4854
  152OSM    O1416867   1.964   1.751   4.290  0.5371  0.5804  0.0222
  152OSM    O1116868   1.835   1.552   4.342  0.3941  0.0807 -1.0664
  152OSM    O1216869   1.747   1.725   4.174 -0.2212 -0.2873 -0.5127
  152OSM    C1S16870   1.908   1.537   4.458  0.5538 -0.0203  0.2378
  152OSM    H1S16871   2.016   1.559   4.442  0.4625  1.2336  1.1951
  152OSM    H1T16872   1.904   1.427   4.473  0.0684  0.0536  0.6704
  152OSM     NF16873   1.904   1.576   4.699 -0.5132  0.0241 -0.1648
  152OSM    HNF16874   1.869   1.501   4.755 -0.8395  1.3538  1.4763
  152OSM    C2S16875   1.837   1.595   4.582 -0.4868 -0.2806 -0.4577
  152OSM    H2S16876   1.851   1.703   4.559  0.8421  0.1738  2.1480
  152OSM    C3S16877   1.688   1.553   4.589  0.5080  0.2854 -0.0848
  152OSM    H3S16878   1.685   1.442   4.596 -3.2802  0.3294  1.0792
  152OSM     O316879   1.613   1.575   4.469  0.0928  0.1625 -0.3733
  152OSM    HO316880   1.695   1.574   4.419  2.0761  2.2833  2.5097
  152OSM    C4S16881   1.608   1.616   4.703 -0.2580 -0.2838 -0.5777
  152OSM    H4S16882   1.592   1.725   4.712 -0.3533 -0.3446  0.0119
  152OSM    C5S16883   1.553   1.552   4.817  0.8473  0.3508 -0.1803
  152OSM    H5S16884   1.568   1.445   4.836  0.6922  0.4234  0.3574
  152OSM    C6S16885   1.489   1.637   4.929 -0.1331  0.0271  0.5440
  152OSM    H6S16886   1.398   1.583   4.962 -0.7488  1.0644  0.5789
  152OSM    H6T16887   1.463   1.735   4.884 -0.1792 -0.2896 -0.1340
  152OSM    C7S16888   1.570   1.676   5.057 -0.7669 -0.7788 -0.4647
  152OSM    H7S16889   1.503   1.712   5.138  0.6152  1.9524 -0.4276
  152OSM    H7T16890   1.616   1.773   5.030 -0.8245 -0.3414  0.9193
  152OSM    C8S16891   1.672   1.568   5.103 -0.4552  0.3100  0.7435
  152OSM    H8S16892   1.754   1.564   5.028 -1.7457 -0.9527 -0.6687
  152OSM    H8T16893   1.629   1.466   5.113 -1.8650  0.3779 -2.8956
  152OSM    C9S16894   1.744   1.614   5.234 -0.0052  0.3399 -0.0075
  152OSM    H9S16895   1.794   1.711   5.213 -1.1436  0.6186 -1.5817
  152OSM    H9T16896   1.827   1.541   5.245 -0.5686 -0.1758  0.9359
  152OSM   C10S16897   1.660   1.602   5.360  0.0109 -0.3985  0.0549
  152OSM   H10S16898   1.618   1.501   5.374  1.7351 -1.3946 -1.4448
  152OSM   H10T16899   1.580   1.680   5.359  0.9077  0.5469 -0.3787
  152OSM   C11S16900   1.744   1.634   5.485 -0.5184  0.5802 -0.6629
  152OSM   H11S16901   1.813   1.719   5.468  1.7425 -0.3053  2.9510
  152OSM   H11T16902   1.799   1.538   5.496 -1.2016  0.4032  1.9211
  152OSM   C12S16903   1.677   1.665   5.617  0.1072  0.4148  0.2819
  152OSM   H12S16904   1.637   1.769   5.620 -1.1798 -0.0869  1.3064
  152OSM   H12T16905   1.754   1.655   5.696  0.6628  0.0405 -0.2947
  152OSM   C13S16906   1.560   1.575   5.659 -0.0519 -0.5762  0.5208
  152OSM   H13S16907   1.578   1.469   5.630 -0.1086 -0.3760 -0.2671
  152OSM   H13T16908   1.475   1.598   5.591  0.0710 -2.7360 -0.4526
  152OSM   C14S16909   1.531   1.582   5.809 -0.2492  0.1172  0.4565
  152OSM   H14S16910   1.473   1.674   5.830 -1.1234 -0.2666 -0.2244
  152OSM   H14T16911   1.618   1.591   5.878 -0.4669 -0.2848  0.7906
  152OSM   C15S16912   1.453   1.455   5.850  0.0745 -0.6004  0.1227
  152OSM   H15S16913   1.524   1.370   5.840  2.9712  1.8344 -1.5692
  152OSM   H15T16914   1.370   1.437   5.778 -0.3316 -1.8505  0.8791
  152OSM   C16S16915   1.425   1.455   5.995  0.2137 -0.3060  0.2909
  152OSM   H16S16916   1.525   1.468   6.043  1.5233  2.6212 -2.7482
  152OSM   H16T16917   1.393   1.352   6.023  2.7598 -1.0818  0.6149
  152OSM   C17S16918   1.328   1.565   6.043  0.0985  0.3977  0.0223
  152OSM   H17S16919   1.228   1.531   6.009  0.9731 -3.4524  0.8500
  152OSM   H17T16920   1.361   1.667   6.014  1.3283 -0.2290 -0.8619
  152OSM   C18S16921   1.339   1.543   6.196 -0.0600 -0.4305 -0.2351
  152OSM   H18S16922   1.271   1.612   6.250 -0.2461 -0.4099 -0.4961
  152OSM   H18T16923   1.441   1.559   6.238  0.5928 -1.9057 -1.1649
  152OSM   H18U16924   1.301   1.441   6.217  0.3750 -0.4730  0.3747
  152OSM    C1F16925   2.026   1.627   4.723  0.6204  0.1457  0.1608
  152OSM     OF16926   2.079   1.727   4.671  0.0235  0.4181  0.2277
  152OSM    C2F16927   2.100   1.563   4.838 -0.1121  0.3543  0.9745
  152OSM    H2F16928   2.167   1.486   4.793 -1.9745 -0.3184 -0.8060
  152OSM    H2G16929   2.021   1.505   4.891  0.0705 -0.7391  0.0811
  152OSM    C3F16930   2.163   1.660   4.931  0.3663  0.0684 -0.2581
  152OSM    H3F16931   2.101   1.751   4.949 -0.6136 -0.3961 -1.1558
  152OSM    H3G16932   2.258   1.706   4.898 -1.5943  2.0100 -3.7659
  152OSM    C4F16933   2.191   1.599   5.071  0.6386 -0.0295  0.2285
  152OSM    H4F16934   2.244   1.504   5.046 -1.2345 -0.9568 -0.5235
  152OSM    H4G16935   2.098   1.575   5.127  0.6571 -0.6225  0.0111
  152OSM    C5F16936   2.276   1.686   5.165  0.7113 -0.7042 -0.2922
  152OSM    H5F16937   2.219   1.781   5.179  0.4159 -0.9116 -0.0592
  152OSM    H5G16938   2.363   1.726   5.109  1.2625 -1.0385  0.3136
  152OSM    C6F16939   2.302   1.647   5.314 -0.9944  0.0916 -0.4731
  152OSM    H6F16940   2.381   1.721   5.339  1.1820 -2.7132  1.4749
  152OSM    H6G16941   2.349   1.547   5.317  0.8328  0.9246  0.1879
  152OSM    C7F16942   2.185   1.649   5.405 -0.5158 -0.7799  0.0259
  152OSM    H7F16943   2.103   1.588   5.359 -0.3816 -0.6049 -0.4517
  152OSM    H7G16944   2.152   1.755   5.409  1.3111 -0.1759  0.0107
  152OSM    C8F16945   2.224   1.605   5.551  0.2754  0.5919  0.2423
  152OSM    H8F16946   2.292   1.680   5.596 -0.9953  2.7705 -1.2734
  152OSM    H8G16947   2.285   1.512   5.544  0.3344  0.5555  1.1384
  152OSM    C9F16948   2.099   1.600   5.630 -0.1231 -0.0916  0.1471
  152OSM    H9F16949   2.012   1.545   5.592 -1.3156  0.1469  2.3855
  152OSM   C10F16950   2.078   1.652   5.754 -0.1102  0.0190 -0.5032
  152OSM   H10F16951   1.983   1.625   5.802 -0.3206  0.4098 -0.6989
  152OSM   C11F16952   2.174   1.722   5.853  0.2358  0.1905 -0.2529
  152OSM   H11F16953   2.199   1.817   5.802  2.2214 -0.3152 -0.3344
  152OSM   H11G16954   2.271   1.668   5.861  0.0704 -0.0687  0.0179
  152OSM   C12F16955   2.118   1.734   5.993 -0.2912  0.2930  0.4464
  152OSM   H12F16956   2.012   1.768   5.988 -0.4670 -0.3456 -0.4534
  152OSM   H12G16957   2.173   1.811   6.051 -1.9738  1.4024  0.6302
  152OSM   C13F16958   2.112   1.603   6.066  0.6191 -0.5227  0.2685
  152OSM   H13F16959   2.070   1.517   6.010  0.0615 -1.2023  1.6822
  152OSM   H13G16960   2.054   1.630   6.157 -0.2107  2.2045 -0.9651
  152OSM   C14F16961   2.257   1.551   6.101  0.3389 -0.1654 -0.4158
  152OSM   H14F16962   2.307   1.635   6.154  0.0193 -0.5426  0.5177
  152OSM   H14G16963   2.317   1.544   6.009 -1.6983 -1.2716 -1.7452
  152OSM   C15F16964   2.250   1.423   6.187  0.2554  0.8581 -0.5001
  152OSM   H15F16965   2.356   1.389   6.191  0.4254  1.4862  1.9858
  152OSM   H15G16966   2.188   1.341   6.144  0.9516 -0.0349  0.1458
  152OSM   C16F16967   2.211   1.440   6.332 -0.1735 -0.2793 -0.1034
  152OSM   H16F16968   2.104   1.468   6.340 -0.4633 -0.9298 -1.4474
  152OSM   H16G16969   2.265   1.524   6.381 -1.4330 -0.2953  1.3943
  152OSM   C17F16970   2.221   1.311   6.419 -0.5471 -1.1215 -0.2376
  152OSM   H17F16971   2.328   1.291   6.442 -0.3145  0.0823 -0.1670
  152OSM   H17G16972   2.181   1.219   6.373  1.1724 -1.2406 -1.5997
  152OSM   C18F16973   2.157   1.334   6.563  0.6562 -0.2523 -0.2463
  152OSM   H18F16974   2.048   1.348   6.547  0.5004 -0.5167  0.5189
  152OSM   H18G16975   2.198   1.427   6.607  2.0033 -1.6395  1.6048
  152OSM   H18H16976   2.178   1.245   6.626 -0.8754 -0.3045  0.2372
  153OSM      N16977   0.921   2.387   4.091  0.1335 -0.2859 -0.0394
  153OSM    C1516978   0.830   2.301   4.168 -0.2412 -0.1330 -0.4388
  153OSM   H15A16979   0.772   2.244   4.097 -1.9341  1.2452 -0.2117
  153OSM   H15B16980   0.759   2.353   4.231 -2.5617 -2.7438 -0.7061
  153OSM   H15C16981   0.881   2.238   4.239 -2.5674  0.2432  1.7001
  153OSM    C1416982   0.838   2.490   4.029  0.0264  0.2343 -0.3978
  153OSM   H14A16983   0.882   2.566   3.967 -0.4588  2.3175  1.6908
  153OSM   H14B16984   0.781   2.552   4.097 -2.4481  1.3553 -3.2781
  153OSM   H14C16985   0.757   2.445   3.973 -0.3997  0.0427  0.3468
  153OSM    C1316986   1.025   2.441   4.184  0.6014 -0.1321  0.6154
  153OSM   H13A16987   1.069   2.369   4.252 -0.0708 -0.6973  0.4671
  153OSM   H13B16988   0.988   2.525   4.241 -3.1856 -1.1797 -0.0465
  153OSM   H13C16989   1.113   2.472   4.129 -0.4051  1.7191 -0.0510
  153OSM    C1216990   0.995   2.303   3.985  0.9992  0.5411 -0.6634
  153OSM   H12A16991   0.921   2.286   3.908 -0.8018  0.6578  0.9953
  153OSM   H12B16992   1.001   2.205   4.029 -0.1943  1.0388  0.6705
  153OSM    C1116993   1.113   2.373   3.907 -0.3237 -0.2195 -0.6711
  153OSM   H11A16994   1.078   2.468   3.862 -2.9988 -0.7532  0.0779
  153OSM   H11B16995   1.137   2.305   3.823 -0.1085 -1.7410  0.5608
  153OSM      P16996   1.337   2.283   4.002  0.1771 -0.5034 -0.1153
  153OSM    O1316997   1.315   2.157   3.931 -0.2356  0.1937  0.7097
  153OSM    O1416998   1.467   2.347   3.970 -0.0072  0.2562 -0.8884
  153OSM    O1116999   1.329   2.274   4.159  0.1464 -0.1514 -0.2234
  153OSM    O1217000   1.224   2.392   3.981 -0.0424 -0.6251 -0.2279
  153OSM    C1S17001   1.384   2.151   4.216 -0.4591  0.2006  0.6389
  153OSM    H1S17002   1.495   2.146   4.226 -0.5409 -1.0010  1.0456
  153OSM    H1T17003   1.350   2.057   4.169 -1.3810 -0.1243  1.9037
  153OSM     NF17004   1.405   2.034   4.428 -0.0211  0.1800  0.3449
  153OSM    HNF17005   1.387   1.938   4.407 -0.9107  0.5639 -0.7415
  153OSM    C2S17006   1.322   2.124   4.359  0.1284  0.0462  0.3502
  153OSM    H2S17007   1.321   2.218   4.418  1.4992  0.4004 -0.1361
  153OSM    C3S17008   1.173   2.082   4.355 -0.2035 -0.2009  0.0450
  153OSM    H3S17009   1.177   1.983   4.306 -0.5938  0.0140 -0.4311
  153OSM     O317010   1.104   2.165   4.272  0.6757 -1.0491  0.6253
  153OSM    HO317011   1.175   2.214   4.230 -0.7472 -0.4215 -1.1925
  153OSM    C4S17012   1.119   2.068   4.501  0.0859 -0.0745  0.4747
  153OSM    H4S17013   1.181   1.999   4.560  2.9609  0.7237 -1.4222
  153OSM    C5S17014   1.029   2.145   4.560 -0.0363  0.5920 -0.1186
  153OSM    H5S17015   0.992   2.235   4.510 -0.8788 -0.8607 -2.2499
  153OSM    C6S17016   1.002   2.141   4.706  0.1280 -0.6259 -0.7366
  153OSM    H6S17017   0.950   2.234   4.738 -0.4694 -0.3857 -2.3238
  153OSM    H6T17018   1.101   2.131   4.756  0.9283 -1.9540 -2.4871
  153OSM    C7S17019   0.926   2.016   4.751  0.6982 -0.0574  0.6343
  153OSM    H7S17020   0.997   1.932   4.767  0.3177 -0.6258 -0.6195
  153OSM    H7T17021   0.843   1.995   4.681  2.3338  2.4608 -2.3036
  153OSM    C8S17022   0.865   2.042   4.891  0.5538 -0.7354 -1.1193
  153OSM    H8S17023   0.791   1.960   4.903 -0.7389  0.2332 -2.0189
  153OSM    H8T17024   0.796   2.129   4.888 -2.3227 -2.8355 -0.7305
  153OSM    C9S17025   0.959   2.055   5.002  0.0141  0.3501  0.0081
  153OSM    H9S17026   0.990   2.162   5.010  1.3907  0.1118 -1.5613
  153OSM    H9T17027   1.053   2.000   4.981  1.0655  2.0100  0.1755
  153OSM   C10S17028   0.900   2.015   5.139  0.1147  0.1452  0.1876
  153OSM   H10S17029   0.975   2.031   5.219  0.4607 -0.6572  0.0369
  153OSM   H10T17030   0.870   1.909   5.132  1.4390 -0.3088  0.9112
  153OSM   C11S17031   0.778   2.102   5.173  0.1158 -0.2061 -0.4557
  153OSM   H11S17032   0.706   2.093   5.089 -0.3292 -1.7699  0.0519
  153OSM   H11T17033   0.805   2.209   5.189  1.1757 -0.2244 -1.9163
  153OSM   C12S17034   0.708   2.069   5.305 -0.4343  0.1782  1.0966
  153OSM   H12S17035   0.783   2.061   5.387 -0.5587  2.1986  1.4729
  153OSM   H12T17036   0.663   1.969   5.297 -1.2161  0.3980  2.4630
  153OSM   C13S17037   0.605   2.171   5.350 -0.0507 -0.3675  0.0002
  153OSM   H13S17038   0.671   2.258   5.372 -1.0500  0.1568  1.0451
  153OSM   H13T17039   0.545   2.148   5.440  2.2075  0.7646  1.9084
  153OSM   C14S17040   0.516   2.227   5.243 -0.0103 -0.1131 -0.0207
  153OSM   H14S17041   0.578   2.264   5.158 -1.5538 -0.5294 -1.3759
  153OSM   H14T17042   0.458   2.319   5.267  2.6797  1.1656  2.1599
  153OSM   C15S17043   0.411   2.121   5.198 -0.6975  0.1699 -0.5342
  153OSM   H15S17044   0.354   2.098   5.291 -2.0096  0.9376 -1.1138
  153OSM   H15T17045   0.460   2.027   5.165  0.1532 -1.2232  4.0250
  153OSM   C16S17046   0.327   2.166   5.079  0.3383 -0.3843 -0.5856
  153OSM   H16S17047   0.288   2.268   5.095 -0.3131 -0.8532  1.0338
  153OSM   H16T17048   0.249   2.089   5.061 -0.1408  0.1050 -0.6075
  153OSM   C17S17049   0.401   2.177   4.946 -0.2695  0.1703 -0.2950
  153OSM   H17S17050   0.496   2.232   4.966  0.3538 -0.8242 -0.4605
  153OSM   H17T17051   0.328   2.237   4.887 -0.1036  1.6852  0.9612
  153OSM   C18S17052   0.437   2.040   4.890  0.3383 -1.2305  0.6155
  153OSM   H18S17053   0.487   2.050   4.791  0.1061  0.0465  0.6067
  153OSM   H18T17054   0.346   1.978   4.875  0.1152 -0.8731  0.4651
  153OSM   H18U17055   0.511   1.988   4.954  1.6798 -0.5496 -0.3388
  153OSM    C1F17056   1.536   2.071   4.461  0.3348 -0.0933 -0.0101
  153OSM     OF17057   1.581   2.190   4.456  0.4171 -0.1947 -0.4720
  153OSM    C2F17058   1.633   1.954   4.476  0.4271  0.5056  0.6454
  153OSM    H2F17059   1.660   1.922   4.373  0.0564 -0.6584  0.8952
  153OSM    H2G17060   1.584   1.869   4.528  1.3306 -0.1107  0.5086
  153OSM    C3F17061   1.757   1.991   4.557 -0.0204  0.4791 -0.2769
  153OSM    H3F17062   1.784   2.095   4.528 -0.3492  0.8192  0.6140
  153OSM    H3G17063   1.838   1.923   4.522 -0.5404 -1.5739  2.2135
  153OSM    C4F17064   1.746   1.986   4.704  1.1169  0.8356  0.1309
  153OSM    H4F17065   1.711   1.889   4.745 -1.6177  0.6288 -2.4011
  153OSM    H4G17066   1.663   2.056   4.730 -1.8830 -1.7554 -1.7191
  153OSM    C5F17067   1.878   2.015   4.775 -0.0375 -0.3819  0.1218
  153OSM    H5F17068   1.932   2.104   4.736  0.3386 -1.1058 -1.0258
  153OSM    H5G17069   1.944   1.926   4.779  1.9386  1.0500  3.1701
  153OSM    C6F17070   1.860   2.039   4.924 -0.0552 -0.4971 -0.2576
  153OSM    H6F17071   1.961   2.072   4.957 -0.3919  1.5593 -1.1640
  153OSM    H6G17072   1.833   1.943   4.973  1.7828 -1.2155 -0.5728
  153OSM    C7F17073   1.772   2.158   4.968 -0.1357  0.3652  0.0480
  153OSM    H7F17074   1.666   2.148   4.937  0.4737 -0.4546 -1.8824
  153OSM    H7G17075   1.820   2.243   4.915 -0.2353  0.3999  0.0131
  153OSM    C8F17076   1.784   2.178   5.120 -0.0140 -0.6706  0.8835
  153OSM    H8F17077   1.728   2.264   5.160 -0.5090 -0.1169 -0.8860
  153OSM    H8G17078   1.894   2.188   5.133  0.4937 -1.3607 -2.0996
  153OSM    C9F17079   1.734   2.065   5.204 -0.4630 -0.1982 -0.6869
  153OSM    H9F17080   1.630   2.032   5.188 -0.4878 -0.5142  0.0883
  153OSM   C10F17081   1.798   1.988   5.296 -0.3420 -0.3810  0.2597
  153OSM   H10F17082   1.749   1.916   5.362 -2.2145  0.8401  0.2751
  153OSM   C11F17083   1.942   1.996   5.339 -0.1624  0.0067 -1.3197
  153OSM   H11F17084   2.009   2.050   5.268  1.8124  1.5775  1.5396
  153OSM   H11G17085   1.972   1.890   5.351  0.0789  0.3400  1.8229
  153OSM   C12F17086   1.957   2.069   5.473 -0.3628 -0.7120  0.6410
  153OSM   H12F17087   1.869   2.136   5.485  0.1538  0.2642 -0.7640
  153OSM   H12G17088   2.048   2.130   5.486 -0.7466  0.4861 -1.8174
  153OSM   C13F17089   1.950   1.963   5.591 -0.2816 -0.0713 -0.5594
  153OSM   H13F17090   2.034   1.890   5.591  1.4798  1.8121  1.0486
  153OSM   H13G17091   1.847   1.922   5.591 -0.8153  1.1926 -0.9203
  153OSM   C14F17092   1.970   2.045   5.724  0.5068 -0.0421  0.8387
  153OSM   H14F17093   2.063   2.106   5.721 -1.1759  2.7711 -2.9111
  153OSM   H14G17094   1.972   1.967   5.803 -0.4352 -2.0423 -1.0067
  153OSM   C15F17095   1.859   2.151   5.752  1.1374 -0.7333  0.1971
  153OSM   H15F17096   1.757   2.108   5.754  1.6498 -2.0125 -0.0617
  153OSM   H15G17097   1.868   2.229   5.674 -0.0975 -1.2160 -0.4646
  153OSM   C16F17098   1.890   2.215   5.887 -0.7856  0.1541 -0.0993
  153OSM   H16F17099   1.964   2.296   5.867 -0.8754  0.8399  2.0470
  153OSM   H16G17100   1.930   2.136   5.954 -1.1727  0.3457  0.3631
  153OSM   C17F17101   1.772   2.290   5.952 -0.2125  0.1247 -0.4236
  153OSM   H17F17102   1.696   2.214   5.978 -1.1911  1.9996  2.7200
  153OSM   H17G17103   1.730   2.360   5.878 -2.9766  1.8328  2.5287
  153OSM   C18F17104   1.816   2.375   6.071 -0.2504 -0.4925  0.5838
  153OSM   H18F17105   1.725   2.426   6.109 -1.4953 -2.7044  0.7279
  153OSM   H18G17106   1.881   2.460   6.039 -1.1458 -0.1616 -0.4263
  153OSM   H18H17107   1.848   2.314   6.157 -1.2868  0.0143  1.3550
  154OSM      N17108   1.363   6.267   3.680  0.5323 -0.2253  0.2913
  154OSM    C1517109   1.245   6.167   3.681 -0.6364 -0.2988 -0.0786
  154OSM   H15A17110   1.185   6.172   3.771 -0.0799 -1.8399  0.4075
  154OSM   H15B17111   1.297   6.073   3.671 -0.3732 -0.2116  0.4180
  154OSM   H15C17112   1.178   6.183   3.598  1.2002  0.6506 -1.4525
  154OSM    C1417113   1.450   6.250   3.557 -0.0447  1.1157 -0.5354
  154OSM   H14A17114   1.465   6.143   3.551 -1.2455  0.8109  1.0733
  154OSM   H14B17115   1.549   6.291   3.567 -0.4528  1.6312  2.1216
  154OSM   H14C17116   1.410   6.291   3.466  1.5284 -1.1218 -2.3699
  154OSM    C1317117   1.305   6.406   3.685  0.5694  1.1809  0.0515
  154OSM   H13A17118   1.387   6.474   3.704  1.8489 -0.5861  1.1326
  154OSM   H13B17119   1.228   6.427   3.759 -0.7103  1.5634 -1.3432
  154OSM   H13C17120   1.256   6.437   3.594  0.3922 -1.9772 -1.0336
  154OSM    C1217121   1.444   6.244   3.803 -0.5493  0.0389 -0.2890
  154OSM   H12A17122   1.483   6.143   3.802  0.8821  0.5611  0.2377
  154OSM   H12B17123   1.378   6.250   3.887 -0.3537  0.5088 -0.1665
  154OSM    C1117124   1.559   6.338   3.840  0.8320  0.1974  0.1015
  154OSM   H11A17125   1.637   6.345   3.761  0.1104  1.0568 -0.5665
  154OSM   H11B17126   1.600   6.299   3.936 -2.0319  0.6368  1.6100
  154OSM      P17127   1.633   6.575   3.900 -0.2382 -0.2146 -0.0974
  154OSM    O1317128   1.723   6.589   3.779  0.7248  0.4878 -0.0571
  154OSM    O1417129   1.580   6.700   3.954 -0.3534  0.5321  0.0655
  154OSM    O1117130   1.702   6.500   4.023  0.4570  0.1651  0.6948
  154OSM    O1217131   1.510   6.473   3.876 -0.2503 -0.1117  0.2174
  154OSM    C1S17132   1.626   6.481   4.143  0.3747 -0.1745 -0.1559
  154OSM    H1S17133   1.558   6.395   4.129 -1.8404  1.3227  0.8851
  154OSM    H1T17134   1.556   6.567   4.157  2.2866  1.3281  0.6380
  154OSM     NF17135   1.635   6.425   4.381 -0.2234  0.1892  0.3454
  154OSM    HNF17136   1.608   6.492   4.450  0.7174 -0.8655  1.8192
  154OSM    C2S17137   1.713   6.474   4.270  0.0768  0.1136  0.4739
  154OSM    H2S17138   1.790   6.395   4.259 -3.3539 -3.5246  0.3169
  154OSM    C3S17139   1.767   6.610   4.302 -0.0607  0.4005  0.7868
  154OSM    H3S17140   1.683   6.682   4.308 -0.8224 -0.5245  1.4449
  154OSM     O317141   1.860   6.644   4.197  0.0492 -0.3448 -0.1077
  154OSM    HO317142   1.865   6.571   4.135  2.2692 -0.9688  0.7192
  154OSM    C4S17143   1.832   6.617   4.437  0.2064  0.5589  0.1240
  154OSM    H4S17144   1.767   6.636   4.524 -2.6507  0.8355 -1.9071
  154OSM    C5S17145   1.967   6.600   4.457 -0.3185 -0.1330 -0.0790
  154OSM    H5S17146   2.034   6.585   4.371  0.2815 -4.6171  0.8972
  154OSM    C6S17147   2.033   6.596   4.594 -0.0952 -0.5578 -0.3141
  154OSM    H6S17148   2.112   6.674   4.591 -0.6706  0.0623  0.3713
  154OSM    H6T17149   2.097   6.505   4.601 -2.4451 -2.1821  2.8595
  154OSM    C7S17150   1.957   6.619   4.730  0.2951  0.3938 -0.0371
  154OSM    H7S17151   1.914   6.518   4.751 -0.6455 -0.0791 -3.6750
  154OSM    H7T17152   1.871   6.688   4.727 -0.0962 -0.1190 -2.7758
  154OSM    C8S17153   2.048   6.649   4.847  0.4689 -0.2824  0.3744
  154OSM    H8S17154   2.083   6.754   4.837  1.4216 -0.6696 -0.5844
  154OSM    H8T17155   2.138   6.584   4.842 -0.8175 -2.0642 -0.3959
  154OSM    C9S17156   1.981   6.634   4.987 -0.0337 -0.4354  0.0976
  154OSM    H9S17157   1.958   6.526   4.996  0.0821 -0.3685  1.3833
  154OSM    H9T17158   1.885   6.690   4.992 -1.2527 -2.3795 -0.4399
  154OSM   C10S17159   2.081   6.659   5.101  0.3750 -0.8635  0.2687
  154OSM   H10S17160   2.116   6.763   5.085 -2.0575 -0.0142  0.0322
  154OSM   H10T17161   2.167   6.589   5.096  1.6202  0.6125  0.7652
  154OSM   C11S17162   2.019   6.654   5.243  0.0948 -1.1000 -0.3354
  154OSM   H11S17163   1.999   6.549   5.275 -1.2043  0.1031  3.3354
  154OSM   H11T17164   1.927   6.713   5.223  2.2390  1.2574 -4.7636
  154OSM   C12S17165   2.085   6.731   5.365  1.0457 -0.2779 -0.2694
  154OSM   H12S17166   2.009   6.723   5.446  1.8094 -0.3255  0.4510
  154OSM   H12T17167   2.084   6.838   5.337  0.0614  0.3868  2.0292
  154OSM   C13S17168   2.209   6.679   5.414 -0.1208  0.5548  0.0064
  154OSM   H13S17169   2.282   6.674   5.330 -0.8420 -0.0069 -0.6027
  154OSM   H13T17170   2.196   6.574   5.445 -0.6840  1.0037  1.3602
  154OSM   C14S17171   2.273   6.759   5.532 -0.3935  0.2530  0.1355
  154OSM   H14S17172   2.188   6.784   5.599  0.9896  1.6984  1.4590
  154OSM   H14T17173   2.309   6.860   5.503 -2.7895  0.3524 -2.9820
  154OSM   C15S17174   2.379   6.667   5.594  0.0670 -0.0126 -0.2622
  154OSM   H15S17175   2.469   6.660   5.530  0.8456 -0.4337  0.8419
  154OSM   H15T17176   2.340   6.565   5.615  3.3511 -0.9499  2.0300
  154OSM   C16S17177   2.441   6.723   5.728  0.8265 -0.1787  0.0269
  154OSM   H16S17178   2.362   6.742   5.803 -0.4281  1.9465 -1.7066
  154OSM   H16T17179   2.480   6.820   5.690 -1.3602  1.4748  1.7968
  154OSM   C17S17180   2.558   6.635   5.786 -0.4958  0.0163  0.2176
  154OSM   H17S17181   2.623   6.598   5.704  0.5325  0.7272  0.7041
  154OSM   H17T17182   2.502   6.559   5.845 -2.7236  1.0025 -0.5141
  154OSM   C18S17183   2.640   6.712   5.892  0.5906  1.2613 -0.8493
  154OSM   H18S17184   2.668   6.812   5.851  1.5059  0.5878 -1.9340
  154OSM   H18T17185   2.738   6.665   5.914 -0.0920 -0.1027 -0.6395
  154OSM   H18U17186   2.582   6.732   5.984  2.5190 -0.6210  0.8642
  154OSM    C1F17187   1.609   6.299   4.407  0.0693 -0.1991 -0.0723
  154OSM     OF17188   1.632   6.209   4.324 -0.6919  0.3707 -0.1459
  154OSM    C2F17189   1.535   6.272   4.534  0.4413  0.0420  0.6493
  154OSM    H2F17190   1.441   6.330   4.528 -0.3056 -0.8895  2.5550
  154OSM    H2G17191   1.589   6.310   4.623  1.9238 -2.5575  0.9778
  154OSM    C3F17192   1.510   6.120   4.562  0.5588  0.2398  0.6869
  154OSM    H3F17193   1.608   6.079   4.595  1.9210  2.3858 -0.4740
  154OSM    H3G17194   1.488   6.074   4.463  0.4581  0.0326  0.8026
  154OSM    C4F17195   1.399   6.098   4.667 -0.2061 -0.1694  0.1500
  154OSM    H4F17196   1.365   5.996   4.640 -2.6101  0.9931 -1.5797
  154OSM    H4G17197   1.327   6.180   4.647 -0.0102  0.1398  0.6854
  154OSM    C5F17198   1.467   6.100   4.815  0.0770  0.6896  0.6906
  154OSM    H5F17199   1.489   6.207   4.835 -1.1515  1.0371  0.2812
  154OSM    H5G17200   1.554   6.032   4.801 -0.8593 -0.2095 -1.0183
  154OSM    C6F17201   1.366   6.070   4.922 -0.3396  0.3354 -0.5938
  154OSM    H6F17202   1.334   5.964   4.912 -0.1334  0.1615  0.5053
  154OSM    H6G17203   1.272   6.124   4.899 -0.0907  1.7466  1.4340
  154OSM    C7F17204   1.404   6.104   5.064  0.0699 -0.4519 -0.1826
  154OSM    H7F17205   1.441   6.208   5.075  1.8667 -1.0780 -0.0266
  154OSM    H7G17206   1.481   6.032   5.101  0.3195 -0.2728 -0.3549
  154OSM    C8F17207   1.283   6.093   5.165  0.6644  0.1869 -0.3174
  154OSM    H8F17208   1.197   6.064   5.100  0.9260 -0.5644 -0.3398
  154OSM    H8G17209   1.257   6.187   5.217  1.9527 -0.7750  2.2142
  154OSM    C9F17210   1.293   5.996   5.275 -0.2369 -0.0888  0.7709
  154OSM    H9F17211   1.239   5.901   5.272  1.0566 -0.8587  1.0465
  154OSM   C10F17212   1.367   6.019   5.388  0.0165 -1.1356 -0.3584
  154OSM   H10F17213   1.355   5.950   5.472  3.1598  0.6335  1.7580
  154OSM   C11F17214   1.442   6.149   5.429  0.3531  0.1130 -0.3552
  154OSM   H11F17215   1.464   6.218   5.345 -2.2995  1.8614  0.2585
  154OSM   H11G17216   1.542   6.109   5.457 -0.0269  0.8829  2.4140
  154OSM   C12F17217   1.359   6.223   5.534 -0.2031 -0.4756  0.2045
  154OSM   H12F17218   1.313   6.156   5.609  1.1769  0.9040  2.4091
  154OSM   H12G17219   1.282   6.290   5.490  1.1917  0.9534 -0.2023
  154OSM   C13F17220   1.445   6.308   5.629  0.3861  0.6290  0.3778
  154OSM   H13F17221   1.379   6.394   5.652  0.6063  1.8553 -3.0089
  154OSM   H13G17222   1.539   6.338   5.578  0.6171 -0.8236 -0.1001
  154OSM   C14F17223   1.473   6.233   5.756 -0.0466 -0.8797 -1.0359
  154OSM   H14F17224   1.554   6.293   5.803 -0.8896  0.0862 -0.7964
  154OSM   H14G17225   1.508   6.128   5.744  0.4305 -0.9112  0.4434
  154OSM   C15F17226   1.350   6.230   5.859 -0.3375 -0.8371  0.0725
  154OSM   H15F17227   1.263   6.186   5.806 -0.1484  1.4017 -2.2842
  154OSM   H15G17228   1.315   6.328   5.899 -1.5156 -1.6198  1.0439
  154OSM   C16F17229   1.392   6.143   5.980 -0.3660 -0.0034  0.8834
  154OSM   H16F17230   1.423   6.041   5.950  2.4255  0.5151  1.7441
  154OSM   H16G17231   1.308   6.134   6.051  1.7264  0.2588  3.5438
  154OSM   C17F17232   1.502   6.204   6.065  1.1759 -1.7491 -0.2501
  154OSM   H17F17233   1.450   6.295   6.101 -3.7803 -3.2732 -2.6980
  154OSM   H17G17234   1.603   6.223   6.021  1.7821 -0.1900  1.6503
  154OSM   C18F17235   1.529   6.125   6.185  0.6267 -0.7084 -0.3401
  154OSM   H18F17236   1.612   6.169   6.244  1.1882 -0.7482 -1.0805
  154OSM   H18G17237   1.560   6.022   6.157 -0.5490 -0.7016 -1.7654
  154OSM   H18H17238   1.433   6.109   6.239  1.3636  0.5958  1.4556
  155OSM      N17239   3.664   3.299   3.801 -0.2234 -0.0305  0.0552
  155OSM    C1517240   3.733   3.289   3.666 -0.0348  0.2854 -0.0773
  155OSM   H15A17241   3.737   3.189   3.624 -0.2593  0.1536  0.2047
  155OSM   H15B17242   3.835   3.318   3.686 -0.1450  1.1512 -0.7096
  155OSM   H15C17243   3.697   3.362   3.596 -1.5099  0.3817  0.7368
  155OSM    C1417244   3.664   3.448   3.838 -0.1355 -0.4416 -0.6105
  155OSM   H14A17245   3.621   3.462   3.936  0.4351 -1.0098 -0.2702
  155OSM   H14B17246   3.627   3.516   3.763  0.0887 -1.4290 -1.6432
  155OSM   H14C17247   3.763   3.490   3.849 -0.1558 -0.3850 -0.6437
  155OSM    C1317248   3.524   3.241   3.792 -0.3046 -0.4460  0.5534
  155OSM   H13A17249   3.525   3.138   3.761  0.3592  0.5814 -3.3548
  155OSM   H13B17250   3.469   3.290   3.713  0.5572  1.3067  0.9747
  155OSM   H13C17251   3.467   3.264   3.881 -0.9139 -0.6061  0.2110
  155OSM    C1217252   3.741   3.210   3.897  0.5553  0.0098 -0.5936
  155OSM   H12A17253   3.732   3.106   3.870 -2.5467 -0.7594  2.7659
  155OSM   H12B17254   3.693   3.209   3.993  1.8468 -1.2301  0.0803
  155OSM    C1117255   3.888   3.249   3.932 -0.7353  0.4959  0.0650
  155OSM   H11A17256   3.951   3.222   3.844 -3.0634 -3.0235 -0.7288
  155OSM   H11B17257   3.923   3.172   4.003  1.1455  0.8091 -0.4466
  155OSM      P17258   3.911   3.428   4.125  0.1157 -0.0110  0.0194
  155OSM    O1317259   3.945   3.575   4.120  0.4705 -0.5308  0.1466
  155OSM    O1417260   3.780   3.385   4.179  0.3424 -0.0698  0.0738
  155OSM    O1117261   4.030   3.352   4.184 -0.3847 -0.6537  0.4778
  155OSM    O1217262   3.918   3.385   3.975  0.0589 -0.5780 -0.2048
  155OSM    C1S17263   4.102   3.410   4.295 -0.7021  0.4080  0.1489
  155OSM    H1S17264   4.051   3.385   4.391 -0.4619  1.9137  0.6877
  155OSM    H1T17265   4.117   3.520   4.294  1.3429  0.1746  0.2650
  155OSM     NF17266   4.319   3.348   4.427  0.4647 -0.1646  0.7051
  155OSM    HNF17267   4.399   3.408   4.431 -0.3693  0.9986  0.2776
  155OSM    C2S17268   4.245   3.345   4.294  0.6723 -0.7505  0.0249
  155OSM    H2S17269   4.221   3.237   4.279  0.5069 -0.7307  0.1480
  155OSM    C3S17270   4.314   3.392   4.162  1.0125 -0.1798 -1.2397
  155OSM    H3S17271   4.310   3.503   4.160  2.2465 -0.1123 -2.9356
  155OSM     O317272   4.250   3.342   4.044  0.0534 -0.8777 -0.0687
  155OSM    HO317273   4.159   3.329   4.073 -0.3507 -0.6395 -1.1745
  155OSM    C4S17274   4.457   3.350   4.173 -0.0826  0.1096 -0.2833
  155OSM    H4S17275   4.527   3.434   4.177 -0.0588  0.0798 -0.0834
  155OSM    C5S17276   4.509   3.226   4.158 -0.3044 -0.2066 -0.2642
  155OSM    H5S17277   4.443   3.143   4.130  1.7761 -1.6713 -1.0403
  155OSM    C6S17278   4.662   3.198   4.170  0.5265  0.0647 -0.2659
  155OSM    H6S17279   4.718   3.291   4.194 -0.5087  0.4229  0.9268
  155OSM    H6T17280   4.701   3.166   4.072 -1.3429 -0.9030 -0.7507
  155OSM    C7S17281   4.695   3.080   4.263 -0.0761 -0.1593 -0.0609
  155OSM    H7S17282   4.803   3.061   4.281  0.5842  3.4112  0.4918
  155OSM    H7T17283   4.653   2.989   4.216 -1.0318 -0.4811  1.3676
  155OSM    C8S17284   4.655   3.099   4.402 -0.0992 -0.4703 -0.3860
  155OSM    H8S17285   4.548   3.081   4.424 -0.0755 -0.5382 -0.3247
  155OSM    H8T17286   4.687   3.202   4.430  1.0141 -1.2354  1.3666
  155OSM    C9S17287   4.718   3.007   4.509  0.0710  0.3560 -0.1277
  155OSM    H9S17288   4.827   3.021   4.488  0.1915  0.2786  0.4340
  155OSM    H9T17289   4.687   2.904   4.483 -0.8343  0.3617  0.8786
  155OSM   C10S17290   4.697   3.040   4.660  0.7105  0.1841  0.1118
  155OSM   H10S17291   4.605   3.002   4.710 -0.6822 -0.1194 -2.5256
  155OSM   H10T17292   4.704   3.150   4.656  0.1827  0.2116 -0.1984
  155OSM   C11S17293   4.814   3.000   4.749  0.1120 -0.3411  0.1365
  155OSM   H11S17294   4.908   3.043   4.708  0.7226 -0.0960  1.7396
  155OSM   H11T17295   4.822   2.889   4.741  1.0267 -0.2368 -0.5634
  155OSM   C12S17296   4.793   3.046   4.893  0.1682  0.4490 -0.4824
  155OSM   H12S17297   4.701   3.007   4.941  0.1339 -1.0951 -1.7234
  155OSM   H12T17298   4.787   3.157   4.897 -0.6953  0.4405 -1.3045
  155OSM   C13S17299   4.909   3.003   4.988 -0.1608 -0.7855  0.0429
  155OSM   H13S17300   4.995   3.071   4.974 -2.1045  1.8895  0.2920
  155OSM   H13T17301   4.962   2.908   4.963  3.3396  0.8438  0.6973
  155OSM   C14S17302   4.861   2.998   5.134 -0.3831 -0.1829  0.7023
  155OSM   H14S17303   4.772   2.932   5.138 -2.5289  2.2018 -2.4302
  155OSM   H14T17304   4.818   3.091   5.175  0.6937  0.4500  0.4351
  155OSM   C15S17305   4.971   2.949   5.225  0.4044  0.5116  0.4422
  155OSM   H15S17306   5.055   3.023   5.222  0.2310  0.7145  0.5805
  155OSM   H15T17307   5.008   2.856   5.177  0.0468  0.9847 -0.7815
  155OSM   C16S17308   4.925   2.917   5.370  0.2088 -0.7395 -0.8661
  155OSM   H16S17309   4.830   2.861   5.382 -1.0889  1.4875  0.0192
  155OSM   H16T17310   4.893   3.020   5.397 -2.8377 -1.4408 -1.4401
  155OSM   C17S17311   5.041   2.864   5.462  0.2907  0.0675  0.3777
  155OSM   H17S17312   5.126   2.936   5.459  0.5865 -0.2821 -2.0764
  155OSM   H17T17313   5.068   2.768   5.413 -1.2673 -0.0541 -0.2996
  155OSM   C18S17314   4.997   2.838   5.608  0.4730 -0.3889  0.1177
  155OSM   H18S17315   4.901   2.785   5.615  0.1597 -0.0022 -0.9291
  155OSM   H18T17316   4.985   2.937   5.657  1.5404 -0.3676  0.3714
  155OSM   H18U17317   5.075   2.789   5.670  0.4217 -1.1658 -0.4165
  155OSM    C1F17318   4.278   3.282   4.529 -0.5080 -0.5760  0.2626
  155OSM     OF17319   4.169   3.232   4.534  0.5358  0.5533 -0.5316
  155OSM    C2F17320   4.376   3.271   4.643  0.7016 -0.0979 -0.2607
  155OSM    H2F17321   4.401   3.371   4.685 -2.7262  0.3972  0.9267
  155OSM    H2G17322   4.468   3.221   4.607  1.5528 -0.2974  2.0066
  155OSM    C3F17323   4.327   3.178   4.764  0.5415 -0.2073  0.0918
  155OSM    H3F17324   4.322   3.072   4.732 -0.7246 -0.5904  1.4297
  155OSM    H3G17325   4.230   3.222   4.798  0.7064  0.7737 -0.6732
  155OSM    C4F17326   4.420   3.174   4.881 -0.0551  0.4838 -1.1839
  155OSM    H4F17327   4.426   3.278   4.920  0.3201 -0.5427  1.7540
  155OSM    H4G17328   4.519   3.130   4.858 -0.3323 -0.7532 -0.1144
  155OSM    C5F17329   4.355   3.092   5.001  0.2529 -0.3015 -0.0204
  155OSM    H5F17330   4.319   2.994   4.962 -0.1659 -0.1453 -0.0290
  155OSM    H5G17331   4.274   3.155   5.045  0.8386  0.6563 -0.2815
  155OSM    C6F17332   4.451   3.064   5.123  0.8137  0.2259 -0.0546
  155OSM    H6F17333   4.497   3.153   5.172  0.5473 -0.6845  1.9214
  155OSM    H6G17334   4.545   3.023   5.081  0.7546 -1.1573  1.0728
  155OSM    C7F17335   4.395   2.968   5.228 -0.2367 -0.1316  0.0019
  155OSM    H7F17336   4.484   2.937   5.287 -1.0959  1.5283  2.3288
  155OSM    H7G17337   4.366   2.876   5.173  0.9163 -0.9659  0.7296
  155OSM    C8F17338   4.287   3.039   5.318  0.1217 -0.3456 -0.4720
  155OSM    H8F17339   4.211   3.096   5.260 -0.2820  1.5352  1.7737
  155OSM    H8G17340   4.334   3.118   5.381 -0.5150 -0.2163 -0.1491
  155OSM    C9F17341   4.214   2.940   5.398  0.0743  0.9900  0.3766
  155OSM    H9F17342   4.166   2.865   5.333  0.1701  0.2257  1.1702
  155OSM   C10F17343   4.202   2.926   5.535 -0.7122 -0.1018  0.7911
  155OSM   H10F17344   4.132   2.857   5.584  0.8196 -0.6897  2.2500
  155OSM   C11F17345   4.269   3.024   5.627 -0.3959 -0.0267 -0.0094
  155OSM   H11F17346   4.289   3.117   5.570 -0.9756  0.0233 -0.1306
  155OSM   H11G17347   4.369   2.989   5.661  0.1831 -1.3530 -2.8187
  155OSM   C12F17348   4.178   3.062   5.742  0.2852 -0.1426 -0.3217
  155OSM   H12F17349   4.128   2.977   5.791 -1.2161  2.5591  3.3170
  155OSM   H12G17350   4.103   3.139   5.713  3.1140  3.0926  0.2234
  155OSM   C13F17351   4.260   3.138   5.845 -0.7057 -0.7758 -0.7546
  155OSM   H13F17352   4.293   3.229   5.791  2.4714 -1.2549  0.1522
  155OSM   H13G17353   4.347   3.072   5.865  0.2469  0.8216  0.6475
  155OSM   C14F17354   4.195   3.195   5.971 -0.1691 -0.6960 -0.1783
  155OSM   H14F17355   4.147   3.113   6.028 -0.8136 -1.1610 -1.3511
  155OSM   H14G17356   4.113   3.261   5.934  2.6901  2.1564 -2.0111
  155OSM   C15F17357   4.283   3.275   6.064  0.4971 -0.2659  0.3886
  155OSM   H15F17358   4.360   3.322   5.999  0.6309  0.5790  1.1354
  155OSM   H15G17359   4.338   3.218   6.141  1.4950  0.4779  0.2530
  155OSM   C16F17360   4.195   3.381   6.138 -0.1364  0.3814  0.4802
  155OSM   H16F17361   4.127   3.433   6.067 -0.2813  1.9877  1.7268
  155OSM   H16G17362   4.264   3.461   6.173 -0.4058  1.5773 -1.5078
  155OSM   C17F17363   4.122   3.315   6.254  0.0233  0.4120  0.8453
  155OSM   H17F17364   4.198   3.258   6.311 -1.3044 -0.6348  1.6274
  155OSM   H17G17365   4.054   3.240   6.207  0.8785  0.7940 -1.1122
  155OSM   C18F17366   4.037   3.407   6.342  0.5571 -0.1200 -0.0645
  155OSM   H18F17367   4.110   3.470   6.398 -1.4034 -0.0069  2.5909
  155OSM   H18G17368   3.974   3.337   6.401  1.4359  0.3197  1.4432
  155OSM   H18H17369   3.975   3.465   6.270 -1.3667 -1.4680  0.4355
  156OSM      N17370   6.183   3.004   3.636  0.1605  0.6486  0.0607
  156OSM    C1517371   6.310   3.020   3.552 -0.0440  0.4621 -0.2314
  156OSM   H15A17372   6.287   3.007   3.447  1.0480  0.8460 -0.5283
  156OSM   H15B17373   6.376   2.940   3.581  0.8438  1.1775 -0.2280
  156OSM   H15C17374   6.360   3.112   3.579  1.1154 -0.1481 -0.2402
  156OSM    C1417375   6.208   3.033   3.784  0.3876 -0.0024  0.5949
  156OSM   H14A17376   6.111   3.046   3.830  0.6437  1.0349  0.8423
  156OSM   H14B17377   6.263   3.124   3.799  1.4294 -0.4595 -0.3384
  156OSM   H14C17378   6.267   2.952   3.824  2.0779  0.5324 -0.7384
  156OSM    C1317379   6.068   3.092   3.588 -0.5093 -0.1638 -0.1918
  156OSM   H13A17380   6.034   3.054   3.493 -0.2730  1.1787 -0.8357
  156OSM   H13B17381   6.088   3.198   3.580  0.6883 -0.3182  0.5896
  156OSM   H13C17382   5.984   3.083   3.656  1.3779 -1.4785  2.1448
  156OSM    C1217383   6.134   2.860   3.615 -1.0229 -0.0706 -0.4147
  156OSM   H12A17384   6.111   2.840   3.511  0.1108  0.3605 -0.7604
  156OSM   H12B17385   6.037   2.853   3.661  0.0527  0.2574  2.0308
  156OSM    C1117386   6.218   2.747   3.679 -0.4464  0.1938  0.3463
  156OSM   H11A17387   6.156   2.655   3.671  0.5241 -0.3708 -1.1017
  156OSM   H11B17388   6.235   2.772   3.786  0.6606  3.3718 -0.4623
  156OSM      P17389   6.362   2.666   3.471 -0.2146  0.0072  0.1867
  156OSM    O1317390   6.280   2.738   3.369  0.1799  0.2696 -0.5558
  156OSM    O1417391   6.505   2.645   3.445  0.1593 -0.3239  0.2567
  156OSM    O1117392   6.289   2.528   3.499  0.0193  0.3295 -0.3881
  156OSM    O1217393   6.344   2.730   3.615  0.3934  0.0306 -0.0542
  156OSM    C1S17394   6.353   2.426   3.585 -0.0786 -0.4367 -0.1360
  156OSM    H1S17395   6.451   2.453   3.629  0.4057 -2.5000  0.1587
  156OSM    H1T17396   6.378   2.336   3.525 -2.8678 -1.2757 -0.1885
  156OSM     NF17397   6.325   2.278   3.785  0.0373 -0.0231 -1.0107
  156OSM    HNF17398   6.294   2.184   3.779 -2.2161  0.6177 -0.3693
  156OSM    C2S17399   6.260   2.376   3.703 -0.0509 -0.1645  0.1827
  156OSM    H2S17400   6.243   2.469   3.762  2.4223  0.9413 -0.6898
  156OSM    C3S17401   6.115   2.326   3.655 -0.6559 -0.4439 -0.5001
  156OSM    H3S17402   6.124   2.227   3.605  0.1138 -0.7202  0.1569
  156OSM     O317403   6.055   2.419   3.563 -0.0651 -0.1959  0.3506
  156OSM    HO317404   6.130   2.467   3.526  0.1561 -0.2963  0.6612
  156OSM    C4S17405   6.038   2.306   3.776  0.3203 -0.5386  0.2417
  156OSM    H4S17406   6.054   2.212   3.829 -2.3278 -2.5789 -2.2010
  156OSM    C5S17407   5.963   2.397   3.842  0.5290  0.2332 -0.3966
  156OSM    H5S17408   5.958   2.499   3.802  2.6754  0.5724  0.0402
  156OSM    C6S17409   5.903   2.376   3.980 -0.2076 -0.0196  0.8317
  156OSM    H6S17410   5.875   2.270   3.999  1.9603 -0.7824  0.0469
  156OSM    H6T17411   5.821   2.448   4.001 -0.5666  0.3083 -1.5050
  156OSM    C7S17412   6.017   2.401   4.082 -0.1567  0.9365  0.3531
  156OSM    H7S17413   6.080   2.484   4.044  0.5332 -0.5498 -1.9994
  156OSM    H7T17414   6.080   2.311   4.068 -0.9640  0.6102 -1.6324
  156OSM    C8S17415   5.995   2.415   4.229  0.0431 -0.1076 -0.5043
  156OSM    H8S17416   5.944   2.514   4.234 -0.1420 -0.1975 -0.5882
  156OSM    H8T17417   6.080   2.430   4.299 -1.9040  0.0432  1.9781
  156OSM    C9S17418   5.915   2.300   4.297  0.1748 -0.4096  0.5449
  156OSM    H9S17419   5.966   2.203   4.279 -0.2461 -0.2891 -1.6470
  156OSM    H9T17420   5.820   2.287   4.241  1.3740 -0.4623 -1.5904
  156OSM   C10S17421   5.877   2.323   4.443 -0.1180 -0.5750  0.7522
  156OSM   H10S17422   5.784   2.266   4.463 -0.7328 -0.1763 -0.8367
  156OSM   H10T17423   5.856   2.429   4.471  0.2623 -0.2130 -0.3066
  156OSM   C11S17424   5.976   2.268   4.553 -0.2747 -1.1794  0.6654
  156OSM   H11S17425   6.065   2.335   4.553 -1.3733  0.5817 -3.2400
  156OSM   H11T17426   6.007   2.163   4.535  2.1102 -0.8671  2.4496
  156OSM   C12S17427   5.914   2.283   4.689 -0.5198  0.9457 -0.1807
  156OSM   H12S17428   5.818   2.230   4.702  0.9229 -1.4619  1.2718
  156OSM   H12T17429   5.893   2.389   4.717 -0.2659  0.4440  2.0025
  156OSM   C13S17430   6.006   2.217   4.798  0.1861 -0.2072  1.0949
  156OSM   H13S17431   6.036   2.116   4.764  0.2546  0.2219 -0.1612
  156OSM   H13T17432   5.952   2.213   4.895 -0.5955  1.8656  0.7977
  156OSM   C14S17433   6.133   2.295   4.833  0.0203  1.0548  0.6646
  156OSM   H14S17434   6.104   2.398   4.865 -0.9273  1.2331 -0.6431
  156OSM   H14T17435   6.203   2.324   4.751  1.0838 -0.2040  1.0989
  156OSM   C15S17436   6.216   2.228   4.945  0.1672 -0.5990 -0.1867
  156OSM   H15S17437   6.303   2.295   4.960 -1.0796  1.4644 -1.5654
  156OSM   H15T17438   6.241   2.127   4.906 -1.8306 -1.0496 -0.4426
  156OSM   C16S17439   6.131   2.215   5.077 -0.3982  0.3418  0.0383
  156OSM   H16S17440   6.198   2.158   5.145 -1.0101 -0.2783  0.1354
  156OSM   H16T17441   6.035   2.163   5.056  0.5516 -0.6685 -2.1762
  156OSM   C17S17442   6.105   2.336   5.168 -0.2771  0.1400 -0.4593
  156OSM   H17S17443   6.050   2.289   5.252 -1.8750 -1.3832 -2.2597
  156OSM   H17T17444   6.025   2.389   5.111 -2.1814 -1.9072  0.1735
  156OSM   C18S17445   6.217   2.415   5.226 -0.0837  0.0561  0.9238
  156OSM   H18S17446   6.238   2.497   5.154  1.3096  0.3295  1.6067
  156OSM   H18T17447   6.302   2.346   5.245 -1.1841 -1.3599  0.8342
  156OSM   H18U17448   6.194   2.474   5.317  2.1460  1.6523  0.5492
  156OSM    C1F17449   6.423   2.308   3.868 -0.1928  0.4935 -0.4648
  156OSM     OF17450   6.467   2.423   3.873 -0.3033 -0.2503  0.4440
  156OSM    C2F17451   6.475   2.203   3.963  0.0782  0.4083 -0.0399
  156OSM    H2F17452   6.546   2.139   3.907  0.5497  1.0025 -0.1332
  156OSM    H2G17453   6.385   2.141   3.984  1.6251 -2.0563 -0.2571
  156OSM    C3F17454   6.525   2.265   4.096 -0.4666 -0.0414  0.5694
  156OSM    H3F17455   6.601   2.342   4.073 -0.7648 -0.1151 -0.7453
  156OSM    H3G17456   6.576   2.183   4.150 -1.3119 -0.5446  0.6395
  156OSM    C4F17457   6.406   2.320   4.180 -0.6093 -0.3289  0.3878
  156OSM    H4F17458   6.331   2.242   4.207  0.8368 -1.5534  1.0212
  156OSM    H4G17459   6.352   2.399   4.124  0.8214  0.0156 -0.5560
  156OSM    C5F17460   6.443   2.386   4.314 -0.6208  0.0921  0.6474
  156OSM    H5F17461   6.355   2.383   4.381 -2.0682  2.5487 -0.9851
  156OSM    H5G17462   6.465   2.494   4.300 -0.8452 -0.1049 -1.6665
  156OSM    C6F17463   6.561   2.319   4.385 -0.1448  0.1901 -0.5872
  156OSM    H6F17464   6.647   2.349   4.321 -2.1508  2.7061 -2.3271
  156OSM    H6G17465   6.542   2.210   4.389  1.4094 -0.1034 -0.5265
  156OSM    C7F17466   6.576   2.348   4.535 -0.1083  0.1738  0.3557
  156OSM    H7F17467   6.481   2.313   4.583 -0.2609  1.0802  0.7242
  156OSM    H7G17468   6.585   2.457   4.551  1.4229  0.2958 -1.0552
  156OSM    C8F17469   6.694   2.282   4.603  0.5300 -0.0249  0.0898
  156OSM    H8F17470   6.733   2.350   4.683 -0.1983 -0.2890  0.6796
  156OSM    H8G17471   6.769   2.278   4.521 -0.7642  1.2758 -1.2120
  156OSM    C9F17472   6.670   2.145   4.663  0.8168  0.1879  0.3096
  156OSM    H9F17473   6.619   2.071   4.599 -2.3758  2.7068 -0.3477
  156OSM   C10F17474   6.701   2.102   4.789  0.1175  0.4524  0.4436
  156OSM   H10F17475   6.678   1.997   4.812 -0.4342 -0.0508 -2.1029
  156OSM   C11F17476   6.767   2.171   4.902 -0.1632 -0.2101  0.0200
  156OSM   H11F17477   6.767   2.280   4.885  1.6625  0.2507  2.4572
  156OSM   H11G17478   6.869   2.134   4.927 -0.5684 -0.5064  1.3395
  156OSM   C12F17479   6.670   2.152   5.022 -0.0404 -0.1947  0.3982
  156OSM   H12F17480   6.658   2.043   5.039 -3.1178 -0.2141 -1.1822
  156OSM   H12G17481   6.568   2.197   5.013 -0.3799 -1.1873 -0.9509
  156OSM   C13F17482   6.732   2.211   5.152 -0.1501 -0.1078 -0.3064
  156OSM   H13F17483   6.788   2.299   5.114  0.2018  0.2775  1.0609
  156OSM   H13G17484   6.814   2.143   5.184  2.0083  1.8854 -1.3601
  156OSM   C14F17485   6.630   2.235   5.257 -0.3711 -0.3079  0.1730
  156OSM   H14F17486   6.602   2.133   5.292  1.4080 -1.8336 -2.4716
  156OSM   H14G17487   6.542   2.286   5.212  0.6556  1.3553 -0.0309
  156OSM   C15F17488   6.671   2.333   5.371 -0.4156  1.1215  0.3439
  156OSM   H15F17489   6.693   2.433   5.329 -1.6705  0.8436 -1.0810
  156OSM   H15G17490   6.758   2.292   5.426 -0.1909  0.0205 -0.7792
  156OSM   C16F17491   6.549   2.359   5.468 -0.6493 -0.4828 -0.3320
  156OSM   H16F17492   6.517   2.261   5.510  0.0526 -1.1544 -1.3197
  156OSM   H16G17493   6.464   2.394   5.406 -1.5438 -0.1143  1.0536
  156OSM   C17F17494   6.588   2.451   5.584  0.6778  0.4725  0.0361
  156OSM   H17F17495   6.634   2.545   5.544  0.3344  0.7446  0.2814
  156OSM   H17G17496   6.661   2.399   5.649  1.8489  0.5304 -1.1739
  156OSM   C18F17497   6.463   2.478   5.665 -0.1443  0.0237  0.0041
  156OSM   H18F17498   6.472   2.565   5.734 -0.3510 -1.4980  2.0223
  156OSM   H18G17499   6.458   2.390   5.732  0.6400 -1.2484 -1.5520
  156OSM   H18H17500   6.372   2.489   5.602  1.4525  0.5147 -2.3573
  157OSM      N17501   5.479   4.532   3.661 -0.3292  0.1258  0.4254
  157OSM    C1517502   5.570   4.631   3.617 -0.2107 -0.8556  0.0735
  157OSM   H15A17503   5.569   4.644   3.510 -2.8966  1.1317  0.2469
  157OSM   H15B17504   5.669   4.603   3.651  0.8239  1.1203 -1.1316
  157OSM   H15C17505   5.553   4.726   3.665 -2.3399 -1.1270 -0.0466
  157OSM    C1417506   5.352   4.558   3.589 -0.2066  0.3719  0.1762
  157OSM   H14A17507   5.357   4.502   3.496 -0.6557 -1.5451  1.2627
  157OSM   H14B17508   5.350   4.664   3.566  1.8142  0.5914  0.8421
  157OSM   H14C17509   5.264   4.520   3.637  0.4420 -1.0081  0.3194
  157OSM    C1317510   5.533   4.399   3.623  0.3040  0.0189  0.9560
  157OSM   H13A17511   5.634   4.384   3.660  0.2221 -0.5242  0.9754
  157OSM   H13B17512   5.537   4.371   3.519 -1.6566  0.3557  0.7673
  157OSM   H13C17513   5.468   4.322   3.662 -1.9934  1.6550  0.4997
  157OSM    C1217514   5.463   4.529   3.817  0.4614 -0.4493 -0.1023
  157OSM   H12A17515   5.377   4.469   3.841  0.8501 -1.2244 -0.6041
  157OSM   H12B17516   5.452   4.629   3.854  3.2603  0.3970 -1.2699
  157OSM    C1117517   5.580   4.482   3.905  0.3689 -0.3143  0.3043
  157OSM   H11A17518   5.596   4.372   3.899 -0.5660 -0.3966 -1.1991
  157OSM   H11B17519   5.553   4.482   4.012  0.0083  1.2621  0.2416
  157OSM      P17520   5.742   4.687   3.956  0.0277  0.1804  0.2334
  157OSM    O1317521   5.875   4.738   3.913 -0.4143  0.0228 -0.0707
  157OSM    O1417522   5.639   4.792   3.951  0.3045  0.2141  0.3447
  157OSM    O1117523   5.745   4.634   4.098  0.2342  0.9086 -0.0408
  157OSM    O1217524   5.695   4.560   3.876  0.0908  0.5093  0.6752
  157OSM    C1S17525   5.811   4.506   4.128  0.2767  0.5335 -0.1577
  157OSM    H1S17526   5.916   4.497   4.093  0.5027 -0.9053  0.7935
  157OSM    H1T17527   5.749   4.421   4.091 -1.4669  1.9030 -0.4819
  157OSM     NF17528   5.902   4.362   4.306  0.0293 -0.2903  0.2900
  157OSM    HNF17529   5.862   4.273   4.285  0.4929 -0.4844  0.2136
  157OSM    C2S17530   5.818   4.484   4.280 -0.1203  0.6541 -0.5554
  157OSM    H2S17531   5.861   4.572   4.332 -0.0024  0.3346 -0.0999
  157OSM    C3S17532   5.674   4.457   4.329 -0.1522 -0.3887  0.3952
  157OSM    H3S17533   5.648   4.380   4.254  2.1641  0.8175 -1.7830
  157OSM     O317534   5.584   4.561   4.299  0.3606 -0.2382  0.5935
  157OSM    HO317535   5.634   4.614   4.236 -1.5777  0.4196 -0.4874
  157OSM    C4S17536   5.667   4.410   4.471  0.1217 -0.3420  0.7747
  157OSM    H4S17537   5.687   4.303   4.482  1.9104 -0.0853  0.4556
  157OSM    C5S17538   5.656   4.483   4.581  0.6369 -0.3131  0.3576
  157OSM    H5S17539   5.649   4.592   4.570 -1.8762 -0.2875  1.4627
  157OSM    C6S17540   5.646   4.430   4.718  0.6026  0.0996 -0.0295
  157OSM    H6S17541   5.653   4.319   4.719  1.9091  0.1587 -0.4738
  157OSM    H6T17542   5.548   4.457   4.763 -0.1900 -2.5119 -0.0236
  157OSM    C7S17543   5.765   4.485   4.804 -0.5947 -0.0174  0.6546
  157OSM    H7S17544   5.756   4.595   4.790  1.8853 -0.0240 -1.9508
  157OSM    H7T17545   5.858   4.453   4.751 -1.8868  1.0336 -2.5154
  157OSM    C8S17546   5.767   4.442   4.948 -0.0484  0.3018 -0.5319
  157OSM    H8S17547   5.805   4.338   4.956  1.0315  0.7928  1.2601
  157OSM    H8T17548   5.662   4.443   4.983  0.6047  1.0078  1.5873
  157OSM    C9S17549   5.864   4.533   5.029 -0.5464 -0.1012  0.5584
  157OSM    H9S17550   5.801   4.621   5.058  0.5649  0.8520  0.1513
  157OSM    H9T17551   5.951   4.574   4.974 -0.9572  2.2515  1.5120
  157OSM   C10S17552   5.913   4.476   5.162 -0.4902 -0.8690 -0.2199
  157OSM   H10S17553   5.975   4.388   5.133 -1.1477 -0.5910 -2.7250
  157OSM   H10T17554   5.833   4.421   5.216  2.0673 -3.7205  0.9727
  157OSM   C11S17555   5.977   4.573   5.270  0.9953  0.0532  0.7797
  157OSM   H11S17556   5.895   4.643   5.299 -0.0872 -0.5379 -0.7320
  157OSM   H11T17557   6.056   4.632   5.218  2.2456 -1.9297  0.3102
  157OSM   C12S17558   6.045   4.514   5.399 -0.0895 -0.0190  0.0884
  157OSM   H12S17559   6.147   4.480   5.371 -0.4628 -1.6489  0.6347
  157OSM   H12T17560   5.980   4.432   5.435 -1.1035 -0.6478 -2.8964
  157OSM   C13S17561   6.065   4.626   5.509 -0.3796  0.1584  0.3874
  157OSM   H13S17562   5.959   4.654   5.529 -0.1042  0.5770  1.2978
  157OSM   H13T17563   6.120   4.715   5.475 -1.6740  1.0559  0.5616
  157OSM   C14S17564   6.130   4.577   5.635 -0.2370  0.6088  0.2524
  157OSM   H14S17565   6.220   4.518   5.606 -1.0944 -0.0833 -1.0873
  157OSM   H14T17566   6.054   4.510   5.681 -0.8237  2.1835  1.6630
  157OSM   C15S17567   6.170   4.693   5.725  0.4240  0.8147 -0.0150
  157OSM   H15S17568   6.186   4.791   5.675  0.9458  0.7312 -0.0134
  157OSM   H15T17569   6.270   4.679   5.772  1.5004 -0.2911 -2.4820
  157OSM   C16S17570   6.087   4.697   5.851  0.5733 -0.7547 -0.0822
  157OSM   H16S17571   5.979   4.697   5.824  0.5374 -2.1535  0.0240
  157OSM   H16T17572   6.104   4.800   5.891  0.9151 -0.0034 -2.0503
  157OSM   C17S17573   6.108   4.610   5.978 -0.1146 -0.4598  0.1302
  157OSM   H17S17574   6.217   4.611   6.001  0.2346 -0.2006 -1.4062
  157OSM   H17T17575   6.074   4.504   5.968  0.5247 -0.6757  0.2014
  157OSM   C18S17576   6.041   4.677   6.099  0.0219  0.4659 -0.2910
  157OSM   H18S17577   6.066   4.634   6.198  0.4139 -0.9451 -0.9795
  157OSM   H18T17578   5.931   4.684   6.086  0.0269  1.4036  0.0754
  157OSM   H18U17579   6.074   4.783   6.106  2.8523 -0.3889  0.9144
  157OSM    C1F17580   6.030   4.379   4.319 -0.6017  0.0157 -0.4922
  157OSM     OF17581   6.086   4.489   4.306 -0.2720 -0.3045  0.5944
  157OSM    C2F17582   6.108   4.261   4.370  0.2960 -0.1660  0.6363
  157OSM    H2F17583   6.051   4.173   4.333 -1.9780  0.4594  2.5034
  157OSM    H2G17584   6.106   4.265   4.481  0.1002  0.9053  0.6057
  157OSM    C3F17585   6.258   4.267   4.335  0.3080  0.1866  0.7055
  157OSM    H3F17586   6.299   4.348   4.399 -0.5116 -1.4339  3.4753
  157OSM    H3G17587   6.265   4.292   4.227 -2.2350  1.8171  0.8324
  157OSM    C4F17588   6.337   4.140   4.364  0.1302  0.3836  0.0372
  157OSM    H4F17589   6.438   4.163   4.323  0.3679  0.8850  0.8689
  157OSM    H4G17590   6.299   4.056   4.302 -2.3767 -0.3837  2.3700
  157OSM    C5F17591   6.357   4.097   4.512  0.2379  0.4905 -0.0729
  157OSM    H5F17592   6.431   4.015   4.518 -0.2934 -0.0234 -0.4651
  157OSM    H5G17593   6.265   4.038   4.532  2.9366 -5.4099 -2.5863
  157OSM    C6F17594   6.405   4.206   4.616  1.0814 -0.1767  0.9993
  157OSM    H6F17595   6.417   4.162   4.717  0.6506  2.0865  2.1068
  157OSM    H6G17596   6.315   4.270   4.629 -0.6465 -2.3612  0.2755
  157OSM    C7F17597   6.532   4.286   4.583 -0.1542 -0.0183 -0.6362
  157OSM    H7F17598   6.509   4.346   4.492 -2.5778 -0.1369 -0.1681
  157OSM    H7G17599   6.600   4.200   4.563 -2.1950 -1.6693 -0.7905
  157OSM    C8F17600   6.591   4.349   4.706 -0.0988  0.4586  0.4365
  157OSM    H8F17601   6.600   4.272   4.785  1.1678 -0.9028 -0.9837
  157OSM    H8G17602   6.534   4.442   4.729  1.3801  1.9466 -1.6231
  157OSM    C9F17603   6.734   4.399   4.671 -0.4376 -0.0612 -0.2865
  157OSM    H9F17604   6.743   4.457   4.578 -0.9317 -0.0797 -0.3454
  157OSM   C10F17605   6.841   4.388   4.750  0.1871  0.0348 -0.3829
  157OSM   H10F17606   6.942   4.416   4.720  0.2175  0.7948  0.3888
  157OSM   C11F17607   6.857   4.311   4.876 -0.1789  0.5680 -0.0267
  157OSM   H11F17608   6.893   4.208   4.854 -0.4557  0.4815 -0.0779
  157OSM   H11G17609   6.767   4.287   4.936 -0.5732 -0.4278 -0.9788
  157OSM   C12F17610   6.956   4.371   4.970  0.0309  0.2593  0.1944
  157OSM   H12F17611   6.921   4.473   4.995 -0.7640 -0.1030  0.5826
  157OSM   H12G17612   7.052   4.381   4.914 -0.0046  0.3761  0.1533
  157OSM   C13F17613   6.976   4.289   5.097 -0.5225 -0.0548 -0.9580
  157OSM   H13F17614   7.010   4.192   5.056 -0.0486 -0.4463  0.3235
  157OSM   H13G17615   6.876   4.278   5.145 -0.7020 -0.0422 -1.3282
  157OSM   C14F17616   7.066   4.349   5.201  0.0003 -0.3061  0.5770
  157OSM   H14F17617   7.019   4.448   5.222  0.4448 -0.1818  1.0082
  157OSM   H14G17618   7.172   4.357   5.169 -0.3056 -0.4576 -0.5285
  157OSM   C15F17619   7.081   4.263   5.324  0.2764 -0.2756 -0.5827
  157OSM   H15F17620   7.172   4.287   5.383 -0.7183 -0.8483  1.2502
  157OSM   H15G17621   7.078   4.156   5.295 -0.7891 -0.1557 -0.9543
  157OSM   C16F17622   6.958   4.269   5.425  0.0918 -0.1241 -0.2056
  157OSM   H16F17623   6.869   4.285   5.360  0.3124  1.7454 -0.0964
  157OSM   H16G17624   6.973   4.361   5.487  0.4470  0.7936 -1.6110
  157OSM   C17F17625   6.929   4.146   5.511  0.1013  0.1564 -0.0900
  157OSM   H17F17626   6.899   4.062   5.444 -0.0223  1.5155 -1.7933
  157OSM   H17G17627   6.845   4.174   5.577  1.1970 -0.9178  1.8543
  157OSM   C18F17628   7.045   4.113   5.606 -0.3355 -0.7399 -0.6671
  157OSM   H18F17629   7.063   4.188   5.686  1.8614 -0.7118 -1.1249
  157OSM   H18G17630   7.144   4.112   5.556 -1.1691  1.2744 -2.5425
  157OSM   H18H17631   7.025   4.015   5.655  1.8553 -1.7055 -1.5648
  158OSM      N17632   2.146   2.646   3.711  0.5545 -0.0008  0.3713
  158OSM    C1517633   2.034   2.617   3.607  0.4809  0.4677  0.2991
  158OSM   H15A17634   1.950   2.685   3.614 -0.7738 -0.8348 -1.3926
  158OSM   H15B17635   1.993   2.518   3.615  0.5799  0.5260  1.7944
  158OSM   H15C17636   2.076   2.628   3.508 -0.9271  1.3790 -0.2309
  158OSM    C1417637   2.196   2.790   3.694 -0.6409 -0.0150 -0.6319
  158OSM   H14A17638   2.209   2.823   3.592 -1.9819  0.1644 -0.7654
  158OSM   H14B17639   2.286   2.804   3.752 -2.6564  3.8330  2.0838
  158OSM   H14C17640   2.121   2.858   3.731 -0.4659 -0.7756  1.2322
  158OSM    C1317641   2.092   2.622   3.846 -0.2704  0.2616 -0.4248
  158OSM   H13A17642   2.053   2.522   3.860 -0.9414  0.6318  0.3903
  158OSM   H13B17643   2.011   2.691   3.867 -0.0556 -0.0267  1.4308
  158OSM   H13C17644   2.175   2.629   3.914  0.5763  0.2868 -1.4312
  158OSM    C1217645   2.258   2.558   3.679  0.2647  0.1577 -0.1199
  158OSM   H12A17646   2.297   2.582   3.582  1.0373 -1.4207 -0.2330
  158OSM   H12B17647   2.226   2.456   3.663 -1.5882  0.6234  0.3285
  158OSM    C1117648   2.381   2.551   3.770  0.1894  0.4193  0.0401
  158OSM   H11A17649   2.434   2.648   3.782 -0.5579  0.8482 -0.0571
  158OSM   H11B17650   2.455   2.476   3.735  0.3626 -0.3866  1.9821
  158OSM      P17651   2.317   2.351   3.943 -0.0189 -0.0629 -0.2764
  158OSM    O1317652   2.217   2.350   4.050 -0.2226 -0.3023 -0.6099
  158OSM    O1417653   2.303   2.254   3.830  0.2160  0.2104 -0.3634
  158OSM    O1117654   2.454   2.328   4.014  0.0858  0.5421  0.3234
  158OSM    O1217655   2.336   2.502   3.897  0.0794  0.3063 -0.3743
  158OSM    C1S17656   2.514   2.432   4.092 -0.0698  0.5671  0.0403
  158OSM    H1S17657   2.435   2.479   4.154  1.2863 -0.0443  2.3555
  158OSM    H1T17658   2.568   2.504   4.026  2.1074  0.4381  1.5634
  158OSM     NF17659   2.682   2.484   4.276 -0.4242  0.7273 -0.3787
  158OSM    HNF17660   2.774   2.509   4.248  0.5124 -0.9347  0.9730
  158OSM    C2S17661   2.609   2.376   4.208  0.1487  0.2272 -0.6596
  158OSM    H2S17662   2.557   2.315   4.286  0.2884  0.1626 -0.6169
  158OSM    C3S17663   2.714   2.281   4.144 -0.0699  0.1570 -0.4609
  158OSM    H3S17664   2.789   2.341   4.088 -0.2989  0.1812 -0.7498
  158OSM     O317665   2.656   2.185   4.053  0.2582 -0.3123 -0.2361
  158OSM    HO317666   2.562   2.200   4.064  0.5257  1.4835  0.0026
  158OSM    C4S17667   2.774   2.207   4.262  0.1012 -0.0919 -0.3447
  158OSM    H4S17668   2.707   2.152   4.331  1.6066  0.2398  1.4748
  158OSM    C5S17669   2.902   2.179   4.290  0.0505  0.2385  0.3044
  158OSM    H5S17670   2.984   2.213   4.226  0.2671  1.9966  1.4326
  158OSM    C6S17671   2.930   2.092   4.408  0.9705 -0.7845 -0.2463
  158OSM    H6S17672   3.032   2.047   4.409  0.8549 -1.0409  0.2298
  158OSM    H6T17673   2.869   1.999   4.410  1.2036 -0.9489 -0.6573
  158OSM    C7S17674   2.912   2.155   4.545  0.4257 -0.8569  0.8543
  158OSM    H7S17675   2.804   2.180   4.556  0.6327  1.7253 -1.6636
  158OSM    H7T17676   2.978   2.245   4.550  0.7728 -1.1584  2.2142
  158OSM    C8S17677   2.971   2.072   4.660  0.0710  0.4264  0.8560
  158OSM    H8S17678   3.079   2.053   4.641 -0.1611 -1.2135  1.0495
  158OSM    H8T17679   2.920   1.973   4.670 -0.2415  0.4882 -0.0352
  158OSM    C9S17680   2.950   2.154   4.786  0.5328 -0.3004  0.0702
  158OSM    H9S17681   2.848   2.199   4.789  0.8134  0.3065  2.0775
  158OSM    H9T17682   3.013   2.245   4.787  0.1313 -0.0229  0.3172
  158OSM   C10S17683   2.961   2.075   4.914 -0.2060  0.3115  0.4856
  158OSM   H10S17684   3.060   2.023   4.913 -0.2753  0.1745  0.7771
  158OSM   H10T17685   2.883   1.997   4.911  1.1765 -1.0928 -1.3363
  158OSM   C11S17686   2.959   2.157   5.041 -0.2322  0.5917  0.1270
  158OSM   H11S17687   2.865   2.216   5.046  0.2889  1.5445 -0.9164
  158OSM   H11T17688   3.045   2.227   5.040  0.8729 -0.6467  2.1867
  158OSM   C12S17689   2.988   2.072   5.172  0.2548 -0.0752  0.1611
  158OSM   H12S17690   3.078   2.010   5.152  0.7818  0.7516 -0.0861
  158OSM   H12T17691   2.897   2.008   5.183 -0.0807  0.3703  0.0180
  158OSM   C13S17692   2.993   2.159   5.296  0.4491 -0.0395  0.0216
  158OSM   H13S17693   2.897   2.190   5.342  0.3734 -1.1494  0.6399
  158OSM   H13T17694   3.055   2.249   5.275  0.5559 -0.0278  0.3899
  158OSM   C14S17695   3.054   2.093   5.420  0.2145 -0.1536  0.3950
  158OSM   H14S17696   3.150   2.045   5.391  0.0712 -0.8670  1.0705
  158OSM   H14T17697   2.989   2.004   5.436 -1.2307  1.0348  1.3632
  158OSM   C15S17698   3.048   2.174   5.549  0.1230  0.2300  0.2152
  158OSM   H15S17699   2.964   2.246   5.540 -0.0329  0.3040  1.8759
  158OSM   H15T17700   3.135   2.242   5.553 -0.0842  0.7386 -2.3851
  158OSM   C16S17701   3.057   2.086   5.676 -0.1285  0.5236  0.3953
  158OSM   H16S17702   3.159   2.046   5.695 -0.2237  0.8681  1.7705
  158OSM   H16T17703   2.979   2.007   5.675 -0.8185  1.1160  2.1991
  158OSM   C17S17704   3.022   2.162   5.798 -0.2181 -0.2067 -0.6711
  158OSM   H17S17705   3.083   2.254   5.807  1.9311 -1.4268 -2.0349
  158OSM   H17T17706   3.049   2.101   5.887  0.8041  2.4468  0.9717
  158OSM   C18S17707   2.877   2.192   5.821 -0.0243  0.1155 -0.3544
  158OSM   H18S17708   2.839   2.226   5.919 -0.4413  0.3166 -0.5835
  158OSM   H18T17709   2.805   2.118   5.779 -0.9356  2.1177 -2.5164
  158OSM   H18U17710   2.853   2.272   5.748 -1.8257  1.4922  1.6318
  158OSM    C1F17711   2.622   2.548   4.381 -0.0371  0.0308  0.6122
  158OSM     OF17712   2.513   2.504   4.422  0.3759  0.2922  0.6785
  158OSM    C2F17713   2.681   2.673   4.432 -0.0592  0.0988 -0.3526
  158OSM    H2F17714   2.611   2.759   4.426 -1.1960 -0.7590  0.2311
  158OSM    H2G17715   2.776   2.691   4.376  0.6110 -1.8084  0.0930
  158OSM    C3F17716   2.727   2.651   4.575  0.1482  0.6109  0.0877
  158OSM    H3F17717   2.651   2.608   4.644 -1.7379  1.8037 -1.1677
  158OSM    H3G17718   2.752   2.749   4.622  0.0884  1.7133 -2.0625
  158OSM    C4F17719   2.859   2.562   4.585  0.4284  0.4704  0.2979
  158OSM    H4F17720   2.940   2.601   4.520  1.6480  0.2001  1.5905
  158OSM    H4G17721   2.834   2.463   4.542  1.8698  0.3800 -0.4025
  158OSM    C5F17722   2.922   2.559   4.724  0.1942 -0.6764  0.1390
  158OSM    H5F17723   2.992   2.644   4.734 -0.4142 -0.0170 -0.9745
  158OSM    H5G17724   2.978   2.464   4.739  0.6331 -0.3625  0.5136
  158OSM    C6F17725   2.820   2.557   4.837  0.3998 -0.7332  0.6484
  158OSM    H6F17726   2.731   2.493   4.818  0.0369  0.1550 -0.7833
  158OSM    H6G17727   2.797   2.664   4.855  0.3000 -0.5107 -0.7149
  158OSM    C7F17728   2.869   2.508   4.970 -0.5767 -0.0828  0.3113
  158OSM    H7F17729   2.895   2.400   4.959  2.3434  0.6395 -0.8735
  158OSM    H7G17730   2.790   2.513   5.048  0.6820 -0.4694  1.6729
  158OSM    C8F17731   2.999   2.580   5.009 -0.2340 -0.1409  0.1082
  158OSM    H8F17732   2.987   2.690   4.999 -0.6107 -0.0701  1.1628
  158OSM    H8G17733   3.085   2.550   4.946  1.8271  1.1391  2.1582
  158OSM    C9F17734   3.038   2.529   5.141  0.0478  0.5896 -0.3775
  158OSM    H9F17735   3.101   2.439   5.149 -1.1019 -0.0583  3.9461
  158OSM   C10F17736   2.997   2.573   5.262  0.2610  0.4450 -0.5021
  158OSM   H10F17737   3.044   2.511   5.338 -1.6701 -0.2170  0.2075
  158OSM   C11F17738   2.924   2.695   5.301  0.3586  0.9753 -0.3748
  158OSM   H11F17739   2.871   2.737   5.213 -1.2129  1.4966  0.7796
  158OSM   H11G17740   2.987   2.774   5.348  2.0893 -0.8060  0.4769
  158OSM   C12F17741   2.812   2.656   5.403 -0.4336 -0.3491 -0.0908
  158OSM   H12F17742   2.755   2.572   5.359 -1.0460 -1.2312  2.2404
  158OSM   H12G17743   2.746   2.746   5.405  0.6473  0.4746  1.9559
  158OSM   C13F17744   2.867   2.619   5.535 -0.4698  0.2143 -0.3069
  158OSM   H13F17745   2.944   2.697   5.552  0.1338 -0.3132 -0.5922
  158OSM   H13G17746   2.910   2.517   5.542 -1.0986  0.0121  0.8209
  158OSM   C14F17747   2.763   2.638   5.656 -0.5510  0.1436 -0.3445
  158OSM   H14F17748   2.682   2.563   5.642  0.7684 -2.2028  3.0877
  158OSM   H14G17749   2.723   2.741   5.643  1.4379  0.7137 -2.6015
  158OSM   C15F17750   2.823   2.622   5.800  0.5067  0.0416 -0.0938
  158OSM   H15F17751   2.892   2.708   5.814 -0.0133  0.6712 -1.2484
  158OSM   H15G17752   2.885   2.530   5.809 -1.4387 -1.1874  1.9400
  158OSM   C16F17753   2.730   2.638   5.916  0.6971 -0.6345 -0.1291
  158OSM   H16F17754   2.641   2.572   5.908  0.4513 -0.4831  1.1838
  158OSM   H16G17755   2.680   2.737   5.912  1.0032 -0.4185  1.1484
  158OSM   C17F17756   2.798   2.621   6.057 -0.2459 -0.0636  0.3071
  158OSM   H17F17757   2.717   2.649   6.127  0.6521  1.7324  0.6680
  158OSM   H17G17758   2.888   2.685   6.050  0.6729 -1.4622 -1.6595
  158OSM   C18F17759   2.844   2.472   6.076  0.2859  0.1636  0.3660
  158OSM   H18F17760   2.752   2.415   6.099 -0.1078  1.7553  3.1684
  158OSM   H18G17761   2.908   2.463   6.165  0.7657 -0.0127  0.0086
  158OSM   H18H17762   2.893   2.428   5.986  1.1659  0.6183  0.6225
  159OSM      N17763   4.721   0.563   3.450  0.2842  0.0794  0.2670
  159OSM    C1517764   4.799   0.688   3.424  0.4259 -0.4078 -0.0351
  159OSM   H15A17765   4.874   0.678   3.348 -1.0691 -2.1525 -1.3656
  159OSM   H15B17766   4.847   0.730   3.511  1.2142 -2.2796  0.4847
  159OSM   H15C17767   4.734   0.761   3.378 -0.5668 -1.1605  0.1183
  159OSM    C1417768   4.595   0.596   3.517 -0.7575 -0.2368  0.4504
  159OSM   H14A17769   4.542   0.675   3.466  1.5800  1.6548  0.7972
  159OSM   H14B17770   4.624   0.622   3.618  2.0318  0.9272 -0.5304
  159OSM   H14C17771   4.537   0.505   3.513  2.7113 -2.6640 -2.6181
  159OSM    C1317772   4.675   0.508   3.317 -0.0216  0.2051  0.7634
  159OSM   H13A17773   4.641   0.405   3.317 -0.4802  0.3226 -1.5382
  159OSM   H13B17774   4.759   0.504   3.250  0.1815  0.2906  1.0116
  159OSM   H13C17775   4.599   0.565   3.266 -0.1134 -0.6902 -0.1212
  159OSM    C1217776   4.808   0.464   3.521 -0.1767  0.3426 -0.3342
  159OSM   H12A17777   4.900   0.458   3.465 -0.9192  1.1840 -1.6945
  159OSM   H12B17778   4.764   0.366   3.507 -1.6568  1.0485 -0.8668
  159OSM    C1117779   4.847   0.488   3.671 -0.4789 -0.2035 -0.3602
  159OSM   H11A17780   4.908   0.581   3.674 -0.6679 -0.0902  1.5607
  159OSM   H11B17781   4.915   0.405   3.699 -0.1701 -0.7773 -2.6313
  159OSM      P17782   4.656   0.367   3.801  0.1734 -0.1363 -0.2099
  159OSM    O1317783   4.532   0.409   3.876 -0.4328 -0.3884 -0.6707
  159OSM    O1417784   4.628   0.270   3.692 -0.5357 -0.5340  0.5740
  159OSM    O1117785   4.768   0.304   3.896 -0.1676 -0.5052 -0.0459
  159OSM    O1217786   4.727   0.500   3.755 -1.2801  0.4126  0.1010
  159OSM    C1S17787   4.745   0.295   4.041 -0.5512  0.3688  0.1820
  159OSM    H1S17788   4.675   0.374   4.074  0.1321  0.9220  0.3356
  159OSM    H1T17789   4.840   0.335   4.081 -0.1931 -2.2515  2.1956
  159OSM     NF17790   4.741   0.161   4.247  0.2194 -0.1799  0.0317
  159OSM    HNF17791   4.826   0.141   4.296  0.3327  0.7116  0.2140
  159OSM    C2S17792   4.743   0.148   4.105  0.4766  0.3006 -0.7321
  159OSM    H2S17793   4.647   0.102   4.075  1.1697 -1.1536 -0.7932
  159OSM    C3S17794   4.854   0.055   4.055 -0.6429  0.9584 -0.2541
  159OSM    H3S17795   4.948   0.098   4.096  0.0206 -1.4163  0.9138
  159OSM     O317796   4.884   0.061   3.913  0.0850 -0.4379 -0.7469
  159OSM    HO317797   4.849   0.145   3.883 -1.4666 -1.8953 -3.3288
  159OSM    C4S17798   4.847  -0.095   4.093 -0.8455 -0.6749 -0.8064
  159OSM    H4S17799   4.754  -0.140   4.058 -1.1663  0.5102 -1.5255
  159OSM    C5S17800   4.941  -0.161   4.166 -0.2576 -0.2792 -0.3848
  159OSM    H5S17801   5.029  -0.100   4.189 -0.1415 -0.3919 -0.5295
  159OSM    C6S17802   4.946  -0.308   4.199  1.0130 -0.0723 -0.2518
  159OSM    H6S17803   5.044  -0.350   4.168  1.3370 -0.2506  0.9461
  159OSM    H6T17804   4.863  -0.357   4.144  1.5298 -1.0188 -0.1988
  159OSM    C7S17805   4.937  -0.327   4.350 -0.4553  0.1955  0.5106
  159OSM    H7S17806   4.845  -0.279   4.389 -1.2836  0.8253 -2.0086
  159OSM    H7T17807   5.033  -0.292   4.393  1.0801 -0.1691 -2.3594
  159OSM    C8S17808   4.936  -0.477   4.386 -0.1123  0.1113 -0.0731
  159OSM    H8S17809   5.020  -0.531   4.337 -0.7803 -1.8310  0.7891
  159OSM    H8T17810   4.844  -0.526   4.348  1.1779 -1.8994 -0.7524
  159OSM    C9S17811   4.943  -0.505   4.536  0.8012  0.0095  0.3526
  159OSM    H9S17812   4.852  -0.456   4.577  1.2297  0.9631  0.1978
  159OSM    H9T17813   5.034  -0.459   4.580  0.6183  1.7417 -0.9607
  159OSM   C10S17814   4.944  -0.661   4.561 -0.5666  0.0932 -0.1169
  159OSM   H10S17815   5.013  -0.715   4.492  0.1917  1.9390 -0.8653
  159OSM   H10T17816   4.840  -0.694   4.543  0.1575 -1.2534 -2.1672
  159OSM   C11S17817   4.989  -0.701   4.708 -0.2384 -0.4382  0.3080
  159OSM   H11S17818   5.097  -0.676   4.718 -0.0890 -1.5632  1.9020
  159OSM   H11T17819   4.990  -0.811   4.721  1.3543 -0.2994  1.6698
  159OSM   C12S17820   4.917  -0.636   4.822 -0.2370 -0.5213  0.4485
  159OSM   H12S17821   4.807  -0.654   4.822 -0.2389 -0.5261 -0.1828
  159OSM   H12T17822   4.909  -0.525   4.819  0.6584 -0.4247  1.2668
  159OSM   C13S17823   4.981  -0.665   4.959  0.3981 -0.3338  0.1053
  159OSM   H13S17824   5.070  -0.600   4.964  0.2967 -0.2744  1.4367
  159OSM   H13T17825   5.011  -0.772   4.957  1.1972 -0.1175  0.3370
  159OSM   C14S17826   4.887  -0.636   5.080  0.0829  1.1353 -0.4835
  159OSM   H14S17827   4.793  -0.695   5.076  0.2458  0.8821 -0.6020
  159OSM   H14T17828   4.865  -0.527   5.077 -0.1661  1.0833 -0.6316
  159OSM   C15S17829   4.950  -0.657   5.217 -0.2065  0.4621 -0.2842
  159OSM   H15S17830   4.882  -0.612   5.292  0.2526  1.4192 -0.4284
  159OSM   H15T17831   5.040  -0.592   5.223  0.8377 -1.0467  1.4052
  159OSM   C16S17832   4.983  -0.806   5.246 -1.0637 -0.3674  0.4404
  159OSM   H16S17833   5.070  -0.833   5.183 -0.9032  0.1287  0.4408
  159OSM   H16T17834   4.902  -0.878   5.222 -0.7247 -0.7398  0.4036
  159OSM   C17S17835   5.012  -0.817   5.394 -0.0897  0.6295  0.4733
  159OSM   H17S17836   4.999  -0.922   5.430 -0.2536  0.8962  1.2181
  159OSM   H17T17837   4.932  -0.765   5.451 -0.2673  1.7126 -0.7124
  159OSM   C18S17838   5.151  -0.769   5.438 -0.3249 -0.9534  0.0384
  159OSM   H18S17839   5.156  -0.773   5.549  0.6742 -0.4248  0.0246
  159OSM   H18T17840   5.167  -0.663   5.410 -0.0280 -0.8408  0.6117
  159OSM   H18U17841   5.236  -0.822   5.388 -0.5569 -0.9441 -0.3705
  159OSM    C1F17842   4.639   0.215   4.305  0.2548  0.1743 -0.2496
  159OSM     OF17843   4.528   0.229   4.248  0.5977 -0.0938 -0.0752
  159OSM    C2F17844   4.661   0.262   4.447  0.2641 -0.3341 -0.4035
  159OSM    H2F17845   4.626   0.366   4.466  0.8111  0.5901 -3.7933
  159OSM    H2G17846   4.770   0.267   4.466  0.4219 -2.1541 -0.6739
  159OSM    C3F17847   4.599   0.159   4.549 -0.6706 -0.2654  0.3240
  159OSM    H3F17848   4.643   0.062   4.517  2.9511  1.6110 -1.0412
  159OSM    H3G17849   4.489   0.171   4.550 -0.5685  0.7627 -0.1652
  159OSM    C4F17850   4.645   0.181   4.697  0.0433  0.4068  0.2815
  159OSM    H4F17851   4.596   0.273   4.737  0.8766  0.0692  2.1850
  159OSM    H4G17852   4.754   0.201   4.689  0.4963 -1.5612  1.1175
  159OSM    C5F17853   4.626   0.050   4.781  0.2691 -0.1001  0.9803
  159OSM    H5F17854   4.658  -0.040   4.725 -0.7340 -0.0160  0.2435
  159OSM    H5G17855   4.516   0.034   4.794 -0.0290 -0.3955 -1.4237
  159OSM    C6F17856   4.712   0.040   4.913  0.3739  0.5027 -0.1355
  159OSM    H6F17857   4.819   0.024   4.889  1.0418  3.0047  0.9121
  159OSM    H6G17858   4.673  -0.052   4.962 -0.2472 -0.4668 -2.3152
  159OSM    C7F17859   4.708   0.160   5.004 -0.6151 -0.7627 -0.0439
  159OSM    H7F17860   4.603   0.197   5.013 -1.4597 -3.1078  0.1974
  159OSM    H7G17861   4.761   0.246   4.958  0.8377 -1.0508  1.0314
  159OSM    C8F17862   4.758   0.128   5.147 -0.1887 -0.6738 -0.2794
  159OSM    H8F17863   4.751   0.220   5.208 -2.3309 -1.2412  0.4405
  159OSM    H8G17864   4.863   0.092   5.146  0.2798  0.6272 -0.1599
  159OSM    C9F17865   4.666   0.028   5.214 -0.5760  0.7097  0.2646
  159OSM    H9F17866   4.666  -0.077   5.182 -2.1640  0.4955  0.8712
  159OSM   C10F17867   4.585   0.047   5.320  0.4969 -0.5590 -0.0722
  159OSM   H10F17868   4.514  -0.031   5.350 -1.8310  1.4702  0.0013
  159OSM   C11F17869   4.572   0.175   5.400 -0.0795  0.3027 -0.2146
  159OSM   H11F17870   4.473   0.178   5.449  0.2761  0.8151  0.4938
  159OSM   H11G17871   4.566   0.265   5.335 -1.3288 -0.8424 -1.7516
  159OSM   C12F17872   4.691   0.214   5.492  0.2157 -0.1406 -0.0309
  159OSM   H12F17873   4.672   0.318   5.525 -3.3052 -0.8560  0.6056
  159OSM   H12G17874   4.788   0.219   5.438  0.3778 -0.3637  0.2351
  159OSM   C13F17875   4.714   0.136   5.621  0.4424  0.7245 -0.1359
  159OSM   H13F17876   4.806   0.181   5.663  0.9357 -1.2962  1.0727
  159OSM   H13G17877   4.731   0.028   5.601 -2.5238  0.2030 -0.3221
  159OSM   C14F17878   4.595   0.148   5.717 -0.1385 -0.0973  0.1598
  159OSM   H14F17879   4.494   0.152   5.672 -1.2263 -0.6494  2.4495
  159OSM   H14G17880   4.609   0.251   5.758  0.6134  0.6900 -1.9204
  159OSM   C15F17881   4.598   0.043   5.824  0.3691  0.2718  0.4025
  159OSM   H15F17882   4.651  -0.050   5.794  0.0665  0.1483  0.2498
  159OSM   H15G17883   4.493   0.007   5.831  0.8938 -1.9251 -1.6041
  159OSM   C16F17884   4.641   0.094   5.963  0.0988 -0.3647 -0.3662
  159OSM   H16F17885   4.621   0.203   5.972  2.5686  0.0306  1.3394
  159OSM   H16G17886   4.751   0.090   5.983  0.0445 -0.2551 -0.0405
  159OSM   C17F17887   4.580   0.018   6.082 -0.9255  0.9738  0.1221
  159OSM   H17F17888   4.588  -0.092   6.066 -0.0135  1.5053 -4.0052
  159OSM   H17G17889   4.471   0.036   6.088 -1.5941 -2.0439 -1.1496
  159OSM   C18F17890   4.629   0.052   6.213 -0.0902 -0.2021 -0.7746
  159OSM   H18F17891   4.569  -0.001   6.290 -2.1289 -0.1305 -2.2492
  159OSM   H18G17892   4.630   0.160   6.239  0.3072 -0.2296 -0.6615
  159OSM   H18H17893   4.739   0.041   6.225 -0.0518  0.9450  0.0515
  160OSM      N17894   1.366   2.793   3.844  0.2014 -0.1624  0.2957
  160OSM    C1517895   1.259   2.882   3.892  0.4721 -0.2430 -0.7075
  160OSM   H15A17896   1.297   2.974   3.935  1.1498 -1.0070  0.3903
  160OSM   H15B17897   1.211   2.849   3.983  1.2966  0.9217  0.1733
  160OSM   H15C17898   1.187   2.907   3.815 -2.2775 -2.2956  0.9912
  160OSM    C1417899   1.311   2.653   3.836 -0.1278  0.4792  0.1393
  160OSM   H14A17900   1.379   2.583   3.789  0.3642  0.5425  0.7344
  160OSM   H14B17901   1.221   2.646   3.778  0.7642 -0.8999 -1.1860
  160OSM   H14C17902   1.301   2.620   3.938  3.4769  1.1640  0.8542
  160OSM    C1317903   1.412   2.837   3.708  0.2152  0.2810  0.1370
  160OSM   H13A17904   1.463   2.932   3.724  1.7070 -0.5354  0.4746
  160OSM   H13B17905   1.326   2.841   3.643  0.2445 -0.3452  0.0598
  160OSM   H13C17906   1.469   2.756   3.665 -1.8689 -0.3613 -1.5722
  160OSM    C1217907   1.489   2.788   3.929 -0.7131 -0.5113 -0.4561
  160OSM   H12A17908   1.548   2.703   3.898 -0.2222  0.5436 -2.6282
  160OSM   H12B17909   1.458   2.779   4.031  0.5690  0.8607  0.1024
  160OSM    C1117910   1.583   2.915   3.923  0.1345 -0.4761  0.0708
  160OSM   H11A17911   1.616   2.928   3.818 -2.9401  0.8076 -0.8563
  160OSM   H11B17912   1.667   2.895   3.993 -1.0229  1.0817  2.0335
  160OSM      P17913   1.484   3.080   4.101  0.1438  0.1311 -0.1917
  160OSM    O1317914   1.571   3.195   4.137 -0.0057  0.0620  0.0763
  160OSM    O1417915   1.339   3.105   4.102 -0.5939  0.3480 -0.5831
  160OSM    O1117916   1.514   2.948   4.180 -0.2341  0.3356 -0.1876
  160OSM    O1217917   1.516   3.031   3.956  0.0087  0.5697 -0.0069
  160OSM    C1S17918   1.472   2.940   4.321  0.4996  0.7649 -0.2777
  160OSM    H1S17919   1.364   2.915   4.327  0.6798 -0.1444 -0.6193
  160OSM    H1T17920   1.495   3.028   4.385  0.4117  0.6289 -0.0571
  160OSM     NF17921   1.530   2.853   4.548 -0.0266  0.8755  0.1386
  160OSM    HNF17922   1.607   2.888   4.600  0.3253 -0.6202  0.6752
  160OSM    C2S17923   1.548   2.824   4.402 -0.2511  0.3081 -0.0061
  160OSM    H2S17924   1.501   2.727   4.375  0.7366 -0.1172 -0.2208
  160OSM    C3S17925   1.698   2.812   4.362 -0.0521 -0.1110 -0.3763
  160OSM    H3S17926   1.749   2.900   4.408 -0.3682  0.5348 -1.2248
  160OSM     O317927   1.720   2.808   4.221 -0.2572 -0.4124  0.1214
  160OSM    HO317928   1.645   2.855   4.185  0.1385 -1.3498 -2.1068
  160OSM    C4S17929   1.761   2.685   4.415 -0.1368 -0.4685 -0.0696
  160OSM    H4S17930   1.741   2.597   4.352 -2.3505  1.6538 -2.4998
  160OSM    C5S17931   1.858   2.668   4.518  0.0880  0.0594  0.5334
  160OSM    H5S17932   1.905   2.748   4.577  1.5202 -0.7295  0.5015
  160OSM    C6S17933   1.929   2.532   4.533  0.7148 -0.2149  0.5098
  160OSM    H6S17934   2.033   2.540   4.573  0.3038  0.3594  1.5147
  160OSM    H6T17935   1.929   2.484   4.433  0.7305  1.6168 -0.4116
  160OSM    C7S17936   1.844   2.430   4.616 -0.1279  0.2645 -0.7248
  160OSM    H7S17937   1.908   2.340   4.609 -1.5889 -0.7736 -0.9793
  160OSM    H7T17938   1.743   2.416   4.573 -0.4925 -1.7750  0.6944
  160OSM    C8S17939   1.822   2.478   4.766 -0.2021 -0.3648 -0.3291
  160OSM    H8S17940   1.750   2.422   4.829  0.7350  1.1418  2.2155
  160OSM    H8T17941   1.776   2.579   4.777  1.5347  0.4289  0.1098
  160OSM    C9S17942   1.955   2.477   4.847  0.2479  0.5277  0.6184
  160OSM    H9S17943   2.023   2.554   4.805  1.4749  0.0385  1.6575
  160OSM    H9T17944   2.001   2.376   4.841  1.3037  1.0363 -0.0726
  160OSM   C10S17945   1.936   2.511   4.988  0.1022  0.4373  0.4624
  160OSM   H10S17946   1.842   2.464   5.022 -0.9500  2.1179  0.0115
  160OSM   H10T17947   1.916   2.617   5.017  0.6937  0.7808 -0.3452
  160OSM   C11S17948   2.047   2.464   5.079 -0.2278  0.8933  0.1411
  160OSM   H11S17949   2.149   2.499   5.050  0.8406 -0.4569  2.0195
  160OSM   H11T17950   2.053   2.354   5.087  0.9162  0.7705 -1.7869
  160OSM   C12S17951   2.007   2.505   5.224  0.3765  0.5335  0.2072
  160OSM   H12S17952   1.918   2.443   5.247  0.7921 -0.0440  0.2724
  160OSM   H12T17953   1.981   2.613   5.233  4.5566  2.2265 -3.8313
  160OSM   C13S17954   2.106   2.479   5.332  0.5761  0.6563  0.7973
  160OSM   H13S17955   2.191   2.546   5.306  1.9336 -1.9610 -2.2180
  160OSM   H13T17956   2.132   2.374   5.309  0.8845  0.9497 -0.2659
  160OSM   C14S17957   2.058   2.495   5.476 -0.6181 -0.3924 -0.0075
  160OSM   H14S17958   1.969   2.429   5.488  0.1164 -1.0390  2.6108
  160OSM   H14T17959   2.038   2.602   5.496  1.8577  0.1423 -0.1432
  160OSM   C15S17960   2.158   2.465   5.587  0.2822 -0.7178  0.0621
  160OSM   H15S17961   2.263   2.491   5.564  0.9328 -1.1531  2.3026
  160OSM   H15T17962   2.144   2.358   5.614 -1.5354 -0.0914  1.9035
  160OSM   C16S17963   2.119   2.538   5.719  0.7487  0.0432  0.0603
  160OSM   H16S17964   2.008   2.542   5.727  0.7982 -1.3431  2.3312
  160OSM   H16T17965   2.148   2.645   5.725 -0.7814  1.0063 -4.6866
  160OSM   C17S17966   2.177   2.474   5.843  0.0760 -0.2092  0.3934
  160OSM   H17S17967   2.149   2.368   5.829  1.1681 -0.1597 -3.2599
  160OSM   H17T17968   2.117   2.497   5.933 -0.3779 -0.2999  0.1211
  160OSM   C18S17969   2.326   2.486   5.857  0.0708  0.8665 -0.3208
  160OSM   H18S17970   2.353   2.431   5.950  0.5942  1.9784  0.1942
  160OSM   H18T17971   2.362   2.591   5.861  0.7698  0.6152  0.0348
  160OSM   H18U17972   2.378   2.438   5.771  0.9306  0.5839  0.3410
  160OSM    C1F17973   1.412   2.849   4.597  0.0516  0.3209 -0.7390
  160OSM     OF17974   1.323   2.782   4.544  0.8071 -0.0757  0.2532
  160OSM    C2F17975   1.372   2.934   4.711 -0.6766  0.0220 -0.4145
  160OSM    H2F17976   1.307   3.012   4.667  0.2880  0.9091 -0.2962
  160OSM    H2G17977   1.467   2.971   4.756 -0.9351 -3.5643  3.7501
  160OSM    C3F17978   1.306   2.852   4.825 -0.4750  0.5048 -0.2710
  160OSM    H3F17979   1.363   2.762   4.853  1.0376  1.8416  1.1780
  160OSM    H3G17980   1.203   2.824   4.795 -0.7877  1.2027  0.1235
  160OSM    C4F17981   1.309   2.936   4.956 -0.3164  0.5931  1.0212
  160OSM    H4F17982   1.235   3.015   4.935 -0.5280 -0.4596 -3.0503
  160OSM    H4G17983   1.407   2.989   4.962 -0.9581  1.7463  1.5316
  160OSM    C5F17984   1.273   2.857   5.081  0.8520  0.1072 -0.1564
  160OSM    H5F17985   1.320   2.756   5.077  1.8019  0.5538 -0.6565
  160OSM    H5G17986   1.167   2.824   5.072  0.2121  1.4400  1.8162
  160OSM    C6F17987   1.308   2.919   5.213 -0.9897 -0.4980  0.3020
  160OSM    H6F17988   1.242   3.004   5.241 -1.7300 -1.1221  0.5089
  160OSM    H6G17989   1.411   2.956   5.195 -0.6368 -1.5892  0.0143
  160OSM    C7F17990   1.306   2.817   5.332  0.1176  0.3931  0.2821
  160OSM    H7F17991   1.349   2.855   5.427  0.7207 -0.2313  0.2673
  160OSM    H7G17992   1.380   2.738   5.309  1.3506  0.5952  3.1375
  160OSM    C8F17993   1.171   2.740   5.348  0.2042  1.0113 -0.0197
  160OSM    H8F17994   1.187   2.635   5.380  0.9749  1.4780  1.2171
  160OSM    H8G17995   1.116   2.734   5.252 -0.2410 -0.4509  0.3124
  160OSM    C9F17996   1.084   2.822   5.441 -0.2643  0.0950 -0.0729
  160OSM    H9F17997   1.077   2.925   5.403  2.9876  0.5292  0.2040
  160OSM   C10F17998   1.029   2.775   5.552 -0.3792 -0.5357 -0.3109
  160OSM   H10F17999   0.958   2.835   5.612 -0.0283 -0.7987  0.3880
  160OSM   C11F18000   1.040   2.634   5.612 -0.3579 -0.1964  0.7720
  160OSM   H11F18001   1.108   2.562   5.563 -0.1097  0.6606 -0.1596
  160OSM   H11G18002   0.942   2.581   5.613  0.5556 -1.9786  0.8878
  160OSM   C12F18003   1.103   2.642   5.752 -0.1735 -0.3239  0.1435
  160OSM   H12F18004   1.107   2.541   5.798 -0.3547 -0.6630 -0.5573
  160OSM   H12G18005   1.035   2.704   5.814 -2.3730  1.0482 -3.3297
  160OSM   C13F18006   1.245   2.694   5.749 -0.0569 -0.1320  0.0907
  160OSM   H13F18007   1.255   2.804   5.736  0.7358 -0.2853 -0.7085
  160OSM   H13G18008   1.302   2.653   5.662  1.0494  1.0801  0.2179
  160OSM   C14F18009   1.338   2.660   5.868 -0.4755  0.0123  0.7488
  160OSM   H14F18010   1.447   2.668   5.847 -0.3650 -2.6887 -0.0084
  160OSM   H14G18011   1.339   2.550   5.878  0.2253 -0.3120 -2.0863
  160OSM   C15F18012   1.309   2.742   6.000  0.5955  0.4637 -0.4597
  160OSM   H15F18013   1.245   2.830   5.976 -0.7283 -0.4304 -0.3310
  160OSM   H15G18014   1.408   2.776   6.039  1.9108 -2.0109 -1.4448
  160OSM   C16F18015   1.252   2.648   6.116  0.8384 -0.8549  0.3502
  160OSM   H16F18016   1.151   2.612   6.088  0.8126 -0.8366  0.4202
  160OSM   H16G18017   1.242   2.707   6.209 -0.3306 -1.5730  0.7052
  160OSM   C17F18018   1.338   2.528   6.139 -0.1334  0.0079 -0.2411
  160OSM   H17F18019   1.436   2.563   6.099 -1.1616  1.7475 -1.4146
  160OSM   H17G18020   1.301   2.447   6.072  0.4987  1.6719 -2.7598
  160OSM   C18F18021   1.336   2.483   6.285 -0.0239 -0.4817  0.7688
  160OSM   H18F18022   1.371   2.570   6.346 -2.0757 -0.0108  1.3385
  160OSM   H18G18023   1.419   2.415   6.312 -0.8157 -1.6351  0.3487
  160OSM   H18H18024   1.245   2.443   6.335  1.3445 -1.9053  2.2510
  161OSM      N18025   6.320   3.757   3.731 -0.7049 -0.2847 -0.2077
  161OSM    C1518026   6.258   3.876   3.801 -0.1831  0.5581  0.1697
  161OSM   H15A18027   6.328   3.922   3.869 -0.2767  0.6518  0.2034
  161OSM   H15B18028   6.176   3.842   3.863 -1.3108  0.6045 -1.2395
  161OSM   H15C18029   6.226   3.949   3.728  0.5308 -1.1460 -1.9415
  161OSM    C1418030   6.231   3.701   3.630  0.6144  0.2285  0.2344
  161OSM   H14A18031   6.286   3.651   3.552  0.9626  0.9501  0.0039
  161OSM   H14B18032   6.173   3.776   3.579  1.3319  0.2118 -0.6204
  161OSM   H14C18033   6.161   3.641   3.687  2.1972 -0.2347  1.8036
  161OSM    C1318034   6.432   3.829   3.651  0.4999  0.3985 -0.0506
  161OSM   H13A18035   6.453   3.774   3.560  0.3608  0.6237 -0.2213
  161OSM   H13B18036   6.526   3.839   3.703  1.8140 -0.1954 -2.1851
  161OSM   H13C18037   6.398   3.927   3.620 -3.7337 -0.4887  1.1347
  161OSM    C1218038   6.372   3.647   3.820 -0.5160  0.3532 -0.8722
  161OSM   H12A18039   6.467   3.669   3.866 -1.2470 -0.6673  1.2748
  161OSM   H12B18040   6.402   3.560   3.763 -1.6310 -0.4661 -0.2641
  161OSM    C1118041   6.284   3.603   3.935  0.1266  0.6267  0.2292
  161OSM   H11A18042   6.269   3.697   3.993  0.4674 -0.9113  2.9968
  161OSM   H11B18043   6.335   3.525   3.995 -1.6004  0.9292  2.2031
  161OSM      P18044   6.145   3.409   3.816  0.0353 -0.4016 -0.1402
  161OSM    O1318045   6.031   3.404   3.729 -0.7170  0.0865  0.4717
  161OSM    O1418046   6.266   3.365   3.753 -0.3293 -0.3440  0.3491
  161OSM    O1118047   6.115   3.309   3.933  0.0031 -0.3339 -0.0038
  161OSM    O1218048   6.164   3.553   3.883 -0.0134  0.7844 -0.4465
  161OSM    C1S18049   6.013   3.329   4.028  0.4502 -0.3856  0.4720
  161OSM    H1S18050   5.916   3.292   3.987  1.4127 -1.2658 -1.1304
  161OSM    H1T18051   5.996   3.433   4.063  0.3285 -0.3005  0.1610
  161OSM     NF18052   5.923   3.240   4.244 -0.3882 -0.0901 -0.2125
  161OSM    HNF18053   5.921   3.309   4.316  3.4099 -0.7680  0.7550
  161OSM    C2S18054   6.044   3.249   4.162 -0.0037 -0.1844  0.4007
  161OSM    H2S18055   6.081   3.146   4.146 -2.4338 -1.3154  1.5786
  161OSM    C3S18056   6.158   3.333   4.235  0.6036  0.9743  0.1726
  161OSM    H3S18057   6.110   3.432   4.249 -1.5754 -0.2028  1.6213
  161OSM     O318058   6.274   3.340   4.159 -0.2114 -0.1228  0.2725
  161OSM    HO318059   6.242   3.310   4.074  0.3436 -1.8600  0.6451
  161OSM    C4S18060   6.192   3.288   4.377  0.3877 -0.6115  0.6217
  161OSM    H4S18061   6.122   3.336   4.446  0.9234 -0.9673  1.4221
  161OSM    C5S18062   6.287   3.201   4.418  0.1576 -0.2203  0.0159
  161OSM    H5S18063   6.354   3.161   4.340  0.1495 -0.0693 -0.0677
  161OSM    C6S18064   6.304   3.147   4.560 -0.3345  0.2987 -0.2298
  161OSM    H6S18065   6.408   3.155   4.598 -0.2026 -1.9660  0.0784
  161OSM    H6T18066   6.278   3.039   4.554 -2.2692  0.7044  0.2615
  161OSM    C7S18067   6.210   3.185   4.676 -0.1157 -0.8430  0.4291
  161OSM    H7S18068   6.106   3.158   4.646 -0.1331  0.6294 -1.0344
  161OSM    H7T18069   6.215   3.296   4.686  0.8583 -0.4814 -2.7223
  161OSM    C8S18070   6.251   3.115   4.804  0.2859 -0.3615 -0.1485
  161OSM    H8S18071   6.346   3.151   4.848 -1.2556  3.1445  0.6589
  161OSM    H8T18072   6.255   3.004   4.792 -0.2816 -0.6022  1.5826
  161OSM    C9S18073   6.145   3.154   4.914 -0.6827  0.1001 -0.0613
  161OSM    H9S18074   6.046   3.126   4.871 -0.7922  1.0574 -0.4581
  161OSM    H9T18075   6.167   3.262   4.925 -0.1053 -0.0743  0.5290
  161OSM   C10S18076   6.170   3.087   5.047  0.5102 -0.6203 -0.0371
  161OSM   H10S18077   6.276   3.099   5.078  0.0639 -0.2381  1.4641
  161OSM   H10T18078   6.147   2.980   5.027  0.9743 -0.5797 -0.8019
  161OSM   C11S18079   6.086   3.160   5.160 -0.2201 -0.3711 -0.1031
  161OSM   H11S18080   5.976   3.149   5.151 -0.1058 -0.8229 -1.1413
  161OSM   H11T18081   6.126   3.263   5.150 -0.3354 -0.3418 -0.2673
  161OSM   C12S18082   6.140   3.102   5.293 -0.9050  0.1465 -0.6694
  161OSM   H12S18083   6.237   3.050   5.279 -0.7596 -0.1558  1.2271
  161OSM   H12T18084   6.079   3.014   5.323  0.6023 -1.2685 -1.5791
  161OSM   C13S18085   6.151   3.192   5.413 -0.7288 -0.1011  0.1740
  161OSM   H13S18086   6.228   3.272   5.404 -0.9291  0.2532  1.4699
  161OSM   H13T18087   6.201   3.134   5.493  0.5243 -1.3905 -1.4649
  161OSM   C14S18088   6.024   3.264   5.468 -0.0516 -0.1566  0.3236
  161OSM   H14S18089   5.949   3.183   5.480  0.9181 -0.8989  1.7321
  161OSM   H14T18090   5.989   3.339   5.394  1.1546  2.3974  2.1889
  161OSM   C15S18091   6.034   3.334   5.602  0.4106 -0.1995 -0.1408
  161OSM   H15S18092   6.046   3.253   5.677 -0.7903  0.4012  0.7331
  161OSM   H15T18093   5.931   3.370   5.623 -0.0732 -0.6190 -1.6631
  161OSM   C16S18094   6.130   3.450   5.597 -0.3696 -0.5680  0.0356
  161OSM   H16S18095   6.129   3.486   5.492 -2.4687 -1.4682 -0.3061
  161OSM   H16T18096   6.235   3.419   5.613 -0.0618 -0.2849 -1.2964
  161OSM   C17S18097   6.101   3.563   5.697 -0.0035 -0.4884 -0.4513
  161OSM   H17S18098   6.096   3.520   5.799 -2.6661 -1.5312 -0.9431
  161OSM   H17T18099   5.997   3.594   5.675 -0.9128 -2.2319  1.1311
  161OSM   C18S18100   6.191   3.690   5.682 -0.6383  0.3155  0.6394
  161OSM   H18S18101   6.175   3.732   5.580  0.4430 -0.1583  0.2501
  161OSM   H18T18102   6.298   3.658   5.676 -1.4803 -2.9608  0.9200
  161OSM   H18U18103   6.165   3.761   5.763 -2.3706 -0.5441  0.8666
  161OSM    C1F18104   5.822   3.168   4.199 -0.4081  0.7382  0.2268
  161OSM     OF18105   5.828   3.100   4.097 -0.6155  0.3186 -0.1674
  161OSM    C2F18106   5.693   3.160   4.282 -0.3580 -0.5595 -0.2105
  161OSM    H2F18107   5.608   3.171   4.212 -0.0553  1.1062 -0.3712
  161OSM    H2G18108   5.687   3.243   4.356 -0.8631 -0.1546 -0.6965
  161OSM    C3F18109   5.688   3.029   4.359  0.3587 -0.5622 -0.2877
  161OSM    H3F18110   5.771   3.045   4.431  1.8340 -0.7869 -1.8711
  161OSM    H3G18111   5.715   2.938   4.301 -1.6265 -0.9162 -0.7323
  161OSM    C4F18112   5.561   2.989   4.427 -0.0583 -0.5660 -0.3212
  161OSM    H4F18113   5.475   2.965   4.361 -2.0482  0.3927  1.7378
  161OSM    H4G18114   5.523   3.081   4.477  0.4232  0.0798 -1.1202
  161OSM    C5F18115   5.583   2.879   4.525  0.2799  0.0439  1.0637
  161OSM    H5F18116   5.656   2.899   4.607  3.1385 -0.3384 -1.2372
  161OSM    H5G18117   5.619   2.793   4.464 -0.2082  1.8910 -2.0359
  161OSM    C6F18118   5.457   2.822   4.588  0.9347  0.0259  0.6081
  161OSM    H6F18119   5.475   2.719   4.627 -1.2592 -0.2376  1.0291
  161OSM    H6G18120   5.377   2.822   4.511  0.8038 -0.7793  0.7306
  161OSM    C7F18121   5.399   2.907   4.702  0.1267  0.2650 -0.1820
  161OSM    H7F18122   5.351   3.002   4.670 -1.3663  0.0614  1.3291
  161OSM    H7G18123   5.491   2.938   4.755  0.9138 -2.5913  0.2512
  161OSM    C8F18124   5.312   2.834   4.809 -0.1724 -0.1679  0.7017
  161OSM    H8F18125   5.360   2.735   4.824  0.4687 -0.0517 -0.4555
  161OSM    H8G18126   5.222   2.814   4.747  0.9167 -0.4174 -0.8518
  161OSM    C9F18127   5.302   2.911   4.941 -0.6882  0.0538 -0.6643
  161OSM    H9F18128   5.276   3.015   4.916 -0.6317 -0.1049 -1.4256
  161OSM   C10F18129   5.302   2.871   5.068 -0.3183 -0.5832  0.4709
  161OSM   H10F18130   5.261   2.935   5.148 -2.6619  0.6970 -1.5796
  161OSM   C11F18131   5.332   2.732   5.105 -0.0758  0.0226 -1.0473
  161OSM   H11F18132   5.345   2.669   5.014  1.8746 -1.3575  0.1049
  161OSM   H11G18133   5.255   2.689   5.172  1.6384 -0.6051  0.6134
  161OSM   C12F18134   5.451   2.717   5.204  0.2524 -0.2558 -0.1787
  161OSM   H12F18135   5.457   2.794   5.283  1.2748 -0.4344 -0.0675
  161OSM   H12G18136   5.540   2.711   5.137 -0.6197  1.3552 -1.5566
  161OSM   C13F18137   5.463   2.579   5.280 -0.8803 -0.7558 -0.4246
  161OSM   H13F18138   5.573   2.571   5.295 -1.1845 -1.0278  2.0768
  161OSM   H13G18139   5.433   2.489   5.223 -1.3457 -0.8407 -0.0559
  161OSM   C14F18140   5.384   2.580   5.414 -0.3547  0.1417 -0.3258
  161OSM   H14F18141   5.277   2.585   5.384 -0.2239 -3.0371 -1.7192
  161OSM   H14G18142   5.415   2.671   5.469 -0.1162  0.4513 -0.9553
  161OSM   C15F18143   5.400   2.465   5.515  1.0545 -0.0327  0.5247
  161OSM   H15F18144   5.508   2.468   5.542  1.2697 -0.0510 -0.3217
  161OSM   H15G18145   5.385   2.368   5.463 -1.0577 -0.5077  1.8668
  161OSM   C16F18146   5.298   2.463   5.626  0.1318 -0.7665 -0.2710
  161OSM   H16F18147   5.302   2.365   5.678  0.4664  0.3409  1.8913
  161OSM   H16G18148   5.204   2.482   5.569 -1.2960 -2.6191  1.3394
  161OSM   C17F18149   5.323   2.569   5.730  0.0196 -0.7024 -0.7228
  161OSM   H17F18150   5.344   2.669   5.688  1.2409 -0.1952  0.9339
  161OSM   H17G18151   5.417   2.539   5.783 -0.6781  0.4327  1.2450
  161OSM   C18F18152   5.206   2.590   5.838  0.1895  0.9863  0.3691
  161OSM   H18F18153   5.187   2.496   5.895  0.9195  0.6432  0.0702
  161OSM   H18G18154   5.110   2.610   5.786 -0.2454 -1.4653  0.0961
  161OSM   H18H18155   5.226   2.675   5.906 -3.2186  1.3585  1.0806
  162OSM      N18156   0.418   3.486   3.522 -0.0851 -0.1013  0.1001
  162OSM    C1518157   0.340   3.609   3.553  0.2577 -0.0907  0.3903
  162OSM   H15A18158   0.341   3.672   3.466  0.1077  1.6646  1.6188
  162OSM   H15B18159   0.378   3.653   3.644 -0.5497  1.0389  0.1873
  162OSM   H15C18160   0.237   3.589   3.576  0.2269  0.0617  0.3830
  162OSM    C1418161   0.378   3.441   3.385 -0.0529 -0.2512  1.1905
  162OSM   H14A18162   0.277   3.405   3.392 -0.5059  1.0003  1.3709
  162OSM   H14B18163   0.434   3.351   3.369 -0.8606 -0.4982 -0.4719
  162OSM   H14C18164   0.400   3.511   3.305  0.8563 -1.3337  0.4655
  162OSM    C1318165   0.564   3.512   3.517 -0.2839  0.4720  0.3182
  162OSM   H13A18166   0.607   3.556   3.606 -2.4947  2.3654  0.5470
  162OSM   H13B18167   0.596   3.575   3.434 -0.4205 -0.5698 -0.5529
  162OSM   H13C18168   0.616   3.419   3.499 -1.3970 -0.0536 -0.2828
  162OSM    C1218169   0.400   3.372   3.624  0.6490 -0.5096  0.2065
  162OSM   H12A18170   0.481   3.302   3.608  3.0226  2.0958 -0.0684
  162OSM   H12B18171   0.314   3.314   3.594  0.3070  2.1417 -5.0298
  162OSM    C1118172   0.405   3.405   3.772  0.7076 -0.2044  0.3852
  162OSM   H11A18173   0.461   3.500   3.786 -0.8557  1.1034 -1.6447
  162OSM   H11B18174   0.445   3.321   3.833  1.3672 -2.3776 -2.8194
  162OSM      P18175   0.159   3.340   3.856 -0.0036  0.5170 -0.3496
  162OSM    O1318176   0.027   3.396   3.830  0.0317  0.4281  0.8490
  162OSM    O1418177   0.182   3.209   3.790 -0.1074 -0.4681 -0.6643
  162OSM    O1118178   0.181   3.325   4.008 -0.2694 -0.2979  0.2493
  162OSM    O1218179   0.269   3.439   3.810  0.3722  0.1834  0.0098
  162OSM    C1S18180   0.076   3.268   4.086 -1.1273 -0.3548  0.4168
  162OSM    H1S18181   0.040   3.168   4.052  0.2331 -1.0709  1.0008
  162OSM    H1T18182  -0.013   3.334   4.084 -0.0790  1.1931 -2.3087
  162OSM     NF18183   0.016   3.193   4.326  0.0232 -0.8381 -0.5779
  162OSM    HNF18184  -0.025   3.259   4.388  1.8208 -0.9924  0.8471
  162OSM    C2S18185   0.122   3.252   4.242  0.3291  0.0029  0.3403
  162OSM    H2S18186   0.202   3.175   4.245 -0.2749 -0.6009  1.1573
  162OSM    C3S18187   0.190   3.383   4.291 -0.9276  0.2779  0.6986
  162OSM    H3S18188   0.124   3.469   4.268 -1.3125 -0.4361 -1.0550
  162OSM     O318189   0.301   3.405   4.206 -0.4539  0.0626 -0.0532
  162OSM    HO318190   0.266   3.366   4.125 -2.5762  0.3996  0.6464
  162OSM    C4S18191   0.239   3.371   4.437 -0.3387  0.0017 -0.1389
  162OSM    H4S18192   0.168   3.415   4.508 -1.1452 -0.9714 -0.3156
  162OSM    C5S18193   0.347   3.310   4.484 -0.6739  0.2874 -0.0351
  162OSM    H5S18194   0.411   3.258   4.411 -1.5086  0.8506 -1.1829
  162OSM    C6S18195   0.404   3.298   4.621  0.7569  0.1786 -0.7430
  162OSM    H6S18196   0.486   3.371   4.636 -0.8158  1.4713  2.5207
  162OSM    H6T18197   0.448   3.198   4.641 -0.2438 -0.6103 -2.2420
  162OSM    C7S18198   0.313   3.329   4.739  0.1176  0.2936  0.8083
  162OSM    H7S18199   0.221   3.268   4.739  1.3874 -1.7775 -0.9145
  162OSM    H7T18200   0.280   3.435   4.738 -0.3243  0.2476 -2.6457
  162OSM    C8S18201   0.383   3.321   4.869  0.5906  0.6525  0.7839
  162OSM    H8S18202   0.479   3.376   4.878  0.6795  0.9326 -1.4766
  162OSM    H8T18203   0.415   3.216   4.889 -0.4813  0.1409 -0.0723
  162OSM    C9S18204   0.294   3.353   4.989  0.2598 -0.0045 -0.8965
  162OSM    H9S18205   0.204   3.289   4.977  0.0891 -0.0248  0.4303
  162OSM    H9T18206   0.264   3.460   4.991  0.2983 -0.0038  1.2068
  162OSM   C10S18207   0.363   3.309   5.115 -0.4187 -0.2775 -0.5804
  162OSM   H10S18208   0.456   3.369   5.120 -0.6564  0.1529 -1.1705
  162OSM   H10T18209   0.399   3.204   5.116  1.7538  0.4038  0.4048
  162OSM   C11S18210   0.272   3.329   5.244 -0.2488 -0.0214  0.0427
  162OSM   H11S18211   0.177   3.279   5.217 -0.4619  0.6024 -0.3636
  162OSM   H11T18212   0.229   3.431   5.254  0.1050  0.4514 -2.5335
  162OSM   C12S18213   0.353   3.288   5.362  0.0959  0.2430 -0.0193
  162OSM   H12S18214   0.445   3.351   5.371  1.0711 -0.8905 -1.4478
  162OSM   H12T18215   0.385   3.184   5.341  1.9991  0.6469  0.6670
  162OSM   C13S18216   0.279   3.290   5.500 -0.4084 -0.4533  0.1729
  162OSM   H13S18217   0.187   3.229   5.485 -0.2229 -0.7042  0.0496
  162OSM   H13T18218   0.240   3.392   5.522  0.0796  0.3746 -2.3873
  162OSM   C14S18219   0.363   3.223   5.608 -0.1459  1.1900  0.0875
  162OSM   H14S18220   0.459   3.279   5.614  0.7248 -0.0750 -1.2834
  162OSM   H14T18221   0.399   3.128   5.562 -2.4044  0.4258 -0.2545
  162OSM   C15S18222   0.307   3.206   5.746 -0.3038 -0.1665  0.3505
  162OSM   H15S18223   0.225   3.132   5.738  0.5140 -1.1952  1.2639
  162OSM   H15T18224   0.256   3.303   5.766  0.2613  0.1985  0.0767
  162OSM   C16S18225   0.407   3.164   5.857 -0.1933 -0.2699  0.2271
  162OSM   H16S18226   0.492   3.234   5.871 -0.7268  0.4238 -0.0060
  162OSM   H16T18227   0.454   3.068   5.827 -0.9498 -0.3151 -0.8542
  162OSM   C17S18228   0.342   3.132   5.993 -0.0515 -0.2088 -0.0710
  162OSM   H17S18229   0.261   3.057   5.977 -0.8635  0.7801 -0.6890
  162OSM   H17T18230   0.309   3.226   6.041  0.8502  2.0382 -3.4516
  162OSM   C18S18231   0.437   3.068   6.097  0.5816  0.5834 -0.0548
  162OSM   H18S18232   0.393   3.064   6.200 -0.2241 -1.1794 -0.4263
  162OSM   H18T18233   0.531   3.127   6.093  1.0610  0.0588  2.0989
  162OSM   H18U18234   0.460   2.965   6.063  0.7970  0.1209  1.4041
  162OSM    C1F18235  -0.022   3.065   4.306 -0.2326  0.1185  0.7672
  162OSM     OF18236   0.025   3.000   4.215  0.2100 -1.0475  0.1523
  162OSM    C2F18237  -0.127   3.011   4.396 -0.1369 -0.3939  1.2269
  162OSM    H2F18238  -0.179   3.098   4.441  0.6880  1.0613 -0.5279
  162OSM    H2G18239  -0.079   2.950   4.476 -1.1342  0.5187  2.5632
  162OSM    C3F18240  -0.219   2.920   4.308  0.4176  0.1857  0.2116
  162OSM    H3F18241  -0.171   2.831   4.261 -1.7124 -0.9036 -0.0138
  162OSM    H3G18242  -0.253   2.991   4.230  2.5252  0.9716 -0.0746
  162OSM    C4F18243  -0.342   2.860   4.375  0.5503 -0.0683  0.5409
  162OSM    H4F18244  -0.380   2.787   4.301  1.9547  1.6803 -2.0508
  162OSM    H4G18245  -0.414   2.942   4.396  0.1139  0.6904 -3.2114
  162OSM    C5F18246  -0.298   2.761   4.486 -0.3481 -0.5803 -0.5657
  162OSM    H5F18247  -0.191   2.738   4.469  0.5863  2.3644  0.5829
  162OSM    H5G18248  -0.359   2.670   4.502 -0.8161 -0.1730  0.0343
  162OSM    C6F18249  -0.309   2.824   4.625  0.5207 -0.6088 -0.4244
  162OSM    H6F18250  -0.409   2.870   4.644  0.6873 -0.9396  1.5049
  162OSM    H6G18251  -0.226   2.897   4.627 -0.2520  0.2810 -0.2270
  162OSM    C7F18252  -0.271   2.729   4.737 -0.2011  0.7133 -1.0899
  162OSM    H7F18253  -0.218   2.776   4.823 -1.8765 -0.3530  0.5873
  162OSM    H7G18254  -0.202   2.649   4.703  0.1212 -0.3205  1.7067
  162OSM    C8F18255  -0.397   2.663   4.799  0.3159  0.5305 -0.5503
  162OSM    H8F18256  -0.471   2.630   4.723 -1.5185 -1.9208  2.1264
  162OSM    H8G18257  -0.439   2.745   4.860  1.2560 -0.1160  1.0130
  162OSM    C9F18258  -0.365   2.554   4.899 -0.9289 -0.6300  0.0141
  162OSM    H9F18259  -0.328   2.461   4.852  0.3709 -0.3318  0.4138
  162OSM   C10F18260  -0.339   2.575   5.029  0.6096 -0.8492 -0.2747
  162OSM   H10F18261  -0.323   2.490   5.097 -0.7444 -1.1968 -0.3760
  162OSM   C11F18262  -0.344   2.715   5.099  0.3243 -0.2047 -0.0275
  162OSM   H11F18263  -0.411   2.785   5.045  2.1152  0.3858 -1.5913
  162OSM   H11G18264  -0.249   2.773   5.099 -0.7911  2.0636 -5.1190
  162OSM   C12F18265  -0.401   2.688   5.236 -0.2397  0.5847  0.1400
  162OSM   H12F18266  -0.357   2.600   5.286  0.9544  0.6629 -0.7233
  162OSM   H12G18267  -0.511   2.682   5.225 -0.1465 -0.5545 -0.2194
  162OSM   C13F18268  -0.379   2.809   5.335 -0.0948  0.0782 -0.0877
  162OSM   H13F18269  -0.441   2.897   5.309  0.2654  0.2389 -0.4132
  162OSM   H13G18270  -0.274   2.844   5.322 -0.2159  1.5652  2.4113
  162OSM   C14F18271  -0.408   2.769   5.481 -0.4832 -0.6944  1.1183
  162OSM   H14F18272  -0.322   2.705   5.511  0.2007 -0.6909 -0.7228
  162OSM   H14G18273  -0.505   2.715   5.482 -1.6779  1.3303  2.0744
  162OSM   C15F18274  -0.397   2.887   5.580 -0.2269  0.1852 -0.0543
  162OSM   H15F18275  -0.436   2.978   5.529  0.3431  0.2044 -0.4690
  162OSM   H15G18276  -0.291   2.915   5.596 -0.2973  0.8534 -0.7107
  162OSM   C16F18277  -0.447   2.866   5.721 -0.8597 -0.0004 -0.4759
  162OSM   H16F18278  -0.404   2.768   5.751 -2.1528 -0.6907 -0.8059
  162OSM   H16G18279  -0.557   2.851   5.728 -0.6705 -0.8762  1.1369
  162OSM   C17F18280  -0.401   2.979   5.821  0.1672 -0.0473  0.7332
  162OSM   H17F18281  -0.461   3.066   5.786 -0.2484 -1.3265 -1.9625
  162OSM   H17G18282  -0.293   3.000   5.806  0.3227 -1.2081  0.1695
  162OSM   C18F18283  -0.440   2.948   5.963 -0.0822  0.0554 -0.8117
  162OSM   H18F18284  -0.354   2.889   5.999 -0.4572  0.8622  1.6384
  162OSM   H18G18285  -0.531   2.886   5.979 -0.5012  0.3401 -2.0186
  162OSM   H18H18286  -0.441   3.044   6.019  1.0721  0.7329 -1.9108
  163OSM      N18287   4.751   4.564   3.817 -0.0563  0.0745  0.4825
  163OSM    C1518288   4.773   4.706   3.776  0.2112  0.4100 -0.3216
  163OSM   H15A18289   4.875   4.731   3.800 -0.2345  1.5322  0.5183
  163OSM   H15B18290   4.718   4.784   3.828  0.0972 -0.1276  0.3711
  163OSM   H15C18291   4.752   4.732   3.673  0.1604  3.1373  0.2875
  163OSM    C1418292   4.798   4.540   3.953  0.7868 -0.2864  0.6225
  163OSM   H14A18293   4.758   4.607   4.028 -1.9611  2.8667 -3.2171
  163OSM   H14B18294   4.904   4.561   3.952  0.4599  1.7796  2.0860
  163OSM   H14C18295   4.790   4.435   3.977 -0.5346 -0.6035 -1.0155
  163OSM    C1318296   4.599   4.545   3.808 -0.1057 -0.4075 -0.5743
  163OSM   H13A18297   4.550   4.625   3.861  0.1968  1.0195 -2.3361
  163OSM   H13B18298   4.569   4.450   3.848 -1.1616  0.8801  1.8889
  163OSM   H13C18299   4.565   4.545   3.705  1.4735 -0.3488 -1.1285
  163OSM    C1218300   4.826   4.469   3.722  0.7003  0.0805 -0.2293
  163OSM   H12A18301   4.781   4.479   3.624  0.4263  0.0780 -0.1035
  163OSM   H12B18302   4.815   4.367   3.756 -1.0905 -0.0113 -0.9537
  163OSM    C1118303   4.980   4.487   3.701 -0.0651 -0.0788  0.2303
  163OSM   H11A18304   4.982   4.596   3.681 -0.5164  0.2014  1.5991
  163OSM   H11B18305   5.022   4.435   3.612  2.0196  3.3316 -0.9767
  163OSM      P18306   5.083   4.306   3.845  0.4069  0.4298  0.0161
  163OSM    O1318307   4.953   4.233   3.828 -0.2605  0.1811  0.0408
  163OSM    O1418308   5.198   4.253   3.764  0.2970  0.2520 -0.2925
  163OSM    O1118309   5.120   4.299   3.999 -0.2504  0.1003  0.6905
  163OSM    O1218310   5.060   4.460   3.821  0.0205  0.3874  0.2623
  163OSM    C1S18311   5.194   4.398   4.076  0.2423  0.2045  0.3098
  163OSM    H1S18312   5.142   4.496   4.077  1.0106  0.6607 -1.5762
  163OSM    H1T18313   5.293   4.427   4.037 -0.4020  2.1379  0.0241
  163OSM     NF18314   5.278   4.472   4.304 -0.2884  0.0436 -0.4381
  163OSM    HNF18315   5.376   4.471   4.326 -0.6670 -0.6377  1.3940
  163OSM    C2S18316   5.219   4.365   4.227 -0.2083 -0.1120 -0.8700
  163OSM    H2S18317   5.121   4.348   4.276  0.2319  0.6300  0.3002
  163OSM    C3S18318   5.304   4.238   4.232 -0.2546  0.5801 -0.1951
  163OSM    H3S18319   5.408   4.272   4.213 -0.4415  1.9073  0.9658
  163OSM     O318320   5.265   4.121   4.153  0.0764  0.5216 -0.0130
  163OSM    HO318321   5.187   4.144   4.101 -0.9503 -1.3362  0.6370
  163OSM    C4S18322   5.317   4.191   4.372  0.2055  0.3270  0.1386
  163OSM    H4S18323   5.219   4.209   4.420 -1.1130 -0.7961 -2.0065
  163OSM    C5S18324   5.420   4.140   4.437  0.2233  0.1814  0.3924
  163OSM    H5S18325   5.507   4.106   4.378 -0.1293 -0.4232  0.2044
  163OSM    C6S18326   5.445   4.114   4.582  0.1156 -0.0242 -0.5717
  163OSM    H6S18327   5.540   4.153   4.624 -0.6956  0.7678  0.6032
  163OSM    H6T18328   5.442   4.004   4.595 -0.5848 -0.0926 -1.2670
  163OSM    C7S18329   5.346   4.170   4.683 -0.2801  0.1198  0.2701
  163OSM    H7S18330   5.242   4.136   4.662 -0.0713  0.6749 -1.9647
  163OSM    H7T18331   5.339   4.279   4.662  0.2262  0.1768  0.4024
  163OSM    C8S18332   5.390   4.143   4.825  0.2978 -0.1141 -0.6206
  163OSM    H8S18333   5.494   4.182   4.830  0.0686  0.4278  0.0980
  163OSM    H8T18334   5.381   4.035   4.848  1.5743 -0.6564 -2.4322
  163OSM    C9S18335   5.308   4.213   4.933 -0.0430 -0.2556 -0.0104
  163OSM    H9S18336   5.200   4.206   4.911  0.3061 -0.4863 -1.8498
  163OSM    H9T18337   5.328   4.322   4.921 -0.1800 -0.3756 -1.6783
  163OSM   C10S18338   5.348   4.157   5.068 -0.4619  0.2667 -0.2920
  163OSM   H10S18339   5.387   4.054   5.072  1.1185  0.8678  0.3516
  163OSM   H10T18340   5.255   4.150   5.130 -0.1526 -1.7070 -0.0115
  163OSM   C11S18341   5.434   4.255   5.153 -0.1436 -0.3133 -0.6515
  163OSM   H11S18342   5.369   4.334   5.196  1.9554  0.9008  0.4100
  163OSM   H11T18343   5.511   4.305   5.091  1.0491 -0.7981  0.3837
  163OSM   C12S18344   5.499   4.188   5.275 -0.1135 -0.0621 -0.3127
  163OSM   H12S18345   5.584   4.130   5.233 -0.1688 -0.0509 -0.4409
  163OSM   H12T18346   5.422   4.128   5.327 -2.5752  1.3237 -2.1491
  163OSM   C13S18347   5.547   4.298   5.376 -0.2421 -0.2654 -0.3185
  163OSM   H13S18348   5.471   4.320   5.453  0.3356  1.2349 -0.1405
  163OSM   H13T18349   5.567   4.392   5.319 -2.1708  0.0505 -0.5146
  163OSM   C14S18350   5.681   4.260   5.447 -0.6062 -0.4719 -0.3174
  163OSM   H14S18351   5.753   4.239   5.365 -1.5227 -1.6855 -0.8456
  163OSM   H14T18352   5.658   4.168   5.504  0.0944 -0.8413 -0.6247
  163OSM   C15S18353   5.745   4.368   5.538  0.0154  0.1721  0.1642
  163OSM   H15S18354   5.760   4.465   5.486 -0.8004  0.1147 -0.1899
  163OSM   H15T18355   5.841   4.335   5.584 -0.4835  0.0625  1.1682
  163OSM   C16S18356   5.672   4.406   5.661 -0.4897 -0.2732 -0.3212
  163OSM   H16S18357   5.631   4.314   5.708  0.5441 -1.1503 -1.0797
  163OSM   H16T18358   5.590   4.479   5.647  1.6208  2.4878  0.6705
  163OSM   C17S18359   5.759   4.492   5.760  0.4618  0.1664  0.0743
  163OSM   H17S18360   5.772   4.588   5.705 -1.9130 -0.1823 -1.2504
  163OSM   H17T18361   5.857   4.443   5.775  0.6810 -0.1904 -2.1767
  163OSM   C18S18362   5.696   4.518   5.897  0.0744 -0.3796  0.0602
  163OSM   H18S18363   5.602   4.578   5.899  0.7825  0.7585 -0.3998
  163OSM   H18T18364   5.765   4.576   5.961 -0.5373 -1.4183  1.7391
  163OSM   H18U18365   5.680   4.421   5.950 -3.4738 -1.9979 -3.3941
  163OSM    C1F18366   5.204   4.579   4.344  0.0061 -0.2258  0.3379
  163OSM     OF18367   5.089   4.593   4.330 -0.0191  0.5944 -0.4592
  163OSM    C2F18368   5.281   4.701   4.389  0.2078  0.1955 -0.2063
  163OSM    H2F18369   5.319   4.753   4.298  1.4311 -0.2128  0.0483
  163OSM    H2G18370   5.376   4.662   4.432  0.4285 -2.6721 -2.9157
  163OSM    C3F18371   5.206   4.802   4.488 -0.5763 -1.0367  0.1388
  163OSM    H3F18372   5.104   4.827   4.453 -0.6681  1.7913  2.1555
  163OSM    H3G18373   5.261   4.898   4.477  1.4926 -2.0054  1.4098
  163OSM    C4F18374   5.212   4.771   4.641  0.3214  0.2597 -0.9626
  163OSM    H4F18375   5.183   4.667   4.668  1.5924  0.5202  1.6591
  163OSM    H4G18376   5.146   4.842   4.695  1.4388  1.0186 -0.5618
  163OSM    C5F18377   5.345   4.788   4.710 -0.2825  0.4303  0.4413
  163OSM    H5F18378   5.387   4.890   4.694 -1.2149  0.9416  1.1372
  163OSM    H5G18379   5.417   4.713   4.671  0.3052  1.5499 -0.7182
  163OSM    C6F18380   5.337   4.767   4.862  0.2247  0.0427 -0.3679
  163OSM    H6F18381   5.294   4.665   4.875  1.5229 -0.4241  0.4467
  163OSM    H6G18382   5.281   4.851   4.908  1.2107 -0.9882  2.9461
  163OSM    C7F18383   5.475   4.773   4.939  0.2272 -0.3689  0.3471
  163OSM    H7F18384   5.528   4.868   4.918  2.9159 -1.7517  0.4354
  163OSM    H7G18385   5.532   4.689   4.894  1.1412  0.2044  0.4076
  163OSM    C8F18386   5.464   4.759   5.084  0.3898  0.3220  0.4805
  163OSM    H8F18387   5.399   4.845   5.110  0.8596  1.1375 -0.9342
  163OSM    H8G18388   5.560   4.778   5.137  0.8687  3.0230 -1.1604
  163OSM    C9F18389   5.401   4.634   5.143 -0.7669 -0.3327  0.3836
  163OSM    H9F18390   5.414   4.541   5.085 -1.7925 -0.3690  0.1791
  163OSM   C10F18391   5.320   4.625   5.251  0.6485 -0.3693 -0.1377
  163OSM   H10F18392   5.282   4.527   5.284 -0.0062  0.1396  0.6552
  163OSM   C11F18393   5.272   4.747   5.334  0.0383 -0.2446 -0.0399
  163OSM   H11F18394   5.259   4.827   5.259  3.1328 -0.0903 -0.5585
  163OSM   H11G18395   5.358   4.779   5.397 -0.8173 -1.3010  1.7629
  163OSM   C12F18396   5.143   4.729   5.419  0.4042 -0.3994 -0.5517
  163OSM   H12F18397   5.067   4.677   5.356 -0.1472  0.2763 -0.4553
  163OSM   H12G18398   5.099   4.826   5.451 -0.9785 -0.9431 -0.7523
  163OSM   C13F18399   5.168   4.653   5.550  0.1234 -0.1870 -0.9937
  163OSM   H13F18400   5.231   4.701   5.628 -0.7350 -0.6517  0.0222
  163OSM   H13G18401   5.236   4.567   5.532  1.1889  0.3566  0.2367
  163OSM   C14F18402   5.044   4.615   5.627  0.5422  0.2321  0.0595
  163OSM   H14F18403   4.988   4.544   5.563 -0.0535  0.7978 -0.0611
  163OSM   H14G18404   4.978   4.699   5.659  1.2396  0.2883  1.4456
  163OSM   C15F18405   5.071   4.534   5.755  0.5399  0.3011  0.5394
  163OSM   H15F18406   5.124   4.437   5.742  0.3101  0.2174  0.1817
  163OSM   H15G18407   4.963   4.512   5.771 -0.1768 -0.7599 -4.1918
  163OSM   C16F18408   5.141   4.607   5.880  0.4602 -0.2408 -0.1083
  163OSM   H16F18409   5.116   4.715   5.874 -2.4680 -0.7723  0.9382
  163OSM   H16G18410   5.251   4.592   5.884  0.6510  0.8288 -0.8245
  163OSM   C17F18411   5.082   4.554   6.006 -0.2861 -0.3683 -0.5304
  163OSM   H17F18412   5.125   4.452   6.020 -1.1561 -0.5536  0.9761
  163OSM   H17G18413   4.972   4.552   5.993 -0.4253  2.0703 -0.0981
  163OSM   C18F18414   5.105   4.629   6.133 -0.3733 -0.3938  0.3602
  163OSM   H18F18415   5.061   4.585   6.225 -1.1665  2.3486  1.4042
  163OSM   H18G18416   5.063   4.731   6.117 -0.3217 -0.2774  0.9387
  163OSM   H18H18417   5.211   4.645   6.160 -0.4947  0.3468  0.4169
  164OSM      N18418   0.405   5.083   3.660 -0.1299 -0.4063  0.0123
  164OSM    C1518419   0.539   5.138   3.645 -0.5498 -0.1854  0.2542
  164OSM   H15A18420   0.551   5.234   3.693  2.9116 -0.7056  0.6414
  164OSM   H15B18421   0.573   5.144   3.543  2.5840 -2.5200  1.0165
  164OSM   H15C18422   0.615   5.073   3.684  0.1393  1.6185  2.1137
  164OSM    C1418423   0.337   5.123   3.532  0.7971  0.7652  1.0251
  164OSM   H14A18424   0.231   5.103   3.544  0.9056 -1.1101 -0.5780
  164OSM   H14B18425   0.395   5.091   3.447  0.7224  0.3116  1.1448
  164OSM   H14C18426   0.333   5.231   3.527 -2.3133  0.7138  0.3252
  164OSM    C1318427   0.406   4.936   3.656  0.2383  0.4798  0.1707
  164OSM   H13A18428   0.438   4.893   3.562  1.1942 -1.3646  1.2817
  164OSM   H13B18429   0.305   4.908   3.682  0.7097 -0.4889  1.0187
  164OSM   H13C18430   0.476   4.899   3.730 -1.5771  1.3894  2.4597
  164OSM    C1218431   0.333   5.137   3.784 -0.3460 -0.2396 -0.0160
  164OSM   H12A18432   0.366   5.082   3.871 -0.2413  0.1962  0.2219
  164OSM   H12B18433   0.226   5.122   3.782 -0.1148 -1.9378 -0.9375
  164OSM    C1118434   0.346   5.287   3.821  0.6924 -0.0867 -0.3260
  164OSM   H11A18435   0.264   5.312   3.892  0.1420 -0.9668 -0.6332
  164OSM   H11B18436   0.323   5.349   3.731  3.4387 -0.9647 -1.7305
  164OSM      P18437   0.516   5.462   3.923  0.1088 -0.2785 -0.3660
  164OSM    O1318438   0.628   5.438   4.017 -0.4771 -0.4203  0.1197
  164OSM    O1418439   0.547   5.549   3.817  0.0405 -0.5291  0.0206
  164OSM    O1118440   0.385   5.506   3.992  0.5106 -0.2285 -0.3890
  164OSM    O1218441   0.482   5.324   3.862  1.2439  0.2210 -0.0745
  164OSM    C1S18442   0.329   5.436   4.104  0.0955 -0.1155 -0.2871
  164OSM    H1S18443   0.363   5.330   4.100 -1.4810 -0.7358  1.2196
  164OSM    H1T18444   0.218   5.438   4.096 -0.0585 -0.6109  1.3665
  164OSM     NF18445   0.346   5.400   4.351 -0.1274  0.4819 -0.7412
  164OSM    HNF18446   0.269   5.402   4.415  0.5228  0.2865  0.0598
  164OSM    C2S18447   0.363   5.495   4.244 -0.2469 -0.5429  0.8964
  164OSM    H2S18448   0.472   5.514   4.239 -0.1091 -1.0345  1.8540
  164OSM    C3S18449   0.309   5.636   4.267  0.0883  0.6850 -0.1338
  164OSM    H3S18450   0.199   5.630   4.254  0.2613 -0.1289 -1.4124
  164OSM     O318451   0.348   5.731   4.166  0.0480  0.7350 -0.1853
  164OSM    HO318452   0.374   5.678   4.090  0.3322 -0.9040  1.0069
  164OSM    C4S18453   0.350   5.695   4.397  0.0080  0.2977  0.6476
  164OSM    H4S18454   0.458   5.700   4.419  0.4007  1.4543 -1.2925
  164OSM    C5S18455   0.271   5.741   4.499 -0.5054 -0.1406  0.5137
  164OSM    H5S18456   0.163   5.736   4.480 -0.2965 -0.6325 -0.5985
  164OSM    C6S18457   0.313   5.814   4.623 -0.1884  0.1045 -0.7233
  164OSM    H6S18458   0.219   5.828   4.681 -0.3864 -0.0090 -1.0123
  164OSM    H6T18459   0.358   5.914   4.611 -0.2112  0.0474 -1.3680
  164OSM    C7S18460   0.418   5.730   4.706  0.2262  0.0708 -0.1462
  164OSM    H7S18461   0.512   5.708   4.651  0.6709  0.5328  0.4134
  164OSM    H7T18462   0.367   5.636   4.736 -0.4915  1.4631  3.5527
  164OSM    C8S18463   0.439   5.795   4.840  0.3975  0.5399  0.1329
  164OSM    H8S18464   0.340   5.839   4.866  0.7056  1.6049 -0.4530
  164OSM    H8T18465   0.505   5.882   4.821  0.6134  0.3127 -0.1797
  164OSM    C9S18466   0.489   5.704   4.951 -0.3429  1.1492  0.1758
  164OSM    H9S18467   0.587   5.655   4.932 -2.2843 -1.9009 -3.4441
  164OSM    H9T18468   0.428   5.612   4.961  1.9627 -0.2557  2.2721
  164OSM   C10S18469   0.482   5.792   5.078 -0.1164  0.7291  0.2988
  164OSM   H10S18470   0.384   5.844   5.068  0.3891  1.3921 -1.9181
  164OSM   H10T18471   0.554   5.877   5.075  2.2828 -1.0921  2.0632
  164OSM   C11S18472   0.469   5.714   5.208 -0.2028  0.8734 -0.5296
  164OSM   H11S18473   0.391   5.635   5.201 -0.2135  0.8790 -0.4781
  164OSM   H11T18474   0.431   5.799   5.269  2.2246  1.7673 -0.1613
  164OSM   C12S18475   0.602   5.670   5.272  0.2885  0.0972  0.0562
  164OSM   H12S18476   0.672   5.756   5.266  0.2237  0.1890  0.5704
  164OSM   H12T18477   0.635   5.585   5.208 -2.5322 -1.1016  0.0472
  164OSM   C13S18478   0.590   5.630   5.422  0.0511 -0.3568 -0.1171
  164OSM   H13S18479   0.490   5.583   5.433  0.5147 -1.2943  0.2340
  164OSM   H13T18480   0.583   5.735   5.458 -0.3397 -0.2772 -0.4134
  164OSM   C14S18481   0.712   5.572   5.491  0.1271  0.4899 -0.1543
  164OSM   H14S18482   0.786   5.654   5.485 -0.9762  1.4856 -0.5695
  164OSM   H14T18483   0.751   5.482   5.438 -2.0031 -0.4889 -0.1713
  164OSM   C15S18484   0.702   5.534   5.638  0.8749  0.1392 -0.2538
  164OSM   H15S18485   0.627   5.453   5.654  1.2818 -0.2413 -0.2622
  164OSM   H15T18486   0.673   5.623   5.699  1.3088 -0.6094  1.0738
  164OSM   C16S18487   0.837   5.478   5.690  0.2034 -0.2274  1.0862
  164OSM   H16S18488   0.921   5.551   5.692  1.5230 -1.7261  2.1332
  164OSM   H16T18489   0.862   5.400   5.615  1.9788  2.0744 -0.8785
  164OSM   C17S18490   0.823   5.411   5.830  0.0197 -0.2603  0.2911
  164OSM   H17S18491   0.727   5.357   5.841 -0.7367  0.9705  0.0045
  164OSM   H17T18492   0.817   5.498   5.900  0.8855 -0.6925  0.9247
  164OSM   C18S18493   0.954   5.338   5.873  0.3697 -1.0162  0.3681
  164OSM   H18S18494   0.968   5.254   5.801 -0.3078 -1.4260  0.7072
  164OSM   H18T18495   0.949   5.296   5.975  0.7968 -2.4811 -0.1881
  164OSM   H18U18496   1.046   5.401   5.871  0.2838 -0.8544 -2.4437
  164OSM    C1F18497   0.431   5.293   4.356  0.7571 -0.1219  0.4611
  164OSM     OF18498   0.520   5.278   4.275  0.0826 -0.0631  0.3319
  164OSM    C2F18499   0.395   5.197   4.464  0.2770 -0.3047  0.3323
  164OSM    H2F18500   0.284   5.193   4.458  0.2858 -3.0078  0.6174
  164OSM    H2G18501   0.440   5.245   4.553 -1.1666  0.3519  0.7427
  164OSM    C3F18502   0.456   5.048   4.450  0.3882  0.9119 -0.3253
  164OSM    H3F18503   0.565   5.061   4.470  0.1467  1.8449  0.4496
  164OSM    H3G18504   0.430   5.009   4.350 -0.5518 -1.0961  0.6397
  164OSM    C4F18505   0.400   4.947   4.549 -0.4221 -0.0771  0.3056
  164OSM    H4F18506   0.472   4.862   4.554 -1.3595 -0.9466 -0.6313
  164OSM    H4G18507   0.306   4.899   4.515 -0.4341 -0.1244  0.4022
  164OSM    C5F18508   0.368   4.988   4.690  0.3861  0.5421  0.9170
  164OSM    H5F18509   0.287   5.062   4.671 -0.6524 -1.0570 -1.4310
  164OSM    H5G18510   0.454   5.043   4.735  0.2495  0.3620  1.4045
  164OSM    C6F18511   0.321   4.891   4.792 -0.1048 -0.5160  0.1278
  164OSM    H6F18512   0.249   4.818   4.749 -1.8491  1.8264 -1.2007
  164OSM    H6G18513   0.265   4.944   4.872 -0.1791 -0.4415  0.0269
  164OSM    C7F18514   0.431   4.808   4.847  0.0554 -0.0389 -0.6848
  164OSM    H7F18515   0.489   4.751   4.771  1.1583 -1.7401  1.3226
  164OSM    H7G18516   0.393   4.730   4.916 -0.5132  0.8298  0.0199
  164OSM    C8F18517   0.526   4.893   4.936  0.4361  0.5285 -0.4391
  164OSM    H8F18518   0.477   4.945   5.022  1.7723 -0.1327  0.7469
  164OSM    H8G18519   0.574   4.970   4.872  0.7146  0.7051 -0.0233
  164OSM    C9F18520   0.639   4.806   4.985  0.0890 -0.0364 -0.1638
  164OSM    H9F18521   0.716   4.797   4.907 -1.1249  0.7676 -1.5100
  164OSM   C10F18522   0.648   4.728   5.095  0.6787 -0.3060 -0.8074
  164OSM   H10F18523   0.736   4.664   5.109  0.0832 -1.0581 -0.4476
  164OSM   C11F18524   0.559   4.711   5.210  0.3573 -0.4028  0.0940
  164OSM   H11F18525   0.505   4.614   5.210 -1.0070  0.2442 -2.9241
  164OSM   H11G18526   0.474   4.782   5.198  2.6310  2.2963 -1.0246
  164OSM   C12F18527   0.640   4.741   5.341  0.2640 -0.1768 -0.6949
  164OSM   H12F18528   0.725   4.671   5.354  1.3369  0.8687 -1.8560
  164OSM   H12G18529   0.578   4.740   5.434 -0.7147 -0.1880 -1.3289
  164OSM   C13F18530   0.707   4.880   5.339 -0.2550 -0.2357  0.2872
  164OSM   H13F18531   0.645   4.965   5.302  0.1689 -0.2200 -0.4181
  164OSM   H13G18532   0.794   4.874   5.270 -1.4250 -3.1081 -1.1065
  164OSM   C14F18533   0.753   4.923   5.481 -0.0007 -0.2791 -0.2956
  164OSM   H14F18534   0.842   4.989   5.471 -1.9077  2.5059 -0.0749
  164OSM   H14G18535   0.768   4.828   5.536  0.4568  0.6126  1.1510
  164OSM   C15F18536   0.649   5.017   5.557 -0.4064  0.6024  1.3617
  164OSM   H15F18537   0.557   4.954   5.566  0.1770 -0.7891 -1.3909
  164OSM   H15G18538   0.620   5.106   5.497  2.3618  0.2015 -0.7186
  164OSM   C16F18539   0.690   5.054   5.692 -0.1841  0.6387 -0.4570
  164OSM   H16F18540   0.681   5.161   5.719  0.9687  1.0028 -1.4371
  164OSM   H16G18541   0.796   5.022   5.707 -0.2651  0.6851  0.2837
  164OSM   C17F18542   0.624   4.971   5.808  0.7020  0.3228 -0.1872
  164OSM   H17F18543   0.680   4.994   5.901  1.6488  0.6480 -0.8216
  164OSM   H17G18544   0.617   4.862   5.788  0.6609  0.5372 -1.4304
  164OSM   C18F18545   0.482   5.019   5.830  0.2269 -0.2661 -0.0198
  164OSM   H18F18546   0.482   5.129   5.817 -0.3186 -0.0112  1.9138
  164OSM   H18G18547   0.430   4.984   5.922  2.1245 -0.7440  0.9101
  164OSM   H18H18548   0.420   4.975   5.748  1.0892 -2.6207  0.5084
  165SAPS     N18549   3.922   2.265   8.605 -0.0284  0.9862 -0.0157
  165SAPS   HN118550   3.910   2.223   8.511  2.5181  0.6783 -0.2764
  165SAPS   HN218551   3.858   2.347   8.605  0.1932  1.1602  0.0879
  165SAPS   HN318552   4.021   2.295   8.618  0.0678  0.1674  1.3972
  165SAPS   C1218553   3.878   2.165   8.702 -0.4492  0.4204  0.6957
  165SAPS  H12A18554   3.958   2.095   8.722 -1.1939 -0.5529  0.3686
  165SAPS   C1318555   3.859   2.227   8.849 -0.4504  0.3087 -0.1470
  165SAPS  O13A18556   3.880   2.345   8.880  0.0929  0.0220 -0.2942
  165SAPS  O13B18557   3.822   2.148   8.936 -0.3393  0.1573 -0.3580
  165SAPS   C1118558   3.741   2.105   8.663  0.1909  0.2483  0.3383
  165SAPS  H11A18559   3.677   2.194   8.650  1.1503  0.9565  0.3495
  165SAPS  H11B18560   3.699   2.037   8.740 -1.2474  0.7498  0.0204
  165SAPS     P18561   3.788   1.884   8.533  0.1103 -0.0025 -0.2039
  165SAPS   O1318562   3.920   1.852   8.589 -0.2770 -0.2724 -0.1937
  165SAPS   O1418563   3.682   1.812   8.614 -0.6590 -0.1509  0.6969
  165SAPS   O1218564   3.754   2.039   8.532  0.0991 -0.2944 -0.2682
  165SAPS   O1118565   3.766   1.834   8.388 -0.0203 -0.4725  0.3301
  165SAPS    C118566   3.778   1.928   8.282 -0.5046 -0.7554  0.2007
  165SAPS    HA18567   3.797   2.028   8.325  0.0457 -1.1325  0.8589
  165SAPS    HB18568   3.861   1.904   8.211 -1.0592  0.1672 -0.7830
  165SAPS    C218569   3.639   1.924   8.204 -0.0029 -0.2925 -0.0064
  165SAPS    HS18570   3.640   1.978   8.107 -3.0840 -0.4260 -0.2049
  165SAPS   O2118571   3.535   1.999   8.269  0.6883  0.7830 -0.0123
  165SAPS   C2118572   3.546   2.136   8.270 -0.4697 -0.1416  0.4233
  165SAPS   O2218573   3.641   2.199   8.227 -0.5660 -0.1371  0.0911
  165SAPS   C2218574   3.432   2.199   8.352 -0.2130 -0.2365  0.2330
  165SAPS   H2R18575   3.447   2.165   8.457  0.3859  2.3807  1.0534
  165SAPS   H2S18576   3.447   2.308   8.368 -0.9165 -0.1425  0.2858
  165SAPS    C318577   3.597   1.773   8.194  0.7719 -0.6052 -0.3337
  165SAPS    HX18578   3.519   1.765   8.273  1.3327 -0.3511  0.2591
  165SAPS    HY18579   3.680   1.701   8.205  1.2308 -0.0155  0.1371
  165SAPS   O3118580   3.529   1.751   8.065 -0.0094 -0.3085  0.3799
  165SAPS   C3118581   3.611   1.742   7.962 -0.1699  0.0817  0.3414
  165SAPS   O3218582   3.734   1.746   7.967 -0.1642  0.2411 -0.3176
  165SAPS   C3218583   3.540   1.729   7.829 -0.4469 -0.7086 -0.0562
  165SAPS   H2X18584   3.501   1.828   7.801 -1.0634 -0.8381  0.3235
  165SAPS   H2Y18585   3.458   1.654   7.840 -0.6717 -0.6441 -1.2220
  165SAPS   C2318586   3.295   2.162   8.292  1.2231  0.2653 -0.0461
  165SAPS   H3R18587   3.220   2.197   8.366  0.5720 -0.2486 -0.4544
  165SAPS   H3S18588   3.290   2.053   8.272 -0.3984  0.6924 -2.4488
  165SAPS   C2418589   3.259   2.236   8.158 -1.0701  0.4628  0.2409
  165SAPS   H4R18590   3.174   2.176   8.119  1.2790 -2.8152 -0.1877
  165SAPS   H4S18591   3.343   2.235   8.086 -1.2740  0.1635  0.0071
  165SAPS   C2518592   3.216   2.379   8.165  0.5540  0.4122 -0.6278
  165SAPS   H5R18593   3.236   2.424   8.264  0.1050  0.6857 -0.6581
  165SAPS   C2618594   3.142   2.445   8.070  0.3698  0.5295  0.2932
  165SAPS   H6R18595   3.123   2.552   8.084 -4.8226 -0.3434  2.2437
  165SAPS   C2718596   3.095   2.378   7.941  0.4331 -0.0787 -0.8653
  165SAPS   H7R18597   3.084   2.270   7.966  0.7925  0.4036  1.7293
  165SAPS   H7S18598   3.179   2.383   7.869  0.4057  4.0184 -0.8173
  165SAPS   C2818599   2.970   2.440   7.888  0.0921  0.2578  0.6600
  165SAPS   H8R18600   2.896   2.472   7.963 -0.5082 -1.1447  0.6931
  165SAPS   C2918601   2.947   2.474   7.757  0.0304 -0.1073  0.1189
  165SAPS   H9R18602   2.852   2.525   7.737 -0.4079 -1.4091 -1.3510
  165SAPS  C21018603   3.020   2.441   7.632 -0.4465 -0.1452 -0.8118
  165SAPS  H10R18604   2.947   2.420   7.551  1.0290  1.5138 -2.6665
  165SAPS  H10S18605   3.080   2.349   7.648  2.2932  1.4075 -1.5188
  165SAPS  C21118606   3.112   2.555   7.592 -0.4401 -0.1932  0.2892
  165SAPS  H11R18607   3.058   2.635   7.539  0.6461 -0.1126 -0.7422
  165SAPS  C21218608   3.247   2.567   7.612 -0.5144 -0.5033  0.2070
  165SAPS  H12R18609   3.278   2.670   7.591 -1.8579  0.0088  0.6928
  165SAPS  C21318610   3.350   2.478   7.677 -0.7344 -0.7769  0.0384
  165SAPS  H13R18611   3.292   2.392   7.716 -1.3349 -0.9726 -1.2416
  165SAPS  H13S18612   3.391   2.533   7.765 -0.5349  1.3148 -1.2771
  165SAPS  C21418613   3.467   2.438   7.599  0.4490 -0.2476 -0.1612
  165SAPS  H14R18614   3.488   2.486   7.502 -1.4116  3.1014  0.9325
  165SAPS  C21518615   3.540   2.331   7.626  0.2312  0.2782 -0.1940
  165SAPS  H15R18616   3.617   2.309   7.551 -0.5496  0.6930 -1.1435
  165SAPS  C21618617   3.518   2.234   7.740  0.5301 -0.1052 -0.3406
  165SAPS  H16R18618   3.435   2.265   7.807  0.2385 -3.3401  0.9660
  165SAPS  H16S18619   3.612   2.234   7.800 -0.2837 -3.8239  1.1720
  165SAPS  C21718620   3.468   2.088   7.713 -0.7794  0.3997 -0.5259
  165SAPS  H17R18621   3.462   2.018   7.800 -0.0063 -0.9347 -1.5097
  165SAPS  H17S18622   3.529   2.048   7.630 -1.7523 -1.2788 -0.4790
  165SAPS  C21818623   3.326   2.087   7.660  0.3307  0.3354  0.0817
  165SAPS  H18R18624   3.308   2.150   7.569 -1.2423 -0.9401 -0.5389
  165SAPS  H18S18625   3.253   2.127   7.734  0.4027 -0.6085  0.6831
  165SAPS  C21918626   3.279   1.950   7.602 -0.0000 -0.5320 -0.6704
  165SAPS  H19R18627   3.250   1.887   7.688  0.4394 -3.0270 -2.2475
  165SAPS  H19S18628   3.362   1.904   7.545  0.6175 -0.5246  0.2112
  165SAPS  C22018629   3.155   1.967   7.509 -0.0136  0.9569 -0.1374
  165SAPS  H20R18630   3.128   1.876   7.452  0.9129 -0.4915  1.6202
  165SAPS  H20S18631   3.199   2.044   7.442  1.2391 -0.0243 -0.4752
  165SAPS  H20T18632   3.078   2.021   7.568  0.1877  0.8715  0.2109
  165SAPS   C3318633   3.638   1.677   7.714 -0.0351 -0.5178 -0.6576
  165SAPS   H3X18634   3.681   1.586   7.760  2.1986  0.3115 -1.0076
  165SAPS   H3Y18635   3.716   1.753   7.693 -0.2862 -0.4368 -1.3176
  165SAPS   C3418636   3.553   1.642   7.592 -0.4553  0.0352 -0.5157
  165SAPS   H4X18637   3.505   1.735   7.554 -1.8082  0.0400  1.1205
  165SAPS   H4Y18638   3.466   1.584   7.630  1.7088 -1.8102  1.9697
  165SAPS   C3518639   3.632   1.583   7.478  0.2653 -0.2623  0.3523
  165SAPS   H5X18640   3.672   1.486   7.514  0.0221  0.0957  1.6371
  165SAPS   H5Y18641   3.714   1.654   7.451  0.8266 -1.1380 -0.3071
  165SAPS   C3618642   3.547   1.563   7.349  0.0324  0.0860  0.1689
  165SAPS   H6X18643   3.439   1.582   7.369 -0.0528 -1.0903  0.8956
  165SAPS   H6Y18644   3.562   1.456   7.325 -1.4260 -0.0062 -0.4362
  165SAPS   C3718645   3.611   1.643   7.228  0.1887 -0.9384  0.1406
  165SAPS   H7X18646   3.716   1.610   7.218  0.6164  0.7293 -1.4765
  165SAPS   H7Y18647   3.617   1.750   7.254  0.1895 -1.2398  1.4413
  165SAPS   C3818648   3.543   1.613   7.092 -0.0131  0.0159 -0.2970
  165SAPS   H8X18649   3.592   1.661   7.005  1.6786 -0.9123  0.0840
  165SAPS   H8Y18650   3.440   1.654   7.093  0.1669  0.5465 -1.8906
  165SAPS   C3918651   3.535   1.469   7.054  0.8925  0.3362 -0.0066
  165SAPS   H9X18652   3.510   1.397   7.134  0.6459  0.6542  0.2026
  165SAPS   H9Y18653   3.639   1.440   7.024 -0.9521 -3.4887 -3.9013
  165SAPS  C31018654   3.446   1.446   6.932 -0.1090  0.7205 -0.5228
  165SAPS  H10X18655   3.473   1.508   6.844 -1.2292  2.1875  0.1142
  165SAPS  H10Y18656   3.348   1.485   6.968 -0.2578  0.8984 -1.1215
  165SAPS  C31118657   3.443   1.296   6.892  0.9232 -0.6452 -0.3175
  165SAPS  H11X18658   3.412   1.229   6.974 -1.7112  0.0822 -0.6436
  165SAPS  H11Y18659   3.542   1.260   6.855  0.5825 -0.1529 -1.7565
  165SAPS  C31218660   3.348   1.257   6.773  0.7647  0.1278  0.8871
  165SAPS  H12X18661   3.250   1.310   6.775  0.8845  0.9631 -3.8722
  165SAPS  H12Y18662   3.335   1.148   6.788 -0.0133  0.3021  1.5421
  165SAPS  C31318663   3.409   1.273   6.630  0.6205 -0.3476  0.4995
  165SAPS  H13X18664   3.482   1.190   6.621 -0.9547 -1.9767  1.9155
  165SAPS  H13Y18665   3.468   1.365   6.611 -0.4598  0.3321  0.3252
  165SAPS  C31418666   3.306   1.263   6.506 -0.2437 -1.0498  0.3244
  165SAPS  H14X18667   3.236   1.177   6.521 -2.0922  0.1565 -0.8988
  165SAPS  H14Y18668   3.370   1.263   6.415 -1.0877  0.6567 -0.3177
  165SAPS  C31518669   3.231   1.396   6.491 -0.2691 -0.5623  0.3469
  165SAPS  H15X18670   3.292   1.489   6.498 -0.9495 -0.1258  0.6648
  165SAPS  H15Y18671   3.162   1.399   6.578 -1.8843  1.0800 -0.8816
  165SAPS  C31618672   3.133   1.406   6.365 -0.2507 -0.1312  0.6517
  165SAPS  H16X18673   3.070   1.496   6.383  1.0107  0.8755  0.2068
  165SAPS  H16Y18674   3.088   1.305   6.362 -1.3813  0.3482  1.0353
  165SAPS  C31718675   3.203   1.436   6.229 -0.8718 -0.1182  0.2430
  165SAPS  H17X18676   3.283   1.362   6.209  0.5554  0.2891  3.6878
  165SAPS  H17Y18677   3.243   1.539   6.226 -1.1055 -0.0399 -0.1928
  165SAPS  C31818678   3.103   1.422   6.107  0.1368  0.0453  0.0552
  165SAPS  H18X18679   3.168   1.440   6.018  3.6899 -1.4692  2.1094
  165SAPS  H18Y18680   3.019   1.494   6.109  1.3935  1.5802 -0.0661
  165SAPS  H18Z18681   3.073   1.315   6.117  1.6477 -0.4880 -0.6588
  166SAPS     N18682   2.468   6.056   0.135 -0.3611 -0.7067 -0.1159
  166SAPS   HN118683   2.460   6.019   0.232  0.7180  3.3334  1.7396
  166SAPS   HN218684   2.555   6.025   0.088  0.2595 -0.1884  0.6699
  166SAPS   HN318685   2.462   6.160   0.144 -1.1567 -0.7452 -0.1175
  166SAPS   C1218686   2.342   6.029   0.055 -0.2363 -0.2870 -0.0546
  166SAPS  H12A18687   2.341   5.922   0.040  1.2253 -0.4383  0.6829
  166SAPS   C1318688   2.212   6.068   0.121  0.1763 -0.7508 -0.2243
  166SAPS  O13A18689   2.205   6.110   0.237 -0.2765  0.1751 -0.3971
  166SAPS  O13B18690   2.108   6.036   0.061 -0.3734  0.3523 -0.3527
  166SAPS   C1118691   2.356   6.112  -0.076  0.2623  0.2781 -0.2387
  166SAPS  H11A18692   2.353   6.220  -0.049 -1.7055 -0.5763  3.8426
  166SAPS  H11B18693   2.261   6.101  -0.133 -1.3630  1.9280  1.9841
  166SAPS     P18694   2.472   5.956  -0.245 -0.0758  0.1008 -0.6740
  166SAPS   O1318695   2.617   5.932  -0.286  0.0079  0.2860 -0.0711
  166SAPS   O1418696   2.392   5.847  -0.182 -0.1444  0.2631  0.4675
  166SAPS   O1218697   2.471   6.078  -0.149 -0.2598 -0.0547  0.3904
  166SAPS   O1118698   2.387   6.004  -0.365  0.8967 -0.3154 -0.1523
  166SAPS    C118699   2.416   6.123  -0.444 -0.5664 -0.0731 -0.2137
  166SAPS    HA18700   2.323   6.178  -0.471 -1.7593 -1.9932 -0.1738
  166SAPS    HB18701   2.474   6.204  -0.394  0.9516  0.3053 -2.4274
  166SAPS    C218702   2.515   6.100  -0.566  0.2297  0.8544 -0.1859
  166SAPS    HS18703   2.616   6.078  -0.524 -0.1773  0.3811  0.5748
  166SAPS   O2118704   2.514   6.212  -0.650  0.4674 -0.5757 -0.4642
  166SAPS   C2118705   2.586   6.321  -0.602  0.4279 -0.4580  0.0199
  166SAPS   O2218706   2.657   6.325  -0.504  0.2414 -0.0594  0.2599
  166SAPS   C2218707   2.570   6.440  -0.699  0.1774  0.3353  0.1917
  166SAPS   H2R18708   2.572   6.393  -0.799 -0.7463  0.5294  0.0664
  166SAPS   H2S18709   2.471   6.485  -0.675 -0.5870 -1.2075  0.1016
  166SAPS    C318710   2.472   5.972  -0.638  0.0809  0.2884  0.0581
  166SAPS    HX18711   2.372   5.995  -0.680 -0.7243 -0.1399  1.6763
  166SAPS    HY18712   2.455   5.885  -0.570 -0.8611 -0.2551 -0.8422
  166SAPS   O3118713   2.572   5.933  -0.730 -0.2798 -0.1762 -0.2191
  166SAPS   C3118714   2.534   5.843  -0.825 -0.1101 -1.1648  0.0783
  166SAPS   O3218715   2.433   5.781  -0.829 -0.1364  0.3796  0.2239
  166SAPS   C3218716   2.638   5.848  -0.940  0.7299  0.0540 -0.6562
  166SAPS   H2X18717   2.722   5.785  -0.904 -0.2651  0.2436  2.2949
  166SAPS   H2Y18718   2.666   5.956  -0.946  0.2832  0.1764 -0.5612
  166SAPS   C2318719   2.691   6.533  -0.677  0.8981 -0.3548 -0.4789
  166SAPS   H3R18720   2.786   6.479  -0.699  0.9273 -0.4665 -0.0759
  166SAPS   H3S18721   2.698   6.572  -0.574  0.2351  2.7055 -1.4926
  166SAPS   C2418722   2.681   6.651  -0.775 -0.2915 -0.0899  0.5709
  166SAPS   H4R18723   2.703   6.615  -0.877  1.7910 -0.7039  1.2005
  166SAPS   H4S18724   2.769   6.711  -0.745  1.1365 -2.8702  2.3477
  166SAPS   C2518725   2.555   6.731  -0.765  0.7589 -0.6749  0.0963
  166SAPS   H5R18726   2.539   6.782  -0.669  0.1946 -0.5376 -0.0714
  166SAPS   C2618727   2.456   6.743  -0.858 -0.0002 -0.2866  0.3149
  166SAPS   H6R18728   2.368   6.802  -0.826 -0.6398 -0.4445 -1.0926
  166SAPS   C2718729   2.437   6.683  -0.999 -0.1183 -0.1580 -0.4976
  166SAPS   H7R18730   2.533   6.632  -1.023 -0.0230 -0.8721  1.2528
  166SAPS   H7S18731   2.416   6.763  -1.073 -1.0727 -1.2054 -1.3827
  166SAPS   C2818732   2.318   6.591  -0.996 -0.2890  0.2413  0.4871
  166SAPS   H8R18733   2.342   6.493  -0.953 -1.5145  0.2070  1.1333
  166SAPS   C2918734   2.198   6.601  -1.052  0.1251  0.3991  0.0351
  166SAPS   H9R18735   2.117   6.528  -1.037  0.6598  0.1098  1.7677
  166SAPS  C21018736   2.144   6.723  -1.120 -0.2551 -0.1216 -0.4490
  166SAPS  H10R18737   2.206   6.813  -1.102 -3.0581  1.4723  2.0481
  166SAPS  H10S18738   2.055   6.758  -1.064  0.2815 -0.3994  0.6101
  166SAPS  C21118739   2.098   6.704  -1.261  0.0112 -0.0415  0.2695
  166SAPS  H11R18740   1.995   6.672  -1.281  0.5686 -1.4349 -0.5317
  166SAPS  C21218741   2.171   6.730  -1.372 -0.0014 -0.3186 -0.2147
  166SAPS  H12R18742   2.124   6.727  -1.471  1.1719  0.1650 -0.8087
  166SAPS  C21318743   2.313   6.766  -1.383  0.0651  0.3253 -0.0284
  166SAPS  H13R18744   2.333   6.823  -1.290  0.1014  1.6079 -0.7937
  166SAPS  H13S18745   2.336   6.826  -1.474  1.1634  0.8035  0.5411
  166SAPS  C21418746   2.416   6.652  -1.367  0.0158  0.3227 -0.8868
  166SAPS  H14R18747   2.401   6.594  -1.275 -0.0059  1.2583 -0.2829
  166SAPS  C21518748   2.512   6.622  -1.445  0.1788  0.3632  0.3236
  166SAPS  H15R18749   2.582   6.544  -1.414 -0.1168  0.2068  0.5998
  166SAPS  C21618750   2.529   6.676  -1.587 -1.0512  0.1484 -0.4487
  166SAPS  H16R18751   2.540   6.787  -1.586  2.3859 -0.0738  0.4614
  166SAPS  H16S18752   2.442   6.646  -1.649  0.5587 -3.7457 -1.0865
  166SAPS  C21718753   2.658   6.627  -1.668  0.3022 -0.2313  0.3623
  166SAPS  H17R18754   2.633   6.648  -1.774  0.1514  2.0485  0.7958
  166SAPS  H17S18755   2.642   6.517  -1.664  1.0134 -0.3743 -0.4612
  166SAPS  C21818756   2.795   6.681  -1.634 -0.2358  0.3607 -0.2848
  166SAPS  H18R18757   2.780   6.791  -1.622 -0.7495  0.4929 -1.8416
  166SAPS  H18S18758   2.870   6.668  -1.716  1.7841  0.0532  1.5317
  166SAPS  C21918759   2.847   6.621  -1.513 -0.5708 -0.1080 -0.8436
  166SAPS  H19R18760   2.819   6.514  -1.504  1.5712 -0.6604 -0.2918
  166SAPS  H19S18761   2.799   6.673  -1.428  0.9709 -0.0598  0.0296
  166SAPS  C22018762   3.003   6.642  -1.505  0.7600 -0.5252  0.1983
  166SAPS  H20R18763   3.051   6.628  -1.604 -0.9012 -2.5896 -0.3899
  166SAPS  H20S18764   3.048   6.574  -1.429 -1.8232 -0.0303  2.3217
  166SAPS  H20T18765   3.016   6.744  -1.462 -2.6203 -0.5614  1.5789
  166SAPS   C3318766   2.592   5.792  -1.078  0.3501 -0.2401 -1.5810
  166SAPS   H3X18767   2.494   5.843  -1.095  0.2931  0.4713  0.5309
  166SAPS   H3Y18768   2.576   5.682  -1.073  0.0576 -0.1437  0.9701
  166SAPS   C3418769   2.668   5.836  -1.206  0.1280 -0.4486 -0.3014
  166SAPS   H4X18770   2.772   5.798  -1.204 -0.6904 -3.0231  3.7747
  166SAPS   H4Y18771   2.670   5.947  -1.212  1.1476 -0.2534  2.3348
  166SAPS   C3518772   2.605   5.774  -1.334 -0.3929  0.2804 -0.0002
  166SAPS   H5X18773   2.505   5.813  -1.361 -1.0718 -0.5887  1.2002
  166SAPS   H5Y18774   2.596   5.666  -1.313  2.5357  0.1477  1.1174
  166SAPS   C3618775   2.696   5.782  -1.455 -0.4139 -0.0172 -0.2236
  166SAPS   H6X18776   2.794   5.749  -1.415 -1.0391 -3.1543 -1.0246
  166SAPS   H6Y18777   2.691   5.891  -1.477  0.0860  0.2166  0.7399
  166SAPS   C3718778   2.654   5.691  -1.571 -0.1720  0.5529  0.2522
  166SAPS   H7X18779   2.549   5.701  -1.606  0.0555 -1.4802 -1.2007
  166SAPS   H7Y18780   2.669   5.589  -1.530 -0.3775 -0.4999 -2.1262
  166SAPS   C3818781   2.742   5.685  -1.698 -0.1416  0.6757 -0.2019
  166SAPS   H8X18782   2.725   5.603  -1.770  3.1844  1.2772 -1.8478
  166SAPS   H8Y18783   2.846   5.671  -1.660  0.3846 -1.8780 -2.3451
  166SAPS   C3918784   2.754   5.819  -1.774  0.8276  0.3006  0.2310
  166SAPS   H9X18785   2.828   5.800  -1.855  0.5469 -0.0906  0.0626
  166SAPS   H9Y18786   2.785   5.889  -1.694 -1.5258  0.3921  1.1317
  166SAPS  C31018787   2.623   5.856  -1.850 -0.1950  0.3775 -0.8777
  166SAPS  H10X18788   2.540   5.842  -1.777  0.3751  0.9950 -0.0958
  166SAPS  H10Y18789   2.605   5.788  -1.936  0.2746 -0.5216 -0.2800
  166SAPS  C31118790   2.633   6.005  -1.893 -0.0769  0.2479 -0.5837
  166SAPS  H11X18791   2.727   6.003  -1.952  0.6839 -0.3008  0.6068
  166SAPS  H11Y18792   2.646   6.059  -1.796  1.2889 -0.0803 -0.5689
  166SAPS  C31218793   2.501   6.055  -1.968 -0.8687  0.4294  0.4464
  166SAPS  H12X18794   2.412   6.034  -1.904  1.6306  1.5889  4.7317
  166SAPS  H12Y18795   2.492   5.991  -2.058  1.6179 -0.9382  1.0944
  166SAPS  C31318796   2.500   6.208  -1.996  0.7442  0.4460 -1.0718
  166SAPS  H13X18797   2.583   6.223  -2.068  1.6114 -0.4218 -0.2999
  166SAPS  H13Y18798   2.517   6.253  -1.896  0.8051 -0.2086 -0.7812
  166SAPS  C31418799   2.370   6.264  -2.052 -0.1466  0.0146 -0.3921
  166SAPS  H14X18800   2.346   6.219  -2.150  1.2201 -0.6125 -0.4619
  166SAPS  H14Y18801   2.394   6.366  -2.087  0.2632 -0.5939 -1.9565
  166SAPS  C31518802   2.253   6.273  -1.956  0.0666 -0.1423 -1.2545
  166SAPS  H15X18803   2.218   6.168  -1.940 -0.4176  0.3482  1.1457
  166SAPS  H15Y18804   2.165   6.326  -1.998 -0.1678 -1.0786 -1.9843
  166SAPS  C31618805   2.276   6.340  -1.818 -0.4637  0.3852 -0.0749
  166SAPS  H16X18806   2.296   6.447  -1.842 -1.7572  0.8854  0.9806
  166SAPS  H16Y18807   2.365   6.296  -1.767 -0.0383  2.1851  0.8319
  166SAPS  C31718808   2.152   6.325  -1.724 -0.1147 -0.0830  0.2909
  166SAPS  H17X18809   2.134   6.221  -1.692  0.5580 -0.3472 -0.1687
  166SAPS  H17Y18810   2.059   6.359  -1.775 -0.8054  1.3053  2.3518
  166SAPS  C31818811   2.154   6.416  -1.604  0.2448 -0.3105 -0.3413
  166SAPS  H18X18812   2.139   6.522  -1.633 -0.2179 -0.3231 -0.1565
  166SAPS  H18Y18813   2.248   6.415  -1.544 -0.2675  1.3676  0.5715
  166SAPS  H18Z18814   2.072   6.394  -1.532 -0.0154  1.8817  0.1291
  167SAPS     N18815   3.146   3.466   8.537 -0.5495  0.4070  0.6945
  167SAPS   HN118816   3.068   3.398   8.543 -0.6425  0.3825 -0.5698
  167SAPS   HN218817   3.128   3.534   8.460 -0.7543 -2.3335 -1.8318
  167SAPS   HN318818   3.223   3.402   8.511 -1.3319 -0.4109  0.3611
  167SAPS   C1218819   3.181   3.541   8.662  0.4671  0.7074  0.1057
  167SAPS  H12A18820   3.095   3.600   8.691 -0.0433  0.3866 -0.6991
  167SAPS   C1318821   3.207   3.448   8.782  0.2790  0.3326 -0.1258
  167SAPS  O13A18822   3.197   3.322   8.767 -0.1563 -0.1931 -0.3823
  167SAPS  O13B18823   3.233   3.499   8.893 -0.1048  0.2423  0.1380
  167SAPS   C1118824   3.289   3.651   8.629 -0.1416  0.3977 -0.3276
  167SAPS  H11A18825   3.386   3.613   8.588 -0.7331  0.4554 -1.8498
  167SAPS  H11B18826   3.320   3.707   8.720  2.4136  2.7001 -2.4492
  167SAPS     P18827   3.271   3.768   8.392 -0.3021 -0.1072  0.0805
  167SAPS   O1318828   3.152   3.825   8.323 -0.1429  0.3421 -0.2753
  167SAPS   O1418829   3.400   3.845   8.389 -0.0478 -0.2547 -0.4243
  167SAPS   O1218830   3.228   3.747   8.536  0.7104  0.1594  0.4762
  167SAPS   O1118831   3.301   3.616   8.345 -0.2064 -0.0222  0.7840
  167SAPS    C118832   3.285   3.587   8.198 -0.1537 -0.3040 -0.6940
  167SAPS    HA18833   3.178   3.594   8.170 -0.5305 -3.2085 -0.2555
  167SAPS    HB18834   3.351   3.658   8.143 -0.4741  0.9560  0.4851
  167SAPS    C218835   3.323   3.442   8.159  0.7051 -0.1415  0.1573
  167SAPS    HS18836   3.255   3.365   8.201  0.1749  0.1754 -0.1137
  167SAPS   O2118837   3.456   3.424   8.201  0.4292 -0.1615  0.2093
  167SAPS   C2118838   3.466   3.394   8.330 -0.0781 -0.5891 -0.4727
  167SAPS   O2218839   3.377   3.372   8.410 -0.7795  0.3919 -0.2475
  167SAPS   C2218840   3.609   3.411   8.367 -0.9730 -0.8216  0.2765
  167SAPS   H2R18841   3.620   3.471   8.460 -3.0259 -0.2353  0.2003
  167SAPS   H2S18842   3.658   3.312   8.380 -1.1941 -0.8188  1.2530
  167SAPS    C318843   3.308   3.425   8.007 -0.4480  0.3092 -0.2479
  167SAPS    HX18844   3.347   3.325   7.980 -0.2673  0.0686  0.8763
  167SAPS    HY18845   3.379   3.501   7.969  1.6626 -0.5208  1.8058
  167SAPS   O3118846   3.174   3.453   7.956 -0.3722  0.2857  0.6733
  167SAPS   C3118847   3.094   3.351   7.927  0.0224  0.8080  0.4086
  167SAPS   O3218848   3.112   3.233   7.943 -0.2039  0.9240 -0.3804
  167SAPS   C3218849   2.987   3.409   7.830  0.6752  0.3947 -0.1659
  167SAPS   H2X18850   3.036   3.413   7.730 -0.4987  1.5900 -0.7276
  167SAPS   H2Y18851   2.957   3.501   7.883  1.3170 -0.1319  1.1429
  167SAPS   C2318852   3.701   3.483   8.261  0.4629 -0.7112 -0.8467
  167SAPS   H3R18853   3.697   3.441   8.159 -1.0870  1.0386 -1.5604
  167SAPS   H3S18854   3.804   3.462   8.299  0.1278  0.0205  0.5454
  167SAPS   C2418855   3.689   3.642   8.260  0.6113  0.3262  0.0246
  167SAPS   H4R18856   3.696   3.667   8.368  1.1642 -0.0060  0.0679
  167SAPS   H4S18857   3.581   3.667   8.246  0.9145  1.5095 -0.2570
  167SAPS   C2518858   3.787   3.733   8.191  0.0188  0.2736  0.5405
  167SAPS   H5R18859   3.864   3.770   8.260 -1.9110  1.6012  2.0670
  167SAPS   C2618860   3.793   3.788   8.066 -0.0272  0.3568 -0.0154
  167SAPS   H6R18861   3.881   3.852   8.047  0.2977  0.0391  0.4182
  167SAPS   C2718862   3.686   3.766   7.958 -0.8220 -0.2473 -0.5088
  167SAPS   H7R18863   3.679   3.860   7.897  1.4551 -0.0030 -0.4660
  167SAPS   H7S18864   3.584   3.758   8.003 -0.6440  0.4470  0.0378
  167SAPS   C2818865   3.719   3.650   7.875 -0.2201  0.1649  0.0748
  167SAPS   H8R18866   3.692   3.552   7.918  0.2630 -0.2578 -0.5707
  167SAPS   C2918867   3.781   3.647   7.758  0.4170 -0.1847  0.3649
  167SAPS   H9R18868   3.800   3.547   7.716  0.2555  0.2497 -0.7952
  167SAPS  C21018869   3.825   3.773   7.686 -0.2191 -0.0633  0.1370
  167SAPS  H10R18870   3.934   3.768   7.670  0.5363 -0.5363  4.2247
  167SAPS  H10S18871   3.813   3.866   7.746 -0.1418 -0.0760  0.1725
  167SAPS  C21118872   3.750   3.790   7.557  0.2970  0.8797  0.3345
  167SAPS  H11R18873   3.649   3.747   7.554  1.7488 -2.9583 -2.2802
  167SAPS  C21218874   3.804   3.829   7.441  0.9234  0.3614 -0.2810
  167SAPS  H12R18875   3.743   3.808   7.352  1.8751 -3.5127 -0.1905
  167SAPS  C21318876   3.940   3.891   7.419 -0.1974  0.2101 -0.3150
  167SAPS  H13R18877   4.012   3.821   7.372  0.3384  0.4334  0.1703
  167SAPS  H13S18878   3.982   3.913   7.520  0.5234  0.0699 -0.5838
  167SAPS  C21418879   3.926   4.014   7.342  0.1540 -0.3932 -0.1629
  167SAPS  H14R18880   3.893   4.098   7.406 -4.4756 -1.5532 -0.6378
  167SAPS  C21518881   3.975   4.039   7.216  0.1429 -0.5765 -1.0910
  167SAPS  H15R18882   3.944   4.132   7.166  0.3524  0.3903  0.5055
  167SAPS  C21618883   4.047   3.937   7.131  0.6807 -0.3233  0.1655
  167SAPS  H16R18884   4.057   3.839   7.183  0.0897  0.5204  1.9461
  167SAPS  H16S18885   4.152   3.961   7.106  0.6980 -1.5867 -1.0446
  167SAPS  C21718886   3.973   3.895   7.002  0.7814 -0.4735  1.2215
  167SAPS  H17R18887   3.969   3.973   6.923 -0.5720 -0.8983  0.8489
  167SAPS  H17S18888   3.866   3.872   7.018  0.6230  1.1082  2.8181
  167SAPS  C21818889   4.053   3.795   6.916  0.8075 -0.1310  0.1271
  167SAPS  H18R18890   4.057   3.697   6.968 -2.9634  0.5665  2.0373
  167SAPS  H18S18891   4.156   3.838   6.912  0.7840 -0.0668  0.2044
  167SAPS  C21918892   3.988   3.774   6.774  0.1929 -0.7593 -0.3492
  167SAPS  H19R18893   3.942   3.868   6.736 -2.4087 -0.3183  3.3749
  167SAPS  H19S18894   3.900   3.708   6.783 -2.6475  2.3307 -2.7447
  167SAPS  C22018895   4.069   3.707   6.666  0.2135 -0.2107  0.1715
  167SAPS  H20R18896   3.997   3.695   6.582  0.3584 -1.3397  0.1848
  167SAPS  H20S18897   4.103   3.605   6.694  0.9861 -0.0028  0.0126
  167SAPS  H20T18898   4.158   3.766   6.635 -1.4191  2.2188 -0.1527
  167SAPS   C3318899   2.855   3.312   7.826  0.6528 -0.7574  0.2440
  167SAPS   H3X18900   2.831   3.260   7.921 -0.4686  0.4835  0.6819
  167SAPS   H3Y18901   2.870   3.229   7.754 -0.8701 -0.8447 -0.0188
  167SAPS   C3418902   2.729   3.397   7.794 -0.2181  0.9008  0.3518
  167SAPS   H4X18903   2.727   3.489   7.856 -0.7896  0.8691  0.3872
  167SAPS   H4Y18904   2.645   3.330   7.823  2.0162 -0.7549  3.6285
  167SAPS   C3518905   2.722   3.440   7.642  0.7789 -0.2260 -0.4925
  167SAPS   H5X18906   2.805   3.508   7.614 -0.3592  2.1977  1.5637
  167SAPS   H5Y18907   2.621   3.486   7.635  0.6597 -0.5110 -0.6668
  167SAPS   C3618908   2.727   3.317   7.555 -0.1638  0.3155  0.3970
  167SAPS   H6X18909   2.637   3.254   7.573 -0.7824  0.2019 -2.5741
  167SAPS   H6Y18910   2.812   3.250   7.577 -1.1088 -1.1999 -0.3637
  167SAPS   C3718911   2.720   3.350   7.407  0.3037  0.1829 -0.2803
  167SAPS   H7X18912   2.816   3.395   7.375  0.3857 -0.0403 -0.3494
  167SAPS   H7Y18913   2.636   3.423   7.395  1.6025  2.3688  2.7148
  167SAPS   C3818914   2.713   3.220   7.319 -0.0982 -0.3311 -0.2773
  167SAPS   H8X18915   2.618   3.172   7.348 -0.9888  1.0112 -0.8441
  167SAPS   H8Y18916   2.802   3.154   7.327  0.4488  0.5761  2.0455
  167SAPS   C3918917   2.713   3.260   7.172  0.3802 -0.5195  0.2235
  167SAPS   H9X18918   2.810   3.308   7.149 -0.3266  1.4841  1.1945
  167SAPS   H9Y18919   2.632   3.333   7.149  1.3953  0.5634  0.0297
  167SAPS  C31018920   2.711   3.141   7.073 -0.5774  0.3521  0.1323
  167SAPS  H10X18921   2.623   3.079   7.098 -1.4659  0.0043 -3.3019
  167SAPS  H10Y18922   2.798   3.077   7.097  0.5671  2.2539  1.3124
  167SAPS  C31118923   2.699   3.179   6.928 -0.5384  0.4868  0.9252
  167SAPS  H11X18924   2.770   3.262   6.908 -0.0498  0.4088  2.1929
  167SAPS  H11Y18925   2.598   3.220   6.911 -0.5066  0.4538  0.6528
  167SAPS  C31218926   2.725   3.057   6.840  0.0868 -0.2957  0.4067
  167SAPS  H12X18927   2.642   2.982   6.841 -2.2679  2.1268 -0.9034
  167SAPS  H12Y18928   2.826   3.016   6.864  0.4970  0.1065 -0.5928
  167SAPS  C31318929   2.727   3.092   6.688  0.0521 -0.3166  0.3122
  167SAPS  H13X18930   2.810   3.162   6.665 -0.5990 -0.1014 -1.5452
  167SAPS  H13Y18931   2.633   3.148   6.669  1.1279  0.9879 -1.4623
  167SAPS  C31418932   2.734   2.970   6.587 -0.3344  0.0183  0.4445
  167SAPS  H14X18933   2.644   2.905   6.599  1.4642 -3.1118 -1.4791
  167SAPS  H14Y18934   2.819   2.905   6.618 -1.9228 -1.7902  1.2544
  167SAPS  C31518935   2.740   3.033   6.436 -0.3624 -0.1741 -0.6560
  167SAPS  H15X18936   2.827   3.103   6.432 -0.7040  0.4596  1.3955
  167SAPS  H15Y18937   2.649   3.095   6.424 -0.5428 -0.2268  0.2979
  167SAPS  C31618938   2.754   2.930   6.321  1.0674  0.6954 -0.2642
  167SAPS  H16X18939   2.701   2.838   6.355 -0.0715  0.7765 -1.6956
  167SAPS  H16Y18940   2.860   2.898   6.310  0.4926 -1.9822  1.1490
  167SAPS  C31718941   2.701   2.979   6.183 -0.2411 -0.5346  0.5267
  167SAPS  H17X18942   2.591   2.997   6.180 -0.2123 -0.4142 -2.3604
  167SAPS  H17Y18943   2.710   2.903   6.102 -0.0651 -0.9989  0.9777
  167SAPS  C31818944   2.749   3.120   6.132  0.1711  0.2216 -0.5781
  167SAPS  H18X18945   2.859   3.121   6.147  0.3143  0.1402 -1.5528
  167SAPS  H18Y18946   2.710   3.204   6.193  2.6116  0.1824  1.2237
  167SAPS  H18Z18947   2.742   3.118   6.021  1.4836 -0.4073 -0.6720
  168SAPS     N18948   0.359   2.399   8.802 -0.5907 -0.0575  0.1501
  168SAPS   HN118949   0.380   2.301   8.772 -0.2596 -0.7018  2.3587
  168SAPS   HN218950   0.441   2.429   8.859 -1.2616 -0.0008  1.1014
  168SAPS   HN318951   0.274   2.403   8.861 -0.2036 -1.3823  0.8350
  168SAPS   C1218952   0.336   2.481   8.682  0.6577  0.5330 -0.0122
  168SAPS  H12A18953   0.252   2.433   8.635  0.3094  0.7558  0.3714
  168SAPS   C1318954   0.289   2.623   8.713  0.2049  0.1930  0.4622
  168SAPS  O13A18955   0.262   2.650   8.835  0.2803 -0.0576  0.2605
  168SAPS  O13B18956   0.238   2.691   8.615  0.0138  0.2929 -0.3330
  168SAPS   C1118957   0.460   2.489   8.591 -0.3331  0.0183 -0.8512
  168SAPS  H11A18958   0.534   2.556   8.641 -0.5805 -1.6670  1.9626
  168SAPS  H11B18959   0.443   2.532   8.490  0.7865  2.4711 -0.0887
  168SAPS     P18960   0.656   2.321   8.594  0.0731  0.1831 -0.0789
  168SAPS   O1318961   0.705   2.388   8.719 -0.0244  0.2123  0.1867
  168SAPS   O1418962   0.669   2.172   8.591  0.0967  0.3506 -0.6742
  168SAPS   O1218963   0.506   2.357   8.565  0.0422  0.2160  0.4039
  168SAPS   O1118964   0.734   2.383   8.478 -0.6707  1.0251 -0.2253
  168SAPS    C118965   0.667   2.374   8.348 -0.0021  0.2775  0.3118
  168SAPS    HA18966   0.566   2.328   8.351  0.3100 -0.5754 -1.1696
  168SAPS    HB18967   0.676   2.469   8.291 -4.2441 -0.3256 -1.7087
  168SAPS    C218968   0.742   2.268   8.261 -0.0461 -0.6744  0.0717
  168SAPS    HS18969   0.739   2.169   8.313 -0.4992 -0.3942  0.5909
  168SAPS   O2118970   0.872   2.312   8.241 -0.7948  0.3741 -0.1491
  168SAPS   C2118971   0.954   2.228   8.173 -0.6697 -0.1581  0.0655
  168SAPS   O2218972   0.927   2.113   8.145  0.0261  1.0604  0.2006
  168SAPS   C2218973   1.092   2.292   8.147  0.1298 -0.4237  0.0808
  168SAPS   H2R18974   1.113   2.381   8.210  0.7727  0.7126 -1.6555
  168SAPS   H2S18975   1.176   2.222   8.167  0.3412  0.3114  1.9879
  168SAPS    C318976   0.667   2.245   8.129  0.0644 -0.5871  0.1200
  168SAPS    HX18977   0.561   2.230   8.157 -0.8229  2.6921 -1.0782
  168SAPS    HY18978   0.707   2.149   8.088 -0.6801 -0.7631 -0.1988
  168SAPS   O3118979   0.669   2.350   8.028  0.7344 -0.1637 -0.6060
  168SAPS   C3118980   0.551   2.401   7.995 -0.1244  0.5844  0.4639
  168SAPS   O3218981   0.443   2.388   8.048 -0.5939 -0.4803  0.3442
  168SAPS   C3218982   0.583   2.477   7.871 -0.1017  0.1067  0.5958
  168SAPS   H2X18983   0.611   2.409   7.788 -2.0630 -0.5139  0.3922
  168SAPS   H2Y18984   0.669   2.544   7.890  0.5595 -1.1314  2.2271
  168SAPS   C2318985   1.092   2.339   8.000 -0.5713  0.4881 -0.1098
  168SAPS   H3R18986   1.170   2.417   7.989  1.9751 -1.8652  0.2977
  168SAPS   H3S18987   0.997   2.387   7.967 -0.5689 -0.4436 -1.5844
  168SAPS   C2418988   1.118   2.217   7.900  0.1173  0.3885  0.0359
  168SAPS   H4R18989   1.089   2.244   7.796  0.6980 -1.0717 -0.5238
  168SAPS   H4S18990   1.037   2.146   7.926  0.0361  0.5007  0.0891
  168SAPS   C2518991   1.261   2.155   7.902 -0.3482  0.2620 -0.1364
  168SAPS   H5R18992   1.281   2.091   7.990 -2.0586  0.1187  0.1829
  168SAPS   C2618993   1.358   2.166   7.812  0.3027 -0.3002 -0.4911
  168SAPS   H6R18994   1.448   2.107   7.832 -0.5985 -0.9937  1.8134
  168SAPS   C2718995   1.349   2.234   7.679 -0.0905 -0.4457 -0.1896
  168SAPS   H7R18996   1.410   2.326   7.682  1.0884 -1.1134 -2.2763
  168SAPS   H7S18997   1.249   2.275   7.652  0.2222 -0.0010 -0.6943
  168SAPS   C2818998   1.404   2.145   7.576 -0.4466 -0.9169  0.0140
  168SAPS   H8R18999   1.369   2.042   7.595 -1.3714 -0.3782  1.3449
  168SAPS   C2919000   1.483   2.182   7.474  1.1097 -0.0070 -0.1041
  168SAPS   H9R19001   1.522   2.101   7.410 -0.0484 -2.2285  1.8538
  168SAPS  C21019002   1.532   2.327   7.458  0.1539 -0.1204 -0.0436
  168SAPS  H10R19003   1.631   2.327   7.408 -0.5875  0.3214 -1.5451
  168SAPS  H10S19004   1.546   2.375   7.558 -0.1839 -0.1108  0.0005
  168SAPS  C21119005   1.447   2.426   7.381 -0.3979  0.5430  0.6040
  168SAPS  H11R19006   1.352   2.452   7.430 -0.7423 -0.7280  0.6371
  168SAPS  C21219007   1.461   2.452   7.250 -0.1816 -0.3269 -0.3658
  168SAPS  H12R19008   1.389   2.523   7.207  0.6087  1.7174  1.5059
  168SAPS  C21319009   1.564   2.395   7.155 -0.0672  0.1840  0.3302
  168SAPS  H13R19010   1.545   2.288   7.133  0.3497  0.1218  0.2641
  168SAPS  H13S19011   1.662   2.396   7.208  0.5560  0.4413 -0.7784
  168SAPS  C21419012   1.592   2.469   7.028  0.0762  0.1439 -0.1860
  168SAPS  H14R19013   1.649   2.562   7.048  2.2338 -0.3729 -3.2967
  168SAPS  C21519014   1.536   2.449   6.906  0.0125 -0.2501 -0.6561
  168SAPS  H15R19015   1.560   2.522   6.827 -0.3266  1.1072  0.4643
  168SAPS  C21619016   1.443   2.342   6.863  0.2731  0.1852 -0.4584
  168SAPS  H16R19017   1.368   2.405   6.811  1.7108  1.3120 -1.2530
  168SAPS  H16S19018   1.392   2.306   6.954  1.6019  4.6766  2.3577
  168SAPS  C21719019   1.496   2.241   6.756 -0.4672  0.5624 -0.6586
  168SAPS  H17R19020   1.408   2.177   6.732 -0.5847  0.3529  0.3090
  168SAPS  H17S19021   1.568   2.167   6.795  0.1425  2.9257  3.2293
  168SAPS  C21819022   1.567   2.310   6.636  0.3240  0.1463  0.3440
  168SAPS  H18R19023   1.640   2.385   6.674 -0.8225  0.1365  2.6803
  168SAPS  H18S19024   1.487   2.371   6.589  0.8412  2.5976  2.4356
  168SAPS  C21919025   1.633   2.206   6.537 -0.5433  0.0704  0.4296
  168SAPS  H19R19026   1.575   2.112   6.526 -3.3748  1.6878  0.5115
  168SAPS  H19S19027   1.728   2.179   6.587  0.8800  0.2626 -1.9837
  168SAPS  C22019028   1.661   2.258   6.392  0.3364  0.8409  0.0717
  168SAPS  H20R19029   1.572   2.310   6.351  0.1359  0.5133  0.0864
  168SAPS  H20S19030   1.677   2.174   6.321 -0.0538  0.0503  0.8911
  168SAPS  H20T19031   1.754   2.319   6.393  2.0802 -1.6544  0.3009
  168SAPS   C3319032   0.462   2.555   7.821 -0.6518  0.4270  0.1519
  168SAPS   H3X19033   0.424   2.630   7.894  0.6597  1.9730 -0.6972
  168SAPS   H3Y19034   0.378   2.484   7.803 -0.2011  0.2758 -1.5273
  168SAPS   C3419035   0.495   2.640   7.694 -0.3125  0.3947 -0.4696
  168SAPS   H4X19036   0.541   2.592   7.605 -0.8948 -0.4685 -0.3156
  168SAPS   H4Y19037   0.571   2.715   7.725  0.4870 -0.7358  0.4002
  168SAPS   C3519038   0.368   2.709   7.635  0.1455  0.0518 -0.1360
  168SAPS   H5X19039   0.315   2.755   7.722  1.3581  0.2776  0.5075
  168SAPS   H5Y19040   0.301   2.628   7.600  0.7491 -1.0024  1.0286
  168SAPS   C3619041   0.396   2.813   7.525 -0.2489 -0.2506  0.2491
  168SAPS   H6X19042   0.439   2.906   7.568  1.5358 -0.1184 -1.6567
  168SAPS   H6Y19043   0.294   2.828   7.484  0.6554 -2.1927 -3.1188
  168SAPS   C3719044   0.483   2.769   7.414 -0.4166 -0.4585 -0.2760
  168SAPS   H7X19045   0.588   2.758   7.447 -0.3582  0.5550 -0.1067
  168SAPS   H7Y19046   0.479   2.850   7.338  2.6458 -0.7321 -0.8577
  168SAPS   C3819047   0.437   2.653   7.330  0.0720 -0.7992 -0.0874
  168SAPS   H8X19048   0.330   2.673   7.308  0.7770  1.2175 -1.9707
  168SAPS   H8Y19049   0.431   2.562   7.393  0.7896  0.4744  1.9332
  168SAPS   C3919050   0.511   2.636   7.199  0.4498  0.4863 -0.0019
  168SAPS   H9X19051   0.508   2.528   7.175  0.9683  0.3480  0.5466
  168SAPS   H9Y19052   0.619   2.652   7.219  1.5118 -3.3063 -1.8037
  168SAPS  C31019053   0.450   2.700   7.076 -0.5060  0.0423  0.3004
  168SAPS  H10X19054   0.465   2.810   7.080  0.9529 -0.1418  0.4528
  168SAPS  H10Y19055   0.341   2.682   7.062 -0.8083  0.9450  1.3190
  168SAPS  C31119056   0.538   2.656   6.950  0.1275  0.4819  0.3982
  168SAPS  H11X19057   0.544   2.545   6.955  3.4990  0.5503 -0.2044
  168SAPS  H11Y19058   0.646   2.678   6.954  0.5968 -0.7871 -2.6546
  168SAPS  C31219059   0.480   2.695   6.815 -0.2174  0.5513 -0.3380
  168SAPS  H12X19060   0.457   2.802   6.793 -0.6449  0.0672 -2.5229
  168SAPS  H12Y19061   0.389   2.632   6.811  0.0229 -0.0274  1.9650
  168SAPS  C31319062   0.577   2.639   6.708  0.4475 -0.3251 -0.6547
  168SAPS  H13X19063   0.573   2.529   6.722  0.5959 -0.4528 -1.5844
  168SAPS  H13Y19064   0.679   2.671   6.736  0.4941 -0.3273 -0.8226
  168SAPS  C31419065   0.529   2.682   6.577  0.6065  0.8854  0.2857
  168SAPS  H14X19066   0.535   2.793   6.573 -2.6179  1.1517 -0.2680
  168SAPS  H14Y19067   0.423   2.649   6.566  0.4853  0.4105  2.4523
  168SAPS  C31519068   0.616   2.626   6.456 -0.4070 -0.8291 -0.0255
  168SAPS  H15X19069   0.716   2.614   6.504  0.5187 -0.0050 -1.6882
  168SAPS  H15Y19070   0.644   2.706   6.385  1.0226 -0.4153  0.9579
  168SAPS  C31619071   0.568   2.501   6.381  0.5884  0.1704 -0.1984
  168SAPS  H16X19072   0.489   2.534   6.310 -2.0080 -2.3511  1.2844
  168SAPS  H16Y19073   0.516   2.438   6.456  1.4905 -1.0084 -0.5450
  168SAPS  C31719074   0.673   2.418   6.308 -0.2335  0.1114 -0.4464
  168SAPS  H17X19075   0.718   2.467   6.219 -0.2709 -0.3562 -0.7295
  168SAPS  H17Y19076   0.619   2.331   6.265 -1.9783  1.9685 -2.2319
  168SAPS  C31819077   0.792   2.384   6.397  0.3526 -0.4669  0.2897
  168SAPS  H18X19078   0.759   2.330   6.488 -0.8501  0.2596  0.3014
  168SAPS  H18Y19079   0.854   2.469   6.430  1.7403 -1.2021 -0.3523
  168SAPS  H18Z19080   0.851   2.312   6.336 -2.1052 -2.4725  0.1151
  169SAPS     N19081   1.834   6.484   8.751  0.6446 -0.3852 -0.2720
  169SAPS   HN119082   1.736   6.517   8.738 -0.0661 -2.9895 -2.3731
  169SAPS   HN219083   1.860   6.406   8.687  4.4030  0.2232  0.2890
  169SAPS   HN319084   1.858   6.453   8.847  2.3977  0.8387 -0.2619
  169SAPS   C1219085   1.941   6.586   8.731 -0.1242 -0.5282  0.1701
  169SAPS  H12A19086   1.929   6.666   8.803  0.6174 -0.8417  0.6503
  169SAPS   C1319087   2.087   6.544   8.746  0.0330 -0.8785  0.1083
  169SAPS  O13A19088   2.104   6.426   8.783  0.5671  0.3560 -0.5930
  169SAPS  O13B19089   2.176   6.634   8.759  0.3896 -0.1425 -0.0183
  169SAPS   C1119090   1.934   6.666   8.592  0.4830  0.5110  0.0956
  169SAPS  H11A19091   1.968   6.595   8.514 -1.0404 -0.3403  0.1817
  169SAPS  H11B19092   2.008   6.749   8.590  0.8281  0.2071 -0.0883
  169SAPS     P19093   1.762   6.843   8.649  0.3600 -0.2291  0.5752
  169SAPS   O1319094   1.616   6.841   8.661 -0.0092  0.0805  0.1626
  169SAPS   O1419095   1.842   6.871   8.770  0.3569 -0.0306  0.3325
  169SAPS   O1219096   1.805   6.712   8.570 -0.2345  1.0914 -0.0549
  169SAPS   O1119097   1.790   6.966   8.547  0.3365  0.6094 -0.1895
  169SAPS    C119098   1.731   6.948   8.420  0.0757 -0.1953 -0.0851
  169SAPS    HA19099   1.768   6.857   8.369  0.3272  0.3138 -0.8291
  169SAPS    HB19100   1.620   6.963   8.421  0.3345  2.1471  1.0990
  169SAPS    C219101   1.781   7.072   8.338 -0.2093 -0.1375 -0.1378
  169SAPS    HS19102   1.891   7.057   8.336 -0.3620 -1.2936 -0.7143
  169SAPS   O2119103   1.749   7.193   8.414  0.4160 -0.4571 -0.6452
  169SAPS   C2119104   1.828   7.294   8.396  0.0450  0.3344 -0.8152
  169SAPS   O2219105   1.937   7.297   8.340  0.2634  0.6607 -1.2876
  169SAPS   C2219106   1.771   7.411   8.465  0.0539 -0.0891 -0.4020
  169SAPS   H2R19107   1.753   7.391   8.572 -1.3376  0.5247 -0.4896
  169SAPS   H2S19108   1.848   7.491   8.460  0.4998 -0.4379  0.6912
  169SAPS    C319109   1.730   7.081   8.193  0.3874 -0.7712  0.0724
  169SAPS    HX19110   1.639   7.143   8.208  1.0651 -0.0510  1.4652
  169SAPS    HY19111   1.694   6.984   8.154  0.6202  0.1200 -2.5713
  169SAPS   O3119112   1.819   7.146   8.100 -0.4430 -0.4674  0.4085
  169SAPS   C3119113   1.930   7.070   8.066  0.0300  0.2188  0.0023
  169SAPS   O3219114   1.947   6.957   8.101 -0.6419 -0.2983 -0.1415
  169SAPS   C3219115   2.031   7.151   7.985 -0.2889 -0.1339 -0.1353
  169SAPS   H2X19116   2.086   7.226   8.046  0.2190  1.6663 -2.6059
  169SAPS   H2Y19117   1.971   7.208   7.910  0.1880  0.1833 -0.2826
  169SAPS   C2319118   1.645   7.463   8.389 -0.2865  0.1000 -0.7301
  169SAPS   H3R19119   1.605   7.546   8.452  1.9386  0.5590  0.1695
  169SAPS   H3S19120   1.565   7.385   8.383  0.0350 -0.1983 -1.1841
  169SAPS   C2419121   1.685   7.519   8.247 -0.6344 -0.3277 -0.1377
  169SAPS   H4R19122   1.744   7.440   8.196 -0.7754 -1.1768  0.9747
  169SAPS   H4S19123   1.752   7.605   8.266  1.1731 -1.1712 -2.1622
  169SAPS   C2519124   1.562   7.554   8.163 -0.3829 -0.4269  0.0971
  169SAPS   H5R19125   1.485   7.620   8.205  0.6239  0.8740 -0.0364
  169SAPS   C2619126   1.526   7.496   8.049  0.5491  0.4556  0.6833
  169SAPS   H6R19127   1.425   7.516   8.009 -0.0342  0.0873  1.9037
  169SAPS   C2719128   1.618   7.398   7.972 -0.4386  0.5099  0.2793
  169SAPS   H7R19129   1.607   7.298   8.020  1.5993  0.1049 -0.0016
  169SAPS   H7S19130   1.720   7.438   7.993  0.1028 -1.2405  1.1632
  169SAPS   C2819131   1.603   7.395   7.825  0.1113  0.1098  0.1179
  169SAPS   H8R19132   1.519   7.332   7.790  0.2307 -0.7004  1.2460
  169SAPS   C2919133   1.666   7.478   7.736 -0.9380  1.0889 -0.2410
  169SAPS   H9R19134   1.648   7.449   7.631  0.0403  0.6822 -0.3099
  169SAPS  C21019135   1.779   7.571   7.758  0.1369 -0.2428 -0.1027
  169SAPS  H10R19136   1.783   7.598   7.866 -2.6697 -0.0875  0.0324
  169SAPS  H10S19137   1.762   7.663   7.699  1.2137  0.3346  0.4567
  169SAPS  C21119138   1.912   7.520   7.719 -0.5177  0.5508 -0.0375
  169SAPS  H11R19139   1.964   7.452   7.788  0.5663 -1.3579 -2.5440
  169SAPS  C21219140   1.985   7.569   7.620 -0.8019 -0.2816 -0.9493
  169SAPS  H12R19141   2.089   7.533   7.614  0.3690  2.7382 -0.9292
  169SAPS  C21319142   1.955   7.679   7.524  0.0332 -0.4704 -0.3352
  169SAPS  H13R19143   2.045   7.723   7.478  1.5386 -1.4717  1.5148
  169SAPS  H13S19144   1.916   7.759   7.591  0.5067 -1.4110  1.1299
  169SAPS  C21419145   1.853   7.649   7.423 -1.2425  0.3252 -0.0274
  169SAPS  H14R19146   1.779   7.569   7.440 -0.5997 -0.1766  0.4157
  169SAPS  C21519147   1.843   7.711   7.306 -0.4411 -0.1716  0.0257
  169SAPS  H15R19148   1.763   7.679   7.237  1.1519 -1.4344 -1.3155
  169SAPS  C21619149   1.932   7.824   7.253 -0.4055  0.4412 -0.1967
  169SAPS  H16R19150   1.976   7.788   7.158 -1.8251 -1.1596 -0.3133
  169SAPS  H16S19151   2.022   7.843   7.315  0.0086  1.8566 -1.1927
  169SAPS  C21719152   1.859   7.955   7.243  0.4845 -0.8818  0.7137
  169SAPS  H17R19153   1.947   8.021   7.225 -1.3382  0.9554 -2.3157
  169SAPS  H17S19154   1.809   7.982   7.338  0.3198 -1.8234  0.9013
  169SAPS  C21819155   1.763   7.985   7.125  0.4751 -0.0997 -0.1546
  169SAPS  H18R19156   1.731   8.091   7.114  0.0375 -0.1991  0.1331
  169SAPS  H18S19157   1.662   7.942   7.146 -0.4431  2.3060  0.7063
  169SAPS  C21919158   1.815   7.934   6.984 -0.0852  0.0282 -0.0691
  169SAPS  H19R19159   1.731   7.925   6.912  0.7019  0.9267 -1.1338
  169SAPS  H19S19160   1.849   7.828   6.994  0.1218 -0.0680 -1.5746
  169SAPS  C22019161   1.931   8.025   6.934 -0.0716  0.9274  0.0444
  169SAPS  H20R19162   1.999   8.038   7.021  0.7127 -0.6072 -0.2940
  169SAPS  H20S19163   1.884   8.117   6.892 -1.4324  0.5660  0.7533
  169SAPS  H20T19164   1.990   7.983   6.849  0.4040 -0.9440  1.2591
  169SAPS   C3319165   2.119   7.059   7.890 -0.6270  0.5246  0.8684
  169SAPS   H3X19166   2.057   6.974   7.854  2.1343 -0.7290 -1.3434
  169SAPS   H3Y19167   2.201   7.010   7.947 -0.3179  0.6621  0.5435
  169SAPS   C3419168   2.196   7.117   7.772 -0.1225  0.0975 -0.0513
  169SAPS   H4X19169   2.285   7.051   7.761  0.8721  1.6637 -1.9530
  169SAPS   H4Y19170   2.233   7.220   7.791  1.3706 -0.5022  0.5047
  169SAPS   C3519171   2.112   7.119   7.645  0.3067  0.6899 -0.0335
  169SAPS   H5X19172   2.034   7.196   7.664 -1.1078 -0.6320 -0.3299
  169SAPS   H5Y19173   2.060   7.023   7.626 -0.8277  1.0709  0.9748
  169SAPS   C3619174   2.180   7.168   7.520 -0.5112  0.0123 -0.0194
  169SAPS   H6X19175   2.256   7.090   7.498  1.8838  1.7384  1.5847
  169SAPS   H6Y19176   2.230   7.267   7.530 -1.7803  0.8084 -1.2968
  169SAPS   C3719177   2.093   7.173   7.400  0.2694  0.2567  0.0524
  169SAPS   H7X19178   2.004   7.238   7.412 -0.7794 -1.2665  0.8013
  169SAPS   H7Y19179   2.048   7.072   7.392  0.0438  0.4184 -0.8318
  169SAPS   C3819180   2.155   7.214   7.268  0.6371 -0.0353 -0.1302
  169SAPS   H8X19181   2.240   7.282   7.289  1.9282 -1.7996  0.6356
  169SAPS   H8Y19182   2.087   7.278   7.208  2.7995  1.7795 -0.7977
  169SAPS   C3919183   2.196   7.098   7.184  0.2032  0.5217 -0.1466
  169SAPS   H9X19184   2.239   7.027   7.257 -0.5735  0.5928  0.3882
  169SAPS   H9Y19185   2.282   7.132   7.122  1.2058 -0.2708  0.7815
  169SAPS  C31019186   2.090   7.024   7.100  1.0513 -0.2003 -0.4612
  169SAPS  H10X19187   2.058   7.094   7.020  0.2550  1.8921  1.5879
  169SAPS  H10Y19188   2.001   7.001   7.161  1.8619 -0.1019  0.7884
  169SAPS  C31119189   2.142   6.893   7.040  0.1620  0.0010  0.5281
  169SAPS  H11X19190   2.210   6.836   7.107  3.4399  0.5300 -2.1044
  169SAPS  H11Y19191   2.210   6.920   6.957 -1.7557  0.6410 -0.9100
  169SAPS  C31219192   2.031   6.807   6.973 -0.0407  0.6815 -0.3782
  169SAPS  H12X19193   1.962   6.779   7.055 -0.5353  1.7306 -0.4093
  169SAPS  H12Y19194   2.071   6.712   6.932  1.9172  1.3512 -0.1406
  169SAPS  C31319195   1.946   6.882   6.863  0.1115 -0.3620  0.2354
  169SAPS  H13X19196   1.996   6.896   6.765 -1.1780  1.6004 -0.2006
  169SAPS  H13Y19197   1.917   6.984   6.895  0.5439  0.0664 -0.7065
  169SAPS  C31419198   1.810   6.812   6.828 -0.1411  0.1313  0.2993
  169SAPS  H14X19199   1.754   6.878   6.758 -1.1650  1.1016  1.9717
  169SAPS  H14Y19200   1.742   6.811   6.916 -2.0369 -0.3338 -1.0989
  169SAPS  C31519201   1.825   6.673   6.768 -0.7204 -0.4747 -0.2319
  169SAPS  H15X19202   1.723   6.644   6.735 -2.0924  1.0734  2.3153
  169SAPS  H15Y19203   1.844   6.599   6.849 -0.9795 -0.5391 -0.2272
  169SAPS  C31619204   1.944   6.643   6.672  0.4198 -1.0652  0.1746
  169SAPS  H16X19205   2.036   6.649   6.735 -0.0709 -0.9526  0.8923
  169SAPS  H16Y19206   1.941   6.717   6.590 -1.3091  0.2160  1.3236
  169SAPS  C31719207   1.947   6.510   6.627  0.0861  0.5949 -0.4683
  169SAPS  H17X19208   1.847   6.481   6.589  0.8200 -0.5149 -1.6332
  169SAPS  H17Y19209   1.973   6.435   6.704 -2.1643  1.5564  1.3661
  169SAPS  C31819210   2.043   6.501   6.506  0.2959 -0.5968  0.3029
  169SAPS  H18X19211   2.047   6.405   6.450  1.6991 -0.8589  0.8126
  169SAPS  H18Y19212   2.142   6.529   6.548 -0.2936  0.8411  0.7757
  169SAPS  H18Z19213   2.009   6.577   6.432  0.0695  1.3712  2.3217
  170SAPS     N19214   2.812   3.145   8.733  0.1870  0.3726 -0.0633
  170SAPS   HN119215   2.813   3.201   8.821  0.4302  0.2244  0.0301
  170SAPS   HN219216   2.778   3.050   8.756 -0.5828  0.9934  1.5124
  170SAPS   HN319217   2.910   3.150   8.699 -0.7104 -0.0181 -2.9104
  170SAPS   C1219218   2.731   3.202   8.623  0.3218  0.1434 -0.1156
  170SAPS  H12A19219   2.635   3.234   8.661 -0.5120 -2.9222  0.6542
  170SAPS   C1319220   2.796   3.320   8.535 -0.3615  0.3934 -0.5614
  170SAPS  O13A19221   2.910   3.355   8.573  0.1808  0.2106  0.2962
  170SAPS  O13B19222   2.733   3.385   8.448  0.0888 -0.0880  0.2719
  170SAPS   C1119223   2.713   3.089   8.516  0.2562 -0.0770 -0.0742
  170SAPS  H11A19224   2.798   3.071   8.447 -0.6723 -0.8675 -1.0336
  170SAPS  H11B19225   2.626   3.115   8.453 -0.1557 -1.8728 -0.3004
  170SAPS     P19226   2.541   2.890   8.561  0.0039  0.0354  0.0251
  170SAPS   O1319227   2.564   2.771   8.649 -0.0113 -0.2992 -0.4366
  170SAPS   O1419228   2.417   2.974   8.586 -0.5058  0.4596 -0.5268
  170SAPS   O1219229   2.678   2.963   8.583  0.2113 -0.7129  0.3475
  170SAPS   O1119230   2.540   2.838   8.410  0.1687  0.1733 -0.0618
  170SAPS    C119231   2.657   2.778   8.354 -1.1775 -0.2516 -0.5983
  170SAPS    HA19232   2.734   2.856   8.340  0.8167 -1.9622  0.3514
  170SAPS    HB19233   2.699   2.699   8.420 -1.9259 -0.8112 -0.7708
  170SAPS    C219234   2.625   2.704   8.228  0.9345  0.6386  0.0998
  170SAPS    HS19235   2.710   2.635   8.210  1.5784  1.4391  0.0343
  170SAPS   O2119236   2.594   2.785   8.119 -0.2118 -0.1531 -1.2940
  170SAPS   C2119237   2.689   2.854   8.070 -0.3042  0.1602  0.3978
  170SAPS   O2219238   2.806   2.827   8.073  0.3744  0.0327  0.1276
  170SAPS   C2219239   2.630   2.973   7.990 -0.1280  1.1832 -0.1489
  170SAPS   H2R19240   2.717   3.042   7.983 -0.2458  1.6841  2.3307
  170SAPS   H2S19241   2.604   2.936   7.889 -0.4956  0.4024  0.2271
  170SAPS    C319242   2.504   2.608   8.248 -0.3216  0.1667 -0.0595
  170SAPS    HX19243   2.421   2.663   8.297  1.4849  1.1824  2.0516
  170SAPS    HY19244   2.534   2.535   8.326  0.7264  0.3977 -0.2357
  170SAPS   O3119245   2.457   2.547   8.132 -0.2145 -0.0395 -0.1441
  170SAPS   C3119246   2.518   2.446   8.077  0.3955  0.0047  0.3946
  170SAPS   O3219247   2.629   2.406   8.104  0.2132 -0.1469  0.3193
  170SAPS   C3219248   2.418   2.397   7.975 -0.5908  0.1539  0.6595
  170SAPS   H2X19249   2.335   2.471   7.978  0.7951  1.7322  2.5383
  170SAPS   H2Y19250   2.391   2.302   8.024 -0.7048  0.9465  2.2032
  170SAPS   C2319251   2.507   3.042   8.053 -0.4042  0.3024  0.0462
  170SAPS   H3R19252   2.529   3.085   8.153  0.9970  1.2840 -0.6438
  170SAPS   H3S19253   2.430   2.967   8.079 -0.5378  1.1831  2.4554
  170SAPS   C2419254   2.451   3.149   7.957  0.0335  0.5969 -0.6269
  170SAPS   H4R19255   2.370   3.096   7.903 -2.7210  3.5036  0.3169
  170SAPS   H4S19256   2.528   3.182   7.885  0.4521 -0.5596 -0.7217
  170SAPS   C2519257   2.405   3.274   8.024 -0.8448  0.5638 -0.3079
  170SAPS   H5R19258   2.482   3.333   8.078 -1.4915  0.6326  0.5713
  170SAPS   C2619259   2.280   3.326   8.019 -0.0021  0.3245  0.0760
  170SAPS   H6R19260   2.271   3.416   8.082  1.7484 -1.0204  2.4388
  170SAPS   C2719261   2.161   3.260   7.954  0.8722 -0.3046  0.3448
  170SAPS   H7R19262   2.094   3.247   8.042  0.0520  0.9991 -0.0705
  170SAPS   H7S19263   2.174   3.155   7.919  0.6796 -0.4795  0.7872
  170SAPS   C2819264   2.083   3.346   7.849 -0.1151 -0.5629  0.0717
  170SAPS   H8R19265   2.110   3.327   7.744  0.1940 -1.0705  0.2392
  170SAPS   C2919266   1.985   3.443   7.867 -0.2742 -0.1225 -0.1470
  170SAPS   H9R19267   1.944   3.486   7.774  0.6546  1.1209 -0.0129
  170SAPS  C21019268   1.931   3.484   8.005 -0.3595 -0.3238 -0.7035
  170SAPS  H10R19269   1.915   3.594   8.002 -0.6913 -0.3798 -1.1963
  170SAPS  H10S19270   2.014   3.480   8.079 -0.3502  0.0963 -0.6884
  170SAPS  C21119271   1.806   3.409   8.050 -0.0927 -0.5602 -0.3005
  170SAPS  H11R19272   1.815   3.333   8.130  1.2074 -0.6386 -0.4880
  170SAPS  C21219273   1.684   3.434   8.012  0.1668  0.3724  0.9237
  170SAPS  H12R19274   1.595   3.379   8.046  0.1648 -0.8082 -0.8363
  170SAPS  C21319275   1.650   3.532   7.903  0.6849 -0.3019  0.5711
  170SAPS  H13R19276   1.631   3.479   7.808 -0.4706  1.3140 -0.1500
  170SAPS  H13S19277   1.724   3.611   7.877  1.0695 -0.8462 -0.0175
  170SAPS  C21419278   1.518   3.603   7.911  0.0661 -0.0109  0.1366
  170SAPS  H14R19279   1.470   3.613   8.010  1.4187 -2.1559  1.0899
  170SAPS  C21519280   1.459   3.665   7.808  0.4037 -0.0921  0.0080
  170SAPS  H15R19281   1.361   3.712   7.822 -0.7740 -2.8966  2.3110
  170SAPS  C21619282   1.508   3.679   7.663  0.3047  0.1223 -0.1596
  170SAPS  H16R19283   1.597   3.617   7.638  0.3814  0.6687 -1.3143
  170SAPS  H16S19284   1.538   3.785   7.648 -1.1222  0.6616  0.6703
  170SAPS  C21719285   1.403   3.645   7.555 -0.2573 -0.6650 -0.3627
  170SAPS  H17R19286   1.313   3.710   7.559 -0.5954 -1.1282 -0.3486
  170SAPS  H17S19287   1.354   3.547   7.572  0.2368 -0.9257 -0.4185
  170SAPS  C21819288   1.459   3.655   7.412  0.3172 -0.0354  0.1582
  170SAPS  H18R19289   1.552   3.595   7.409 -0.1386 -1.0822  3.1446
  170SAPS  H18S19290   1.489   3.762   7.400 -0.4999  0.2946  0.9324
  170SAPS  C21919291   1.356   3.605   7.309  0.3405  0.2532 -0.0142
  170SAPS  H19R19292   1.285   3.689   7.290 -1.0481 -0.8867  0.0350
  170SAPS  H19S19293   1.302   3.517   7.348  0.4413  0.0266 -0.3814
  170SAPS  C22019294   1.413   3.578   7.170 -0.3321 -0.5400 -0.4611
  170SAPS  H20R19295   1.484   3.492   7.166  1.6097  1.0082 -0.4533
  170SAPS  H20S19296   1.476   3.661   7.134 -1.8350 -0.3390 -2.8142
  170SAPS  H20T19297   1.330   3.557   7.100 -1.3849 -1.9409  1.1092
  170SAPS   C3319298   2.487   2.372   7.837  0.8634  0.4546 -0.0365
  170SAPS   H3X19299   2.428   2.306   7.771  0.5476  0.7680 -0.0717
  170SAPS   H3Y19300   2.583   2.318   7.853  0.3244 -0.4529  0.2099
  170SAPS   C3419301   2.515   2.509   7.766 -0.1356  0.0200  0.7307
  170SAPS   H4X19302   2.571   2.580   7.831 -0.1619  0.2189  0.5381
  170SAPS   H4Y19303   2.421   2.567   7.752  1.1682  1.7777 -1.5308
  170SAPS   C3519304   2.564   2.497   7.618  0.4131  0.3211  0.2817
  170SAPS   H5X19305   2.506   2.422   7.561  0.3745  0.9620 -0.5498
  170SAPS   H5Y19306   2.672   2.469   7.613  0.2397 -0.2550 -0.3235
  170SAPS   C3619307   2.546   2.635   7.546 -0.4977 -0.5514 -0.0177
  170SAPS   H6X19308   2.607   2.710   7.601  1.3753  0.0676 -2.7512
  170SAPS   H6Y19309   2.437   2.654   7.555 -0.5763 -1.4588  1.3084
  170SAPS   C3719310   2.585   2.639   7.409 -0.5873  0.0007 -0.4071
  170SAPS   H7X19311   2.690   2.603   7.394  0.5464  2.1439  1.8007
  170SAPS   H7Y19312   2.584   2.746   7.379 -2.9616 -0.0573 -0.7261
  170SAPS   C3819313   2.482   2.566   7.317 -0.0676  0.0223  0.3526
  170SAPS   H8X19314   2.382   2.611   7.336  0.1694  0.6050  0.2365
  170SAPS   H8Y19315   2.486   2.457   7.337  1.2180 -1.1426 -4.8094
  170SAPS   C3919316   2.516   2.586   7.173 -0.7894 -0.0193 -0.4736
  170SAPS   H9X19317   2.543   2.694   7.167  0.3636 -0.3778 -2.5315
  170SAPS   H9Y19318   2.425   2.586   7.110  0.1441 -0.9826 -1.8700
  170SAPS  C31019319   2.620   2.495   7.116 -0.3916  0.4509  0.6809
  170SAPS  H10X19320   2.562   2.417   7.062 -0.8458  1.1452  0.1529
  170SAPS  H10Y19321   2.681   2.455   7.199  0.3960 -0.2894 -0.2312
  170SAPS  C31119322   2.717   2.562   7.011 -0.3898 -0.6400  0.1391
  170SAPS  H11X19323   2.762   2.655   7.053  0.5429 -1.8219  1.8843
  170SAPS  H11Y19324   2.656   2.580   6.920 -1.2314  0.4452  0.9058
  170SAPS  C31219325   2.823   2.461   6.957  0.4206  0.4818 -0.6085
  170SAPS  H12X19326   2.772   2.367   6.927 -0.8276  0.2843  1.8449
  170SAPS  H12Y19327   2.881   2.435   7.048 -1.9431  2.7985  1.7368
  170SAPS  C31319328   2.917   2.502   6.851 -0.2557  0.4322  0.5080
  170SAPS  H13X19329   2.998   2.426   6.851 -0.1602  0.5098 -1.2342
  170SAPS  H13Y19330   2.966   2.600   6.870  0.7525  0.0121  0.1219
  170SAPS  C31419331   2.855   2.521   6.711 -0.1821  0.5972 -0.5195
  170SAPS  H14X19332   2.919   2.580   6.641  1.7611  0.7417  1.2781
  170SAPS  H14Y19333   2.779   2.601   6.725 -0.8096  0.1257 -1.1709
  170SAPS  C31519334   2.799   2.394   6.647 -0.3204  0.1864  0.3489
  170SAPS  H15X19335   2.729   2.357   6.725  0.7082  0.8920  1.6609
  170SAPS  H15Y19336   2.882   2.321   6.635  2.1646  2.7610  0.8129
  170SAPS  C31619337   2.750   2.409   6.498 -0.2273  0.0631  0.0529
  170SAPS  H16X19338   2.733   2.309   6.453  2.5582 -0.8103  0.7280
  170SAPS  H16Y19339   2.820   2.470   6.438 -1.9250  1.2320 -0.7954
  170SAPS  C31719340   2.614   2.479   6.501 -0.2509 -0.5563  0.8585
  170SAPS  H17X19341   2.612   2.569   6.566  0.0269  0.7272 -0.8462
  170SAPS  H17Y19342   2.541   2.419   6.560 -0.5312 -0.8760  0.2024
  170SAPS  C31819343   2.558   2.499   6.357 -0.0368 -0.0333 -0.4653
  170SAPS  H18X19344   2.452   2.530   6.366 -0.1594 -0.4670 -0.3868
  170SAPS  H18Y19345   2.579   2.404   6.304  4.0251 -0.3111  1.2430
  170SAPS  H18Z19346   2.607   2.585   6.305 -1.3572  0.5736 -0.7381
  171SAPS     N19347   4.509   4.654   0.033  0.0005  0.4712 -0.0970
  171SAPS   HN119348   4.596   4.622  -0.014 -0.8534 -1.0283 -0.7152
  171SAPS   HN219349   4.522   4.740   0.092 -1.6919  0.8977 -0.2970
  171SAPS   HN319350   4.473   4.569   0.082 -3.1071  1.2284 -0.8083
  171SAPS   C1219351   4.422   4.693  -0.080  0.2747 -0.6230 -0.6448
  171SAPS  H12A19352   4.329   4.720  -0.031  0.2859 -0.5193 -0.6811
  171SAPS   C1319353   4.469   4.822  -0.148  0.5213  0.2014 -0.7057
  171SAPS  O13A19354   4.585   4.870  -0.125  0.3156  0.2409  0.4213
  171SAPS  O13B19355   4.396   4.859  -0.248 -0.4615  0.1043 -0.1867
  171SAPS   C1119356   4.396   4.582  -0.180  0.1574  0.2287 -0.4441
  171SAPS  H11A19357   4.492   4.552  -0.227  0.0454 -0.1038 -0.4666
  171SAPS  H11B19358   4.341   4.619  -0.269  2.0735  0.5970 -1.5032
  171SAPS     P19359   4.196   4.417  -0.127  0.3620  0.1029 -0.3977
  171SAPS   O1319360   4.199   4.274  -0.083  0.1098  0.0440 -0.0740
  171SAPS   O1419361   4.114   4.514  -0.052 -0.1377 -0.1769  0.0117
  171SAPS   O1219362   4.343   4.470  -0.113  0.1625  0.2940  0.2377
  171SAPS   O1119363   4.160   4.428  -0.279 -0.0494  0.3449  0.3603
  171SAPS    C119364   4.229   4.346  -0.384 -0.2223 -0.4078 -0.8183
  171SAPS    HA19365   4.325   4.319  -0.334 -1.3172 -0.3879  1.4206
  171SAPS    HB19366   4.172   4.252  -0.401 -0.8425 -0.0617 -0.6875
  171SAPS    C219367   4.253   4.414  -0.524 -0.1443 -0.9268  0.4132
  171SAPS    HS19368   4.303   4.333  -0.580  0.9234  0.3126 -0.4917
  171SAPS   O2119369   4.350   4.523  -0.508  0.2316  0.3864 -0.4295
  171SAPS   C2119370   4.476   4.491  -0.496 -0.2700  0.0831  0.4241
  171SAPS   O2219371   4.520   4.378  -0.486  0.1182 -0.4573 -0.1934
  171SAPS   C2219372   4.560   4.609  -0.503 -0.0108 -0.3228  0.6380
  171SAPS   H2R19373   4.552   4.668  -0.410  0.5060  0.4821  0.1805
  171SAPS   H2S19374   4.668   4.583  -0.504  0.5377  1.7708 -1.0871
  171SAPS    C319375   4.121   4.456  -0.595  0.3402  0.0073  0.3953
  171SAPS    HX19376   4.070   4.530  -0.531 -2.1320 -0.9973 -0.2960
  171SAPS    HY19377   4.046   4.374  -0.598 -0.3656  0.6090 -2.6851
  171SAPS   O3119378   4.135   4.501  -0.737 -0.2948 -0.2234 -0.5739
  171SAPS   C3119379   4.167   4.623  -0.768 -0.0846 -0.3620 -0.4978
  171SAPS   O3219380   4.166   4.721  -0.699 -0.3139 -0.5817  0.5129
  171SAPS   C3219381   4.196   4.621  -0.916 -0.2971  0.2248 -0.1784
  171SAPS   H2X19382   4.099   4.580  -0.951 -0.3108  0.6379 -0.6300
  171SAPS   H2Y19383   4.281   4.556  -0.943 -0.6961 -0.4831  0.2394
  171SAPS   C2319384   4.527   4.724  -0.606 -0.0802  0.2953 -0.0943
  171SAPS   H3R19385   4.589   4.817  -0.603 -0.8889  0.8874 -0.9161
  171SAPS   H3S19386   4.427   4.768  -0.588 -0.3363  0.1438 -1.0753
  171SAPS   C2419387   4.532   4.680  -0.757 -0.0181  0.4953 -0.4278
  171SAPS   H4R19388   4.500   4.769  -0.815  0.4150  1.7714  1.1964
  171SAPS   H4S19389   4.450   4.609  -0.781 -1.5188  1.2919  2.0490
  171SAPS   C2519390   4.663   4.613  -0.793 -1.1322 -0.2395 -0.2557
  171SAPS   H5R19391   4.712   4.550  -0.717  0.4090  0.8665 -0.2747
  171SAPS   C2619392   4.713   4.596  -0.916 -1.1585 -1.0493 -0.6199
  171SAPS   H6R19393   4.813   4.549  -0.915 -0.4535  0.3955 -1.1075
  171SAPS   C2719394   4.665   4.643  -1.055  0.2744  0.0277  0.0691
  171SAPS   H7R19395   4.582   4.717  -1.049 -0.6891 -1.0029 -0.0907
  171SAPS   H7S19396   4.619   4.551  -1.098  0.0200 -1.0827  2.5197
  171SAPS   C2819397   4.785   4.674  -1.143  0.1648 -0.5580  0.3639
  171SAPS   H8R19398   4.876   4.712  -1.094  0.5492 -1.8218  0.6681
  171SAPS   C2919399   4.790   4.654  -1.277  0.5453  0.2872 -0.0379
  171SAPS   H9R19400   4.890   4.652  -1.323  0.3005 -0.8994 -0.5437
  171SAPS  C21019401   4.689   4.599  -1.374  0.1427  0.3742 -0.0361
  171SAPS  H10R19402   4.606   4.550  -1.319  0.9092 -1.3801 -0.3869
  171SAPS  H10S19403   4.725   4.517  -1.439  0.5014  1.0707 -0.7353
  171SAPS  C21119404   4.647   4.716  -1.460  0.8840 -0.0674  0.3458
  171SAPS  H11R19405   4.640   4.812  -1.407  0.3022  0.6154 -0.9144
  171SAPS  C21219406   4.644   4.717  -1.596 -1.1922  0.1072 -0.4417
  171SAPS  H12R19407   4.630   4.814  -1.646  3.5673  0.1077 -2.3115
  171SAPS  C21319408   4.643   4.592  -1.681 -0.3191 -0.0403  0.1325
  171SAPS  H13R19409   4.643   4.496  -1.626  0.6437  0.2605  0.6678
  171SAPS  H13S19410   4.731   4.594  -1.749 -1.2938  1.8082 -1.1872
  171SAPS  C21419411   4.515   4.585  -1.752 -0.4600 -0.9395 -0.4208
  171SAPS  H14R19412   4.429   4.569  -1.685  0.9624  0.5173  1.9212
  171SAPS  C21519413   4.494   4.573  -1.881  0.2600 -0.2754  0.0409
  171SAPS  H15R19414   4.391   4.566  -1.919 -0.6031 -0.8460  2.3412
  171SAPS  C21619415   4.599   4.586  -1.994 -0.0282  0.2608 -0.2527
  171SAPS  H16R19416   4.692   4.639  -1.963  1.0065 -1.0936 -0.9166
  171SAPS  H16S19417   4.566   4.649  -2.080 -3.1371  0.7923  1.2110
  171SAPS  C21719418   4.637   4.454  -2.044 -0.1629 -0.0323  0.1848
  171SAPS  H17R19419   4.545   4.397  -2.072 -0.2373  0.6824 -1.1042
  171SAPS  H17S19420   4.687   4.397  -1.963  0.2263 -1.5173 -1.0436
  171SAPS  C21819421   4.736   4.463  -2.161 -0.9739 -0.1859 -0.1173
  171SAPS  H18R19422   4.836   4.491  -2.124  0.1505 -1.1975 -2.2264
  171SAPS  H18S19423   4.702   4.539  -2.234  0.4789  1.8527  1.2052
  171SAPS  C21919424   4.755   4.338  -2.250 -0.1498 -0.3766 -0.6321
  171SAPS  H19R19425   4.660   4.288  -2.277 -0.6617 -1.4308  2.7080
  171SAPS  H19S19426   4.817   4.268  -2.190 -1.1931 -0.9225 -0.1784
  171SAPS  C22019427   4.839   4.369  -2.377 -0.2502 -0.0629 -0.1396
  171SAPS  H20R19428   4.913   4.288  -2.392  0.3273  0.8966 -3.2978
  171SAPS  H20S19429   4.909   4.444  -2.334  0.5056 -1.3516  0.9716
  171SAPS  H20T19430   4.790   4.411  -2.467  3.7061  1.9617 -1.5765
  171SAPS   C3319431   4.224   4.755  -0.987 -0.4446  0.0294  0.3431
  171SAPS   H3X19432   4.315   4.800  -0.941 -1.0086  1.0030  0.5451
  171SAPS   H3Y19433   4.138   4.823  -0.969 -1.5684 -1.5329  1.0868
  171SAPS   C3419434   4.226   4.736  -1.138  0.0825 -0.0362  0.5605
  171SAPS   H4X19435   4.122   4.707  -1.162  0.1866 -1.7492  2.0059
  171SAPS   H4Y19436   4.300   4.658  -1.166 -0.5088 -0.4240  0.0568
  171SAPS   C3519437   4.256   4.865  -1.215  0.0741  0.1727 -0.1264
  171SAPS   H5X19438   4.342   4.917  -1.169 -1.0539  3.5518 -1.5308
  171SAPS   H5Y19439   4.184   4.949  -1.204 -1.8146 -1.5183  1.1815
  171SAPS   C3619440   4.286   4.849  -1.367  0.4224 -0.1722  1.2484
  171SAPS   H6X19441   4.212   4.778  -1.409  2.5126 -1.9497  0.3606
  171SAPS   H6Y19442   4.385   4.799  -1.372  0.2721 -0.4354  0.8608
  171SAPS   C3719443   4.285   4.983  -1.450  0.1825  0.7946  0.3059
  171SAPS   H7X19444   4.367   5.043  -1.404  0.1587 -0.9144  2.7555
  171SAPS   H7Y19445   4.191   5.039  -1.430  0.3726  1.0770  0.4264
  171SAPS   C3819446   4.317   4.963  -1.600  0.2493  0.0152 -0.4289
  171SAPS   H8X19447   4.403   4.894  -1.586  0.9546  0.9305 -0.1503
  171SAPS   H8Y19448   4.349   5.058  -1.648 -1.7043  0.6703 -0.5374
  171SAPS   C3919449   4.198   4.902  -1.685 -0.1176  0.3708  0.3017
  171SAPS   H9X19450   4.120   4.980  -1.671 -0.0917  0.4301  0.1227
  171SAPS   H9Y19451   4.168   4.817  -1.620  2.3277 -0.9459 -0.1807
  171SAPS  C31019452   4.236   4.857  -1.830  0.4212 -0.1435  0.0900
  171SAPS  H10X19453   4.295   4.763  -1.821 -0.6448 -0.7557  0.9491
  171SAPS  H10Y19454   4.305   4.930  -1.878 -1.1915  1.0983 -0.4261
  171SAPS  C31119455   4.115   4.830  -1.925 -0.6321 -0.0525 -0.2287
  171SAPS  H11X19456   4.049   4.919  -1.928  0.7119  0.9456 -1.5036
  171SAPS  H11Y19457   4.052   4.750  -1.880  0.9917 -0.3614  1.6330
  171SAPS  C31219458   4.150   4.775  -2.064 -0.1929 -0.2142  0.4529
  171SAPS  H12X19459   4.063   4.727  -2.114 -1.3544  0.2942  1.9109
  171SAPS  H12Y19460   4.213   4.685  -2.049  1.2108  0.3596 -1.5102
  171SAPS  C31319461   4.233   4.868  -2.158  0.0480  0.0714  0.1406
  171SAPS  H13X19462   4.329   4.889  -2.106 -1.1380  0.6344  2.1889
  171SAPS  H13Y19463   4.174   4.961  -2.176 -1.7613 -0.4990  2.6518
  171SAPS  C31419464   4.248   4.798  -2.300 -0.2595  0.3725  0.3484
  171SAPS  H14X19465   4.299   4.872  -2.366  1.5749 -0.5308  0.7107
  171SAPS  H14Y19466   4.147   4.773  -2.338 -0.7069  1.6332  0.6459
  171SAPS  C31519467   4.337   4.674  -2.308  0.5686  0.2034  0.0674
  171SAPS  H15X19468   4.291   4.600  -2.239 -1.8738  2.7111  1.3180
  171SAPS  H15Y19469   4.437   4.703  -2.271  0.5692  1.3298 -0.7484
  171SAPS  C31619470   4.354   4.603  -2.447  0.0151 -0.6232 -0.1294
  171SAPS  H16X19471   4.422   4.660  -2.515  1.4425 -0.0758  1.6707
  171SAPS  H16Y19472   4.255   4.589  -2.494  0.3768 -0.5205 -0.9440
  171SAPS  C31719473   4.421   4.468  -2.437 -0.0001  0.6105 -0.3104
  171SAPS  H17X19474   4.368   4.390  -2.378  1.0688 -0.1367 -0.2956
  171SAPS  H17Y19475   4.514   4.485  -2.378  0.7455  1.2837 -1.6326
  171SAPS  C31819476   4.457   4.405  -2.569 -0.1028  0.5090  0.1949
  171SAPS  H18X19477   4.490   4.301  -2.552 -1.5672  0.0269  0.2239
  171SAPS  H18Y19478   4.545   4.464  -2.605 -1.2049  1.2113 -1.4778
  171SAPS  H18Z19479   4.365   4.407  -2.632 -0.4880 -1.3009  0.6579
  172SAPS     N19480   5.882   6.259   8.524 -0.2873 -0.3069 -0.4405
  172SAPS   HN119481   5.813   6.259   8.446 -0.6998 -0.2189 -0.0798
  172SAPS   HN219482   5.860   6.330   8.597  1.5133 -1.7536  1.6441
  172SAPS   HN319483   5.976   6.290   8.491 -0.6876 -0.1169 -1.4349
  172SAPS   C1219484   5.891   6.132   8.605  0.1147 -0.3746  0.3224
  172SAPS  H12A19485   5.907   6.051   8.535  0.2212 -1.8364  1.9464
  172SAPS   C1319486   6.006   6.126   8.702 -0.0820  0.2757 -0.1865
  172SAPS  O13A19487   6.066   6.234   8.733 -0.0118  0.4356  0.2030
  172SAPS  O13B19488   6.025   6.023   8.775  0.1478 -0.7202 -0.3543
  172SAPS   C1119489   5.761   6.092   8.673  0.0678 -0.8878 -0.8456
  172SAPS  H11A19490   5.748   6.136   8.774  0.0602 -1.7953 -0.4378
  172SAPS  H11B19491   5.765   5.981   8.682  1.0626 -0.8080 -0.1550
  172SAPS     P19492   5.502   6.084   8.648 -0.3395 -0.0977  0.1075
  172SAPS   O1319493   5.501   6.031   8.784 -0.2695 -0.0281 -1.0428
  172SAPS   O1419494   5.407   6.196   8.633 -0.2135 -0.2699 -0.1779
  172SAPS   O1219495   5.650   6.135   8.596 -0.3204  0.0142 -0.2433
  172SAPS   O1119496   5.468   5.964   8.545  0.2747 -0.3419  0.5585
  172SAPS    C119497   5.415   5.992   8.414  1.2641  0.7282 -0.0978
  172SAPS    HA19498   5.341   5.910   8.398  0.5700  1.7377 -2.6674
  172SAPS    HB19499   5.358   6.087   8.406 -2.0667 -1.1348 -0.6175
  172SAPS    C219500   5.532   5.986   8.326  0.1192 -0.8703  0.7374
  172SAPS    HS19501   5.609   6.054   8.367  0.7167 -1.4516  0.6014
  172SAPS   O2119502   5.499   6.016   8.188  0.3054  0.6619 -0.4376
  172SAPS   C2119503   5.482   6.137   8.159  0.7472  0.6850  0.3226
  172SAPS   O2219504   5.464   6.232   8.234 -0.3432 -0.5706  0.2332
  172SAPS   C2219505   5.485   6.148   8.005  0.1374 -0.3073 -0.4240
  172SAPS   H2R19506   5.525   6.247   7.975  0.9775 -0.7528 -0.8434
  172SAPS   H2S19507   5.561   6.075   7.969  2.0520  1.8840 -1.0934
  172SAPS    C319508   5.609   5.851   8.328  0.3491  0.2041 -0.4573
  172SAPS    HX19509   5.638   5.831   8.434 -2.0550  1.3456  0.4945
  172SAPS    HY19510   5.696   5.872   8.262  0.5290 -0.2800 -0.3813
  172SAPS   O3119511   5.525   5.733   8.277  0.1468 -0.0070  0.0970
  172SAPS   C3119512   5.548   5.686   8.156  0.0964 -0.1893  0.3853
  172SAPS   O3219513   5.641   5.714   8.082 -0.5407 -0.1230  0.2830
  172SAPS   C3219514   5.444   5.587   8.114 -0.9201 -0.3260  0.4739
  172SAPS   H2X19515   5.346   5.625   8.152 -0.5960  3.0815 -1.5958
  172SAPS   H2Y19516   5.466   5.484   8.148 -1.5652 -1.1419 -1.4444
  172SAPS   C2319517   5.345   6.124   7.936 -0.1226 -0.0067  0.6283
  172SAPS   H3R19518   5.375   6.172   7.841 -0.4737 -0.0950  0.4745
  172SAPS   H3S19519   5.267   6.183   7.988 -1.5893 -1.3936  0.0920
  172SAPS   C2419520   5.307   5.975   7.933  0.2945 -0.5456 -0.4483
  172SAPS   H4R19521   5.294   5.940   8.038  0.7613  2.0030  0.5186
  172SAPS   H4S19522   5.385   5.907   7.891  0.1613 -1.2190  0.3578
  172SAPS   C2519523   5.182   5.959   7.849  0.2798  0.0008 -0.9235
  172SAPS   H5R19524   5.093   5.964   7.915  0.8379  0.3031 -0.1797
  172SAPS   C2619525   5.168   5.917   7.722 -0.1960 -0.5955 -0.2301
  172SAPS   H6R19526   5.068   5.916   7.677  0.8823 -0.8914 -2.8173
  172SAPS   C2719527   5.277   5.888   7.616 -0.7270  0.3964 -0.6464
  172SAPS   H7R19528   5.286   5.781   7.587  0.3258  0.2257  0.2441
  172SAPS   H7S19529   5.379   5.915   7.650 -2.0426  1.2469  3.2557
  172SAPS   C2819530   5.268   5.967   7.487  0.2016 -0.3344 -0.1830
  172SAPS   H8R19531   5.333   6.056   7.485 -0.6612  0.3022 -0.4849
  172SAPS   C2919532   5.188   5.948   7.383 -0.0900  0.1854 -0.1924
  172SAPS   H9R19533   5.181   6.023   7.303 -1.9607  0.5951  0.3078
  172SAPS  C21019534   5.088   5.834   7.362 -0.8708  0.0267 -0.7534
  172SAPS  H10R19535   5.044   5.795   7.456  1.1233 -1.7414 -0.4932
  172SAPS  H10S19536   5.142   5.742   7.333 -0.0199  0.2666  0.0092
  172SAPS  C21119537   4.982   5.865   7.262 -0.6927  0.7011 -0.1904
  172SAPS  H11R19538   4.881   5.877   7.304  0.9792  2.3340  3.9554
  172SAPS  C21219539   4.997   5.874   7.130  0.5282  1.5790  0.3297
  172SAPS  H12R19540   4.912   5.898   7.065  0.7404 -2.0679 -1.5538
  172SAPS  C21319541   5.129   5.858   7.057 -0.3953 -0.0186  0.8699
  172SAPS  H13R19542   5.116   5.771   6.990 -0.4241  0.5064  0.1730
  172SAPS  H13S19543   5.210   5.818   7.121 -0.5242  1.0810  1.7543
  172SAPS  C21419544   5.183   5.978   6.984 -0.1718  0.6345  1.2885
  172SAPS  H14R19545   5.260   6.037   7.036  0.7101  1.5470 -0.9636
  172SAPS  C21519546   5.148   6.013   6.859  0.0109 -0.4686 -0.1795
  172SAPS  H15R19547   5.183   6.110   6.819 -0.8724 -0.2516 -0.4346
  172SAPS  C21619548   5.054   5.934   6.774  0.1341 -0.4502  0.8058
  172SAPS  H16R19549   5.005   5.847   6.822 -1.3076  1.4667  3.0438
  172SAPS  H16S19550   5.107   5.902   6.682 -1.5868  3.4030 -1.8074
  172SAPS  C21719551   4.938   6.027   6.728 -0.4385 -0.1622 -0.4432
  172SAPS  H17R19552   4.988   6.108   6.671 -0.9771 -0.2025 -0.9884
  172SAPS  H17S19553   4.904   6.091   6.813  1.1094  0.4560 -0.2575
  172SAPS  C21819554   4.830   5.966   6.640  0.2094  0.2211  0.0399
  172SAPS  H18R19555   4.728   6.003   6.663  0.6316  2.6872 -1.6789
  172SAPS  H18S19556   4.834   5.860   6.673  0.4494  1.2096  3.6212
  172SAPS  C21919557   4.858   5.988   6.489 -0.2342 -0.0594 -0.2693
  172SAPS  H19R19558   4.963   5.960   6.465  0.9257  1.3056  2.6891
  172SAPS  H19S19559   4.860   6.099   6.478  0.6164 -0.1012 -0.5997
  172SAPS  C22019560   4.760   5.920   6.396  0.0956 -0.0271 -0.2415
  172SAPS  H20R19561   4.656   5.949   6.421 -0.9417 -2.0133 -1.8775
  172SAPS  H20S19562   4.769   5.811   6.416 -1.2492 -0.5165 -2.0430
  172SAPS  H20T19563   4.774   5.941   6.288 -1.8232 -0.9776 -0.7182
  172SAPS   C3319564   5.423   5.601   7.964  0.0903  0.0270  0.3346
  172SAPS   H3X19565   5.514   5.570   7.908 -1.0405 -0.2430 -1.4377
  172SAPS   H3Y19566   5.391   5.705   7.942  0.0219 -0.1334 -0.3501
  172SAPS   C3419567   5.309   5.504   7.918  0.1624  0.1205 -0.1551
  172SAPS   H4X19568   5.221   5.520   7.984  1.0627 -1.6590  1.5760
  172SAPS   H4Y19569   5.334   5.398   7.940  0.6571  0.0161 -1.1570
  172SAPS   C3519570   5.273   5.523   7.768 -0.1857 -0.5420 -0.0187
  172SAPS   H5X19571   5.365   5.514   7.706  0.2656  0.9092  0.3891
  172SAPS   H5Y19572   5.245   5.630   7.759  0.2172 -0.6327 -4.3224
  172SAPS   C3619573   5.145   5.439   7.725  0.6027 -0.6484 -0.4279
  172SAPS   H6X19574   5.061   5.465   7.793  0.3453 -0.2474 -0.8975
  172SAPS   H6Y19575   5.168   5.331   7.740 -1.5065 -1.1917 -0.7541
  172SAPS   C3719576   5.096   5.448   7.580 -0.1633 -0.7671  0.1144
  172SAPS   H7X19577   5.029   5.536   7.563  2.6828  1.0404 -2.8222
  172SAPS   H7Y19578   5.042   5.353   7.559 -1.0226 -0.0250 -1.1992
  172SAPS   C3819579   5.213   5.447   7.482 -0.0284  0.1469 -0.4645
  172SAPS   H8X19580   5.272   5.356   7.507  0.0696  0.9439  2.4729
  172SAPS   H8Y19581   5.286   5.530   7.484 -1.5384  1.5765 -1.5987
  172SAPS   C3919582   5.160   5.438   7.332  0.9232 -0.2641 -0.8814
  172SAPS   H9X19583   5.083   5.517   7.315  1.1669  0.4486  1.0285
  172SAPS   H9Y19584   5.101   5.344   7.330 -2.2346  1.5450 -0.1894
  172SAPS  C31019585   5.269   5.463   7.231 -0.1363 -0.4178 -0.6935
  172SAPS  H10X19586   5.341   5.378   7.239  1.2051  0.6536 -0.9427
  172SAPS  H10Y19587   5.329   5.557   7.232 -0.1794 -0.3581  1.3245
  172SAPS  C31119588   5.223   5.449   7.087 -0.1400  0.6489 -0.2027
  172SAPS  H11X19589   5.310   5.437   7.019 -0.7339  1.8955 -1.2160
  172SAPS  H11Y19590   5.174   5.546   7.063 -1.2630  0.2866  0.5102
  172SAPS  C31219591   5.129   5.335   7.043  0.8538  0.0781 -0.3247
  172SAPS  H12X19592   5.028   5.341   7.089  0.6905  0.3667 -0.7105
  172SAPS  H12Y19593   5.172   5.235   7.064  0.3499 -0.0792 -0.0057
  172SAPS  C31319594   5.113   5.340   6.890 -0.3142  1.1400  0.1686
  172SAPS  H13X19595   5.093   5.238   6.852 -1.7829  0.9055  1.4819
  172SAPS  H13Y19596   5.210   5.358   6.840 -0.8914  0.5186 -1.2199
  172SAPS  C31419597   5.019   5.449   6.829  0.1123 -0.3789  0.3055
  172SAPS  H14X19598   5.056   5.541   6.878  0.4144 -0.5623  0.4259
  172SAPS  H14Y19599   4.912   5.431   6.854 -0.2384 -0.3658 -1.0927
  172SAPS  C31519600   5.045   5.460   6.674  0.2974 -0.1056 -0.9095
  172SAPS  H15X19601   5.016   5.360   6.633 -3.0660 -0.4508  1.8554
  172SAPS  H15Y19602   5.154   5.474   6.663  0.7058 -1.2191  1.1921
  172SAPS  C31619603   4.965   5.576   6.601 -0.7684  0.5818  0.1368
  172SAPS  H16X19604   4.859   5.584   6.632 -1.3059  2.0839 -1.8806
  172SAPS  H16Y19605   5.018   5.673   6.614  0.9881 -0.2823 -0.1801
  172SAPS  C31719606   4.958   5.538   6.448  0.1899  0.4281  0.0699
  172SAPS  H17X19607   5.062   5.516   6.415  1.1353  0.9411  2.4615
  172SAPS  H17Y19608   4.909   5.624   6.397 -0.0560  1.6979  2.3014
  172SAPS  C31819609   4.873   5.416   6.405  0.1656 -0.0129 -0.7735
  172SAPS  H18X19610   4.772   5.428   6.448  0.1992 -1.3199 -0.2961
  172SAPS  H18Y19611   4.914   5.327   6.456 -1.1562 -0.5828 -0.6830
  172SAPS  H18Z19612   4.859   5.402   6.295 -2.0210 -0.6472 -0.4577
  173SAPS     N19613   4.093   0.244   4.063  0.6898 -0.4551 -0.0583
  173SAPS   HN119614   4.056   0.179   4.135 -2.2568  0.8751 -0.2178
  173SAPS   HN219615   4.116   0.197   3.973 -0.7314 -0.4380 -0.4542
  173SAPS   HN319616   4.180   0.288   4.100 -1.3674  1.8695  2.4882
  173SAPS   C1219617   3.996   0.358   4.041 -0.2239  0.0890 -0.2290
  173SAPS  H12A19618   4.030   0.413   3.954  1.0569  0.4090  0.4498
  173SAPS   C1319619   3.857   0.319   3.991  0.4068 -1.3305  0.2221
  173SAPS  O13A19620   3.824   0.198   3.984 -0.4459  0.5189  0.4643
  173SAPS  O13B19621   3.768   0.404   3.963  0.4337 -0.2840 -0.3361
  173SAPS   C1119622   3.993   0.445   4.169  0.2674  0.1631  0.2139
  173SAPS  H11A19623   3.963   0.385   4.257 -0.4243 -1.9350 -1.3787
  173SAPS  H11B19624   3.908   0.515   4.159  0.0747 -0.3406 -2.3922
  173SAPS     P19625   4.177   0.631   4.130 -0.3552  0.0321  0.1877
  173SAPS   O1319626   4.183   0.614   3.985 -0.0850  0.8993  0.0604
  173SAPS   O1419627   4.110   0.756   4.179  0.0416 -0.4670  0.3917
  173SAPS   O1219628   4.118   0.506   4.201  0.1137  0.6722  0.4002
  173SAPS   O1119629   4.336   0.631   4.173 -0.0194  0.6654 -0.7205
  173SAPS    C119630   4.388   0.532   4.262 -0.2884 -0.5084  1.1860
  173SAPS    HA19631   4.341   0.432   4.247 -1.1651  0.4233 -4.4083
  173SAPS    HB19632   4.496   0.532   4.233 -0.5856 -0.5908  0.0042
  173SAPS    C219633   4.380   0.591   4.409  0.3475  0.4853 -0.3746
  173SAPS    HS19634   4.452   0.532   4.468  2.5298  2.0687 -1.3004
  173SAPS   O2119635   4.248   0.575   4.472 -0.8541 -0.0139  0.7341
  173SAPS   C2119636   4.204   0.453   4.492 -0.3899 -0.6173  1.2809
  173SAPS   O2219637   4.266   0.352   4.475  0.3141  0.1197  0.6513
  173SAPS   C2219638   4.066   0.461   4.562  0.0039  0.5005  0.7685
  173SAPS   H2R19639   4.001   0.521   4.495  0.1832  1.4561  1.4391
  173SAPS   H2S19640   4.022   0.360   4.573  2.3111 -0.5257  1.2653
  173SAPS    C319641   4.417   0.744   4.415  0.8722  0.1811 -0.0632
  173SAPS    HX19642   4.338   0.799   4.360  1.7110  2.3657  0.8023
  173SAPS    HY19643   4.514   0.765   4.363  1.0545 -0.5200 -0.0096
  173SAPS   O3119644   4.432   0.793   4.550  0.1163  0.0834 -0.0166
  173SAPS   C3119645   4.320   0.833   4.612  0.2952 -0.5930 -0.8774
  173SAPS   O3219646   4.212   0.826   4.566  0.0179  0.2327  0.1498
  173SAPS   C3219647   4.342   0.883   4.756 -0.1162  0.6569 -0.2535
  173SAPS   H2X19648   4.411   0.968   4.735 -0.9269  1.1058 -1.2093
  173SAPS   H2Y19649   4.370   0.794   4.816 -1.7934 -0.0542 -0.4794
  173SAPS   C2319650   4.063   0.540   4.691  0.2692 -0.6963 -0.2665
  173SAPS   H3R19651   3.969   0.597   4.700 -0.2668 -1.7467  1.1482
  173SAPS   H3S19652   4.148   0.612   4.687  1.4016 -1.9866 -0.4139
  173SAPS   C2419653   4.064   0.456   4.817  0.1242 -0.9094 -0.5661
  173SAPS   H4R19654   3.982   0.381   4.812 -1.7023  1.0191 -1.2674
  173SAPS   H4S19655   4.047   0.511   4.912 -0.5179 -0.4409 -0.9386
  173SAPS   C2519656   4.198   0.386   4.825 -0.1904 -0.4349 -0.7763
  173SAPS   H5R19657   4.225   0.312   4.747 -0.1084  1.4473 -2.6175
  173SAPS   C2619658   4.275   0.384   4.942  0.2470  0.6695 -0.0182
  173SAPS   H6R19659   4.379   0.348   4.945  1.5867  4.2204  2.1356
  173SAPS   C2719660   4.242   0.436   5.081  0.4403  0.5946  0.1911
  173SAPS   H7R19661   4.135   0.463   5.094 -0.0971 -0.8390 -1.0119
  173SAPS   H7S19662   4.292   0.534   5.099 -2.5695  2.2981 -0.1137
  173SAPS   C2819663   4.258   0.333   5.187 -0.8873 -0.3863  0.3464
  173SAPS   H8R19664   4.285   0.231   5.154 -0.1140 -0.0614 -0.0620
  173SAPS   C2919665   4.251   0.360   5.322  0.1665 -0.2330  0.3251
  173SAPS   H9R19666   4.268   0.279   5.394  0.4963 -1.0950 -0.7147
  173SAPS  C21019667   4.207   0.497   5.379  0.3700  0.2694 -0.0836
  173SAPS  H10R19668   4.141   0.550   5.307  1.3717 -0.3994 -1.5502
  173SAPS  H10S19669   4.301   0.554   5.394 -0.4533  2.1639 -1.6523
  173SAPS  C21119670   4.138   0.482   5.512  0.1707 -0.5380  0.5953
  173SAPS  H11R19671   4.047   0.421   5.506  0.2303 -0.6472  0.8037
  173SAPS  C21219672   4.182   0.529   5.632 -0.7977  0.5600 -0.5885
  173SAPS  H12R19673   4.125   0.515   5.726  0.6335  3.2118  0.7827
  173SAPS  C21319674   4.307   0.612   5.653 -0.2308 -0.1375 -0.2172
  173SAPS  H13R19675   4.287   0.685   5.735  1.3906  2.0468 -1.6561
  173SAPS  H13S19676   4.323   0.682   5.569  0.8083  1.4762  1.2439
  173SAPS  C21419677   4.430   0.523   5.680 -0.4259 -0.6539  0.0271
  173SAPS  H14R19678   4.452   0.452   5.599 -2.0850 -0.3654 -0.6984
  173SAPS  C21519679   4.519   0.529   5.784 -0.0081  0.0727 -0.3828
  173SAPS  H15R19680   4.604   0.460   5.799  1.2779  1.9908  1.6642
  173SAPS  C21619681   4.502   0.622   5.902 -0.3456 -0.1143 -0.3103
  173SAPS  H16R19682   4.473   0.723   5.867  1.1804  0.4326 -0.0845
  173SAPS  H16S19683   4.600   0.641   5.951 -0.8773  2.7217 -0.1670
  173SAPS  C21719684   4.397   0.578   5.999  0.2875 -0.3062 -0.7093
  173SAPS  H17R19685   4.301   0.587   5.944 -1.5145  1.2037  2.4522
  173SAPS  H17S19686   4.397   0.646   6.086  1.7194 -3.6285  2.1315
  173SAPS  C21819687   4.395   0.434   6.056 -0.2005 -0.1531  0.2342
  173SAPS  H18R19688   4.474   0.429   6.134  0.5586  1.7093 -0.3564
  173SAPS  H18S19689   4.420   0.359   5.977 -3.8064 -1.2517 -0.0413
  173SAPS  C21919690   4.257   0.386   6.114 -0.3565  1.0173 -0.3403
  173SAPS  H19R19691   4.179   0.412   6.040 -1.3424  2.0328  0.9864
  173SAPS  H19S19692   4.236   0.448   6.204  1.3267 -0.0137  0.8188
  173SAPS  C22019693   4.254   0.238   6.159 -0.5681 -0.5035 -0.1685
  173SAPS  H20R19694   4.276   0.168   6.075  2.2526 -1.4542  1.2241
  173SAPS  H20S19695   4.152   0.210   6.192  0.0589 -1.4459  1.0449
  173SAPS  H20T19696   4.332   0.204   6.231 -0.5429  1.6723  0.8940
  173SAPS   C3319697   4.220   0.946   4.826  0.8034  0.2048  0.3962
  173SAPS   H3X19698   4.132   0.877   4.824 -0.2011  1.4543 -0.4085
  173SAPS   H3Y19699   4.202   1.047   4.783 -1.0110  0.4264  1.5346
  173SAPS   C3419700   4.242   0.970   4.978 -0.0191 -0.4769  0.2967
  173SAPS   H4X19701   4.147   1.019   5.010  1.0412  2.0960 -0.2606
  173SAPS   H4Y19702   4.310   1.058   4.988 -0.8779  0.1433  0.8400
  173SAPS   C3519703   4.284   0.849   5.053  0.5857 -0.8242 -0.1398
  173SAPS   H5X19704   4.379   0.807   5.014 -0.1400 -2.2269 -0.4640
  173SAPS   H5Y19705   4.216   0.761   5.058 -0.6226 -0.1340 -2.6516
  173SAPS   C3619706   4.322   0.882   5.199  0.6665 -0.2518 -0.2471
  173SAPS   H6X19707   4.336   0.783   5.247  0.0948 -1.8153 -3.0506
  173SAPS   H6Y19708   4.238   0.929   5.255 -0.6173 -1.8231 -0.7795
  173SAPS   C3719709   4.446   0.966   5.224 -0.9298 -0.6337  0.1254
  173SAPS   H7X19710   4.418   1.072   5.205 -2.1778 -0.8557  0.6157
  173SAPS   H7Y19711   4.521   0.946   5.145 -0.2681 -2.2614  1.1272
  173SAPS   C3819712   4.510   0.959   5.363  0.3935  0.0841  0.4006
  173SAPS   H8X19713   4.593   1.032   5.375 -0.6707  1.0350  2.5874
  173SAPS   H8Y19714   4.551   0.857   5.369 -2.1731 -1.2521 -2.0913
  173SAPS   C3919715   4.417   0.999   5.479 -0.3603  0.2990 -0.3670
  173SAPS   H9X19716   4.337   0.921   5.482 -0.4668  0.4261  0.4973
  173SAPS   H9Y19717   4.369   1.095   5.450 -2.3277 -0.1225  1.2472
  173SAPS  C31019718   4.495   1.014   5.617  0.3532 -0.5022 -0.5487
  173SAPS  H10X19719   4.581   1.083   5.608  1.1185 -0.8550  2.7244
  173SAPS  H10Y19720   4.537   0.920   5.659 -1.2172  0.1567  2.8787
  173SAPS  C31119721   4.400   1.073   5.725 -0.6374  0.6776  1.0963
  173SAPS  H11X19722   4.309   1.011   5.728  0.1007 -0.4589  0.7278
  173SAPS  H11Y19723   4.377   1.176   5.691  1.5266  1.0641  0.6257
  173SAPS  C31219724   4.459   1.076   5.856 -0.5418  0.1781 -0.1936
  173SAPS  H12X19725   4.524   1.164   5.877  1.5738 -1.0142 -1.3698
  173SAPS  H12Y19726   4.524   0.988   5.873 -0.3090  0.2012 -0.9142
  173SAPS  C31319727   4.351   1.071   5.960 -0.4852 -0.4961  0.4275
  173SAPS  H13X19728   4.292   0.977   5.957 -0.3530 -0.5611 -0.1367
  173SAPS  H13Y19729   4.277   1.153   5.945  0.5174  0.1818 -0.9414
  173SAPS  C31419730   4.411   1.072   6.107  0.4553  0.1200  0.3950
  173SAPS  H14X19731   4.468   1.165   6.126 -0.2189  0.8318 -0.9393
  173SAPS  H14Y19732   4.487   0.991   6.108  0.0320 -0.2863  0.4272
  173SAPS  C31519733   4.298   1.034   6.208  0.4596 -0.0944 -0.3668
  173SAPS  H15X19734   4.342   1.040   6.310 -1.3653  3.0081  0.3900
  173SAPS  H15Y19735   4.265   0.928   6.210  0.0863 -0.0481 -2.4032
  173SAPS  C31619736   4.179   1.126   6.203 -0.0423 -0.2380 -0.2709
  173SAPS  H16X19737   4.116   1.080   6.282  0.2794  1.6708  1.1652
  173SAPS  H16Y19738   4.134   1.104   6.103 -1.1806 -1.5800  0.5080
  173SAPS  C31719739   4.210   1.272   6.228  0.6313 -0.6201  0.3250
  173SAPS  H17X19740   4.300   1.295   6.167  0.6144 -1.1329  0.1068
  173SAPS  H17Y19741   4.227   1.281   6.337 -0.0495  0.2796  0.3727
  173SAPS  C31819742   4.107   1.391   6.182 -0.4333 -0.4666 -0.1892
  173SAPS  H18X19743   4.147   1.488   6.218  3.0009 -1.4842 -0.8404
  173SAPS  H18Y19744   4.007   1.376   6.228 -1.6798  3.9632 -0.9895
  173SAPS  H18Z19745   4.087   1.393   6.073 -2.1597 -0.9109  0.0892
  174SAPS     N19746   6.578   5.347   3.615 -0.2226  0.0548 -0.5173
  174SAPS   HN119747   6.578   5.352   3.511 -0.7567 -0.4275 -0.5410
  174SAPS   HN219748   6.573   5.248   3.646 -0.6517  0.5398  1.0783
  174SAPS   HN319749   6.497   5.399   3.653 -1.7182 -1.4250 -1.5535
  174SAPS   C1219750   6.698   5.415   3.666 -0.2218  0.2363  0.2179
  174SAPS  H12A19751   6.770   5.337   3.648  0.4489  1.0952 -0.9926
  174SAPS   C1319752   6.731   5.543   3.591 -0.1194  0.3687  0.5847
  174SAPS  O13A19753   6.657   5.574   3.492 -0.4139  0.2613  0.5490
  174SAPS  O13B19754   6.851   5.585   3.602 -0.0756  0.2101  0.4415
  174SAPS   C1119755   6.700   5.440   3.817 -0.1294 -0.4758 -0.3451
  174SAPS  H11A19756   6.642   5.533   3.834  2.5417  1.1981  0.1669
  174SAPS  H11B19757   6.807   5.465   3.836 -0.1523 -1.0255  0.5625
  174SAPS     P19758   6.574   5.354   4.041 -0.0820 -0.0244  0.0440
  174SAPS   O1319759   6.576   5.497   4.068  0.3288 -0.3270 -0.1648
  174SAPS   O1419760   6.447   5.289   4.026  0.1015  0.3570  0.0404
  174SAPS   O1219761   6.664   5.328   3.901  0.6071 -0.4542 -0.0746
  174SAPS   O1119762   6.667   5.282   4.150 -0.0466 -0.2682 -0.6445
  174SAPS    C119763   6.635   5.286   4.292 -0.9513 -0.0558  0.0597
  174SAPS    HA19764   6.543   5.345   4.315 -1.2744 -0.7675  0.6568
  174SAPS    HB19765   6.620   5.182   4.327  2.9604 -0.5908  0.5481
  174SAPS    C219766   6.746   5.360   4.374 -0.6252 -0.4105 -0.4483
  174SAPS    HS19767   6.834   5.341   4.309  1.5824  0.2108  2.1981
  174SAPS   O2119768   6.756   5.296   4.504 -0.5982  0.4660 -0.3884
  174SAPS   C2119769   6.866   5.328   4.569 -0.1067 -0.2033  0.1970
  174SAPS   O2219770   6.967   5.381   4.521 -0.4948  0.0505 -0.4352
  174SAPS   C2219771   6.860   5.265   4.707  0.1900 -0.0373 -0.4913
  174SAPS   H2R19772   6.756   5.242   4.739  0.3718 -0.6413 -0.3226
  174SAPS   H2S19773   6.907   5.165   4.701 -0.1676 -0.4065  1.9750
  174SAPS    C319774   6.729   5.523   4.378  0.8519  0.7850 -0.0362
  174SAPS    HX19775   6.703   5.546   4.272  1.4082 -1.2910 -0.6765
  174SAPS    HY19776   6.820   5.577   4.411  3.0774 -2.1872 -0.9432
  174SAPS   O3119777   6.608   5.557   4.450  0.5399 -0.1218  0.3519
  174SAPS   C3119778   6.602   5.683   4.489 -0.3474  0.3374 -0.6542
  174SAPS   O3219779   6.692   5.764   4.472 -0.7372  0.4666 -0.2361
  174SAPS   C3219780   6.468   5.708   4.563 -0.6741 -0.7593 -0.6686
  174SAPS   H2X19781   6.435   5.614   4.612 -0.7629 -1.2696 -1.6924
  174SAPS   H2Y19782   6.402   5.724   4.475  0.9947 -1.1584 -2.0551
  174SAPS   C2319783   6.932   5.347   4.815 -0.4886 -0.2692 -0.1253
  174SAPS   H3R19784   7.041   5.350   4.792 -0.7835 -0.3124 -1.6029
  174SAPS   H3S19785   6.925   5.292   4.911 -0.9140  1.0413  0.6246
  174SAPS   C2419786   6.872   5.486   4.844 -0.2926  0.0463 -0.1530
  174SAPS   H4R19787   6.774   5.468   4.892 -0.4663 -3.4788 -1.5224
  174SAPS   H4S19788   6.844   5.546   4.754  1.3528  0.3496 -0.4947
  174SAPS   C2519789   6.968   5.564   4.928  0.5664 -0.0549 -0.0076
  174SAPS   H5R19790   7.048   5.617   4.875 -0.8003  2.1479  0.0046
  174SAPS   C2619791   6.965   5.580   5.066 -0.5812  0.0192 -0.1318
  174SAPS   H6R19792   7.021   5.660   5.117  0.3182 -0.7982  0.2000
  174SAPS   C2719793   6.866   5.519   5.166  0.2402 -0.6489 -0.0157
  174SAPS   H7R19794   6.918   5.500   5.262 -0.0500 -1.2461  0.0325
  174SAPS   H7S19795   6.830   5.418   5.136 -1.6947 -1.2409  3.7064
  174SAPS   C2819796   6.754   5.613   5.208 -0.4101 -0.1577  0.3697
  174SAPS   H8R19797   6.667   5.611   5.142 -0.1188  0.0159 -0.0204
  174SAPS   C2919798   6.733   5.688   5.316  0.2362  0.1417  0.7624
  174SAPS   H9R19799   6.633   5.730   5.335 -0.0744 -0.8190  1.2994
  174SAPS  C21019800   6.841   5.717   5.421  0.0396  0.4288  0.1229
  174SAPS  H10R19801   6.846   5.825   5.445 -0.2233  0.1096  1.6901
  174SAPS  H10S19802   6.944   5.705   5.380  0.5188  1.5588  0.9402
  174SAPS  C21119803   6.830   5.639   5.550 -1.0246 -0.6245 -0.2635
  174SAPS  H11R19804   6.887   5.545   5.542  1.2189  0.8076 -2.7541
  174SAPS  C21219805   6.751   5.659   5.659 -0.1052  0.0138  0.0934
  174SAPS  H12R19806   6.750   5.582   5.738  1.6823  0.5525  0.6842
  174SAPS  C21319807   6.665   5.777   5.682  0.3690 -0.0081 -0.1574
  174SAPS  H13R19808   6.565   5.729   5.680  0.8225 -0.9833 -0.3255
  174SAPS  H13S19809   6.660   5.842   5.592  1.5753  1.1116  0.5488
  174SAPS  C21419810   6.700   5.861   5.800  0.4680 -0.1351  0.7428
  174SAPS  H14R19811   6.795   5.837   5.850 -0.8690 -4.5645  1.5997
  174SAPS  C21519812   6.621   5.962   5.845 -0.1325 -0.2627 -0.6313
  174SAPS  H15R19813   6.643   6.010   5.942 -2.6202  0.2819 -0.2613
  174SAPS  C21619814   6.484   5.995   5.782 -0.3936  0.0761 -0.2231
  174SAPS  H16R19815   6.409   5.935   5.838  1.4842 -2.2189  0.0198
  174SAPS  H16S19816   6.470   5.962   5.677 -0.3758  0.4149 -0.3315
  174SAPS  C21719817   6.445   6.150   5.787  0.7550  0.2874  0.3737
  174SAPS  H17R19818   6.496   6.194   5.698  3.5960 -1.1118  1.1949
  174SAPS  H17S19819   6.481   6.191   5.884  0.1106  1.9664 -0.0586
  174SAPS  C21819820   6.289   6.169   5.783 -0.6042 -0.2380  0.2578
  174SAPS  H18R19821   6.236   6.112   5.863  1.0759  1.4240  2.7284
  174SAPS  H18S19822   6.263   6.134   5.681  1.8825 -0.7092 -0.2616
  174SAPS  C21919823   6.255   6.316   5.800 -0.6805 -0.4136 -0.7993
  174SAPS  H19R19824   6.304   6.373   5.718 -0.1312 -0.3348 -0.4201
  174SAPS  H19S19825   6.296   6.359   5.894 -0.0092 -1.3447 -0.6461
  174SAPS  C22019826   6.105   6.346   5.791 -0.2549 -0.3490  0.0543
  174SAPS  H20R19827   6.038   6.302   5.867  0.4924 -0.8626  0.4294
  174SAPS  H20S19828   6.067   6.308   5.694  1.5026 -0.6140 -0.5739
  174SAPS  H20T19829   6.092   6.457   5.793 -0.0741 -0.3258  2.1205
  174SAPS   C3319830   6.472   5.832   4.656 -0.3930  0.7799 -0.9151
  174SAPS   H3X19831   6.376   5.887   4.660 -1.1359 -0.4674 -1.2362
  174SAPS   H3Y19832   6.548   5.906   4.622 -1.3593  2.6604  0.8126
  174SAPS   C3419833   6.514   5.784   4.793  0.4333  0.3431  0.6219
  174SAPS   H4X19834   6.556   5.869   4.851  0.4569 -0.8337  2.3991
  174SAPS   H4Y19835   6.588   5.702   4.797 -0.2836 -0.6326 -2.8031
  174SAPS   C3519836   6.404   5.729   4.879  0.8004  0.6359  0.0300
  174SAPS   H5X19837   6.381   5.623   4.855 -1.3478  1.2026 -0.6631
  174SAPS   H5Y19838   6.308   5.784   4.866  0.7724  1.0468  1.6964
  174SAPS   C3619839   6.430   5.748   5.024  0.0966  0.1420 -0.3539
  174SAPS   H6X19840   6.470   5.847   5.052 -0.2817  0.2556 -0.2090
  174SAPS   H6Y19841   6.501   5.669   5.056  1.5440  0.4314 -2.6213
  174SAPS   C3719842   6.310   5.720   5.122  0.0591  0.7504  0.1261
  174SAPS   H7X19843   6.271   5.616   5.117  0.0079  0.8130 -1.6289
  174SAPS   H7Y19844   6.226   5.783   5.082 -2.0404 -1.0091  1.5339
  174SAPS   C3819845   6.347   5.758   5.265 -0.1557 -0.3818  0.5538
  174SAPS   H8X19846   6.342   5.868   5.283  1.2784 -0.2791  0.4001
  174SAPS   H8Y19847   6.448   5.720   5.291  0.9898  0.7580 -1.8733
  174SAPS   C3919848   6.258   5.686   5.375  0.8509 -0.2703  0.8096
  174SAPS   H9X19849   6.159   5.732   5.358  1.4903  0.4882 -1.2349
  174SAPS   H9Y19850   6.296   5.729   5.470  1.9350  0.9749 -0.1549
  174SAPS  C31019851   6.272   5.534   5.388 -0.1652  1.6744  0.8389
  174SAPS  H10X19852   6.380   5.511   5.402 -0.0190  0.9328 -1.2371
  174SAPS  H10Y19853   6.251   5.467   5.302 -0.6448  1.7026  0.9324
  174SAPS  C31119854   6.193   5.474   5.507 -0.7635 -0.2459 -0.7018
  174SAPS  H11X19855   6.202   5.365   5.491 -2.6566 -0.5282 -0.0903
  174SAPS  H11Y19856   6.083   5.491   5.497 -1.1914 -3.0118 -1.4215
  174SAPS  C31219857   6.253   5.514   5.644 -0.0854  0.6468 -0.6984
  174SAPS  H12X19858   6.177   5.497   5.723  0.8088  0.0842  0.0578
  174SAPS  H12Y19859   6.272   5.624   5.638 -0.7875  0.7946 -0.3325
  174SAPS  C31319860   6.390   5.448   5.671  0.3548 -0.8448  0.2032
  174SAPS  H13X19861   6.464   5.481   5.596  1.9359  0.4317  2.2154
  174SAPS  H13Y19862   6.394   5.338   5.661  2.3190 -0.8706  0.9346
  174SAPS  C31419863   6.446   5.493   5.803  0.5071  0.4271 -0.1340
  174SAPS  H14X19864   6.479   5.599   5.817  0.9586  0.3214 -0.3704
  174SAPS  H14Y19865   6.548   5.450   5.812 -0.0989 -0.8275  1.1251
  174SAPS  C31519866   6.359   5.438   5.916  1.2505 -0.3439 -0.8165
  174SAPS  H15X19867   6.330   5.330   5.910 -2.1724  0.3158  1.2230
  174SAPS  H15Y19868   6.258   5.482   5.907  0.6299 -1.0877  1.6726
  174SAPS  C31619869   6.407   5.466   6.058 -0.3479  0.7120  0.3362
  174SAPS  H16X19870   6.518   5.458   6.060 -0.3022  1.1322 -0.3364
  174SAPS  H16Y19871   6.344   5.394   6.116 -0.5488 -1.1320 -1.9982
  174SAPS  C31719872   6.369   5.612   6.102  0.0655  0.6269  0.3878
  174SAPS  H17X19873   6.393   5.685   6.022  0.0087  1.9620  1.5574
  174SAPS  H17Y19874   6.430   5.642   6.190 -0.0436 -0.0252  0.6962
  174SAPS  C31819875   6.220   5.633   6.137  0.0204 -0.2833  0.4554
  174SAPS  H18X19876   6.180   5.570   6.219 -0.5319  0.5827  0.8743
  174SAPS  H18Y19877   6.149   5.636   6.052  0.1862  0.2334  0.3334
  174SAPS  H18Z19878   6.219   5.733   6.186 -2.6323 -0.5295  1.0745
  175SAPS     N19879   4.004   4.772   3.722  0.2376 -0.3136 -0.1740
  175SAPS   HN119880   4.100   4.734   3.710  0.3944  0.5858 -2.2286
  175SAPS   HN219881   3.966   4.729   3.809  0.6348  0.0567  0.1877
  175SAPS   HN319882   3.947   4.737   3.642  0.1087 -0.1747 -0.1428
  175SAPS   C1219883   4.014   4.912   3.722 -0.0972  0.4669 -0.0304
  175SAPS  H12A19884   4.040   4.929   3.618 -0.3787 -0.7647 -0.3210
  175SAPS   C1319885   3.894   5.002   3.748  0.1631  0.3441 -0.4884
  175SAPS  O13A19886   3.774   4.957   3.736 -0.7370 -0.4574 -0.5881
  175SAPS  O13B19887   3.924   5.129   3.734 -0.1211 -0.0545 -0.4954
  175SAPS   C1119888   4.134   4.960   3.817 -0.4346 -0.1782 -0.1200
  175SAPS  H11A19889   4.094   4.952   3.921 -1.3448  0.1268 -0.4432
  175SAPS  H11B19890   4.159   5.063   3.786 -0.0002 -0.4828 -0.8139
  175SAPS     P19891   4.386   4.905   3.874  0.4174 -0.3519 -0.2643
  175SAPS   O1319892   4.438   4.776   3.917  0.4555  0.4990 -0.2674
  175SAPS   O1419893   4.471   4.981   3.779  0.1463 -0.4079  0.0302
  175SAPS   O1219894   4.247   4.872   3.804  0.0064 -0.1447 -0.4242
  175SAPS   O1119895   4.337   4.991   3.994  0.2233  0.3530 -0.3670
  175SAPS    C119896   4.399   5.101   4.057  1.1040  0.2320  0.3084
  175SAPS    HA19897   4.509   5.098   4.042  1.0845 -1.3816  0.2897
  175SAPS    HB19898   4.364   5.189   3.998 -0.3899 -0.7306 -0.2930
  175SAPS    C219899   4.350   5.131   4.202 -1.3611 -0.9235  0.5402
  175SAPS    HS19900   4.383   5.236   4.221 -0.2695 -1.5365  2.3409
  175SAPS   O2119901   4.398   5.041   4.311 -0.0049  0.0599  0.1559
  175SAPS   C2119902   4.520   5.094   4.352  0.0470  0.3993  0.5872
  175SAPS   O2219903   4.579   5.177   4.290 -0.6871 -0.3205 -0.1375
  175SAPS   C2219904   4.562   5.016   4.468 -0.2847  0.6697 -1.2568
  175SAPS   H2R19905   4.524   5.060   4.564  0.2243 -0.8449 -0.3282
  175SAPS   H2S19906   4.507   4.920   4.457  1.9317 -0.7948 -0.2825
  175SAPS    C319907   4.200   5.128   4.213 -0.1806  0.1695 -0.2745
  175SAPS    HX19908   4.169   5.026   4.181  1.5813  0.0637 -1.8231
  175SAPS    HY19909   4.164   5.191   4.128 -1.8858 -0.1098  0.2033
  175SAPS   O3119910   4.152   5.164   4.343  0.1731 -0.1655 -0.2949
  175SAPS   C3119911   4.097   5.071   4.413  0.5119 -0.1173  0.2137
  175SAPS   O3219912   4.068   4.956   4.383 -0.4089  0.2982 -0.1379
  175SAPS   C3219913   4.053   5.121   4.551 -0.1795 -0.2729  1.0345
  175SAPS   H2X19914   4.010   5.222   4.537  1.8192  0.6178  0.8766
  175SAPS   H2Y19915   4.149   5.123   4.608  1.0471  0.2855 -0.9251
  175SAPS   C2319916   4.703   4.966   4.477 -0.1583  0.7886  0.4001
  175SAPS   H3R19917   4.786   5.040   4.472  1.2121 -0.7703 -2.4034
  175SAPS   H3S19918   4.721   4.907   4.384 -2.0945 -2.2171  1.7723
  175SAPS   C2419919   4.731   4.878   4.597  0.1010 -0.5432  0.1508
  175SAPS   H4R19920   4.834   4.838   4.597 -0.3769 -1.9806  2.0796
  175SAPS   H4S19921   4.653   4.800   4.581 -0.8548  0.4863 -0.3365
  175SAPS   C2519922   4.715   4.960   4.727  0.0253 -0.9899 -0.0877
  175SAPS   H5R19923   4.775   5.052   4.731  1.4314 -1.9007  2.4893
  175SAPS   C2619924   4.634   4.940   4.831 -0.1261 -0.4348 -0.4197
  175SAPS   H6R19925   4.648   5.007   4.916  2.3719 -2.6958  1.1115
  175SAPS   C2719926   4.537   4.827   4.863  0.3288 -0.5453  0.5749
  175SAPS   H7R19927   4.507   4.833   4.970  3.1919  0.8091  1.4016
  175SAPS   H7S19928   4.599   4.735   4.855  0.8265 -0.1513 -0.2523
  175SAPS   C2819929   4.417   4.796   4.768  0.0299  0.6231 -0.2460
  175SAPS   H8R19930   4.430   4.823   4.662  2.3203  0.5412 -0.0444
  175SAPS   C2919931   4.294   4.766   4.810  0.0708 -0.3694  0.4295
  175SAPS   H9R19932   4.215   4.755   4.735 -1.1444 -0.6196  1.7049
  175SAPS  C21019933   4.257   4.750   4.955 -0.9614  0.2580 -0.6669
  175SAPS  H10R19934   4.262   4.846   5.011 -1.1887 -0.0897 -0.0451
  175SAPS  H10S19935   4.337   4.678   4.983 -0.5495  0.6396 -0.8393
  175SAPS  C21119936   4.121   4.692   4.969  0.9444 -0.1319  0.8043
  175SAPS  H11R19937   4.044   4.750   4.917  1.0984 -1.1167 -0.5763
  175SAPS  C21219938   4.071   4.577   5.028 -0.0256  0.1679  0.2117
  175SAPS  H12R19939   3.964   4.558   5.017  0.3062 -1.0161 -1.3856
  175SAPS  C21319940   4.140   4.466   5.103  0.6259 -0.4296 -0.1848
  175SAPS  H13R19941   4.060   4.397   5.139  0.0162  0.0556 -0.5811
  175SAPS  H13S19942   4.174   4.518   5.195 -5.0293  2.2566  0.8281
  175SAPS  C21419943   4.237   4.393   5.023 -0.9669 -0.2017 -0.5533
  175SAPS  H14R19944   4.289   4.454   4.948 -0.9556  0.9332  0.3486
  175SAPS  C21519945   4.255   4.262   5.009  0.0717 -0.3452  0.0182
  175SAPS  H15R19946   4.338   4.225   4.947  0.6681 -1.4547  1.4345
  175SAPS  C21619947   4.187   4.152   5.080  0.6149 -0.6061  0.2654
  175SAPS  H16R19948   4.214   4.063   5.019 -0.1430 -0.9907  0.4739
  175SAPS  H16S19949   4.076   4.162   5.075  0.7396  2.4370  1.2318
  175SAPS  C21719950   4.215   4.136   5.229 -0.6339 -0.4811 -0.5850
  175SAPS  H17R19951   4.140   4.079   5.289  2.2686 -2.9964  0.9461
  175SAPS  H17S19952   4.208   4.238   5.273  0.2741 -0.0110 -1.4900
  175SAPS  C21819953   4.350   4.070   5.256  0.1027  0.0967 -0.2516
  175SAPS  H18R19954   4.438   4.136   5.240  2.1484 -2.0285  1.4431
  175SAPS  H18S19955   4.357   3.983   5.187 -1.1892 -0.8798  0.8057
  175SAPS  C21919956   4.365   4.024   5.402 -0.1931  0.4929 -0.8473
  175SAPS  H19R19957   4.278   3.963   5.434 -1.9485  2.2405 -2.0477
  175SAPS  H19S19958   4.370   4.119   5.460 -1.9809 -0.1384  0.4231
  175SAPS  C22019959   4.498   3.957   5.435  0.2249  0.3262  0.3493
  175SAPS  H20R19960   4.491   3.940   5.545 -1.7107  2.2114  0.5887
  175SAPS  H20S19961   4.588   4.015   5.406  2.1227 -1.6302  2.0179
  175SAPS  H20T19962   4.505   3.858   5.386 -1.4356 -0.2133  1.1340
  175SAPS   C3319963   3.963   5.014   4.619 -0.2222  0.2956 -0.0042
  175SAPS   H3X19964   3.945   5.040   4.725 -3.2296  0.0584 -0.3691
  175SAPS   H3Y19965   4.017   4.917   4.610 -1.9173 -0.5470 -2.1583
  175SAPS   C3419966   3.818   5.006   4.569  0.0566 -0.2408  0.4957
  175SAPS   H4X19967   3.814   5.005   4.458 -1.6403  0.8091  0.5265
  175SAPS   H4Y19968   3.757   5.094   4.598 -1.0137  0.4035 -3.2111
  175SAPS   C3519969   3.759   4.869   4.613  0.2640 -0.0077 -0.3852
  175SAPS   H5X19970   3.827   4.790   4.576  0.6942  0.7352 -1.2075
  175SAPS   H5Y19971   3.659   4.854   4.566 -1.1818 -1.8224  2.9167
  175SAPS   C3619972   3.742   4.860   4.764 -0.9897  0.8656 -0.5057
  175SAPS   H6X19973   3.701   4.958   4.799  1.6458  2.1493 -0.7974
  175SAPS   H6Y19974   3.842   4.850   4.811 -1.1236  1.7165 -0.0093
  175SAPS   C3719975   3.654   4.747   4.809 -0.4009 -0.3653  0.1106
  175SAPS   H7X19976   3.685   4.650   4.764  0.9609  0.0954  0.0080
  175SAPS   H7Y19977   3.554   4.765   4.765 -0.3158  1.1239  0.4850
  175SAPS   C3819978   3.675   4.731   4.960 -0.9441  0.1900 -0.9992
  175SAPS   H8X19979   3.658   4.838   4.986 -0.5975  0.2664 -1.0839
  175SAPS   H8Y19980   3.783   4.721   4.982 -1.0023  0.1849 -0.7089
  175SAPS   C3919981   3.591   4.630   5.038 -0.3479 -0.4408  0.5731
  175SAPS   H9X19982   3.598   4.539   4.974  0.4659  1.6683 -2.6012
  175SAPS   H9Y19983   3.484   4.661   5.036  0.4837  2.7898 -0.4291
  175SAPS  C31019984   3.650   4.599   5.169  0.5064  0.1696  0.3613
  175SAPS  H10X19985   3.758   4.574   5.164  0.4715  0.1887 -1.1904
  175SAPS  H10Y19986   3.605   4.506   5.210  1.9257  0.1815  2.0541
  175SAPS  C31119987   3.616   4.710   5.271  1.1386 -0.1564  0.1986
  175SAPS  H11X19988   3.507   4.720   5.292  1.2022  1.6747 -0.1848
  175SAPS  H11Y19989   3.656   4.812   5.253 -0.3780  0.7904  1.9151
  175SAPS  C31219990   3.677   4.669   5.406 -0.1104 -0.9375 -0.2268
  175SAPS  H12X19991   3.639   4.568   5.431  0.3871 -0.8826  0.8422
  175SAPS  H12Y19992   3.640   4.740   5.484  0.0678  0.8940 -1.7509
  175SAPS  C31319993   3.831   4.674   5.403 -0.4339  0.2679  0.2449
  175SAPS  H13X19994   3.867   4.763   5.461 -0.3417 -0.0973  0.7513
  175SAPS  H13Y19995   3.877   4.677   5.302  1.4329  0.8751  1.0528
  175SAPS  C31419996   3.886   4.557   5.483 -0.3545  0.3483 -0.6253
  175SAPS  H14X19997   3.860   4.456   5.443 -1.4056 -0.2239  1.3421
  175SAPS  H14Y19998   3.827   4.556   5.577 -1.0168 -0.6006 -1.0327
  175SAPS  C31519999   4.041   4.570   5.516  0.6207  0.3221  0.1231
  175SAPS  H15X20000   4.043   4.652   5.591  0.9735 -0.4353  0.9642
  175SAPS  H15Y20001   4.109   4.603   5.434 -0.4252  2.4115  0.0213
  175SAPS  C31620002   4.105   4.451   5.584 -0.2969  0.1654 -0.6882
  175SAPS  H16X20003   4.121   4.370   5.510 -0.8017  0.8790 -1.5843
  175SAPS  H16Y20004   4.041   4.417   5.669  1.1831 -1.0270 -0.0109
  175SAPS  C31720005   4.245   4.486   5.649  0.6602 -0.0594 -0.4721
  175SAPS  H17X20006   4.223   4.555   5.733  1.7317 -2.0089  1.5191
  175SAPS  H17Y20007   4.312   4.543   5.581  0.0572  0.0612 -0.9690
  175SAPS  C31820008   4.311   4.356   5.708 -0.2449 -0.5514  0.6223
  175SAPS  H18X20009   4.344   4.288   5.626 -4.4708 -0.5831 -1.3220
  175SAPS  H18Y20010   4.229   4.307   5.765 -0.6863  1.3160  1.6752
  175SAPS  H18Z20011   4.395   4.370   5.779 -0.9530 -0.8052  1.5291
  176SAPS     N20012   5.814   3.390   3.590  0.1446  0.2081  0.2310
  176SAPS   HN120013   5.739   3.333   3.633 -0.1494  2.2913  2.6974
  176SAPS   HN220014   5.843   3.356   3.496  0.9741  0.0142  0.5504
  176SAPS   HN320015   5.899   3.383   3.649  1.2843 -0.7507 -1.4324
  176SAPS   C1220016   5.782   3.529   3.582  0.0606 -0.2987  0.0453
  176SAPS  H12A20017   5.876   3.581   3.587  0.1618 -0.6090  1.7322
  176SAPS   C1320018   5.712   3.572   3.453  0.4668 -0.2225 -0.4800
  176SAPS  O13A20019   5.679   3.485   3.369  0.4085 -0.5746 -0.0866
  176SAPS  O13B20020   5.663   3.690   3.445 -0.6619 -0.3295  0.1925
  176SAPS   C1120021   5.692   3.566   3.701 -0.0951  0.0005 -0.4416
  176SAPS  H11A20022   5.597   3.508   3.698 -0.1522  0.0941 -0.4701
  176SAPS  H11B20023   5.674   3.676   3.699  2.7117  0.5397 -0.3794
  176SAPS     P20024   5.672   3.546   3.959 -0.3046 -0.0434  0.1521
  176SAPS   O1320025   5.551   3.630   3.942 -0.3659 -0.2336  0.0284
  176SAPS   O1420026   5.642   3.417   4.019  0.0876  0.5045 -0.4844
  176SAPS   O1220027   5.753   3.522   3.824 -0.4397 -0.2211 -0.6501
  176SAPS   O1120028   5.776   3.631   4.042  0.4511 -0.2475  0.1047
  176SAPS    C120029   5.724   3.720   4.142  0.6430  0.0215  0.8396
  176SAPS    HA20030   5.769   3.821   4.136 -0.4458  0.5151  0.7601
  176SAPS    HB20031   5.615   3.741   4.148  0.8682  1.5747  0.1435
  176SAPS    C220032   5.775   3.677   4.285 -0.7203 -0.0109  0.1951
  176SAPS    HS20033   5.753   3.753   4.363  0.9822 -1.0445  1.7946
  176SAPS   O2120034   5.919   3.643   4.296 -0.3043 -0.0245  0.8642
  176SAPS   C2120035   5.994   3.756   4.317  0.2709  0.1451  0.7017
  176SAPS   O2220036   5.950   3.871   4.311  0.8308 -0.1499  0.3598
  176SAPS   C2220037   6.139   3.718   4.325  0.2896  0.5112 -0.0758
  176SAPS   H2R20038   6.153   3.609   4.310 -0.1640  0.4210  0.1537
  176SAPS   H2S20039   6.180   3.763   4.232  0.8929 -0.5772 -0.3554
  176SAPS    C320040   5.699   3.552   4.339 -0.7507  0.8297 -0.2967
  176SAPS    HX20041   5.736   3.459   4.291 -0.0646  0.7350  0.3928
  176SAPS    HY20042   5.593   3.574   4.313 -1.0272  2.2550  1.7777
  176SAPS   O3120043   5.706   3.538   4.480  0.6079 -0.0689 -0.3672
  176SAPS   C3120044   5.794   3.452   4.537 -0.1095 -0.1226  1.0853
  176SAPS   O3220045   5.881   3.390   4.475  0.1243 -0.0649 -0.2551
  176SAPS   C3220046   5.771   3.449   4.682  0.0417 -0.1872  0.2200
  176SAPS   H2X20047   5.671   3.489   4.707  0.6184  0.6256  1.2846
  176SAPS   H2Y20048   5.841   3.524   4.725  0.3702 -0.0658 -0.5070
  176SAPS   C2320049   6.211   3.777   4.449  0.5847  0.3022  0.2978
  176SAPS   H3R20050   6.179   3.882   4.461  1.1303  0.6515 -1.0785
  176SAPS   H3S20051   6.320   3.766   4.430  0.2395 -2.8865 -0.3769
  176SAPS   C2420052   6.181   3.698   4.575 -0.2805  0.5184  0.0956
  176SAPS   H4R20053   6.213   3.592   4.571  3.0384  1.4415 -2.6715
  176SAPS   H4S20054   6.073   3.717   4.594 -0.1953  3.3441 -1.6215
  176SAPS   C2520055   6.256   3.759   4.689  0.2825  0.0833 -0.2660
  176SAPS   H5R20056   6.347   3.817   4.668 -0.4839  1.6001  0.4861
  176SAPS   C2620057   6.222   3.737   4.818  0.3197  0.0622  0.0330
  176SAPS   H6R20058   6.288   3.792   4.888 -1.7088  1.5613  0.8708
  176SAPS   C2720059   6.108   3.652   4.879  0.4725  0.6573 -0.4498
  176SAPS   H7R20060   6.040   3.616   4.799  0.7899  0.7055 -0.7420
  176SAPS   H7S20061   6.042   3.711   4.946 -0.0876 -2.0668  1.5732
  176SAPS   C2820062   6.189   3.542   4.953 -0.3661 -0.1759  0.0814
  176SAPS   H8R20063   6.258   3.488   4.888  1.2291 -0.2648  1.7796
  176SAPS   C2920064   6.189   3.528   5.085 -0.3842 -0.0197  0.0978
  176SAPS   H9R20065   6.260   3.461   5.136 -0.2349 -0.8216 -1.1320
  176SAPS  C21020066   6.112   3.609   5.190 -0.1899  0.0621  0.0672
  176SAPS  H10R20067   6.048   3.543   5.252 -0.1038 -2.7088 -2.5375
  176SAPS  H10S20068   6.031   3.665   5.137 -0.5210 -0.1507  0.3423
  176SAPS  C21120069   6.210   3.699   5.274  0.6553  0.8994  0.0640
  176SAPS  H11R20070   6.285   3.636   5.325  0.4041 -0.0475 -0.7103
  176SAPS  C21220071   6.195   3.833   5.290 -0.4863  0.0841  0.3348
  176SAPS  H12R20072   6.269   3.877   5.358 -0.4573 -0.5917  0.7580
  176SAPS  C21320073   6.087   3.920   5.230 -0.4988 -0.4270  0.1332
  176SAPS  H13R20074   6.015   3.870   5.162 -1.2801  0.4850  0.2667
  176SAPS  H13S20075   6.140   3.978   5.152  0.0621 -1.7021 -0.4492
  176SAPS  C21420076   6.016   4.020   5.315  0.1224 -0.6782  0.2822
  176SAPS  H14R20077   6.062   4.120   5.306 -0.2420 -0.6586 -1.5491
  176SAPS  C21520078   5.937   3.996   5.418  0.2735  0.1141 -0.4238
  176SAPS  H15R20079   5.892   4.074   5.481 -0.3378  0.5098 -1.3321
  176SAPS  C21620080   5.890   3.853   5.443  0.2501  0.3501  0.1172
  176SAPS  H16R20081   5.945   3.815   5.532  0.9692  1.4146  0.1453
  176SAPS  H16S20082   5.902   3.779   5.361 -0.5808 -1.1607  1.2998
  176SAPS  C21720083   5.733   3.852   5.479 -0.2955 -0.5440  0.2012
  176SAPS  H17R20084   5.688   3.916   5.400  1.9391 -0.0386 -0.7215
  176SAPS  H17S20085   5.725   3.894   5.581 -0.4845  0.3971 -0.1897
  176SAPS  C21820086   5.679   3.707   5.463  0.6357  0.1695 -0.5995
  176SAPS  H18R20087   5.713   3.645   5.549 -2.6366 -1.2160 -0.1807
  176SAPS  H18S20088   5.718   3.671   5.365  0.5539 -3.8677  0.6665
  176SAPS  C21920089   5.530   3.691   5.464  0.4525 -0.4632  0.2494
  176SAPS  H19R20090   5.493   3.759   5.385 -0.8383  1.0810  2.0787
  176SAPS  H19S20091   5.486   3.751   5.547 -0.2281  0.0888 -0.5019
  176SAPS  C22020092   5.473   3.555   5.446  0.7153  0.7552  0.4408
  176SAPS  H20R20093   5.368   3.558   5.482  0.2769 -4.5526  0.2945
  176SAPS  H20S20094   5.530   3.477   5.500 -3.7942 -2.5018  1.0957
  176SAPS  H20T20095   5.479   3.531   5.338  2.1241  0.8042  0.4939
  176SAPS   C3320096   5.793   3.305   4.732 -0.2061 -0.1357  0.2881
  176SAPS   H3X20097   5.896   3.272   4.708  0.5609  1.7132  0.8911
  176SAPS   H3Y20098   5.722   3.233   4.685 -0.8034  0.0255  0.9353
  176SAPS   C3420099   5.784   3.319   4.886  0.2232  0.3666 -0.1425
  176SAPS   H4X20100   5.698   3.384   4.913  0.6497  0.3321  1.4193
  176SAPS   H4Y20101   5.875   3.366   4.929  1.0494 -0.9862 -0.3604
  176SAPS   C3520102   5.751   3.181   4.956  0.2341 -0.5334  0.1082
  176SAPS   H5X20103   5.833   3.106   4.943 -1.3019 -2.1073 -1.0424
  176SAPS   H5Y20104   5.669   3.134   4.897  0.2749 -2.3951  1.4380
  176SAPS   C3620105   5.691   3.198   5.099 -0.0503 -0.5265  0.7580
  176SAPS   H6X20106   5.610   3.268   5.069  0.5497  0.6989  1.9157
  176SAPS   H6Y20107   5.760   3.263   5.157 -0.1105 -0.9167  1.2751
  176SAPS   C3720108   5.638   3.083   5.180  0.2957  0.4870 -0.3329
  176SAPS   H7X20109   5.718   3.022   5.227 -0.5529 -2.1182 -2.0739
  176SAPS   H7Y20110   5.589   3.005   5.117  0.1747  0.2643  0.0386
  176SAPS   C3820111   5.538   3.133   5.289  0.0586  0.0476 -0.0899
  176SAPS   H8X20112   5.439   3.133   5.238 -0.0576  0.1780  0.1324
  176SAPS   H8Y20113   5.556   3.237   5.326 -5.8922  1.4676 -0.1335
  176SAPS   C3920114   5.533   3.024   5.405 -0.4723 -0.5076  0.6055
  176SAPS   H9X20115   5.594   2.937   5.373 -0.5542 -0.7809  1.1725
  176SAPS   H9Y20116   5.426   2.995   5.410 -0.8964  0.8218 -0.1874
  176SAPS  C31020117   5.581   3.084   5.536  0.1844  0.5749 -0.4436
  176SAPS  H10X20118   5.531   3.182   5.547 -1.5820 -0.4098  0.8626
  176SAPS  H10Y20119   5.692   3.090   5.536  0.4074 -1.9990  0.7927
  176SAPS  C31120120   5.543   2.992   5.659 -1.1424  0.9185  0.6225
  176SAPS  H11X20121   5.591   3.029   5.752  0.6122 -1.2997  0.6921
  176SAPS  H11Y20122   5.584   2.890   5.645 -0.8828  1.0780  0.1830
  176SAPS  C31220123   5.385   2.987   5.698 -0.2802 -0.3736 -0.0884
  176SAPS  H12X20124   5.378   2.931   5.794 -0.7397  0.0761  0.1483
  176SAPS  H12Y20125   5.333   2.926   5.621 -0.8121  1.9690 -1.6998
  176SAPS  C31320126   5.312   3.126   5.715  0.3401 -0.4206  0.7871
  176SAPS  H13X20127   5.207   3.099   5.736 -0.7716  1.1444 -2.1280
  176SAPS  H13Y20128   5.308   3.171   5.613 -1.7360 -0.6983  0.7098
  176SAPS  C31420129   5.362   3.231   5.813 -0.0650  0.2573 -0.3437
  176SAPS  H14X20130   5.469   3.247   5.788 -0.3641  1.2017 -1.0856
  176SAPS  H14Y20131   5.353   3.198   5.918  0.6397 -1.0039 -0.6592
  176SAPS  C31520132   5.283   3.364   5.781  0.1409  0.3463  0.1474
  176SAPS  H15X20133   5.184   3.331   5.820  1.0108 -2.5406  0.1716
  176SAPS  H15Y20134   5.280   3.386   5.672  0.4718 -0.0476  0.0559
  176SAPS  C31620135   5.338   3.479   5.856 -0.3913  0.2383 -0.9088
  176SAPS  H16X20136   5.445   3.503   5.836 -0.0346 -1.4747 -1.1900
  176SAPS  H16Y20137   5.343   3.461   5.966  2.5349  1.2795 -0.7673
  176SAPS  C31720138   5.250   3.599   5.829  0.1964  0.3550 -0.2328
  176SAPS  H17X20139   5.142   3.597   5.854 -0.3721 -1.8319 -2.4678
  176SAPS  H17Y20140   5.260   3.621   5.721  3.1226 -1.9414 -0.5403
  176SAPS  C31820141   5.304   3.717   5.905 -0.4615 -0.3413 -0.3633
  176SAPS  H18X20142   5.395   3.754   5.855  1.4040 -1.3255  2.1023
  176SAPS  H18Y20143   5.351   3.707   6.005  0.4543  0.6645 -0.6767
  176SAPS  H18Z20144   5.223   3.793   5.911 -1.6602 -1.6347  0.6459
  177SAPS     N20145   6.207   5.362   3.935  0.4093 -0.8248  0.2629
  177SAPS   HN120146   6.166   5.307   3.857 -0.7337  2.2392 -1.4696
  177SAPS   HN220147   6.295   5.320   3.971  0.2096 -0.6618  0.9614
  177SAPS   HN320148   6.140   5.369   4.014 -1.9389  1.2647 -1.7112
  177SAPS   C1220149   6.218   5.511   3.885  0.2220  0.0002  0.0341
  177SAPS  H12A20150   6.286   5.557   3.955  0.8075 -2.4143  1.1732
  177SAPS   C1320151   6.281   5.528   3.746 -0.5084  0.1562 -0.6846
  177SAPS  O13A20152   6.326   5.427   3.683  0.2815  0.7798 -0.1639
  177SAPS  O13B20153   6.269   5.641   3.691  0.0179  0.5225 -0.2200
  177SAPS   C1120154   6.080   5.576   3.881  0.6321  0.8350  0.3425
  177SAPS  H11A20155   6.023   5.534   3.796  0.3831  0.6921  0.5778
  177SAPS  H11B20156   6.082   5.684   3.854 -2.6590  0.4552 -2.0294
  177SAPS     P20157   5.910   5.663   4.062  0.3495  0.0425  0.1695
  177SAPS   O1320158   5.822   5.730   3.957  0.4157 -0.0404 -0.1825
  177SAPS   O1420159   5.832   5.613   4.181 -0.0169  0.4193  0.2709
  177SAPS   O1220160   5.994   5.548   3.994 -0.0694 -0.3311 -0.0298
  177SAPS   O1120161   6.021   5.770   4.106 -0.7087  0.0010 -0.1389
  177SAPS    C120162   6.144   5.742   4.176  0.6912  0.4552 -0.1634
  177SAPS    HA20163   6.130   5.655   4.244  2.3454  0.6615  0.4949
  177SAPS    HB20164   6.218   5.706   4.102  0.4773  0.3002 -0.3021
  177SAPS    C220165   6.188   5.865   4.260 -0.5721 -0.5142 -0.5279
  177SAPS    HS20166   6.272   5.837   4.327 -1.1311 -2.3822 -0.5550
  177SAPS   O2120167   6.084   5.919   4.336  0.0560 -0.3518 -0.5735
  177SAPS   C2120168   6.042   5.835   4.430 -0.6640  0.2113 -1.2052
  177SAPS   O2220169   6.102   5.736   4.470 -0.6458 -0.0350  0.3018
  177SAPS   C2220170   5.907   5.888   4.478 -0.5154  0.0680 -0.4545
  177SAPS   H2R20171   5.849   5.929   4.392  2.7906 -2.3164 -4.1616
  177SAPS   H2S20172   5.838   5.805   4.507 -3.6340  2.7978  0.6655
  177SAPS    C320173   6.244   5.980   4.157  1.1440  0.2353  0.3199
  177SAPS    HX20174   6.166   5.993   4.079  0.2377  1.3564  1.3757
  177SAPS    HY20175   6.325   5.940   4.092 -0.3392 -1.8036 -0.4074
  177SAPS   O3120176   6.267   6.104   4.221  0.2615 -0.0794  0.1324
  177SAPS   C3120177   6.175   6.196   4.215  0.1077  0.2708 -0.2489
  177SAPS   O3220178   6.068   6.186   4.158 -0.6020 -0.0745  0.5054
  177SAPS   C3220179   6.208   6.308   4.314 -0.5011 -0.6695 -0.1940
  177SAPS   H2X20180   6.113   6.360   4.338  0.3394  1.4382 -1.2368
  177SAPS   H2Y20181   6.282   6.368   4.257 -0.6998  0.8869  1.1008
  177SAPS   C2320182   5.916   5.987   4.600  0.7112  0.9063 -0.0119
  177SAPS   H3R20183   5.967   6.076   4.559  2.5585  0.2660  0.7546
  177SAPS   H3S20184   5.974   5.945   4.685 -1.8051 -0.1065  1.3190
  177SAPS   C2420185   5.770   6.022   4.639 -0.0851  0.0244 -0.2947
  177SAPS   H4R20186   5.708   5.933   4.666 -1.0666 -0.1527 -2.8652
  177SAPS   H4S20187   5.730   6.066   4.546  0.4455  0.8214 -0.1517
  177SAPS   C2520188   5.763   6.127   4.743 -1.0965 -0.1236  0.1198
  177SAPS   H5R20189   5.753   6.227   4.699  0.0855 -0.8890 -2.0567
  177SAPS   C2620190   5.780   6.102   4.881  0.6143 -0.2389  0.3399
  177SAPS   H6R20191   5.768   6.189   4.948  0.7931  0.5831 -0.6760
  177SAPS   C2720192   5.781   5.962   4.942 -0.3865 -0.2474  1.0678
  177SAPS   H7R20193   5.746   5.897   4.858 -0.1303  0.5406  0.3382
  177SAPS   H7S20194   5.697   5.956   5.014 -1.5729  0.3113 -0.2303
  177SAPS   C2820195   5.917   5.924   4.986  0.2471  0.2979 -0.0311
  177SAPS   H8R20196   5.978   5.858   4.922  2.2702 -0.9469  2.9255
  177SAPS   C2920197   5.961   5.932   5.113 -0.0380 -0.3517  0.1291
  177SAPS   H9R20198   6.066   5.903   5.120  0.5190  1.7440  1.2608
  177SAPS  C21020199   5.894   5.996   5.230 -0.6326 -0.1815 -0.0413
  177SAPS  H10R20200   5.853   5.919   5.299  0.7915  0.4583  1.6005
  177SAPS  H10S20201   5.806   6.058   5.203 -1.7964 -2.0523 -0.7267
  177SAPS  C21120202   5.988   6.086   5.314  0.1321  0.0390  0.0128
  177SAPS  H11R20203   6.027   6.172   5.256  1.5063 -0.8235 -0.3956
  177SAPS  C21220204   6.010   6.082   5.449  0.2750  0.2416 -0.0635
  177SAPS  H12R20205   6.081   6.154   5.492  2.1047 -0.9821 -0.9182
  177SAPS  C21320206   5.948   6.000   5.554  0.1714 -0.3785 -0.8393
  177SAPS  H13R20207   5.882   5.934   5.493  0.4232  0.9858 -2.6876
  177SAPS  H13S20208   5.890   6.062   5.625  1.9362  0.2477  0.0996
  177SAPS  C21420209   6.052   5.911   5.626 -1.3521 -0.1613  0.4803
  177SAPS  H14R20210   6.147   5.897   5.572 -1.8453  1.3493 -0.8729
  177SAPS  C21520211   6.032   5.870   5.755  1.3272  0.2558 -0.0448
  177SAPS  H15R20212   6.106   5.807   5.807 -0.4651 -1.3740  0.6612
  177SAPS  C21620213   5.910   5.899   5.833  0.3377  0.0522 -0.0459
  177SAPS  H16R20214   5.821   5.847   5.792  0.2464 -1.2765  1.7381
  177SAPS  H16S20215   5.893   6.009   5.836  0.8492  0.1159  2.2470
  177SAPS  C21720216   5.913   5.834   5.972 -0.7108  0.6022 -0.2170
  177SAPS  H17R20217   5.993   5.876   6.037 -1.6175 -0.7101  1.8892
  177SAPS  H17S20218   5.938   5.726   5.959  0.2765  0.7737  0.1662
  177SAPS  C21820219   5.780   5.836   6.043 -0.2546  0.6315 -0.0323
  177SAPS  H18R20220   5.703   5.772   5.994  1.5756 -2.7683  1.1602
  177SAPS  H18S20221   5.753   5.943   6.047 -0.0237  0.6846  0.0826
  177SAPS  C21920222   5.805   5.774   6.183  0.6970  1.0427 -0.6192
  177SAPS  H19R20223   5.872   5.841   6.241  3.2322 -2.6595  1.1444
  177SAPS  H19S20224   5.869   5.684   6.172 -0.1882  0.1441  1.1026
  177SAPS  C22020225   5.678   5.742   6.264  0.2438 -0.3926  0.8400
  177SAPS  H20R20226   5.615   5.668   6.211  1.7036 -2.4231  1.7848
  177SAPS  H20S20227   5.621   5.837   6.275 -0.4998 -0.6380 -0.6330
  177SAPS  H20T20228   5.709   5.703   6.364 -1.2514 -1.5865  0.8728
  177SAPS   C3320229   6.292   6.269   4.440  0.3294  0.8880 -0.4652
  177SAPS   H3X20230   6.337   6.359   4.487 -0.7590  0.9802  0.4591
  177SAPS   H3Y20231   6.379   6.205   4.415 -0.6772 -0.4433 -0.7049
  177SAPS   C3420232   6.208   6.211   4.555 -0.4399 -0.3593  0.0937
  177SAPS   H4X20233   6.159   6.122   4.508 -3.2169  0.9012  0.3686
  177SAPS   H4Y20234   6.127   6.283   4.581  0.2400  1.6247 -2.8253
  177SAPS   C3520235   6.281   6.191   4.683 -0.0578 -0.0942  0.0138
  177SAPS   H5X20236   6.310   6.281   4.742  0.9588 -1.2736  1.3862
  177SAPS   H5Y20237   6.380   6.145   4.662  0.5864  1.5571 -0.7693
  177SAPS   C3620238   6.207   6.097   4.782 -0.1735  0.3600 -0.2001
  177SAPS   H6X20239   6.177   6.003   4.730 -0.3894  0.8895 -1.0588
  177SAPS   H6Y20240   6.119   6.158   4.809  0.0145  0.2121  0.7970
  177SAPS   C3720241   6.291   6.064   4.902 -0.4748  0.1272 -0.3915
  177SAPS   H7X20242   6.397   6.052   4.874  0.3283  2.2229  1.4620
  177SAPS   H7Y20243   6.262   5.966   4.946  0.1035 -0.0022 -0.2961
  177SAPS   C3820244   6.286   6.161   5.023  0.7675 -0.0539 -0.6143
  177SAPS   H8X20245   6.185   6.154   5.069  0.5318  1.8621 -0.7827
  177SAPS   H8Y20246   6.290   6.265   4.986  0.3917  0.2184  0.0884
  177SAPS   C3920247   6.400   6.138   5.121 -0.4750  0.7189 -0.0700
  177SAPS   H9X20248   6.501   6.175   5.092  0.9880 -1.8552  1.3927
  177SAPS   H9Y20249   6.402   6.030   5.145  0.0864  0.2821 -1.8888
  177SAPS  C31020250   6.369   6.192   5.262  0.3297  0.3104  0.3970
  177SAPS  H10X20251   6.448   6.162   5.335 -0.1501 -0.8053  0.4776
  177SAPS  H10Y20252   6.283   6.129   5.292  0.7759 -0.2535  0.5253
  177SAPS  C31120253   6.339   6.336   5.273 -0.5334 -0.2010  0.1372
  177SAPS  H11X20254   6.251   6.356   5.208 -0.4598 -0.1543  0.0510
  177SAPS  H11Y20255   6.429   6.390   5.236 -0.2977  0.3178  1.4279
  177SAPS  C31220256   6.292   6.396   5.410  0.1081  0.5928 -0.2580
  177SAPS  H12X20257   6.365   6.369   5.490 -0.4732 -2.0950 -0.5520
  177SAPS  H12Y20258   6.209   6.333   5.449  0.2963  0.2681 -0.3753
  177SAPS  C31320259   6.251   6.547   5.405  1.0173  0.2878  0.2809
  177SAPS  H13X20260   6.337   6.607   5.367  0.3376  1.0224 -0.1487
  177SAPS  H13Y20261   6.243   6.592   5.506  0.5060 -0.4566  0.5780
  177SAPS  C31420262   6.120   6.576   5.325  0.1316 -0.3195 -0.4383
  177SAPS  H14X20263   6.135   6.536   5.222  0.1765 -0.0381 -0.5420
  177SAPS  H14Y20264   6.105   6.685   5.312  0.6012 -0.3899 -1.6627
  177SAPS  C31520265   5.996   6.513   5.391  0.2904 -0.0570 -0.3327
  177SAPS  H15X20266   6.008   6.519   5.501 -0.2148  1.0100 -0.3164
  177SAPS  H15Y20267   5.998   6.403   5.378  0.2328 -0.4092  2.2257
  177SAPS  C31620268   5.863   6.581   5.358 -0.0139 -0.0141  0.3472
  177SAPS  H16X20269   5.874   6.689   5.377  0.3056 -0.0829  0.5521
  177SAPS  H16Y20270   5.779   6.536   5.417  0.5920  0.6847  1.7877
  177SAPS  C31720271   5.835   6.549   5.210 -0.8443 -0.2469  0.3529
  177SAPS  H17X20272   5.852   6.441   5.193  0.7736  0.0178  0.0834
  177SAPS  H17Y20273   5.912   6.609   5.156 -2.3571  1.9042  0.4423
  177SAPS  C31820274   5.694   6.588   5.166  0.3934  0.0324 -0.4807
  177SAPS  H18X20275   5.667   6.561   5.062 -0.3407 -0.8761 -0.0601
  177SAPS  H18Y20276   5.668   6.695   5.184  1.2479  0.0840  0.5881
  177SAPS  H18Z20277   5.633   6.517   5.226 -1.8759  0.6765 -1.9206
  178SAPS     N20278   4.950   1.390   3.657 -0.1302 -0.2189  0.3191
  178SAPS   HN120279   4.998   1.343   3.737 -0.3744 -0.7731  0.1474
  178SAPS   HN220280   4.965   1.492   3.664  0.3909 -0.1868 -1.0712
  178SAPS   HN320281   4.850   1.365   3.673  0.5958 -3.3585  0.5845
  178SAPS   C1220282   5.018   1.335   3.535  0.0997 -0.2991 -0.6832
  178SAPS  H12A20283   5.013   1.227   3.528  0.6853 -0.3699 -0.0468
  178SAPS   C1320284   4.926   1.379   3.415 -0.4082 -0.3820 -0.4086
  178SAPS  O13A20285   4.818   1.438   3.437  0.7888 -0.0523  0.6293
  178SAPS  O13B20286   4.989   1.390   3.307 -0.3083 -0.2810  0.4914
  178SAPS   C1120287   5.158   1.387   3.519  0.9138 -0.5195 -0.9019
  178SAPS  H11A20288   5.153   1.495   3.493  1.3752 -0.2936 -0.0919
  178SAPS  H11B20289   5.209   1.337   3.435  1.9908 -1.1165  0.0763
  178SAPS     P20290   5.393   1.377   3.624 -0.2440  0.0250  0.1182
  178SAPS   O1320291   5.436   1.448   3.500 -0.9652 -0.2163  0.4110
  178SAPS   O1420292   5.449   1.425   3.751 -0.1400  0.3411  0.1673
  178SAPS   O1220293   5.236   1.374   3.638 -0.9409  1.3386  0.3470
  178SAPS   O1120294   5.438   1.225   3.612 -0.0239 -0.2528  0.8212
  178SAPS    C120295   5.363   1.127   3.687 -0.2859 -0.2301  0.3680
  178SAPS    HA20296   5.274   1.163   3.744  1.5870  0.8478  2.8025
  178SAPS    HB20297   5.328   1.053   3.613  2.0562 -0.6222 -0.4387
  178SAPS    C220298   5.448   1.055   3.800  0.1848 -0.9315 -0.5665
  178SAPS    HS20299   5.374   1.000   3.862  1.7283 -1.6740  0.6925
  178SAPS   O2120300   5.519   1.141   3.891 -0.4442 -0.3425  0.0602
  178SAPS   C2120301   5.456   1.213   3.972 -0.8062 -0.1312 -0.4936
  178SAPS   O2220302   5.347   1.196   4.013  0.5422 -0.1229 -0.1450
  178SAPS   C2220303   5.556   1.310   4.033 -0.1893  0.1512  0.2881
  178SAPS   H2R20304   5.658   1.268   4.023  0.0086  0.8650 -0.8706
  178SAPS   H2S20305   5.533   1.402   3.975  0.3620  1.1686  1.6354
  178SAPS    C320306   5.551   0.962   3.735 -0.1749 -0.9150 -0.0760
  178SAPS    HX20307   5.633   1.019   3.687 -2.3940  0.8980 -1.9815
  178SAPS    HY20308   5.503   0.910   3.649 -0.5430 -0.0684 -0.3912
  178SAPS   O3120309   5.590   0.864   3.833 -0.2667  0.3743  0.2394
  178SAPS   C3120310   5.703   0.897   3.902 -0.4266 -0.2610  0.1231
  178SAPS   O3220311   5.773   0.995   3.877  0.2963  0.4504  0.2157
  178SAPS   C3220312   5.714   0.804   4.018 -0.0968  0.1906 -0.1292
  178SAPS   H2X20313   5.823   0.793   4.037 -0.2638  0.6870  1.2148
  178SAPS   H2Y20314   5.661   0.713   3.982  1.0801 -0.5160 -0.1448
  178SAPS   C2320315   5.538   1.338   4.180 -0.3933  0.2990  0.5098
  178SAPS   H3R20316   5.531   1.242   4.236 -2.3511 -0.1938 -0.4899
  178SAPS   H3S20317   5.439   1.380   4.207 -0.9356 -1.6981  1.8760
  178SAPS   C2420318   5.648   1.436   4.224 -0.3258 -1.0228 -0.6091
  178SAPS   H4R20319   5.619   1.509   4.303  2.0401 -2.5946  1.8924
  178SAPS   H4S20320   5.681   1.491   4.133 -1.8089 -0.2431 -0.7058
  178SAPS   C2520321   5.764   1.351   4.267  0.3135  0.1443  0.1832
  178SAPS   H5R20322   5.826   1.308   4.188 -0.1396 -1.5308  0.6967
  178SAPS   C2620323   5.792   1.310   4.394 -1.2776 -0.5373  0.3620
  178SAPS   H6R20324   5.875   1.239   4.395  0.8736  1.5672 -3.8159
  178SAPS   C2720325   5.716   1.351   4.520  0.3898 -0.3769  0.1703
  178SAPS   H7R20326   5.668   1.256   4.549 -0.9460  0.9273  2.5284
  178SAPS   H7S20327   5.625   1.409   4.494  0.1733 -0.5879  0.4523
  178SAPS   C2820328   5.790   1.414   4.633  0.1286  0.1246 -0.0760
  178SAPS   H8R20329   5.873   1.483   4.614  1.5223 -1.2825  0.6849
  178SAPS   C2920330   5.763   1.388   4.763  0.0480  0.3522 -0.5965
  178SAPS   H9R20331   5.823   1.437   4.841  0.4139 -1.9841  0.6829
  178SAPS  C21020332   5.647   1.306   4.824 -0.2080 -0.1994  0.2977
  178SAPS  H10R20333   5.573   1.276   4.746  2.4101 -0.5638 -2.1904
  178SAPS  H10S20334   5.592   1.384   4.882 -0.3851  1.7918 -2.3396
  178SAPS  C21120335   5.680   1.179   4.892  0.3544  0.4883 -0.0193
  178SAPS  H11R20336   5.671   1.089   4.829  1.4970  1.0652 -1.0540
  178SAPS  C21220337   5.691   1.158   5.027 -0.2923  0.6001 -0.1788
  178SAPS  H12R20338   5.720   1.060   5.067 -1.8909  0.3013  0.3266
  178SAPS  C21320339   5.660   1.257   5.131 -0.3789 -0.1301 -0.5205
  178SAPS  H13R20340   5.636   1.196   5.221  1.4894  0.1281  0.2026
  178SAPS  H13S20341   5.570   1.316   5.102 -0.1341 -0.3374 -1.7543
  178SAPS  C21420342   5.784   1.342   5.162  0.5898  0.1508 -1.0414
  178SAPS  H14R20343   5.871   1.275   5.168 -0.8617 -1.8911 -1.6174
  178SAPS  C21520344   5.798   1.468   5.201  1.1193 -0.5710  0.0547
  178SAPS  H15R20345   5.895   1.502   5.241  1.0408 -1.6915  1.2854
  178SAPS  C21620346   5.687   1.575   5.215  0.8963  0.8166 -0.1538
  178SAPS  H16R20347   5.687   1.611   5.320 -0.0571 -2.5473  1.1519
  178SAPS  H16S20348   5.591   1.519   5.208  1.8916 -1.0179  0.2649
  178SAPS  C21720349   5.715   1.682   5.118  0.7390 -0.1030  0.4468
  178SAPS  H17R20350   5.626   1.748   5.108 -0.3375 -1.4448  0.8144
  178SAPS  H17S20351   5.732   1.633   5.020  1.6090 -0.6691  0.8778
  178SAPS  C21820352   5.830   1.778   5.147 -0.3136  0.0594  0.2762
  178SAPS  H18R20353   5.926   1.728   5.121 -0.6674  0.2390 -1.5295
  178SAPS  H18S20354   5.816   1.813   5.251  2.7583  0.5228  0.6025
  178SAPS  C21920355   5.818   1.912   5.072 -0.3905 -0.4333  0.2197
  178SAPS  H19R20356   5.881   1.988   5.121  1.8616 -0.2604 -2.6445
  178SAPS  H19S20357   5.711   1.940   5.061 -0.2296  0.1328  0.0790
  178SAPS  C22020358   5.882   1.907   4.930 -0.2281 -0.2510  0.3618
  178SAPS  H20R20359   5.849   1.997   4.873 -2.5568 -1.8208 -0.9322
  178SAPS  H20S20360   5.846   1.825   4.865 -0.3693 -0.5197  0.7803
  178SAPS  H20T20361   5.993   1.906   4.933  0.0370  0.9522 -3.6089
  178SAPS   C3320362   5.656   0.851   4.152  0.3479 -0.9299  0.2654
  178SAPS   H3X20363   5.653   0.767   4.224 -0.9912 -0.3933  0.8509
  178SAPS   H3Y20364   5.551   0.885   4.141  0.6757 -0.5672 -2.4802
  178SAPS   C3420365   5.724   0.974   4.216  0.0540  0.1014 -0.0349
  178SAPS   H4X20366   5.654   1.013   4.293 -2.4438 -1.0088 -1.6230
  178SAPS   H4Y20367   5.745   1.058   4.147  2.9896 -1.0546 -0.7133
  178SAPS   C3520368   5.861   0.940   4.276  0.2198 -0.2141  0.3231
  178SAPS   H5X20369   5.917   1.034   4.296 -0.0979  0.5973 -2.1740
  178SAPS   H5Y20370   5.914   0.896   4.189  0.8829  2.5831 -0.7903
  178SAPS   C3620371   5.861   0.863   4.409  0.6893 -0.0756  1.2549
  178SAPS   H6X20372   5.965   0.826   4.421  1.4970  0.3014 -2.9984
  178SAPS   H6Y20373   5.802   0.770   4.399  2.6325 -1.2083 -0.3696
  178SAPS   C3720374   5.791   0.933   4.528 -0.2806 -0.1059 -0.4523
  178SAPS   H7X20375   5.687   0.948   4.493  0.6588  0.3865 -3.2177
  178SAPS   H7Y20376   5.826   1.038   4.539 -1.7499  0.4880 -1.1866
  178SAPS   C3820377   5.819   0.864   4.660  0.3138 -0.4113  0.1190
  178SAPS   H8X20378   5.800   0.933   4.744  0.7725 -0.1090 -0.0255
  178SAPS   H8Y20379   5.924   0.831   4.673  0.1571  0.0875  3.5287
  178SAPS   C3920380   5.728   0.730   4.681 -0.1375 -0.4019 -0.0994
  178SAPS   H9X20381   5.741   0.667   4.590 -0.6283  2.4287 -2.2808
  178SAPS   H9Y20382   5.627   0.774   4.698  1.4415  2.7883  2.1812
  178SAPS  C31020383   5.767   0.657   4.810  0.0694  0.1852  0.1401
  178SAPS  H10X20384   5.869   0.615   4.797 -0.2840 -0.1766 -1.7551
  178SAPS  H10Y20385   5.696   0.572   4.824 -0.6834  0.7984  0.1271
  178SAPS  C31120386   5.753   0.747   4.936  0.7127  0.1009  0.0059
  178SAPS  H11X20387   5.647   0.776   4.946  0.7437  0.0335  0.5778
  178SAPS  H11Y20388   5.820   0.836   4.930 -0.5967  1.2846  1.8821
  178SAPS  C31220389   5.788   0.679   5.065  0.0397 -0.0304  0.2601
  178SAPS  H12X20390   5.891   0.639   5.070 -0.1473 -0.8265 -1.5080
  178SAPS  H12Y20391   5.716   0.596   5.082  0.7579 -0.6128  0.5096
  178SAPS  C31320392   5.774   0.777   5.176 -0.0581 -0.6059  0.5770
  178SAPS  H13X20393   5.669   0.811   5.184  0.6291  1.1462  3.4376
  178SAPS  H13Y20394   5.832   0.868   5.152  0.5084 -1.6488 -2.4295
  178SAPS  C31420395   5.809   0.712   5.303 -0.5867  0.4540 -0.4032
  178SAPS  H14X20396   5.919   0.702   5.315 -0.6276  0.7967  0.3098
  178SAPS  H14Y20397   5.768   0.608   5.302  1.3244 -0.3664  0.9629
  178SAPS  C31520398   5.760   0.798   5.425 -0.5713 -0.3152  0.3740
  178SAPS  H15X20399   5.654   0.824   5.405 -0.3947 -0.8009 -1.4008
  178SAPS  H15Y20400   5.825   0.888   5.437  1.5038 -1.8114  0.9418
  178SAPS  C31620401   5.764   0.723   5.554 -0.7969 -0.2216 -0.1476
  178SAPS  H16X20402   5.701   0.632   5.553  0.0717 -0.8566 -1.6341
  178SAPS  H16Y20403   5.726   0.793   5.631 -1.5955  0.8005 -1.4137
  178SAPS  C31720404   5.905   0.682   5.603  0.7635 -0.0161 -0.3292
  178SAPS  H17X20405   5.965   0.772   5.576 -0.5606  0.8614 -0.4412
  178SAPS  H17Y20406   5.939   0.585   5.562  2.5166  0.2828  0.3339
  178SAPS  C31820407   5.917   0.691   5.759  0.3364  0.1084 -0.3661
  178SAPS  H18X20408   5.917   0.800   5.780  0.5004  0.0694 -0.1623
  178SAPS  H18Y20409   6.019   0.652   5.781  0.1761  0.5503  1.3409
  178SAPS  H18Z20410   5.842   0.633   5.817  0.0065  1.4564  0.5856
  179SAPS     N20411   6.324   5.063   4.106  0.2564 -0.0622 -0.0765
  179SAPS   HN120412   6.371   5.019   4.188 -0.1187 -1.5272 -0.6249
  179SAPS   HN220413   6.379   5.132   4.051 -2.1704  2.2022  0.1278
  179SAPS   HN320414   6.240   5.114   4.141 -0.0265 -0.6092  0.0495
  179SAPS   C1220415   6.290   4.947   4.017  0.2546  0.3154  0.4906
  179SAPS  H12A20416   6.200   4.903   4.058 -0.3780  1.0886 -0.0453
  179SAPS   C1320417   6.270   4.981   3.872 -0.5164  0.4659 -0.4110
  179SAPS  O13A20418   6.245   5.104   3.846  0.3991  0.1341 -0.2867
  179SAPS  O13B20419   6.248   4.886   3.794  0.1817 -0.0898  0.4880
  179SAPS   C1120420   6.405   4.845   4.037  0.0046 -0.6670  0.3328
  179SAPS  H11A20421   6.369   4.760   3.975  0.3198  1.1711 -2.5243
  179SAPS  H11B20422   6.410   4.807   4.142 -2.9326 -0.0574  0.7691
  179SAPS     P20423   6.644   4.781   3.963 -0.0978 -0.0603 -0.4226
  179SAPS   O1320424   6.591   4.667   3.894  0.3215  0.6046 -0.1593
  179SAPS   O1420425   6.758   4.849   3.900 -0.4420  0.1494  0.4881
  179SAPS   O1220426   6.536   4.900   3.989  0.1508 -0.0407  0.0112
  179SAPS   O1120427   6.690   4.733   4.110  0.6750  0.1106  0.9147
  179SAPS    C120428   6.742   4.839   4.196  0.3683 -0.4641  0.9966
  179SAPS    HA20429   6.845   4.861   4.163 -0.4455  0.2978 -1.2550
  179SAPS    HB20430   6.675   4.927   4.183 -1.5400 -2.0055 -0.2891
  179SAPS    C220431   6.734   4.793   4.344  0.1601 -0.5305  0.4939
  179SAPS    HS20432   6.791   4.699   4.357  0.4669 -0.6636 -1.4147
  179SAPS   O2120433   6.598   4.775   4.398 -0.6702  0.0514  0.2173
  179SAPS   C2120434   6.540   4.658   4.369 -0.0023 -0.2706 -0.6935
  179SAPS   O2220435   6.595   4.561   4.329 -0.2129  0.4496 -0.4523
  179SAPS   C2220436   6.397   4.663   4.417  0.6247 -0.6724 -0.3595
  179SAPS   H2R20437   6.328   4.734   4.365 -0.6155  0.4849  2.5879
  179SAPS   H2S20438   6.352   4.563   4.404 -2.5991  0.5689  0.1800
  179SAPS    C320439   6.815   4.897   4.429  0.6467  0.0566 -0.5089
  179SAPS    HX20440   6.778   4.998   4.402 -1.4370  0.0994  2.0736
  179SAPS    HY20441   6.919   4.891   4.390  0.5633  1.9619 -1.1185
  179SAPS   O3120442   6.804   4.880   4.575  0.1621  0.1069  0.3819
  179SAPS   C3120443   6.683   4.907   4.629  0.4566 -0.1707 -0.7623
  179SAPS   O3220444   6.605   4.988   4.575 -0.4599 -0.2079 -0.1199
  179SAPS   C3220445   6.659   4.834   4.761 -0.8747  0.6622  0.1382
  179SAPS   H2X20446   6.661   4.724   4.745  0.2190  0.3314  2.2638
  179SAPS   H2Y20447   6.560   4.852   4.807  0.4159  1.6000  2.7311
  179SAPS   C2320448   6.387   4.693   4.570  0.4791 -0.0582  0.0333
  179SAPS   H3R20449   6.456   4.776   4.597  0.6449 -0.5761  1.2400
  179SAPS   H3S20450   6.413   4.608   4.636  0.3222 -1.4749 -1.6377
  179SAPS   C2420451   6.239   4.739   4.599  0.8491  0.4623  0.4553
  179SAPS   H4R20452   6.207   4.811   4.520  0.9888 -0.0061 -0.0380
  179SAPS   H4S20453   6.226   4.796   4.693  4.8681  0.1852  1.3207
  179SAPS   C2520454   6.138   4.628   4.591  0.0987 -0.2130  0.0684
  179SAPS   H5R20455   6.067   4.624   4.508 -1.5858 -2.1123  1.4708
  179SAPS   C2620456   6.129   4.520   4.677  0.4647 -0.0924 -0.1734
  179SAPS   H6R20457   6.052   4.442   4.665 -0.3551  0.6518  0.0489
  179SAPS   C2720458   6.210   4.490   4.802  0.1835  0.0111  0.2154
  179SAPS   H7R20459   6.315   4.483   4.768  0.3646  1.8229  0.3318
  179SAPS   H7S20460   6.187   4.386   4.833 -0.7779 -0.5504 -2.1405
  179SAPS   C2820461   6.210   4.588   4.913  0.4903 -0.3019 -0.2303
  179SAPS   H8R20462   6.162   4.678   4.872  1.2157 -0.1908 -0.8777
  179SAPS   C2920463   6.269   4.576   5.037 -0.8141  0.1488  0.3900
  179SAPS   H9R20464   6.253   4.659   5.107  0.3112  2.4045 -1.8780
  179SAPS  C21020465   6.334   4.443   5.084 -0.3013 -0.5443 -0.7396
  179SAPS  H10R20466   6.314   4.358   5.015 -0.6254 -1.5344  0.5513
  179SAPS  H10S20467   6.297   4.421   5.186 -5.3927  0.5280 -2.0902
  179SAPS  C21120468   6.487   4.476   5.076  0.2105 -0.8296 -0.3880
  179SAPS  H11R20469   6.515   4.486   4.970 -1.2007 -1.4165 -0.8436
  179SAPS  C21220470   6.577   4.458   5.174  0.2189 -0.1129 -0.3748
  179SAPS  H12R20471   6.678   4.485   5.139 -0.6246  0.0918 -2.8172
  179SAPS  C21320472   6.549   4.415   5.321  0.2135 -0.7518  0.2157
  179SAPS  H13R20473   6.543   4.304   5.325  0.5489 -0.8109 -0.5745
  179SAPS  H13S20474   6.444   4.429   5.354  0.4646 -0.4793  0.9145
  179SAPS  C21420475   6.659   4.450   5.423  0.3511 -0.6227  0.1558
  179SAPS  H14R20476   6.758   4.475   5.383  0.3277 -1.8377 -0.7218
  179SAPS  C21520477   6.638   4.471   5.558 -0.3151 -0.4102 -0.1723
  179SAPS  H15R20478   6.721   4.510   5.619  1.0732 -2.2982 -0.7697
  179SAPS  C21620479   6.506   4.468   5.623 -0.4976  0.1936 -0.1309
  179SAPS  H16R20480   6.478   4.360   5.629 -0.9467  0.2316 -1.1964
  179SAPS  H16S20481   6.423   4.507   5.560 -1.5502 -0.0411  1.0730
  179SAPS  C21720482   6.510   4.531   5.771  0.2551 -0.8707 -0.2943
  179SAPS  H17R20483   6.404   4.535   5.801 -0.3723 -0.8610 -2.3541
  179SAPS  H17S20484   6.541   4.637   5.767  0.5539 -0.9871 -3.2989
  179SAPS  C21820485   6.570   4.437   5.879  0.3150  0.3755  0.7429
  179SAPS  H18R20486   6.576   4.492   5.974  0.3163  1.1744  0.2850
  179SAPS  H18S20487   6.673   4.417   5.842 -0.1593 -0.7379 -0.0486
  179SAPS  C21920488   6.486   4.303   5.887  0.7532  0.4775  0.2431
  179SAPS  H19R20489   6.511   4.246   5.795  4.0985  0.6581  0.9022
  179SAPS  H19S20490   6.382   4.340   5.902  0.3040 -0.7604  0.2845
  179SAPS  C22020491   6.517   4.217   6.003  0.4575  0.5383  0.6150
  179SAPS  H20R20492   6.458   4.123   5.994 -0.2020  0.8183  1.7874
  179SAPS  H20S20493   6.495   4.247   6.107  1.8064 -0.1775  1.1303
  179SAPS  H20T20494   6.623   4.182   5.997  0.1369 -0.2468 -1.2984
  179SAPS   C3320495   6.777   4.863   4.852 -0.0858  0.3418  0.4095
  179SAPS   H3X20496   6.791   4.972   4.864  2.9018  0.1098 -0.0706
  179SAPS   H3Y20497   6.867   4.815   4.808 -1.6385 -2.5633  0.0898
  179SAPS   C3420498   6.749   4.805   4.989 -0.0603 -0.2071  0.4985
  179SAPS   H4X20499   6.733   4.695   4.983  0.7208 -0.5629  3.5771
  179SAPS   H4Y20500   6.652   4.843   5.029 -0.6819 -1.5749  0.3375
  179SAPS   C3520501   6.869   4.822   5.083  0.2393  0.0684 -0.8491
  179SAPS   H5X20502   6.903   4.928   5.090 -1.0084  0.4579 -0.1569
  179SAPS   H5Y20503   6.945   4.754   5.042  0.0627 -1.9686  1.8944
  179SAPS   C3620504   6.841   4.780   5.227  0.0382  0.5340  0.1765
  179SAPS   H6X20505   6.811   4.673   5.236  0.7182  0.4419  1.7500
  179SAPS   H6Y20506   6.760   4.848   5.259 -0.4550  1.5054 -2.8340
  179SAPS   C3720507   6.960   4.797   5.322  0.5699  0.1770 -0.6995
  179SAPS   H7X20508   6.988   4.904   5.320  4.0046 -0.5705 -0.3141
  179SAPS   H7Y20509   7.038   4.741   5.266  1.3819 -1.6071  2.0028
  179SAPS   C3820510   6.946   4.731   5.465  0.6226  0.3757  0.3188
  179SAPS   H8X20511   6.898   4.631   5.470 -1.3598  1.3283  2.3760
  179SAPS   H8Y20512   6.877   4.796   5.523  2.7725  0.1179  3.4339
  179SAPS   C3920513   7.080   4.737   5.544  0.4716  0.5044 -0.2100
  179SAPS   H9X20514   7.133   4.834   5.531 -0.4122  0.9398 -0.5981
  179SAPS   H9Y20515   7.144   4.657   5.501 -1.0282 -1.8276  1.6689
  179SAPS  C31020516   7.065   4.711   5.696  0.5600 -0.0961  0.0789
  179SAPS  H10X20517   6.987   4.779   5.735 -0.2376  0.5376 -2.4338
  179SAPS  H10Y20518   7.162   4.722   5.748  1.5226 -2.1060 -1.1366
  179SAPS  C31120519   7.020   4.569   5.745  0.2020  0.2202 -1.0070
  179SAPS  H11X20520   7.098   4.494   5.719  1.3394  0.5100  1.3094
  179SAPS  H11Y20521   6.923   4.552   5.694  1.0556 -1.0593 -2.3105
  179SAPS  C31220522   6.982   4.564   5.893  0.5296  0.6801  0.3672
  179SAPS  H12X20523   7.076   4.582   5.949  1.0663 -1.5964  0.2916
  179SAPS  H12Y20524   6.955   4.457   5.904  0.9880  0.5168 -0.0707
  179SAPS  C31320525   6.888   4.661   5.964  0.6799 -0.6595  0.0874
  179SAPS  H13X20526   6.784   4.637   5.934  0.4174  0.3437  0.1644
  179SAPS  H13Y20527   6.906   4.765   5.928  0.6629  0.0399  1.9842
  179SAPS  C31420528   6.897   4.662   6.118  0.6375 -0.2832  0.1496
  179SAPS  H14X20529   6.835   4.745   6.160 -0.4062 -1.6777  1.4865
  179SAPS  H14Y20530   7.002   4.686   6.142  1.3239 -0.4489 -2.4128
  179SAPS  C31520531   6.874   4.524   6.174  0.9251  0.0029 -0.1623
  179SAPS  H15X20532   6.943   4.452   6.126 -1.1698 -2.6573  0.5879
  179SAPS  H15Y20533   6.769   4.499   6.148  0.1082  0.7046  2.2661
  179SAPS  C31620534   6.886   4.506   6.320 -0.5040 -0.1395 -0.0732
  179SAPS  H16X20535   6.984   4.548   6.353 -0.5249  0.7326 -1.0648
  179SAPS  H16Y20536   6.870   4.399   6.345 -0.6873  0.1127  0.9409
  179SAPS  C31720537   6.785   4.596   6.389 -0.1461  0.4846  0.1747
  179SAPS  H17X20538   6.682   4.561   6.369  0.1090 -0.5893  0.6286
  179SAPS  H17Y20539   6.787   4.703   6.360 -0.1363  0.0754 -1.3993
  179SAPS  C31820540   6.806   4.592   6.546  0.6138  0.0994  1.2684
  179SAPS  H18X20541   6.828   4.485   6.569  0.1987 -0.7284 -1.7686
  179SAPS  H18Y20542   6.714   4.624   6.600  0.2787  2.4844 -0.5611
  179SAPS  H18Z20543   6.896   4.649   6.576  0.2926  0.8459  0.8362
  180SAPS     N20544   1.186   3.330   4.077 -0.5547 -0.7126  0.2327
  180SAPS   HN120545   1.243   3.244   4.065 -0.3652 -0.7442  1.2572
  180SAPS   HN220546   1.251   3.400   4.118  1.2035 -1.8927 -0.4255
  180SAPS   HN320547   1.099   3.311   4.131 -0.2697  0.1037  1.0128
  180SAPS   C1220548   1.138   3.382   3.945 -0.1565  0.5223  0.1286
  180SAPS  H12A20549   1.229   3.392   3.887 -1.5926 -0.9824 -2.5380
  180SAPS   C1320550   1.051   3.279   3.868  0.2673 -0.0624 -0.1523
  180SAPS  O13A20551   1.024   3.167   3.923  0.9467 -0.7270 -0.1264
  180SAPS  O13B20552   0.991   3.316   3.768 -0.0918 -0.2429  0.1711
  180SAPS   C1120553   1.045   3.515   3.954  0.2111 -0.0070  0.4780
  180SAPS  H11A20554   0.946   3.491   3.998 -0.4242  0.0203 -0.8755
  180SAPS  H11B20555   1.022   3.541   3.848  2.4114 -2.1496 -0.6348
  180SAPS     P20556   1.219   3.714   3.972 -0.3313  0.1872  0.0050
  180SAPS   O1320557   1.309   3.632   3.893  0.4186 -0.1263  0.0285
  180SAPS   O1420558   1.141   3.813   3.895 -0.0857  0.3879  0.6544
  180SAPS   O1220559   1.108   3.614   4.034  0.0983  0.3136 -0.4741
  180SAPS   O1120560   1.297   3.774   4.095 -0.5509 -0.6050  0.4550
  180SAPS    C120561   1.231   3.769   4.220  0.3824 -0.2488  0.7183
  180SAPS    HA20562   1.121   3.761   4.212  0.2609 -0.0359  1.9664
  180SAPS    HB20563   1.262   3.686   4.288  0.9548  0.7092  1.6432
  180SAPS    C220564   1.268   3.902   4.290 -0.2867 -0.2888  1.2423
  180SAPS    HS20565   1.240   3.973   4.209 -0.7392 -1.3725  0.4252
  180SAPS   O2120566   1.410   3.921   4.334 -0.2759  0.1608  0.1334
  180SAPS   C2120567   1.455   4.045   4.330  0.1847  0.5664  0.9853
  180SAPS   O2220568   1.389   4.144   4.301 -0.3573 -0.4455 -0.1242
  180SAPS   C2220569   1.601   4.053   4.363  0.2903  0.5582 -0.1982
  180SAPS   H2R20570   1.652   3.961   4.328 -1.4434  0.3905 -2.5487
  180SAPS   H2S20571   1.655   4.140   4.318  0.4660  1.1390  1.0943
  180SAPS    C320572   1.171   3.947   4.402 -0.5637 -0.6703  0.6544
  180SAPS    HX20573   1.068   3.907   4.394 -1.6028  1.8788  0.2552
  180SAPS    HY20574   1.150   4.056   4.396 -2.0915 -0.7680  2.9446
  180SAPS   O3120575   1.226   3.918   4.535 -0.5739 -0.1356  0.6557
  180SAPS   C3120576   1.190   3.804   4.585  0.0210 -0.7317  0.3420
  180SAPS   O3220577   1.113   3.719   4.536 -0.0448 -0.5050 -0.9789
  180SAPS   C3220578   1.255   3.790   4.727  0.0925 -0.2443  0.2972
  180SAPS   H2X20579   1.353   3.842   4.714  0.9063 -1.6812  0.4155
  180SAPS   H2Y20580   1.273   3.683   4.753 -0.7677 -0.2921  0.7149
  180SAPS   C2320581   1.632   4.049   4.516  0.2570 -0.3839 -0.0275
  180SAPS   H3R20582   1.740   4.027   4.527  0.4693  0.4819 -0.3097
  180SAPS   H3S20583   1.565   3.976   4.566  0.7748 -0.2489  0.8835
  180SAPS   C2420584   1.598   4.181   4.588 -0.4226 -0.3829  0.1617
  180SAPS   H4R20585   1.633   4.154   4.690 -0.0750 -0.7233 -0.0444
  180SAPS   H4S20586   1.490   4.200   4.578 -0.3053 -0.5714 -1.9342
  180SAPS   C2520587   1.690   4.299   4.555 -0.3500 -0.7390  1.2919
  180SAPS   H5R20588   1.687   4.327   4.449 -0.4002 -1.9638  0.9521
  180SAPS   C2620589   1.773   4.362   4.639  0.1992  0.1284 -0.1230
  180SAPS   H6R20590   1.826   4.454   4.610  0.4845  0.0618  0.1751
  180SAPS   C2720591   1.796   4.327   4.785 -0.3826 -0.2804  0.1930
  180SAPS   H7R20592   1.696   4.300   4.826  0.1621 -1.4435  0.7757
  180SAPS   H7S20593   1.824   4.421   4.837 -0.6961  0.8912 -1.6440
  180SAPS   C2820594   1.884   4.214   4.815  0.5487  0.0908  0.6573
  180SAPS   H8R20595   1.859   4.123   4.759  2.7326 -0.0531 -0.1731
  180SAPS   C2920596   1.990   4.215   4.902 -0.4948 -0.3717 -0.3195
  180SAPS   H9R20597   2.046   4.124   4.927  1.0057  0.6433  0.1239
  180SAPS  C21020598   2.042   4.340   4.978  0.3108 -0.2863  0.3586
  180SAPS  H10R20599   2.025   4.443   4.940  0.5261 -0.5793 -0.5633
  180SAPS  H10S20600   2.149   4.326   4.951  0.2682  1.3202 -0.8238
  180SAPS  C21120601   2.029   4.337   5.131 -0.5620  0.3448 -0.5865
  180SAPS  H11R20602   1.931   4.364   5.171 -0.8455 -0.9505 -0.3488
  180SAPS  C21220603   2.125   4.306   5.224  0.4035  0.6033  0.1057
  180SAPS  H12R20604   2.097   4.319   5.330  0.0878 -1.6236  0.3458
  180SAPS  C21320605   2.265   4.256   5.208 -0.2485  0.4094 -0.3464
  180SAPS  H13R20606   2.297   4.232   5.105  1.5475  0.0442  0.2566
  180SAPS  H13S20607   2.278   4.160   5.263 -1.1951 -0.7457 -2.0485
  180SAPS  C21420608   2.352   4.367   5.255  0.3975 -0.3354 -0.7488
  180SAPS  H14R20609   2.399   4.429   5.178  0.5202  2.1652  1.2210
  180SAPS  C21520610   2.389   4.397   5.381 -0.5440 -0.1484 -0.7705
  180SAPS  H15R20611   2.447   4.489   5.395 -1.9103  0.6323 -0.0446
  180SAPS  C21620612   2.362   4.310   5.501 -0.0962  0.3209 -0.1524
  180SAPS  H16R20613   2.403   4.208   5.488  0.6007  0.3426  1.6056
  180SAPS  H16S20614   2.252   4.295   5.512 -0.2713  0.1485 -1.8772
  180SAPS  C21720615   2.426   4.355   5.638  0.3092 -0.5630  0.0931
  180SAPS  H17R20616   2.537   4.352   5.634  0.2786 -1.0511 -0.8437
  180SAPS  H17S20617   2.398   4.281   5.716 -1.1689  0.6225  0.7288
  180SAPS  C21820618   2.391   4.487   5.684 -0.0866 -0.3180  0.9033
  180SAPS  H18R20619   2.281   4.500   5.696 -0.0365  2.6463 -0.8498
  180SAPS  H18S20620   2.432   4.568   5.619  0.6893 -1.2937  0.1418
  180SAPS  C21920621   2.463   4.519   5.815  0.5473 -0.5463 -0.2580
  180SAPS  H19R20622   2.572   4.530   5.799  0.7308 -0.2430  1.0331
  180SAPS  H19S20623   2.443   4.429   5.876  0.4523  0.1216  0.7319
  180SAPS  C22020624   2.418   4.649   5.873 -0.3715 -0.0194  0.1878
  180SAPS  H20R20625   2.438   4.734   5.804  3.1515 -0.5401  0.4112
  180SAPS  H20S20626   2.308   4.643   5.887 -0.7056  1.2768 -1.4939
  180SAPS  H20T20627   2.469   4.666   5.970  1.8551  0.7196 -1.0572
  180SAPS   C3320628   1.165   3.854   4.838  0.1047  0.5105  0.4163
  180SAPS   H3X20629   1.128   3.948   4.792 -2.2014 -0.9239 -0.8431
  180SAPS   H3Y20630   1.221   3.878   4.931  1.1477  1.1570 -0.3553
  180SAPS   C3420631   1.048   3.766   4.872  0.6566  0.2173 -0.8573
  180SAPS   H4X20632   1.073   3.661   4.897  1.7640  1.3805  3.9008
  180SAPS   H4Y20633   0.974   3.766   4.789 -0.4115  1.5751  0.0430
  180SAPS   C3520634   0.975   3.811   5.008 -0.6440 -0.1127 -0.7989
  180SAPS   H5X20635   0.883   3.753   5.031 -0.4350  0.3482  1.4629
  180SAPS   H5Y20636   0.948   3.918   4.999 -0.0205  0.3965  2.1677
  180SAPS   C3620637   1.047   3.788   5.138 -0.0268 -0.1668 -0.5697
  180SAPS   H6X20638   1.145   3.840   5.148 -0.4195  0.2076  2.0825
  180SAPS   H6Y20639   1.083   3.683   5.138 -0.3327 -0.3064  1.3190
  180SAPS   C3720640   0.959   3.807   5.266 -0.6574 -0.3366 -0.2042
  180SAPS   H7X20641   0.875   3.737   5.249 -1.2645  0.7976 -2.1145
  180SAPS   H7Y20642   0.908   3.905   5.275  2.1442  1.1946  0.2335
  180SAPS   C3820643   1.032   3.769   5.396 -0.4517  0.1965  0.1981
  180SAPS   H8X20644   1.121   3.835   5.405 -1.8673  2.3057 -0.3293
  180SAPS   H8Y20645   1.081   3.671   5.378  1.1465  1.2542 -1.5508
  180SAPS   C3920646   0.936   3.757   5.516  0.3680  0.1556  0.1416
  180SAPS   H9X20647   0.854   3.689   5.485 -0.0677 -0.1420  1.8574
  180SAPS   H9Y20648   0.894   3.859   5.532  2.0961  1.1739 -1.4080
  180SAPS  C31020649   1.002   3.688   5.638 -0.1307  0.6171  0.6664
  180SAPS  H10X20650   0.998   3.577   5.630  3.3081  0.3138  1.7262
  180SAPS  H10Y20651   0.939   3.725   5.722  1.1278 -1.1183  2.4594
  180SAPS  C31120652   1.143   3.728   5.667 -0.8669  0.7601 -1.0045
  180SAPS  H11X20653   1.152   3.839   5.673  1.1464  0.5632  1.8684
  180SAPS  H11Y20654   1.207   3.696   5.582  1.1702  1.5808  0.1381
  180SAPS  C31220655   1.202   3.664   5.798  0.3982  0.2627 -0.1519
  180SAPS  H12X20656   1.198   3.553   5.793 -3.0957  0.2452  0.6733
  180SAPS  H12Y20657   1.134   3.683   5.884 -0.1987  1.8295 -0.9300
  180SAPS  C31320658   1.350   3.705   5.827 -0.4244 -0.9204 -0.6422
  180SAPS  H13X20659   1.346   3.812   5.857  0.5854 -1.9314  3.7333
  180SAPS  H13Y20660   1.427   3.683   5.749  1.6103  0.8611  0.7413
  180SAPS  C31420661   1.420   3.635   5.949  0.1188  0.0478 -0.0586
  180SAPS  H14X20662   1.395   3.526   5.948 -1.2440  0.3106  1.0733
  180SAPS  H14Y20663   1.367   3.676   6.038  3.4433  0.9131  1.6950
  180SAPS  C31520664   1.569   3.649   5.953  0.2866 -0.2897 -0.5929
  180SAPS  H15X20665   1.577   3.681   6.059  1.8824 -0.0496 -0.7752
  180SAPS  H15Y20666   1.610   3.725   5.883  2.0358  1.4319  2.1346
  180SAPS  C31620667   1.654   3.533   5.932  0.1830  0.2824 -0.3991
  180SAPS  H16X20668   1.591   3.442   5.938 -0.8291  0.9222 -0.8901
  180SAPS  H16Y20669   1.733   3.506   6.005  1.2509  0.1529 -1.5684
  180SAPS  C31720670   1.713   3.523   5.788 -0.1443  0.1746  0.0592
  180SAPS  H17X20671   1.781   3.605   5.757  0.8502 -0.4941  0.4220
  180SAPS  H17Y20672   1.637   3.536   5.708  1.0644 -0.3351 -1.2329
  180SAPS  C31820673   1.796   3.403   5.747  0.1990  0.3461 -0.4021
  180SAPS  H18X20674   1.821   3.408   5.639  0.6473  0.2034 -0.3077
  180SAPS  H18Y20675   1.738   3.309   5.762  2.1681 -0.6459  1.7381
  180SAPS  H18Z20676   1.892   3.392   5.803 -0.0852  1.2633  0.2872
  181POPC     N20677   1.365   6.649   8.344 -0.2761  0.0816  0.9457
  181POPC   C1220678   1.402   6.546   8.454 -0.8040 -0.4186  0.4093
  181POPC  H12A20679   1.417   6.598   8.547 -3.5888  1.3720 -0.0246
  181POPC  H12B20680   1.499   6.504   8.430 -0.4127  0.5022  0.3280
  181POPC   C1320681   1.479   6.746   8.311 -0.2835  0.0119 -0.0701
  181POPC  H13A20682   1.447   6.822   8.242  0.3052 -0.3694 -0.7842
  181POPC  H13B20683   1.511   6.796   8.401 -1.8943 -1.5199  1.4301
  181POPC  H13C20684   1.567   6.698   8.270  0.1284  0.6801  0.0097
  181POPC   C1420685   1.326   6.577   8.212  0.0494 -0.3532  0.2900
  181POPC  H14A20686   1.237   6.518   8.230 -1.0457  1.3114  0.5172
  181POPC  H14B20687   1.304   6.649   8.135 -0.0377 -0.0521  0.5962
  181POPC  H14C20688   1.414   6.521   8.185  0.4489  0.2918  0.2482
  181POPC   C1520689   1.250   6.730   8.395 -0.3664  0.1496  0.2974
  181POPC  H15A20690   1.273   6.801   8.473 -0.8598 -0.9142  1.4427
  181POPC  H15B20691   1.186   6.662   8.449 -0.3778  1.3374  1.8611
  181POPC  H15C20692   1.197   6.783   8.317 -0.8733 -0.6780  0.0739
  181POPC   C1120693   1.311   6.431   8.480 -0.0602  0.3489 -0.2291
  181POPC  H11A20694   1.361   6.363   8.552  1.3523  0.3719 -1.1473
  181POPC  H11B20695   1.308   6.368   8.389  0.5686 -1.0619  0.6834
  181POPC     P20696   1.047   6.414   8.476  0.1506  0.2242 -0.1068
  181POPC   O1320697   0.932   6.475   8.541  0.6227 -0.6737 -0.3820
  181POPC   O1420698   1.062   6.268   8.486  0.4788 -0.2233 -0.0455
  181POPC   O1220699   1.177   6.473   8.525 -0.0256  0.2905  0.3363
  181POPC   O1120700   1.049   6.456   8.322 -0.0298  0.1581  0.0237
  181POPC    C120701   0.939   6.513   8.249  0.1139  0.0822 -0.1953
  181POPC    HA20702   0.906   6.608   8.296 -0.6063  0.1836 -0.8934
  181POPC    HB20703   0.849   6.449   8.256 -0.3777  0.9418  4.7653
  181POPC    C220704   0.968   6.545   8.099 -0.6270 -0.2403  0.7743
  181POPC    HS20705   0.873   6.528   8.043  0.8156  1.3920 -2.3969
  181POPC   O2120706   1.072   6.463   8.037  0.4577  1.0145  0.1815
  181POPC   C2120707   1.039   6.335   8.031  0.1688 -0.4976  0.6926
  181POPC   O2220708   0.923   6.290   8.052 -0.1699  0.1018  0.0232
  181POPC   C2220709   1.159   6.243   7.989  0.1823 -0.0981  0.4561
  181POPC   H2R20710   1.127   6.140   8.013  2.3140 -0.5126  1.6739
  181POPC   H2S20711   1.247   6.264   8.053  1.0228  3.3250 -1.5388
  181POPC    C320712   1.006   6.700   8.090 -0.2100 -0.3214 -0.2448
  181POPC    HX20713   1.099   6.712   8.149  0.2703  1.3090 -1.2646
  181POPC    HY20714   0.926   6.756   8.143 -0.3424 -0.1298 -0.6422
  181POPC   O3120715   1.013   6.743   7.958 -0.3394  0.0760 -0.0134
  181POPC   C3120716   1.138   6.775   7.908 -0.0219 -0.0306  0.2116
  181POPC   O3220717   1.242   6.759   7.973 -0.0475  0.0526  0.3100
  181POPC   C3220718   1.133   6.837   7.768  0.5860 -1.1710  0.6060
  181POPC   H2X20719   1.200   6.925   7.769  1.1511 -1.6065  1.5975
  181POPC   H2Y20720   1.029   6.869   7.742  0.7997 -1.2449 -0.3903
  181POPC   C2320721   1.204   6.245   7.836  0.0496 -0.1432 -0.4931
  181POPC   H3R20722   1.254   6.342   7.816  2.4760 -1.0801  0.6820
  181POPC   H3S20723   1.114   6.230   7.773 -0.9922 -0.1134  0.9256
  181POPC   C2420724   1.296   6.131   7.805 -0.8085  0.2356 -0.2661
  181POPC   H4R20725   1.253   6.033   7.835  2.9836 -0.3738  4.3170
  181POPC   H4S20726   1.379   6.145   7.877  0.2225  2.0101 -1.7310
  181POPC   C2520727   1.356   6.127   7.663 -0.6567 -0.7754 -0.2359
  181POPC   H5R20728   1.383   6.234   7.645  0.9713 -0.5576  2.7601
  181POPC   H5S20729   1.283   6.092   7.588  0.3074 -2.3806 -0.4569
  181POPC   C2620730   1.481   6.035   7.654  0.2618 -0.0495 -0.1116
  181POPC   H6R20731   1.452   5.930   7.674  0.3430 -0.1380 -0.4467
  181POPC   H6S20732   1.556   6.069   7.729 -1.4200  0.9197  1.1966
  181POPC   C2720733   1.533   6.032   7.505  0.1636  0.0279 -0.6010
  181POPC   H7R20734   1.449   6.038   7.432  1.5258  2.5916 -2.0671
  181POPC   H7S20735   1.591   5.940   7.482 -1.4572 -0.6587 -2.2483
  181POPC   C2820736   1.615   6.149   7.461 -0.2987  0.4415 -0.1859
  181POPC   H8R20737   1.692   6.151   7.542  0.7483  0.7112 -1.1627
  181POPC   H8S20738   1.543   6.233   7.467 -0.1590  0.5822 -0.4885
  181POPC   C2920739   1.673   6.131   7.321 -0.5268  0.7000  0.0031
  181POPC   H9120740   1.629   6.176   7.231  1.8368  2.0536 -0.5561
  181POPC  C21020741   1.795   6.084   7.308  0.0434 -0.6780  0.2101
  181POPC  H10120742   1.838   6.093   7.207 -1.3197  0.9964 -0.2802
  181POPC  C21120743   1.891   6.037   7.415 -0.1491  0.4077 -0.1349
  181POPC  H11R20744   1.951   5.946   7.390  1.4236  1.2569  0.4073
  181POPC  H11S20745   1.845   6.015   7.513 -0.4256  1.5574  0.0011
  181POPC  C21220746   1.993   6.150   7.457  0.4670 -0.0085  0.2881
  181POPC  H12R20747   1.937   6.237   7.497 -1.8970  0.1924 -2.9497
  181POPC  H12S20748   2.041   6.181   7.362 -1.5046  0.7225 -0.5270
  181POPC  C21320749   2.100   6.103   7.557 -0.3665 -0.1726 -0.3089
  181POPC  H13R20750   2.180   6.179   7.568  0.8235 -1.1847 -1.5540
  181POPC  H13S20751   2.160   6.020   7.513  0.3601 -1.2367  2.4752
  181POPC  C21420752   2.039   6.072   7.694  0.3002 -0.0295 -0.9766
  181POPC  H14R20753   1.978   5.979   7.691  1.7249 -0.9880 -0.9561
  181POPC  H14S20754   1.971   6.154   7.727  1.9611  0.2007  2.2215
  181POPC  C21520755   2.142   6.056   7.803 -0.5436 -0.0893 -0.9054
  181POPC  H15R20756   2.204   5.969   7.771 -1.6776 -2.0850  1.8596
  181POPC  H15S20757   2.095   6.035   7.902  2.0207 -0.2961  0.3519
  181POPC  C21620758   2.230   6.186   7.821 -0.4920  0.4180  0.5141
  181POPC  H16R20759   2.169   6.275   7.795 -0.2091  0.2627 -0.7253
  181POPC  H16S20760   2.302   6.187   7.737 -0.4335 -1.1118  0.5187
  181POPC  C21720761   2.308   6.194   7.950  0.5501  0.2072  0.5483
  181POPC  H17R20762   2.386   6.271   7.936  0.7633  0.2726  2.0036
  181POPC  H17S20763   2.347   6.094   7.977  0.3867 -0.6568 -2.1193
  181POPC  C21820764   2.205   6.234   8.068  0.0225 -0.1975  0.7392
  181POPC  H18R20765   2.263   6.280   8.151  0.1418 -2.7620  2.1837
  181POPC  H18S20766   2.148   6.154   8.119 -0.1778 -0.0543  0.7394
  181POPC  H18T20767   2.135   6.309   8.026  0.4604  0.7521  1.6450
  181POPC   C3320768   1.180   6.739   7.661 -0.8000  0.0573  0.0621
  181POPC   H3X20769   1.282   6.709   7.692 -0.2276  0.3136 -1.5294
  181POPC   H3Y20770   1.190   6.799   7.568 -0.5942 -0.9478 -0.5804
  181POPC   C3420771   1.089   6.621   7.632 -0.0169  0.2318 -0.3927
  181POPC   H4X20772   0.981   6.646   7.618  0.2104  1.4995  0.0385
  181POPC   H4Y20773   1.100   6.571   7.731 -1.6450  2.3801  0.9707
  181POPC   C3520774   1.128   6.537   7.505 -0.0233 -0.1925  0.0666
  181POPC   H5X20775   1.099   6.601   7.419  1.5761  0.8168  0.2255
  181POPC   H5Y20776   1.073   6.440   7.505 -0.5589  0.0406 -2.3279
  181POPC   C3620777   1.280   6.516   7.491  0.2894 -0.2418  0.3453
  181POPC   H6X20778   1.325   6.486   7.588  0.2427  0.4595  0.5876
  181POPC   H6Y20779   1.331   6.611   7.466  1.5250 -0.2639  2.5548
  181POPC   C3720780   1.328   6.424   7.378  0.4296  0.2210 -0.4449
  181POPC   H7X20781   1.308   6.317   7.404 -0.9819  0.5847  0.0430
  181POPC   H7Y20782   1.438   6.431   7.364  0.5478  0.7360  0.6568
  181POPC   C3820783   1.279   6.447   7.243  0.0206 -0.3603  0.4221
  181POPC   H8X20784   1.314   6.546   7.207 -0.0511 -0.3616  0.3483
  181POPC   H8Y20785   1.168   6.449   7.240  0.0382  1.8267 -0.0996
  181POPC   C3920786   1.326   6.347   7.145 -0.2023 -0.8659 -0.3633
  181POPC   H9X20787   1.266   6.358   7.052 -0.1664 -0.2223 -0.3109
  181POPC   H9Y20788   1.332   6.243   7.185  1.7289 -1.6269 -2.4247
  181POPC  C31020789   1.471   6.380   7.099 -0.1753  0.2111 -0.0340
  181POPC  H10X20790   1.546   6.379   7.181  0.5093  0.9090 -0.6243
  181POPC  H10Y20791   1.467   6.484   7.058 -1.0205  0.5584  0.9060
  181POPC  C31120792   1.514   6.289   6.985 -0.3333 -0.1553 -0.3089
  181POPC  H11X20793   1.444   6.288   6.898  0.4917 -0.8865 -0.9928
  181POPC  H11Y20794   1.516   6.182   7.015 -0.9448 -0.5869 -1.7052
  181POPC  C31220795   1.651   6.337   6.929  0.3850 -0.2931  0.0419
  181POPC  H12X20796   1.721   6.315   7.012 -0.8731 -3.3528  0.4322
  181POPC  H12Y20797   1.630   6.440   6.892 -1.3466 -0.6263  0.0153
  181POPC  C31320798   1.711   6.250   6.815  0.9377  0.0391 -0.2081
  181POPC  H13X20799   1.805   6.303   6.785  2.8670 -1.7974  2.1783
  181POPC  H13Y20800   1.648   6.236   6.724 -0.5142 -2.2402  1.0698
  181POPC  C31420801   1.750   6.116   6.864 -0.0127 -0.2379  0.0485
  181POPC  H14X20802   1.663   6.048   6.875 -0.0201 -0.2527 -0.0946
  181POPC  H14Y20803   1.796   6.121   6.965 -0.2553 -0.7780  0.1914
  181POPC  C31520804   1.852   6.039   6.779 -0.4359 -0.1542  0.0633
  181POPC  H15X20805   1.851   5.933   6.812  0.6284  0.2727  1.5321
  181POPC  H15Y20806   1.949   6.082   6.812 -1.5797  3.6372 -1.0188
  181POPC  C31620807   1.835   6.047   6.622 -0.3386  0.7538 -0.7330
  181POPC  H16X20808   1.834   6.154   6.591  1.0160  0.8601 -0.4973
  181POPC  H16Y20809   1.735   6.011   6.592 -1.9791  1.4021  3.2443
  181POPC  H16Z20810   1.926   6.003   6.574  2.3925  4.5244  0.4839
  182POPC     N20811   6.062   3.989   8.379 -0.1023  0.1764 -0.1895
  182POPC   C1220812   6.196   3.963   8.307 -0.2080  0.6552  0.1228
  182POPC  H12A20813   6.271   4.029   8.349  0.2455 -0.4390  1.0621
  182POPC  H12B20814   6.198   3.988   8.202  2.0971  2.0349  0.4180
  182POPC   C1320815   5.944   3.991   8.288  0.4903 -0.4602  0.6458
  182POPC  H13A20816   5.920   3.891   8.254  0.9623 -0.0593 -0.9516
  182POPC  H13B20817   5.854   4.027   8.335  0.8740  0.3230  0.7951
  182POPC  H13C20818   5.962   4.053   8.202 -1.7023 -1.4603 -0.6260
  182POPC   C1420819   6.042   3.880   8.482 -0.6868 -0.1134 -0.1098
  182POPC  H14A20820   6.076   3.781   8.454  2.1547 -0.3370  3.3821
  182POPC  H14B20821   6.114   3.904   8.559 -0.6414 -0.1786 -0.1313
  182POPC  H14C20822   5.944   3.878   8.528  0.2731  0.5394  2.0744
  182POPC   C1520823   6.073   4.115   8.460 -0.7201 -0.0437 -0.2743
  182POPC  H15A20824   6.106   4.192   8.391 -0.8099  0.2954  0.0639
  182POPC  H15B20825   6.146   4.110   8.539 -1.8569  1.6217  0.9484
  182POPC  H15C20826   5.987   4.141   8.519 -0.6955  0.3282 -0.3970
  182POPC   C1120827   6.257   3.822   8.334 -0.2094 -0.3952 -0.4456
  182POPC  H11A20828   6.272   3.814   8.444 -1.2424  1.5101 -0.1219
  182POPC  H11B20829   6.359   3.831   8.290 -0.2285  0.2838 -0.3617
  182POPC     P20830   6.195   3.679   8.122  0.2054 -0.0527  0.1879
  182POPC   O1320831   6.148   3.789   8.043 -1.1007 -0.7485 -0.8876
  182POPC   O1420832   6.126   3.551   8.103 -0.2084  0.3871 -0.6475
  182POPC   O1220833   6.182   3.720   8.278 -0.2065  0.2466 -0.3623
  182POPC   O1120834   6.346   3.658   8.089 -0.2199  0.8859 -0.3193
  182POPC    C120835   6.437   3.751   8.036 -0.2911 -0.0435 -0.3615
  182POPC    HA20836   6.536   3.756   8.086 -0.6327 -0.0820  0.3223
  182POPC    HB20837   6.393   3.852   8.026 -2.1912 -0.8416 -0.3725
  182POPC    C220838   6.467   3.728   7.885 -0.5613 -0.7926 -0.2026
  182POPC    HS20839   6.370   3.711   7.833 -0.5555 -0.5992 -0.2794
  182POPC   O2120840   6.552   3.613   7.876  0.4159 -0.1840  0.1825
  182POPC   C2120841   6.545   3.563   7.755  0.1991  0.0925 -0.2650
  182POPC   O2220842   6.466   3.595   7.666 -0.2396  0.0566  0.6431
  182POPC   C2220843   6.648   3.447   7.748  0.1459 -0.0657  0.5345
  182POPC   H2R20844   6.586   3.354   7.752  0.1717 -0.0706  0.8778
  182POPC   H2S20845   6.705   3.452   7.843 -0.6014 -1.3198  1.0805
  182POPC    C320846   6.541   3.849   7.825 -0.3033 -0.7166 -0.4354
  182POPC    HX20847   6.640   3.851   7.877  0.8523  1.9192 -2.5024
  182POPC    HY20848   6.483   3.939   7.853  0.1309 -0.8595  1.0197
  182POPC   O3120849   6.553   3.846   7.682  0.2190  0.3296 -0.1626
  182POPC   C3120850   6.667   3.880   7.622 -0.3151 -0.3896  0.1415
  182POPC   O3220851   6.765   3.920   7.687  0.5292 -0.0687 -0.2042
  182POPC   C3220852   6.669   3.846   7.471  0.2147 -0.8245  0.4709
  182POPC   H2X20853   6.589   3.910   7.430  2.2526  2.7822  1.6665
  182POPC   H2Y20854   6.633   3.741   7.456 -0.7291 -0.3984 -0.3295
  182POPC   C2320855   6.741   3.459   7.631 -0.0558 -1.1395  0.1431
  182POPC   H3R20856   6.836   3.406   7.650 -0.1854 -1.7677 -0.9159
  182POPC   H3S20857   6.782   3.562   7.637 -0.6351 -0.8499 -0.6241
  182POPC   C2420858   6.676   3.439   7.487 -0.0943 -0.3197  0.6421
  182POPC   H4R20859   6.604   3.522   7.478  2.5761  2.0166 -0.6791
  182POPC   H4S20860   6.628   3.342   7.461  1.8961 -0.6825 -2.1783
  182POPC   C2520861   6.780   3.456   7.373 -0.0513 -0.1207 -0.0280
  182POPC   H5R20862   6.862   3.381   7.366  2.6571  2.3766  2.2302
  182POPC   H5S20863   6.836   3.548   7.401  1.0350 -0.5683 -0.6455
  182POPC   C2620864   6.712   3.464   7.238 -0.1990 -0.2716 -0.0931
  182POPC   H6R20865   6.632   3.538   7.220 -0.1339  0.1439  1.2612
  182POPC   H6S20866   6.658   3.368   7.223 -1.3558  0.5665 -1.5356
  182POPC   C2720867   6.815   3.497   7.127  0.0035  0.8376 -0.1887
  182POPC   H7R20868   6.894   3.425   7.155 -2.1739 -1.1451  1.3068
  182POPC   H7S20869   6.862   3.597   7.136  1.2366  0.2856 -0.2698
  182POPC   C2820870   6.761   3.480   6.982  0.4278  0.6836 -0.1560
  182POPC   H8R20871   6.842   3.467   6.907 -0.7455 -0.8769 -1.2201
  182POPC   H8S20872   6.701   3.570   6.957 -0.2298 -0.1183 -1.5823
  182POPC   C2920873   6.660   3.369   6.962  0.4005 -0.1670 -0.9232
  182POPC   H9120874   6.688   3.276   7.014 -1.2222 -0.4177 -0.4384
  182POPC  C21020875   6.543   3.369   6.894 -0.3143  0.2001  0.1120
  182POPC  H10120876   6.478   3.281   6.890  0.8596 -0.6587 -1.4380
  182POPC  C21120877   6.483   3.494   6.824 -0.4177  0.3924  0.1096
  182POPC  H11R20878   6.462   3.576   6.895  1.0271 -1.1821  2.5237
  182POPC  H11S20879   6.382   3.456   6.796 -1.2528  1.4394  1.5823
  182POPC  C21220880   6.544   3.537   6.693 -0.0712  0.5203 -0.2634
  182POPC  H12R20881   6.650   3.568   6.709 -0.1110  0.6160 -0.1809
  182POPC  H12S20882   6.501   3.636   6.667  0.9520  0.7633 -1.0924
  182POPC  C21320883   6.556   3.437   6.580  0.8570 -0.1083 -0.3166
  182POPC  H13R20884   6.563   3.491   6.484 -2.8539  0.9964 -0.1219
  182POPC  H13S20885   6.455   3.391   6.574  1.8181 -2.4398  0.1508
  182POPC  C21420886   6.660   3.330   6.602 -0.1758  0.2172 -0.8633
  182POPC  H14R20887   6.638   3.265   6.689  0.0353 -1.6813 -2.1717
  182POPC  H14S20888   6.761   3.375   6.610 -0.8502  1.5055  1.0823
  182POPC  C21520889   6.656   3.216   6.495  0.6090 -0.3155  0.0768
  182POPC  H15R20890   6.551   3.220   6.460  0.8186  1.5235 -0.4742
  182POPC  H15S20891   6.676   3.114   6.534 -0.0679 -1.6669 -2.8281
  182POPC  C21620892   6.737   3.235   6.372 -0.6400  0.3820 -0.0692
  182POPC  H16R20893   6.702   3.329   6.325 -2.1475  0.5396  1.2970
  182POPC  H16S20894   6.711   3.158   6.295  3.2235  0.3104 -1.5454
  182POPC  C21720895   6.895   3.237   6.384  0.5990 -0.3391 -0.1226
  182POPC  H17R20896   6.925   3.141   6.429  0.0668  0.7639  2.7743
  182POPC  H17S20897   6.913   3.316   6.460 -1.6941 -1.6139  1.8436
  182POPC  C21820898   6.965   3.281   6.254 -0.1653  0.7197  0.0363
  182POPC  H18R20899   6.934   3.378   6.210 -0.6530  0.0959 -1.0463
  182POPC  H18S20900   6.944   3.201   6.180  0.7194  1.8017 -1.4581
  182POPC  H18T20901   7.075   3.280   6.274  0.2065  0.9560 -1.8368
  182POPC   C3320902   6.792   3.880   7.383 -1.0169  0.4161 -0.3253
  182POPC   H3X20903   6.856   3.790   7.394 -0.0410  1.2488  1.2243
  182POPC   H3Y20904   6.854   3.952   7.440  0.8243 -0.5967 -0.9664
  182POPC   C3420905   6.755   3.908   7.237 -0.0391  0.6523 -0.0777
  182POPC   H4X20906   6.703   4.005   7.225  1.3250  1.2774 -1.2257
  182POPC   H4Y20907   6.682   3.832   7.203  0.9904  0.4628 -2.0186
  182POPC   C3520908   6.875   3.896   7.144 -1.0431  0.9218  0.0628
  182POPC   H5X20909   6.941   3.807   7.159 -1.1610  0.2138 -2.9551
  182POPC   H5Y20910   6.934   3.989   7.157  1.5062 -0.1052 -2.8798
  182POPC   C3620911   6.836   3.884   6.998  0.0495  0.5036 -0.0234
  182POPC   H6X20912   6.734   3.843   6.983  0.0257  1.0787 -1.6183
  182POPC   H6Y20913   6.904   3.818   6.940  1.7574  2.4452 -0.3124
  182POPC   C3720914   6.837   4.021   6.925  0.3989  0.9445  0.3971
  182POPC   H7X20915   6.944   4.050   6.932  0.5863  0.6784 -1.0272
  182POPC   H7Y20916   6.773   4.085   6.989  0.8469  0.0632  1.7679
  182POPC   C3820917   6.798   4.011   6.775  0.1841  0.2609  0.5986
  182POPC   H8X20918   6.714   3.939   6.763  0.1733  0.5996 -2.0908
  182POPC   H8Y20919   6.887   3.959   6.733  0.1405 -1.6331  2.6831
  182POPC   C3920920   6.768   4.145   6.711 -0.3338  0.4445 -0.2809
  182POPC   H9X20921   6.860   4.207   6.720  0.1060 -0.4414  1.8306
  182POPC   H9Y20922   6.685   4.205   6.754  0.7310  1.3572  0.5725
  182POPC  C31020923   6.722   4.142   6.562  0.1677  0.8710  0.1748
  182POPC  H10X20924   6.814   4.124   6.503  1.3335  0.5816  2.0101
  182POPC  H10Y20925   6.661   4.227   6.525  0.3560  1.7984  1.9046
  182POPC  C31120926   6.627   4.032   6.537 -0.0629 -0.1289 -0.3853
  182POPC  H11X20927   6.531   4.030   6.593 -0.3437 -1.6141 -0.8621
  182POPC  H11Y20928   6.681   3.939   6.565  1.0729  1.0242  1.3995
  182POPC  C31220929   6.581   4.031   6.397  0.6399  0.9406 -0.3752
  182POPC  H12X20930   6.670   4.039   6.331 -0.4631  2.3166 -1.7542
  182POPC  H12Y20931   6.515   4.118   6.378  0.1809  0.0806 -3.1835
  182POPC  C31320932   6.505   3.897   6.376 -0.0588 -0.2364 -0.2704
  182POPC  H13X20933   6.432   3.874   6.457 -2.9335  1.2335 -2.2605
  182POPC  H13Y20934   6.585   3.820   6.369 -0.8327 -1.1214  0.3606
  182POPC  C31420935   6.410   3.904   6.253 -0.5275  0.3897  0.0826
  182POPC  H14X20936   6.479   3.935   6.172  0.0206  1.8160  1.0435
  182POPC  H14Y20937   6.327   3.977   6.262  0.9808  2.0771  0.9306
  182POPC  C31520938   6.347   3.768   6.215 -0.2669  0.0060 -0.2212
  182POPC  H15X20939   6.288   3.729   6.301  1.7878 -0.6209  0.9629
  182POPC  H15Y20940   6.429   3.694   6.206 -0.8195 -0.6659  0.0922
  182POPC  C31620941   6.263   3.761   6.090  0.5986 -0.2945 -0.5196
  182POPC  H16X20942   6.168   3.818   6.102  0.0153 -1.1298 -1.0298
  182POPC  H16Y20943   6.238   3.653   6.077 -1.3447  0.1507 -0.8060
  182POPC  H16Z20944   6.325   3.791   6.003  0.4689 -3.1568 -1.7071
  183POPC     N20945   5.242   3.442   8.643  0.7994  0.3185 -0.7485
  183POPC   C1220946   5.123   3.369   8.696  0.6192 -0.1884 -1.1930
  183POPC  H12A20947   5.041   3.440   8.691  2.7778  2.5716  0.2276
  183POPC  H12B20948   5.146   3.350   8.799 -1.6941  1.2839 -0.3150
  183POPC   C1320949   5.230   3.484   8.502  0.7421  0.3962  0.7106
  183POPC  H13A20950   5.323   3.518   8.459  1.0208 -0.2108  0.8152
  183POPC  H13B20951   5.200   3.392   8.453 -2.0589  0.8477  1.4372
  183POPC  H13C20952   5.156   3.560   8.486 -0.7456 -1.1252 -0.0350
  183POPC   C1420953   5.264   3.571   8.715  0.1480  0.2712  0.5103
  183POPC  H14A20954   5.254   3.559   8.822 -0.2757 -0.3237  0.4073
  183POPC  H14B20955   5.363   3.609   8.697  0.0919  1.3767  2.2247
  183POPC  H14C20956   5.197   3.648   8.680 -0.0781 -1.0830 -2.2481
  183POPC   C1520957   5.360   3.359   8.671 -0.4027 -0.2263  0.5640
  183POPC  H15A20958   5.349   3.264   8.623 -0.0227 -0.4646  0.9387
  183POPC  H15B20959   5.376   3.342   8.777 -0.1641  0.4573  0.6430
  183POPC  H15C20960   5.454   3.398   8.636 -0.6642 -2.1479 -2.6115
  183POPC   C1120961   5.089   3.241   8.620 -0.0497 -0.1247  0.3024
  183POPC  H11A20962   5.019   3.191   8.691 -1.1287  1.3088  0.2937
  183POPC  H11B20963   5.178   3.176   8.610  1.3469  1.4752  1.8716
  183POPC     P20964   4.887   3.316   8.475  0.1489 -0.0260 -0.0284
  183POPC   O1320965   4.878   3.356   8.336  0.0010  0.3176 -0.1283
  183POPC   O1420966   4.856   3.411   8.584 -0.1636  0.5078 -0.6189
  183POPC   O1220967   5.034   3.269   8.493  0.2865  0.4341  0.5155
  183POPC   O1120968   4.801   3.185   8.496  0.0305  0.1421  0.0111
  183POPC    C120969   4.850   3.058   8.447 -0.3710  0.2974  0.2387
  183POPC    HA20970   4.862   2.980   8.525  0.2982  0.6230  0.4662
  183POPC    HB20971   4.958   3.060   8.420 -0.0565  0.9677  1.4872
  183POPC    C220972   4.769   2.999   8.324  0.0778  0.1790  0.0922
  183POPC    HS20973   4.774   2.888   8.324 -0.3402  0.1424 -1.2987
  183POPC   O2120974   4.837   3.044   8.205  0.1216  0.4501  0.3172
  183POPC   C2120975   4.809   2.964   8.096  0.3622  0.1824 -0.0901
  183POPC   O2220976   4.736   2.868   8.096  0.3121 -0.1601 -0.4295
  183POPC   C2220977   4.875   3.028   7.976  0.3123 -0.2976  0.1426
  183POPC   H2R20978   4.927   3.121   8.008  0.6319 -0.4957  0.2030
  183POPC   H2S20979   4.793   3.073   7.916  0.7329 -0.5005 -0.5914
  183POPC    C320980   4.620   3.053   8.333  0.4266 -0.0181  0.5207
  183POPC    HX20981   4.612   3.163   8.346 -1.5116  0.1031 -1.1890
  183POPC    HY20982   4.582   3.010   8.429 -0.9718 -0.5704 -0.2608
  183POPC   O3120983   4.532   3.003   8.235 -0.0273  0.0132 -0.3616
  183POPC   C3120984   4.402   3.045   8.250 -0.7389  0.3770  0.6985
  183POPC   O3220985   4.358   3.111   8.343 -0.3252 -0.2079  0.1005
  183POPC   C3220986   4.322   2.976   8.140 -0.4541 -0.8241  0.9736
  183POPC   H2X20987   4.339   2.867   8.147  1.1469 -0.6800 -0.1947
  183POPC   H2Y20988   4.369   2.999   8.042 -1.7470 -2.6721 -0.1364
  183POPC   C2320989   4.957   2.935   7.878  0.1384 -0.3121  0.8980
  183POPC   H3R20990   5.017   2.853   7.923  0.0784 -1.9991 -1.8649
  183POPC   H3S20991   5.029   3.011   7.840 -0.6477 -0.4905 -1.0739
  183POPC   C2420992   4.876   2.881   7.755 -0.4757  0.2724 -1.3642
  183POPC   H4R20993   4.797   2.958   7.741 -2.6356 -1.6434 -0.2464
  183POPC   H4S20994   4.819   2.789   7.779 -1.3886  0.8328 -1.3254
  183POPC   C2520995   4.959   2.872   7.623 -0.0081 -0.1891 -0.5394
  183POPC   H5R20996   5.049   2.811   7.647 -0.9573 -2.0693 -1.5322
  183POPC   H5S20997   5.002   2.969   7.592 -0.9830  0.7815  0.9620
  183POPC   C2620998   4.890   2.803   7.507 -0.3089  0.0955 -0.0673
  183POPC   H6R20999   4.790   2.851   7.496 -0.5182 -0.5432 -1.0619
  183POPC   H6S21000   4.868   2.696   7.530 -2.9462  1.0997  2.9790
  183POPC   C2721001   4.973   2.806   7.383  0.3364  0.1445 -0.1731
  183POPC   H7R21002   5.073   2.762   7.401  0.2943 -0.2120 -0.7652
  183POPC   H7S21003   4.979   2.907   7.338  2.4386 -0.3566 -1.1309
  183POPC   C2821004   4.899   2.734   7.268 -0.1036  0.5874  0.5182
  183POPC   H8R21005   4.948   2.773   7.176 -1.4977  0.1041 -0.4549
  183POPC   H8S21006   4.797   2.777   7.273 -0.8619 -1.2037  1.0024
  183POPC   C2921007   4.898   2.582   7.269  0.8976  0.7124  0.5690
  183POPC   H9121008   4.840   2.538   7.351 -0.4208  0.1602 -0.6184
  183POPC  C21021009   4.944   2.498   7.173  0.2692 -0.2479  0.8305
  183POPC  H10121010   4.945   2.391   7.195  0.5626 -0.8015 -1.5672
  183POPC  C21121011   5.005   2.540   7.042 -0.4014  0.0963 -0.0897
  183POPC  H11R21012   5.062   2.456   6.996  0.1911 -0.9442  2.4100
  183POPC  H11S21013   5.070   2.629   7.052  0.8378 -0.6598 -1.0264
  183POPC  C21221014   4.900   2.588   6.933  0.0455 -0.2845  0.4137
  183POPC  H12R21015   4.863   2.691   6.955  2.7098  0.6759  0.7781
  183POPC  H12S21016   4.817   2.517   6.914  0.5338 -0.9017  0.5709
  183POPC  C21321017   4.979   2.609   6.800 -0.2048 -1.1604  0.6518
  183POPC  H13R21018   5.000   2.505   6.769 -1.1191 -1.1583 -0.0263
  183POPC  H13S21019   5.069   2.672   6.814 -1.0199 -0.1532  1.5976
  183POPC  C21421020   4.892   2.666   6.689 -0.3037 -0.6632 -0.0676
  183POPC  H14R21021   4.946   2.687   6.594 -2.0273  1.1735 -0.7158
  183POPC  H14S21022   4.856   2.762   6.731  0.7489  0.0225 -0.7032
  183POPC  C21521023   4.772   2.581   6.645 -0.0345  0.0468  0.2067
  183POPC  H15R21024   4.704   2.556   6.730 -0.8210  0.2957 -0.3317
  183POPC  H15S21025   4.801   2.481   6.605 -2.4477 -1.1230  1.1388
  183POPC  C21621026   4.664   2.651   6.550 -0.4873  0.1799  0.3081
  183POPC  H16R21027   4.631   2.749   6.591 -0.9628  1.1699 -2.2610
  183POPC  H16S21028   4.574   2.587   6.535  0.6095 -1.1471 -0.8499
  183POPC  C21721029   4.716   2.677   6.406 -0.2089  0.4946  0.0175
  183POPC  H17R21030   4.728   2.583   6.347 -1.0932  0.7138 -0.5387
  183POPC  H17S21031   4.817   2.719   6.424 -1.1279  2.8949 -0.0675
  183POPC  C21821032   4.640   2.771   6.315  0.8790 -0.1338 -0.0955
  183POPC  H18R21033   4.636   2.876   6.350  0.1082  0.1051 -0.8540
  183POPC  H18S21034   4.535   2.734   6.304  0.9115 -0.4117  0.5069
  183POPC  H18T21035   4.688   2.770   6.215  0.2597 -0.9396 -0.3966
  183POPC   C3321036   4.165   2.998   8.147  0.2814  0.6991 -0.0023
  183POPC   H3X21037   4.146   3.003   8.257 -2.3840  1.2193 -0.4178
  183POPC   H3Y21038   4.115   2.907   8.109  1.7394 -1.3167  2.5712
  183POPC   C3421039   4.118   3.119   8.070 -0.1207 -0.5107  0.3273
  183POPC   H4X21040   4.167   3.215   8.097 -1.8948  0.4663  0.2267
  183POPC   H4Y21041   4.011   3.143   8.091 -0.1704 -1.2328  0.9201
  183POPC   C3521042   4.123   3.110   7.915 -0.1243 -0.4889 -0.3123
  183POPC   H5X21043   4.048   3.036   7.879  1.3443 -2.2675  0.1804
  183POPC   H5Y21044   4.225   3.090   7.878 -0.7874 -0.5776 -2.2181
  183POPC   C3621045   4.081   3.248   7.857  0.2275  0.3560  0.1874
  183POPC   H6X21046   4.160   3.316   7.894  0.3962 -0.9862  2.5374
  183POPC   H6Y21047   3.988   3.269   7.914 -0.6671  0.6081 -1.3093
  183POPC   C3721048   4.067   3.258   7.707  0.5610  0.5427  0.3513
  183POPC   H7X21049   3.968   3.216   7.680  0.2543  1.1065  0.5827
  183POPC   H7Y21050   4.131   3.193   7.643 -0.0505  0.3306 -0.0543
  183POPC   C3821051   4.085   3.397   7.656  0.2890  0.3281 -0.3527
  183POPC   H8X21052   4.178   3.447   7.687  0.4053  0.1704 -0.4436
  183POPC   H8Y21053   4.013   3.460   7.712  3.0144  2.8996  0.4851
  183POPC   C3921054   4.077   3.417   7.506  0.1796 -0.0758 -0.1243
  183POPC   H9X21055   4.156   3.358   7.454  1.6358  0.9347  0.8694
  183POPC   H9Y21056   4.108   3.524   7.497 -0.7544  0.3996  1.8092
  183POPC  C31021057   3.932   3.414   7.459 -0.0322  0.6761  0.1947
  183POPC  H10X21058   3.870   3.473   7.530 -0.3271 -0.4557  0.9120
  183POPC  H10Y21059   3.891   3.311   7.462  2.8463 -0.5547  1.1763
  183POPC  C31121060   3.896   3.490   7.328  0.6470 -0.3561 -0.3807
  183POPC  H11X21061   3.962   3.443   7.253  2.1397 -0.1921  0.7787
  183POPC  H11Y21062   3.913   3.599   7.346 -1.6582 -0.0477  0.4046
  183POPC  C31221063   3.751   3.471   7.275  0.0787 -0.5460 -0.2313
  183POPC  H12X21064   3.673   3.526   7.332 -2.9719 -1.9910 -2.7027
  183POPC  H12Y21065   3.731   3.362   7.269 -0.0609 -0.6232  1.2610
  183POPC  C31321066   3.748   3.518   7.125  0.1540 -0.3871 -0.1624
  183POPC  H13X21067   3.837   3.472   7.077  0.6559 -1.4796  1.7114
  183POPC  H13Y21068   3.770   3.624   7.103 -0.1993 -0.5282 -1.2544
  183POPC  C31421069   3.623   3.472   7.052  0.3906 -0.8136 -0.2592
  183POPC  H14X21070   3.529   3.506   7.100  0.6552  0.0535 -0.3314
  183POPC  H14Y21071   3.602   3.363   7.062 -1.2818 -0.5954 -1.0212
  183POPC  C31521072   3.614   3.512   6.904  0.3765 -0.3835 -0.2511
  183POPC  H15X21073   3.617   3.623   6.896  0.0427 -0.4696 -1.8104
  183POPC  H15Y21074   3.517   3.475   6.864  1.4419 -1.1981 -2.1733
  183POPC  C31621075   3.721   3.439   6.826  0.1433 -0.0271 -0.4888
  183POPC  H16X21076   3.754   3.345   6.876 -0.2287 -0.2467 -0.6508
  183POPC  H16Y21077   3.813   3.500   6.817  1.8988 -2.5606 -0.9118
  183POPC  H16Z21078   3.689   3.404   6.725  0.8297  2.0488 -1.4696
  184POPC     N21079   0.118   5.110   8.428 -0.3022 -0.9376 -0.2563
  184POPC   C1221080   0.025   5.064   8.540  0.5527  0.4170  0.5020
  184POPC  H12A21081  -0.074   5.098   8.513  1.0521  0.9928 -0.6945
  184POPC  H12B21082   0.033   5.108   8.639 -4.4281 -0.9812  1.8338
  184POPC   C1321083   0.097   5.251   8.381  0.2752  0.3829 -0.4424
  184POPC  H13A21084   0.107   5.317   8.465  0.9506  0.1064 -0.3023
  184POPC  H13B21085   0.169   5.280   8.306 -0.2010 -0.2431 -1.1614
  184POPC  H13C21086   0.002   5.271   8.333  0.3916 -0.8992 -1.2671
  184POPC   C1421087   0.257   5.098   8.477 -0.1568 -0.1496  0.1785
  184POPC  H14A21088   0.275   5.138   8.576  2.1694 -0.2275 -0.1632
  184POPC  H14B21089   0.269   4.991   8.483 -0.1578 -0.3837 -2.6391
  184POPC  H14C21090   0.331   5.133   8.406 -1.4687  1.3765 -0.4916
  184POPC   C1521091   0.096   5.021   8.311 -0.3052  0.3122 -0.5566
  184POPC  H15A21092   0.163   5.047   8.231 -0.9555  0.8611 -0.9386
  184POPC  H15B21093  -0.007   5.023   8.278 -0.6618 -0.7874  0.3977
  184POPC  H15C21094   0.112   4.919   8.342 -1.8934  0.5042  1.1195
  184POPC   C1121095   0.005   4.912   8.568  0.6107  0.8178 -0.0720
  184POPC  H11A21096  -0.051   4.894   8.662  1.2882 -1.6359 -0.0716
  184POPC  H11B21097   0.101   4.860   8.589 -0.2809 -0.7400  0.3034
  184POPC     P21098  -0.229   4.850   8.454  0.1556 -0.1750  0.0906
  184POPC   O1321099  -0.270   4.991   8.470  0.0740 -0.2474  0.1297
  184POPC   O1421100  -0.301   4.761   8.549  0.4777  0.3433  1.2054
  184POPC   O1221101  -0.068   4.836   8.465  0.3880  0.2094 -0.3589
  184POPC   O1121102  -0.258   4.807   8.308 -0.3922 -0.2142  0.7026
  184POPC    C121103  -0.164   4.732   8.223  0.7565  0.1857 -0.0492
  184POPC    HA21104  -0.179   4.624   8.248 -1.3067  0.6735  1.0875
  184POPC    HB21105  -0.057   4.759   8.235  1.2034 -1.6698  0.5632
  184POPC    C221106  -0.201   4.767   8.069 -0.1856  0.5136  0.4489
  184POPC    HS21107  -0.160   4.684   8.008  2.0230  2.3655 -0.7529
  184POPC   O2121108  -0.126   4.884   8.033 -0.8212  0.3291 -0.1377
  184POPC   C2121109  -0.087   4.897   7.902 -0.0139 -1.0996  0.1802
  184POPC   O2221110  -0.091   4.809   7.822  0.0727 -0.1277  0.5893
  184POPC   C2221111  -0.038   5.040   7.874  0.6141 -0.8294 -0.5764
  184POPC   H2R21112   0.020   5.072   7.963  0.2609 -0.9675 -0.2915
  184POPC   H2S21113  -0.118   5.117   7.864  0.3975 -0.9297  0.3340
  184POPC    C321114  -0.355   4.788   8.053 -0.0927  0.7856 -0.1214
  184POPC    HX21115  -0.376   4.878   8.114 -5.1816 -0.5543  0.4814
  184POPC    HY21116  -0.411   4.707   8.104  0.3179  2.0491  2.4970
  184POPC   O3121117  -0.402   4.803   7.919 -0.0512 -0.1704 -0.3177
  184POPC   C3121118  -0.396   4.688   7.849  0.5841  0.3147  0.3393
  184POPC   O3221119  -0.364   4.581   7.894 -0.8510  0.4030 -0.5004
  184POPC   C3221120  -0.447   4.729   7.709  0.5024  0.0253 -0.0043
  184POPC   H2X21121  -0.419   4.832   7.678  0.2975 -0.6653 -2.8069
  184POPC   H2Y21122  -0.557   4.737   7.724  0.2464 -1.8777 -0.5992
  184POPC   C2321123   0.050   5.039   7.747  0.2247 -0.3376  0.0377
  184POPC   H3R21124   0.008   4.979   7.663 -0.9735 -2.3268  1.9744
  184POPC   H3S21125   0.149   5.003   7.780  1.5991  3.2746  0.3987
  184POPC   C2421126   0.076   5.176   7.694  0.1781 -0.2452  0.3592
  184POPC   H4R21127   0.097   5.242   7.782 -0.1189  0.0161  0.2375
  184POPC   H4S21128  -0.004   5.217   7.628 -0.6843 -3.0135 -0.4167
  184POPC   C2521129   0.206   5.168   7.606  0.3342 -0.7340 -0.0793
  184POPC   H5R21130   0.189   5.108   7.514  1.1930 -1.0427 -0.0536
  184POPC   H5S21131   0.279   5.099   7.653 -0.8949 -4.3189 -2.9967
  184POPC   C2621132   0.270   5.302   7.567  0.1796 -0.1579  0.5080
  184POPC   H6R21133   0.374   5.290   7.530  0.0489  1.0678 -0.3287
  184POPC   H6S21134   0.283   5.365   7.657 -0.9926 -1.1535  1.4071
  184POPC   C2721135   0.185   5.371   7.454  0.1054 -0.4628 -0.1375
  184POPC   H7R21136   0.110   5.442   7.495 -0.6109 -1.0942 -0.3035
  184POPC   H7S21137   0.121   5.303   7.393  0.5029 -1.2333  0.2976
  184POPC   C2821138   0.274   5.443   7.353 -0.2230 -0.5439  0.6664
  184POPC   H8R21139   0.357   5.390   7.303  0.4873  0.9346  0.2365
  184POPC   H8S21140   0.322   5.527   7.406  1.9172 -1.1507 -0.2274
  184POPC   C2921141   0.204   5.516   7.240  0.2528 -0.2699  0.1869
  184POPC   H9121142   0.124   5.584   7.272 -1.0760 -1.4361 -0.5738
  184POPC  C21021143   0.214   5.501   7.107  0.8529 -0.5829 -0.4778
  184POPC  H10121144   0.138   5.547   7.042 -0.3289 -0.5315  0.9028
  184POPC  C21121145   0.297   5.408   7.028 -0.2266  0.3920  0.2522
  184POPC  H11R21146   0.252   5.307   7.024  0.4613  0.0710  0.4912
  184POPC  H11S21147   0.400   5.396   7.069  0.1609  3.6116  0.4684
  184POPC  C21221148   0.318   5.470   6.891  0.5708  0.4411  0.6721
  184POPC  H12R21149   0.386   5.557   6.898  2.3256 -0.6918 -1.2061
  184POPC  H12S21150   0.217   5.493   6.850  0.2672 -1.5488  0.1975
  184POPC  C21321151   0.375   5.372   6.784 -0.6321 -0.1778 -0.0660
  184POPC  H13R21152   0.323   5.276   6.801  1.4992 -0.9840  2.6712
  184POPC  H13S21153   0.481   5.340   6.790 -0.5836 -0.0522 -0.2420
  184POPC  C21421154   0.361   5.431   6.639  0.3780 -0.1527 -0.5810
  184POPC  H14R21155   0.424   5.522   6.636  0.9582 -0.4749  1.1257
  184POPC  H14S21156   0.258   5.462   6.613  0.4104  2.3608  1.8410
  184POPC  C21521157   0.419   5.329   6.542 -0.0916 -1.4607  0.7218
  184POPC  H15R21158   0.349   5.243   6.555 -0.6278 -1.1095  0.2210
  184POPC  H15S21159   0.522   5.297   6.565  1.6332  2.1717 -1.1610
  184POPC  C21621160   0.419   5.378   6.397 -0.5466  0.4766  0.0184
  184POPC  H16R21161   0.465   5.479   6.398 -0.8992  0.7178  3.3835
  184POPC  H16S21162   0.318   5.396   6.352  0.0913  0.9319 -1.2967
  184POPC  C21721163   0.498   5.272   6.313  0.2603  0.4330 -0.0251
  184POPC  H17R21164   0.605   5.267   6.345 -0.1832 -1.6414  1.3089
  184POPC  H17S21165   0.497   5.316   6.211 -1.5887 -1.2751 -0.8078
  184POPC  C21821166   0.450   5.123   6.310  0.4448  0.0260  0.1073
  184POPC  H18R21167   0.497   5.076   6.399 -0.4844  0.2432  0.7232
  184POPC  H18S21168   0.487   5.063   6.224 -0.0956 -1.2879  0.7701
  184POPC  H18T21169   0.341   5.108   6.304  0.2599  1.7168 -1.8214
  184POPC   C3321170  -0.412   4.637   7.592 -0.0194 -0.4871  0.1429
  184POPC   H3X21171  -0.470   4.544   7.608 -1.4268 -0.1604 -2.6512
  184POPC   H3Y21172  -0.307   4.600   7.590 -0.1648 -0.9103 -2.4977
  184POPC   C3421173  -0.446   4.689   7.451  0.0536  0.2285  0.1888
  184POPC   H4X21174  -0.553   4.717   7.457  0.0080 -0.0517  0.7969
  184POPC   H4Y21175  -0.425   4.613   7.373  2.0206 -0.1051  0.9870
  184POPC   C3521176  -0.367   4.816   7.416 -0.1949 -0.3517  0.1432
  184POPC   H5X21177  -0.383   4.898   7.490  1.0860 -1.1657  1.3662
  184POPC   H5Y21178  -0.401   4.860   7.320  0.7839  3.1538  1.2512
  184POPC   C3621179  -0.212   4.801   7.408 -0.2250 -0.0881 -0.5844
  184POPC   H6X21180  -0.178   4.721   7.339 -0.1287  0.1908 -0.8591
  184POPC   H6Y21181  -0.189   4.764   7.511  0.0530  1.8790  0.1033
  184POPC   C3721182  -0.122   4.922   7.401  0.1951 -0.3412  0.0364
  184POPC   H7X21183  -0.020   4.893   7.432  0.1814 -2.2659 -1.5399
  184POPC   H7Y21184  -0.155   5.004   7.469  0.6102 -0.6918  0.6661
  184POPC   C3821185  -0.110   4.985   7.254  0.2743  0.2929  0.1359
  184POPC   H8X21186  -0.214   5.002   7.216  1.2482  1.3733 -2.2277
  184POPC   H8Y21187  -0.075   4.897   7.196 -0.9102 -0.1893  0.1094
  184POPC   C3921188  -0.040   5.118   7.248 -0.1872  0.0106  0.4809
  184POPC   H9X21189   0.064   5.119   7.287  0.2445 -2.4666 -0.4139
  184POPC   H9Y21190  -0.100   5.188   7.310 -1.9054 -0.2865 -0.7469
  184POPC  C31021191  -0.043   5.178   7.113 -0.4306 -0.2514 -0.5958
  184POPC  H10X21192  -0.005   5.282   7.115  0.0262 -0.4282  0.3334
  184POPC  H10Y21193  -0.151   5.196   7.092 -1.0798 -0.3192  2.2364
  184POPC  C31121194   0.032   5.102   7.002 -0.1772 -0.3546  0.8241
  184POPC  H11X21195  -0.001   4.996   6.998 -0.3681 -0.2882  0.6774
  184POPC  H11Y21196   0.141   5.104   7.025 -0.1187  0.2118  0.5055
  184POPC  C31221197   0.007   5.159   6.864  0.4699  0.0680  0.4167
  184POPC  H12X21198   0.049   5.262   6.862  1.1160 -0.2025 -0.2949
  184POPC  H12Y21199  -0.100   5.171   6.836  0.9348  1.2216 -0.9800
  184POPC  C31321200   0.078   5.084   6.757  0.2260  0.0590  0.2383
  184POPC  H13X21201   0.033   4.983   6.751 -0.8066  0.5836 -1.4222
  184POPC  H13Y21202   0.186   5.095   6.780 -0.0235 -0.5037  1.7835
  184POPC  C31421203   0.049   5.138   6.615  0.4196  0.0184 -0.2426
  184POPC  H14X21204   0.091   5.240   6.604  1.2691 -0.4288 -1.3829
  184POPC  H14Y21205  -0.062   5.132   6.608  0.2566 -2.8433  2.5625
  184POPC  C31521206   0.096   5.038   6.508 -0.4547  0.3219  0.1044
  184POPC  H15X21207   0.048   4.939   6.526  0.3515 -0.3408 -1.1981
  184POPC  H15Y21208   0.204   5.012   6.518 -0.8659 -1.4187  0.4828
  184POPC  C31621209   0.058   5.080   6.374  0.5871  0.3472  0.3218
  184POPC  H16X21210   0.099   5.180   6.348 -0.6714  0.9565  0.5922
  184POPC  H16Y21211  -0.051   5.105   6.373  0.9059  1.8647  0.1532
  184POPC  H16Z21212   0.086   5.009   6.294  1.6817  1.1620 -0.0324
  185POPC     N21213   2.389   4.950   3.512 -0.4252  0.5238 -0.2434
  185POPC   C1221214   2.338   5.086   3.554  0.8390  0.2307  0.1138
  185POPC  H12A21215   2.231   5.084   3.540  0.6138 -0.3644  1.6856
  185POPC  H12B21216   2.375   5.158   3.482 -2.2431  1.7431 -0.1483
  185POPC   C1321217   2.546   4.954   3.493  0.4816  0.1399 -0.2202
  185POPC  H13A21218   2.591   4.866   3.448  1.3571  0.4898 -0.0489
  185POPC  H13B21219   2.563   5.037   3.425  1.1752  1.3198  1.3316
  185POPC  H13C21220   2.583   4.988   3.589  0.1622 -0.8443  0.2694
  185POPC   C1421221   2.357   4.839   3.602  0.3523  0.0601 -1.1212
  185POPC  H14A21222   2.253   4.810   3.604  0.4803 -0.4102 -1.0936
  185POPC  H14B21223   2.409   4.747   3.578  0.0751 -0.0331 -1.3658
  185POPC  H14C21224   2.389   4.869   3.700  0.0240  1.0364 -1.3071
  185POPC   C1521225   2.331   4.923   3.380  0.7231 -0.4610  0.5720
  185POPC  H15A21226   2.372   4.986   3.302 -1.9615  0.2630 -0.3856
  185POPC  H15B21227   2.223   4.933   3.374  0.7847 -0.5346 -1.8969
  185POPC  H15C21228   2.341   4.820   3.350  2.3225  0.2130 -1.4325
  185POPC   C1121229   2.376   5.134   3.693 -0.0682  0.2872 -0.6102
  185POPC  H11A21230   2.317   5.070   3.762 -0.5574  0.3127 -0.9977
  185POPC  H11B21231   2.330   5.234   3.711  0.1205  1.1749 -4.3089
  185POPC     P21232   2.586   5.295   3.695  0.2226 -0.1981  0.2333
  185POPC   O1321233   2.524   5.377   3.587 -0.1258  0.3067 -0.0354
  185POPC   O1421234   2.734   5.285   3.679  0.1391  0.3146  0.0689
  185POPC   O1221235   2.520   5.140   3.709 -0.6927 -0.6485  0.6959
  185POPC   O1121236   2.560   5.351   3.841 -0.3060 -0.0690  0.0021
  185POPC    C121237   2.580   5.268   3.955 -0.0580  0.4890 -0.3178
  185POPC    HA21238   2.682   5.228   3.976 -0.1253  1.5790  2.3478
  185POPC    HB21239   2.528   5.170   3.947 -1.1822  0.9776  0.7177
  185POPC    C221240   2.523   5.333   4.083 -0.3680  0.2659 -0.8377
  185POPC    HS21241   2.585   5.419   4.117 -1.7473  1.2067 -0.6100
  185POPC   O2121242   2.497   5.226   4.178 -0.8609 -0.4835  0.2467
  185POPC   C2121243   2.608   5.178   4.230 -0.3107  0.8209  0.3617
  185POPC   O2221244   2.721   5.222   4.213 -0.1337 -0.8481  0.0519
  185POPC   C2221245   2.570   5.036   4.282  0.0273  0.1115 -0.6049
  185POPC   H2R21246   2.594   4.965   4.200  2.4351 -0.4632  0.5125
  185POPC   H2S21247   2.463   5.020   4.308 -0.2953 -0.3677 -2.0979
  185POPC    C321248   2.381   5.395   4.052  0.1038 -0.7302  0.2998
  185POPC    HX21249   2.325   5.308   4.013  1.5691 -0.8779 -1.6510
  185POPC    HY21250   2.383   5.466   3.967 -1.4072  0.4601  1.1974
  185POPC   O3121251   2.316   5.456   4.168 -0.0424 -0.7805  0.0292
  185POPC   C3121252   2.372   5.579   4.197 -0.7255  0.4177 -0.3346
  185POPC   O3221253   2.460   5.627   4.127  0.0196 -0.7402  0.1585
  185POPC   C3221254   2.334   5.625   4.342  0.4715 -0.0658 -0.6135
  185POPC   H2X21255   2.434   5.613   4.390 -0.7577 -0.6303  1.9525
  185POPC   H2Y21256   2.263   5.550   4.383  1.9884 -1.6960 -0.8542
  185POPC   C2321257   2.667   4.988   4.394 -0.0721 -0.5640 -0.3493
  185POPC   H3R21258   2.669   5.061   4.478  1.8159  0.4475 -1.2174
  185POPC   H3S21259   2.770   4.975   4.354 -0.0664  0.0810 -0.5590
  185POPC   C2421260   2.626   4.860   4.449  0.0419 -0.0342  0.2939
  185POPC   H4R21261   2.655   4.784   4.372  1.1904  0.1209  0.5485
  185POPC   H4S21262   2.518   4.865   4.473  0.4358  1.3396  1.9551
  185POPC   C2521263   2.702   4.808   4.573 -0.7146 -0.2734 -0.2887
  185POPC   H5R21264   2.810   4.797   4.550  0.3050  1.8876  2.7508
  185POPC   H5S21265   2.655   4.711   4.600  1.1622 -1.8876 -2.4698
  185POPC   C2621266   2.706   4.906   4.694 -0.1919 -0.0177  0.3012
  185POPC   H6R21267   2.602   4.940   4.716 -0.6444  0.8007 -2.5878
  185POPC   H6S21268   2.755   5.001   4.663 -0.9550  0.1319 -0.5180
  185POPC   C2721269   2.771   4.845   4.816  0.1664 -0.0614  0.3077
  185POPC   H7R21270   2.877   4.815   4.806  0.3906 -0.4001  2.9184
  185POPC   H7S21271   2.718   4.749   4.833 -1.2183 -0.0168 -2.9646
  185POPC   C2821272   2.774   4.931   4.944  1.0134 -0.1680 -0.0561
  185POPC   H8R21273   2.794   4.866   5.032  0.5345  1.1549  1.0805
  185POPC   H8S21274   2.679   4.987   4.956  2.1714  2.2522 -1.4351
  185POPC   C2921275   2.884   5.035   4.941  0.3378  0.7008  0.8674
  185POPC   H9121276   2.930   5.040   4.841  0.1601 -0.7288  0.6965
  185POPC  C21021277   2.936   5.099   5.047  0.4040  0.7015 -0.2092
  185POPC  H10121278   3.018   5.172   5.039  1.1869 -0.1235  0.1568
  185POPC  C21121279   2.894   5.093   5.191 -0.0216  0.0832  0.1309
  185POPC  H11R21280   2.818   5.015   5.216  1.9348 -2.9627 -2.5924
  185POPC  H11S21281   2.847   5.190   5.217 -0.5497 -0.1905  0.2108
  185POPC  C21221282   3.007   5.068   5.296  0.5829  0.0740 -0.3922
  185POPC  H12R21283   3.079   5.152   5.306 -0.3286  0.6813  1.5130
  185POPC  H12S21284   3.050   4.971   5.265  0.4160 -0.5413  1.1839
  185POPC  C21321285   2.953   5.065   5.440 -0.7228 -0.4901  0.5515
  185POPC  H13R21286   2.879   4.982   5.448 -2.7512  1.3515  1.9914
  185POPC  H13S21287   2.897   5.158   5.463 -2.8458 -1.3806 -0.6829
  185POPC  C21421288   3.049   5.034   5.549 -0.9279 -0.4721  0.0723
  185POPC  H14R21289   3.001   5.037   5.649  0.1212 -2.1006  0.6632
  185POPC  H14S21290   3.130   5.107   5.567 -0.2486 -1.3992  0.8929
  185POPC  C21521291   3.111   4.891   5.535 -0.3010 -0.1679 -0.3423
  185POPC  H15R21292   3.183   4.905   5.451 -1.0823  0.6214 -0.9024
  185POPC  H15S21293   3.032   4.814   5.522 -0.9623  0.5745 -0.8343
  185POPC  C21621294   3.174   4.849   5.668  0.0573  0.7262 -0.1068
  185POPC  H16R21295   3.101   4.866   5.750  2.0185  0.0160  1.8975
  185POPC  H16S21296   3.266   4.902   5.702  1.1864 -0.0916 -1.7696
  185POPC  C21721297   3.218   4.699   5.658 -0.1795 -0.1521 -0.0651
  185POPC  H17R21298   3.118   4.656   5.638 -2.4550  4.1897  0.8088
  185POPC  H17S21299   3.243   4.653   5.756  1.4080  1.3936  0.3190
  185POPC  C21821300   3.327   4.678   5.548  0.6317  0.4273 -0.3108
  185POPC  H18R21301   3.418   4.734   5.578  1.2089 -0.5177 -0.2681
  185POPC  H18S21302   3.297   4.727   5.453  0.8562  1.1875 -0.0016
  185POPC  H18T21303   3.357   4.573   5.528  1.3329  1.1293 -3.4603
  185POPC   C3321304   2.290   5.772   4.351 -0.2262 -0.0692  0.2365
  185POPC   H3X21305   2.180   5.782   4.347 -0.1553  0.4315 -0.8898
  185POPC   H3Y21306   2.330   5.832   4.266  1.0060  0.6996  1.3140
  185POPC   C3421307   2.336   5.849   4.479 -0.0479  0.1669  0.0660
  185POPC   H4X21308   2.313   5.958   4.486 -0.2197  0.0635  1.2991
  185POPC   H4Y21309   2.447   5.845   4.480 -0.0261  0.6188  1.5834
  185POPC   C3521310   2.283   5.795   4.606 -0.3083 -0.3126 -0.5388
  185POPC   H5X21311   2.306   5.687   4.611 -0.8376 -0.3695  1.9999
  185POPC   H5Y21312   2.172   5.802   4.609 -0.3398 -1.2080  2.0645
  185POPC   C3621313   2.353   5.851   4.735  0.0466  0.0667 -0.0705
  185POPC   H6X21314   2.381   5.957   4.716  0.2707  0.1652  0.7713
  185POPC   H6Y21315   2.446   5.797   4.763 -0.0912 -0.9586 -1.4760
  185POPC   C3721316   2.263   5.841   4.861 -0.5594  0.3782  1.0232
  185POPC   H7X21317   2.224   5.738   4.866  2.5211 -0.9673  0.1082
  185POPC   H7Y21318   2.181   5.912   4.837  0.5340  1.5964  0.7358
  185POPC   C3821319   2.327   5.884   4.988  0.1948 -0.1503  0.8047
  185POPC   H8X21320   2.374   5.983   4.971 -1.7210  0.6445 -0.1581
  185POPC   H8Y21321   2.410   5.819   5.025 -0.3730 -1.9673 -0.9323
  185POPC   C3921322   2.224   5.906   5.106 -0.4217 -0.5211  0.4083
  185POPC   H9X21323   2.124   5.859   5.091 -0.3375 -1.1530  1.6490
  185POPC   H9Y21324   2.205   6.015   5.109  1.6437 -0.1322  1.8735
  185POPC  C31021325   2.267   5.851   5.241  0.4976  0.3676 -0.0643
  185POPC  H10X21326   2.373   5.877   5.262  0.1530  1.2204  0.7261
  185POPC  H10Y21327   2.256   5.741   5.237  0.7522  0.3653 -0.6984
  185POPC  C31121328   2.175   5.897   5.350  0.1017  0.4767 -0.3073
  185POPC  H11X21329   2.066   5.884   5.331  0.3487 -0.2246 -1.3262
  185POPC  H11Y21330   2.189   6.006   5.364  1.1186  0.1507  1.5249
  185POPC  C31221331   2.194   5.833   5.489  0.3188  0.4745 -0.0890
  185POPC  H12X21332   2.290   5.865   5.536 -0.6159  0.0984  2.2554
  185POPC  H12Y21333   2.185   5.723   5.483 -2.7375  0.6623 -0.4188
  185POPC  C31321334   2.083   5.877   5.592 -0.3648  0.3173 -0.3715
  185POPC  H13X21335   2.081   5.798   5.670 -2.0315 -1.1840 -1.8501
  185POPC  H13Y21336   1.982   5.876   5.545  0.0972  1.0011 -1.4176
  185POPC  C31421337   2.124   6.010   5.661 -0.3252 -0.3459 -0.1376
  185POPC  H14X21338   2.154   6.072   5.574  3.4974  0.5182  1.5806
  185POPC  H14Y21339   2.215   5.999   5.724  0.5759  0.4279 -1.2639
  185POPC  C31521340   2.014   6.083   5.739  0.0818  0.6815  0.7961
  185POPC  H15X21341   1.952   6.130   5.660  1.0732 -0.8022 -0.9489
  185POPC  H15Y21342   2.060   6.169   5.791 -0.8196  1.3438  0.5225
  185POPC  C31621343   1.930   6.006   5.838  0.7323  0.1220  0.3731
  185POPC  H16X21344   1.910   5.907   5.791  2.4559  0.0168 -0.2130
  185POPC  H16Y21345   1.835   6.059   5.863  0.1982  0.2471 -1.7463
  185POPC  H16Z21346   1.981   5.978   5.933  0.1693  1.0575  0.9620
  186POPC     N21347   6.676   1.004   3.247 -0.3631  0.1412 -0.1617
  186POPC   C1221348   6.724   0.873   3.308  0.3894  0.2419 -0.9207
  186POPC  H12A21349   6.824   0.852   3.273  0.9228 -1.3928  1.3094
  186POPC  H12B21350   6.664   0.788   3.281  0.8398 -0.4603  0.1905
  186POPC   C1321351   6.751   1.130   3.295 -0.2306 -0.4326 -0.0167
  186POPC  H13A21352   6.713   1.214   3.239 -0.9874 -1.6198 -1.3654
  186POPC  H13B21353   6.729   1.142   3.400 -1.6769 -1.1185 -0.2113
  186POPC  H13C21354   6.857   1.122   3.276 -0.5871  0.1996 -2.6920
  186POPC   C1421355   6.681   0.986   3.101 -0.5166  0.0988  0.1469
  186POPC  H14A21356   6.782   0.988   3.063  0.6083 -2.4812  2.6515
  186POPC  H14B21357   6.626   0.898   3.070 -2.5875  0.1743  3.1843
  186POPC  H14C21358   6.631   1.070   3.055  0.2010 -0.1269 -1.1066
  186POPC   C1521359   6.537   1.031   3.290  0.9745 -0.5382  0.0326
  186POPC  H15A21360   6.501   1.126   3.254 -2.2500 -0.6332  2.5450
  186POPC  H15B21361   6.536   1.025   3.398 -0.1573  1.1219  0.1487
  186POPC  H15C21362   6.463   0.962   3.252  1.1859 -0.7246 -0.0457
  186POPC   C1121363   6.727   0.874   3.464  0.2285 -0.0077  0.4862
  186POPC  H11A21364   6.788   0.962   3.491 -1.5742  1.7295 -0.8681
  186POPC  H11B21365   6.782   0.782   3.494 -3.0528 -1.7341  1.6989
  186POPC     P21366   6.579   0.913   3.675 -0.3458 -0.0993 -0.1282
  186POPC   O1321367   6.447   0.973   3.696  0.3548  0.3741  0.6257
  186POPC   O1421368   6.687   1.009   3.714  0.1823  0.5396  0.2732
  186POPC   O1221369   6.595   0.868   3.521  0.6965  0.3145  0.1594
  186POPC   O1121370   6.589   0.789   3.764 -0.3159  0.5643 -0.2252
  186POPC    C121371   6.481   0.694   3.776  0.1119  0.1532 -0.0176
  186POPC    HA21372   6.527   0.593   3.776 -0.0768  0.0631  0.7001
  186POPC    HB21373   6.410   0.700   3.690 -1.2551  1.6040  1.1539
  186POPC    C221374   6.395   0.707   3.903 -0.5815 -1.3463 -0.5780
  186POPC    HS21375   6.334   0.800   3.901  0.3538 -0.7056 -0.0824
  186POPC   O2121376   6.477   0.717   4.019  0.4672  0.1226 -0.2005
  186POPC   C2121377   6.463   0.805   4.110  0.2937  0.1657  0.4252
  186POPC   O2221378   6.375   0.889   4.119 -0.3775 -0.3545  0.5974
  186POPC   C2221379   6.579   0.784   4.201  0.3215  0.1130 -0.1790
  186POPC   H2R21380   6.667   0.827   4.148 -0.6113 -1.2410 -3.0439
  186POPC   H2S21381   6.600   0.676   4.220  1.2686  0.1698 -0.8086
  186POPC    C321382   6.291   0.599   3.931  0.1067 -0.1047  0.4047
  186POPC    HX21383   6.348   0.509   3.960 -1.3905 -0.9180  0.9417
  186POPC    HY21384   6.229   0.585   3.840 -1.7933  1.7958  1.3265
  186POPC   O3121385   6.205   0.631   4.042 -0.6578  0.3853  0.0612
  186POPC   C3121386   6.131   0.534   4.086  0.2607 -0.6634 -0.1546
  186POPC   O3221387   6.121   0.428   4.032 -0.0677 -0.2875 -0.3889
  186POPC   C3221388   6.062   0.584   4.218 -0.1753 -0.6538  0.3047
  186POPC   H2X21389   5.965   0.530   4.205 -0.3809  0.0514 -1.4164
  186POPC   H2Y21390   6.055   0.694   4.215  0.2658 -0.6469 -0.6854
  186POPC   C2321391   6.550   0.862   4.339  0.0858 -0.1616  0.1754
  186POPC   H3R21392   6.462   0.823   4.395  0.1770 -0.3065  0.2210
  186POPC   H3S21393   6.527   0.968   4.318  0.8474  0.0441  0.3284
  186POPC   C2421394   6.682   0.865   4.425 -0.3276 -0.5433  0.2268
  186POPC   H4R21395   6.757   0.916   4.361 -1.5523  2.8497  1.2563
  186POPC   H4S21396   6.713   0.761   4.449 -0.9341 -0.5865  0.8422
  186POPC   C2521397   6.686   0.958   4.545 -0.4970  0.6852 -0.0027
  186POPC   H5R21398   6.598   1.027   4.544 -2.6003 -1.8262 -0.1300
  186POPC   H5S21399   6.779   1.019   4.545 -0.1327  0.1421 -0.8404
  186POPC   C2621400   6.689   0.898   4.686 -0.7367 -0.6685 -0.3446
  186POPC   H6R21401   6.595   0.843   4.710 -0.4993 -1.5121 -1.3017
  186POPC   H6S21402   6.701   0.988   4.750 -0.1320  0.3546 -1.8405
  186POPC   C2721403   6.788   0.784   4.710 -0.1981  0.2605  0.2107
  186POPC   H7R21404   6.888   0.817   4.677 -1.3819  2.0869 -1.8620
  186POPC   H7S21405   6.760   0.705   4.637  0.4897 -0.0651  0.2981
  186POPC   C2821406   6.795   0.724   4.858 -0.8383 -0.2719  0.3075
  186POPC   H8R21407   6.893   0.672   4.858  0.1035  1.3262 -1.8041
  186POPC   H8S21408   6.707   0.659   4.880 -2.5661  2.1350  0.9399
  186POPC   C2921409   6.807   0.831   4.968 -0.6545 -0.4223  0.4068
  186POPC   H9121410   6.878   0.911   4.943 -1.6703  0.6534  0.9213
  186POPC  C21021411   6.763   0.826   5.091  0.7171 -0.0977  0.0311
  186POPC  H10121412   6.773   0.917   5.153  0.6213  0.8756 -1.3311
  186POPC  C21121413   6.671   0.723   5.153 -0.3715 -0.6860 -0.0315
  186POPC  H11R21414   6.678   0.628   5.095  0.8251 -2.4629  2.8303
  186POPC  H11S21415   6.565   0.753   5.162 -0.6701 -1.1878 -1.4679
  186POPC  C21221416   6.717   0.681   5.296  0.4211 -0.2864 -0.1470
  186POPC  H12R21417   6.823   0.648   5.289  0.2282 -2.1509  3.4863
  186POPC  H12S21418   6.659   0.593   5.331 -0.3000 -0.0022 -0.5993
  186POPC  C21321419   6.717   0.796   5.408  0.1900  0.2287  0.1447
  186POPC  H13R21420   6.612   0.814   5.440  0.1791 -0.7930  0.7460
  186POPC  H13S21421   6.755   0.890   5.364  1.1107 -1.3796 -2.7487
  186POPC  C21421422   6.791   0.763   5.537  0.4028  0.2312 -0.3902
  186POPC  H14R21423   6.887   0.715   5.507  0.7775  0.8040 -0.1213
  186POPC  H14S21424   6.724   0.694   5.593 -0.1028  1.9139  1.1604
  186POPC  C21521425   6.823   0.885   5.627 -0.1982 -0.0094 -0.4786
  186POPC  H15R21426   6.730   0.945   5.642 -0.3118 -0.3618  0.3036
  186POPC  H15S21427   6.874   0.960   5.563  0.4451 -1.1503 -1.3452
  186POPC  C21621428   6.895   0.853   5.754  0.1674  0.6735 -0.3533
  186POPC  H16R21429   6.953   0.762   5.728 -2.3050 -1.2702  0.4825
  186POPC  H16S21430   6.820   0.817   5.828  2.0729 -2.6030  0.2022
  186POPC  C21721431   6.994   0.957   5.796  0.7445 -0.3150  0.0981
  186POPC  H17R21432   7.052   0.944   5.891  1.0861  0.6163  0.0317
  186POPC  H17S21433   6.932   1.046   5.819 -3.1075 -2.8267  0.4095
  186POPC  C21821434   7.113   0.984   5.704 -0.1284  0.2425  0.0408
  186POPC  H18R21435   7.184   1.058   5.748 -0.1740 -1.3901  3.1430
  186POPC  H18S21436   7.179   0.896   5.685  0.5782  0.2020  2.4207
  186POPC  H18T21437   7.075   1.025   5.608 -1.1166 -1.4647 -0.3424
  186POPC   C3321438   6.128   0.533   4.348 -0.6992 -0.0475 -0.0367
  186POPC   H3X21439   6.142   0.423   4.352 -2.1411 -0.2801 -0.7868
  186POPC   H3Y21440   6.043   0.556   4.417 -0.8652 -0.7993  0.0201
  186POPC   C3421441   6.248   0.619   4.382 -0.0327  0.3337 -0.5149
  186POPC   H4X21442   6.222   0.726   4.365 -2.4218 -0.2645 -1.0445
  186POPC   H4Y21443   6.332   0.589   4.316  1.0167  0.0397  0.9230
  186POPC   C3521444   6.306   0.602   4.522  0.2878  0.1522 -1.0088
  186POPC   H5X21445   6.403   0.655   4.513 -0.0297  0.7164 -1.1961
  186POPC   H5Y21446   6.322   0.496   4.550  0.7639 -0.4516 -3.3494
  186POPC   C3621447   6.234   0.665   4.634  0.0064 -0.4820  0.3306
  186POPC   H6X21448   6.126   0.646   4.620  0.1096 -0.4642 -0.5203
  186POPC   H6Y21449   6.237   0.775   4.615 -1.0888 -0.5611 -0.3819
  186POPC   C3721450   6.288   0.616   4.773  0.3508  0.8869 -0.0888
  186POPC   H7X21451   6.398   0.624   4.772  0.3769  0.4688 -0.8585
  186POPC   H7Y21452   6.270   0.507   4.771  2.7715  0.4436 -2.4538
  186POPC   C3821453   6.220   0.666   4.902 -0.0926 -0.4605 -0.2812
  186POPC   H8X21454   6.114   0.633   4.911  0.5919 -2.3985  1.2477
  186POPC   H8Y21455   6.226   0.777   4.899  0.0441 -0.4683 -0.3022
  186POPC   C3921456   6.293   0.622   5.035 -0.1623  0.2035  0.3631
  186POPC   H9X21457   6.395   0.667   5.031  0.6805 -1.6632 -0.3941
  186POPC   H9Y21458   6.305   0.512   5.038  0.6431  0.2920  3.1161
  186POPC  C31021459   6.205   0.673   5.157 -0.5810  0.3734 -0.5057
  186POPC  H10X21460   6.112   0.611   5.155 -0.0840 -0.3770 -0.9126
  186POPC  H10Y21461   6.183   0.780   5.137 -1.1227  0.4938  0.6108
  186POPC  C31121462   6.277   0.651   5.284 -0.1288  0.5356 -0.0817
  186POPC  H11X21463   6.376   0.701   5.269  0.6761 -0.9357  0.1840
  186POPC  H11Y21464   6.300   0.544   5.301 -1.1440  0.5041  1.1588
  186POPC  C31221465   6.208   0.709   5.413  0.2690  0.1738 -0.3406
  186POPC  H12X21466   6.118   0.649   5.438 -0.1703  0.3414 -1.4567
  186POPC  H12Y21467   6.160   0.806   5.387  0.7634  0.4020 -0.4070
  186POPC  C31321468   6.304   0.727   5.529 -0.2928  0.6462  0.3919
  186POPC  H13X21469   6.252   0.797   5.598  0.6532  0.6351  1.1325
  186POPC  H13Y21470   6.397   0.781   5.501 -0.1903 -0.3346 -1.3180
  186POPC  C31421471   6.340   0.594   5.604  0.0532 -0.4466 -0.6837
  186POPC  H14X21472   6.387   0.521   5.535  0.5513 -0.5086 -0.2893
  186POPC  H14Y21473   6.250   0.534   5.630 -1.2104  1.1901 -1.1148
  186POPC  C31521474   6.430   0.618   5.721 -0.1106 -0.4333 -0.6269
  186POPC  H15X21475   6.366   0.652   5.805  0.2683 -1.3640  0.0471
  186POPC  H15Y21476   6.500   0.702   5.699 -1.1524  1.8364  3.6469
  186POPC  C31621477   6.507   0.496   5.777  0.1986  0.0365  0.7467
  186POPC  H16X21478   6.579   0.516   5.859 -0.8963 -0.0037  1.7391
  186POPC  H16Y21479   6.549   0.436   5.694  0.0156 -0.5871  1.0971
  186POPC  H16Z21480   6.436   0.423   5.821  0.4253 -0.5539  0.1558
  187POPC     N21481   1.985   5.682   3.903 -0.4640  0.1121 -0.4910
  187POPC   C1221482   2.074   5.634   3.791  0.2164 -0.8388 -0.1231
  187POPC  H12A21483   2.166   5.691   3.796 -0.9244  1.1981 -0.9163
  187POPC  H12B21484   2.022   5.653   3.698 -2.0058 -2.9049  0.5888
  187POPC   C1321485   2.040   5.626   4.032  0.4068  0.1433  0.3984
  187POPC  H13A21486   1.987   5.674   4.113  1.2641 -0.2903  1.2414
  187POPC  H13B21487   2.024   5.519   4.031 -0.0072  0.2034 -0.8756
  187POPC  H13C21488   2.148   5.638   4.040  0.1617  2.6889  0.7034
  187POPC   C1421489   1.983   5.829   3.902 -0.5669 -0.1224 -0.1563
  187POPC  H14A21490   1.937   5.864   3.993 -2.4965 -2.9406  0.0968
  187POPC  H14B21491   2.079   5.877   3.893 -0.0339 -1.2818 -0.8690
  187POPC  H14C21492   1.923   5.874   3.824 -0.3496  0.3576 -0.0517
  187POPC   C1521493   1.845   5.637   3.887 -0.8772 -0.4371 -0.0078
  187POPC  H15A21494   1.853   5.530   3.874  3.7779 -0.3561  0.5312
  187POPC  H15B21495   1.793   5.672   3.799 -1.0135  1.4013  0.7632
  187POPC  H15C21496   1.781   5.668   3.969  0.5566 -1.5473  1.6137
  187POPC   C1121497   2.094   5.477   3.792 -0.6490 -0.6971 -0.0243
  187POPC  H11A21498   2.154   5.438   3.876  2.1903 -0.8470 -1.9939
  187POPC  H11B21499   2.156   5.463   3.701  0.5091 -1.0965  0.8130
  187POPC     P21500   1.947   5.266   3.834  0.1757  0.0234 -0.0060
  187POPC   O1321501   1.998   5.160   3.748 -0.2137 -0.4636  0.0954
  187POPC   O1421502   1.803   5.252   3.866  0.3063 -0.6238 -0.7695
  187POPC   O1221503   1.980   5.403   3.774  0.2830 -0.4212 -0.6034
  187POPC   O1121504   2.028   5.261   3.973 -0.7348  0.5759  0.1682
  187POPC    C121505   2.062   5.140   4.032 -0.3170 -0.3653  1.1808
  187POPC    HA21506   2.172   5.124   4.023  0.3018  2.7286  2.2170
  187POPC    HB21507   1.996   5.056   3.999 -0.2120 -0.6277  1.6214
  187POPC    C221508   2.025   5.133   4.182  0.2023  0.0635 -0.6585
  187POPC    HS21509   2.010   5.024   4.198  0.1687 -0.1127 -1.8123
  187POPC   O2121510   1.901   5.200   4.202 -0.2662  0.0896  0.0737
  187POPC   C2121511   1.820   5.141   4.295 -0.8852 -0.0284 -0.6134
  187POPC   O2221512   1.839   5.035   4.353 -0.1131  0.5803  0.0500
  187POPC   C2221513   1.703   5.237   4.320 -0.2227  0.7661  0.3829
  187POPC   H2R21514   1.678   5.267   4.216  0.3439 -1.5103 -0.4714
  187POPC   H2S21515   1.735   5.327   4.377 -0.0742  0.6575  0.4733
  187POPC    C321516   2.139   5.194   4.265  0.2005 -0.0846 -0.0194
  187POPC    HX21517   2.140   5.305   4.257 -1.1390  0.1981  2.6655
  187POPC    HY21518   2.236   5.158   4.225  0.0555  0.0447 -0.4887
  187POPC   O3121519   2.127   5.162   4.405  0.1903 -0.1717  0.2909
  187POPC   C3121520   2.149   5.036   4.437  0.0537  0.2430 -0.4001
  187POPC   O3221521   2.200   4.951   4.367  0.4696 -0.4146 -0.0194
  187POPC   C3221522   2.091   5.012   4.575  0.1238  0.1680 -0.7084
  187POPC   H2X21523   2.009   5.087   4.576  1.5283  1.8651 -2.9175
  187POPC   H2Y21524   2.174   5.038   4.644  0.3342 -2.6998  0.2202
  187POPC   C2321525   1.579   5.175   4.387 -0.1079 -0.2679 -0.2588
  187POPC   H3R21526   1.566   5.073   4.345  1.9283 -0.1063 -1.4150
  187POPC   H3S21527   1.490   5.239   4.369 -0.9320 -1.5632 -0.9390
  187POPC   C2421528   1.606   5.143   4.539 -0.0759  0.1941 -0.0369
  187POPC   H4R21529   1.708   5.182   4.560  0.8052 -1.9762  0.0366
  187POPC   H4S21530   1.608   5.033   4.554 -0.9671 -0.0269 -1.3427
  187POPC   C2521531   1.516   5.214   4.645  0.2248 -0.2597 -0.4850
  187POPC   H5R21532   1.421   5.156   4.651  0.3863 -0.3720  3.7700
  187POPC   H5S21533   1.481   5.315   4.615  2.0761  0.8194  0.8041
  187POPC   C2621534   1.569   5.236   4.787  0.2532  0.5573  0.6855
  187POPC   H6R21535   1.499   5.305   4.838  0.2839  1.2821 -0.2215
  187POPC   H6S21536   1.666   5.291   4.783 -0.8198  2.4871 -1.9128
  187POPC   C2721537   1.577   5.100   4.854 -0.3369  0.1452 -0.0304
  187POPC   H7R21538   1.656   5.051   4.793 -0.9377  1.1918 -1.7479
  187POPC   H7S21539   1.488   5.033   4.846  1.0549 -1.6794 -0.8873
  187POPC   C2821540   1.623   5.117   5.001  0.4348  0.6824  0.4193
  187POPC   H8R21541   1.707   5.190   5.003  0.2829  0.8584  0.4264
  187POPC   H8S21542   1.669   5.022   5.035  0.5842  0.8071  0.5675
  187POPC   C2921543   1.509   5.164   5.087 -0.0988 -0.4976 -0.2558
  187POPC   H9121544   1.473   5.266   5.066 -1.2846 -1.1904 -1.7859
  187POPC  C21021545   1.462   5.104   5.195  0.1224  0.5938  0.1558
  187POPC  H10121546   1.372   5.141   5.247 -0.3893  0.0825 -0.3443
  187POPC  C21121547   1.504   4.969   5.252 -0.1198  0.0812  0.0738
  187POPC  H11R21548   1.600   4.932   5.211 -1.6605  0.3751 -4.3901
  187POPC  H11S21549   1.437   4.892   5.208  0.6004 -0.5613  0.0764
  187POPC  C21221550   1.513   4.964   5.404  0.0511 -0.2177  0.8295
  187POPC  H12R21551   1.413   5.001   5.433 -0.3021 -0.0678 -0.5301
  187POPC  H12S21552   1.597   5.030   5.437 -1.4414  3.5792 -2.2140
  187POPC  C21321553   1.529   4.823   5.452 -0.7388  0.0143 -0.4819
  187POPC  H13R21554   1.479   4.752   5.382 -2.4185  0.7267 -0.0680
  187POPC  H13S21555   1.487   4.799   5.553 -0.0327 -0.2833 -0.2582
  187POPC  C21421556   1.681   4.783   5.461 -0.6527 -0.5732  0.0791
  187POPC  H14R21557   1.738   4.854   5.526  0.1794 -0.0777 -1.1621
  187POPC  H14S21558   1.712   4.810   5.358 -1.5948 -1.0182 -0.3297
  187POPC  C21521559   1.722   4.644   5.504  0.6698 -0.1320  0.5245
  187POPC  H15R21560   1.826   4.622   5.474  0.7347  1.7831 -0.8675
  187POPC  H15S21561   1.659   4.579   5.439  0.4463 -0.9614  1.5447
  187POPC  C21621562   1.709   4.609   5.654 -0.3196  0.1209  0.2834
  187POPC  H16R21563   1.643   4.520   5.663 -0.0033 -0.3023 -1.3098
  187POPC  H16S21564   1.659   4.694   5.704  2.4758  1.5073  0.9296
  187POPC  C21721565   1.846   4.571   5.718  0.5645  0.2870  0.2134
  187POPC  H17R21566   1.922   4.650   5.699  2.6612 -1.4960  0.8187
  187POPC  H17S21567   1.885   4.479   5.670  0.9753  0.4354  0.2590
  187POPC  C21821568   1.856   4.553   5.877  0.3822 -0.0923  1.2776
  187POPC  H18R21569   1.820   4.644   5.929 -0.5786  0.0300  0.4289
  187POPC  H18S21570   1.962   4.536   5.907  0.1576 -0.0385  2.1232
  187POPC  H18T21571   1.791   4.468   5.908  1.0912 -0.1715  2.6364
  187POPC   C3321572   2.031   4.873   4.612 -0.1195  0.3636 -0.0028
  187POPC   H3X21573   2.112   4.809   4.652  0.0193 -0.0200 -0.8849
  187POPC   H3Y21574   1.998   4.822   4.519 -0.4752 -0.4337  0.5473
  187POPC   C3421575   1.910   4.900   4.703  0.3545 -0.4477 -0.0766
  187POPC   H4X21576   1.860   4.801   4.701 -1.2678  0.2195 -4.1681
  187POPC   H4Y21577   1.838   4.971   4.656  0.7573  0.8757  1.2260
  187POPC   C3521578   1.937   4.946   4.851 -0.1428 -0.2185 -0.0273
  187POPC   H5X21579   1.838   4.967   4.898 -0.2000  1.0734 -0.6752
  187POPC   H5Y21580   1.988   5.045   4.844 -1.4292  0.6340  1.7461
  187POPC   C3621581   2.016   4.844   4.933  0.1480  0.0752 -0.6456
  187POPC   H6X21582   2.123   4.851   4.903  0.4326  3.4081  0.7353
  187POPC   H6Y21583   1.980   4.741   4.911 -1.6462  0.5269  0.0286
  187POPC   C3721584   2.013   4.872   5.085  0.8474 -0.2995 -0.1958
  187POPC   H7X21585   2.093   4.808   5.127 -0.1981 -0.1923  2.0787
  187POPC   H7Y21586   1.912   4.847   5.126 -0.3334 -0.2304 -2.8567
  187POPC   C3821587   2.047   5.015   5.117 -0.4274  0.3566  0.1055
  187POPC   H8X21588   1.974   5.081   5.066 -1.3200 -0.3678  0.4247
  187POPC   H8Y21589   2.148   5.052   5.088  0.1878 -0.6410  0.9055
  187POPC   C3921590   2.023   5.036   5.270  0.4554  0.2370 -0.2739
  187POPC   H9X21591   1.913   5.049   5.275  0.4818  0.8215 -1.0224
  187POPC   H9Y21592   2.056   5.136   5.303 -2.2884  1.5835 -1.3178
  187POPC  C31021593   2.075   4.924   5.366 -1.1699  0.3351 -0.3624
  187POPC  H10X21594   2.184   4.921   5.344 -1.1151  0.8991 -0.1769
  187POPC  H10Y21595   2.032   4.824   5.343 -2.0032  0.2925  1.2497
  187POPC  C31121596   2.073   4.956   5.522  0.0542 -0.2799  0.3510
  187POPC  H11X21597   1.970   4.994   5.536 -0.7863 -1.8063 -1.3283
  187POPC  H11Y21598   2.142   5.041   5.544 -1.6524  1.3464 -0.3634
  187POPC  C31221599   2.114   4.834   5.603  0.7925  0.0879 -0.3345
  187POPC  H12X21600   2.224   4.816   5.601  1.0841  1.4612  1.5357
  187POPC  H12Y21601   2.063   4.748   5.554  3.7980 -0.4700 -2.8111
  187POPC  C31321602   2.087   4.841   5.752 -0.0108  0.2573 -0.5241
  187POPC  H13X21603   2.121   4.740   5.781  1.2593  0.7739 -0.1343
  187POPC  H13Y21604   1.981   4.855   5.781  0.2930 -1.7345  1.8281
  187POPC  C31421605   2.177   4.929   5.838 -0.4104 -0.1073  0.1701
  187POPC  H14X21606   2.177   5.039   5.822 -1.2071 -0.1747 -0.3217
  187POPC  H14Y21607   2.281   4.901   5.809 -0.5321  0.5244 -0.9318
  187POPC  C31521608   2.147   4.903   5.988  0.3076  0.2197  0.5260
  187POPC  H15X21609   2.240   4.930   6.042 -0.4887  2.4460  0.8884
  187POPC  H15Y21610   2.118   4.796   5.999  2.3904 -0.8497 -2.8240
  187POPC  C31621611   2.034   4.998   6.040 -0.4758 -0.2057 -0.2769
  187POPC  H16X21612   2.056   5.106   6.020  0.0370 -0.3581 -0.5561
  187POPC  H16Y21613   2.016   4.978   6.148  1.6696  1.4973  0.4841
  187POPC  H16Z21614   1.948   4.974   5.975 -0.8226  2.1254 -0.7803
  188POPC     N21615   0.194   0.076   3.668  0.2807 -0.3009 -0.1434
  188POPC   C1221616   0.229   0.077   3.813  0.3828  0.6344 -0.6999
  188POPC  H12A21617   0.320   0.136   3.818 -0.2253  1.6549 -1.3440
  188POPC  H12B21618   0.257  -0.018   3.857  2.0918  1.6736  0.5881
  188POPC   C1321619   0.315   0.041   3.582 -0.0313  0.0659 -0.1120
  188POPC  H13A21620   0.364  -0.052   3.604  1.3002  0.5249 -0.9814
  188POPC  H13B21621   0.282   0.023   3.481  0.6452  1.0605 -0.5356
  188POPC  H13C21622   0.384   0.124   3.587  0.6446 -0.5196  0.3720
  188POPC   C1421623   0.080  -0.017   3.643 -0.3556 -0.5486  0.2857
  188POPC  H14A21624   0.115  -0.117   3.668 -0.2415  0.2126  3.6807
  188POPC  H14B21625  -0.007   0.011   3.701 -0.3199  0.9033 -0.3403
  188POPC  H14C21626   0.061   0.006   3.540 -1.8346 -0.2556  0.6005
  188POPC   C1521627   0.149   0.206   3.619  0.4243 -0.2231 -0.2107
  188POPC  H15A21628   0.057   0.241   3.663  0.7412  1.7918 -1.0382
  188POPC  H15B21629   0.137   0.210   3.512  0.8768  0.5255 -0.2345
  188POPC  H15C21630   0.214   0.287   3.648 -0.9720  1.1542 -0.7708
  188POPC   C1121631   0.131   0.147   3.906  0.2204 -0.1547 -0.1331
  188POPC  H11A21632   0.133   0.105   4.009  2.2602  0.7573  0.2530
  188POPC  H11B21633   0.028   0.141   3.865  0.0495  2.7194 -0.3159
  188POPC     P21634   0.275   0.341   3.990  0.3751 -0.1070  0.1884
  188POPC   O1321635   0.303   0.483   3.944  0.9127  0.2691 -0.0310
  188POPC   O1421636   0.384   0.243   3.985 -0.8088  0.2889  0.1965
  188POPC   O1221637   0.157   0.280   3.904 -0.4035 -0.8486  0.1384
  188POPC   O1121638   0.213   0.336   4.138  0.1347  0.0549 -0.5171
  188POPC    C121639   0.088   0.404   4.156  0.1282  0.7476 -0.4289
  188POPC    HA21640  -0.000   0.345   4.121 -0.5738  1.0583  0.7478
  188POPC    HB21641   0.091   0.505   4.110  0.2724 -0.1623 -2.5378
  188POPC    C221642   0.072   0.435   4.308 -0.3533 -0.9911  0.1961
  188POPC    HS21643  -0.015   0.502   4.318  1.2878  1.7540 -2.3115
  188POPC   O2121644   0.187   0.507   4.352 -0.4600 -0.1566  0.3138
  188POPC   C2121645   0.184   0.634   4.341 -0.3180 -0.7251  0.2573
  188POPC   O2221646   0.095   0.705   4.297  0.2810  0.6053  0.5182
  188POPC   C2221647   0.322   0.680   4.400  0.2389  0.3923 -0.6546
  188POPC   H2R21648   0.407   0.657   4.332 -0.0207 -0.6127 -0.6615
  188POPC   H2S21649   0.351   0.610   4.482  1.8375  2.3315  0.5188
  188POPC    C321650   0.059   0.308   4.395  0.2168  0.3850 -0.2187
  188POPC    HX21651   0.149   0.249   4.367 -0.8207 -1.3264 -0.0827
  188POPC    HY21652  -0.024   0.246   4.356  0.5939 -0.8455  0.8683
  188POPC   O3121653   0.051   0.350   4.538  0.2378  0.3686 -0.7102
  188POPC   C3121654   0.166   0.359   4.607 -1.1633 -0.8203 -0.7115
  188POPC   O3221655   0.280   0.337   4.559  0.3598  0.6116  0.1370
  188POPC   C3221656   0.128   0.397   4.750 -0.2669  0.5710  0.0027
  188POPC   H2X21657   0.057   0.318   4.782 -0.0421 -0.1286 -1.1966
  188POPC   H2Y21658   0.073   0.494   4.750 -0.6987  0.3948 -2.5154
  188POPC   C2321659   0.323   0.829   4.440  0.1215 -0.2984 -0.1848
  188POPC   H3R21660   0.224   0.862   4.478 -0.0367 -2.5963  1.6095
  188POPC   H3S21661   0.328   0.881   4.342 -1.1897 -0.7070 -0.4935
  188POPC   C2421662   0.429   0.866   4.546  0.0433  0.7943 -0.0822
  188POPC   H4R21663   0.446   0.975   4.539  1.4189  0.6310  0.5448
  188POPC   H4S21664   0.522   0.809   4.528 -1.1270 -1.3656  0.3230
  188POPC   C2521665   0.387   0.830   4.686  0.0490  0.6754 -0.2592
  188POPC   H5R21666   0.383   0.720   4.695 -0.8060  0.8250  1.8347
  188POPC   H5S21667   0.279   0.853   4.701 -0.1066 -0.9588  1.4623
  188POPC   C2621668   0.481   0.876   4.796 -0.4986 -0.0355  0.2748
  188POPC   H6R21669   0.485   0.984   4.820 -2.5780 -0.1460  1.3015
  188POPC   H6S21670   0.584   0.863   4.755 -0.7782  1.1208 -0.8413
  188POPC   C2721671   0.450   0.801   4.927  0.4025  0.2888 -0.6075
  188POPC   H7R21672   0.530   0.822   5.002  0.5911 -1.1636 -0.3831
  188POPC   H7S21673   0.465   0.692   4.913  1.9972  0.3978  0.0353
  188POPC   C2821674   0.305   0.827   4.983 -0.7293  0.7708 -0.3983
  188POPC   H8R21675   0.240   0.787   4.903  1.1557  1.4939 -2.3834
  188POPC   H8S21676   0.284   0.936   4.982 -0.1960  0.8780 -1.3624
  188POPC   C2921677   0.283   0.752   5.119 -0.1072  0.3544  0.5278
  188POPC   H9121678   0.227   0.658   5.104 -2.5319  1.6762  0.7109
  188POPC  C21021679   0.334   0.783   5.243 -0.0285  0.1668 -0.4996
  188POPC  H10121680   0.296   0.737   5.335  0.4787  1.3256  0.3197
  188POPC  C21121681   0.419   0.897   5.280  0.0909 -0.9670  0.1161
  188POPC  H11R21682   0.392   0.978   5.351 -0.9003 -0.6850 -0.5645
  188POPC  H11S21683   0.436   0.953   5.185 -0.8828 -3.2256 -1.4998
  188POPC  C21221684   0.554   0.848   5.333 -0.0172 -0.2657  0.1254
  188POPC  H12R21685   0.635   0.915   5.298 -1.8852  1.0098 -2.0995
  188POPC  H12S21686   0.575   0.747   5.291 -0.2040 -0.5382  0.6692
  188POPC  C21321687   0.537   0.836   5.490 -0.4001  0.6042  0.1646
  188POPC  H13R21688   0.433   0.805   5.513 -1.2504  0.7742 -3.0153
  188POPC  H13S21689   0.543   0.940   5.529  0.0902  1.1264 -1.2479
  188POPC  C21421690   0.641   0.739   5.562  0.0140  0.5649 -0.0015
  188POPC  H14R21691   0.744   0.769   5.532 -0.3571  0.9465 -0.9504
  188POPC  H14S21692   0.635   0.634   5.526  0.8298  0.6002 -0.2632
  188POPC  C21521693   0.618   0.727   5.715 -0.5571 -0.4299  0.1790
  188POPC  H15R21694   0.685   0.646   5.752 -2.6256 -1.9415  0.8132
  188POPC  H15S21695   0.511   0.700   5.732 -0.2948 -0.8203  1.2849
  188POPC  C21621696   0.647   0.854   5.794 -0.5878 -0.3645 -0.7082
  188POPC  H16R21697   0.581   0.937   5.764  0.8999  1.7073  1.3987
  188POPC  H16S21698   0.754   0.879   5.782 -0.2610 -0.5357  1.4439
  188POPC  C21721699   0.649   0.847   5.946 -0.5786  0.5838  0.1017
  188POPC  H17R21700   0.695   0.944   5.974  0.5710  0.1844 -0.3074
  188POPC  H17S21701   0.723   0.768   5.972 -1.0664 -0.1729 -0.7321
  188POPC  C21821702   0.522   0.828   6.024 -0.4242 -0.4431 -0.3705
  188POPC  H18R21703   0.547   0.849   6.131  3.5563 -2.4097 -0.7180
  188POPC  H18S21704   0.482   0.725   6.026 -1.5312 -0.0255  0.9754
  188POPC  H18T21705   0.438   0.896   5.999 -0.0895 -0.2768 -1.0601
  188POPC   C3321706   0.243   0.384   4.859 -0.2864 -0.0412  0.5925
  188POPC   H3X21707   0.307   0.473   4.844 -0.9998  0.2202 -1.2434
  188POPC   H3Y21708   0.310   0.295   4.854 -0.4667 -0.1544 -3.0675
  188POPC   C3421709   0.173   0.365   4.990  0.8581 -0.2176  0.5853
  188POPC   H4X21710   0.112   0.274   4.999 -0.3599  0.4946 -0.2716
  188POPC   H4Y21711   0.112   0.457   4.980  0.6225 -0.5232 -1.0379
  188POPC   C3521712   0.266   0.367   5.114 -0.1611  0.1523 -0.1939
  188POPC   H5X21713   0.349   0.440   5.103  0.5852 -0.9894 -2.7519
  188POPC   H5Y21714   0.305   0.264   5.110 -2.9978 -0.9973 -3.3269
  188POPC   C3621715   0.198   0.408   5.245 -0.7247 -0.4798 -0.8100
  188POPC   H6X21716   0.140   0.323   5.288  1.0604 -0.3830  1.9980
  188POPC   H6Y21717   0.133   0.496   5.225 -0.1567  0.0045 -0.5410
  188POPC   C3721718   0.302   0.425   5.364 -0.0230  0.3076 -0.0240
  188POPC   H7X21719   0.362   0.518   5.353  1.8794 -0.8727  0.1366
  188POPC   H7Y21720   0.363   0.333   5.365 -1.0234 -0.3665 -0.0182
  188POPC   C3821721   0.225   0.435   5.497 -0.0457 -0.0436  0.4491
  188POPC   H8X21722   0.162   0.344   5.511  0.9615 -1.3194 -2.4727
  188POPC   H8Y21723   0.166   0.529   5.494  3.0079  2.0215 -1.9375
  188POPC   C3921724   0.322   0.465   5.611  0.2729 -0.0858 -0.7392
  188POPC   H9X21725   0.375   0.557   5.578  1.3165  0.1005  1.2771
  188POPC   H9Y21726   0.401   0.388   5.611  0.1995 -0.1632 -1.3770
  188POPC  C31021727   0.252   0.492   5.747 -0.6096 -0.7192 -0.0287
  188POPC  H10X21728   0.191   0.582   5.725  3.2808  2.8842  2.4052
  188POPC  H10Y21729   0.330   0.540   5.809 -1.0070  0.3560 -0.3433
  188POPC  C31121730   0.178   0.370   5.807 -0.4323  0.4696  0.7326
  188POPC  H11X21731   0.136   0.310   5.724  0.4918 -0.5227  0.9604
  188POPC  H11Y21732   0.093   0.395   5.875 -0.4445 -0.4082  1.0576
  188POPC  C31221733   0.269   0.268   5.877  0.2609  0.3594 -0.1206
  188POPC  H12X21734   0.352   0.236   5.811  2.3234  1.3631  1.8714
  188POPC  H12Y21735   0.203   0.179   5.885 -0.6087  0.8753 -1.2326
  188POPC  C31321736   0.329   0.311   6.014 -0.1407  0.0787  0.2370
  188POPC  H13X21737   0.243   0.357   6.066  0.3839  0.1052  1.0985
  188POPC  H13Y21738   0.415   0.381   6.001 -0.7765  1.2166  1.8561
  188POPC  C31421739   0.395   0.193   6.092  0.2608 -0.5310  0.0900
  188POPC  H14X21740   0.486   0.165   6.036 -0.4995 -0.0856 -1.4261
  188POPC  H14Y21741   0.336   0.098   6.090 -1.1635  0.2910  0.8875
  188POPC  C31521742   0.442   0.223   6.241  0.2372 -0.0594  0.3389
  188POPC  H15X21743   0.493   0.321   6.241 -0.1492  0.1415  0.6436
  188POPC  H15Y21744   0.521   0.146   6.259  0.6619  0.6588  1.6658
  188POPC  C31621745   0.330   0.201   6.345  0.0521  0.6730 -0.6918
  188POPC  H16X21746   0.244   0.267   6.323  1.3134  2.2900 -0.9125
  188POPC  H16Y21747   0.371   0.208   6.448  1.3450 -1.7299 -0.9539
  188POPC  H16Z21748   0.298   0.095   6.341 -2.1869  1.1021  2.3884
  189SAPI   C1221749   6.238   5.860   8.300  0.3472  0.0250  0.4352
  189SAPI    H221750   6.263   5.929   8.217 -0.0162  0.3687  0.6098
  189SAPI    O221751   6.108   5.815   8.290 -0.3313 -0.2386 -0.1176
  189SAPI   HO221752   6.101   5.765   8.208  0.2041 -0.9194  0.2433
  189SAPI   C1321753   6.340   5.742   8.295 -0.0605 -0.2005  0.3342
  189SAPI    H321754   6.439   5.790   8.309 -1.8587  3.3981  2.1181
  189SAPI    O321755   6.342   5.677   8.169 -0.0809 -0.0052  0.3091
  189SAPI   HO321756   6.256   5.664   8.128  1.1979 -4.4148 -1.5542
  189SAPI   C1421757   6.308   5.643   8.407 -0.5700 -0.3519  0.7224
  189SAPI    H421758   6.219   5.583   8.379  0.0350 -0.2959 -1.5083
  189SAPI    O421759   6.409   5.541   8.410  0.1058 -0.5093  0.4896
  189SAPI   HO421760   6.404   5.499   8.324  0.9954  2.6590 -1.2524
  189SAPI   C1521761   6.280   5.707   8.545  0.1146  0.3626  0.1493
  189SAPI    H521762   6.383   5.703   8.586  0.0095 -2.9507  0.3887
  189SAPI    O521763   6.208   5.616   8.624  0.6827 -0.0001  0.3277
  189SAPI   HO521764   6.115   5.621   8.600  0.3874 -0.6801  1.2366
  189SAPI   C1621765   6.226   5.847   8.547 -0.6856 -0.8675  0.0730
  189SAPI    H621766   6.116   5.838   8.539 -1.0726  1.7733  1.2346
  189SAPI    O621767   6.250   5.906   8.676 -0.2371  0.1076 -0.1291
  189SAPI   HO621768   6.164   5.942   8.701 -1.2608 -1.1471 -1.6005
  189SAPI   C1121769   6.267   5.934   8.424  0.1730  0.4410 -0.7514
  189SAPI    H121770   6.376   5.951   8.440 -0.2439  1.0550  1.9945
  189SAPI     P21771   6.252   6.205   8.399  0.0497 -0.0109  0.2689
  189SAPI   O1321772   6.385   6.225   8.460 -0.3765  0.1033  0.1129
  189SAPI   O1421773   6.147   6.295   8.434  0.6656  0.1798  0.4348
  189SAPI   O1221774   6.199   6.060   8.444 -0.3139 -0.5002  0.0192
  189SAPI   O1121775   6.264   6.195   8.239  0.5887  0.2332  0.1545
  189SAPI    C121776   6.289   6.309   8.155  0.2989 -0.4342  0.0737
  189SAPI    HA21777   6.238   6.398   8.196  1.2442 -0.5438  1.5728
  189SAPI    HB21778   6.397   6.336   8.152 -0.1163  1.2287 -0.6416
  189SAPI    C221779   6.228   6.296   8.007 -0.9049 -0.4235 -0.0784
  189SAPI    HS21780   6.119   6.284   8.017 -0.8959 -2.0244 -1.5198
  189SAPI   O2121781   6.294   6.180   7.952 -0.6529 -0.0199  0.3743
  189SAPI   C2121782   6.216   6.100   7.882 -0.8914  0.3853 -0.4407
  189SAPI   O2221783   6.095   6.112   7.876 -0.1109 -0.0404  0.8205
  189SAPI   C2221784   6.306   5.999   7.805 -0.6769 -0.0417  0.2963
  189SAPI   H2R21785   6.327   6.062   7.716  0.6070 -0.1899  0.4808
  189SAPI   H2S21786   6.394   5.980   7.869 -0.4363 -0.5187 -0.1679
  189SAPI    C321787   6.260   6.420   7.919 -0.3490  0.8878  0.3215
  189SAPI    HX21788   6.369   6.430   7.900 -0.6275  0.8980 -1.4131
  189SAPI    HY21789   6.226   6.512   7.970 -0.4127  1.0426  0.0003
  189SAPI   O3121790   6.205   6.398   7.784 -0.5401 -0.5227 -0.0357
  189SAPI   C3121791   6.085   6.445   7.760 -0.3596  0.1525 -0.0916
  189SAPI   O3221792   6.002   6.483   7.846  0.2302  0.1626 -0.2863
  189SAPI   C3221793   6.059   6.435   7.604 -0.1340 -0.6979 -0.1646
  189SAPI   H2X21794   6.142   6.401   7.539 -1.7955 -0.9348 -2.2853
  189SAPI   H2Y21795   6.044   6.541   7.575  1.5930 -0.5055 -0.4085
  189SAPI   C2321796   6.246   5.855   7.768 -0.3014 -0.6245 -0.4567
  189SAPI   H3R21797   6.148   5.892   7.731 -0.5054  1.8672  2.1996
  189SAPI   H3S21798   6.226   5.793   7.858  0.0761 -1.3401 -0.8516
  189SAPI   C2421799   6.334   5.780   7.670  0.0888  0.6629  0.6628
  189SAPI   H4R21800   6.265   5.705   7.624  0.8719 -0.2573  0.9454
  189SAPI   H4S21801   6.416   5.718   7.712 -0.2984  0.0918  0.5842
  189SAPI   C2521802   6.377   5.870   7.557  0.4742  0.9462  0.6810
  189SAPI   H5R21803   6.479   5.903   7.578  0.7607  0.2875  0.3554
  189SAPI   C2621804   6.318   5.904   7.442  0.0571 -0.2470 -0.5657
  189SAPI   H6R21805   6.375   5.962   7.368 -0.8998  1.2156 -0.2080
  189SAPI   C2721806   6.175   5.880   7.403 -0.2784  1.4220 -0.2669
  189SAPI   H7R21807   6.123   5.842   7.494 -0.1676 -1.5959 -1.3469
  189SAPI   H7S21808   6.156   5.795   7.335 -1.5571  0.0335  1.7259
  189SAPI   C2821809   6.114   6.011   7.349 -0.7574 -0.3715 -0.2788
  189SAPI   H8R21810   6.065   6.073   7.426 -1.6863  0.6470 -1.6603
  189SAPI   C2921811   6.114   6.059   7.223 -0.4697  0.5947 -0.1304
  189SAPI   H9R21812   6.065   6.156   7.206 -2.6400 -0.1628  1.2778
  189SAPI  C21021813   6.178   5.988   7.109 -0.2802  0.2248 -0.2685
  189SAPI  H10R21814   6.206   5.885   7.139  1.5719  1.3426  2.2231
  189SAPI  H10S21815   6.282   6.026   7.101 -0.4939  1.0431  0.7058
  189SAPI  C21121816   6.102   5.977   6.978 -0.1954 -0.1831 -1.1430
  189SAPI  H11R21817   6.001   5.938   6.997  0.1192  0.1873  1.7635
  189SAPI  C21221818   6.155   5.993   6.852  0.8573 -0.5173 -0.4711
  189SAPI  H12R21819   6.090   5.986   6.764 -0.5240 -0.6947  0.5373
  189SAPI  C21321820   6.296   6.032   6.823  0.2512 -0.2927 -0.1047
  189SAPI  H13R21821   6.349   6.059   6.917  0.6819 -1.6455  0.0521
  189SAPI  H13S21822   6.301   6.121   6.757  1.2165 -0.1780  0.0998
  189SAPI  C21421823   6.375   5.913   6.765  0.0847  1.0947 -0.4676
  189SAPI  H14R21824   6.364   5.825   6.830  1.5157  0.7391 -0.6750
  189SAPI  C21521825   6.464   5.903   6.668 -0.5156 -0.1522  0.5386
  189SAPI  H15R21826   6.515   5.809   6.640 -0.6278  0.1265 -0.6692
  189SAPI  C21621827   6.499   6.027   6.586  0.0503  0.0404  0.4377
  189SAPI  H16R21828   6.416   6.101   6.583 -1.2076 -1.2031  2.6415
  189SAPI  H16S21829   6.510   5.996   6.480 -1.6866 -2.9839  1.0483
  189SAPI  C21721830   6.636   6.093   6.624  0.4762 -0.2765  0.5643
  189SAPI  H17R21831   6.637   6.180   6.556 -3.4483 -1.5096 -1.3339
  189SAPI  H17S21832   6.714   6.018   6.599  2.4498  0.8110  2.8928
  189SAPI  C21821833   6.654   6.132   6.770 -0.5864  0.1041 -0.3875
  189SAPI  H18R21834   6.659   6.046   6.841 -0.9557  1.5113  1.4451
  189SAPI  H18S21835   6.567   6.193   6.804 -2.3339 -3.5862  2.6909
  189SAPI  C21921836   6.780   6.206   6.806  0.3044 -0.2036 -0.2095
  189SAPI  H19R21837   6.783   6.298   6.743  0.0830  0.8032  1.2131
  189SAPI  H19S21838   6.870   6.145   6.784 -1.1654 -2.0783 -1.3420
  189SAPI  C22021839   6.766   6.260   6.955 -0.7705  0.6057  0.4053
  189SAPI  H20R21840   6.765   6.177   7.028  3.2948 -0.1158 -0.1168
  189SAPI  H20S21841   6.671   6.317   6.949 -1.3148 -0.4263 -1.8077
  189SAPI  H20T21842   6.845   6.329   6.991 -0.1196 -0.9197  2.0328
  189SAPI   C3321843   5.940   6.345   7.564  0.5167  0.5477 -0.5932
  189SAPI   H3X21844   5.843   6.380   7.605  1.1837 -0.9065  2.5057
  189SAPI   H3Y21845   5.956   6.239   7.594 -2.2577  0.1041 -0.4861
  189SAPI   C3421846   5.921   6.358   7.416  0.1037 -0.6956  0.1534
  189SAPI   H4X21847   5.868   6.269   7.376 -0.0049 -0.5065 -0.1273
  189SAPI   H4Y21848   6.019   6.357   7.364  0.4374  3.9114  0.3093
  189SAPI   C3521849   5.838   6.476   7.374  0.0128  0.1592  0.3818
  189SAPI   H5X21850   5.901   6.568   7.383  0.2749 -0.1074  1.3921
  189SAPI   H5Y21851   5.747   6.495   7.434 -0.7410  0.6123 -0.8521
  189SAPI   C3621852   5.780   6.470   7.225 -0.4584 -0.3771  0.4500
  189SAPI   H6X21853   5.733   6.565   7.193  0.6991 -0.3508 -1.2972
  189SAPI   H6Y21854   5.691   6.404   7.223  0.5265 -1.9138  2.6631
  189SAPI   C3721855   5.879   6.422   7.117 -0.4311 -0.2590 -0.2869
  189SAPI   H7X21856   5.927   6.327   7.149 -1.1839  0.0719  1.9324
  189SAPI   H7Y21857   5.957   6.501   7.110 -1.1607  0.4362 -0.6531
  189SAPI   C3821858   5.809   6.409   6.982 -0.1466  0.2004 -0.0950
  189SAPI   H8X21859   5.772   6.505   6.942 -2.2231 -1.3926 -2.2346
  189SAPI   H8Y21860   5.726   6.338   7.002  0.1064  0.3558  1.7384
  189SAPI   C3921861   5.905   6.358   6.877  0.5143 -0.2571  0.5418
  189SAPI   H9X21862   5.952   6.264   6.911 -1.7073 -1.3386  0.8576
  189SAPI   H9Y21863   5.980   6.432   6.842 -1.1047  0.1025 -2.5411
  189SAPI  C31021864   5.840   6.299   6.747  0.6641 -0.1264  0.3792
  189SAPI  H10X21865   5.799   6.384   6.688 -2.7596 -1.5829  0.4069
  189SAPI  H10Y21866   5.754   6.232   6.769  0.8534 -1.1548 -1.7683
  189SAPI  C31121867   5.937   6.222   6.660  0.4979  0.1501 -0.0847
  189SAPI  H11X21868   5.975   6.133   6.715  2.3235  0.2253 -1.1516
  189SAPI  H11Y21869   6.030   6.278   6.639  1.7241 -0.8217  2.3371
  189SAPI  C31221870   5.876   6.185   6.525  0.1754 -0.0453 -0.8982
  189SAPI  H12X21871   5.871   6.280   6.468 -1.2236 -0.0475 -0.8149
  189SAPI  H12Y21872   5.778   6.141   6.551  1.5597 -2.6718  0.3196
  189SAPI  C31321873   5.946   6.080   6.446  0.1167  0.4230  0.8279
  189SAPI  H13X21874   5.881   6.070   6.357 -0.4507 -0.7190  1.3527
  189SAPI  H13Y21875   5.956   5.981   6.496  0.9064 -0.1039 -0.3169
  189SAPI  C31421876   6.081   6.123   6.393  0.1557 -0.1664  0.5212
  189SAPI  H14X21877   6.165   6.091   6.458  1.5997  2.6728  0.2188
  189SAPI  H14Y21878   6.090   6.232   6.412 -3.0465  0.4273 -0.6494
  189SAPI  C31521879   6.092   6.099   6.248  0.4054 -0.3957  1.0507
  189SAPI  H15X21880   5.998   6.143   6.207  2.5827  3.9267  0.0642
  189SAPI  H15Y21881   6.121   5.995   6.224 -2.4752 -0.7306 -1.5931
  189SAPI  C31621882   6.200   6.189   6.182 -0.0757  0.1421 -0.1518
  189SAPI  H16X21883   6.155   6.288   6.201  1.6955  0.9360  0.1725
  189SAPI  H16Y21884   6.204   6.177   6.071 -1.6367  1.4095 -0.3751
  189SAPI  C31721885   6.341   6.182   6.247  0.0303  1.5246 -0.4022
  189SAPI  H17X21886   6.345   6.159   6.356 -0.6431  0.5631 -0.5639
  189SAPI  H17Y21887   6.396   6.276   6.228  0.6534  1.6403  1.6874
  189SAPI  C31821888   6.426   6.072   6.174  0.5570 -0.0462  0.9252
  189SAPI  H18X21889   6.534   6.076   6.200  1.0790  0.0146 -1.0978
  189SAPI  H18Y21890   6.414   6.106   6.069  0.5044  0.5108  1.1089
  189SAPI  H18Z21891   6.378   5.972   6.182  1.2823 -0.9864 -3.5353
  190SAPI   C1221892   5.532   5.600   8.676  0.3625  1.1211 -0.3823
  190SAPI    H221893   5.587   5.693   8.700 -0.3941  1.7625 -1.0727
  190SAPI    O221894   5.497   5.519   8.793  0.2345 -0.3244 -0.7000
  190SAPI   HO221895   5.577   5.476   8.823  0.1732 -0.4785 -0.7549
  190SAPI   C1321896   5.413   5.651   8.603 -1.5768  0.6321  0.1794
  190SAPI    H321897   5.450   5.714   8.519 -0.5573 -1.3754 -0.9558
  190SAPI    O321898   5.342   5.737   8.687  0.0690  0.9081 -0.4776
  190SAPI   HO321899   5.365   5.829   8.673 -2.2206  1.3389 -2.0906
  190SAPI   C1421900   5.321   5.545   8.543 -0.1111  0.6083 -0.7397
  190SAPI    H421901   5.262   5.505   8.628  0.3065  0.2858 -0.6005
  190SAPI    O421902   5.231   5.603   8.450 -0.3248  0.5729  0.1078
  190SAPI   HO421903   5.156   5.548   8.429  0.0022  0.7718 -1.7358
  190SAPI   C1521904   5.395   5.421   8.492 -0.7450  0.1014  0.5750
  190SAPI    H521905   5.396   5.451   8.385 -0.2676  1.6025  0.9732
  190SAPI    O521906   5.308   5.311   8.496 -0.2280  0.3446 -0.5051
  190SAPI   HO521907   5.268   5.294   8.410  0.2553 -1.1654 -0.4748
  190SAPI   C1621908   5.545   5.403   8.525 -0.6415 -0.5329 -0.4948
  190SAPI    H621909   5.545   5.324   8.604 -1.5129  0.4142  0.4774
  190SAPI    O621910   5.619   5.347   8.411  0.3262 -0.2828  0.0195
  190SAPI   HO621911   5.710   5.370   8.431 -0.0503 -0.2343  1.8634
  190SAPI   C1121912   5.618   5.520   8.586 -0.4337 -0.8462  0.3169
  190SAPI    H121913   5.646   5.593   8.507  1.1438 -3.0468 -1.2696
  190SAPI     P21914   5.887   5.482   8.604 -0.1993 -1.0545  0.2413
  190SAPI   O1321915   5.962   5.394   8.697 -0.0675 -0.1471 -0.0383
  190SAPI   O1421916   5.929   5.626   8.592  0.4431  0.0147 -0.2228
  190SAPI   O1221917   5.735   5.476   8.653  0.7663 -0.4505  0.1477
  190SAPI   O1121918   5.877   5.407   8.462 -0.3684 -0.0601 -0.4362
  190SAPI    C121919   5.996   5.378   8.395  0.0660 -0.8278 -0.5595
  190SAPI    HA21920   6.034   5.465   8.337  0.9627 -0.5076  0.4668
  190SAPI    HB21921   6.080   5.350   8.463 -0.1278 -0.2125 -0.0556
  190SAPI    C221922   5.984   5.260   8.295  0.1188 -0.4033  0.3896
  190SAPI    HS21923   6.083   5.253   8.245  0.3241 -0.7006  0.8222
  190SAPI   O2121924   5.880   5.271   8.202 -0.5640  0.3665  0.4496
  190SAPI   C2121925   5.884   5.350   8.103 -0.2688 -0.7330  0.0791
  190SAPI   O2221926   5.980   5.426   8.081 -0.9970  0.1331 -0.2056
  190SAPI   C2221927   5.747   5.344   8.029 -0.3674 -0.2405  0.0999
  190SAPI   H2R21928   5.661   5.336   8.100 -0.0647 -0.0235  0.4923
  190SAPI   H2S21929   5.734   5.448   7.994  0.0614  0.1306  1.0123
  190SAPI    C321930   5.959   5.128   8.380 -0.5735 -0.5184  0.2597
  190SAPI    HX21931   5.858   5.136   8.426 -0.5328 -1.8045  0.6117
  190SAPI    HY21932   6.034   5.136   8.461  0.2105 -0.9668 -0.4103
  190SAPI   O3121933   5.968   5.007   8.305  0.6642 -0.5652  0.0227
  190SAPI   C3121934   6.085   4.963   8.270  0.0372  0.0659 -0.4979
  190SAPI   O3221935   6.191   5.008   8.318  0.5486  0.0496  0.0668
  190SAPI   C3221936   6.076   4.848   8.168  0.6235  0.5211  0.4064
  190SAPI   H2X21937   5.984   4.787   8.177  0.7414  0.0834 -1.0860
  190SAPI   H2Y21938   6.155   4.778   8.203 -0.4435 -0.7782  0.2766
  190SAPI   C2321939   5.731   5.245   7.915  0.1125 -0.4001  0.1171
  190SAPI   H3R21940   5.756   5.143   7.951  0.6029 -0.4943 -0.4811
  190SAPI   H3S21941   5.800   5.287   7.838 -1.6133  0.1032 -1.2049
  190SAPI   C2421942   5.588   5.233   7.860 -0.1359  0.3030 -0.3866
  190SAPI   H4R21943   5.541   5.332   7.840  0.9380  0.7732 -0.6366
  190SAPI   H4S21944   5.517   5.197   7.938 -1.3774  1.5835 -0.8811
  190SAPI   C2521945   5.572   5.147   7.742  0.0591  0.1229  0.1407
  190SAPI   H5R21946   5.541   5.044   7.765  0.6596  0.2304  1.5031
  190SAPI   C2621947   5.575   5.186   7.608 -0.8947  0.2657 -0.5908
  190SAPI   H6R21948   5.545   5.112   7.532  0.6136 -0.6448 -0.3578
  190SAPI   C2721949   5.603   5.319   7.546  0.3389 -0.0558  0.2098
  190SAPI   H7R21950   5.621   5.398   7.622 -0.6092  1.9500 -1.5339
  190SAPI   H7S21951   5.514   5.346   7.485  0.8115 -0.2893 -0.6024
  190SAPI   C2821952   5.731   5.320   7.463 -0.2989 -0.5586  0.3776
  190SAPI   H8R21953   5.824   5.299   7.519  0.2072 -2.0141 -0.9408
  190SAPI   C2921954   5.754   5.335   7.329 -0.1049  0.7399  0.5805
  190SAPI   H9R21955   5.858   5.338   7.293 -0.9510 -1.5516 -2.4231
  190SAPI  C21021956   5.654   5.340   7.224 -0.2708  0.7880 -0.7530
  190SAPI  H10R21957   5.689   5.404   7.140  0.2530  1.1906 -0.2356
  190SAPI  H10S21958   5.567   5.391   7.271 -0.6902 -2.5768  2.4846
  190SAPI  C21121959   5.601   5.203   7.194 -0.5235 -0.8950 -0.2556
  190SAPI  H11R21960   5.594   5.138   7.282 -1.1393  1.0218  1.1825
  190SAPI  C21221961   5.543   5.166   7.080  1.0557  0.0691  0.4122
  190SAPI  H12R21962   5.495   5.067   7.072  0.2637  0.4197  0.7318
  190SAPI  C21321963   5.513   5.243   6.950  0.5523 -0.4520  0.4078
  190SAPI  H13R21964   5.496   5.349   6.976  3.2736 -0.0275  0.8239
  190SAPI  H13S21965   5.419   5.211   6.901  0.8554 -0.1251 -0.4093
  190SAPI  C21421966   5.629   5.225   6.860  0.1647 -0.5805  0.4835
  190SAPI  H14R21967   5.726   5.185   6.894  1.8626  2.3812 -0.5579
  190SAPI  C21521968   5.632   5.255   6.727 -0.6539 -0.6493  0.5169
  190SAPI  H15R21969   5.725   5.243   6.670 -0.9394 -0.1004 -0.0799
  190SAPI  C21621970   5.516   5.302   6.639  0.2039  0.3619 -0.0362
  190SAPI  H16R21971   5.540   5.367   6.552 -2.1451  0.7014 -0.5077
  190SAPI  H16S21972   5.446   5.370   6.693 -0.3572  0.1795 -0.5149
  190SAPI  C21721973   5.426   5.189   6.578  0.5902  0.0224  0.0678
  190SAPI  H17R21974   5.369   5.128   6.651  2.0904 -1.0614  0.3998
  190SAPI  H17S21975   5.494   5.118   6.527  2.0315  1.3564  0.0502
  190SAPI  C21821976   5.322   5.262   6.487 -0.5016  0.3836  0.3783
  190SAPI  H18R21977   5.378   5.289   6.395 -1.1954  4.2162  0.8952
  190SAPI  H18S21978   5.286   5.356   6.535  0.6754  0.6040  0.8673
  190SAPI  C21921979   5.215   5.168   6.427 -0.5529  0.1237 -0.0849
  190SAPI  H19R21980   5.131   5.228   6.388 -1.4099 -0.9707  0.0340
  190SAPI  H19S21981   5.170   5.109   6.510  1.2251 -0.0057  0.8535
  190SAPI  C22021982   5.259   5.062   6.322  1.1172  0.0171 -0.2942
  190SAPI  H20R21983   5.350   5.012   6.361 -0.2653 -2.4719 -0.0486
  190SAPI  H20S21984   5.292   5.105   6.226 -1.4800 -0.8210 -1.6523
  190SAPI  H20T21985   5.177   4.992   6.295 -0.0373  1.4358 -0.5703
  190SAPI   C3321986   6.098   4.894   8.021 -0.2406 -0.2002  0.3889
  190SAPI   H3X21987   6.115   4.800   7.964 -1.7981  0.3270 -1.0150
  190SAPI   H3Y21988   6.193   4.951   8.013 -0.1791 -0.4673 -0.9662
  190SAPI   C3421989   5.984   4.975   7.954  0.7803  0.1259  0.0781
  190SAPI   H4X21990   5.956   5.062   8.018  0.8631  0.2127 -0.0021
  190SAPI   H4Y21991   5.902   4.902   7.948 -0.6492  1.6520  0.3394
  190SAPI   C3521992   6.021   5.019   7.812  1.0106 -0.5950 -0.0639
  190SAPI   H5X21993   6.129   5.042   7.797  0.9453  0.0405  0.4111
  190SAPI   H5Y21994   5.964   5.109   7.781 -1.7257 -2.8731 -2.1986
  190SAPI   C3621995   5.996   4.903   7.715 -0.7314 -0.4561 -0.1022
  190SAPI   H6X21996   5.886   4.899   7.697 -0.6523  0.6841 -0.9736
  190SAPI   H6Y21997   6.039   4.804   7.740  0.3468 -0.2952 -1.2048
  190SAPI   C3721998   6.054   4.928   7.574  0.5579  0.1704  0.3308
  190SAPI   H7X21999   6.061   4.833   7.516  1.7713  0.6673 -0.3672
  190SAPI   H7Y22000   6.159   4.962   7.590  1.0997  0.3250 -2.9427
  190SAPI   C3822001   5.962   5.032   7.503 -0.3991 -1.0240  0.5124
  190SAPI   H8X22002   5.954   5.117   7.575  1.8320 -1.0919  0.9183
  190SAPI   H8Y22003   5.865   4.979   7.490 -0.5597 -0.2394 -1.7772
  190SAPI   C3922004   6.034   5.058   7.371  1.2283 -0.4795  0.1862
  190SAPI   H9X22005   6.141   5.034   7.382  1.9951  1.6817 -1.6870
  190SAPI   H9Y22006   6.028   5.168   7.355 -0.4717  0.1330  3.9204
  190SAPI  C31022007   5.967   4.996   7.246 -0.1568  0.1453 -0.3980
  190SAPI  H10X22008   5.859   5.021   7.239  0.0380  1.2695  0.3851
  190SAPI  H10Y22009   5.974   4.886   7.255 -0.8617  0.0474 -0.9064
  190SAPI  C31122010   6.037   5.041   7.115 -0.9453 -0.0163  0.3435
  190SAPI  H11X22011   6.040   4.966   7.033  0.2014 -0.5342  0.8398
  190SAPI  H11Y22012   6.144   5.069   7.131 -0.4909 -1.5099  0.0635
  190SAPI  C31222013   5.973   5.163   7.047 -0.1930  0.6238 -1.0858
  190SAPI  H12X22014   5.984   5.241   7.125  0.4943  0.9338 -1.4861
  190SAPI  H12Y22015   5.864   5.147   7.031 -0.1227 -1.9537  0.3933
  190SAPI  C31322016   6.037   5.206   6.914  0.1498 -0.6451  0.1721
  190SAPI  H13X22017   6.037   5.125   6.839  1.2934  1.1436 -1.8590
  190SAPI  H13Y22018   6.146   5.222   6.926  0.4561 -0.8865 -2.0213
  190SAPI  C31422019   5.982   5.335   6.848  0.0056  1.5780  0.4879
  190SAPI  H14X22020   5.977   5.411   6.929 -0.9179  0.2919  1.6966
  190SAPI  H14Y22021   5.875   5.336   6.817  0.5079  3.4387 -1.4381
  190SAPI  C31522022   6.067   5.387   6.727 -0.2614 -0.3591  0.0489
  190SAPI  H15X22023   6.069   5.305   6.652 -1.7457 -0.9206  0.5860
  190SAPI  H15Y22024   6.168   5.389   6.772 -0.6285  0.0789  0.8784
  190SAPI  C31622025   6.021   5.517   6.664 -0.0406  0.2643  0.2259
  190SAPI  H16X22026   6.009   5.585   6.750  1.3471 -0.3506  0.9403
  190SAPI  H16Y22027   5.924   5.508   6.610 -0.3170  2.8892  0.1436
  190SAPI  C31722028   6.128   5.584   6.570 -0.4923 -0.0790 -0.0581
  190SAPI  H17X22029   6.145   5.518   6.482 -0.1999 -0.3076  0.1635
  190SAPI  H17Y22030   6.220   5.594   6.631 -0.5004 -0.2784 -0.0113
  190SAPI  C31822031   6.078   5.730   6.535  0.3633 -0.2486  0.2759
  190SAPI  H18X22032   5.978   5.733   6.485 -0.2764  1.2496  1.5303
  190SAPI  H18Y22033   6.152   5.769   6.462  1.8678 -0.7944  1.4583
  190SAPI  H18Z22034   6.072   5.791   6.628 -0.3414 -2.0141  1.4337
  191SAPI   C1222035   3.316   1.806   3.822 -0.0436 -0.9409  0.2283
  191SAPI    H222036   3.212   1.823   3.858  0.8982 -0.0770  2.7696
  191SAPI    O222037   3.320   1.685   3.754  0.2558 -0.4124 -0.1750
  191SAPI   HO222038   3.379   1.624   3.800 -0.3123 -0.0964  1.0286
  191SAPI   C1322039   3.372   1.914   3.740  0.5595  0.4932 -0.1972
  191SAPI    H322040   3.389   1.995   3.814 -0.2091  0.3332  0.1677
  191SAPI    O322041   3.280   1.954   3.635  0.3460  0.2365  0.3840
  191SAPI   HO322042   3.285   1.880   3.573 -0.7217  0.2545  0.2524
  191SAPI   C1422043   3.512   1.887   3.684  0.6695  0.1479 -0.3446
  191SAPI    H422044   3.494   1.797   3.621  2.3663 -1.1895  0.9818
  191SAPI    O422045   3.564   1.993   3.610 -0.6948 -0.0757  0.4795
  191SAPI   HO422046   3.559   1.968   3.518  1.9240  0.4994  0.1262
  191SAPI   C1522047   3.602   1.836   3.792 -0.0433  0.4804 -0.0514
  191SAPI    H522048   3.663   1.918   3.834  1.2946 -1.7434  2.6539
  191SAPI    O522049   3.693   1.742   3.731 -0.0896  0.1810  0.2584
  191SAPI   HO522050   3.740   1.774   3.654  0.3428 -2.1355 -0.5391
  191SAPI   C1622051   3.544   1.784   3.922 -0.4584 -0.2431  0.5096
  191SAPI    H622052   3.553   1.674   3.907 -0.0393 -0.2079  0.4830
  191SAPI    O622053   3.632   1.806   4.032 -0.3321 -0.0093 -0.2357
  191SAPI   HO622054   3.652   1.721   4.070  1.0525  0.1862 -0.4826
  191SAPI   C1122055   3.396   1.798   3.950 -0.6426  0.6907 -0.3103
  191SAPI    H122056   3.387   1.896   4.002 -0.8721  0.8653 -0.6748
  191SAPI     P22057   3.244   1.696   4.153 -0.2405  0.5242  0.0813
  191SAPI   O1322058   3.180   1.562   4.150  0.0906  0.1238 -0.3662
  191SAPI   O1422059   3.163   1.812   4.138  0.5232 -0.6088  0.1333
  191SAPI   O1222060   3.353   1.689   4.032 -0.5310  0.5366  0.2344
  191SAPI   O1122061   3.333   1.707   4.284  0.8088  0.0465  0.2020
  191SAPI    C122062   3.420   1.602   4.325  0.4054 -0.7183  0.5323
  191SAPI    HA22063   3.360   1.515   4.361 -0.5813  0.2182  1.2350
  191SAPI    HB22064   3.482   1.568   4.240 -0.1407  0.7530 -0.4834
  191SAPI    C222065   3.506   1.649   4.441 -0.0024  0.6725 -0.7463
  191SAPI    HS22066   3.584   1.570   4.449 -1.6865 -0.8606  3.3501
  191SAPI   O2122067   3.435   1.646   4.567 -0.3479  0.2388 -0.6400
  191SAPI   C2122068   3.499   1.612   4.679 -0.1715  0.1899  0.4400
  191SAPI   O2222069   3.619   1.591   4.691 -0.0307 -0.2437 -0.5227
  191SAPI   C2222070   3.399   1.598   4.789 -0.5748  0.7386 -0.7596
  191SAPI   H2R22071   3.331   1.684   4.772 -1.9065 -0.1794 -0.2203
  191SAPI   H2S22072   3.339   1.512   4.754 -1.0394  1.3266 -1.4504
  191SAPI    C322073   3.585   1.781   4.412 -0.0404  0.0325 -0.0432
  191SAPI    HX22074   3.509   1.858   4.388  1.1835  1.5751  0.8123
  191SAPI    HY22075   3.644   1.762   4.320  1.4117 -0.7858  1.0041
  191SAPI   O3122076   3.674   1.825   4.512  0.0284  0.5282  0.1315
  191SAPI   C3122077   3.775   1.911   4.469  0.4912 -0.3117 -0.4245
  191SAPI   O3222078   3.799   1.936   4.352 -0.5924 -0.3919  0.7832
  191SAPI   C3222079   3.847   1.965   4.589 -0.0505 -0.1464  0.6202
  191SAPI   H2X22080   3.923   1.892   4.625  1.4027  1.5193  1.1125
  191SAPI   H2Y22081   3.784   1.989   4.678  0.2206 -0.3523  0.8726
  191SAPI   C2322082   3.457   1.579   4.928  0.5259 -0.5068 -0.5603
  191SAPI   H3R22083   3.496   1.671   4.975  0.5886 -0.4640 -0.6961
  191SAPI   H3S22084   3.542   1.508   4.919  0.2654 -0.7742 -0.9983
  191SAPI   C2422085   3.354   1.516   5.022  0.2351 -0.2877  0.2622
  191SAPI   H4R22086   3.413   1.499   5.115 -2.6027  0.5942  2.3723
  191SAPI   H4S22087   3.318   1.421   4.979 -0.8469 -0.2980  1.1627
  191SAPI   C2522088   3.240   1.609   5.054 -0.4303 -0.4055 -0.5453
  191SAPI   H5R22089   3.207   1.667   4.967  0.3513 -0.9637 -1.2349
  191SAPI   C2622090   3.196   1.662   5.174 -0.0477 -0.1745 -0.4498
  191SAPI   H6R22091   3.118   1.739   5.170  0.8120  0.6759 -1.3831
  191SAPI   C2722092   3.262   1.631   5.304  0.1464  0.3741  0.3807
  191SAPI   H7R22093   3.368   1.664   5.296  0.6776 -1.3110  0.2596
  191SAPI   H7S22094   3.276   1.526   5.337 -0.8613 -1.2924 -3.8198
  191SAPI   C2822095   3.195   1.712   5.412  0.1558  0.1997 -0.0728
  191SAPI   H8R22096   3.137   1.801   5.385 -0.0579  0.4821  1.2837
  191SAPI   C2922097   3.184   1.675   5.540 -0.3782 -0.5300 -1.2525
  191SAPI   H9R22098   3.121   1.745   5.597  0.5758  1.1295 -2.1468
  191SAPI  C21022099   3.234   1.552   5.608  0.1778 -0.3138  0.0241
  191SAPI  H10R22100   3.233   1.467   5.537  2.0919  1.3744 -2.2386
  191SAPI  H10S22101   3.155   1.535   5.683 -0.3962 -1.1959 -0.7658
  191SAPI  C21122102   3.367   1.567   5.683  0.5037  0.1668  0.4711
  191SAPI  H11R22103   3.453   1.525   5.629  1.5304 -0.0785  2.2288
  191SAPI  C21222104   3.396   1.626   5.801 -0.0030  0.2952  0.0824
  191SAPI  H12R22105   3.500   1.640   5.833 -0.3764  1.9439  0.6991
  191SAPI  C21322106   3.298   1.690   5.895  0.1660 -0.2710  0.1855
  191SAPI  H13R22107   3.335   1.655   5.993  2.0805 -0.3521 -0.5184
  191SAPI  H13S22108   3.195   1.647   5.893 -0.1515  0.4875 -1.2345
  191SAPI  C21422109   3.283   1.835   5.887 -0.0515 -0.4839  0.2300
  191SAPI  H14R22110   3.308   1.881   5.789  0.0715  2.2913  1.4543
  191SAPI  C21522111   3.230   1.914   5.987 -0.2204 -0.4698 -0.0467
  191SAPI  H15R22112   3.225   2.022   5.968  0.5713 -0.4737 -0.2808
  191SAPI  C21622113   3.184   1.870   6.123  0.5870  0.0814  0.0342
  191SAPI  H16R22114   3.262   1.900   6.196 -0.0348 -2.4495  1.8780
  191SAPI  H16S22115   3.162   1.762   6.118  0.7594  0.0192  0.5478
  191SAPI  C21722116   3.058   1.943   6.162  0.3050 -0.5996  0.3288
  191SAPI  H17R22117   3.003   1.882   6.237  1.1839 -2.0871 -0.2006
  191SAPI  H17S22118   2.997   1.952   6.069 -0.0142  2.2412  0.7257
  191SAPI  C21822119   3.067   2.089   6.207  0.3633 -0.9674 -0.0980
  191SAPI  H18R22120   2.964   2.130   6.196  0.1332 -0.7977  2.2056
  191SAPI  H18S22121   3.137   2.130   6.130  0.3516 -0.0122  0.3781
  191SAPI  C21922122   3.126   2.106   6.345 -0.4807  0.0469 -0.0464
  191SAPI  H19R22123   3.236   2.089   6.334 -0.5855 -0.0573 -1.0487
  191SAPI  H19S22124   3.088   2.029   6.415 -1.1817  0.9974  0.6379
  191SAPI  C22022125   3.091   2.243   6.406 -0.0975 -0.1766  0.6083
  191SAPI  H20R22126   3.110   2.325   6.334  1.2810  0.0257  1.1630
  191SAPI  H20S22127   3.153   2.260   6.497 -0.9602 -0.6451  1.2956
  191SAPI  H20T22128   2.983   2.242   6.433 -0.6925 -0.4034 -1.6365
  191SAPI   C3322129   3.944   2.088   4.547  1.1277 -0.6234 -0.2638
  191SAPI   H3X22130   3.879   2.170   4.510  1.1747 -0.4097  0.1255
  191SAPI   H3Y22131   4.005   2.044   4.466 -0.0948 -0.0769 -1.5203
  191SAPI   C3422132   4.019   2.143   4.674  0.0047  0.4671 -0.4746
  191SAPI   H4X22133   4.108   2.204   4.649  0.7839 -0.8191 -0.9073
  191SAPI   H4Y22134   4.057   2.053   4.728 -2.2434 -1.4365 -1.8677
  191SAPI   C3522135   3.926   2.219   4.759  0.5141  0.1226  0.2050
  191SAPI   H5X22136   3.832   2.161   4.772  1.0746 -0.4761  1.7648
  191SAPI   H5Y22137   3.891   2.308   4.701  1.5271 -0.5625 -1.5321
  191SAPI   C3622138   3.983   2.260   4.898  0.1759 -0.0746 -0.1548
  191SAPI   H6X22139   3.916   2.340   4.939 -1.1169 -1.8383  1.3226
  191SAPI   H6Y22140   4.081   2.311   4.892  1.3435 -2.2642 -0.5481
  191SAPI   C3722141   3.989   2.142   4.992 -0.1539  0.7213 -0.0764
  191SAPI   H7X22142   4.041   2.068   4.927  2.1972  2.3487 -0.1854
  191SAPI   H7Y22143   3.889   2.103   5.019  0.8441 -2.1345 -0.2011
  191SAPI   C3822144   4.081   2.176   5.111 -0.0034 -0.0402 -0.1245
  191SAPI   H8X22145   4.065   2.284   5.132  0.4018 -0.1172  0.6152
  191SAPI   H8Y22146   4.191   2.175   5.093 -0.0788  2.1628 -0.9301
  191SAPI   C3922147   4.046   2.091   5.232 -0.0847  0.0344  0.1855
  191SAPI   H9X22148   4.081   1.986   5.223 -2.5516 -0.9355  0.8231
  191SAPI   H9Y22149   3.936   2.085   5.250 -0.3610  0.6245 -1.1690
  191SAPI  C31022150   4.117   2.148   5.359  0.7654  0.2646  0.3081
  191SAPI  H10X22151   4.086   2.255   5.358 -0.1651  0.0261 -1.3406
  191SAPI  H10Y22152   4.226   2.149   5.337  0.8064 -1.5563  0.3121
  191SAPI  C31122153   4.089   2.086   5.494 -0.2051  0.2893  0.1261
  191SAPI  H11X22154   4.152   1.996   5.509 -0.7731 -0.0097  0.7663
  191SAPI  H11Y22155   3.990   2.041   5.475  0.3664 -0.4012 -1.3967
  191SAPI  C31222156   4.119   2.176   5.617  0.0909 -0.0027 -0.0578
  191SAPI  H12X22157   4.084   2.280   5.602 -2.0903 -0.8372 -1.2283
  191SAPI  H12Y22158   4.230   2.181   5.624  0.0695 -1.0457  1.9350
  191SAPI  C31322159   4.045   2.122   5.740  0.0581  0.1874 -0.4048
  191SAPI  H13X22160   4.050   2.012   5.724  1.7923 -0.1750  2.1278
  191SAPI  H13Y22161   3.936   2.140   5.734 -0.0624 -0.6663 -1.0231
  191SAPI  C31422162   4.098   2.176   5.865  0.0693 -0.2261 -0.5173
  191SAPI  H14X22163   4.082   2.285   5.878  0.5655 -0.2655  0.5576
  191SAPI  H14Y22164   4.208   2.157   5.871  0.0144 -0.2970  0.3993
  191SAPI  C31522165   4.025   2.111   5.994  0.3327  0.2112  0.5321
  191SAPI  H15X22166   4.048   2.003   5.981  0.5748  0.5080 -1.8135
  191SAPI  H15Y22167   3.916   2.123   5.977  0.4165  0.7661  0.3606
  191SAPI  C31622168   4.068   2.174   6.120  0.6572  0.6005 -0.1854
  191SAPI  H16X22169   4.016   2.272   6.126 -3.0262 -1.2282  0.4236
  191SAPI  H16Y22170   4.178   2.189   6.127  0.6542 -0.0381  1.6239
  191SAPI  C31722171   4.015   2.093   6.244 -0.4801  0.3577  0.1867
  191SAPI  H17X22172   4.036   2.148   6.338  2.1881 -0.5620  0.2199
  191SAPI  H17Y22173   4.082   2.006   6.264 -1.0130  0.7926  5.0586
  191SAPI  C31822174   3.878   2.026   6.245 -0.1794 -0.0773 -0.7598
  191SAPI  H18X22175   3.802   2.106   6.254 -0.5527 -0.5363  0.2378
  191SAPI  H18Y22176   3.858   1.965   6.335 -2.7691 -1.8340 -2.3948
  191SAPI  H18Z22177   3.865   1.966   6.152  0.5112 -0.1962 -0.7914
  192SAPI   C1222178   4.614   3.064   3.693 -0.5452  0.3466 -0.5007
  192SAPI    H222179   4.631   2.963   3.737  0.4093  0.7320  0.0519
  192SAPI    O222180   4.598   3.150   3.809  0.2468  0.8370  0.1970
  192SAPI   HO222181   4.682   3.168   3.851  1.3839 -1.0890 -1.0882
  192SAPI   C1322182   4.731   3.104   3.617 -1.1815  0.2600 -0.0712
  192SAPI    H322183   4.750   3.038   3.530 -0.1153  1.1012 -0.4962
  192SAPI    O322184   4.850   3.105   3.703 -0.3722 -0.2842 -0.2322
  192SAPI   HO322185   4.895   3.189   3.706  1.2653 -1.1230 -0.5294
  192SAPI   C1422186   4.709   3.244   3.576  0.9157 -0.4670 -0.4211
  192SAPI    H422187   4.705   3.314   3.662 -0.8274 -0.2412 -0.6408
  192SAPI    O422188   4.820   3.289   3.495  0.6226  0.4823 -0.0384
  192SAPI   HO422189   4.897   3.232   3.495  0.5599  0.3973 -0.0250
  192SAPI   C1522190   4.577   3.264   3.493  0.0224  1.0527 -0.3407
  192SAPI    H522191   4.600   3.230   3.390  0.1697 -0.0321  0.0381
  192SAPI    O522192   4.549   3.403   3.481  0.1160 -0.4937 -0.6005
  192SAPI   HO522193   4.571   3.420   3.389 -0.0368  1.6354 -0.2937
  192SAPI   C1622194   4.458   3.180   3.546 -0.3394 -0.2112 -0.3584
  192SAPI    H622195   4.418   3.240   3.631  0.5261 -0.2046  0.0525
  192SAPI    O622196   4.355   3.170   3.447 -0.4022  0.5553  0.0211
  192SAPI   HO622197   4.289   3.118   3.493 -2.2698  2.3282 -0.5222
  192SAPI   C1122198   4.498   3.045   3.603 -0.0131 -0.3850  0.0379
  192SAPI    H122199   4.524   2.977   3.519 -0.1412 -0.5864  0.1603
  192SAPI     P22200   4.342   2.841   3.693 -0.5303  0.0813  1.0298
  192SAPI   O1322201   4.367   2.769   3.563 -0.0339 -0.3506 -0.2378
  192SAPI   O1422202   4.201   2.835   3.737 -0.1138 -0.2696 -0.6565
  192SAPI   O1222203   4.382   3.002   3.676  0.0180  0.0302 -0.0229
  192SAPI   O1122204   4.433   2.785   3.812  0.2815 -0.4907 -0.7708
  192SAPI    C122205   4.510   2.666   3.793  0.6041 -0.7085  0.3154
  192SAPI    HA22206   4.452   2.586   3.743  0.6849 -1.3344  1.2074
  192SAPI    HB22207   4.599   2.679   3.727 -0.7482 -1.8841 -1.8258
  192SAPI    C222208   4.562   2.605   3.929 -0.1904 -0.9157 -0.0862
  192SAPI    HS22209   4.630   2.518   3.919 -0.2921 -1.1686  1.1588
  192SAPI   O2122210   4.443   2.579   4.019  0.0241 -0.0793 -0.1462
  192SAPI   C2122211   4.367   2.473   3.992 -0.9511 -0.1508  0.4693
  192SAPI   O2222212   4.395   2.382   3.914  0.4195  0.1254 -0.4723
  192SAPI   C2222213   4.244   2.482   4.080  0.6172  0.0637  0.7429
  192SAPI   H2R22214   4.264   2.495   4.188 -1.6051 -1.3649  1.4021
  192SAPI   H2S22215   4.190   2.576   4.055 -2.5535 -1.4483  1.3742
  192SAPI    C322216   4.638   2.715   4.000  0.3067 -0.0109 -0.0353
  192SAPI    HX22217   4.594   2.817   4.000 -0.7819 -0.4759  0.1845
  192SAPI    HY22218   4.732   2.721   3.941 -1.0574 -1.1976 -2.4715
  192SAPI   O3122219   4.671   2.670   4.136 -0.4613  0.5774 -0.2719
  192SAPI   C3122220   4.796   2.709   4.185  0.7506 -0.2450 -0.7818
  192SAPI   O3222221   4.864   2.792   4.125 -0.0232  0.2865  0.2829
  192SAPI   C3222222   4.819   2.654   4.323  0.6048  0.0036 -0.5487
  192SAPI   H2X22223   4.851   2.547   4.324 -0.7889 -0.4265  0.1428
  192SAPI   H2Y22224   4.733   2.656   4.394  0.2736  0.1689 -0.9507
  192SAPI   C2322225   4.144   2.362   4.075  1.0986  0.5011  0.0964
  192SAPI   H3R22226   4.150   2.321   3.972  1.8845  0.4358  0.1612
  192SAPI   H3S22227   4.042   2.404   4.085  1.6076  1.4767  1.4499
  192SAPI   C2422228   4.159   2.249   4.182  0.1358 -0.5056  0.3455
  192SAPI   H4R22229   4.066   2.190   4.169  0.1148 -0.3573 -0.2242
  192SAPI   H4S22230   4.158   2.296   4.282 -0.6000  1.2065 -0.4236
  192SAPI   C2522231   4.290   2.174   4.157 -0.6460 -0.0714 -0.1307
  192SAPI   H5R22232   4.303   2.162   4.048 -4.0021 -1.1514 -0.5375
  192SAPI   C2622233   4.394   2.142   4.239 -0.2759  0.0938  0.2315
  192SAPI   H6R22234   4.485   2.093   4.201 -0.0036  0.7794 -0.0151
  192SAPI   C2722235   4.415   2.169   4.386  0.5354  0.0712 -0.2421
  192SAPI   H7R22236   4.455   2.084   4.446  1.2590  0.5821  0.0199
  192SAPI   H7S22237   4.315   2.185   4.432  1.8168 -0.5974  3.0945
  192SAPI   C2822238   4.492   2.293   4.421 -1.2258 -0.3146 -0.8833
  192SAPI   H8R22239   4.490   2.386   4.362  2.9424 -0.1775 -1.1132
  192SAPI   C2922240   4.557   2.317   4.537 -0.0520  0.2002 -0.9601
  192SAPI   H9R22241   4.598   2.418   4.547  1.5874 -0.3303 -1.9882
  192SAPI  C21022242   4.569   2.222   4.659  0.2751 -0.2676  0.4418
  192SAPI  H10R22243   4.649   2.261   4.725  0.1328  1.1057 -0.1677
  192SAPI  H10S22244   4.615   2.138   4.602 -2.2055 -1.4293  0.0444
  192SAPI  C21122245   4.448   2.179   4.739  0.5194  0.1715  1.0650
  192SAPI  H11R22246   4.349   2.210   4.703 -0.8776 -2.6617  2.1964
  192SAPI  C21222247   4.441   2.123   4.863 -0.1098 -0.6231  0.0899
  192SAPI  H12R22248   4.344   2.109   4.913 -0.6314 -1.4446 -1.1191
  192SAPI  C21322249   4.569   2.086   4.935  0.5458 -0.6408 -0.4295
  192SAPI  H13R22250   4.661   2.123   4.884  0.0429 -0.0613 -0.9330
  192SAPI  H13S22251   4.594   1.978   4.948 -1.3256 -0.9576  0.8158
  192SAPI  C21422252   4.549   2.158   5.067 -0.5190 -0.0945 -0.0031
  192SAPI  H14R22253   4.547   2.267   5.054 -2.0595 -0.0215  0.6144
  192SAPI  C21522254   4.527   2.112   5.190 -0.0823 -0.2917  0.2472
  192SAPI  H15R22255   4.514   2.192   5.265  0.2951 -1.5174  1.6633
  192SAPI  C21622256   4.485   1.970   5.228 -0.0546 -0.7032 -0.0284
  192SAPI  H16R22257   4.439   1.969   5.329  0.0757 -0.9415  0.0282
  192SAPI  H16S22258   4.576   1.906   5.231 -1.0374 -2.1509 -0.0428
  192SAPI  C21722259   4.384   1.903   5.133 -0.1539  0.9831  0.1790
  192SAPI  H17R22260   4.432   1.884   5.034 -0.0950 -0.2996  0.4449
  192SAPI  H17S22261   4.285   1.949   5.113  0.0328  1.4423  0.2779
  192SAPI  C21822262   4.344   1.767   5.187  0.1946 -0.2672 -0.2007
  192SAPI  H18R22263   4.433   1.700   5.178  0.4605 -0.0729  0.8570
  192SAPI  H18S22264   4.261   1.729   5.123  1.4390  2.0068 -3.4236
  192SAPI  C21922265   4.278   1.759   5.324 -0.2593  0.0686 -0.3102
  192SAPI  H19R22266   4.188   1.823   5.334 -1.8208 -2.2780  1.6983
  192SAPI  H19S22267   4.334   1.809   5.407  1.0357 -1.6909 -0.0730
  192SAPI  C22022268   4.251   1.613   5.359 -0.2322 -0.3555  0.1048
  192SAPI  H20R22269   4.351   1.566   5.369 -0.4500 -0.9960 -0.5672
  192SAPI  H20S22270   4.204   1.559   5.274  0.0800 -2.0658  0.9656
  192SAPI  H20T22271   4.184   1.592   5.446 -0.1865  1.8177  0.7225
  192SAPI   C3322272   4.941   2.719   4.396 -0.3001  0.4547 -0.2800
  192SAPI   H3X22273   4.945   2.830   4.393 -2.3267  0.5407 -1.2782
  192SAPI   H3Y22274   5.035   2.685   4.349 -1.4863 -0.4812 -2.0683
  192SAPI   C3422275   4.943   2.679   4.545 -0.3074 -0.7909  0.3421
  192SAPI   H4X22276   4.849   2.713   4.592 -1.8647 -2.9340 -1.0534
  192SAPI   H4Y22277   5.030   2.726   4.596  0.9742 -1.1321 -1.4383
  192SAPI   C3522278   4.958   2.532   4.591  0.1413 -0.3551  0.2910
  192SAPI   H5X22279   5.065   2.505   4.573  0.1123  1.0039 -2.3656
  192SAPI   H5Y22280   4.890   2.467   4.531  1.5870 -0.4653 -1.3102
  192SAPI   C3622281   4.931   2.516   4.742  0.2705 -0.0490  0.3780
  192SAPI   H6X22282   4.823   2.539   4.751 -0.0636 -1.2044 -0.3231
  192SAPI   H6Y22283   4.992   2.585   4.803 -0.7050  0.8285  0.3837
  192SAPI   C3722284   4.947   2.374   4.794 -1.2591 -0.0904  0.1010
  192SAPI   H7X22285   5.044   2.335   4.756 -1.2148 -1.7125  1.7119
  192SAPI   H7Y22286   4.855   2.319   4.761 -2.1262 -0.4908  2.9601
  192SAPI   C3822287   4.953   2.364   4.947  0.6767  0.3554  0.1699
  192SAPI   H8X22288   4.855   2.385   4.994 -0.0701 -1.0390 -0.6973
  192SAPI   H8Y22289   5.035   2.426   4.989 -0.0188  0.5250  1.3370
  192SAPI   C3922290   4.966   2.213   4.999  0.0180 -0.3962  0.4202
  192SAPI   H9X22291   5.044   2.162   4.939  0.7828  2.7456 -1.5324
  192SAPI   H9Y22292   4.872   2.158   4.980  1.1125 -2.7914  1.5799
  192SAPI  C31022293   4.999   2.193   5.149 -0.8498  0.1366 -0.4029
  192SAPI  H10X22294   5.109   2.208   5.159 -0.6643 -1.8308  1.4406
  192SAPI  H10Y22295   4.990   2.086   5.176 -1.0358  0.2549  0.0162
  192SAPI  C31122296   4.934   2.298   5.245 -0.0413  0.2702  0.3479
  192SAPI  H11X22297   4.825   2.290   5.224  0.1840 -3.2194 -0.0835
  192SAPI  H11Y22298   4.974   2.397   5.214 -0.0303  0.6336  1.4922
  192SAPI  C31222299   4.952   2.277   5.398  0.2597 -0.1101  0.0539
  192SAPI  H12X22300   5.042   2.329   5.436 -0.8869  1.0574  1.2717
  192SAPI  H12Y22301   4.946   2.166   5.408  1.9928 -0.1499  0.9601
  192SAPI  C31322302   4.844   2.360   5.479  0.5220 -0.3070 -0.2193
  192SAPI  H13X22303   4.747   2.307   5.470  0.0113  0.6383 -0.2638
  192SAPI  H13Y22304   4.834   2.462   5.436 -4.2141 -0.9216 -1.0904
  192SAPI  C31422305   4.886   2.370   5.620 -0.2658  0.1519 -0.0401
  192SAPI  H14X22306   4.972   2.441   5.622  0.1084 -0.3096  0.9575
  192SAPI  H14Y22307   4.921   2.271   5.657  1.1052  0.3714 -0.6696
  192SAPI  C31522308   4.779   2.434   5.707 -0.4960  0.8629  0.1022
  192SAPI  H15X22309   4.688   2.371   5.711 -1.0307  1.5481 -0.8963
  192SAPI  H15Y22310   4.748   2.533   5.668 -1.3697  0.9071  0.8916
  192SAPI  C31622311   4.816   2.427   5.853  0.1031 -0.6498 -0.1716
  192SAPI  H16X22312   4.913   2.474   5.882 -1.0739  0.8074  1.6030
  192SAPI  H16Y22313   4.813   2.320   5.883 -0.9574 -0.0287  2.1654
  192SAPI  C31722314   4.704   2.487   5.947 -1.4077 -1.3070  0.4582
  192SAPI  H17X22315   4.681   2.587   5.905  1.4630 -0.5179  0.5720
  192SAPI  H17Y22316   4.747   2.506   6.048 -0.5249  1.9396 -0.4168
  192SAPI  C31822317   4.568   2.429   5.934 -0.3756  0.8623  0.3140
  192SAPI  H18X22318   4.583   2.322   5.962  3.2773  0.3968 -2.6150
  192SAPI  H18Y22319   4.543   2.437   5.826 -0.8848  2.2119  0.5172
  192SAPI  H18Z22320   4.495   2.493   5.987 -0.2684  1.5228 -0.3253
  193SOD    SOD22321   2.932   0.635   0.129  0.1086 -0.0690 -0.4691
  194SOD    SOD22322   5.661   6.175   3.646 -0.1970 -0.5010  0.0154
  195SOD    SOD22323   1.529   2.105   0.873  0.4378  0.3307  0.3095
  196SOD    SOD22324   0.597   5.587   0.284 -0.1209 -0.4337 -0.2957
  197SOD    SOD22325   1.005   5.336   4.281 -0.3519  0.3328  0.2125
  198SOD    SOD22326   4.846   2.870   3.052 -0.1138 -0.3329 -0.0164
  199SOD    SOD22327   5.681   5.955   4.033  0.1901  0.0861 -0.3652
  200SOD    SOD22328   6.399   3.161   1.997  0.1334 -0.1462 -0.1637
  201SOD    SOD22329   3.489   0.849   4.270 -0.1778 -0.5491  0.1757
  202SOD    SOD22330   4.403   5.547   8.824  0.0077  0.1136 -0.2261
  203SOD    SOD22331   2.361   1.716   4.060  0.1142  0.1372 -0.3493
  204SOD    SOD22332   3.656   4.622   1.813 -0.5442  0.4795 -0.3054
  205SOD    SOD22333   5.622   5.787   0.277  0.4189 -0.3189 -0.0218
  206SOD    SOD22334   3.410   2.410   3.473  0.2698 -0.1044  0.1196
  207SOD    SOD22335   3.237   2.904   8.710 -0.1190 -0.4738 -0.3145
  208SOD    SOD22336   2.670   4.792   0.463 -0.6088  0.5524 -0.3432
  209SOD    SOD22337   1.550   3.305   2.132  0.0869  0.5059  0.3929
  210SOD    SOD22338   4.341   5.108   0.708  0.1905  0.4878  0.2893
  211SOD    SOD22339   5.206   3.872   3.460 -0.1661 -0.7247  0.6596
  212SOD    SOD22340   2.327   0.991   2.280  0.3969 -0.4576  0.4554
  213SOD    SOD22341   1.110   5.764   2.728  0.2030  0.4219  0.2847
  214SOD    SOD22342   4.338   2.634   2.511 -0.2658  0.7323 -0.2717
  215SOD    SOD22343   6.463   5.972   1.513 -1.0572  0.0463 -0.1026
  216SOD    SOD22344   6.028   2.391   2.265  0.7189 -0.0343  0.1746
  217SOD    SOD22345   2.581   6.688   0.678  0.0755  0.0904 -0.1087
  218SOD    SOD22346   1.857   0.353   4.335 -0.3113 -0.6207  0.7119
  219SOD    SOD22347   1.391   6.439   0.644  0.2581 -0.8817  0.0312
  220SOD    SOD22348   2.128   3.503   2.990 -0.5672 -0.1403  0.0635
  221SOD    SOD22349   6.256   5.079   3.424  0.2796  0.2727  0.0163
  222SOD    SOD22350   2.692   0.208   3.835 -0.1234 -0.4327 -0.1585
  223SOD    SOD22351   3.300   6.174   1.953  0.2858 -0.1071  0.2176
  224SOD    SOD22352   4.450   3.806   1.629  0.4827  0.3936  0.0679
  225SOD    SOD22353   5.184   0.890   0.020  0.3770 -0.1462  0.2290
  226SOD    SOD22354   0.044   1.840   3.637 -0.2173  0.0596 -0.3189
  227SOD    SOD22355   0.553   6.340   8.437  0.2494 -0.0682 -0.0305
  228SOD    SOD22356   4.182   6.749   8.204 -0.7253  0.5714 -0.6303
  229SOD    SOD22357   3.867   5.972   8.645 -0.3538  0.1447 -0.1718
  230CLA    CLA22358   0.469   4.818   1.719  0.3042  0.0080  0.3946
  231CLA    CLA22359   1.062   1.008   3.532 -0.2116  0.5849 -0.0623
  232CLA    CLA22360   3.223   4.556   2.083 -0.0616  0.0717 -0.1366
  233CLA    CLA22361   6.234   0.220   0.950 -0.1792  0.2339  0.3072
  234CLA    CLA22362   4.849   3.546   1.085 -0.0669  0.2008  0.6295
  235CLA    CLA22363   1.131   2.754   2.014  0.4137 -0.3175 -0.1367
  236CLA    CLA22364   6.489   0.829   2.899 -0.0029 -0.2923 -0.0692
  237CLA    CLA22365   5.775   6.098   0.972 -0.2625 -0.0835 -0.3180
  238CLA    CLA22366   2.450   6.148   1.900 -0.0322  0.2009 -0.0146
  239CLA    CLA22367   0.761   3.370   1.545  0.0985  0.5991  0.2318
  240CLA    CLA22368   6.427   5.267   3.318  0.3135 -0.2839  0.3193
  241CLA    CLA22369   4.863   4.791   2.889  0.0061  0.3241 -0.0874
  242CLA    CLA22370   1.456   5.631   3.810  0.0702 -0.2436 -0.0195
  243CLA    CLA22371   2.946   0.228   2.105  0.3958  0.1889  0.2173
  244CLA    CLA22372   4.080   0.229   3.153 -0.0349 -0.2109 -0.0760
  245CLA    CLA22373   4.158   2.535   2.320  0.3625  0.0066  0.0817
  246CLA    CLA22374   3.081   3.376   1.570  0.4501  0.4276  0.1433
  247TIP3   OH222375   1.148   2.526   0.174  0.1088  0.3644  0.6441
  247TIP3    H122376   1.171   2.525   0.081  0.1689  0.0285  0.6607
  247TIP3    H222377   1.229   2.505   0.220  0.1840  0.9821  0.7985
  248TIP3   OH222378   6.507   0.057   2.842  0.4021  0.4890  0.0334
  248TIP3    H122379   6.544   0.132   2.888  2.1172 -1.2729  1.7119
  248TIP3    H222380   6.573   0.032   2.778 -0.3606  0.6546 -0.8442
  249TIP3   OH222381   3.975   1.091   1.033 -0.2384  0.2087 -0.0120
  249TIP3    H122382   3.922   1.140   1.095 -1.6089 -0.7178 -0.3869
  249TIP3    H222383   3.968   1.000   1.062  1.0971  0.0588 -0.1260
  250TIP3   OH222384   5.077   0.905   3.548 -0.0992  0.0702  0.2098
  250TIP3    H122385   5.112   0.824   3.509 -0.3685  0.0724 -0.0330
  250TIP3    H222386   5.097   0.896   3.642 -0.1771 -0.3051  0.1938
  251TIP3   OH222387   2.293   1.621   0.624  0.0565  0.6904 -0.0077
  251TIP3    H122388   2.253   1.635   0.710 -2.0451 -1.6362 -0.4761
  251TIP3    H222389   2.224   1.646   0.562  0.0039 -1.5336 -0.9040
  252TIP3   OH222390   0.176   6.675   2.814 -0.1310  0.1710 -0.7215
  252TIP3    H122391   0.222   6.668   2.730 -0.6675  0.9502 -1.0922
  252TIP3    H222392   0.180   6.587   2.851  2.6799  0.4115 -0.1725
  253TIP3   OH222393   3.517   6.058   1.207 -0.1320 -0.6186  0.0623
  253TIP3    H122394   3.515   6.154   1.201  0.1367 -0.5964  0.2940
  253TIP3    H222395   3.523   6.028   1.117 -1.4632 -0.4509 -0.1076
  254TIP3   OH222396   2.902   3.803   8.675  0.4706 -0.1794  0.1944
  254TIP3    H122397   2.848   3.725   8.687  0.6781 -0.2522  0.6695
  254TIP3    H222398   2.879   3.860   8.749  2.3717 -0.9810  1.4875
  255TIP3   OH222399   4.282   1.771   0.382 -0.2583  0.0598 -0.2504
  255TIP3    H122400   4.199   1.808   0.352 -0.0997 -0.3127 -1.1784
  255TIP3    H222401   4.340   1.775   0.306 -0.0148 -1.4369 -0.1671
  256TIP3   OH222402   3.244   2.664   0.889 -0.1482 -0.2997 -0.1748
  256TIP3    H122403   3.163   2.714   0.895  0.3268  0.4747 -0.0764
  256TIP3    H222404   3.303   2.705   0.952  0.1675 -1.1641  0.1143
  257TIP3   OH222405   2.962   3.606   0.541 -0.3685 -0.0094 -0.0448
  257TIP3    H122406   3.022   3.546   0.497 -2.9562 -1.7554 -1.4922
  257TIP3    H222407   2.947   3.675   0.477  0.8177  0.9992  0.7218
  258TIP3   OH222408   0.145   1.948   8.211  0.4661 -0.0133  0.1926
  258TIP3    H122409   0.124   1.952   8.118 -0.4163  2.2187  0.4373
  258TIP3    H222410   0.123   1.858   8.236 -0.1903 -0.3718 -1.5202
  259TIP3   OH222411   3.942   4.380   3.597 -0.6956  0.1633  0.0349
  259TIP3    H122412   3.950   4.362   3.504 -2.5359  0.7910 -0.2792
  259TIP3    H222413   4.017   4.436   3.617 -0.5445  0.4096 -1.1626
  260TIP3   OH222414   4.993   4.965   1.398  0.4274 -0.1135  0.4128
  260TIP3    H122415   4.994   4.934   1.488  2.2963  0.4171  0.6173
  260TIP3    H222416   4.910   4.934   1.363 -1.1144  1.0392  2.7767
  261TIP3   OH222417   2.215   5.448   2.450  0.1236 -0.2453  0.4706
  261TIP3    H122418   2.179   5.426   2.364  2.4359  1.7006 -1.1292
  261TIP3    H222419   2.166   5.526   2.477  0.4756  0.1097  0.1093
  262TIP3   OH222420   4.659   3.021   0.335  0.5538 -0.0812  0.4560
  262TIP3    H122421   4.686   3.100   0.382  2.8630  0.6095 -1.8033
  262TIP3    H222422   4.591   3.051   0.274 -1.0524 -0.5994  1.9110
  263TIP3   OH222423   6.787   2.770   0.269 -0.1033 -0.4423  0.0469
  263TIP3    H122424   6.875   2.777   0.306  0.7751 -2.6044 -1.4004
  263TIP3    H222425   6.797   2.800   0.178 -1.2944  0.9242  0.3260
  264TIP3   OH222426   2.148   1.001   3.181  0.1855  0.0241  0.1929
  264TIP3    H122427   2.243   1.012   3.171  0.2280 -1.2043 -1.0605
  264TIP3    H222428   2.110   1.053   3.110 -0.0605  0.1038  0.3812
  265TIP3   OH222429   4.294   6.111   3.835 -0.3963 -0.3879  0.3593
  265TIP3    H122430   4.203   6.126   3.861 -0.2135 -0.7231  1.2495
  265TIP3    H222431   4.344   6.121   3.916  0.5735  1.3698 -0.3884
  266TIP3   OH222432   4.631   6.632   0.821 -0.5899  0.2679 -0.2155
  266TIP3    H122433   4.579   6.571   0.768 -3.2810 -0.2146  2.6616
  266TIP3    H222434   4.568   6.699   0.848  1.0879  1.4694  0.8738
  267TIP3   OH222435   2.271   0.846   0.057 -0.3132 -0.1373  0.2803
  267TIP3    H122436   2.209   0.918   0.050  0.6406  0.5275 -2.5132
  267TIP3    H222437   2.332   0.859  -0.015  0.3466 -3.3475  0.0966
  268TIP3   OH222438   0.930   4.112   8.518  0.0825  0.1992 -0.4595
  268TIP3    H122439   0.888   4.198   8.512 -1.0722 -0.1220  1.7653
  268TIP3    H222440   1.006   4.118   8.460 -1.7060  1.6136 -2.8688
  269TIP3   OH222441   4.626   5.765   0.948 -0.4910  0.0749 -0.3769
  269TIP3    H122442   4.701   5.743   0.893 -1.5491 -1.2394 -1.3731
  269TIP3    H222443   4.640   5.717   1.029 -1.2892 -1.9889 -1.3990
  270TIP3   OH222444   4.648   0.930   0.596 -1.0231  0.0615 -0.1146
  270TIP3    H122445   4.733   0.895   0.620 -0.9656 -0.0559 -0.4790
  270TIP3    H222446   4.623   0.987   0.669 -0.4960  0.3403 -0.1512
  271TIP3   OH222447   1.887   3.129   1.474  0.3452  0.2156 -0.0320
  271TIP3    H122448   1.890   3.108   1.381  0.7711  1.0055 -0.2044
  271TIP3    H222449   1.925   3.052   1.517  3.4369  1.2226 -0.7648
  272TIP3   OH222450   0.399   1.380   3.526  0.2314 -0.3179  0.4597
  272TIP3    H122451   0.304   1.383   3.536  0.3888 -1.1302  2.7753
  272TIP3    H222452   0.413   1.362   3.433 -1.8693 -0.3861  0.1110
  273TIP3   OH222453   0.047   2.724   2.766 -0.4080 -0.2127  0.2625
  273TIP3    H122454   0.003   2.743   2.849 -0.3347 -1.5939  0.6458
  273TIP3    H222455   0.082   2.635   2.777 -0.5449 -0.4910 -1.3092
  274TIP3   OH222456   4.085   0.659   3.361  0.5834 -0.0194 -0.4426
  274TIP3    H122457   4.097   0.667   3.456 -0.4830 -0.2866 -0.2793
  274TIP3    H222458   4.152   0.595   3.334  1.6876  0.9377 -0.0720
  275TIP3   OH222459   0.193   0.274   1.621 -0.1883 -0.0862  0.1890
  275TIP3    H122460   0.172   0.218   1.696  1.4532 -0.5771  0.3223
  275TIP3    H222461   0.284   0.253   1.601 -0.7779 -0.4974 -2.4093
  276TIP3   OH222462   2.937   1.068   2.596  0.0624 -0.4921  0.6363
  276TIP3    H122463   2.872   1.020   2.647 -1.0836  1.3897  1.0551
  276TIP3    H222464   2.890   1.144   2.563  1.5803 -0.0762 -0.6878
  277TIP3   OH222465   4.909   2.344   2.949  0.0181  0.2857 -0.1718
  277TIP3    H122466   4.903   2.263   3.001 -0.7243  1.0725  1.0207
  277TIP3    H222467   4.892   2.316   2.859 -1.8652 -0.6592  0.4328
  278TIP3   OH222468   3.306   5.348   1.704 -0.4619 -0.0326 -0.4157
  278TIP3    H122469   3.369   5.404   1.659  0.3620 -1.0792 -0.5965
  278TIP3    H222470   3.224   5.363   1.657  0.0871 -0.1067 -1.4430
  279TIP3   OH222471   3.241   6.104   2.642 -0.4527 -0.7801  0.6268
  279TIP3    H122472   3.152   6.136   2.629 -0.0465  0.4653  0.7612
  279TIP3    H222473   3.288   6.178   2.681  0.7955 -1.2140  0.0101
  280TIP3   OH222474   1.855   2.214   2.817 -0.4541 -0.1803 -0.2513
  280TIP3    H122475   1.815   2.156   2.882  0.5641 -1.3267 -0.6042
  280TIP3    H222476   1.791   2.215   2.745 -0.9470 -0.0296  0.1798
  281TIP3   OH222477   0.659   5.174   2.619  0.1250 -0.9711  0.0252
  281TIP3    H122478   0.726   5.157   2.685  1.0501  0.4675 -0.4979
  281TIP3    H222479   0.708   5.192   2.539 -0.8835 -0.0021 -0.4000
  282TIP3   OH222480   1.238   0.793   0.294 -0.4200 -0.1923  0.3630
  282TIP3    H122481   1.254   0.883   0.265 -1.2038  0.1214  0.8833
  282TIP3    H222482   1.261   0.740   0.218  2.7643  0.1937  0.8900
  283TIP3   OH222483   1.958   4.177   0.774  0.2370 -0.1459  0.5339
  283TIP3    H122484   1.995   4.113   0.713  0.0603 -0.4264  0.7239
  283TIP3    H222485   1.900   4.127   0.830  0.1493  0.1697  0.7274
  284TIP3   OH222486   2.123   1.613   8.802  0.0371  0.3693  0.6127
  284TIP3    H122487   2.191   1.580   8.744 -0.6386  0.7224 -0.4009
  284TIP3    H222488   2.043   1.570   8.773 -0.6791  2.0708 -0.0759
  285TIP3   OH222489   2.715   0.853   0.457 -0.2794 -0.2999 -0.2200
  285TIP3    H122490   2.697   0.944   0.435 -0.4377 -0.2981 -0.0837
  285TIP3    H222491   2.629   0.811   0.459 -0.3297 -0.1737  0.9580
  286TIP3   OH222492   2.372   4.134   0.389 -0.1362  0.2969 -0.0149
  286TIP3    H122493   2.419   4.076   0.449  0.3833  1.1458  0.4084
  286TIP3    H222494   2.340   4.205   0.444 -0.3103  0.6976 -0.6237
  287TIP3   OH222495   6.229   3.310   1.987 -0.0595 -0.2375  0.2783
  287TIP3    H122496   6.247   3.375   2.055  1.8787 -0.3131 -0.1149
  287TIP3    H222497   6.144   3.335   1.952  0.4192  1.8263  0.4446
  288TIP3   OH222498   1.339   5.312   1.597 -0.3950 -0.0102 -0.0025
  288TIP3    H122499   1.415   5.294   1.653 -1.0973 -1.3340  0.5759
  288TIP3    H222500   1.326   5.406   1.603 -0.2768 -0.0738  1.8819
  289TIP3   OH222501   6.042   6.790   3.820 -0.1325 -0.4466 -0.1639
  289TIP3    H122502   6.071   6.779   3.910 -0.3878 -1.5120 -0.1985
  289TIP3    H222503   6.119   6.823   3.774  0.1445 -0.3760  0.3401
  290TIP3   OH222504   0.199   2.000   2.430  0.4147 -0.0833 -0.7090
  290TIP3    H122505   0.170   1.930   2.488 -0.4439 -0.8029 -1.9432
  290TIP3    H222506   0.118   2.043   2.403  1.0222  2.8645  1.7065
  291TIP3   OH222507   1.308   1.151   4.075  0.0527 -0.4072 -0.2940
  291TIP3    H122508   1.374   1.167   4.142  0.9581  0.6461 -1.3797
  291TIP3    H222509   1.230   1.197   4.107  0.2641 -0.4905  0.3524
  292TIP3   OH222510   2.396   0.485   2.038 -0.2779  0.8160  0.0020
  292TIP3    H122511   2.477   0.463   1.991 -0.9166 -2.3127  0.1512
  292TIP3    H222512   2.402   0.435   2.119 -3.4785 -1.8632 -1.1910
  293TIP3   OH222513   1.974   2.051   3.526 -0.3736 -0.3968 -0.4631
  293TIP3    H122514   1.976   2.062   3.621 -1.0314 -0.7061 -0.4055
  293TIP3    H222515   1.916   2.121   3.495  0.3258  0.0909 -0.7076
  294TIP3   OH222516   2.894   0.967   2.249 -0.8059  0.1670  0.5192
  294TIP3    H122517   2.976   1.009   2.274 -0.7732  0.6214 -0.3185
  294TIP3    H222518   2.835   0.984   2.322 -0.0992 -0.3415  1.2189
  295TIP3   OH222519   4.400   4.978   0.899 -0.3790 -0.2361  0.3691
  295TIP3    H122520   4.431   5.029   0.973 -3.5200 -3.3046  4.2782
  295TIP3    H222521   4.449   4.896   0.905 -0.9756 -0.6894 -0.7102
  296TIP3   OH222522   3.994   4.793   1.772  0.4079 -0.9449 -0.0796
  296TIP3    H122523   3.938   4.719   1.748  2.5196 -2.2390 -1.2922
  296TIP3    H222524   4.009   4.783   1.866  0.2959 -1.7696 -0.1482
  297TIP3   OH222525   5.060   3.640   0.572  0.4290 -0.1192 -0.1085
  297TIP3    H122526   5.094   3.656   0.660 -3.3941  0.2812  1.4912
  297TIP3    H222527   5.037   3.727   0.539  1.3762 -0.3141 -1.3292
  298TIP3   OH222528   0.129   2.367   3.520 -0.3670  0.1617 -0.5180
  298TIP3    H122529   0.198   2.426   3.551 -0.2913  0.3223 -0.9824
  298TIP3    H222530   0.059   2.426   3.491 -1.0681 -0.0163  0.7799
  299TIP3   OH222531   0.610   1.662   0.876  0.4561  0.5305  0.1310
  299TIP3    H122532   0.645   1.605   0.809  0.3620  1.4452 -0.7239
  299TIP3    H222533   0.686   1.688   0.929  0.3712 -1.0580  1.0839
  300TIP3   OH222534   5.085   2.920   8.683 -0.1726 -0.1969 -0.1390
  300TIP3    H122535   5.141   2.964   8.619  0.8885 -1.1372  0.1036
  300TIP3    H222536   5.138   2.916   8.762 -1.6662  1.4209  1.0011
  301TIP3   OH222537   4.575   1.536   0.215 -0.1027  0.1825  0.3225
  301TIP3    H122538   4.650   1.478   0.229  1.1776  1.8016  0.4597
  301TIP3    H222539   4.521   1.524   0.293 -0.2104 -1.2974  0.0423
  302TIP3   OH222540   6.328   5.953   1.691 -0.1482 -0.2983 -0.3737
  302TIP3    H122541   6.311   6.007   1.768 -0.0569 -1.2156  0.3166
  302TIP3    H222542   6.242   5.936   1.654 -0.1160  0.9212 -1.0299
  303TIP3   OH222543   2.640   3.728   0.125  0.1051  0.2464  0.7127
  303TIP3    H122544   2.590   3.737   0.207 -0.3258 -0.6349  0.5576
  303TIP3    H222545   2.692   3.649   0.137  1.5191  1.1687  0.8759
  304TIP3   OH222546   5.842   4.373   3.781  0.6822  0.2032 -0.1244
  304TIP3    H122547   5.794   4.452   3.808  1.5832  0.5302  0.5630
  304TIP3    H222548   5.811   4.305   3.840  0.5021  0.2309 -0.1855
  305TIP3   OH222549   2.188   1.532   3.616  0.4183  0.1899  0.1145
  305TIP3    H122550   2.121   1.540   3.547  2.7025 -0.9279 -2.3992
  305TIP3    H222551   2.138   1.533   3.697 -2.5536  0.5714 -1.5663
  306TIP3   OH222552   0.294   1.859   3.694  0.0769  0.2082  0.5368
  306TIP3    H122553   0.337   1.918   3.631  1.5280 -2.4344 -1.1386
  306TIP3    H222554   0.343   1.871   3.775  0.0087  1.6360  0.3902
  307TIP3   OH222555   5.256   3.846   8.658  0.1523 -0.3989  0.5619
  307TIP3    H122556   5.263   3.932   8.698  1.3108 -1.2275  2.2782
  307TIP3    H222557   5.279   3.860   8.566 -0.1878  1.1857  0.6876
  308TIP3   OH222558   5.791   6.774   3.195 -0.2674 -0.3767 -0.5405
  308TIP3    H122559   5.827   6.754   3.281 -0.0411 -0.1462 -0.5815
  308TIP3    H222560   5.788   6.870   3.191 -1.0318 -0.3900 -0.4756
  309TIP3   OH222561   0.313   0.655   0.730 -0.3830 -0.0621 -0.0584
  309TIP3    H122562   0.392   0.694   0.766 -0.8704  1.3463 -0.4158
  309TIP3    H222563   0.244   0.720   0.748 -1.1594 -0.5690 -1.0553
  310TIP3   OH222564   6.215   6.028   2.094  0.2307 -0.1306  0.2911
  310TIP3    H122565   6.257   6.063   2.173 -0.4985  1.0361  0.1873
  310TIP3    H222566   6.212   5.933   2.108  1.1106 -0.0421  1.1647
  311TIP3   OH222567   5.868   2.713   0.263  0.3257  0.2673  0.9402
  311TIP3    H122568   5.927   2.753   0.199  0.7436 -2.1602 -0.3272
  311TIP3    H222569   5.857   2.779   0.331  2.3991  1.7734 -0.0875
  312TIP3   OH222570   3.558   5.660   0.271  0.6176 -0.0503 -0.2674
  312TIP3    H122571   3.514   5.744   0.287  0.0182  0.0159 -2.0683
  312TIP3    H222572   3.646   5.685   0.243 -0.2275  0.1510 -3.0058
  313TIP3   OH222573   5.050   0.455   4.223  0.7522  0.3213  0.0167
  313TIP3    H122574   5.020   0.478   4.136  0.5557 -0.9916 -0.2864
  313TIP3    H222575   4.999   0.510   4.282  0.1183  0.4466 -0.6472
  314TIP3   OH222576   5.833   5.174   3.152  0.5589 -0.1198  0.3637
  314TIP3    H122577   5.913   5.223   3.136 -0.0577  0.4665 -1.1161
  314TIP3    H222578   5.771   5.238   3.187  0.5032 -0.4100  0.8102
  315TIP3   OH222579   4.104   3.866   1.293  0.9481  1.0730 -0.0715
  315TIP3    H122580   4.079   3.774   1.296  2.3422  0.6286 -0.9435
  315TIP3    H222581   4.022   3.913   1.277  0.1340  0.0455  0.9514
  316TIP3   OH222582   0.315   3.261   0.459 -0.1567  0.3473 -0.6296
  316TIP3    H122583   0.323   3.276   0.553 -0.1354  2.0129 -0.8595
  316TIP3    H222584   0.222   3.248   0.445 -0.1353 -0.1114 -0.3500
  317TIP3   OH222585   1.146   0.700   3.248 -0.9692  0.3204  0.3538
  317TIP3    H122586   1.108   0.788   3.243 -2.7078 -0.4441 -0.8653
  317TIP3    H222587   1.153   0.683   3.342 -0.1717  1.9218  0.6196
  318TIP3   OH222588   4.792   5.181   1.017  0.3059 -0.5200 -0.2835
  318TIP3    H122589   4.704   5.217   1.002 -0.1377 -1.8191 -0.9453
  318TIP3    H222590   4.829   5.237   1.085 -1.4663 -0.6397  0.8596
  319TIP3   OH222591   0.991   5.606   1.316  0.0760 -0.2105  0.2174
  319TIP3    H122592   1.053   5.669   1.351  0.8410  0.5068 -2.2106
  319TIP3    H222593   1.044   5.545   1.265 -1.1311  0.5243 -2.0640
  320TIP3   OH222594   4.701   0.520   8.649 -0.8581  0.2631 -0.1825
  320TIP3    H122595   4.671   0.512   8.739  0.1340 -1.7363  0.0277
  320TIP3    H222596   4.623   0.503   8.596 -1.3746  1.1266  0.2771
  321TIP3   OH222597   1.967   2.243   3.242  0.0466  0.6495 -0.1339
  321TIP3    H122598   1.888   2.214   3.288 -1.3083  3.9581 -0.1113
  321TIP3    H222599   1.935   2.288   3.164  2.0785 -0.0140 -1.4371
  322TIP3   OH222600   0.687   3.796   2.621 -0.4682  0.2312 -0.2100
  322TIP3    H122601   0.673   3.825   2.531 -0.0048  0.0534 -0.3417
  322TIP3    H222602   0.673   3.875   2.674  3.0956  1.3937 -0.7423
  323TIP3   OH222603   5.201   1.423   2.985 -0.0918 -0.7373  0.4990
  323TIP3    H122604   5.107   1.439   2.971 -0.3867  1.0563  3.6395
  323TIP3    H222605   5.243   1.457   2.907 -2.0155 -1.1628 -0.7907
  324TIP3   OH222606   6.814   3.488   3.352 -0.0718 -0.0317  0.2898
  324TIP3    H122607   6.749   3.555   3.326  1.2126  1.3752  0.5701
  324TIP3    H222608   6.811   3.489   3.447  0.9405  0.6622  0.3262
  325TIP3   OH222609   6.161   0.152   1.576 -0.2741  0.1988 -0.3095
  325TIP3    H122610   6.196   0.128   1.662  0.0629  1.7108  0.0048
  325TIP3    H222611   6.224   0.116   1.514  2.4860  3.5058  0.2538
  326TIP3   OH222612   5.082   4.592   2.908 -0.3320 -1.0509  0.0789
  326TIP3    H122613   5.016   4.661   2.908 -1.7181 -2.2955  0.7716
  326TIP3    H222614   5.165   4.637   2.920 -1.3969  0.3429  3.0352
  327TIP3   OH222615   5.828   0.833   3.257  0.3095  0.0258 -0.2354
  327TIP3    H122616   5.783   0.865   3.335 -0.3154 -0.9686 -0.1724
  327TIP3    H222617   5.908   0.793   3.291  0.5719  0.5508 -0.2183
  328TIP3   OH222618   2.116   5.118   1.296 -0.2137  0.5517  0.4440
  328TIP3    H122619   2.142   5.045   1.239 -0.6126  1.2104 -0.6031
  328TIP3    H222620   2.048   5.164   1.247 -1.8542  0.1307  2.1881
  329TIP3   OH222621   1.772   4.392   2.936  0.2088  0.2056 -0.2875
  329TIP3    H122622   1.761   4.483   2.910  0.1989  0.6015  1.0422
  329TIP3    H222623   1.683   4.362   2.956  0.2304 -0.0523 -0.5731
  330TIP3   OH222624   2.897   1.866   4.196  0.1518  0.4148  0.2537
  330TIP3    H122625   2.993   1.868   4.194  0.1462  2.3416 -1.1371
  330TIP3    H222626   2.876   1.822   4.278  2.2126 -0.0368  0.6120
  331TIP3   OH222627   1.875   1.965   2.519  0.2562  0.0202  0.5795
  331TIP3    H122628   1.782   1.953   2.499  0.4036 -1.3787  0.6031
  331TIP3    H222629   1.906   2.025   2.451 -0.3118 -0.8419 -0.4806
  332TIP3   OH222630   4.545   6.351   2.502 -0.3991 -0.2178  0.2298
  332TIP3    H122631   4.502   6.404   2.435 -1.2933 -0.2684  0.7524
  332TIP3    H222632   4.535   6.401   2.583 -0.4075 -0.7411  0.5556
  333TIP3   OH222633   0.749   3.238   3.869  0.0381 -0.1712 -0.2862
  333TIP3    H122634   0.842   3.255   3.855  0.3036 -1.8179 -0.8002
  333TIP3    H222635   0.727   3.173   3.802 -1.3014 -0.3478  0.2972
  334TIP3   OH222636   2.714   5.675   0.142 -0.4822  0.7453 -0.0483
  334TIP3    H122637   2.626   5.684   0.107 -0.2664  2.2720 -0.2495
  334TIP3    H222638   2.702   5.633   0.227 -1.1067 -2.0199 -1.3779
  335TIP3   OH222639   6.218   3.134   2.986 -0.4185 -0.4379  0.1949
  335TIP3    H122640   6.156   3.067   2.958  1.1735 -2.6165  1.5022
  335TIP3    H222641   6.259   3.164   2.905 -0.2705 -2.0539 -0.3688
  336TIP3   OH222642   3.867   5.262   2.146  0.3039 -0.3554 -0.1998
  336TIP3    H122643   3.792   5.320   2.133  0.3603  0.2287  1.7515
  336TIP3    H222644   3.833   5.189   2.197  0.5869 -1.2691 -1.2801
  337TIP3   OH222645   1.832   4.126   2.363  0.3048 -0.7764 -0.0286
  337TIP3    H122646   1.876   4.079   2.434  1.2280 -0.1149 -0.1502
  337TIP3    H222647   1.809   4.211   2.400  0.4713 -0.5619 -0.4091
  338TIP3   OH222648   3.187   3.907   2.020  0.3514  0.3135 -0.5241
  338TIP3    H122649   3.180   3.825   1.970 -1.1058 -0.3693  0.7040
  338TIP3    H222650   3.121   3.964   1.982  1.3695  0.9473 -1.3805
  339TIP3   OH222651   4.610   2.663   8.196  0.3211  0.3877  0.1601
  339TIP3    H122652   4.638   2.752   8.175 -0.9565  0.1861 -2.8530
  339TIP3    H222653   4.671   2.607   8.148  0.0140 -0.3202  0.5772
  340TIP3   OH222654   1.578   5.197   0.401  0.0955 -0.1338 -0.1366
  340TIP3    H122655   1.608   5.228   0.315 -0.0557 -1.0665 -0.5426
  340TIP3    H222656   1.586   5.101   0.396  2.0336 -0.1227  1.6155
  341TIP3   OH222657   4.587   4.853   1.312 -0.1541 -0.0023 -0.6095
  341TIP3    H122658   4.577   4.845   1.407  1.0691 -1.7358 -0.5799
  341TIP3    H222659   4.502   4.824   1.278  0.7352 -3.8256 -0.0849
  342TIP3   OH222660   4.581   3.525   8.729  0.0890 -0.0349  0.1117
  342TIP3    H122661   4.642   3.566   8.669 -1.2314 -0.0909 -1.3366
  342TIP3    H222662   4.541   3.454   8.678 -1.5228  0.3074  0.8194
  343TIP3   OH222663   0.763   6.493   4.036 -0.0937 -0.0637  0.4950
  343TIP3    H122664   0.790   6.554   4.105 -1.9229  0.4053  0.8503
  343TIP3    H222665   0.703   6.432   4.080 -1.7783  0.6071 -0.7655
  344TIP3   OH222666   5.868   6.008   4.161  0.0866  0.5378 -0.4841
  344TIP3    H122667   5.937   6.075   4.161 -0.3402  0.9771 -0.6393
  344TIP3    H222668   5.916   5.925   4.163  0.6134  0.8370  1.5994
  345TIP3   OH222669   6.809   4.418   3.048  0.6714  0.0843  0.5899
  345TIP3    H122670   6.783   4.329   3.022  3.6603 -0.5107 -0.7912
  345TIP3    H222671   6.780   4.472   2.974 -1.3001  0.3861  1.5048
  346TIP3   OH222672   2.642   3.912   1.198  0.6040 -0.2960 -0.0968
  346TIP3    H122673   2.613   3.942   1.284 -1.6302 -0.8008 -0.6114
  346TIP3    H222674   2.699   3.837   1.216 -0.0109 -0.5249  0.9446
  347TIP3   OH222675   3.242   0.980   2.118 -0.3056  0.4040 -0.6275
  347TIP3    H122676   3.211   0.964   2.207  0.5953  2.8332  0.2064
  347TIP3    H222677   3.320   0.924   2.109 -2.0025 -2.0746 -1.0357
  348TIP3   OH222678   2.693   1.481   3.484 -0.6685  0.0249 -0.2216
  348TIP3    H122679   2.700   1.554   3.422  0.3394 -0.2374 -0.4397
  348TIP3    H222680   2.673   1.522   3.568  0.9760  0.6871 -0.1042
  349TIP3   OH222681   1.096   3.803   1.348  0.0677  0.5048  0.2203
  349TIP3    H122682   1.052   3.764   1.423 -0.1832 -0.0721 -0.2183
  349TIP3    H222683   1.180   3.834   1.383  1.2511 -2.3536  0.1864
  350TIP3   OH222684   0.845   2.472   3.600 -0.1751 -0.1080 -0.2391
  350TIP3    H122685   0.781   2.434   3.660 -0.8432  1.2742 -0.0476
  350TIP3    H222686   0.905   2.400   3.580 -0.7487 -0.9565  0.9860
  351TIP3   OH222687   2.639   1.223   0.568 -0.4152 -1.2567 -0.1158
  351TIP3    H122688   2.697   1.184   0.501 -0.3557 -3.0224  0.8961
  351TIP3    H222689   2.632   1.155   0.635 -0.7097  0.3641  1.5456
  352TIP3   OH222690   4.460   3.034   2.594 -0.4031 -0.8581  0.0142
  352TIP3    H122691   4.375   3.077   2.583  0.1588  0.9330  2.1391
  352TIP3    H222692   4.445   2.945   2.561 -2.5022 -0.0110 -1.5691
  353TIP3   OH222693   6.046   2.309   1.156 -0.1181  0.0894  0.0757
  353TIP3    H122694   5.964   2.292   1.111 -0.1786 -0.9921  0.5695
  353TIP3    H222695   6.033   2.393   1.200 -0.7165  0.2384 -0.3905
  354TIP3   OH222696   3.063   0.669   1.200 -0.0022  0.0573  0.2835
  354TIP3    H122697   3.129   0.678   1.131  0.5208 -1.1526  0.6111
  354TIP3    H222698   3.113   0.645   1.278 -0.4942  2.1563  1.3195
  355TIP3   OH222699   4.168   4.686   1.997 -0.4731 -0.0873  0.2608
  355TIP3    H122700   4.255   4.722   1.980 -0.8061  0.3005 -0.7288
  355TIP3    H222701   4.160   4.685   2.092  0.0603  1.2084  0.3401
  356TIP3   OH222702   5.301   3.758   2.578 -0.0250  0.5949 -0.4049
  356TIP3    H122703   5.257   3.673   2.580 -0.8661  0.9455 -1.9159
  356TIP3    H222704   5.323   3.771   2.486  0.8873  1.6306 -0.0597
  357TIP3   OH222705   0.134   0.850   2.761  0.6398  0.1025 -1.1960
  357TIP3    H122706   0.075   0.774   2.759 -0.5581  0.9419  0.1025
  357TIP3    H222707   0.204   0.825   2.820  1.0339 -0.5081 -1.9045
  358TIP3   OH222708   5.111   4.878   0.079 -0.1164 -0.1714  0.1374
  358TIP3    H122709   5.078   4.858   0.167 -0.4715 -2.0838 -0.3927
  358TIP3    H222710   5.141   4.794   0.044 -0.3234  0.4749 -1.7236
  359TIP3   OH222711   6.532   4.328   1.951  0.1958 -0.3298 -0.0779
  359TIP3    H122712   6.599   4.262   1.934  1.4664  1.6033 -3.8883
  359TIP3    H222713   6.578   4.398   1.998  0.3708  0.1212 -0.8942
  360TIP3   OH222714   5.133   0.922   2.610 -0.3053  0.1137  0.0604
  360TIP3    H122715   5.070   0.992   2.622  0.1027  0.5751 -0.4787
  360TIP3    H222716   5.120   0.865   2.687  0.2368  1.4450  1.1880
  361TIP3   OH222717   2.945   4.451   0.737  0.7000  0.0190  0.0083
  361TIP3    H122718   2.935   4.357   0.728  2.9122 -0.3274  0.5859
  361TIP3    H222719   2.998   4.477   0.662 -1.8487  1.2616 -1.4879
  362TIP3   OH222720   1.826   1.838   3.430  0.1689 -0.5161 -0.0269
  362TIP3    H122721   1.893   1.903   3.452  1.1076 -1.5842  0.3449
  362TIP3    H222722   1.815   1.845   3.335  1.9402 -1.3735 -0.3233
  363TIP3   OH222723   0.661   1.270   1.513  0.6188 -0.5530  0.0571
  363TIP3    H122724   0.594   1.271   1.581 -0.7441  1.1004 -1.2089
  363TIP3    H222725   0.644   1.190   1.463 -0.5144 -0.0765 -0.3343
  364TIP3   OH222726   1.998   5.334   0.403  0.1995 -0.2182  0.3826
  364TIP3    H122727   1.921   5.278   0.400  3.0791 -4.6603  0.1451
  364TIP3    H222728   1.972   5.412   0.354 -3.7363 -1.8874 -0.6256
  365TIP3   OH222729   4.273   0.159   4.287  0.5789 -0.2017 -0.2559
  365TIP3    H122730   4.266   0.206   4.369  1.8798 -1.7815  0.8309
  365TIP3    H222731   4.365   0.166   4.263  0.0455  1.0799 -2.1595
  366TIP3   OH222732   1.310   4.891   3.206 -0.2435  0.2869 -0.6437
  366TIP3    H122733   1.353   4.977   3.209 -0.5324  0.4667 -1.5268
  366TIP3    H222734   1.306   4.863   3.298  1.8634  0.2120 -0.5355
  367TIP3   OH222735   5.920   6.554   3.732 -0.3736  0.4517 -0.3488
  367TIP3    H122736   5.870   6.590   3.659 -2.1945  0.7775  0.9835
  367TIP3    H222737   5.960   6.631   3.773 -0.2335  0.3992 -0.3895
  368TIP3   OH222738   2.304   5.993   3.658 -0.5440  0.2919  0.5044
  368TIP3    H122739   2.397   5.974   3.673 -0.7480 -0.3815  0.9442
  368TIP3    H222740   2.273   5.919   3.607 -0.8802  0.4381  0.4976
  369TIP3   OH222741   1.582   3.070   2.613 -0.8344  0.1125 -0.1882
  369TIP3    H122742   1.598   3.005   2.545 -0.6871 -1.2505  1.0758
  369TIP3    H222743   1.636   3.145   2.589 -0.7291 -0.3637 -1.5058
  370TIP3   OH222744   0.966   5.396   2.368 -0.2041 -0.1630  0.3784
  370TIP3    H122745   1.030   5.398   2.439  0.6538  1.0602 -0.3905
  370TIP3    H222746   1.019   5.391   2.288 -1.1666 -2.5646 -0.1868
  371TIP3   OH222747   2.687   2.921   1.854 -0.1414 -0.5556 -0.0425
  371TIP3    H122748   2.671   2.836   1.895  1.4611 -2.1901 -2.5196
  371TIP3    H222749   2.781   2.936   1.865  0.0246 -0.2523 -1.5798
  372TIP3   OH222750   5.384   4.121   2.053 -0.0189  0.0791  0.1792
  372TIP3    H122751   5.377   4.213   2.076  0.7042 -0.0105  0.7974
  372TIP3    H222752   5.351   4.116   1.964  0.0169  0.9483  0.1092
  373TIP3   OH222753   0.007   0.487   0.195  0.1746 -0.1393 -0.4752
  373TIP3    H122754   0.078   0.435   0.232  0.2078  0.4729  0.3514
  373TIP3    H222755   0.038   0.513   0.108  0.5061 -0.7739 -0.5527
  374TIP3   OH222756   2.315   0.923   8.632 -0.0227  0.3413 -0.5274
  374TIP3    H122757   2.226   0.892   8.650  0.0119  0.8600  0.6102
  374TIP3    H222758   2.303   1.010   8.594 -0.0675 -0.4949 -2.5741
  375TIP3   OH222759   1.791   2.731   1.977  0.1880  0.0052  0.0948
  375TIP3    H122760   1.872   2.681   1.987  0.0047 -0.7435 -1.8232
  375TIP3    H222761   1.753   2.733   2.065  0.2190 -3.2643  0.2949
  376TIP3   OH222762   0.759   1.591   3.776 -0.8326  0.0341  0.1817
  376TIP3    H122763   0.730   1.648   3.704 -0.9861  1.0595  1.0235
  376TIP3    H222764   0.855   1.597   3.773 -0.6729 -2.2703 -1.7436
  377TIP3   OH222765   4.808   4.392   2.206  0.8794  0.2991 -0.1639
  377TIP3    H122766   4.719   4.427   2.212  0.6478 -0.2022 -0.5458
  377TIP3    H222767   4.795   4.299   2.184  1.4711  0.0172  0.6077
  378TIP3   OH222768   4.198   0.136   3.834 -0.5318  0.0541  0.4673
  378TIP3    H122769   4.291   0.123   3.813 -0.0619 -0.3622  2.5178
  378TIP3    H222770   4.153   0.071   3.781  0.5689 -1.0667  0.8317
  379TIP3   OH222771   0.108   5.076   1.390  0.2181  0.3427 -0.7295
  379TIP3    H122772   0.078   5.060   1.480  1.2746 -0.0394 -0.4365
  379TIP3    H222773   0.198   5.106   1.400  1.2345 -2.1036 -1.7861
  380TIP3   OH222774   6.473   2.042   2.936 -0.0103  0.0048 -0.5065
  380TIP3    H122775   6.496   2.126   2.897  0.4633  0.0634 -0.1116
  380TIP3    H222776   6.472   2.059   3.030  1.7707 -0.8130 -0.3040
  381TIP3   OH222777   4.925   6.245   2.877 -0.0380  0.3037  0.6498
  381TIP3    H122778   4.969   6.226   2.960  1.2068 -0.4001 -0.1504
  381TIP3    H222779   4.978   6.314   2.837 -1.0085  1.1141  0.7021
  382TIP3   OH222780   0.477   5.375   8.753 -0.1002 -0.0546 -0.9027
  382TIP3    H122781   0.512   5.292   8.721 -1.1665 -0.1042 -2.0174
  382TIP3    H222782   0.386   5.356   8.774 -0.3243  0.7926 -1.0531
  383TIP3   OH222783   5.822   1.471   0.774 -0.0307 -0.1700 -0.1710
  383TIP3    H122784   5.803   1.455   0.867  1.0645 -1.3119 -0.1138
  383TIP3    H222785   5.787   1.558   0.757 -1.3324 -0.4361  0.9966
  384TIP3   OH222786   6.060   3.698   0.778  0.3135 -0.5368 -0.2988
  384TIP3    H122787   6.028   3.609   0.766 -1.7556 -0.2821  2.3808
  384TIP3    H222788   6.037   3.744   0.697 -0.3670 -1.9579 -0.9360
  385TIP3   OH222789   1.540   3.413   0.868  0.1335 -0.6870 -0.2244
  385TIP3    H122790   1.508   3.452   0.786 -1.1549 -0.6146  0.2875
  385TIP3    H222791   1.500   3.467   0.936  1.6677 -0.3818  0.4592
  386TIP3   OH222792   0.341   5.786   1.861 -0.8213 -0.4322  0.1952
  386TIP3    H122793   0.301   5.871   1.844 -0.9372 -0.5345 -0.0425
  386TIP3    H222794   0.286   5.723   1.814 -1.3158 -0.7506  1.1730
  387TIP3   OH222795   1.438   6.137   4.150  0.9046 -0.0962  0.5116
  387TIP3    H122796   1.526   6.124   4.188  0.4867 -2.8849  0.7271
  387TIP3    H222797   1.399   6.050   4.151 -1.0958  0.6977 -1.5917
  388TIP3   OH222798   3.159   1.397   1.133 -0.0185  0.7621  0.2970
  388TIP3    H122799   3.173   1.334   1.204 -0.2335 -1.6000 -1.6101
  388TIP3    H222800   3.167   1.483   1.174  1.8550 -0.4814  2.7622
  389TIP3   OH222801   3.831   4.480   1.341 -0.0207  0.0693  0.5206
  389TIP3    H122802   3.781   4.437   1.272 -0.8798  1.1436  0.4415
  389TIP3    H222803   3.888   4.411   1.376 -1.7515 -1.2906  0.8137
  390TIP3   OH222804   2.370   1.467   1.129 -0.2222 -0.3562  0.0651
  390TIP3    H122805   2.300   1.516   1.171  0.6358  1.6054 -0.6873
  390TIP3    H222806   2.449   1.490   1.179  0.2873 -0.5352 -0.6402
  391TIP3   OH222807   1.869   2.139   3.786  0.4024  0.4394  0.9340
  391TIP3    H122808   1.843   2.187   3.708 -0.9159  1.4566  1.9429
  391TIP3    H222809   1.808   2.168   3.854  1.0717 -0.9061  2.1868
  392TIP3   OH222810   1.681   3.187   2.903  0.1392  0.0935 -0.3028
  392TIP3    H122811   1.618   3.119   2.925  0.1075  0.6211  1.3788
  392TIP3    H222812   1.702   3.172   2.811 -0.0212 -2.0444 -0.0311
  393TIP3   OH222813   5.802   1.159   8.449 -0.0746  0.3902  0.1407
  393TIP3    H122814   5.759   1.154   8.534  1.5770  0.1899  1.0014
  393TIP3    H222815   5.734   1.192   8.390 -1.7469 -1.0294  1.1609
  394TIP3   OH222816   4.009   2.200   1.227  0.4494 -0.5720 -0.2122
  394TIP3    H122817   4.037   2.110   1.211 -1.4008 -1.3059  0.4146
  394TIP3    H222818   3.968   2.228   1.145 -1.0954 -1.1734  0.3282
  395TIP3   OH222819   6.740   2.092   2.401 -0.1039 -0.1569  0.3176
  395TIP3    H122820   6.750   2.121   2.492 -0.1542 -1.5373  0.7822
  395TIP3    H222821   6.706   2.003   2.407 -1.7588  0.3288 -1.0945
  396TIP3   OH222822   4.593   3.348   1.280 -0.1539  0.2211 -0.5301
  396TIP3    H122823   4.555   3.275   1.231  1.1237  0.1337 -1.4584
  396TIP3    H222824   4.655   3.388   1.218  1.1180  0.4508  0.8304
  397TIP3   OH222825   0.264   1.352   0.918 -0.1680 -0.2779 -0.7009
  397TIP3    H122826   0.326   1.302   0.971 -1.3311 -0.0985  0.8887
  397TIP3    H222827   0.314   1.377   0.840  1.3007 -1.3823 -0.1584
  398TIP3   OH222828   6.332   2.012   1.320 -0.0099  0.3482 -0.7210
  398TIP3    H122829   6.421   1.992   1.291  1.0270  2.6531  0.5534
  398TIP3    H222830   6.302   2.081   1.261  0.5539  2.1769  0.9935
  399TIP3   OH222831   4.978   5.391   8.088 -0.0075 -0.4009 -0.0846
  399TIP3    H122832   4.904   5.415   8.145 -2.3354 -0.1238 -2.9755
  399TIP3    H222833   4.958   5.302   8.060  1.2340 -0.6319 -0.2732
  400TIP3   OH222834   2.656   4.390   0.758 -0.3432  0.1937 -1.0969
  400TIP3    H122835   2.752   4.394   0.752 -0.4605  2.2312 -2.1322
  400TIP3    H222836   2.628   4.357   0.673 -0.6007 -0.2881 -0.8344
  401TIP3   OH222837   5.609   1.510   8.550  0.3884  0.4688 -0.0009
  401TIP3    H122838   5.636   1.418   8.540  1.6617  1.0143 -2.1614
  401TIP3    H222839   5.673   1.547   8.610  0.2079  0.1036  0.4280
  402TIP3   OH222840   4.986   6.776   0.128  0.3785 -0.6026  0.5191
  402TIP3    H122841   5.038   6.700   0.105  1.6823  0.0157  1.3246
  402TIP3    H222842   5.044   6.830   0.181 -0.4393  1.0418 -0.1720
  403TIP3   OH222843   5.377   6.407   1.257  0.8049 -0.1313 -0.1794
  403TIP3    H122844   5.432   6.331   1.238  1.1545 -0.0093  0.3104
  403TIP3    H222845   5.301   6.371   1.303  0.9967 -0.1878  0.1022
  404TIP3   OH222846   6.673   4.888   2.796  0.1420 -1.0318 -0.1408
  404TIP3    H122847   6.587   4.925   2.815 -0.3193 -3.1272  2.3073
  404TIP3    H222848   6.731   4.964   2.793 -1.4463  0.2546  0.2152
  405TIP3   OH222849   0.532   0.030   7.879 -0.7181  0.1239 -0.4469
  405TIP3    H122850   0.606  -0.026   7.855 -2.3471 -1.3696 -2.2330
  405TIP3    H222851   0.566   0.083   7.952  1.4658 -1.8742  0.1302
  406TIP3   OH222852   3.897   0.370   1.236  0.2357  0.7715  0.1800
  406TIP3    H122853   3.930   0.458   1.220  1.5384  0.5936  1.6786
  406TIP3    H222854   3.859   0.374   1.325 -1.7050  0.3540 -0.5673
  407TIP3   OH222855   0.146   0.957   0.423  0.0752 -0.1239 -0.2461
  407TIP3    H122856   0.107   0.962   0.510  0.1673  2.4991 -0.2865
  407TIP3    H222857   0.072   0.952   0.363 -0.0975  0.9102 -0.1311
  408TIP3   OH222858   4.600   5.442   3.954 -0.2190 -0.3434  0.1706
  408TIP3    H122859   4.650   5.507   4.003 -0.2649  0.3728 -0.7156
  408TIP3    H222860   4.518   5.487   3.932  0.2731 -0.2344 -1.5563
  409TIP3   OH222861   3.221   6.632   2.042  0.5452  0.1405  0.2077
  409TIP3    H122862   3.240   6.681   1.961  1.1851 -0.9532 -0.3263
  409TIP3    H222863   3.134   6.662   2.068  1.0006  1.7399  0.0480
  410TIP3   OH222864   6.363   1.304   8.562 -0.0008  0.2228  0.0097
  410TIP3    H122865   6.375   1.237   8.494 -2.0611 -0.2468  0.0241
  410TIP3    H222866   6.391   1.385   8.521  3.6738 -0.6983  0.3650
  411TIP3   OH222867   0.160   3.082   1.291  0.0448  0.1454  0.1336
  411TIP3    H122868   0.192   3.054   1.206 -0.5109  0.2197 -0.1060
  411TIP3    H222869   0.158   3.002   1.344 -0.1663 -0.0069 -0.1044
  412TIP3   OH222870   0.544   5.522   1.054 -0.1509  0.2544  0.1156
  412TIP3    H122871   0.563   5.429   1.041  0.5210  0.2938  0.7543
  412TIP3    H222872   0.602   5.566   0.991  0.3134  0.2819  0.5575
  413TIP3   OH222873   1.706   4.571   3.230 -0.0812 -0.5248  0.2047
  413TIP3    H122874   1.772   4.503   3.221  0.1060 -0.7796  2.7541
  413TIP3    H222875   1.624   4.529   3.205  0.3611 -0.9534 -0.5513
  414TIP3   OH222876   2.416   5.170   1.821  0.1402  0.2736  0.2735
  414TIP3    H122877   2.420   5.153   1.727  0.2712  0.4903  0.2397
  414TIP3    H222878   2.502   5.205   1.843 -0.0863  0.7819  0.3631
  415TIP3   OH222879   1.373   3.784   2.619  0.1834  0.3549  0.4682
  415TIP3    H122880   1.291   3.786   2.568  1.4172  0.1342 -1.6413
  415TIP3    H222881   1.366   3.705   2.672  0.1450 -1.1776 -1.7159
  416TIP3   OH222882   2.701   5.582   0.414  0.1625 -0.4983  0.3500
  416TIP3    H122883   2.722   5.648   0.480  1.5426 -0.4399 -0.1043
  416TIP3    H222884   2.689   5.501   0.464 -0.8512 -0.0594  0.8437
  417TIP3   OH222885   5.128   5.180   0.930  0.8036  0.2870 -0.5345
  417TIP3    H122886   5.186   5.159   0.856  0.0079  0.1908 -1.1370
  417TIP3    H222887   5.123   5.098   0.979 -0.9685 -0.5320 -1.9745
  418TIP3   OH222888   1.754   4.202   1.105  0.0552  0.1156  0.4111
  418TIP3    H122889   1.742   4.199   1.200  2.8866  0.2777  0.8492
  418TIP3    H222890   1.772   4.294   1.087 -3.0262  0.6112 -0.7539
  419TIP3   OH222891   3.836   2.400   0.710  0.0024  0.1380 -0.1101
  419TIP3    H122892   3.901   2.417   0.642 -1.4881  1.2629 -1.3337
  419TIP3    H222893   3.832   2.483   0.759 -1.4284  0.5736 -0.9059
  420TIP3   OH222894   0.105   2.180   0.773 -0.6347  0.7888  0.2231
  420TIP3    H122895   0.178   2.225   0.730 -0.1646 -1.3630 -1.3824
  420TIP3    H222896   0.027   2.228   0.745 -0.4476 -0.8832 -3.8663
  421TIP3   OH222897   6.703   5.466   1.841 -0.2706 -0.6371  0.0280
  421TIP3    H122898   6.737   5.394   1.787 -2.1687 -0.4747 -1.5065
  421TIP3    H222899   6.630   5.501   1.790  0.1003  1.8824  1.1153
  422TIP3   OH222900   2.602   1.148   3.274  0.3622 -0.0449  0.2891
  422TIP3    H122901   2.680   1.093   3.281  0.3466  0.0601  1.6334
  422TIP3    H222902   2.573   1.160   3.365 -1.6092 -0.6343 -0.1944
  423TIP3   OH222903   3.573   6.106   0.855  0.2334 -0.1405  0.4294
  423TIP3    H122904   3.605   6.030   0.904 -2.7119 -0.9047  1.4319
  423TIP3    H222905   3.620   6.181   0.892  0.1684 -1.0324  2.4668
  424TIP3   OH222906   1.676   5.174   1.046  0.4272  0.1018  0.0116
  424TIP3    H122907   1.621   5.154   0.969 -2.5929  0.4333  1.8998
  424TIP3    H222908   1.668   5.269   1.056  0.6866  0.0428  0.7827
  425TIP3   OH222909   5.710   6.005   0.229  0.2559 -0.2093  0.0309
  425TIP3    H122910   5.672   6.078   0.180 -1.3503 -0.2882  1.0928
  425TIP3    H222911   5.804   6.015   0.217 -0.0075  1.0383 -1.2404
  426TIP3   OH222912   5.088   3.704   1.186 -0.5034 -0.1528  0.1663
  426TIP3    H122913   5.175   3.680   1.156  0.2730  1.1939  1.2287
  426TIP3    H222914   5.032   3.631   1.159  1.0375 -1.2992 -0.0450
  427TIP3   OH222915   6.402   1.515   8.379 -0.2576  0.6777  0.0474
  427TIP3    H122916   6.488   1.529   8.418 -0.1187  1.4645 -0.5138
  427TIP3    H222917   6.418   1.514   8.285 -0.9814  1.8352 -0.1115
  428TIP3   OH222918   4.321   1.823   1.178  0.5153 -0.4156  0.0061
  428TIP3    H122919   4.314   1.781   1.092 -0.6260  0.1876 -0.2204
  428TIP3    H222920   4.359   1.909   1.159 -0.4092  0.0027 -0.0098
  429TIP3   OH222921   2.158   4.043   2.721  0.6460  0.1870  0.4287
  429TIP3    H122922   2.134   3.998   2.641  0.2203  0.2150  0.5393
  429TIP3    H222923   2.226   4.105   2.695 -1.0059  1.7594 -0.3480
  430TIP3   OH222924   5.322   1.156   2.948  0.0002 -0.0926 -0.1771
  430TIP3    H122925   5.314   1.217   3.021 -0.4080  0.8087 -0.9608
  430TIP3    H222926   5.238   1.161   2.903 -0.5606 -2.2598  0.5085
  431TIP3   OH222927   0.237   4.556   3.952  0.4924  0.2334  0.1817
  431TIP3    H122928   0.206   4.471   3.984 -1.8288  0.8946 -0.1364
  431TIP3    H222929   0.261   4.604   4.032  2.9537 -1.0563  0.3033
  432TIP3   OH222930   3.327   4.246   2.327 -0.5496 -0.4164 -0.0236
  432TIP3    H122931   3.246   4.285   2.360 -1.2077 -0.3119 -1.7061
  432TIP3    H222932   3.300   4.194   2.252  0.8454 -1.0313 -0.1231
  433TIP3   OH222933   2.439   1.931   4.042 -0.2860  0.5331  0.0095
  433TIP3    H122934   2.467   1.980   3.964 -0.8532 -0.1883 -0.6696
  433TIP3    H222935   2.417   1.998   4.106  1.0377  1.1400 -0.1331
  434TIP3   OH222936   3.506   3.761   1.750  0.1224  0.4743 -0.3313
  434TIP3    H122937   3.580   3.784   1.693  0.9508  0.9512  0.8967
  434TIP3    H222938   3.444   3.833   1.741  0.1301  0.4207 -0.8189
  435TIP3   OH222939   0.606   3.472   4.189 -0.0653 -0.1999 -0.1217
  435TIP3    H122940   0.659   3.396   4.213  0.2498  0.4269  1.2218
  435TIP3    H222941   0.526   3.435   4.152  0.2418 -1.1731  0.1647
  436TIP3   OH222942   1.800   6.640   0.373  0.2164 -0.6806  0.6432
  436TIP3    H122943   1.801   6.573   0.441 -0.7733 -2.3103 -0.8605
  436TIP3    H222944   1.707   6.660   0.360  0.3945 -0.2755 -0.0935
  437TIP3   OH222945   6.463   1.130   3.919 -0.2136  0.0716 -0.3853
  437TIP3    H122946   6.465   1.219   3.885  1.7030  0.2637  0.1262
  437TIP3    H222947   6.491   1.075   3.845 -0.8587 -0.0824 -0.5322
  438TIP3   OH222948   6.599   4.397   3.268 -0.1616 -0.6992  0.3173
  438TIP3    H122949   6.685   4.436   3.256 -0.7256  0.3297 -0.5171
  438TIP3    H222950   6.607   4.310   3.227  0.7362 -1.0043  1.0939
  439TIP3   OH222951   4.697   4.133   2.181  0.1823 -0.2486  0.3943
  439TIP3    H122952   4.694   4.055   2.236  2.5343  0.3115  1.4680
  439TIP3    H222953   4.756   4.109   2.109  0.5288  0.3674  0.4643
  440TIP3   OH222954   5.630   2.927   8.049  0.0235  0.4423  0.0014
  440TIP3    H122955   5.578   2.963   7.978  2.3018  0.7579 -1.6184
  440TIP3    H222956   5.656   2.840   8.019 -0.5297 -0.1992  1.3028
  441TIP3   OH222957   1.905   2.390   3.043  0.0016  0.1501  0.1884
  441TIP3    H122958   1.902   2.336   2.964 -0.2806  0.0795  0.2494
  441TIP3    H222959   1.816   2.423   3.053  0.5687  2.1662 -0.9173
  442TIP3   OH222960   2.985   0.939   0.578  0.3019  0.1119  0.0679
  442TIP3    H122961   3.044   0.945   0.503  0.6298  0.0205  0.3134
  442TIP3    H222962   2.999   0.850   0.612 -1.4589 -0.6357 -1.0733
  443TIP3   OH222963   6.580   6.244   0.388 -0.5051 -0.0150  0.2300
  443TIP3    H122964   6.503   6.248   0.445 -0.3792  0.4164  0.3741
  443TIP3    H222965   6.577   6.326   0.338 -1.0194 -0.7110 -0.9214
  444TIP3   OH222966   5.148   4.932   0.715  0.0781 -0.4191 -0.6049
  444TIP3    H122967   5.091   4.906   0.787 -0.6575  0.2831 -0.9155
  444TIP3    H222968   5.237   4.912   0.746 -0.1263  0.8637  0.9342
  445TIP3   OH222969   2.440   0.695   1.281 -0.3724  0.0004 -0.2009
  445TIP3    H122970   2.480   0.780   1.262  1.8021 -1.1637 -1.2286
  445TIP3    H222971   2.349   0.704   1.254 -0.0830  1.8689 -0.6818
  446TIP3   OH222972   3.749   1.092   3.868  0.3532 -0.1674  0.1100
  446TIP3    H122973   3.747   1.187   3.874  4.2597 -0.0081  2.1549
  446TIP3    H222974   3.710   1.062   3.950  0.1449 -0.3132 -0.0393
  447TIP3   OH222975   0.027   6.202   0.255 -0.2172  0.0691 -0.2328
  447TIP3    H122976   0.091   6.197   0.326 -0.4288  0.1220 -0.0375
  447TIP3    H222977  -0.043   6.142   0.281  0.1173 -0.5999 -0.8221
  448TIP3   OH222978   2.062   0.970   0.666 -0.7984 -0.6770  0.3708
  448TIP3    H122979   2.142   0.998   0.623 -1.3631 -0.3903 -0.5309
  448TIP3    H222980   1.998   1.039   0.646 -1.9814 -2.1133 -1.1627
  449TIP3   OH222981   3.220   4.839   8.665 -0.4015  0.1662  0.6647
  449TIP3    H122982   3.183   4.751   8.656  1.5349 -0.7066  0.8363
  449TIP3    H222983   3.293   4.841   8.604  0.4033  1.2134  1.6134
  450TIP3   OH222984   0.430   1.130   2.757  0.1327 -0.9089  0.2139
  450TIP3    H122985   0.436   1.216   2.716  0.1473  0.1781  2.3405
  450TIP3    H222986   0.518   1.093   2.749  1.6988  1.5115  3.6272
  451TIP3   OH222987   5.303   2.141   2.596  0.4540 -0.2995  0.5259
  451TIP3    H122988   5.396   2.159   2.604  0.3781  0.2897  0.1634
  451TIP3    H222989   5.263   2.187   2.671  0.1822  1.7700 -0.7823
  452TIP3   OH222990   5.095   2.055   8.374  0.9411  0.0066  0.1673
  452TIP3    H122991   5.048   2.048   8.457  0.7247 -1.3175 -0.0392
  452TIP3    H222992   5.140   2.139   8.379  1.0455 -0.1063  1.6786
  453TIP3   OH222993   2.693   5.813   2.105  0.0574 -0.4092 -0.2001
  453TIP3    H122994   2.682   5.894   2.155  0.2050  0.3757 -1.3947
  453TIP3    H222995   2.683   5.744   2.169 -1.7209  0.4979  0.5839
  454TIP3   OH222996   3.773   4.370   2.177  0.0804 -0.3143  0.3368
  454TIP3    H122997   3.678   4.373   2.166 -0.0874 -0.2727  1.6981
  454TIP3    H222998   3.794   4.445   2.233  0.7517 -1.0303  1.0735
  455TIP3   OH222999   1.752   2.134   1.563  0.1762 -0.1201 -0.7408
  455TIP3    H123000   1.769   2.041   1.551  1.5990  0.0216 -0.0653
  455TIP3    H223001   1.803   2.177   1.495 -0.1130  0.1981 -0.7622
  456TIP3   OH223002   5.235   3.070   8.057 -0.3972 -0.6537 -0.3444
  456TIP3    H123003   5.204   3.147   8.104 -0.2005 -0.1617 -1.0003
  456TIP3    H223004   5.208   2.996   8.111 -0.0182 -0.1002  0.6265
  457TIP3   OH223005   6.406   0.430   3.280 -0.3188 -0.0181  0.5209
  457TIP3    H123006   6.397   0.470   3.367 -1.0337 -0.9620  0.9015
  457TIP3    H223007   6.481   0.370   3.289 -1.3133 -1.2394  0.9551
  458TIP3   OH223008   0.750   6.122   3.009  0.9152  0.5002 -0.0548
  458TIP3    H123009   0.817   6.151   3.071 -0.8668  2.3375  1.1402
  458TIP3    H223010   0.743   6.028   3.023  0.6501  0.8374  2.5407
  459TIP3   OH223011   0.059   0.634   0.414  0.4309 -0.0487 -0.5769
  459TIP3    H123012   0.018   0.601   0.335  0.3897 -0.9555 -0.1906
  459TIP3    H223013   0.131   0.689   0.383  1.0163 -1.1650 -1.2514
  460TIP3   OH223014   1.884   6.452   8.211 -0.5229  0.5288  0.0560
  460TIP3    H123015   1.820   6.479   8.277  1.4437  1.4187  1.7199
  460TIP3    H223016   1.902   6.532   8.161  1.4223  1.0997  1.5567
  461TIP3   OH223017   1.269   5.675   2.116 -0.5790 -0.9371  0.2814
  461TIP3    H123018   1.189   5.688   2.066 -0.6853  1.0969  0.8631
  461TIP3    H223019   1.321   5.613   2.065 -0.7246  0.9306 -2.3104
  462TIP3   OH223020   5.419   1.892   0.921  0.5152  0.4339  0.2327
  462TIP3    H123021   5.457   1.929   0.841  0.5271 -0.2399 -0.0816
  462TIP3    H223022   5.493   1.885   0.982  1.0208 -1.1982 -0.4943
  463TIP3   OH223023   5.601   5.443   0.534  0.0173 -0.6701  0.0198
  463TIP3    H123024   5.599   5.349   0.555 -2.2054 -0.3242  1.8899
  463TIP3    H223025   5.646   5.483   0.609  0.2187 -0.1636 -0.3669
  464TIP3   OH223026   2.408   3.615   1.127 -0.1705  0.5807 -0.1577
  464TIP3    H123027   2.490   3.620   1.077  1.3882  2.3024  2.3666
  464TIP3    H223028   2.390   3.521   1.135  1.6864  0.1550 -0.5712
  465TIP3   OH223029   0.744   1.295   1.217  0.0112  0.2593  0.3469
  465TIP3    H123030   0.682   1.368   1.222 -0.8355 -0.4944  1.1392
  465TIP3    H223031   0.759   1.271   1.308  0.2824 -0.5537  0.0918
  466TIP3   OH223032   0.063   3.168   0.413  1.2851  0.2221 -0.0018
  466TIP3    H123033   0.089   3.105   0.345 -1.1403 -0.0782 -0.7546
  466TIP3    H223034   0.004   3.118   0.470 -1.7143  1.9937 -1.3371
  467TIP3   OH223035   0.196   4.473   0.557 -0.2948 -0.5883 -0.1821
  467TIP3    H123036   0.213   4.505   0.468  0.4463  0.4293  0.3067
  467TIP3    H223037   0.228   4.542   0.614 -1.1781 -1.0250  0.8892
  468TIP3   OH223038   4.825   2.634   2.131  0.3301  0.2183  0.1788
  468TIP3    H123039   4.839   2.585   2.049 -1.4922  0.6883 -0.4622
  468TIP3    H223040   4.730   2.635   2.142  0.4047  2.2015  1.0548
  469TIP3   OH223041   4.173   1.149   3.331 -0.5548 -0.5950  0.1705
  469TIP3    H123042   4.266   1.151   3.308 -0.7680 -1.0098 -0.7521
  469TIP3    H223043   4.169   1.092   3.408 -0.3231 -2.6396 -1.2596
  470TIP3   OH223044   4.264   6.630   2.465  0.6035 -0.5892  0.1258
  470TIP3    H123045   4.310   6.566   2.410 -0.7614 -1.5648  0.0578
  470TIP3    H223046   4.209   6.679   2.404  0.5046 -0.3844  0.3788
  471TIP3   OH223047   5.302   4.425   8.603 -0.5368 -0.2677  0.1573
  471TIP3    H123048   5.215   4.427   8.642  0.3114  0.4509  2.1460
  471TIP3    H223049   5.357   4.476   8.663  0.5865  2.3651 -2.8033
  472TIP3   OH223050   5.608   6.304   3.214  0.5011 -0.5252 -0.2473
  472TIP3    H123051   5.660   6.371   3.169 -2.7456  1.1251 -1.9306
  472TIP3    H223052   5.570   6.252   3.143  0.9425 -2.6045  0.9602
  473TIP3   OH223053   1.907   2.317   1.355  0.0653 -0.0115 -0.3481
  473TIP3    H123054   1.974   2.258   1.321 -0.1397 -0.0711 -0.6550
  473TIP3    H223055   1.944   2.351   1.436  0.7362  0.4462 -0.8373
  474TIP3   OH223056   5.944   3.287   2.152 -0.4219  0.6406 -0.5054
  474TIP3    H123057   5.950   3.354   2.084 -0.5323  0.1444 -1.0150
  474TIP3    H223058   5.957   3.205   2.106 -0.2350  0.3111  0.1215
  475TIP3   OH223059   1.175   4.471   0.080  0.2521  0.3791  0.2196
  475TIP3    H123060   1.175   4.402   0.014 -0.6613 -0.8474  1.4574
  475TIP3    H223061   1.129   4.544   0.038  1.6120  0.4546 -1.2565
  476TIP3   OH223062   3.057   3.350   0.198 -0.1328  0.0740 -0.0152
  476TIP3    H123063   2.986   3.309   0.149  0.2761 -0.5478 -0.1043
  476TIP3    H223064   3.099   3.409   0.136 -0.0364 -0.2065 -0.2173
  477TIP3   OH223065   0.903   0.293   0.582  0.5896  0.0380 -0.1069
  477TIP3    H123066   0.961   0.345   0.638 -0.2393  1.2183 -0.3135
  477TIP3    H223067   0.816   0.303   0.622  0.0799  0.4401 -1.2616
  478TIP3   OH223068   3.443   2.470   0.429  0.1859 -0.1534  0.2847
  478TIP3    H123069   3.386   2.393   0.426 -2.8619  1.9506  0.8229
  478TIP3    H223070   3.420   2.521   0.352  2.2556  0.2594 -0.1296
  479TIP3   OH223071   2.850   3.012   3.194  0.2286 -0.2111 -0.0701
  479TIP3    H123072   2.839   3.103   3.166 -0.6237  0.0242  0.9666
  479TIP3    H223073   2.761   2.976   3.190  0.5813 -1.0500 -0.5963
  480TIP3   OH223074   5.963   5.340   2.403 -0.1237  0.6842  0.0069
  480TIP3    H123075   5.902   5.266   2.412 -0.3081  1.0057  1.7142
  480TIP3    H223076   5.916   5.413   2.443  1.1038  1.1023  0.7030
  481TIP3   OH223077   2.045   3.980   0.607 -0.0635 -0.5258  0.0159
  481TIP3    H123078   2.127   3.940   0.576  0.8920 -1.0409  2.9171
  481TIP3    H223079   1.986   3.906   0.619 -0.4692 -0.3167 -0.6365
  482TIP3   OH223080   6.781   2.207   8.831  0.3630  0.2677 -0.3150
  482TIP3    H123081   6.795   2.116   8.859 -1.5961 -0.0864 -0.3693
  482TIP3    H223082   6.840   2.218   8.757  1.6668 -0.4916  0.5530
  483TIP3   OH223083   3.308   5.070   1.586 -0.2616 -0.1771 -0.0145
  483TIP3    H123084   3.358   5.009   1.640 -0.6379  0.1545  0.7284
  483TIP3    H223085   3.298   5.148   1.641 -1.3303 -0.1268 -0.2505
  484TIP3   OH223086   6.214   6.786   3.530  0.8038 -0.2591  0.0388
  484TIP3    H123087   6.275   6.713   3.541  1.4891  0.4335  1.0247
  484TIP3    H223088   6.242   6.850   3.595 -0.2018  0.6078 -0.3592
  485TIP3   OH223089   3.909   6.288   4.131  0.1319  0.3141  0.0986
  485TIP3    H123090   3.999   6.255   4.140  0.2808  0.4113 -0.9262
  485TIP3    H223091   3.918   6.383   4.143 -0.0418  0.1998  1.2962
  486TIP3   OH223092   3.557   1.573   8.539  0.0553  0.0974  0.5910
  486TIP3    H123093   3.616   1.642   8.571  0.7416 -0.3050  0.2111
  486TIP3    H223094   3.496   1.619   8.482  0.5904  0.3733  0.2327
  487TIP3   OH223095   4.247   5.907   0.599  0.1714 -0.1545  0.1540
  487TIP3    H123096   4.225   5.998   0.580  4.0595  0.6567 -1.4537
  487TIP3    H223097   4.274   5.907   0.691 -2.5749 -0.4711  1.0783
  488TIP3   OH223098   6.422   2.000   8.332 -0.3064  0.0793  0.3786
  488TIP3    H123099   6.444   2.093   8.331 -2.3935  0.7050  2.4367
  488TIP3    H223100   6.483   1.961   8.395 -0.5117  0.4124  0.7881
  489TIP3   OH223101   1.026   1.905   1.074 -0.0017  0.8047 -0.1153
  489TIP3    H123102   1.089   1.880   1.142 -0.6115 -0.1626  0.1161
  489TIP3    H223103   1.016   2.000   1.084 -1.1814  0.5206  2.1441
  490TIP3   OH223104   6.652   6.047   1.628  0.6991  0.2567 -0.0245
  490TIP3    H123105   6.682   6.121   1.680 -1.1480  0.8800  0.2183
  490TIP3    H223106   6.728   6.021   1.576  1.0408  3.1853 -1.1537
  491TIP3   OH223107   0.504   1.483   3.093 -0.4222  0.3983  0.4686
  491TIP3    H123108   0.554   1.405   3.117 -1.6308 -0.2135  1.1099
  491TIP3    H223109   0.422   1.449   3.058 -0.6246  1.3792 -0.0523
  492TIP3   OH223110   3.151   0.899   8.647 -0.0660  0.0547  0.6482
  492TIP3    H123111   3.224   0.874   8.590 -0.2598  2.0423 -0.5835
  492TIP3    H223112   3.171   0.989   8.673 -2.3928  0.9184 -0.2996
  493TIP3   OH223113   3.607   3.864   8.586 -0.4714 -0.5735  0.0502
  493TIP3    H123114   3.629   3.771   8.598 -0.3696 -0.8501 -1.8734
  493TIP3    H223115   3.531   3.863   8.528 -1.0751  0.5340  0.8002
  494TIP3   OH223116   4.911   5.018   0.327 -0.2948  0.1756 -0.4480
  494TIP3    H123117   4.939   4.995   0.416 -0.4133 -0.5105 -0.5853
  494TIP3    H223118   4.942   5.108   0.315  1.8748 -0.5374 -0.5880
  495TIP3   OH223119   3.211   3.621   1.874  0.2662  0.5527 -0.2488
  495TIP3    H123120   3.125   3.585   1.856 -0.0865  1.1923  0.1166
  495TIP3    H223121   3.243   3.570   1.949  0.9231 -0.7957 -1.3821
  496TIP3   OH223122   6.787   1.802   3.844  0.1822 -0.1602 -0.1959
  496TIP3    H123123   6.802   1.841   3.930 -0.7301  0.8184 -0.4625
  496TIP3    H223124   6.742   1.719   3.863 -0.9336  0.5285  0.2386
  497TIP3   OH223125   5.577   1.227   2.334  0.0812 -0.2472 -0.4967
  497TIP3    H123126   5.563   1.260   2.423 -1.3623 -0.8540 -0.4658
  497TIP3    H223127   5.513   1.276   2.281 -0.4885 -1.3326 -0.8355
  498TIP3   OH223128   1.115   6.138   2.167  0.1076 -0.2121  0.4243
  498TIP3    H123129   1.120   6.223   2.123  1.4359  0.5522  1.9289
  498TIP3    H223130   1.022   6.120   2.175 -0.1831  0.7580 -0.5407
  499TIP3   OH223131   1.906   1.820   3.733 -0.2357  0.2663 -0.7957
  499TIP3    H123132   1.913   1.791   3.642  0.0877 -0.2245 -0.6214
  499TIP3    H223133   1.886   1.913   3.728  0.0546  0.2993 -1.3704
  500TIP3   OH223134   2.900   1.518   1.383  0.3824  0.0494  0.1741
  500TIP3    H123135   2.954   1.441   1.398  0.5277  0.0266 -0.4652
  500TIP3    H223136   2.812   1.484   1.369  0.1471  0.0950  1.3730
  501TIP3   OH223137   2.286   0.057   1.919 -0.0956 -0.0628 -0.2691
  501TIP3    H123138   2.312   0.102   2.000  0.8930  1.0240 -1.1466
  501TIP3    H223139   2.195   0.082   1.905 -0.0798  0.2519  0.1783
  502TIP3   OH223140   6.269   3.629   2.692  0.0595 -0.1808  0.3512
  502TIP3    H123141   6.302   3.546   2.724  1.3786  0.9339  2.0517
  502TIP3    H223142   6.211   3.661   2.761  0.1038  0.6253  0.0334
  503TIP3   OH223143   5.683   1.956   0.482  0.4734 -0.0770  0.0811
  503TIP3    H123144   5.694   2.028   0.420  1.5450  2.3043  2.8337
  503TIP3    H223145   5.769   1.914   0.486  0.0537 -1.0993 -0.9384
  504TIP3   OH223146   6.468   2.944   3.015  0.1565 -0.1035  0.0625
  504TIP3    H123147   6.475   2.848   3.013  0.0621 -0.0987 -1.2119
  504TIP3    H223148   6.436   2.963   3.103  2.9041 -1.0241  1.3766
  505TIP3   OH223149   1.364   0.302   8.353  0.0348 -0.0138  0.3406
  505TIP3    H123150   1.298   0.241   8.320  1.7891 -1.3889 -0.7639
  505TIP3    H223151   1.392   0.264   8.436 -0.1017  0.2301  0.4993
  506TIP3   OH223152   2.365   4.540   3.768 -0.3919  0.3227 -0.2561
  506TIP3    H123153   2.329   4.457   3.799 -1.1577  0.3085 -1.1635
  506TIP3    H223154   2.310   4.565   3.694  0.4302  1.1524 -0.6107
  507TIP3   OH223155   3.473   4.663   1.938 -0.5245  0.1309  0.3125
  507TIP3    H123156   3.477   4.754   1.967 -0.2861  0.8505 -1.7936
  507TIP3    H223157   3.382   4.637   1.952 -0.1621 -0.0406  2.8269
  508TIP3   OH223158   2.315   3.175   3.703 -0.1773 -0.7602  0.1601
  508TIP3    H123159   2.265   3.138   3.776  0.5413  0.8885  1.5526
  508TIP3    H223160   2.371   3.103   3.674  0.7441 -1.0310  2.3866
  509TIP3   OH223161   4.792   0.251   3.181 -0.5669 -0.2059  0.2170
  509TIP3    H123162   4.771   0.177   3.238  0.0146  1.2407  2.4580
  509TIP3    H223163   4.886   0.266   3.194 -0.5240  0.4500 -0.7611
  510TIP3   OH223164   0.942   1.554   0.402  0.2397 -0.4094 -0.0911
  510TIP3    H123165   1.002   1.489   0.438  0.2062  0.5235  1.7497
  510TIP3    H223166   0.872   1.503   0.361  1.8241 -1.5178 -1.5858
  511TIP3   OH223167   1.277   1.627   8.498  0.0233 -0.5755  0.0532
  511TIP3    H123168   1.262   1.618   8.404 -0.6397 -1.2379  0.2116
  511TIP3    H223169   1.352   1.686   8.505 -0.8849  0.7565 -0.8537
  512TIP3   OH223170   4.029   1.409   2.232  0.3864  0.0685 -0.0852
  512TIP3    H123171   3.952   1.435   2.282 -1.0028  0.1822 -2.1757
  512TIP3    H223172   4.000   1.338   2.176  1.1050  1.5859 -2.5652
  513TIP3   OH223173   3.541   4.077   2.378 -0.0802  0.2301  0.2928
  513TIP3    H123174   3.466   4.135   2.365  0.0655  0.0168 -1.8969
  513TIP3    H223175   3.618   4.133   2.366  0.0833  0.0606  0.5426
  514TIP3   OH223176   2.840   3.791   3.928  0.3399  0.2748 -0.3023
  514TIP3    H123177   2.756   3.789   3.975  0.8135 -1.2384  0.5669
  514TIP3    H223178   2.901   3.830   3.991  1.0180 -1.9366  0.4978
  515TIP3   OH223179   0.414   4.146   0.327  0.0655 -0.3408  0.0834
  515TIP3    H123180   0.424   4.235   0.294 -0.5156 -1.0779 -2.2077
  515TIP3    H223181   0.361   4.156   0.406 -0.5831  1.2895 -0.5153
  516TIP3   OH223182   2.555   3.594   8.431 -0.2051 -0.3151 -0.3439
  516TIP3    H123183   2.622   3.540   8.471 -0.2828  0.0825  0.3448
  516TIP3    H223184   2.474   3.545   8.443 -0.1849 -0.3283 -0.2598
  517TIP3   OH223185   2.548   1.034   2.179 -0.2442 -0.1987  0.6625
  517TIP3    H123186   2.591   1.119   2.169  0.0864 -0.2604  1.4824
  517TIP3    H223187   2.538   1.001   2.090 -1.4476  1.2215  0.2362
  518TIP3   OH223188   4.022   4.574   0.194  0.0710  0.3221  0.1695
  518TIP3    H123189   4.079   4.566   0.118 -0.2002 -2.0651  0.1508
  518TIP3    H223190   3.941   4.531   0.167  0.0876 -0.8763  1.8910
  519TIP3   OH223191   5.882   3.067   0.224 -0.1522  0.0108  0.2397
  519TIP3    H123192   5.914   3.101   0.308 -1.4566 -0.2500  0.8740
  519TIP3    H223193   5.795   3.032   0.244  0.8599 -3.2577 -0.4455
  520TIP3   OH223194   1.878   5.067   0.259  0.1786 -0.0486  0.0457
  520TIP3    H123195   1.811   5.012   0.219  1.0466  0.0794 -1.6769
  520TIP3    H223196   1.865   5.154   0.220  1.3517 -0.0364 -0.3602
  521TIP3   OH223197   2.876   0.178   0.880 -0.1677 -0.8287 -0.1604
  521TIP3    H123198   2.920   0.259   0.904 -0.9795 -0.0806 -1.0922
  521TIP3    H223199   2.783   0.201   0.877 -0.4140 -1.7997 -0.4125
  522TIP3   OH223200   5.357   2.886   1.685  0.1833 -0.4800  0.2213
  522TIP3    H123201   5.397   2.972   1.673  0.3141 -0.5663  0.0317
  522TIP3    H223202   5.406   2.828   1.626  2.0735 -1.3264  2.4421
  523TIP3   OH223203   6.618   3.804   0.366  0.7325 -0.2026 -0.3760
  523TIP3    H123204   6.599   3.851   0.285  2.9124 -0.6647 -1.2328
  523TIP3    H223205   6.714   3.807   0.374  0.5748  1.0705  2.9609
  524TIP3   OH223206   0.250   6.607   2.561 -0.1979 -0.4006 -0.1092
  524TIP3    H123207   0.166   6.613   2.516 -0.9350 -1.7378  1.0312
  524TIP3    H223208   0.281   6.518   2.544  0.5881 -0.1877  0.1650
  525TIP3   OH223209   1.953   4.646   8.110  0.5176  0.0495  1.0965
  525TIP3    H123210   1.994   4.681   8.189  0.3915  0.2942  1.0521
  525TIP3    H223211   1.983   4.555   8.106 -0.0097 -0.1581  1.7923
  526TIP3   OH223212   0.024   4.482   3.658  0.1036 -0.3860  0.2044
  526TIP3    H123213  -0.039   4.428   3.610  1.7020  0.0538 -2.5911
  526TIP3    H223214   0.017   4.452   3.748 -2.3174 -2.0348 -0.4289
  527TIP3   OH223215   0.761   3.102   1.072 -0.5042  0.0852  0.8033
  527TIP3    H123216   0.670   3.091   1.043 -0.0506 -0.5441 -0.4707
  527TIP3    H223217   0.760   3.077   1.164 -1.8040  1.0715  1.0946
  528TIP3   OH223218   3.094   0.158   0.421  0.3315  0.0350  0.3309
  528TIP3    H123219   3.145   0.222   0.471  1.0210 -0.3484  0.1403
  528TIP3    H223220   3.100   0.189   0.330 -1.9512  1.4260  0.5696
  529TIP3   OH223221   1.598   4.510   3.628  0.5053  0.0691  0.4946
  529TIP3    H123222   1.568   4.450   3.559 -0.9203  0.7988  0.4482
  529TIP3    H223223   1.609   4.454   3.704  1.0862 -0.5745 -0.0453
  530TIP3   OH223224   3.692   2.856   0.959  0.1163 -0.1723  0.1001
  530TIP3    H123225   3.746   2.881   1.034  1.3234 -0.9633 -0.4800
  530TIP3    H223226   3.648   2.775   0.986 -0.9214  0.5331  0.6155
  531TIP3   OH223227   3.892   3.787   1.862  0.1059  0.3598  0.2182
  531TIP3    H123228   3.950   3.813   1.791  0.0676 -1.6908 -0.6460
  531TIP3    H223229   3.828   3.858   1.868  0.3958  0.8186 -1.4913
  532TIP3   OH223230   4.279   6.326   3.566  0.8536  0.5258  0.0030
  532TIP3    H123231   4.205   6.284   3.524  0.7075 -0.4042  1.1351
  532TIP3    H223232   4.317   6.258   3.621  1.1616  1.6249  1.1955
  533TIP3   OH223233   3.133   6.499   3.249 -0.1935  0.3542 -0.0068
  533TIP3    H123234   3.170   6.443   3.317  0.3665  0.1765 -0.4545
  533TIP3    H223235   3.197   6.498   3.179 -1.1019 -0.0561 -0.8543
  534TIP3   OH223236   4.957   0.572   3.989 -0.0153 -0.1191  0.0226
  534TIP3    H123237   4.958   0.668   3.990 -0.1005 -0.0967  2.0043
  534TIP3    H223238   4.916   0.549   3.905  1.7040  1.5065 -1.3553
  535TIP3   OH223239   2.912   5.468   0.554  0.0356 -0.4382 -0.1576
  535TIP3    H123240   2.894   5.400   0.618 -1.0869  0.6705  0.7601
  535TIP3    H223241   2.940   5.543   0.606 -1.7832  0.7771 -0.8315
  536TIP3   OH223242   1.705   6.536   8.404  0.3614  0.0700  0.6070
  536TIP3    H123243   1.746   6.458   8.443 -1.3961 -1.0686  0.2709
  536TIP3    H223244   1.735   6.608   8.459 -0.6052 -1.2597  3.0410
  537TIP3   OH223245   4.317   5.993   1.416 -0.5139  0.1327 -0.0791
  537TIP3    H123246   4.313   6.018   1.508 -1.3378 -0.3575  0.0270
  537TIP3    H223247   4.232   6.020   1.381 -0.3465 -0.0212 -0.6120
  538TIP3   OH223248   3.843   3.226   0.077 -0.2040  0.3132 -0.1082
  538TIP3    H123249   3.925   3.248   0.034 -0.8229 -0.1748 -1.6394
  538TIP3    H223250   3.868   3.185   0.159  1.0808 -0.0239 -0.6498
  539TIP3   OH223251   4.675   6.424   0.430  0.5405  0.5406 -0.0632
  539TIP3    H123252   4.628   6.467   0.502  0.8616 -1.9942  1.7885
  539TIP3    H223253   4.766   6.419   0.460  0.5086 -1.3626 -0.1583
  540TIP3   OH223254   1.412   2.496   1.179 -0.2332 -0.2378  0.3249
  540TIP3    H123255   1.487   2.445   1.211 -0.0308 -1.6345 -2.0645
  540TIP3    H223256   1.448   2.583   1.161  0.7101 -0.7187 -0.2218
  541TIP3   OH223257   4.992   0.363   1.382 -0.3869  0.5622 -0.0929
  541TIP3    H123258   4.988   0.268   1.396 -0.9461 -0.1645 -3.9325
  541TIP3    H223259   4.920   0.398   1.434 -0.9981 -1.3069  0.4049
  542TIP3   OH223260   0.592   0.645   3.071 -1.6352 -0.0416 -0.7170
  542TIP3    H123261   0.570   0.724   3.120 -0.5679 -0.7661  1.0191
  542TIP3    H223262   0.515   0.589   3.082 -2.0729  0.4321 -1.2878
  543TIP3   OH223263   2.814   5.543   4.354  0.3113 -0.1485 -0.4066
  543TIP3    H123264   2.886   5.595   4.389 -0.0711  0.3707 -0.3746
  543TIP3    H223265   2.856   5.479   4.296  0.8156 -0.0236 -0.1819
  544TIP3   OH223266   2.803   2.968   1.415  0.1753  0.2216  0.3337
  544TIP3    H123267   2.850   2.933   1.340 -1.9818 -1.1092 -0.5038
  544TIP3    H223268   2.807   2.898   1.480 -3.1825 -1.3636 -0.9277
  545TIP3   OH223269   5.518   5.629   4.308 -0.0826  0.5558 -0.6545
  545TIP3    H123270   5.543   5.578   4.231 -1.2396  0.9127 -1.3023
  545TIP3    H223271   5.422   5.634   4.303 -0.2132  0.2611  1.0279
  546TIP3   OH223272   1.724   4.598   8.710 -0.3283 -0.3654 -0.5336
  546TIP3    H123273   1.791   4.645   8.661  0.2548 -0.0773  0.5189
  546TIP3    H223274   1.694   4.530   8.649 -0.6645  0.8628 -1.8114
  547TIP3   OH223275   6.288   3.617   0.203  0.0661  0.3759  0.1539
  547TIP3    H123276   6.255   3.531   0.175  0.9944 -0.3440  1.1809
  547TIP3    H223277   6.360   3.635   0.143 -1.8514  1.8122 -1.8990
  548TIP3   OH223278   0.891   0.375   1.504  0.6978  0.2554 -0.9856
  548TIP3    H123279   0.940   0.324   1.568 -0.1298  0.1522 -0.4170
  548TIP3    H223280   0.806   0.391   1.546  0.4203  0.8403 -1.7488
  549TIP3   OH223281   3.806   3.879   2.886  0.8852 -0.3892  0.8958
  549TIP3    H123282   3.835   3.961   2.847 -3.1959  1.3003  0.9624
  549TIP3    H223283   3.845   3.811   2.831  2.2240  1.6340 -0.8178
  550TIP3   OH223284   5.573   3.844   0.390  0.2125  0.3975  0.2814
  550TIP3    H123285   5.611   3.840   0.478  0.3584  1.3184  0.2682
  550TIP3    H223286   5.598   3.761   0.349  0.5849  0.1868  0.9252
  551TIP3   OH223287   4.935   2.797   1.890 -0.4802  0.1704  0.3848
  551TIP3    H123288   4.990   2.841   1.826  1.0511  1.3832  2.3776
  551TIP3    H223289   4.846   2.810   1.859  0.2187 -0.1982 -1.9729
  552TIP3   OH223290   3.460   5.069   2.348  0.2829  0.3994 -0.1613
  552TIP3    H123291   3.417   5.123   2.282 -2.6245 -0.9742  0.4575
  552TIP3    H223292   3.416   5.092   2.430  1.0514 -0.7820  0.6199
  553TIP3   OH223293   3.873   1.563   1.970 -0.4955  0.0266 -0.1276
  553TIP3    H123294   3.831   1.478   1.986 -0.3811  0.0754  0.4393
  553TIP3    H223295   3.948   1.543   1.915  0.0221 -0.3547  0.7016
  554TIP3   OH223296   3.810   6.655   2.363  0.0914 -0.2917  0.0769
  554TIP3    H123297   3.824   6.593   2.435 -0.8813  0.2494  0.7517
  554TIP3    H223298   3.776   6.734   2.405 -1.6465 -0.3687 -1.0785
  555TIP3   OH223299   4.483   0.087   0.703 -0.0927  0.1462  0.4359
  555TIP3    H123300   4.425   0.049   0.769  1.1140  0.3443  1.6609
  555TIP3    H223301   4.534   0.013   0.671 -0.0859  0.1905  0.3444
  556TIP3   OH223302   5.815   0.327   1.287 -0.2110 -0.7174 -0.4098
  556TIP3    H123303   5.906   0.320   1.256  0.1896 -0.5114  0.6991
  556TIP3    H223304   5.815   0.285   1.373 -0.9782  0.0541 -0.0142
  557TIP3   OH223305   6.395   1.897   8.608  0.3421  0.2893  0.1131
  557TIP3    H123306   6.338   1.871   8.535 -1.1729 -0.8820  1.6081
  557TIP3    H223307   6.337   1.944   8.667  1.7798  2.1156  0.1551
  558TIP3   OH223308   6.640   6.457   2.940  0.0642  0.9315  0.0865
  558TIP3    H123309   6.582   6.509   2.996 -0.4250  0.8920 -0.3661
  558TIP3    H223310   6.580   6.410   2.881  0.3399 -1.7030  1.7588
  559TIP3   OH223311   6.442   1.196   4.185  0.5979  0.2224 -0.1234
  559TIP3    H123312   6.436   1.162   4.096  2.2307  0.3633 -0.3174
  559TIP3    H223313   6.487   1.280   4.175 -1.1427  1.3085  0.6213
  560TIP3   OH223314   1.079   5.113   0.817  0.5611 -0.3571 -0.4969
  560TIP3    H123315   1.129   5.099   0.898 -2.7341  2.5727  2.3561
  560TIP3    H223316   1.016   5.041   0.815  0.4846 -0.2925 -0.3655
  561TIP3   OH223317   5.017   2.897   0.184  0.0171  0.0341 -0.1184
  561TIP3    H123318   4.963   2.836   0.234 -1.5461  1.8662  0.5233
  561TIP3    H223319   5.098   2.848   0.165  0.0171 -1.2556  2.7958
  562TIP3   OH223320   0.580   6.141   1.405  0.2734  0.7763  0.6609
  562TIP3    H123321   0.602   6.087   1.481  0.8749  1.0465  0.6893
  562TIP3    H223322   0.537   6.218   1.440  0.4439  0.8448  0.7215
  563TIP3   OH223323   1.894   0.025   2.131 -0.0946  0.8316  0.2921
  563TIP3    H123324   1.982   0.030   2.167 -0.1407  0.4674  0.4629
  563TIP3    H223325   1.837   0.032   2.208 -0.1788 -2.0738  0.6034
  564TIP3   OH223326   6.460   5.231   1.333  0.3872  0.2462 -0.1512
  564TIP3    H123327   6.504   5.154   1.369  1.1612  0.8804  0.2842
  564TIP3    H223328   6.367   5.214   1.348  0.4879 -0.9546 -0.7800
  565TIP3   OH223329   2.130   0.059   1.410  0.5375 -0.1696 -0.3940
  565TIP3    H123330   2.139  -0.036   1.397 -0.2220 -0.5795  1.7142
  565TIP3    H223331   2.183   0.078   1.487 -0.5691  0.8255  0.1623
  566TIP3   OH223332   5.862   4.029   1.905 -0.1438  0.5398  0.0175
  566TIP3    H123333   5.945   4.058   1.869 -0.0126  0.8544  0.5582
  566TIP3    H223334   5.873   3.935   1.921  0.2601  0.6659  0.4967
  567TIP3   OH223335   0.268   2.975   0.645 -0.6025 -0.0937  0.0297
  567TIP3    H123336   0.233   3.038   0.709  0.8788  0.1356  0.6418
  567TIP3    H223337   0.340   3.022   0.603  0.0320 -1.1326 -0.0485
  568TIP3   OH223338   0.724   1.002   4.321 -0.2940  0.4732  0.2449
  568TIP3    H123339   0.803   1.025   4.370 -0.1446  0.7926 -0.1401
  568TIP3    H223340   0.735   0.909   4.300 -0.0075  0.5243  0.1679
  569TIP3   OH223341   4.947   6.639   1.957  0.6367  0.4273 -0.8159
  569TIP3    H123342   4.937   6.732   1.975 -1.6013 -0.5422  5.7755
  569TIP3    H223343   5.041   6.622   1.970  0.8768  1.5863 -0.9285
  570TIP3   OH223344   3.281   0.688   1.034  0.3751 -0.3521  0.4903
  570TIP3    H123345   3.348   0.627   1.003  0.6131  0.1923 -0.0685
  570TIP3    H223346   3.322   0.731   1.109  0.5320 -0.2437  0.3425
  571TIP3   OH223347   6.014   0.220   3.196 -0.0861  0.4358 -0.2183
  571TIP3    H123348   6.035   0.234   3.289  0.3731  1.7388 -0.4868
  571TIP3    H223349   6.096   0.239   3.150 -0.6496  1.1307 -0.9715
  572TIP3   OH223350   6.364   4.708   2.759  0.4589 -0.3653  0.2419
  572TIP3    H123351   6.408   4.766   2.821 -1.1710  1.1284  0.0797
  572TIP3    H223352   6.430   4.687   2.694  1.0729  1.4115  0.2494
  573TIP3   OH223353   4.663   6.708   2.865  0.1116  0.1386  1.1549
  573TIP3    H123354   4.660   6.802   2.848  0.7677  0.4806  2.7100
  573TIP3    H223355   4.638   6.699   2.957 -0.6067 -1.2891  0.8585
  574TIP3   OH223356   4.154   4.849   0.962 -0.2290  0.3864  0.2906
  574TIP3    H123357   4.112   4.929   0.993 -0.6859 -0.0009  0.6956
  574TIP3    H223358   4.247   4.871   0.958 -0.3880  1.0443  0.0428
  575TIP3   OH223359   2.047   3.338   3.751  0.3920 -0.0801  0.1561
  575TIP3    H123360   1.998   3.387   3.817 -0.0950 -1.0097  0.5128
  575TIP3    H223361   2.056   3.250   3.788  1.2731 -0.2608 -0.4476
  576TIP3   OH223362   6.628   0.302   2.904  0.2345  0.0208  0.2252
  576TIP3    H123363   6.703   0.360   2.917 -1.2253  1.8692  0.7209
  576TIP3    H223364   6.556   0.360   2.881 -0.9147 -1.7780 -0.9828
  577TIP3   OH223365   5.993   4.751   8.505 -0.1964  0.4485  0.2027
  577TIP3    H123366   5.909   4.737   8.461 -0.1442 -0.6222  0.4072
  577TIP3    H223367   6.043   4.672   8.486  0.7744  1.0738  0.0859
  578TIP3   OH223368   0.428   2.076   0.415  0.0551 -0.6661  0.6444
  578TIP3    H123369   0.460   1.997   0.458  1.1745 -0.4456  0.2436
  578TIP3    H223370   0.495   2.142   0.433 -0.3530 -0.0895  0.0951
  579TIP3   OH223371   2.069   4.719   2.407 -0.8063  0.9919 -0.3766
  579TIP3    H123372   1.977   4.746   2.407 -0.9043  1.0107  2.6073
  579TIP3    H223373   2.073   4.646   2.345 -3.0210  0.4643  0.0296
  580TIP3   OH223374   5.378   4.287   1.442 -0.4051  0.4529 -0.0240
  580TIP3    H123375   5.446   4.229   1.477 -1.9155 -1.2695  0.2191
  580TIP3    H223376   5.408   4.375   1.463  0.5939 -0.3458  2.2471
  581TIP3   OH223377   4.316   5.258   3.687 -0.4902 -0.4092  0.2667
  581TIP3    H123378   4.403   5.229   3.717  1.1461  2.6082 -1.0855
  581TIP3    H223379   4.273   5.289   3.767  0.2674 -0.5829  0.7594
  582TIP3   OH223380   5.463   1.793   0.471  0.6100  0.6286  0.1389
  582TIP3    H123381   5.447   1.791   0.376  2.6959  1.2762 -0.2847
  582TIP3    H223382   5.532   1.858   0.482  0.2032  0.7729  2.1676
  583TIP3   OH223383   3.837   0.881   3.397 -0.6736 -0.1479 -0.2556
  583TIP3    H123384   3.883   0.810   3.353  0.8063  1.2983 -1.1554
  583TIP3    H223385   3.900   0.915   3.461 -1.3098  0.4070  0.0934
  584TIP3   OH223386   0.249   2.542   8.141  0.4903 -0.1998 -0.8713
  584TIP3    H123387   0.289   2.619   8.182 -0.1009  0.8022 -2.1040
  584TIP3    H223388   0.322   2.482   8.125  0.8844 -0.1516  0.6024
  585TIP3   OH223389   6.090   1.582   2.050 -0.2532 -0.0894  0.6475
  585TIP3    H123390   6.104   1.673   2.023 -0.5964 -0.1921  0.1223
  585TIP3    H223391   6.043   1.542   1.977 -0.4427 -0.5896  1.0413
  586TIP3   OH223392   6.606   4.541   2.157 -0.0470  0.5406  0.4726
  586TIP3    H123393   6.602   4.491   2.239 -0.8542  0.0884  0.1718
  586TIP3    H223394   6.579   4.629   2.181 -0.1607  0.4415  0.7174
  587TIP3   OH223395   0.315   6.583   1.463 -0.3199 -0.4579  0.1474
  587TIP3    H123396   0.350   6.605   1.377 -0.9135 -0.9351 -0.2270
  587TIP3    H223397   0.278   6.666   1.495 -0.0338 -0.2628 -0.0241
  588TIP3   OH223398   4.413   3.861   8.304 -0.9095 -0.2371  0.1961
  588TIP3    H123399   4.490   3.806   8.320 -0.2014  0.3057 -1.1340
  588TIP3    H223400   4.432   3.943   8.350 -0.0136  0.4101 -1.2474
  589TIP3   OH223401   5.858   2.943   2.576 -0.1926 -0.3116 -0.1243
  589TIP3    H123402   5.770   2.923   2.607 -0.0511  2.3114  2.3449
  589TIP3    H223403   5.914   2.875   2.614 -0.9820 -1.6347 -1.2115
  590TIP3   OH223404   2.836   2.653   8.645  0.7308  0.5256  0.3105
  590TIP3    H123405   2.745   2.680   8.643  0.5228 -0.1163  0.8587
  590TIP3    H223406   2.843   2.585   8.578  1.0856  1.3757 -0.5486
  591TIP3   OH223407   1.681   4.715   3.459  0.0603 -0.0483  0.0696
  591TIP3    H123408   1.696   4.669   3.376 -0.4450 -1.1780  0.5723
  591TIP3    H223409   1.657   4.645   3.520 -0.6282  0.8869  0.8976
  592TIP3   OH223410   1.589   5.719   1.246 -0.1857  0.3760  0.2029
  592TIP3    H123411   1.589   5.698   1.339  0.8841  0.6230  0.2765
  592TIP3    H223412   1.498   5.737   1.225 -0.7470 -1.6219  0.7348
  593TIP3   OH223413   1.232   3.569   0.387 -0.4282  0.3169 -0.3906
  593TIP3    H123414   1.244   3.486   0.341 -0.5492  0.0113  0.1277
  593TIP3    H223415   1.271   3.635   0.328  1.2626 -0.3105 -0.0147
  594TIP3   OH223416   4.927   6.628   0.870  0.0290  0.1585  0.2469
  594TIP3    H123417   4.865   6.611   0.941 -0.5555 -0.3775 -0.3728
  594TIP3    H223418   5.013   6.632   0.913 -0.3097 -0.1963  0.9719
  595TIP3   OH223419   3.372   2.618   0.210  0.5610 -0.1436  0.0786
  595TIP3    H123420   3.453   2.621   0.159  1.8884 -1.6922  1.9514
  595TIP3    H223421   3.354   2.710   0.232 -0.0024  0.5765 -2.9065
  596TIP3   OH223422   0.421   0.453   1.948 -0.2479 -0.2719 -0.0128
  596TIP3    H123423   0.330   0.465   1.919 -0.0290 -0.0308 -0.6142
  596TIP3    H223424   0.414   0.439   2.043 -0.7787  1.9661  0.3554
  597TIP3   OH223425   5.842   0.488   3.462 -0.5634 -0.2502 -0.5450
  597TIP3    H123426   5.916   0.511   3.407 -0.2676  0.4861  0.1437
  597TIP3    H223427   5.774   0.552   3.440  0.1685  1.1906  1.1792
  598TIP3   OH223428   2.712   2.911   2.216  0.3635  1.1797  0.1439
  598TIP3    H123429   2.730   2.940   2.126  0.9621  0.5235  0.0397
  598TIP3    H223430   2.797   2.881   2.248 -0.0235  0.5597  0.6136
  599TIP3   OH223431   3.760   5.427   1.812  0.0578 -0.3170 -0.4183
  599TIP3    H123432   3.709   5.380   1.746 -0.1740  0.6932 -0.9756
  599TIP3    H223433   3.787   5.508   1.768 -0.7129  0.7089  0.9601
  600TIP3   OH223434   5.993   2.162   2.312 -0.3708  0.3064  0.2277
  600TIP3    H123435   5.901   2.143   2.293 -0.0364 -0.4691 -0.7206
  600TIP3    H223436   6.030   2.078   2.337  0.5821  0.1103 -1.6221
  601TIP3   OH223437   3.296   4.227   0.879 -0.1944  0.0894 -0.2789
  601TIP3    H123438   3.381   4.268   0.893 -0.7935  1.1391  0.3882
  601TIP3    H223439   3.241   4.260   0.950 -0.7486 -1.7891  0.2510
  602TIP3   OH223440   1.532   4.251   2.974 -0.2259 -0.0085 -0.0454
  602TIP3    H123441   1.494   4.183   2.918  1.5877 -0.5844 -0.6433
  602TIP3    H223442   1.603   4.207   3.019  0.6054  1.3545  0.0077
  603TIP3   OH223443   0.618   6.734   0.823  0.2188  0.0542  0.2896
  603TIP3    H123444   0.578   6.798   0.765 -1.9664 -0.4305  1.1914
  603TIP3    H223445   0.606   6.650   0.778 -1.3642 -0.3079  1.3045
  604TIP3   OH223446   2.132   3.646   2.812 -0.2007  0.5632 -0.8221
  604TIP3    H123447   2.196   3.640   2.741 -0.6330  0.6812 -1.2223
  604TIP3    H223448   2.063   3.703   2.779 -1.2427 -0.7162 -0.9519
  605TIP3   OH223449   2.134   5.255   1.537 -0.4055 -0.1178 -0.1081
  605TIP3    H123450   2.136   5.179   1.477 -0.7106 -0.4739  0.3286
  605TIP3    H223451   2.041   5.274   1.549 -0.3310  0.3022 -0.1741
  606TIP3   OH223452   1.289   6.468   0.440 -0.4665 -0.1584 -0.3745
  606TIP3    H123453   1.214   6.528   0.438 -0.0623  0.3599 -2.2352
  606TIP3    H223454   1.288   6.426   0.354  0.8317 -0.8719 -0.0679
  607TIP3   OH223455   1.097   5.313   3.618 -0.1417 -0.0695  0.4293
  607TIP3    H123456   1.187   5.330   3.644 -0.2201  0.9182  0.0849
  607TIP3    H223457   1.048   5.389   3.651 -0.2592  1.2372 -2.4931
  608TIP3   OH223458   5.806   4.415   1.382 -0.1106 -0.6621 -0.3932
  608TIP3    H123459   5.821   4.381   1.471 -1.0737  0.5747  0.2873
  608TIP3    H223460   5.794   4.509   1.395  1.3312 -0.2035 -2.0617
  609TIP3   OH223461   5.803   2.079   1.732 -0.4075 -0.5632 -0.4442
  609TIP3    H123462   5.840   2.065   1.645  0.6881 -1.9438  0.2110
  609TIP3    H223463   5.771   1.993   1.760  0.3373 -0.4223  0.9763
  610TIP3   OH223464   3.424   3.169   3.423  0.0777 -0.0762 -0.2513
  610TIP3    H123465   3.347   3.171   3.367 -0.9364  0.8268  1.1247
  610TIP3    H223466   3.417   3.248   3.477  1.0271 -0.8954  1.1215
  611TIP3   OH223467   4.456   0.700   0.823  0.0556 -0.1453 -0.5540
  611TIP3    H123468   4.481   0.613   0.853 -0.1929  0.8870  3.0871
  611TIP3    H223469   4.532   0.755   0.841 -0.2010  0.6301 -1.7104
  612TIP3   OH223470   2.721   5.913   2.613  0.5725 -0.1776 -0.3391
  612TIP3    H123471   2.671   5.939   2.690 -1.1923 -0.8226 -1.2321
  612TIP3    H223472   2.760   5.829   2.637  2.5103  0.9744  0.8739
  613TIP3   OH223473   2.002   4.025   4.269 -0.0054  0.4295  0.2409
  613TIP3    H123474   2.049   3.951   4.231  1.6113  0.7780  1.4584
  613TIP3    H223475   2.036   4.101   4.221  0.3988  0.6424  0.8534
  614TIP3   OH223476   0.300   2.743   0.502 -0.1744 -0.9524 -0.4339
  614TIP3    H123477   0.290   2.739   0.407  1.3623  0.4771 -0.7234
  614TIP3    H223478   0.274   2.833   0.525 -0.3848 -1.2339  0.4715
  615TIP3   OH223479   5.004   0.527   2.571  0.0610 -0.1895  0.5866
  615TIP3    H123480   5.048   0.531   2.486  1.1128  2.8175  1.1437
  615TIP3    H223481   5.033   0.445   2.609  2.0364 -0.1841 -0.7407
  616TIP3   OH223482   1.510   0.555   3.207  0.2147 -0.3741  0.0272
  616TIP3    H123483   1.465   0.603   3.277 -0.1960 -0.1740 -0.3701
  616TIP3    H223484   1.561   0.621   3.161  0.0603 -0.4055 -0.1931
  617TIP3   OH223485   0.555   3.755   8.178 -0.2256 -0.3240 -0.2939
  617TIP3    H123486   0.496   3.727   8.108 -0.6101  0.1051 -0.1485
  617TIP3    H223487   0.627   3.693   8.176 -0.7349 -0.9161 -0.4129
  618TIP3   OH223488   6.520   3.465   4.466 -0.6271 -0.1635 -0.3910
  618TIP3    H123489   6.503   3.456   4.372  0.9147  1.3598 -0.8715
  618TIP3    H223490   6.532   3.559   4.478 -3.0682 -0.0285  1.7877
  619TIP3   OH223491   5.298   5.789   1.361 -0.4244 -0.1879  0.6132
  619TIP3    H123492   5.293   5.828   1.448  1.8211 -1.2631  1.3032
  619TIP3    H223493   5.359   5.716   1.371 -1.3522 -1.3437 -1.5258
  620TIP3   OH223494   1.951   6.751   0.698 -0.0159  0.1287 -0.3111
  620TIP3    H123495   1.862   6.738   0.732 -0.6687 -2.0127 -2.5064
  620TIP3    H223496   1.991   6.664   0.700  2.1395  1.0681  0.7413
  621TIP3   OH223497   2.757   4.019   2.855  1.0169  0.1645 -0.7593
  621TIP3    H123498   2.800   3.973   2.927  1.0870  0.8741 -0.3398
  621TIP3    H223499   2.815   4.006   2.780  1.3588  0.1135 -0.4870
  622TIP3   OH223500   1.983   3.597   8.580  0.2916 -0.4227  0.2686
  622TIP3    H123501   2.018   3.560   8.661 -0.6085 -3.2174 -0.4769
  622TIP3    H223502   2.060   3.636   8.536  1.0683 -0.2285  1.7425
  623TIP3   OH223503   1.462   4.422   2.661 -0.1428 -0.1844 -0.1200
  623TIP3    H123504   1.457   4.342   2.609  1.0089 -1.6155  1.8295
  623TIP3    H223505   1.463   4.392   2.752 -0.7475  2.1281  0.7400
  624TIP3   OH223506   6.798   5.849   1.806  0.6456  0.2403  0.1802
  624TIP3    H123507   6.836   5.901   1.735  0.8128 -0.2729 -0.1066
  624TIP3    H223508   6.785   5.762   1.768  1.5228 -0.2718  1.0223
  625TIP3   OH223509   6.283   0.576   2.082 -0.6938  0.1305 -0.2507
  625TIP3    H123510   6.226   0.619   2.017 -1.0230 -0.0761 -0.1029
  625TIP3    H223511   6.360   0.632   2.087  0.3040 -0.9558 -2.3961
  626TIP3   OH223512   0.037   1.615   0.635  0.6624 -0.6332  0.2393
  626TIP3    H123513   0.047   1.548   0.567  0.3147 -1.0723  0.6022
  626TIP3    H223514   0.125   1.650   0.649  1.2075 -2.2603  1.2630
  627TIP3   OH223515   1.375   6.064   8.694  0.5524 -0.1687  0.4965
  627TIP3    H123516   1.439   6.117   8.647  0.3404  0.5338  0.9874
  627TIP3    H223517   1.290   6.098   8.665  0.4190  0.4555  1.5817
  628TIP3   OH223518   5.117   4.266   2.896  0.1659  0.3499 -0.6169
  628TIP3    H123519   5.174   4.336   2.863  1.3969 -0.0499  0.5309
  628TIP3    H223520   5.178   4.199   2.927 -0.9275 -0.0243  0.8357
  629TIP3   OH223521   0.762   6.416   1.629 -0.1699  0.1059  0.3372
  629TIP3    H123522   0.699   6.347   1.650 -0.9566  0.7692  0.2270
  629TIP3    H223523   0.719   6.497   1.657  1.2887  0.4499  1.7027
  630TIP3   OH223524   0.514   3.078   2.268  0.1951  0.0563 -0.6444
  630TIP3    H123525   0.467   3.058   2.187 -0.0126 -0.3844 -0.4178
  630TIP3    H223526   0.457   3.047   2.338  1.1451 -1.2033 -0.3865
  631TIP3   OH223527   5.460   6.793   0.604  0.8646 -0.2652 -0.5014
  631TIP3    H123528   5.383   6.765   0.553  0.6559  0.4024 -0.5620
  631TIP3    H223529   5.438   6.769   0.694  1.3515 -1.7001 -0.7449
  632TIP3   OH223530   0.886   4.315   1.577 -0.3036  0.0022 -0.1422
  632TIP3    H123531   0.834   4.393   1.596  0.1527  0.4137 -0.5599
  632TIP3    H223532   0.936   4.337   1.498 -0.0402 -0.6485 -0.1677
  633TIP3   OH223533   1.965   5.695   1.274 -0.0989  0.2943 -0.4819
  633TIP3    H123534   1.928   5.610   1.299 -0.7123  0.4742 -0.7640
  633TIP3    H223535   2.013   5.725   1.351  0.8214 -0.6854 -0.6437
  634TIP3   OH223536   0.307   1.710   0.578 -0.4430  0.3059  0.2044
  634TIP3    H123537   0.394   1.734   0.545  0.4630 -1.2124  1.3069
  634TIP3    H223538   0.247   1.731   0.506  1.0345 -0.0234 -1.1902
  635TIP3   OH223539   6.575   3.022   1.932  0.3039  0.7844 -0.0548
  635TIP3    H123540   6.616   2.962   1.993  1.4639  1.7590  0.1583
  635TIP3    H223541   6.596   2.987   1.845 -0.3210  0.0661  0.0762
  636TIP3   OH223542   2.678   2.582   2.215  0.6413  0.3616  1.1156
  636TIP3    H123543   2.750   2.522   2.199  2.9708  3.0673  0.7904
  636TIP3    H223544   2.700   2.625   2.298 -1.3445  0.2811  1.7452
  637TIP3   OH223545   4.113   0.217   1.485 -0.6332  0.4285 -0.9122
  637TIP3    H123546   4.019   0.233   1.478 -1.0770  0.7190  3.2884
  637TIP3    H223547   4.147   0.294   1.530  1.0814 -0.9001  0.1962
  638TIP3   OH223548   4.641   2.518   8.660 -0.2797 -0.7955 -0.2246
  638TIP3    H123549   4.557   2.473   8.648 -1.4232  1.4720 -1.6042
  638TIP3    H223550   4.631   2.600   8.611  1.2960  1.3652  2.6831
  639TIP3   OH223551   5.043   4.466   2.089  0.5529  0.2677 -0.0821
  639TIP3    H123552   5.104   4.459   2.163 -0.6444 -2.1385  0.7837
  639TIP3    H223553   4.958   4.443   2.126 -0.9154  3.1544 -1.3406
  640TIP3   OH223554   6.441   3.817   4.134  0.6137  0.0384 -0.2976
  640TIP3    H123555   6.477   3.752   4.073 -0.6297 -0.7282 -0.2604
  640TIP3    H223556   6.469   3.787   4.220 -1.9297 -1.9211 -0.0287
  641TIP3   OH223557   0.050   2.748   0.962  0.5749 -0.2373  0.1740
  641TIP3    H123558   0.080   2.719   0.876  0.8228 -0.7103  0.4206
  641TIP3    H223559   0.027   2.840   0.949 -1.3622 -0.8055 -0.9122
  642TIP3   OH223560   1.281   3.134   1.539  0.2338 -0.0584  0.1832
  642TIP3    H123561   1.276   3.122   1.634  0.8150  2.7046  0.6495
  642TIP3    H223562   1.207   3.191   1.518 -0.3142 -1.2153 -1.1909
  643TIP3   OH223563   5.674   1.724   3.356  0.3473 -0.3558 -0.6911
  643TIP3    H123564   5.588   1.738   3.316 -0.3329 -1.2531  0.4026
  643TIP3    H223565   5.681   1.629   3.366  0.3039 -0.1691  1.6251
  644TIP3   OH223566   4.434   3.273   3.181  0.0488  0.2277  0.2955
  644TIP3    H123567   4.351   3.295   3.139  0.6273 -0.7253 -1.4243
  644TIP3    H223568   4.409   3.242   3.268 -1.2692  1.3056  0.3455
  645TIP3   OH223569   6.792   5.836   4.235  0.0411 -0.1401  0.1734
  645TIP3    H123570   6.764   5.804   4.321  0.6642  0.8291  0.7489
  645TIP3    H223571   6.799   5.756   4.182  0.4247 -0.8534  1.2448
  646TIP3   OH223572   3.575   3.418   2.200 -0.1943 -0.0181  0.5711
  646TIP3    H123573   3.586   3.347   2.262 -1.1215 -1.3061 -0.6578
  646TIP3    H223574   3.504   3.471   2.237  0.3750  0.1691  1.4084
  647TIP3   OH223575   5.515   0.193   8.330 -0.3168  0.1673 -0.1889
  647TIP3    H123576   5.471   0.108   8.334 -3.1504  1.4125 -1.7174
  647TIP3    H223577   5.592   0.184   8.387  0.1493 -3.7318 -1.1827
  648TIP3   OH223578   3.507   4.424   2.193 -0.2609 -0.6145  0.2623
  648TIP3    H123579   3.434   4.383   2.239 -0.5460 -1.3929 -0.8511
  648TIP3    H223580   3.468   4.497   2.145  0.0106  0.1016  1.1142
  649TIP3   OH223581   0.846   5.977   8.562  0.4260  0.1710  0.5287
  649TIP3    H123582   0.910   5.922   8.518 -0.1070  0.0841 -0.1404
  649TIP3    H223583   0.768   5.922   8.570  0.5874  0.0925  1.8132
  650TIP3   OH223584   3.009   0.537   2.160  0.2164 -0.3859  0.1163
  650TIP3    H123585   2.946   0.566   2.226 -2.7118  0.4988 -2.8430
  650TIP3    H223586   2.995   0.443   2.153 -1.2707 -0.1191 -0.9005
  651TIP3   OH223587   6.163   2.090   1.046  0.7907 -0.4698  0.2389
  651TIP3    H123588   6.135   2.114   0.958 -1.2689 -2.0544  0.3813
  651TIP3    H223589   6.128   2.160   1.102 -1.1836 -1.3134  0.1534
  652TIP3   OH223590   6.526   3.806   3.134 -0.2040  0.1783  0.4027
  652TIP3    H123591   6.503   3.824   3.043 -0.9011  0.7614  0.6864
  652TIP3    H223592   6.615   3.841   3.144 -0.1442  0.1592 -0.0317
  653TIP3   OH223593   1.038   0.207   1.673  0.4126  0.1705  0.0104
  653TIP3    H123594   0.998   0.178   1.755  0.4482  1.0868  0.3658
  653TIP3    H223595   1.016   0.139   1.610  0.0666 -0.3618  0.6919
  654TIP3   OH223596   5.864   3.334   0.134  0.4817  0.3939  0.3277
  654TIP3    H123597   5.888   3.241   0.135  0.3861  0.3381 -1.1926
  654TIP3    H223598   5.946   3.380   0.120  0.2742  0.4286 -0.8000
  655TIP3   OH223599   0.698   0.339   0.758 -0.5760  0.1179 -0.2492
  655TIP3    H123600   0.739   0.300   0.836 -0.5121 -1.5858 -1.0828
  655TIP3    H223601   0.605   0.323   0.769 -0.4917 -0.9624 -0.9150
  656TIP3   OH223602   0.324   2.334   0.729 -0.7295 -0.2693 -0.1152
  656TIP3    H123603   0.416   2.347   0.707 -1.3137  3.0419 -1.1356
  656TIP3    H223604   0.320   2.346   0.824 -0.3387  1.7265 -0.3113
  657TIP3   OH223605   6.175   5.018   1.463  0.7196  0.4276  0.0457
  657TIP3    H123606   6.174   4.961   1.540  1.8856  1.2786  0.7312
  657TIP3    H223607   6.256   5.068   1.471  1.6980 -0.5537 -2.5670
  658TIP3   OH223608   0.095   2.718   0.681  0.8609  0.0453  0.0556
  658TIP3    H123609   0.039   2.782   0.638 -0.2656 -0.7616  0.3016
  658TIP3    H223610   0.171   2.710   0.622 -0.3967 -0.6593 -1.5415
  659TIP3   OH223611   0.092   2.983   2.638 -0.2202  0.3242  0.1617
  659TIP3    H123612   0.072   2.913   2.701 -1.0120  1.2874  1.0230
  659TIP3    H223613   0.016   3.041   2.642 -0.2464  0.4712 -1.6484
  660TIP3   OH223614   1.781   5.511   8.527 -0.2245 -0.1614 -0.1296
  660TIP3    H123615   1.773   5.417   8.542 -0.3563 -0.0950  0.2114
  660TIP3    H223616   1.777   5.520   8.431  0.5929 -0.5745 -0.2101
  661TIP3   OH223617   4.581   4.744   1.588  0.1720 -0.1714  0.8044
  661TIP3    H123618   4.524   4.819   1.602 -0.5375 -0.8114  1.4398
  661TIP3    H223619   4.524   4.668   1.597 -0.1719 -0.8589 -4.1448
  662TIP3   OH223620   4.159   1.271   3.054  0.3803 -0.3419  1.1081
  662TIP3    H123621   4.081   1.243   3.101  0.7875 -2.2925  0.7062
  662TIP3    H223622   4.226   1.281   3.122  0.9822 -3.2086  1.0665
  663TIP3   OH223623   2.027   5.651   2.468  0.2200 -0.4708 -0.0746
  663TIP3    H123624   1.964   5.598   2.516 -0.3910 -1.1869 -1.6381
  663TIP3    H223625   1.977   5.691   2.397  1.2574  0.0005 -0.5682
  664TIP3   OH223626   0.107   0.930   4.140  0.5058  0.1584  0.5437
  664TIP3    H123627   0.024   0.961   4.103  0.6351  0.3329  0.4021
  664TIP3    H223628   0.081   0.864   4.205  0.2164  0.8000  1.0924
  665TIP3   OH223629   5.849   0.585   2.033 -0.0741 -0.0709 -0.0494
  665TIP3    H123630   5.852   0.500   2.078  0.4681  1.5744  3.3578
  665TIP3    H223631   5.757   0.597   2.010 -0.5613 -0.6984  1.4200
  666TIP3   OH223632   3.338   1.741   2.346  0.1209  0.0053 -0.2309
  666TIP3    H123633   3.269   1.711   2.406 -0.7942 -0.5834 -1.5237
  666TIP3    H223634   3.419   1.730   2.396 -0.5279 -1.2972  0.6148
  667TIP3   OH223635   0.879   3.931   1.227 -0.2102  0.0000  0.1003
  667TIP3    H123636   0.959   3.890   1.261 -0.2746 -0.9447 -0.8117
  667TIP3    H223637   0.814   3.916   1.295 -0.2214 -1.4447 -0.1876
  668TIP3   OH223638   1.334   2.476   2.665 -0.3042  0.1943  0.3440
  668TIP3    H123639   1.357   2.416   2.594 -0.9927  1.5165 -1.0378
  668TIP3    H223640   1.247   2.508   2.642  0.2284  2.0734  0.7859
  669TIP3   OH223641   5.504   0.544   8.665 -0.3106 -0.4538  0.3045
  669TIP3    H123642   5.592   0.514   8.639  0.6408  1.1936  1.4717
  669TIP3    H223643   5.471   0.591   8.589 -0.7542 -2.1280 -0.6002
  670TIP3   OH223644   1.712   4.653   0.656  0.1006 -0.0095  0.7864
  670TIP3    H123645   1.698   4.634   0.563  0.0522 -1.1091  0.9990
  670TIP3    H223646   1.808   4.655   0.666  0.1732  2.6441  0.2608
  671TIP3   OH223647   1.982   0.012   3.079  0.1161  0.8917 -0.1968
  671TIP3    H123648   2.070   0.008   3.044  0.4934 -1.7446  0.7982
  671TIP3    H223649   1.994   0.003   3.174 -1.1644  1.8673  0.0857
  672TIP3   OH223650   3.408   1.285   0.249  0.0848 -0.1576 -0.4950
  672TIP3    H123651   3.336   1.270   0.311  0.9533  2.4342  1.3138
  672TIP3    H223652   3.432   1.377   0.261  3.7908 -0.9008 -0.9321
  673TIP3   OH223653   1.079   1.363   8.068 -0.5155 -0.4325  0.3992
  673TIP3    H123654   1.011   1.404   8.014  0.3742  0.5221 -0.0339
  673TIP3    H223655   1.119   1.436   8.116  1.4623 -0.6650 -0.7921
  674TIP3   OH223656   0.290   1.342   8.507  0.0140 -0.1221 -0.0210
  674TIP3    H123657   0.356   1.278   8.481 -0.2577 -0.6100  0.4536
  674TIP3    H223658   0.217   1.327   8.447 -0.2970 -0.6988  0.4882
  675TIP3   OH223659   5.784   3.402   0.856  0.7417 -0.3875  0.6527
  675TIP3    H123660   5.838   3.434   0.784 -1.0310 -0.4021 -0.7632
  675TIP3    H223661   5.714   3.467   0.864  0.2842 -0.9752  1.6288
  676TIP3   OH223662   6.376   4.826   2.428  0.6338 -0.0133  0.2386
  676TIP3    H123663   6.320   4.786   2.495  0.2677  0.7242  0.3864
  676TIP3    H223664   6.448   4.764   2.417  2.5370  1.2637  3.7511
  677TIP3   OH223665   6.749   5.888   8.835  0.0305 -0.3539 -1.0048
  677TIP3    H123666   6.786   5.892   8.746  0.2069 -0.6378 -0.9470
  677TIP3    H223667   6.825   5.871   8.891 -0.1923 -0.9453 -0.8827
  678TIP3   OH223668   5.557   4.509   0.400  0.6061  0.3305 -0.2805
  678TIP3    H123669   5.499   4.570   0.354 -1.8469 -1.1749  0.6483
  678TIP3    H223670   5.581   4.444   0.335  1.0990  0.8413 -0.6158
  679TIP3   OH223671   4.267   2.646   0.235  0.1780  0.0770  0.0930
  679TIP3    H123672   4.334   2.594   0.279 -0.1318  1.7893  2.8690
  679TIP3    H223673   4.316   2.706   0.178  0.6079 -1.9790 -1.8408
  680TIP3   OH223674   4.247   4.027   0.002  0.3560  0.1136  0.0649
  680TIP3    H123675   4.161   3.984   0.004 -0.5048  1.7688  0.8405
  680TIP3    H223676   4.234   4.106  -0.051  1.1223  0.8832  0.9816
  681TIP3   OH223677   0.987   2.220   0.812 -0.0405 -0.2538 -0.7356
  681TIP3    H123678   0.988   2.180   0.899 -0.7400 -1.2212 -1.1479
  681TIP3    H223679   0.955   2.309   0.826 -0.0845 -0.3815 -0.0064
  682TIP3   OH223680   0.942   3.958   2.549 -0.2132 -0.0373 -0.4660
  682TIP3    H123681   0.871   3.902   2.580  0.2484 -0.3721 -0.0024
  682TIP3    H223682   0.903   4.045   2.543 -1.0121 -0.4427 -1.4562
  683TIP3   OH223683   3.517   3.655   2.940  0.2161  0.1767  0.0639
  683TIP3    H123684   3.565   3.610   3.010  0.1961 -1.7845 -1.1321
  683TIP3    H223685   3.468   3.586   2.896 -0.5919  1.5411 -1.2546
  684TIP3   OH223686   0.345   2.449   3.027  0.0192 -0.2262  0.4516
  684TIP3    H123687   0.306   2.469   2.942 -0.0110  0.6590  0.6627
  684TIP3    H223688   0.323   2.524   3.083 -0.9816 -1.3303  1.5985
  685TIP3   OH223689   6.020   1.947   3.631 -0.7645 -0.4038  0.5381
  685TIP3    H123690   5.969   1.967   3.709 -0.4956 -0.8588  0.8319
  685TIP3    H223691   5.955   1.944   3.560 -1.0582 -0.3490  0.8041
  686TIP3   OH223692   6.105   3.908   2.415 -0.2413 -0.3300 -0.4619
  686TIP3    H123693   6.117   3.955   2.332 -0.7946 -0.5845 -0.6927
  686TIP3    H223694   6.052   3.967   2.469  0.3356 -0.0539 -0.1849
  687TIP3   OH223695   4.566   6.143   2.987  0.1802 -0.2696  0.0985
  687TIP3    H123696   4.539   6.058   2.953  0.5963 -1.1227  1.7628
  687TIP3    H223697   4.499   6.166   3.052  0.4299  0.3377  0.1544
  688TIP3   OH223698   0.015   1.541   2.517 -0.5552 -0.1224 -0.2398
  688TIP3    H123699  -0.055   1.495   2.470 -0.2598 -0.4392 -0.3753
  688TIP3    H223700   0.062   1.472   2.564 -0.5600  0.1369  0.1440
  689TIP3   OH223701   3.739   0.317   8.549 -0.0098  0.1343  0.3598
  689TIP3    H123702   3.700   0.404   8.542  2.6102  1.7555  3.3485
  689TIP3    H223703   3.695   0.277   8.624  0.3305 -0.2225  0.3718
  690TIP3   OH223704   0.633   6.575   0.208  0.1806 -0.3746 -0.2800
  690TIP3    H123705   0.721   6.542   0.223 -0.4031 -1.1119  1.8973
  690TIP3    H223706   0.589   6.505   0.159 -0.2743 -1.8172  2.0272
  691TIP3   OH223707   4.713   1.303   0.243  0.3208 -0.1941 -0.1268
  691TIP3    H123708   4.706   1.239   0.172 -0.5460 -2.8192  2.1575
  691TIP3    H223709   4.738   1.251   0.320 -3.2873  1.6262  2.5605
  692TIP3   OH223710   6.299   5.935   0.666 -0.3824  0.3483  0.0787
  692TIP3    H123711   6.392   5.958   0.665  0.4293 -2.4347  1.5653
  692TIP3    H223712   6.284   5.891   0.583 -0.7498  1.9047 -0.7151
  693TIP3   OH223713   2.918   0.499   3.578 -0.5852  0.0187  0.7241
  693TIP3    H123714   2.942   0.415   3.618  0.8210  0.8358  1.6477
  693TIP3    H223715   2.861   0.542   3.642  1.4600  1.2145  1.8247
  694TIP3   OH223716   5.736   4.400   3.054  0.3970 -0.3886 -0.3601
  694TIP3    H123717   5.774   4.485   3.029  2.0422 -1.5811 -2.2330
  694TIP3    H223718   5.790   4.371   3.127  0.7497 -0.4721 -0.6552
  695TIP3   OH223719   4.464   1.789   0.171  0.1156 -0.3877 -0.1110
  695TIP3    H123720   4.511   1.816   0.092 -1.2603 -1.3784 -1.3452
  695TIP3    H223721   4.503   1.705   0.195 -0.9015 -1.2018 -1.1253
  696TIP3   OH223722   0.380   6.743   1.789 -0.7251  0.2193  0.6523
  696TIP3    H123723   0.316   6.812   1.806 -2.1391 -0.9078  0.1373
  696TIP3    H223724   0.353   6.706   1.704 -0.5168 -1.4929  1.2947
  697TIP3   OH223725   1.578   3.157   0.939  0.0644  0.0883 -0.0490
  697TIP3    H123726   1.483   3.159   0.941 -0.0053  1.0231 -2.2138
  697TIP3    H223727   1.604   3.243   0.905  1.6836 -0.2580  0.1905
  698TIP3   OH223728   0.088   0.517   2.086  0.3770 -0.2132  0.5061
  698TIP3    H123729   0.095   0.474   2.000 -0.5938 -0.2164  0.4118
  698TIP3    H223730   0.029   0.591   2.071  0.0667 -0.3098  1.1955
  699TIP3   OH223731   4.647   0.523   0.088  0.1783  0.2294 -0.3640
  699TIP3    H123732   4.698   0.454   0.130 -0.7405  0.7868  1.7755
  699TIP3    H223733   4.703   0.601   0.091 -0.4285  0.6407  1.2605
  700TIP3   OH223734   2.828   5.542   1.019 -0.5232  0.3290  0.2875
  700TIP3    H123735   2.773   5.464   1.015 -0.8196  0.4413  1.6485
  700TIP3    H223736   2.918   5.509   1.015 -0.6298 -0.1581  1.5231
  701TIP3   OH223737   0.202   5.812   3.500 -0.2309 -0.1341  0.3328
  701TIP3    H123738   0.122   5.770   3.532  0.8485 -2.8531 -0.3105
  701TIP3    H223739   0.273   5.762   3.539  1.1686  1.0050 -0.6554
  702TIP3   OH223740   4.021   0.992   2.176  0.0993  0.5795  0.0437
  702TIP3    H123741   4.087   0.962   2.113 -1.0159 -1.4029 -0.2631
  702TIP3    H223742   4.011   0.919   2.236 -1.4616  1.0328  0.3754
  703TIP3   OH223743   4.149   3.086   2.942  0.1526  0.0312 -0.7361
  703TIP3    H123744   4.069   3.053   2.903  0.4185 -0.3606 -0.9551
  703TIP3    H223745   4.123   3.168   2.984 -0.8087 -1.0752  0.9436
  704TIP3   OH223746   3.702   0.506   3.548 -0.1674  0.6894  0.1043
  704TIP3    H123747   3.613   0.477   3.528 -0.7453 -0.0847  3.3418
  704TIP3    H223748   3.693   0.600   3.561  0.3242  1.3265 -3.2218
  705TIP3   OH223749   1.010   6.180   1.789 -0.2986 -0.4621  0.1034
  705TIP3    H123750   1.099   6.215   1.802  0.2187 -2.2177  1.7660
  705TIP3    H223751   0.957   6.224   1.856 -1.0609  1.6062 -1.7598
  706TIP3   OH223752   4.315   5.162   1.563  0.1226 -0.1914  0.2367
  706TIP3    H123753   4.266   5.088   1.600  0.0464 -0.6026 -0.6451
  706TIP3    H223754   4.281   5.239   1.608 -1.5295 -0.4414 -0.4996
  707TIP3   OH223755   6.183   2.224   0.508 -0.1657 -0.2989  0.2849
  707TIP3    H123756   6.136   2.171   0.443 -0.4569 -2.4125  2.1049
  707TIP3    H223757   6.140   2.310   0.504 -2.3483 -1.3325 -0.0906
  708TIP3   OH223758   3.520   5.745   2.183  0.2395  0.1783 -0.0268
  708TIP3    H123759   3.606   5.786   2.196  0.7778 -0.8341 -0.2499
  708TIP3    H223760   3.519   5.722   2.090  0.2855 -1.0224  0.2598
  709TIP3   OH223761   2.790   1.680   0.713  0.1082  0.2148 -0.0642
  709TIP3    H123762   2.843   1.644   0.784  1.4049 -0.3986 -1.2903
  709TIP3    H223763   2.782   1.609   0.650 -0.3366  0.9901 -0.9178
  710TIP3   OH223764   5.830   2.234   7.566  0.6926 -0.0310  0.4494
  710TIP3    H123765   5.873   2.272   7.489  2.6121  0.4939  1.7218
  710TIP3    H223766   5.838   2.139   7.553  2.6198  0.0376  0.8017
  711TIP3   OH223767   0.981   0.049   1.894 -0.5978  0.0475  0.8956
  711TIP3    H123768   0.895   0.035   1.934 -0.9532 -0.2879  0.0400
  711TIP3    H223769   1.039   0.070   1.967 -1.7382  1.8814  1.3498
  712TIP3   OH223770   1.416   4.799   2.336  0.2304 -0.0407 -0.3369
  712TIP3    H123771   1.499   4.784   2.291  0.4582 -2.1149  0.6496
  712TIP3    H223772   1.353   4.818   2.267  1.3011  0.5272 -1.1810
  713TIP3   OH223773   5.201   5.878   2.230 -0.0468 -0.2040  0.1821
  713TIP3    H123774   5.164   5.871   2.142  0.6369 -0.0023 -0.1312
  713TIP3    H223775   5.277   5.820   2.229 -0.3501 -0.6149  0.8160
  714TIP3   OH223776   2.445   3.359   8.340 -0.3046 -0.4708  0.7246
  714TIP3    H123777   2.407   3.271   8.347 -0.5988 -0.2723  1.9820
  714TIP3    H223778   2.539   3.345   8.335 -0.4202 -0.9019 -0.6420
  715TIP3   OH223779   0.449   6.286   3.380 -0.5681  0.0905  0.0485
  715TIP3    H123780   0.484   6.361   3.429  0.4957 -0.0844 -0.3966
  715TIP3    H223781   0.442   6.216   3.445 -0.6364  0.2949  0.2646
  716TIP3   OH223782   2.827   0.292   2.759  0.2204  0.2602  0.4429
  716TIP3    H123783   2.834   0.302   2.854 -0.1655 -1.1081  0.6403
  716TIP3    H223784   2.884   0.218   2.739 -2.2542 -1.6949  0.1018
  717TIP3   OH223785   0.990   1.742   2.335 -0.0422  0.0445  0.5307
  717TIP3    H123786   1.011   1.675   2.401 -1.2546 -2.6802 -1.6648
  717TIP3    H223787   0.962   1.692   2.258  1.6738  3.0193 -2.2682
  718TIP3   OH223788   0.053   5.317   2.101 -0.3701 -0.9140  0.0908
  718TIP3    H123789   0.037   5.411   2.096 -1.8206 -0.9019  2.8957
  718TIP3    H223790   0.032   5.284   2.014 -1.3855  1.1366 -0.5005
  719TIP3   OH223791   6.030   3.267   1.365 -0.6837 -0.0227  0.6445
  719TIP3    H123792   6.040   3.359   1.339 -1.6382 -0.4669 -1.4683
  719TIP3    H223793   5.958   3.267   1.427 -0.2366  0.7266  1.1806
  720TIP3   OH223794   0.577   4.433   3.240 -0.6982 -1.1055  0.5518
  720TIP3    H123795   0.652   4.485   3.269 -0.3832 -0.7512 -0.8105
  720TIP3    H223796   0.517   4.434   3.315 -1.0394  1.8521  0.3800
  721TIP3   OH223797   2.199   4.229   2.139  0.1310  0.0378 -0.7057
  721TIP3    H123798   2.150   4.279   2.205  2.7540  1.9269 -0.0213
  721TIP3    H223799   2.209   4.143   2.179 -0.8117  0.2506  0.0559
  722TIP3   OH223800   0.402   3.701   7.964 -0.3996  0.1036 -0.0563
  722TIP3    H123801   0.377   3.632   7.903 -0.7869  2.2086 -2.4587
  722TIP3    H223802   0.319   3.735   7.997 -0.2035 -0.7048  1.3695
  723TIP3   OH223803   4.037   3.300   3.607 -0.4880  0.4160  0.2844
  723TIP3    H123804   4.082   3.259   3.680  0.8870 -1.1004 -1.3225
  723TIP3    H223805   4.007   3.384   3.641  1.0566  0.2404  2.2503
  724TIP3   OH223806   1.862   0.440   1.233 -0.4699 -0.1083 -0.3404
  724TIP3    H123807   1.908   0.502   1.289  0.5651 -1.0904 -0.0508
  724TIP3    H223808   1.931   0.402   1.178 -0.8561 -1.7803  0.2419
  725TIP3   OH223809   6.099   1.857   1.593  0.2497 -0.5897  0.2392
  725TIP3    H123810   6.050   1.936   1.570  0.1424 -0.5849  0.4753
  725TIP3    H223811   6.181   1.890   1.629  0.0905 -0.5772  0.5952
  726TIP3   OH223812   2.745   1.868   1.714  0.2261  0.4005 -0.4238
  726TIP3    H123813   2.824   1.921   1.728 -0.1947  1.1415 -0.7907
  726TIP3    H223814   2.751   1.798   1.779  1.1281  0.5138 -0.3730
  727TIP3   OH223815   0.886   6.669   0.046  0.5218 -0.3658 -0.6576
  727TIP3    H123816   0.823   6.741   0.035 -1.0338 -1.1680  1.9744
  727TIP3    H223817   0.972   6.712   0.041 -0.3428  1.8081  1.1693
  728TIP3   OH223818   5.201   1.486   2.458  0.1257  0.5898  0.2814
  728TIP3    H123819   5.183   1.454   2.547  0.5368 -0.7673 -0.0991
  728TIP3    H223820   5.196   1.581   2.466 -2.8996  0.4892  1.1113
  729TIP3   OH223821   5.870   2.366   1.994 -0.2603 -0.1837 -0.3384
  729TIP3    H123822   5.851   2.279   1.958  3.4612 -1.1390 -0.3935
  729TIP3    H223823   5.919   2.411   1.925  1.7326  0.2106  1.2337
  730TIP3   OH223824   1.569   0.395   8.754 -0.0402  0.1182  0.0413
  730TIP3    H123825   1.619   0.380   8.674 -0.0376 -1.5601  0.3095
  730TIP3    H223826   1.601   0.478   8.788 -0.2200  0.9872 -1.8140
  731TIP3   OH223827   0.846   2.660   2.593  0.0984  0.1477 -0.1603
  731TIP3    H123828   0.807   2.584   2.635  0.7363  0.7436  1.5827
  731TIP3    H223829   0.776   2.697   2.539 -0.6532 -0.8209  0.1296
  732TIP3   OH223830   3.646   1.490   4.056 -0.5460 -0.0089  0.2705
  732TIP3    H123831   3.628   1.397   4.071  0.7294 -0.6733 -1.9266
  732TIP3    H223832   3.707   1.514   4.125  2.4943 -2.0336 -1.5111
  733TIP3   OH223833   4.237   2.539   3.439  0.2711  0.1884  0.3068
  733TIP3    H123834   4.213   2.501   3.523  1.0148  2.1084  1.4441
  733TIP3    H223835   4.285   2.618   3.461 -0.8914  1.6208 -1.9262
  734TIP3   OH223836   0.961   6.145   3.186  0.7880  0.6333  0.3674
  734TIP3    H123837   1.056   6.159   3.188  0.7975  0.6910 -0.2755
  734TIP3    H223838   0.925   6.220   3.234  1.1469 -0.3551  2.2737
  735TIP3   OH223839   0.395   3.677   1.437 -0.5511 -0.5888  0.2648
  735TIP3    H123840   0.407   3.718   1.523 -1.9852  1.2412 -0.3714
  735TIP3    H223841   0.432   3.739   1.375 -1.0770 -1.1158 -0.5976
  736TIP3   OH223842   2.428   0.462   0.209 -0.5364  0.3517 -0.0320
  736TIP3    H123843   2.426   0.502   0.122  1.5082 -1.9693 -1.2723
  736TIP3    H223844   2.347   0.411   0.214 -0.9912  1.0367 -0.2847
  737TIP3   OH223845   2.967   3.840   2.653 -0.4945  0.6471  0.4776
  737TIP3    H123846   3.008   3.755   2.667 -0.0788  0.8111  0.2756
  737TIP3    H223847   3.020   3.901   2.705 -0.2697  0.9117 -0.0504
  738TIP3   OH223848   5.580   5.137   1.345 -0.0675  0.1919  0.1366
  738TIP3    H123849   5.523   5.206   1.377 -2.1913 -1.0949 -0.6872
  738TIP3    H223850   5.606   5.089   1.424 -1.0962  0.1092  0.4392
  739TIP3   OH223851   4.850   2.482   3.392 -0.4661 -0.7647 -0.0326
  739TIP3    H123852   4.839   2.437   3.476  0.4992 -2.0914 -0.5914
  739TIP3    H223853   4.827   2.417   3.326 -0.4422  0.0106 -0.8245
  740TIP3   OH223854   0.740   6.439   2.991 -0.1746  0.1650  0.8703
  740TIP3    H123855   0.734   6.347   2.966 -1.1166  0.2372  0.8007
  740TIP3    H223856   0.808   6.475   2.935  0.4537 -0.5716  1.1478
  741TIP3   OH223857   2.884   5.340   0.793 -0.0323 -0.6405 -0.2580
  741TIP3    H123858   2.814   5.289   0.835  0.5024 -1.6965 -0.6080
  741TIP3    H223859   2.956   5.338   0.856 -0.0843 -0.1118 -0.1777
  742TIP3   OH223860   5.684   6.583   0.291  0.1575  0.4325  0.2960
  742TIP3    H123861   5.693   6.661   0.346 -0.5192  0.6346  0.1350
  742TIP3    H223862   5.620   6.529   0.337  2.9007 -1.5082  2.0464
  743TIP3   OH223863   0.274   4.335   4.162 -0.2442 -0.0362  0.3960
  743TIP3    H123864   0.332   4.359   4.234  0.5108  0.3039 -0.3052
  743TIP3    H223865   0.192   4.382   4.180  0.7360  2.0241 -0.2117
  744TIP3   OH223866   1.351   3.691   1.793 -0.2168 -0.3223  0.0041
  744TIP3    H123867   1.309   3.746   1.860 -1.6250 -1.8273  0.4105
  744TIP3    H223868   1.342   3.602   1.826 -1.8520 -1.2363 -2.6033
  745TIP3   OH223869   2.474   5.696   2.318  0.2065  0.1579  0.5427
  745TIP3    H123870   2.385   5.729   2.303 -0.4164 -1.0950  1.2404
  745TIP3    H223871   2.526   5.774   2.336 -1.2222  0.8015  2.2509
  746TIP3   OH223872   1.544   0.128   4.039 -0.0944 -0.4611  0.5024
  746TIP3    H123873   1.498   0.147   3.957  1.5444 -1.3714 -0.6782
  746TIP3    H223874   1.587   0.044   4.024  0.5371 -0.4782  2.1812
  747TIP3   OH223875   5.242   2.670   1.188 -0.5159  0.9147  0.1117
  747TIP3    H123876   5.264   2.607   1.119  1.1272  0.9981  0.5131
  747TIP3    H223877   5.327   2.702   1.219 -1.2807  2.1835  0.9789
  748TIP3   OH223878   3.222   5.773   2.357  0.3508  0.4261 -0.1121
  748TIP3    H123879   3.157   5.835   2.324  0.8403 -0.1526 -2.3545
  748TIP3    H223880   3.185   5.687   2.337  0.5003  0.0021  1.3139
  749TIP3   OH223881   6.212   5.663   1.885 -0.0488 -0.3286  0.4587
  749TIP3    H123882   6.253   5.609   1.952  0.3887 -0.8901 -0.2435
  749TIP3    H223883   6.282   5.683   1.823 -0.4865 -0.0140  0.0512
  750TIP3   OH223884   3.691   1.885   2.326  0.5629 -0.2099  0.5680
  750TIP3    H123885   3.689   1.967   2.375 -0.4757  0.5834 -0.7336
  750TIP3    H223886   3.784   1.865   2.316  0.9671  2.1408 -1.1662
  751TIP3   OH223887   2.057   3.984   1.716  0.3199 -0.4658 -0.1195
  751TIP3    H123888   2.018   4.053   1.768 -1.0344 -0.9719 -0.4306
  751TIP3    H223889   2.132   4.026   1.673 -1.4883  1.3373 -1.7232
  752TIP3   OH223890   0.527   4.202   2.388  0.2619  0.4604  0.2817
  752TIP3    H123891   0.489   4.259   2.456 -0.4815  1.6519 -1.0865
  752TIP3    H223892   0.620   4.226   2.386  0.2905  0.4143  0.8759
  753TIP3   OH223893   5.869   4.369   2.132  0.0675 -0.3486 -0.0974
  753TIP3    H123894   5.899   4.397   2.218  0.4438  0.2519 -0.4213
  753TIP3    H223895   5.935   4.400   2.071 -0.1248 -0.8888 -0.5987
  754TIP3   OH223896   5.479   2.671   2.870 -0.4867  0.6864  0.3970
  754TIP3    H123897   5.428   2.609   2.922  0.0633 -0.3663 -0.2816
  754TIP3    H223898   5.561   2.626   2.853 -0.5380  1.1190 -1.1241
  755TIP3   OH223899   0.165   5.738   2.381  0.4220 -0.4915 -0.7952
  755TIP3    H123900   0.205   5.742   2.294 -0.5379  1.3378 -1.1980
  755TIP3    H223901   0.239   5.738   2.441  1.1638 -3.1774 -1.5677
  756TIP3   OH223902   0.469   5.736   0.672  0.2574 -0.4054  0.1384
  756TIP3    H123903   0.562   5.743   0.649  0.3333 -2.1534 -0.1719
  756TIP3    H223904   0.461   5.785   0.754  1.1386  1.0031 -0.5761
  757TIP3   OH223905   5.040   1.844   2.806 -0.4732  0.0838  0.4248
  757TIP3    H123906   5.054   1.818   2.715  0.3338  0.5915  0.3969
  757TIP3    H223907   4.954   1.808   2.828 -0.5557 -0.2793 -0.4480
  758TIP3   OH223908   1.071   2.081   0.330  0.1531 -0.3427  0.2253
  758TIP3    H123909   1.098   2.168   0.359  0.0263 -0.4435  0.6608
  758TIP3    H223910   1.091   2.024   0.405  1.6219 -0.9484 -0.5948
  759TIP3   OH223911   5.074   0.604   2.054  0.0264  0.1470  0.0346
  759TIP3    H123912   5.056   0.530   2.111 -1.3412  0.3132 -0.1576
  759TIP3    H223913   5.032   0.679   2.096 -1.1289  0.2444 -1.2203
  760TIP3   OH223914   3.796   5.846   0.618  0.9424  0.7776  0.5888
  760TIP3    H123915   3.748   5.835   0.700  0.5782  0.9911  0.4066
  760TIP3    H223916   3.754   5.920   0.575  1.7720  1.3133  0.6664
  761TIP3   OH223917   6.262   3.051   1.808  0.0850 -0.2158 -0.4200
  761TIP3    H123918   6.232   3.074   1.720  0.2522 -0.0208 -0.4272
  761TIP3    H223919   6.309   2.969   1.796  1.2202  0.4591 -0.7315
  762TIP3   OH223920   3.073   6.179   3.292 -0.4846 -0.4622 -0.4589
  762TIP3    H123921   3.002   6.134   3.247  0.0776  1.3731 -3.4731
  762TIP3    H223922   3.153   6.139   3.257  0.0168  2.3371 -2.9291
  763TIP3   OH223923   5.051   0.815   8.463  0.0416  0.2337  0.4005
  763TIP3    H123924   4.980   0.752   8.451  0.5306  0.0686 -2.1512
  763TIP3    H223925   5.130   0.762   8.464  0.3722  0.6994 -0.4755
  764TIP3   OH223926   3.185   6.119   3.808  0.4638 -0.0361  0.2543
  764TIP3    H123927   3.281   6.127   3.813  0.4702  0.8918 -0.9971
  764TIP3    H223928   3.152   6.185   3.869  0.6219  0.3251 -0.0472
  765TIP3   OH223929   5.713   1.234   1.789 -0.2127 -0.0257 -0.0287
  765TIP3    H123930   5.644   1.240   1.854  0.3437 -0.4265  0.6135
  765TIP3    H223931   5.794   1.254   1.837  0.0290  1.4250 -0.9733
  766TIP3   OH223932   2.910   0.386   0.209  0.3475  0.3420  0.0048
  766TIP3    H123933   2.843   0.330   0.250  0.0488  1.0687  0.5230
  766TIP3    H223934   2.989   0.332   0.209  0.8650  0.8666  3.2156
  767TIP3   OH223935   4.039   3.517   3.777 -0.2255  0.1987  0.2095
  767TIP3    H123936   4.110   3.544   3.835  0.9597 -1.0128 -0.6157
  767TIP3    H223937   3.974   3.478   3.835  0.3837  0.1201  0.8488
  768TIP3   OH223938   3.693   0.685   2.618  0.2616 -0.0228  0.3458
  768TIP3    H123939   3.619   0.638   2.580  0.8180 -0.6539 -0.0013
  768TIP3    H223940   3.769   0.631   2.595  0.6956 -0.0488  1.7626
  769TIP3   OH223941   5.018   6.699   2.949 -0.7104 -0.1255 -1.0386
  769TIP3    H123942   5.010   6.665   3.038  0.4212 -1.7076 -1.4949
  769TIP3    H223943   5.024   6.794   2.961 -1.2023 -0.2480  0.5053
  770TIP3   OH223944   3.117   2.449   3.133 -0.2469 -0.2616 -0.2436
  770TIP3    H123945   3.106   2.544   3.146 -0.7495 -0.3443 -0.0291
  770TIP3    H223946   3.028   2.418   3.114 -0.2414 -0.8472  0.6830
  771TIP3   OH223947   1.780   5.017   3.436 -0.2626 -0.1637 -0.2511
  771TIP3    H123948   1.875   5.007   3.448 -0.6012 -1.4047  1.7984
  771TIP3    H223949   1.747   4.928   3.436 -1.4669  0.2714 -0.7722
  772TIP3   OH223950   3.492   3.470   1.608 -0.2959 -0.3028 -0.5803
  772TIP3    H123951   3.577   3.463   1.651 -0.7673 -0.6970  0.3109
  772TIP3    H223952   3.458   3.555   1.634 -0.3387 -0.3064 -0.6243
  773TIP3   OH223953   2.482   2.306   1.665  0.1990  0.6321  0.5725
  773TIP3    H123954   2.531   2.234   1.625  0.2577  0.4738  0.9238
  773TIP3    H223955   2.394   2.299   1.628 -0.0035 -0.0771  1.1545
  774TIP3   OH223956   0.869   0.132   4.206 -0.3726  0.1390 -0.3136
  774TIP3    H123957   0.835   0.209   4.159 -1.6793 -0.4596 -0.3784
  774TIP3    H223958   0.811   0.060   4.180 -0.8284 -0.3282  1.7815
  775TIP3   OH223959   0.252   5.228   8.781 -0.2728 -0.6083  0.2432
  775TIP3    H123960   0.238   5.143   8.823 -1.3719 -1.7138 -2.1734
  775TIP3    H223961   0.165   5.258   8.757  0.3289 -1.0469 -2.9616
  776TIP3   OH223962   5.326   1.446   1.803 -0.2301 -0.1994  0.0181
  776TIP3    H123963   5.284   1.531   1.795  1.2198  0.4002 -2.0169
  776TIP3    H223964   5.364   1.430   1.717  2.1468 -1.4836  1.2169
  777TIP3   OH223965   3.958   1.861   0.837 -0.1048 -0.5151 -1.1000
  777TIP3    H123966   3.974   1.932   0.774 -1.0082 -0.6809 -1.5355
  777TIP3    H223967   3.883   1.891   0.888  0.6736 -0.3429 -0.0162
  778TIP3   OH223968   5.378   4.304   2.850  0.2730 -0.2361 -0.2411
  778TIP3    H123969   5.421   4.218   2.855  1.6832  0.3049 -1.9261
  778TIP3    H223970   5.402   4.348   2.931  2.0096 -0.3764 -0.6457
  779TIP3   OH223971   1.689   0.317   0.741  0.0018  0.4292 -0.1450
  779TIP3    H123972   1.641   0.263   0.679 -0.8439  0.4713  0.4550
  779TIP3    H223973   1.748   0.257   0.785 -0.4840  0.1109  0.0759
  780TIP3   OH223974   3.012   1.179   4.513  0.5145 -0.2727  0.2004
  780TIP3    H123975   2.970   1.173   4.599  0.2374  0.6843  0.1549
  780TIP3    H223976   2.939   1.178   4.451  0.5182  1.2978  0.1137
  781TIP3   OH223977   5.137   1.640   1.874  0.0946 -0.0465 -0.4677
  781TIP3    H123978   5.068   1.586   1.912 -0.5188  0.8818 -0.2401
  781TIP3    H223979   5.121   1.638   1.780  0.3747 -0.6576 -0.5073
  782TIP3   OH223980   2.625   0.982   8.796  0.3028 -1.0613  0.1669
  782TIP3    H123981   2.643   0.897   8.754 -0.3930  0.1336 -2.7720
  782TIP3    H223982   2.699   1.037   8.771 -1.1037  0.2591 -1.2954
  783TIP3   OH223983   5.932   6.812   1.913  0.1521 -0.7394  0.0388
  783TIP3    H123984   5.875   6.817   1.989 -2.1267 -1.1886 -1.5349
  783TIP3    H223985   5.969   6.900   1.905 -0.9801 -0.1829  0.6686
  784TIP3   OH223986   6.611   5.249   3.061  0.4120 -0.5332  0.2488
  784TIP3    H123987   6.548   5.258   3.132 -1.4004 -2.0061 -1.0551
  784TIP3    H223988   6.644   5.160   3.069  2.8899  0.3990  1.2642
  785TIP3   OH223989   2.495   4.735   8.644  0.0307  0.2977 -0.4946
  785TIP3    H123990   2.499   4.831   8.645  1.4756  0.2579  0.1330
  785TIP3    H223991   2.585   4.708   8.625 -0.2391 -0.9425 -0.0807
  786TIP3   OH223992   5.254   1.093   8.780 -0.3458 -0.8639 -0.1819
  786TIP3    H123993   5.326   1.153   8.800 -1.9089  0.5985  1.3790
  786TIP3    H223994   5.224   1.120   8.693  0.8607 -1.4232 -0.8051
  787TIP3   OH223995   1.659   0.819   1.010 -0.1976 -0.1931  0.2593
  787TIP3    H123996   1.713   0.833   1.088 -0.3431 -2.1435  0.7801
  787TIP3    H223997   1.701   0.745   0.965 -1.8215 -1.0928  0.1422
  788TIP3   OH223998   2.853   5.065   3.578  0.0211 -0.0992  0.0411
  788TIP3    H123999   2.944   5.082   3.602  0.0539  0.6055 -0.5473
  788TIP3    H224000   2.803   5.131   3.626  0.1306  1.6619 -2.0948
  789TIP3   OH224001   1.760   2.054   0.323  0.0942  0.3484  0.4854
  789TIP3    H124002   1.825   2.121   0.302  0.0394 -0.2427 -1.8164
  789TIP3    H224003   1.803   1.998   0.388  0.9420  1.3747  0.8299
  790TIP3   OH224004   6.516   3.254   3.715  0.0697  0.2310 -0.3356
  790TIP3    H124005   6.426   3.277   3.740  0.4575 -0.5836  2.1471
  790TIP3    H224006   6.568   3.272   3.794  1.6471 -1.6449 -0.8646
  791TIP3   OH224007   6.275   0.804   8.609  0.4541  0.3993 -0.2861
  791TIP3    H124008   6.354   0.823   8.558  0.4367 -1.5180 -1.0990
  791TIP3    H224009   6.299   0.823   8.699  1.5018  0.8011 -0.6332
  792TIP3   OH224010   6.790   6.085   0.875  0.0985  0.2197  0.2156
  792TIP3    H124011   6.751   6.017   0.930 -1.2387  0.0789 -0.8659
  792TIP3    H224012   6.757   6.167   0.911 -1.3806  0.0952 -0.7783
  793TIP3   OH224013   1.216   5.230   8.635  0.0771  0.3063 -0.0346
  793TIP3    H124014   1.296   5.282   8.635 -0.1380  0.6937  1.8149
  793TIP3    H224015   1.238   5.152   8.686  0.0318 -0.8934 -1.7529
  794TIP3   OH224016   2.049   3.646   0.778 -0.1524 -0.1296  0.0232
  794TIP3    H124017   2.108   3.686   0.842  0.0365  0.2075 -0.3582
  794TIP3    H224018   1.981   3.712   0.764 -1.0069 -0.7740  0.9621
  795TIP3   OH224019   2.715   4.297   3.401 -0.2278 -0.1493 -0.2203
  795TIP3    H124020   2.789   4.239   3.416 -1.5310 -1.6910  0.6005
  795TIP3    H224021   2.656   4.281   3.475 -1.4756  0.8759 -0.9381
  796TIP3   OH224022   1.126   1.332   0.461  0.1061  0.2098  0.2778
  796TIP3    H124023   1.169   1.248   0.449  0.2434 -0.1496  2.7067
  796TIP3    H224024   1.193   1.397   0.440  0.4312 -0.2954 -0.2614
  797TIP3   OH224025   0.586   2.358   2.127 -0.8051  0.0086 -0.3346
  797TIP3    H124026   0.643   2.316   2.064  0.2381 -2.3774  2.0015
  797TIP3    H224027   0.553   2.436   2.082  0.4388 -1.1272 -3.4574
  798TIP3   OH224028   2.230   5.839   2.388 -0.1045  0.1004 -0.2284
  798TIP3    H124029   2.227   5.900   2.314  1.7881  0.3043 -0.2023
  798TIP3    H224030   2.148   5.790   2.383 -0.2229  0.4249 -2.1966
  799TIP3   OH224031   5.060   4.197   1.166  0.0165  0.2478 -0.1318
  799TIP3    H124032   5.048   4.130   1.233  0.9227  0.1043 -0.0947
  799TIP3    H224033   5.099   4.271   1.213  2.3866 -0.5046 -0.7702
  800TIP3   OH224034   6.114   3.743   1.536  0.6357 -0.0164  0.2304
  800TIP3    H124035   6.143   3.750   1.628 -1.5058  0.4425  0.9287
  800TIP3    H224036   6.110   3.834   1.506  1.0431 -0.1485 -0.2297
  801TIP3   OH224037   0.320   6.572   3.065  0.0189 -0.5315 -0.5391
  801TIP3    H124038   0.368   6.541   3.142  0.4395 -0.1273 -0.6312
  801TIP3    H224039   0.228   6.556   3.085  0.0700  0.2760  0.3676
  802TIP3   OH224040   1.321   5.299   0.382  0.1796  0.6438  0.2010
  802TIP3    H124041   1.413   5.281   0.400 -0.7327 -2.7893  2.3916
  802TIP3    H224042   1.307   5.270   0.292  1.2145  1.2585 -0.1685
  803TIP3   OH224043   1.700   2.344   2.554  0.0895  0.6558 -0.5131
  803TIP3    H124044   1.752   2.424   2.546  2.0091 -0.2485  1.5227
  803TIP3    H224045   1.654   2.335   2.471  1.2403  2.8988 -1.4567
  804TIP3   OH224046   4.427   0.238   1.763  0.0006 -0.0292 -0.0528
  804TIP3    H124047   4.381   0.264   1.684 -0.0155  1.7017  0.4958
  804TIP3    H224048   4.434   0.318   1.815 -0.3411 -1.1809  1.8731
  805TIP3   OH224049   4.467   4.367   3.412 -0.8497 -0.3912 -0.1208
  805TIP3    H124050   4.417   4.294   3.375  0.1711 -0.4940 -1.3609
  805TIP3    H224051   4.513   4.328   3.487 -0.9336 -0.8352 -0.2948
  806TIP3   OH224052   6.534   3.851   2.003 -0.0988  0.5758 -0.0615
  806TIP3    H124053   6.564   3.880   2.089 -2.5669  2.0640  0.3830
  806TIP3    H224054   6.608   3.868   1.945  2.5892 -2.7028  2.0031
  807TIP3   OH224055   2.866   3.205   1.738 -0.2570 -0.3537  0.2130
  807TIP3    H124056   2.937   3.249   1.692 -0.8112  1.7069  1.1909
  807TIP3    H224057   2.898   3.116   1.753  2.2037  0.5371  0.7514
  808TIP3   OH224058   1.488   1.287   2.299 -0.3336 -0.5918 -0.2365
  808TIP3    H124059   1.482   1.381   2.316  1.0779 -0.4805 -0.2133
  808TIP3    H224060   1.488   1.280   2.203  0.0094 -0.5273 -0.2421
  809TIP3   OH224061   6.292   4.407   0.621  0.1930 -0.0858 -0.8288
  809TIP3    H124062   6.235   4.390   0.546 -1.4128  0.0899  0.2956
  809TIP3    H224063   6.299   4.503   0.625 -1.6654  0.0538  0.5537
  810TIP3   OH224064   5.020   5.424   8.382 -0.1518  0.1526 -0.3828
  810TIP3    H124065   5.067   5.374   8.315 -0.6871 -0.0567 -0.6064
  810TIP3    H224066   4.936   5.445   8.341 -0.6832 -0.4042  0.4012
  811TIP3   OH224067   3.372   3.068   0.884 -0.0369  0.0958 -0.8289
  811TIP3    H124068   3.380   3.080   0.790 -0.7986  1.3340 -0.7544
  811TIP3    H224069   3.412   3.146   0.922  0.0660 -0.2859 -0.1350
  812TIP3   OH224070   1.246   0.670   2.322  0.2670 -0.6019 -0.0392
  812TIP3    H124071   1.200   0.752   2.307  0.5007 -0.9054 -2.9072
  812TIP3    H224072   1.180   0.602   2.308  1.0829 -0.9848 -2.4702
  813TIP3   OH224073   6.605   4.293   2.753 -0.4785  0.3962 -0.1659
  813TIP3    H124074   6.664   4.366   2.733  2.6780 -1.7207  0.7349
  813TIP3    H224075   6.632   4.224   2.692 -1.7824 -0.8257  0.5905
  814TIP3   OH224076   3.607   2.536   1.521 -0.0351 -0.6796  0.7019
  814TIP3    H124077   3.672   2.507   1.457  0.8558 -0.1141  1.3230
  814TIP3    H224078   3.657   2.585   1.586 -1.1710  0.2436  0.9153
  815TIP3   OH224079   3.107   2.925   3.228  0.1239 -0.1220  0.2913
  815TIP3    H124080   3.097   2.881   3.313 -0.1579  0.4522  0.5648
  815TIP3    H224081   3.018   2.953   3.206  0.1676 -0.4354 -0.2907
  816TIP3   OH224082   5.326   3.967   2.348  0.6695  0.6866  0.0579
  816TIP3    H124083   5.349   3.894   2.291 -0.1736  0.7356 -0.3601
  816TIP3    H224084   5.358   4.044   2.302 -0.7492  0.8035 -0.7804
  817TIP3   OH224085   1.278   0.775   1.537  0.0625  0.9932 -0.0124
  817TIP3    H124086   1.344   0.771   1.606 -0.0124 -0.3923  0.0185
  817TIP3    H224087   1.245   0.685   1.530 -0.9939  1.4160 -0.8285
  818TIP3   OH224088   4.050   2.588   1.509 -0.4122 -0.0498 -0.0733
  818TIP3    H124089   4.001   2.627   1.437 -1.4680 -1.4381 -0.1465
  818TIP3    H224090   4.135   2.564   1.471 -0.7762 -0.3034 -0.7328
  819TIP3   OH224091   0.528   5.398   2.667 -0.2055 -0.1374 -0.3615
  819TIP3    H124092   0.587   5.451   2.719  0.2065 -0.2297 -0.7267
  819TIP3    H224093   0.570   5.312   2.663  0.4794  0.2313 -1.9923
  820TIP3   OH224094   5.316   3.877   3.823  0.3047 -0.0897  0.6773
  820TIP3    H124095   5.245   3.879   3.759 -0.6108  3.3246  1.5622
  820TIP3    H224096   5.281   3.825   3.896 -0.1845 -0.7054  0.0156
  821TIP3   OH224097   1.511   0.964   0.817  0.1847 -0.0700  0.2390
  821TIP3    H124098   1.503   0.883   0.767  0.0507 -0.2474  0.5424
  821TIP3    H224099   1.563   0.940   0.894 -0.4944 -0.0496  0.7167
  822TIP3   OH224100   0.081   6.157   3.909 -0.2986  0.0865 -0.0918
  822TIP3    H124101   0.173   6.152   3.935 -0.8094  0.0165  1.8336
  822TIP3    H224102   0.051   6.066   3.905 -0.8031  0.1544  1.4149
  823TIP3   OH224103   6.161   3.050   0.496  0.2198  0.4718  0.2685
  823TIP3    H124104   6.204   3.068   0.579 -0.7614 -1.2627  1.2088
  823TIP3    H224105   6.071   3.078   0.509 -0.1342 -0.5267  0.0988
  824TIP3   OH224106   0.076   5.224   4.049 -0.0697  0.3105 -0.1913
  824TIP3    H124107  -0.006   5.246   4.093 -0.2992 -2.5299  1.0403
  824TIP3    H224108   0.050   5.159   3.983  1.1976 -1.1256  0.6530
  825TIP3   OH224109   6.107   0.231   2.566  0.0067 -0.6112  0.4700
  825TIP3    H124110   6.085   0.207   2.476 -0.1800  0.4308  0.2301
  825TIP3    H224111   6.185   0.178   2.586 -0.7968 -1.9227  0.2153
  826TIP3   OH224112   4.209   1.372   0.598 -0.2777 -0.0977 -0.2039
  826TIP3    H124113   4.259   1.292   0.616 -1.3540 -0.8288 -0.3123
  826TIP3    H224114   4.213   1.421   0.680  1.2385  0.2342 -0.4527
  827TIP3   OH224115   1.789   4.398   2.466  0.2672  0.3905 -0.0802
  827TIP3    H124116   1.716   4.450   2.432  0.1609  0.6466  0.5389
  827TIP3    H224117   1.862   4.460   2.472  0.5884  0.1015 -0.8437
  828TIP3   OH224118   1.095   2.078   3.450  0.3442  0.1526 -0.0009
  828TIP3    H124119   1.127   1.998   3.408 -0.5771 -0.3465  0.2128
  828TIP3    H224120   1.013   2.052   3.492 -0.9036  1.5944 -1.3768
  829TIP3   OH224121   0.007   2.738   1.564  0.0973  0.0774  0.2646
  829TIP3    H124122  -0.035   2.676   1.624 -0.6994 -0.7690 -1.1069
  829TIP3    H224123   0.054   2.682   1.501  1.4811  0.9626  0.4730
  830TIP3   OH224124   4.148   5.273   2.221 -0.1713  0.2199  0.2576
  830TIP3    H124125   4.056   5.259   2.241 -0.1922  0.1364  0.1091
  830TIP3    H224126   4.149   5.300   2.129 -0.0932  0.7588  0.4160
  831TIP3   OH224127   5.193   3.718   4.009  0.1346 -0.7516  0.0032
  831TIP3    H124128   5.109   3.679   3.984  0.2026 -0.3117 -0.9526
  831TIP3    H224129   5.187   3.729   4.104 -1.4005  0.4496 -0.1970
  832TIP3   OH224130   5.928   1.743   2.846 -0.7108  0.7362 -0.5216
  832TIP3    H124131   6.016   1.753   2.882 -1.1105  1.9415  0.1806
  832TIP3    H224132   5.940   1.689   2.768  0.0225 -3.0608  1.9901
  833TIP3   OH224133   0.076   6.741   0.524 -0.1729  0.3492  0.1902
  833TIP3    H124134   0.116   6.808   0.579  1.3619 -1.4500  1.3397
  833TIP3    H224135  -0.006   6.782   0.495  0.8188  2.8289  0.5683
  834TIP3   OH224136   0.012   6.567   1.490  0.1341 -0.3623 -1.2551
  834TIP3    H124137   0.073   6.585   1.419  0.8555 -1.7689 -1.0321
  834TIP3    H224138  -0.040   6.646   1.498 -0.2922 -0.3320 -3.6513
  835TIP3   OH224139   1.918   1.715   2.675  0.4302 -0.3697  0.7107
  835TIP3    H124140   1.972   1.659   2.619  1.0332 -0.8953  1.7848
  835TIP3    H224141   1.945   1.804   2.652  0.4019 -0.5543 -0.0834
  836TIP3   OH224142   1.574   3.096   8.844  0.0812 -0.4650  0.1125
  836TIP3    H124143   1.639   3.084   8.775  1.2597 -0.6678  1.2189
  836TIP3    H224144   1.609   3.046   8.918 -1.6602 -1.0967  0.5443
  837TIP3   OH224145   1.620   2.292   2.019  0.1998 -0.5723  0.0982
  837TIP3    H124146   1.636   2.216   1.963 -4.3608 -0.8218 -1.2041
  837TIP3    H224147   1.593   2.361   1.959 -0.2984  0.6453  1.6586
  838TIP3   OH224148   1.052   5.454   0.234 -0.0367  0.2534 -0.1514
  838TIP3    H124149   1.132   5.409   0.206  0.1164 -0.5928  1.5329
  838TIP3    H224150   1.052   5.536   0.184  1.9494  0.3254 -0.1014
  839TIP3   OH224151   0.729   2.225   1.937 -0.1745 -0.7551  0.1380
  839TIP3    H124152   0.684   2.244   1.855  1.5779 -0.1838 -0.7428
  839TIP3    H224153   0.782   2.148   1.918  0.1283 -0.7130  0.7894
  840TIP3   OH224154   2.608   0.066   0.169  0.0146 -0.0635 -0.2488
  840TIP3    H124155   2.518   0.094   0.155  0.3711  1.3831  0.1466
  840TIP3    H224156   2.622  -0.005   0.106 -1.4177 -0.3785 -0.2382
  841TIP3   OH224157   2.982   1.589   0.885 -0.0642  0.2140 -0.1042
  841TIP3    H124158   3.017   1.648   0.952  0.0464  0.1870 -0.1379
  841TIP3    H224159   2.986   1.502   0.926 -1.4151  0.3750  0.4350
  842TIP3   OH224160   3.613   3.939   2.138  0.3616 -0.4447  0.0332
  842TIP3    H124161   3.565   3.962   2.217 -0.7215  0.3510 -0.8177
  842TIP3    H224162   3.690   3.892   2.169 -1.7259 -3.2914  1.3896
  843TIP3   OH224163   1.880   4.172   2.088  0.3174  0.5565  0.4377
  843TIP3    H124164   1.860   4.159   2.180  0.0331 -1.1934  0.1606
  843TIP3    H224165   1.929   4.094   2.062 -0.1996  0.6843 -1.0586
  844TIP3   OH224166   3.297   6.134   1.715 -0.2610  0.3352 -0.0382
  844TIP3    H124167   3.228   6.182   1.670  1.3196  1.3483 -1.5211
  844TIP3    H224168   3.361   6.114   1.646  0.7907 -0.8264  1.2146
  845TIP3   OH224169   6.490   0.332   3.776  0.3177 -0.1926  0.3848
  845TIP3    H124170   6.575   0.375   3.771  1.5722 -2.5953 -0.6810
  845TIP3    H224171   6.498   0.271   3.849 -0.8366  0.1727  0.8408
  846TIP3   OH224172   2.942   2.774   2.268 -0.0683 -0.6125 -0.1725
  846TIP3    H124173   2.995   2.734   2.198  0.6089 -0.7866  0.4204
  846TIP3    H224174   2.960   2.720   2.345  0.0775  0.2363  0.4051
  847TIP3   OH224175   2.549   1.937   3.096  0.1762  0.0444  0.6215
  847TIP3    H124176   2.482   1.963   3.034  1.3540 -0.1551 -0.7879
  847TIP3    H224177   2.503   1.879   3.158 -1.0790  0.4769  0.1242
  848TIP3   OH224178   3.106   1.712   1.590  0.1645  0.6705 -0.0231
  848TIP3    H124179   3.035   1.649   1.595 -1.1582  1.8131 -2.4577
  848TIP3    H224180   3.186   1.660   1.594 -0.8606 -1.0044 -0.7062
  849TIP3   OH224181   2.310   6.733   0.258  0.1476 -0.0338 -0.3448
  849TIP3    H124182   2.330   6.801   0.193  1.6969 -2.5232 -2.6724
  849TIP3    H224183   2.218   6.746   0.278  0.0114  1.8082 -1.8454
  850TIP3   OH224184   6.117   6.453   0.812 -0.1510 -0.2059  0.6242
  850TIP3    H124185   6.122   6.528   0.871 -0.4071  1.6952 -1.6134
  850TIP3    H224186   6.024   6.433   0.806 -0.0983 -0.6005  1.0789
  851TIP3   OH224187   4.541   1.905   0.648  0.3249  0.6171  0.3650
  851TIP3    H124188   4.470   1.964   0.623 -0.1538 -0.2968 -0.5286
  851TIP3    H224189   4.580   1.878   0.565  1.1725  0.4385  0.8057
  852TIP3   OH224190   4.874   6.075   2.206 -0.1418 -0.2928  0.2626
  852TIP3    H124191   4.883   6.158   2.159  0.5568 -1.0247 -0.9357
  852TIP3    H224192   4.963   6.056   2.237 -0.1672 -0.9049 -0.0294
  853TIP3   OH224193   5.872   5.692   2.718  0.1172  0.0755  0.2744
  853TIP3    H124194   5.942   5.627   2.719 -1.5319 -1.9244 -2.3549
  853TIP3    H224195   5.804   5.655   2.773 -0.7628 -0.3978 -1.0913
  854TIP3   OH224196   2.434   6.462   3.702 -0.0565 -0.3403  0.1252
  854TIP3    H124197   2.398   6.379   3.670 -0.1647  0.5520 -2.2891
  854TIP3    H224198   2.400   6.470   3.791 -0.8702 -2.3997  0.0552
  855TIP3   OH224199   6.775   3.416   8.619 -0.0923 -0.5195 -0.9952
  855TIP3    H124200   6.845   3.394   8.557  0.9074  0.3357 -0.1918
  855TIP3    H224201   6.818   3.469   8.686 -1.6597  0.6398 -0.8615
  856TIP3   OH224202   5.563   1.788   2.023  0.1546  0.1247 -0.1081
  856TIP3    H124203   5.528   1.877   2.027  1.0980  0.5799 -1.2971
  856TIP3    H224204   5.494   1.733   2.060 -1.0538  1.1834 -0.7144
  857TIP3   OH224205   4.720   1.718   2.320 -0.0445 -0.1152 -0.3096
  857TIP3    H124206   4.688   1.783   2.258  0.8067  0.1440 -0.4804
  857TIP3    H224207   4.717   1.763   2.405 -1.3262 -0.5095 -0.1131
  858TIP3   OH224208   2.859   6.385   3.371  0.2471  0.1608  0.0842
  858TIP3    H124209   2.927   6.331   3.331  1.0628 -0.1163  1.7369
  858TIP3    H224210   2.781   6.329   3.371  0.1602  0.2494 -1.2507
  859TIP3   OH224211   6.055   0.141   4.065  0.1780 -0.3756  0.5515
  859TIP3    H124212   6.090   0.230   4.071  0.4148 -0.5681  3.0942
  859TIP3    H224213   6.131   0.084   4.074 -0.1709 -0.8281  0.6903
  860TIP3   OH224214   4.147   2.000   2.697 -0.2343 -0.8690  0.8143
  860TIP3    H124215   4.140   1.961   2.610  2.0437  0.5979 -0.1123
  860TIP3    H224216   4.060   2.037   2.714 -0.2790  0.2706 -1.5705
  861TIP3   OH224217   2.931   0.544   8.664 -0.7514  0.7851 -0.2511
  861TIP3    H124218   2.946   0.638   8.674 -1.6401  0.8073  1.0843
  861TIP3    H224219   2.872   0.538   8.589  0.1986  1.1843 -1.0642
  862TIP3   OH224220   1.611   2.885   1.526 -0.1651 -0.5174  0.6641
  862TIP3    H124221   1.686   2.874   1.468 -0.6898  1.2739 -0.4323
  862TIP3    H224222   1.648   2.873   1.614  1.1348 -0.9188  0.1002
  863TIP3   OH224223   4.922   5.799   1.172  0.0751  0.1310  0.2230
  863TIP3    H124224   5.002   5.745   1.171  0.5129  0.7571  0.6940
  863TIP3    H224225   4.854   5.742   1.136  0.5835 -0.6554  0.4815
  864TIP3   OH224226   4.716   6.242   1.466 -0.3179 -0.1076 -0.6878
  864TIP3    H124227   4.739   6.203   1.381  0.7355 -2.0433  0.4096
  864TIP3    H224228   4.772   6.196   1.529 -1.8176  0.5156  1.1895
  865TIP3   OH224229   5.207   5.537   0.033 -0.6856 -0.0806 -0.2585
  865TIP3    H124230   5.200   5.626  -0.002 -2.9635 -0.3345 -0.6504
  865TIP3    H224231   5.301   5.521   0.040 -0.1886  2.8010  1.0248
  866TIP3   OH224232   4.432   4.615   3.543  0.3976  0.2066  0.2086
  866TIP3    H124233   4.448   4.529   3.505  0.2598  0.0913  0.4106
  866TIP3    H224234   4.518   4.657   3.544  0.6108 -0.2403  0.8765
  867TIP3   OH224235   1.884   6.336   1.515 -0.2910 -0.6909  0.5708
  867TIP3    H124236   1.957   6.385   1.476  0.0974 -0.8163  1.1336
  867TIP3    H224237   1.812   6.347   1.453  0.7832 -2.2952 -1.0762
  868TIP3   OH224238   6.663   6.300   3.827 -0.2805  0.4089 -0.3303
  868TIP3    H124239   6.744   6.251   3.845 -0.9743 -0.2706  1.1381
  868TIP3    H224240   6.654   6.359   3.902 -1.2485  0.3264 -0.3745
  869TIP3   OH224241   3.099   4.255   2.565  0.2738  0.7971  0.1767
  869TIP3    H124242   3.042   4.246   2.489 -0.5948 -0.2201  0.9165
  869TIP3    H224243   3.083   4.343   2.598 -2.0122  0.0747  1.2062
  870TIP3   OH224244   2.577   1.935   0.153  0.9944  0.4782 -0.6576
  870TIP3    H124245   2.647   1.915   0.091  1.9142 -2.7039  1.1782
  870TIP3    H224246   2.504   1.879   0.128  0.4805  0.9857 -0.3255
  871TIP3   OH224247   6.506   6.443   0.198 -0.0816 -0.3286  0.1246
  871TIP3    H124248   6.463   6.528   0.206 -0.2462 -0.5497  1.9722
  871TIP3    H224249   6.572   6.457   0.130 -1.2382  0.7727 -0.8401
  872TIP3   OH224250   5.360   1.360   2.231  0.7758  0.3720  0.0098
  872TIP3    H124251   5.377   1.443   2.186 -1.0560  0.6473 -0.2651
  872TIP3    H224252   5.341   1.386   2.321  0.2460  0.2547 -0.0665
  873TIP3   OH224253   3.410   6.419   0.424  0.1361 -0.0711 -1.0798
  873TIP3    H124254   3.390   6.347   0.365  1.4679 -1.0669 -0.3764
  873TIP3    H224255   3.425   6.377   0.509 -2.8525  1.4001  0.3101
  874TIP3   OH224256   1.555   3.406   3.081  0.4451  0.8594  0.3606
  874TIP3    H124257   1.592   3.329   3.037 -0.6401  0.9500 -0.7505
  874TIP3    H224258   1.602   3.410   3.164  2.0065  0.2353 -0.4527
  875TIP3   OH224259   5.521   0.958   8.612 -0.0783  0.4997  0.4319
  875TIP3    H124260   5.521   1.051   8.631 -0.2778  0.8089 -0.9892
  875TIP3    H224261   5.614   0.935   8.602 -0.0512  0.6250  0.4048
  876TIP3   OH224262   1.676   4.277   0.774 -0.1414 -0.2653 -0.4223
  876TIP3    H124263   1.661   4.360   0.730  0.6635 -0.4927 -1.1507
  876TIP3    H224264   1.771   4.274   0.789 -0.1968 -0.9371 -0.1672
  877TIP3   OH224265   5.950   2.589   1.819  0.4297 -0.5302  0.2265
  877TIP3    H124266   5.890   2.651   1.778  2.0936  1.0427  0.0179
  877TIP3    H224267   5.971   2.527   1.749  0.1583 -0.2181 -0.1390
  878TIP3   OH224268   2.603   0.204   0.972  0.6034  0.0957 -0.6052
  878TIP3    H124269   2.518   0.162   0.967  1.2395 -1.2842 -0.2174
  878TIP3    H224270   2.616   0.221   1.065  0.8773  0.0378 -0.6325
  879TIP3   OH224271   0.709   3.961   4.338  0.2195  0.2342 -0.8207
  879TIP3    H124272   0.655   3.885   4.361 -1.1086  1.2232 -0.6081
  879TIP3    H224273   0.737   3.943   4.248  2.0770 -1.7003  0.0508
  880TIP3   OH224274   5.668   0.601   1.090 -0.3584 -0.4131  0.3892
  880TIP3    H124275   5.710   0.684   1.112  1.8082 -1.3027 -0.1381
  880TIP3    H224276   5.585   0.626   1.050  0.1602  1.4882  0.4170
  881TIP3   OH224277   2.634   4.273   0.204  0.0416 -0.1145  0.1257
  881TIP3    H124278   2.566   4.326   0.245  0.9928  0.5493  0.8994
  881TIP3    H224279   2.624   4.289   0.111  0.0788  1.1615  0.3207
  882TIP3   OH224280   4.342   1.097   0.167  0.0578  0.5526  0.1917
  882TIP3    H124281   4.258   1.108   0.121 -0.5685 -1.9510  0.5532
  882TIP3    H224282   4.383   1.183   0.164 -1.4973  1.3011 -2.0199
  883TIP3   OH224283   5.040   5.638   0.272 -0.3308 -0.0623  0.1014
  883TIP3    H124284   5.118   5.693   0.282 -0.3374  0.2576 -1.4074
  883TIP3    H224285   5.068   5.552   0.304  0.8814 -0.1292 -1.0733
  884TIP3   OH224286   1.945   2.877   3.374 -0.1993  0.3735 -0.0720
  884TIP3    H124287   2.037   2.875   3.349 -0.1701 -1.5261 -0.0142
  884TIP3    H224288   1.946   2.896   3.467  0.0968  0.9852 -0.1987
  885TIP3   OH224289   2.893   4.407   8.366  0.7740 -0.2465 -0.1403
  885TIP3    H124290   2.801   4.385   8.349 -0.6209  2.9225  2.2568
  885TIP3    H224291   2.923   4.449   8.285 -0.5142  0.2879 -0.3676
  886TIP3   OH224292   3.067   5.146   0.922 -0.2502 -0.7391  0.5955
  886TIP3    H124293   3.055   5.090   0.999  1.0254 -1.5954  0.1969
  886TIP3    H224294   3.010   5.108   0.856  0.5514 -1.5403  0.3514
  887TIP3   OH224295   0.192   1.981   0.949 -0.4549  0.0550  0.0744
  887TIP3    H124296   0.166   2.049   0.887  0.6703  1.2307  0.8402
  887TIP3    H224297   0.265   1.937   0.905 -0.6276 -0.1017 -0.0582
  888TIP3   OH224298   5.583   2.243   8.313 -1.0107 -0.6155  0.0557
  888TIP3    H124299   5.521   2.261   8.242 -1.2400 -1.4105  0.0441
  888TIP3    H224300   5.564   2.153   8.339  0.0522 -0.8319  0.1477
  889TIP3   OH224301   0.062   3.560   0.529  0.0969  0.0406  0.3823
  889TIP3    H124302  -0.026   3.534   0.559  0.0984  1.0124  1.2681
  889TIP3    H224303   0.102   3.601   0.606  0.7059  1.1303 -0.4992
  890TIP3   OH224304   3.438   0.371   3.376 -0.2550 -0.6331  0.1735
  890TIP3    H124305   3.390   0.320   3.441  0.4409 -2.2248 -0.5123
  890TIP3    H224306   3.370   0.418   3.327 -0.8814 -0.5510  1.1090
  891TIP3   OH224307   2.298   2.640   2.748 -0.0861 -0.4444 -0.0300
  891TIP3    H124308   2.273   2.557   2.789  0.3566 -0.5981 -0.0694
  891TIP3    H224309   2.222   2.664   2.695 -0.6203 -0.3087  0.7747
  892TIP3   OH224310   0.555   1.634   0.306 -0.0621  0.5079  0.4302
  892TIP3    H124311   0.570   1.640   0.211 -0.2107  0.2771  0.3925
  892TIP3    H224312   0.603   1.555   0.332 -2.7039 -1.3611  0.0052
  893TIP3   OH224313   2.395   3.285   2.104 -0.1252  0.5115  0.7827
  893TIP3    H124314   2.357   3.237   2.178  0.9666  0.5902  1.4199
  893TIP3    H224315   2.381   3.377   2.125 -0.3510  0.5183  0.5981
  894TIP3   OH224316   3.338   6.388   3.072  0.1694 -0.0666 -0.1106
  894TIP3    H124317   3.358   6.371   3.164  0.5552  1.4177  0.1096
  894TIP3    H224318   3.313   6.303   3.036  0.2805 -0.7136  1.2976
  895TIP3   OH224319   0.829   5.698   3.335 -0.0267 -0.7615  0.1961
  895TIP3    H124320   0.924   5.691   3.350  0.4361  2.1138 -0.8997
  895TIP3    H224321   0.791   5.686   3.422  1.5089  0.2855  1.0642
  896TIP3   OH224322   0.429   1.720   2.899 -0.1503  0.6482 -0.1492
  896TIP3    H124323   0.499   1.749   2.956 -1.1831 -0.0329  1.5416
  896TIP3    H224324   0.429   1.624   2.907 -1.7086  0.6638  0.4869
  897TIP3   OH224325   6.598   4.062   3.354 -0.1983  0.4966  0.2440
  897TIP3    H124326   6.629   4.063   3.263 -2.3168 -0.4013 -0.5451
  897TIP3    H224327   6.638   3.983   3.392  1.0765  1.1280  0.2879
  898TIP3   OH224328   0.586   5.974   1.831  0.0382  0.3362 -0.4691
  898TIP3    H124329   0.573   5.965   1.736  0.8559 -2.7492 -0.3826
  898TIP3    H224330   0.659   5.917   1.851 -1.0673 -0.2924  2.2581
  899TIP3   OH224331   0.353   2.454   1.624  0.0245  0.2269 -0.2829
  899TIP3    H124332   0.279   2.404   1.657 -1.3570  0.8627 -2.1916
  899TIP3    H224333   0.332   2.545   1.646 -0.0504  0.4620 -1.2617
  900TIP3   OH224334   0.247   0.677   1.762 -0.1167  0.0535  0.6206
  900TIP3    H124335   0.234   0.694   1.668 -0.3090  2.1927  0.9682
  900TIP3    H224336   0.181   0.612   1.784 -1.3220  0.8947 -0.3699
  901TIP3   OH224337   5.249   6.491   3.439 -0.0350  0.4137  0.5249
  901TIP3    H124338   5.233   6.411   3.489  2.8745  0.0543  1.0593
  901TIP3    H224339   5.207   6.475   3.355 -0.0691 -1.4042  0.8435
  902TIP3   OH224340   4.953   3.876   0.448  0.0642  0.0142  0.1287
  902TIP3    H124341   4.969   3.968   0.426  1.0485 -0.3428 -0.7187
  902TIP3    H224342   4.859   3.872   0.466 -0.0758  1.0961 -0.2794
  903TIP3   OH224343   2.178   0.728   2.574 -0.4302 -0.3374  0.1979
  903TIP3    H124344   2.244   0.759   2.512  1.0366 -1.7302  0.9922
  903TIP3    H224345   2.125   0.805   2.593  1.5038  1.0594  0.1809
  904TIP3   OH224346   2.218   5.092   2.467 -0.4562 -0.4754  0.3397
  904TIP3    H124347   2.213   5.028   2.396 -0.5318  1.7592 -1.8186
  904TIP3    H224348   2.127   5.102   2.496 -0.4818 -1.1201  0.4971
  905TIP3   OH224349   2.256   0.821   4.518 -0.0208  0.1175  0.4021
  905TIP3    H124350   2.339   0.839   4.474 -1.0437 -0.7309 -2.0739
  905TIP3    H224351   2.256   0.726   4.532 -0.5172  0.1285  0.5053
  906TIP3   OH224352   2.548   0.909   1.092  0.6677 -0.4562 -0.0111
  906TIP3    H124353   2.604   0.874   1.023  1.0787 -1.1940  0.6873
  906TIP3    H224354   2.608   0.953   1.152  0.3556 -0.1626  0.0912
  907TIP3   OH224355   6.180   4.900   1.703  0.6064 -0.1360 -0.0278
  907TIP3    H124356   6.252   4.855   1.747  0.6023 -0.3949 -0.2778
  907TIP3    H224357   6.166   4.979   1.754  2.2095  0.7838 -0.9527
  908TIP3   OH224358   5.098   5.857   1.993  0.0655 -0.2103 -0.0257
  908TIP3    H124359   5.109   5.939   1.944  0.7455  1.1590  2.2615
  908TIP3    H224360   5.014   5.822   1.963  0.9398 -0.0598 -2.9123
  909TIP3   OH224361   4.440   5.962   3.266  0.3385  0.1232 -0.2145
  909TIP3    H124362   4.435   6.049   3.226  1.7167 -0.4537 -1.7460
  909TIP3    H224363   4.364   5.916   3.231  0.3410  0.3021 -0.4612
  910TIP3   OH224364   5.249   5.844   2.540  0.1937  0.4652 -0.0129
  910TIP3    H124365   5.256   5.755   2.574 -0.1852 -0.2947 -1.7838
  910TIP3    H224366   5.198   5.834   2.459  0.0007  2.3169 -0.1530
  911TIP3   OH224367   2.446   1.051   1.501  0.2717  0.7380 -0.0657
  911TIP3    H124368   2.496   1.133   1.491  0.4753  0.5365 -0.7692
  911TIP3    H224369   2.401   1.040   1.417 -1.0389  0.9555  0.5815
  912TIP3   OH224370   1.473   1.393   3.817  0.1569  1.0961 -0.4931
  912TIP3    H124371   1.436   1.337   3.749  1.2597  0.0045 -0.2368
  912TIP3    H224372   1.399   1.415   3.873 -0.4730  0.6940 -1.1442
  913TIP3   OH224373   0.350   2.539   4.100  0.0164  0.0973 -0.3837
  913TIP3    H124374   0.280   2.570   4.158 -0.1443 -1.5031  0.3377
  913TIP3    H224375   0.342   2.593   4.022 -2.0650 -0.0480 -0.3339
  914TIP3   OH224376   2.465   0.640   8.821 -0.1249 -0.4222 -0.2143
  914TIP3    H124377   2.474   0.732   8.798  2.1683 -0.5786 -0.2069
  914TIP3    H224378   2.417   0.601   8.748 -2.1278  0.9413  0.3154
  915TIP3   OH224379   4.466   0.638   1.920 -0.1804 -0.5870  0.0711
  915TIP3    H124380   4.497   0.548   1.921 -0.9705 -0.8708 -0.0901
  915TIP3    H224381   4.402   0.642   1.990 -0.1267 -0.1402  0.0973
  916TIP3   OH224382   5.940   1.091   8.024  0.3683  0.3967  0.7359
  916TIP3    H124383   5.847   1.106   8.011 -0.2842 -2.2275  1.9008
  916TIP3    H224384   5.982   1.161   7.973 -2.1737  0.9412 -0.8042
  917TIP3   OH224385   3.534   3.101   0.145 -0.0931  0.3255 -0.2104
  917TIP3    H124386   3.597   3.053   0.199  1.5607  0.1129 -2.1909
  917TIP3    H224387   3.582   3.178   0.115 -0.9597  0.4639 -1.3082
  918TIP3   OH224388   6.549   4.781   3.588 -0.0289 -0.3103  0.1997
  918TIP3    H124389   6.643   4.782   3.608  0.4158 -1.6879 -1.6259
  918TIP3    H224390   6.515   4.706   3.637 -0.2113  0.2139  0.8948
  919TIP3   OH224391   4.015   3.202   3.337  0.3619 -0.0172  0.0173
  919TIP3    H124392   4.032   3.227   3.428  0.4121  1.3176 -0.3435
  919TIP3    H224393   3.920   3.192   3.332  0.5218 -3.2595  0.9653
  920TIP3   OH224394   6.261   1.039   0.216 -0.2799  0.2761 -0.2318
  920TIP3    H124395   6.300   1.033   0.303 -0.2186  0.4345 -0.2476
  920TIP3    H224396   6.296   1.120   0.180 -0.5984  0.4043 -0.2569
  921TIP3   OH224397   3.959   0.182   2.220  0.0197 -0.0182 -0.1037
  921TIP3    H124398   4.049   0.196   2.191 -0.0129  0.9046  0.1855
  921TIP3    H224399   3.916   0.139   2.146  0.9010 -1.2810  0.0798
  922TIP3   OH224400   3.425   3.833   2.459 -0.0945 -0.4260  0.1631
  922TIP3    H124401   3.461   3.921   2.458 -0.7842 -0.1422  0.0212
  922TIP3    H224402   3.502   3.776   2.465  0.5175  0.0746 -2.1453
  923TIP3   OH224403   0.013   5.346   8.703  0.1667 -0.0025  0.1889
  923TIP3    H124404  -0.036   5.421   8.669  1.5278  1.3992  1.1728
  923TIP3    H224405  -0.044   5.310   8.772 -1.2974 -1.0629 -1.4903
  924TIP3   OH224406   0.917   2.998   3.759 -0.3524  0.6927  0.2832
  924TIP3    H124407   0.907   2.939   3.833 -2.3370  1.3293  0.5708
  924TIP3    H224408   0.958   3.076   3.795  0.4474  0.2717  0.3023
  925TIP3   OH224409   3.431   2.019   0.324  0.2699 -0.6030 -0.2594
  925TIP3    H124410   3.439   2.046   0.416 -0.4105  0.9314 -0.6156
  925TIP3    H224411   3.492   2.077   0.277 -0.6862 -0.1599 -0.9796
  926TIP3   OH224412   1.042   1.605   8.750  0.3860  0.3344  0.0545
  926TIP3    H124413   1.001   1.632   8.832 -0.1913 -0.9043  0.1979
  926TIP3    H224414   0.978   1.547   8.710  0.6292  0.9755 -1.3220
  927TIP3   OH224415   2.745   6.447   0.339  0.2646  0.8944  0.3888
  927TIP3    H124416   2.744   6.540   0.315 -1.2187  0.7368 -0.3041
  927TIP3    H224417   2.751   6.447   0.434 -0.8295  1.7495  0.4835
  928TIP3   OH224418   3.575   1.621   1.980  0.1275  0.0304  0.5112
  928TIP3    H124419   3.583   1.707   1.938 -1.3657 -0.1489 -0.2107
  928TIP3    H224420   3.666   1.595   1.998  0.5953  2.1132  1.5378
  929TIP3   OH224421   0.168   0.149   1.128  0.5560 -0.3593 -0.3440
  929TIP3    H124422   0.104   0.205   1.173 -1.0524 -2.0898 -0.3068
  929TIP3    H224423   0.158   0.170   1.035  0.1159 -0.4104 -0.3114
  930TIP3   OH224424   3.268   0.679   1.706 -0.5082  0.1292  0.2961
  930TIP3    H124425   3.200   0.717   1.762 -0.7207 -0.4085  0.4058
  930TIP3    H224426   3.311   0.755   1.666 -0.0304  0.5503  1.5494
  931TIP3   OH224427   1.392   5.272   2.723  0.7484 -0.1468 -0.4645
  931TIP3    H124428   1.466   5.324   2.693 -0.8722  1.9263 -1.1395
  931TIP3    H224429   1.348   5.327   2.788 -0.4851 -1.0932 -0.4477
  932TIP3   OH224430   3.108   1.190   2.065  0.1005 -0.3050 -0.6142
  932TIP3    H124431   3.159   1.110   2.082 -2.3125 -1.7648  0.2705
  932TIP3    H224432   3.138   1.251   2.132 -0.2754 -1.6332  0.8332
  933TIP3   OH224433   1.370   0.497   1.059  0.1820 -0.4727 -0.1723
  933TIP3    H124434   1.395   0.562   1.124 -2.6138  1.1487 -0.5631
  933TIP3    H224435   1.443   0.495   0.997  0.9420  1.2912  0.6086
  934TIP3   OH224436   5.640   0.471   8.220 -0.0195  0.1540  0.1767
  934TIP3    H124437   5.720   0.524   8.222 -1.0642  1.8782 -0.7377
  934TIP3    H224438   5.660   0.400   8.160  0.7292  0.7559 -0.3117
  935TIP3   OH224439   3.866   1.159   1.282 -0.3028  0.4680  0.1933
  935TIP3    H124440   3.951   1.125   1.310 -0.2454 -0.7430 -1.3306
  935TIP3    H224441   3.822   1.184   1.363  0.3756 -1.5681  1.2500
  936TIP3   OH224442   3.873   3.464   1.046 -0.2099 -0.8775 -0.3688
  936TIP3    H124443   3.840   3.428   1.128 -0.8468 -0.3560 -0.3826
  936TIP3    H224444   3.798   3.511   1.009 -0.0870 -1.5465 -1.5041
  937TIP3   OH224445   2.796   2.564   2.463 -0.5730 -0.2051  0.2859
  937TIP3    H124446   2.731   2.496   2.447 -0.5912  0.0180 -0.6388
  937TIP3    H224447   2.875   2.517   2.490  0.0649 -0.7829 -2.3558
  938TIP3   OH224448   1.565   6.032   0.217 -0.7678 -0.2396 -0.0306
  938TIP3    H124449   1.561   5.966   0.147 -0.4338  0.2041 -0.4765
  938TIP3    H224450   1.604   6.108   0.175 -0.0105 -0.1625  0.8068
  939TIP3   OH224451   6.414   2.930   1.491  0.4970 -0.1977  0.1372
  939TIP3    H124452   6.481   2.956   1.428 -1.8776 -0.8263 -2.8898
  939TIP3    H224453   6.387   2.842   1.463 -4.6040  1.6139 -1.8541
  940TIP3   OH224454   6.707   0.599   8.739 -0.0221 -0.0055  0.1635
  940TIP3    H124455   6.726   0.617   8.647  0.2551  0.2360  0.2686
  940TIP3    H224456   6.759   0.521   8.759 -0.5793 -0.4468 -0.0588
  941TIP3   OH224457   1.914   2.308   0.613  0.0026 -0.6578  0.6311
  941TIP3    H124458   1.881   2.313   0.524 -0.1119 -0.7079  0.6705
  941TIP3    H224459   1.841   2.272   0.664  0.7713 -2.8127  0.3440
  942TIP3   OH224460   0.494   6.381   8.191  0.9902  0.1979 -0.0753
  942TIP3    H124461   0.529   6.312   8.135  1.6887 -0.5182  1.2137
  942TIP3    H224462   0.511   6.462   8.142  0.2425 -0.5016 -1.5584
  943TIP3   OH224463   4.235   0.763   1.435 -1.0855  0.3502  0.1524
  943TIP3    H124464   4.287   0.687   1.464 -2.5010 -0.2506  1.2544
  943TIP3    H224465   4.186   0.731   1.360 -0.6644  0.6116 -0.2431
  944TIP3   OH224466   1.199   5.721   3.664 -0.5343 -0.1424 -0.0069
  944TIP3    H124467   1.154   5.735   3.747  0.5535  1.7229  0.3216
  944TIP3    H224468   1.277   5.671   3.688 -1.3073 -1.5314 -0.2708
  945TIP3   OH224469   1.968   4.944   3.210 -0.2725 -0.5154 -0.3606
  945TIP3    H124470   2.023   4.888   3.265 -0.1577  0.5287  0.6179
  945TIP3    H224471   1.883   4.899   3.207  0.2170 -1.4349 -0.7407
  946TIP3   OH224472   4.387   4.693   0.754  0.2403  0.1385  0.5917
  946TIP3    H124473   4.408   4.609   0.713  1.9277  0.7325  0.1682
  946TIP3    H224474   4.308   4.723   0.707  0.2635 -0.6907 -0.0007
  947TIP3   OH224475   1.706   3.397   0.483 -0.0449  0.3041  0.1647
  947TIP3    H124476   1.685   3.309   0.515  2.2090 -0.8856 -1.2871
  947TIP3    H224477   1.792   3.416   0.521  0.4316  0.9483 -1.1578
  948TIP3   OH224478   5.756   0.626   0.143  0.4777  0.0169  0.2593
  948TIP3    H124479   5.751   0.646   0.236 -1.6581  1.5420 -0.1177
  948TIP3    H224480   5.789   0.706   0.103 -1.1378  0.3283 -0.5334
  949TIP3   OH224481   1.114   5.882   0.017  0.6247  0.5135 -0.6380
  949TIP3    H124482   1.166   5.844  -0.053  0.0493  0.1219 -0.8607
  949TIP3    H224483   1.118   5.977   0.001  1.6405  0.5294 -0.3727
  950TIP3   OH224484   3.573   4.971   0.288  0.5088 -0.4527  0.2334
  950TIP3    H124485   3.595   5.048   0.340 -0.5239 -0.6621  1.0179
  950TIP3    H224486   3.614   4.986   0.203  1.2972  0.4105  0.7487
  951TIP3   OH224487   2.855   6.145   1.808  0.3789  0.4606  0.3361
  951TIP3    H124488   2.776   6.118   1.854 -0.5906 -0.2139 -1.6054
  951TIP3    H224489   2.859   6.240   1.821 -0.2087  0.3699  1.2336
  952TIP3   OH224490   3.210   3.575   3.231  0.3864  0.4655  0.5198
  952TIP3    H124491   3.269   3.631   3.282  1.3685 -0.3100  0.2671
  952TIP3    H224492   3.269   3.516   3.183 -0.6170 -2.3123  2.4693
  953TIP3   OH224493   5.762   2.410   3.518  0.7343  0.7384  0.3608
  953TIP3    H124494   5.835   2.432   3.576  1.6891 -0.9357 -0.1587
  953TIP3    H224495   5.739   2.320   3.541  0.9806  0.1087 -1.6584
  954TIP3   OH224496   2.188   5.612   2.762 -0.5671 -0.1461  0.3670
  954TIP3    H124497   2.223   5.550   2.826  0.7785  1.1156  0.9101
  954TIP3    H224498   2.248   5.607   2.688 -1.5383 -0.8490 -0.3985
  955TIP3   OH224499   4.538   4.261   2.949  0.4417  0.4174 -0.0291
  955TIP3    H124500   4.538   4.203   2.872  0.1809 -0.7129  0.7975
  955TIP3    H224501   4.577   4.343   2.917  1.3239 -0.3819 -1.1015
  956TIP3   OH224502   6.043   2.919   2.973  0.1301 -0.0504 -0.2946
  956TIP3    H124503   5.992   2.963   3.041  1.8727  0.9592  0.4322
  956TIP3    H224504   5.986   2.849   2.942 -0.5566 -0.9482  2.6178
  957TIP3   OH224505   5.031   1.820   0.853  0.2227 -0.1449 -0.3181
  957TIP3    H124506   5.015   1.889   0.917  1.0654  0.7559 -1.0350
  957TIP3    H224507   4.946   1.807   0.810 -0.3009 -0.6234  0.8245
  958TIP3   OH224508   6.579   6.772   3.607  0.0667 -0.5745 -0.1144
  958TIP3    H124509   6.640   6.801   3.674  1.6105 -0.6616 -1.4317
  958TIP3    H224510   6.548   6.853   3.566 -1.3896 -0.4854  1.0960
  959TIP3   OH224511   0.793   1.519   2.986 -0.0083 -0.2934 -0.4179
  959TIP3    H124512   0.714   1.556   3.024  0.9021 -0.2671  1.5790
  959TIP3    H224513   0.861   1.583   3.004  0.6403 -0.6684 -1.4123
  960TIP3   OH224514   3.133   4.036   0.211 -0.0193  0.0525  0.1224
  960TIP3    H124515   3.217   4.005   0.245  1.4454  2.4141 -1.0652
  960TIP3    H224516   3.076   3.959   0.214  1.4272 -1.0529  3.1871
  961TIP3   OH224517   4.371   4.001   2.554  0.3091 -0.1405 -0.8408
  961TIP3    H124518   4.465   4.012   2.562  0.5575 -2.3447  0.1415
  961TIP3    H224519   4.358   3.906   2.556 -1.9026  0.1007 -1.3130
  962TIP3   OH224520   6.264   5.617   0.048  0.3151 -0.4808  0.1838
  962TIP3    H124521   6.247   5.634  -0.045  2.4262  1.3853  0.0535
  962TIP3    H224522   6.237   5.697   0.092  2.2292 -0.1118  0.7451
  963TIP3   OH224523   4.045   5.621   0.115  0.4694 -0.1940 -0.0329
  963TIP3    H124524   4.122   5.612   0.170  1.4925 -0.1891 -1.4043
  963TIP3    H224525   4.072   5.681   0.046 -1.4252  1.4469  0.5639
  964TIP3   OH224526   5.367   4.716   0.604  0.4035 -0.0258  0.0518
  964TIP3    H124527   5.357   4.671   0.520 -0.5623  1.3719 -0.6336
  964TIP3    H224528   5.459   4.741   0.607  0.3483  0.3347 -0.8485
  965TIP3   OH224529   3.586   3.719   3.967 -0.2072  0.3081 -0.3765
  965TIP3    H124530   3.530   3.793   3.991 -0.2525  0.1110  0.1455
  965TIP3    H224531   3.661   3.758   3.923 -0.4509  0.6271 -0.5082
  966TIP3   OH224532   1.454   1.759   1.239 -0.3551  0.1722  0.5192
  966TIP3    H124533   1.366   1.768   1.202 -0.1984  1.7564  0.4755
  966TIP3    H224534   1.450   1.679   1.292 -2.0067  0.5630  1.0345
  967TIP3   OH224535   0.049   1.500   1.004  0.2057 -0.3826 -0.2882
  967TIP3    H124536   0.135   1.458   1.003  0.6449  0.2702  2.5787
  967TIP3    H224537   0.060   1.580   0.952  0.7037 -1.3542 -1.7090
  968TIP3   OH224538   5.427   5.656   0.681  0.1594  0.0570  0.3261
  968TIP3    H124539   5.478   5.719   0.631 -2.6457 -0.4814 -3.6765
  968TIP3    H224540   5.445   5.572   0.640 -3.3110 -0.2228 -0.9801
  969TIP3   OH224541   2.333   5.344   3.362 -0.0642  0.1391  0.4887
  969TIP3    H124542   2.399   5.323   3.296  1.3290 -1.5518  2.2952
  969TIP3    H224543   2.383   5.381   3.435 -1.3235  0.3754  1.2532
  970TIP3   OH224544   1.970   3.543   1.646 -0.3396 -0.7429  0.0118
  970TIP3    H124545   1.904   3.479   1.674  0.4275 -1.0577  1.2097
  970TIP3    H224546   2.053   3.495   1.653  0.0060 -0.5244 -1.9885
  971TIP3   OH224547   6.792   2.530   1.344  0.2899  0.0797  0.7526
  971TIP3    H124548   6.724   2.478   1.301  1.0407  0.1621 -0.5909
  971TIP3    H224549   6.812   2.599   1.281  1.1567  0.4490  1.4192
  972TIP3   OH224550   0.660   4.674   0.278 -0.1716 -0.4255 -0.5720
  972TIP3    H124551   0.722   4.613   0.237  0.5111  0.8503 -1.4983
  972TIP3    H224552   0.598   4.696   0.209  0.0331  0.5087 -0.4633
  973TIP3   OH224553   0.529   3.797   2.096 -0.2946  0.5512 -0.2631
  973TIP3    H124554   0.548   3.883   2.058 -0.3527  1.6345  1.9845
  973TIP3    H224555   0.451   3.812   2.150 -0.6296 -1.0597 -0.2765
  974TIP3   OH224556   2.933   0.793   8.819  0.4797  0.1976  0.7123
  974TIP3    H124557   2.977   0.849   8.754  0.3225 -0.9398 -0.4036
  974TIP3    H224558   2.841   0.794   8.793  0.2118  0.6503  1.6251
  975TIP3   OH224559   3.739   6.682   3.392  0.1865 -0.0422 -0.6997
  975TIP3    H124560   3.733   6.734   3.472  0.5540 -0.1230 -0.6161
  975TIP3    H224561   3.776   6.743   3.328  1.0923 -0.3392 -0.4689
  976TIP3   OH224562   4.062   6.348   1.144  0.4898 -0.0963 -0.6487
  976TIP3    H124563   4.004   6.274   1.126 -0.0297  0.2079 -0.2662
  976TIP3    H224564   4.145   6.324   1.102  0.7397 -1.4720  0.5539
  977TIP3   OH224565   1.284   2.097   2.127  0.3279 -0.4960 -0.1314
  977TIP3    H124566   1.244   2.036   2.189 -1.6450  1.0936  0.2588
  977TIP3    H224567   1.297   2.177   2.177 -0.6157  0.5908 -1.5380
  978TIP3   OH224568   4.189   1.155   8.786 -0.2822 -0.0621 -0.2333
  978TIP3    H124569   4.112   1.099   8.781 -0.9489  0.8283 -0.1532
  978TIP3    H224570   4.203   1.184   8.696 -0.4588  0.3184 -0.1418
  979TIP3   OH224571   3.452   4.391   2.837  0.2508  0.2764  0.3437
  979TIP3    H124572   3.508   4.391   2.916  1.4749 -0.1321 -0.4891
  979TIP3    H224573   3.389   4.321   2.853  0.0131  0.6777  1.2663
  980TIP3   OH224574   4.186   5.960   1.666  0.1384 -0.0104 -0.1990
  980TIP3    H124575   4.168   6.048   1.699 -2.0036 -0.6692  0.5809
  980TIP3    H224576   4.100   5.927   1.640  1.1739 -1.0791 -2.6196
  981TIP3   OH224577   0.862   5.868   3.111 -0.2501 -0.2813 -0.0075
  981TIP3    H124578   0.902   5.945   3.152  2.2634 -1.9889  0.9831
  981TIP3    H224579   0.834   5.814   3.185 -3.1204  0.1061 -0.6868
  982TIP3   OH224580   0.003   3.229   2.765 -0.4043 -0.1360 -0.6197
  982TIP3    H124581  -0.053   3.254   2.838  1.4364  0.5697  0.6396
  982TIP3    H224582   0.058   3.306   2.749 -0.0036 -0.6700 -2.0298
  983TIP3   OH224583   6.661   3.180   3.249 -0.0056 -0.1924 -1.0458
  983TIP3    H124584   6.617   3.245   3.304 -0.2486 -0.6027 -0.7488
  983TIP3    H224585   6.641   3.096   3.291  2.0745 -0.3275 -0.1835
  984TIP3   OH224586   2.533   0.988   8.445  0.0458 -0.1588  0.2211
  984TIP3    H124587   2.623   0.963   8.469  1.2304 -2.2882 -4.9110
  984TIP3    H224588   2.481   0.909   8.463 -0.6565  0.6959  2.1500
  985TIP3   OH224589   1.711   4.922   3.850 -0.2952  0.2807  0.0775
  985TIP3    H124590   1.634   4.945   3.799 -0.0022 -0.0350 -0.5134
  985TIP3    H224591   1.782   4.974   3.812 -0.2094  0.5715  0.6168
  986TIP3   OH224592   4.789   1.392   3.100  0.1610 -0.3135 -0.8580
  986TIP3    H124593   4.769   1.298   3.096 -0.5482 -0.1524 -1.4262
  986TIP3    H224594   4.839   1.403   3.180  0.5311 -1.2324 -0.9513
  987TIP3   OH224595   6.406   6.123   2.278 -0.5134 -0.5823  0.7171
  987TIP3    H124596   6.465   6.130   2.353 -1.1389 -0.2179  1.1820
  987TIP3    H224597   6.463   6.129   2.201  0.4513 -3.3282  1.1111
  988TIP3   OH224598   2.944   6.627   3.390 -0.4118 -0.0963 -0.2510
  988TIP3    H124599   3.018   6.619   3.330  0.0843 -0.1458  0.3618
  988TIP3    H224600   2.912   6.537   3.400  0.0578 -0.2154  0.2406
  989TIP3   OH224601   2.072   6.117   2.876  0.0416  0.0778 -0.3433
  989TIP3    H124602   2.020   6.043   2.909  0.0495  0.3741  0.3611
  989TIP3    H224603   2.039   6.193   2.924 -0.4244  0.6601 -1.5457
  990TIP3   OH224604   0.620   5.972   3.336  0.2541 -0.2810 -0.5310
  990TIP3    H124605   0.558   5.900   3.348 -1.5240  1.2285 -0.1518
  990TIP3    H224606   0.584   6.022   3.262  0.8455  0.8108 -0.1041
  991TIP3   OH224607   6.798   5.668   1.470 -0.2489  0.0284 -0.1456
  991TIP3    H124608   6.769   5.624   1.391  1.0079  0.2725 -0.7743
  991TIP3    H224609   6.877   5.621   1.497  1.1051  1.7571 -0.8087
  992TIP3   OH224610   0.281   4.899   1.972 -0.5438  0.1505 -0.0829
  992TIP3    H124611   0.351   4.881   1.910  0.6547  0.4293  1.1462
  992TIP3    H224612   0.304   4.983   2.011 -2.4735  1.1047 -0.8516
  993TIP3   OH224613   4.855   0.280   2.806  0.7055  0.4041  0.0432
  993TIP3    H124614   4.894   0.242   2.728 -1.3939 -1.1048 -0.3538
  993TIP3    H224615   4.763   0.291   2.785  0.1309  0.2521  2.1620
  994TIP3   OH224616   5.724   0.887   1.887 -0.4336 -0.0551 -0.0552
  994TIP3    H124617   5.703   0.796   1.865  0.3155  0.0270 -1.1774
  994TIP3    H224618   5.734   0.886   1.982  1.5975 -1.6303 -0.2075
  995TIP3   OH224619   0.887   4.611   3.546  0.8500 -0.4790  0.4645
  995TIP3    H124620   0.856   4.522   3.562  1.1835 -0.4030  1.5764
  995TIP3    H224621   0.956   4.600   3.480  1.3314 -1.1333  1.0578
  996TIP3   OH224622   4.039   1.101   3.910  0.0476 -0.0714 -0.6510
  996TIP3    H124623   4.049   1.110   4.005  0.5195 -2.4856 -0.3996
  996TIP3    H224624   3.947   1.121   3.894  0.1048  0.9852  0.2088
  997TIP3   OH224625   4.015   5.342   1.041  0.3161  0.8112  0.7624
  997TIP3    H124626   4.073   5.362   1.114 -1.2922  0.7118  2.1073
  997TIP3    H224627   4.025   5.248   1.028  1.1406  0.9413  0.3442
  998TIP3   OH224628   2.518   4.301   3.634  0.6887  0.6637  0.5759
  998TIP3    H124629   2.463   4.373   3.603  1.5092  1.4925  0.9928
  998TIP3    H224630   2.531   4.319   3.727 -1.2336 -1.4554  1.3486
  999TIP3   OH224631   0.893   4.171   0.471  0.1205 -0.3045 -0.1590
  999TIP3    H124632   0.860   4.102   0.529 -1.4016 -0.5504 -1.2556
  999TIP3    H224633   0.987   4.174   0.488  0.0331 -1.8439  0.7663
 1000TIP3   OH224634   1.065   6.419   1.031 -0.5464 -0.4232  0.2707
 1000TIP3    H124635   1.041   6.481   0.962 -1.6337 -0.5233  0.5473
 1000TIP3    H224636   0.982   6.397   1.074  0.0438 -0.7693  1.2697
 1001TIP3   OH224637   5.657   1.767   0.123  0.2417  0.3584 -0.0733
 1001TIP3    H124638   5.567   1.794   0.143  0.1841  0.7641 -0.8427
 1001TIP3    H224639   5.676   1.699   0.188 -0.1790  1.1304  0.8886
 1002TIP3   OH224640   4.543   0.942   2.403  0.2310 -0.1981 -0.6326
 1002TIP3    H124641   4.506   0.854   2.395  0.3382 -0.4249  0.9778
 1002TIP3    H224642   4.495   0.981   2.476 -0.4381  1.4347 -1.8768
 1003TIP3   OH224643   4.360   1.787   1.452  0.6342 -0.2984 -0.5638
 1003TIP3    H124644   4.329   1.872   1.484  0.4562 -0.3935 -0.4818
 1003TIP3    H224645   4.338   1.786   1.359  0.2185 -0.4437 -0.4641
 1004TIP3   OH224646   5.369   1.607   1.413  0.2975 -0.1106  0.4733
 1004TIP3    H124647   5.377   1.597   1.319  1.8788 -0.1713  0.5833
 1004TIP3    H224648   5.378   1.701   1.429  1.0785 -0.2043  0.6290
 1005TIP3   OH224649   0.822   6.500   2.356 -0.6678  0.1064  0.0773
 1005TIP3    H124650   0.813   6.406   2.341  1.7259 -0.5831  2.2109
 1005TIP3    H224651   0.766   6.517   2.432  1.7008 -0.5187  2.1191
 1006TIP3   OH224652   0.509   0.920   3.200 -0.7486 -0.0898  0.0098
 1006TIP3    H124653   0.490   0.906   3.293 -0.0055  0.1708  0.2113
 1006TIP3    H224654   0.501   1.015   3.189  0.4524  0.0467  0.1276
 1007TIP3   OH224655   4.299   4.792   4.339  0.2404 -0.3787  0.3638
 1007TIP3    H124656   4.350   4.863   4.300  1.5296 -1.8820 -0.8117
 1007TIP3    H224657   4.219   4.835   4.371  1.2751  1.7032  0.3679
 1008TIP3   OH224658   3.561   5.811   3.070  0.0612  0.1186 -0.0562
 1008TIP3    H124659   3.655   5.817   3.089 -0.0079  1.3695 -0.0603
 1008TIP3    H224660   3.536   5.899   3.043 -1.1185 -0.2044 -0.0731
 1009TIP3   OH224661   2.958   5.708   2.970 -0.9244  1.0104  0.2010
 1009TIP3    H124662   2.963   5.801   2.949  0.9446  1.0249  0.5324
 1009TIP3    H224663   3.014   5.698   3.047 -0.4674 -0.5116 -0.2971
 1010TIP3   OH224664   4.838   1.050   3.460 -0.6113  0.1710  0.0566
 1010TIP3    H124665   4.913   1.002   3.496  0.1693  0.4707 -1.0962
 1010TIP3    H224666   4.806   1.103   3.533 -0.3426 -0.7119  0.8413
 1011TIP3   OH224667   4.191   0.866   3.822 -0.1127  0.2419  0.3211
 1011TIP3    H124668   4.169   0.787   3.871  0.2530  0.0034  0.1078
 1011TIP3    H224669   4.139   0.935   3.863 -1.7089 -0.3980 -0.5603
 1012TIP3   OH224670   4.855   1.149   2.155  0.6533  0.3429 -0.1713
 1012TIP3    H124671   4.910   1.213   2.200  1.2611  0.9648 -1.7224
 1012TIP3    H224672   4.783   1.200   2.119  1.1521  0.1851 -1.4383
 1013TIP3   OH224673   3.402   3.996   2.968  0.3972  0.5828 -0.1207
 1013TIP3    H124674   3.447   3.917   2.940 -0.5458  0.1350 -0.4348
 1013TIP3    H224675   3.380   4.042   2.887  1.0902  1.2648  0.0663
 1014TIP3   OH224676   5.509   1.019   1.669  0.2951  0.3384  0.0753
 1014TIP3    H124677   5.553   0.960   1.609  2.7232  0.7318  1.3453
 1014TIP3    H224678   5.572   1.090   1.683  0.0583  0.0418  3.3669
 1015TIP3   OH224679   5.074   1.644   1.079  0.1361  0.4602  0.1700
 1015TIP3    H124680   5.169   1.640   1.085  0.3504 -2.0032 -2.4492
 1015TIP3    H224681   5.057   1.714   1.015  0.5552 -1.4324 -2.1804
 1016TIP3   OH224682   2.606   4.398   8.771  0.9818 -0.6096  0.1529
 1016TIP3    H124683   2.689   4.433   8.738  0.2011 -0.2355 -1.4892
 1016TIP3    H224684   2.539   4.434   8.712 -0.4320 -0.4193  1.7875
 1017TIP3   OH224685   6.336   0.250   4.252 -0.0856  0.4787  0.0285
 1017TIP3    H124686   6.346   0.267   4.346 -0.8401  0.9321  0.0355
 1017TIP3    H224687   6.416   0.202   4.228  0.2472  0.6031  0.8376
 1018TIP3   OH224688   5.665   1.964   8.104  0.1804 -0.4722 -0.7545
 1018TIP3    H124689   5.707   1.879   8.092 -0.2190 -0.5572 -1.5769
 1018TIP3    H224690   5.698   2.018   8.032  2.5663  0.9655  1.2426
 1019TIP3   OH224691   4.327   6.254   2.747  0.4425  0.1154 -1.2197
 1019TIP3    H124692   4.388   6.327   2.743 -0.5076  0.9294 -1.1851
 1019TIP3    H224693   4.380   6.180   2.778  1.0573  1.1764  0.4010
 1020TIP3   OH224694   4.013   3.105   1.325  0.5356  0.0107 -0.2933
 1020TIP3    H124695   4.093   3.053   1.325  0.0637 -0.7280 -0.6275
 1020TIP3    H224696   4.015   3.152   1.409  1.4096  0.1625 -0.3880
 1021TIP3   OH224697   3.245   4.230   3.081 -0.5586  0.3911  0.0292
 1021TIP3    H124698   3.335   4.224   3.048 -0.2966 -1.2539  0.9393
 1021TIP3    H224699   3.236   4.156   3.141 -2.4382  0.7018  0.1988
 1022TIP3   OH224700   5.339   6.794   3.415 -0.7747  0.1487  0.5217
 1022TIP3    H124701   5.429   6.811   3.441 -0.5334 -0.1807 -0.0717
 1022TIP3    H224702   5.338   6.702   3.389 -1.5801 -0.2051  1.7032
 1023TIP3   OH224703   3.987   2.923   2.451 -0.0244 -0.1737  0.5200
 1023TIP3    H124704   3.948   2.853   2.397 -2.3199 -0.7513  2.7045
 1023TIP3    H224705   3.925   2.995   2.444  0.3281  0.2160  1.3313
 1024TIP3   OH224706   6.443   2.615   0.781 -0.3579 -0.7141 -0.0350
 1024TIP3    H124707   6.409   2.603   0.693 -1.3552 -3.0858  0.6059
 1024TIP3    H224708   6.534   2.588   0.776 -0.0079  0.5008 -0.5981
 1025TIP3   OH224709   1.905   6.249   3.127  0.1106 -0.2818 -0.7003
 1025TIP3    H124710   1.888   6.340   3.103  0.8070 -0.1281 -0.6284
 1025TIP3    H224711   1.910   6.249   3.222  4.3668  0.4527 -0.7287
 1026TIP3   OH224712   6.404   5.012   4.371 -0.2467  0.5741 -0.4162
 1026TIP3    H124713   6.492   4.998   4.406 -0.3687  0.5168 -0.1239
 1026TIP3    H224714   6.366   5.078   4.430 -1.2026 -1.0565  0.8739
 1027TIP3   OH224715   1.053   4.226   8.257  0.6042  0.2169  0.3564
 1027TIP3    H124716   1.133   4.206   8.305  0.6307 -0.4204  0.0628
 1027TIP3    H224717   1.080   4.230   8.165  0.1982 -0.6306  0.1886
 1028TIP3   OH224718   3.573   5.830   1.663  0.2774  0.0770  0.2633
 1028TIP3    H124719   3.478   5.819   1.663  0.2192  0.5297 -0.3703
 1028TIP3    H224720   3.589   5.899   1.727  0.3452 -1.1478  1.6388
 1029TIP3   OH224721   1.245   1.397   3.213 -0.1144  0.0073  0.4921
 1029TIP3    H124722   1.170   1.445   3.248 -0.3126 -0.4117  0.6448
 1029TIP3    H224723   1.285   1.357   3.290  0.7274  0.8662  0.5184
 1030TIP3   OH224724   2.637   6.598   0.878  0.0794 -0.1618  0.5068
 1030TIP3    H124725   2.573   6.621   0.945  0.4943  2.8336 -0.0172
 1030TIP3    H224726   2.641   6.502   0.882 -2.1338 -0.2769  2.6337
 1031TIP3   OH224727   3.417   5.253   1.345  0.4345 -0.3931  0.3838
 1031TIP3    H124728   3.418   5.303   1.263 -1.6875 -0.7446  0.0889
 1031TIP3    H224729   3.334   5.205   1.343  0.0351  0.0441  3.0076
 1032TIP3   OH224730   2.853   1.183   1.942 -0.4578 -0.0653 -0.9511
 1032TIP3    H124731   2.932   1.166   1.994  0.5828  0.0427 -2.4253
 1032TIP3    H224732   2.849   1.110   1.880 -0.1459  1.1356 -2.4545
 1033TIP3   OH224733   1.228   4.248   0.763  0.0308 -0.4087  0.3231
 1033TIP3    H124734   1.321   4.237   0.783  0.3111 -1.1122 -1.2231
 1033TIP3    H224735   1.215   4.343   0.757  0.4094 -0.2692  1.5240
 1034TIP3   OH224736   5.319   6.339   8.435 -0.2134 -0.5550 -0.7518
 1034TIP3    H124737   5.366   6.297   8.363  2.1239  1.0796 -0.2728
 1034TIP3    H224738   5.351   6.296   8.514  1.6941  1.5054 -0.3113
 1035TIP3   OH224739   1.137   2.551   2.494  0.4333  0.2564  0.6424
 1035TIP3    H124740   1.127   2.540   2.400  1.8164 -0.2220  0.5226
 1035TIP3    H224741   1.055   2.591   2.523  0.6046  1.9197 -1.0067
 1036TIP3   OH224742   4.445   4.705   2.633  0.3196 -0.3653 -0.4424
 1036TIP3    H124743   4.535   4.737   2.632 -0.0150  0.5851 -0.3673
 1036TIP3    H224744   4.443   4.641   2.705  0.7990 -0.0154 -0.1127
 1037TIP3   OH224745   4.535   2.094   2.941  0.2300 -0.1422 -0.1267
 1037TIP3    H124746   4.600   2.044   2.892  1.4545  0.9614  0.3350
 1037TIP3    H224747   4.563   2.089   3.032 -0.2061  0.5220  0.0544
 1038TIP3   OH224748   0.797   2.914   2.961  0.1144 -0.0229  0.1861
 1038TIP3    H124749   0.846   2.871   3.031 -1.3260 -0.5813  0.8868
 1038TIP3    H224750   0.718   2.862   2.951  0.1832  0.1842 -1.7312
 1039TIP3   OH224751   3.939   5.593   1.256  0.3574 -0.4302  0.2577
 1039TIP3    H124752   3.847   5.611   1.239 -0.2346  1.2800  4.1865
 1039TIP3    H224753   3.985   5.669   1.221 -0.1952  0.4903  1.4699
 1040TIP3   OH224754   0.190   3.385   2.548 -0.4017  0.4018 -0.2638
 1040TIP3    H124755   0.210   3.419   2.461 -0.7765 -1.2122 -1.0287
 1040TIP3    H224756   0.129   3.313   2.532  0.6999 -0.9320  1.2017
 1041TIP3   OH224757   6.380   3.459   3.527 -0.2118  0.3252  1.1836
 1041TIP3    H124758   6.313   3.417   3.581  0.0912 -2.3769 -0.3785
 1041TIP3    H224759   6.461   3.412   3.549  0.5762  1.4522  0.7786
 1042TIP3   OH224760   2.739   0.399   0.520  0.5225  0.7076  0.2127
 1042TIP3    H124761   2.679   0.394   0.446 -0.7918 -0.2248  1.2804
 1042TIP3    H224762   2.752   0.308   0.546 -0.5673  1.0601  2.2406
 1043TIP3   OH224763   2.038   2.444   0.903 -0.4226 -0.7529 -0.8339
 1043TIP3    H124764   2.085   2.468   0.823 -1.5015 -1.2063 -1.6404
 1043TIP3    H224765   1.963   2.504   0.905  0.1534 -0.0525  0.4145
 1044TIP3   OH224766   0.735   2.100   0.909  0.2422  0.0707 -0.5666
 1044TIP3    H124767   0.777   2.030   0.858 -2.0753 -0.1328 -2.3768
 1044TIP3    H224768   0.665   2.055   0.957  0.9692  0.6399  1.0755
 1045TIP3   OH224769   4.158   6.701   4.048 -0.1598 -0.1206  0.5992
 1045TIP3    H124770   4.068   6.728   4.063 -0.4256 -0.5446 -0.1727
 1045TIP3    H224771   4.158   6.607   4.065 -0.5393 -0.6887 -2.0764
 1046TIP3   OH224772   2.211   1.844   2.661 -0.1139  0.1536  0.0935
 1046TIP3    H124773   2.190   1.797   2.580  1.4118 -0.7764  0.1888
 1046TIP3    H224774   2.239   1.931   2.632 -2.5505  0.9286 -0.1179
 1047TIP3   OH224775   5.768   0.857   8.601  0.0432  0.2290 -0.1757
 1047TIP3    H124776   5.825   0.891   8.531  0.1849  0.5040  0.0721
 1047TIP3    H224777   5.754   0.765   8.578  0.2556  0.2653 -0.4567
 1048TIP3   OH224778   2.169   2.027   3.828  0.0608  0.2983  0.0408
 1048TIP3    H124779   2.108   2.071   3.887  0.4664 -0.4132  1.0223
 1048TIP3    H224780   2.240   2.089   3.816 -0.7122  1.0346 -0.9133
 1049TIP3   OH224781   4.657   1.762   2.616  0.4153 -0.0677 -0.1149
 1049TIP3    H124782   4.704   1.814   2.682 -0.7167  2.6612 -1.3009
 1049TIP3    H224783   4.567   1.793   2.621  0.3078  0.3433 -2.9758
 1050TIP3   OH224784   6.755   4.669   1.959 -0.7877 -0.4355  0.0624
 1050TIP3    H124785   6.747   4.602   1.891 -0.4265 -1.1819  0.7338
 1050TIP3    H224786   6.755   4.619   2.041  0.0129  0.3591  0.5551
 1051TIP3   OH224787   6.326   1.858   1.026 -0.2657 -0.1701 -0.1126
 1051TIP3    H124788   6.268   1.935   1.031  1.8640  1.4478  1.8857
 1051TIP3    H224789   6.319   1.817   1.112  2.4676  0.8851  0.7120
 1052TIP3   OH224790   0.682   0.724   0.500 -0.0192  0.4338  0.5048
 1052TIP3    H124791   0.740   0.746   0.428  0.4592 -0.7159  0.5252
 1052TIP3    H224792   0.733   0.665   0.555 -1.7098 -1.9751 -0.3432
 1053TIP3   OH224793   1.769   6.695   3.356 -0.0581 -0.1564  0.0977
 1053TIP3    H124794   1.852   6.743   3.355  1.4982 -2.6298  0.9951
 1053TIP3    H224795   1.732   6.714   3.442 -0.3704  0.8401 -0.2477
 1054TIP3   OH224796   4.690   5.591   1.158  0.5040  0.0486 -0.0556
 1054TIP3    H124797   4.717   5.502   1.181  0.0527 -0.1599 -0.3245
 1054TIP3    H224798   4.673   5.633   1.242 -0.0567 -0.3676  0.0431
 1055TIP3   OH224799   0.611   5.183   8.618 -0.1146 -0.2031 -0.3706
 1055TIP3    H124800   0.601   5.210   8.526 -1.1389  0.1709 -0.1613
 1055TIP3    H224801   0.584   5.091   8.619 -1.1510  0.0901 -0.2657
 1056TIP3   OH224802   2.359   4.918   2.787  0.1192 -0.1295 -0.5412
 1056TIP3    H124803   2.333   4.833   2.751  0.4503 -0.6562  0.4150
 1056TIP3    H224804   2.291   4.939   2.850  0.1094  0.2576 -0.6785
 1057TIP3   OH224805   4.558   1.810   3.557  0.1362 -0.0668 -0.1650
 1057TIP3    H124806   4.635   1.864   3.546  0.0512  0.3393  1.1157
 1057TIP3    H224807   4.541   1.810   3.651 -0.5577 -1.3539 -0.2627
 1058TIP3   OH224808   5.476   5.625   0.347  0.1973  0.5087  0.2109
 1058TIP3    H124809   5.517   5.554   0.396 -0.0004  0.4908  0.3515
 1058TIP3    H224810   5.385   5.598   0.338  0.3315  0.2924 -0.5640
 1059TIP3   OH224811   4.726   5.259   0.164 -0.5461 -1.1631  0.0717
 1059TIP3    H124812   4.793   5.263   0.095 -1.2777 -0.5995 -0.6210
 1059TIP3    H224813   4.645   5.236   0.117 -1.2452  0.1352  0.5858
 1060TIP3   OH224814   2.247   4.537   2.995 -0.0895  0.3491 -0.3716
 1060TIP3    H124815   2.216   4.452   2.964  0.4267 -0.4695  1.2375
 1060TIP3    H224816   2.294   4.574   2.920  0.6304 -1.2738 -0.7660
 1061TIP3   OH224817   1.827   3.660   0.439  0.4363  0.7650  0.2332
 1061TIP3    H124818   1.769   3.603   0.388  1.3828  0.3112 -0.3511
 1061TIP3    H224819   1.858   3.604   0.510  0.2755  0.9689  0.4654
 1062TIP3   OH224820   6.210   5.591   0.569  0.1850  0.1390  0.7578
 1062TIP3    H124821   6.301   5.619   0.563  0.8029 -1.8960 -0.5777
 1062TIP3    H224822   6.173   5.608   0.483 -0.5900  0.5372  1.1542
 1063TIP3   OH224823   2.745   4.360   3.939  0.1765  0.3567  0.4602
 1063TIP3    H124824   2.797   4.400   4.008 -0.5795 -0.8521  1.7834
 1063TIP3    H224825   2.687   4.429   3.908  0.0314  0.7310  1.5444
 1064TIP3   OH224826   6.063   1.331   0.748  0.1908  0.0903  0.3764
 1064TIP3    H124827   6.069   1.315   0.654 -1.6829 -0.5130  0.3143
 1064TIP3    H224828   5.971   1.354   0.763  0.8506  2.1690  1.8000
 1065TIP3   OH224829   0.740   4.553   4.132  0.4060  0.0294  0.2325
 1065TIP3    H124830   0.750   4.517   4.221  0.9104 -0.9437 -0.1968
 1065TIP3    H224831   0.826   4.591   4.112 -0.4092  2.4981  1.0724
 1066TIP3   OH224832   4.144   1.918   3.780  0.1030 -1.0552 -0.5509
 1066TIP3    H124833   4.216   1.977   3.758  0.5920 -1.7821 -0.9340
 1066TIP3    H224834   4.187   1.841   3.818 -0.5885 -0.7074  1.0073
 1067TIP3   OH224835   5.887   5.438   1.353  0.5503  0.0453 -0.5191
 1067TIP3    H124836   5.827   5.440   1.428  0.7462 -4.0051 -0.0352
 1067TIP3    H224837   5.839   5.481   1.282 -1.6778 -0.3607  0.6585
 1068TIP3   OH224838   1.486   6.260   0.541  0.6003 -0.1707  0.1670
 1068TIP3    H124839   1.562   6.206   0.562 -0.1243 -1.6938 -0.9030
 1068TIP3    H224840   1.494   6.277   0.447 -1.5356 -2.4302 -0.5441
 1069TIP3   OH224841   0.409   6.310   3.899 -0.2420  0.3394  0.0308
 1069TIP3    H124842   0.339   6.358   3.942 -0.9660 -0.9720  0.3419
 1069TIP3    H224843   0.419   6.230   3.950  0.1129 -0.4113 -1.1820
 1070TIP3   OH224844   2.755   0.635   0.942  0.6365  0.8186 -0.3214
 1070TIP3    H124845   2.662   0.641   0.919  0.2942  0.0557  0.7710
 1070TIP3    H224846   2.801   0.678   0.870 -0.4250 -0.7607 -2.0234
 1071TIP3   OH224847   1.319   1.722   2.138  0.1398 -0.2294  0.6390
 1071TIP3    H124848   1.234   1.733   2.181  0.5962 -0.5444  1.6436
 1071TIP3    H224849   1.299   1.724   2.045 -0.8749  0.4845  0.8554
 1072TIP3   OH224850   2.611   3.137   1.589 -0.5840 -0.8564 -0.8668
 1072TIP3    H124851   2.681   3.175   1.642 -1.9923  0.7234 -0.0556
 1072TIP3    H224852   2.643   3.049   1.567  1.1557 -0.5930  0.4053
 1073TIP3   OH224853   3.137   2.045   2.450 -0.7307 -0.1854  0.1111
 1073TIP3    H124854   3.177   2.129   2.472 -1.0438  0.0023 -0.0156
 1073TIP3    H224855   3.179   1.982   2.507 -2.4323  0.4727  2.2295
 1074TIP3   OH224856   4.774   1.309   0.872 -0.1753  0.8187  0.0663
 1074TIP3    H124857   4.715   1.357   0.814 -1.4664 -0.2244  0.4796
 1074TIP3    H224858   4.800   1.373   0.939  0.4446  1.7180 -0.9925
 1075TIP3   OH224859   0.208   6.323   2.148 -0.1909 -0.2756  0.1615
 1075TIP3    H124860   0.172   6.409   2.124  0.3389  0.2105  1.0387
 1075TIP3    H224861   0.296   6.323   2.110  0.2950  0.1142  1.2247
 1076TIP3   OH224862   5.460   5.842   0.124  0.1205  0.2585 -0.4980
 1076TIP3    H124863   5.413   5.763   0.095 -0.3217 -0.2204  1.3441
 1076TIP3    H224864   5.442   5.907   0.056 -2.4529 -0.1941 -0.3708
 1077TIP3   OH224865   5.989   6.473   8.765 -0.2399 -0.1187  0.1028
 1077TIP3    H124866   6.009   6.379   8.770 -0.8928 -0.2892 -0.3750
 1077TIP3    H224867   5.896   6.479   8.786 -0.0875  0.4868  0.6453
 1078TIP3   OH224868   0.279   6.566   1.002 -0.3869  0.2021  0.3385
 1078TIP3    H124869   0.285   6.625   0.927  1.4284  0.8114  0.9175
 1078TIP3    H224870   0.267   6.480   0.963 -0.8034  0.6588 -0.5934
 1079TIP3   OH224871   6.011   4.195   3.044 -0.2752 -0.0469  0.7330
 1079TIP3    H124872   5.935   4.160   2.996 -1.2457  1.8106  0.8327
 1079TIP3    H224873   6.082   4.134   3.023 -1.5170 -1.2316 -0.2586
 1080TIP3   OH224874   5.773   0.531   1.501 -0.1831 -0.0443 -0.2738
 1080TIP3    H124875   5.747   0.531   1.593 -0.2717  0.0359 -0.2986
 1080TIP3    H224876   5.691   0.538   1.452 -0.0818  0.8407 -0.3355
 1081TIP3   OH224877   0.872   5.684   8.554  1.2247 -0.2928 -0.2337
 1081TIP3    H124878   0.811   5.636   8.610  0.9400  0.7073  0.3395
 1081TIP3    H224879   0.951   5.631   8.553  0.5226 -1.3540 -0.5789
 1082TIP3   OH224880   6.526   2.864   2.404  0.5961 -0.1114  0.1761
 1082TIP3    H124881   6.578   2.940   2.431  2.0840 -0.5437 -1.2620
 1082TIP3    H224882   6.591   2.802   2.371 -0.8507 -0.2261 -2.7865
 1083TIP3   OH224883   6.485   5.663   0.555 -0.8586  0.3736 -0.2629
 1083TIP3    H124884   6.580   5.654   0.550 -0.6146  1.7390  1.0387
 1083TIP3    H224885   6.465   5.735   0.494 -1.2882 -0.9224 -1.7129
 1084TIP3   OH224886   0.484   2.756   3.692  0.0622  0.1432 -0.4227
 1084TIP3    H124887   0.484   2.739   3.786  1.2444  1.5304 -0.1250
 1084TIP3    H224888   0.565   2.806   3.677 -0.1984  0.1120 -2.1443
 1085TIP3   OH224889   5.322   2.573   2.539 -0.6635 -0.6027  0.3448
 1085TIP3    H124890   5.244   2.534   2.499 -0.8945 -0.3754  0.5712
 1085TIP3    H224891   5.288   2.626   2.611 -0.2762 -0.7452  0.6378
 1086TIP3   OH224892   4.975   5.292   0.313 -0.5863 -0.1665 -0.2526
 1086TIP3    H124893   4.977   5.267   0.220 -1.3239 -2.1723  0.2212
 1086TIP3    H224894   4.885   5.320   0.328 -0.7981 -0.9851  0.0941
 1087TIP3   OH224895   6.605   1.427   1.054 -0.8554 -0.8337 -0.6444
 1087TIP3    H124896   6.690   1.471   1.049 -0.9632 -0.4639  0.5635
 1087TIP3    H224897   6.626   1.334   1.054 -0.5362 -0.7761 -1.6534
 1088TIP3   OH224898   2.749   2.610   3.494  0.0658  0.1287  0.3147
 1088TIP3    H124899   2.805   2.673   3.540  0.0723  0.0070  0.4738
 1088TIP3    H224900   2.747   2.533   3.551  0.5145 -0.2284 -0.1403
 1089TIP3   OH224901   5.254   4.939   0.401 -0.2954  0.1200 -0.0848
 1089TIP3    H124902   5.229   4.936   0.493 -3.2804  0.2678 -0.7795
 1089TIP3    H224903   5.314   5.013   0.394 -1.3108  1.1526  1.4849
 1090TIP3   OH224904   5.403   3.200   3.191  0.1035 -0.0992 -0.3020
 1090TIP3    H124905   5.321   3.214   3.238 -0.0642  1.3385 -0.9855
 1090TIP3    H224906   5.414   3.105   3.190 -0.6038 -0.2271  1.3932
 1091TIP3   OH224907   5.496   4.546   1.454  0.1110  0.3766 -0.3112
 1091TIP3    H124908   5.425   4.589   1.404  0.1403 -0.4747 -1.1209
 1091TIP3    H224909   5.527   4.613   1.514 -1.6969  0.6410  0.3897
 1092TIP3   OH224910   0.192   2.326   2.580 -0.6887 -0.4069  0.5673
 1092TIP3    H124911   0.261   2.277   2.535 -1.2628  0.3301 -1.2126
 1092TIP3    H224912   0.115   2.270   2.575 -0.7821 -0.2758  0.5220
 1093TIP3   OH224913   3.620   2.513   3.603 -0.3837  0.2682  0.2748
 1093TIP3    H124914   3.675   2.479   3.674 -0.4585 -0.3750  0.0270
 1093TIP3    H224915   3.589   2.598   3.636  2.0867  1.4605 -0.2431
 1094TIP3   OH224916   1.026   5.482   8.284 -0.3958  0.4112  0.2021
 1094TIP3    H124917   1.022   5.399   8.237  0.3286  1.2399 -1.4225
 1094TIP3    H224918   1.015   5.459   8.376 -0.2692 -1.4592 -0.2204
 1095TIP3   OH224919   2.936   4.845   2.945  0.0956  0.3235 -0.2863
 1095TIP3    H124920   2.842   4.861   2.941 -0.1500 -0.2580  2.1664
 1095TIP3    H224921   2.960   4.861   3.036  2.5786  1.4013 -1.0193
 1096TIP3   OH224922   0.196   1.338   2.567 -0.0231  0.8982 -0.3141
 1096TIP3    H124923   0.157   1.263   2.522  0.3127  0.6893 -0.2549
 1096TIP3    H224924   0.268   1.301   2.618 -1.2601  0.8872  1.5471
 1097TIP3   OH224925   2.868   0.689   3.944  0.0020  0.1394 -0.1717
 1097TIP3    H124926   2.871   0.721   4.035  2.4323  0.1700 -0.2033
 1097TIP3    H224927   2.922   0.611   3.944 -0.7130 -0.3875 -1.4371
 1098TIP3   OH224928   3.834   2.421   3.737  0.3092  0.6155 -0.1153
 1098TIP3    H124929   3.821   2.340   3.688  1.2193  0.4098 -0.0394
 1098TIP3    H224930   3.920   2.411   3.778  0.2637  1.4550  0.2191
 1099TIP3   OH224931   4.532   0.953   3.112  0.0033 -0.2565 -0.1092
 1099TIP3    H124932   4.445   0.925   3.142  0.9072 -2.2216  0.9257
 1099TIP3    H224933   4.520   0.979   3.021 -1.2741 -2.9212 -0.8077
 1100TIP3   OH224934   0.183   2.383   1.377 -0.1361  0.2715 -0.8814
 1100TIP3    H124935   0.234   2.420   1.449  1.2409 -1.7239 -0.7432
 1100TIP3    H224936   0.104   2.437   1.373  0.0799  0.8844  1.6422
 1101TIP3   OH224937   5.392   2.335   3.664 -0.2472 -0.0440  0.0617
 1101TIP3    H124938   5.431   2.334   3.752  1.1067 -0.6782 -0.5329
 1101TIP3    H224939   5.311   2.385   3.676  0.6285  1.1584  1.3713
 1102TIP3   OH224940   0.645   1.848   3.059 -0.1729  0.0643 -0.6952
 1102TIP3    H124941   0.696   1.929   3.064 -0.8722  0.4802 -0.2831
 1102TIP3    H224942   0.648   1.811   3.147 -0.9822  0.3359 -0.5500
 1103TIP3   OH224943   2.757   2.015   3.870 -0.3337  0.0273  0.1229
 1103TIP3    H124944   2.736   2.028   3.963 -0.6386 -0.4107  0.1237
 1103TIP3    H224945   2.687   1.957   3.838 -0.0082 -0.1512 -0.2794
 1104TIP3   OH224946   6.559   6.232   2.067  0.3260 -0.6069 -0.2126
 1104TIP3    H124947   6.572   6.312   2.118 -0.6738 -2.0977  2.5677
 1104TIP3    H224948   6.648   6.203   2.046  0.7256  1.8060 -2.4541
 1105TIP3   OH224949   3.145   4.538   1.216  0.3715  0.6416 -0.1115
 1105TIP3    H124950   3.179   4.610   1.163 -0.6842  0.4505 -1.1042
 1105TIP3    H224951   3.073   4.502   1.163 -0.4603  0.1837  1.2829
 1106TIP3   OH224952   6.529   3.055   0.204 -0.6080 -0.2549 -0.0480
 1106TIP3    H124953   6.532   3.060   0.109 -0.4596 -1.5503 -0.1318
 1106TIP3    H224954   6.436   3.045   0.225 -0.9729  2.8165  0.1562
 1107TIP3   OH224955   3.833   3.642   1.595  0.1277  0.0399 -0.0153
 1107TIP3    H124956   3.803   3.572   1.653  0.4651 -0.1193 -0.0316
 1107TIP3    H224957   3.775   3.716   1.615 -1.5109 -0.8160 -1.3591
 1108TIP3   OH224958   1.807   5.833   2.977 -0.1142  0.3707 -0.0421
 1108TIP3    H124959   1.714   5.818   2.995  0.1329 -1.0755  0.1383
 1108TIP3    H224960   1.853   5.780   3.042  0.8648  1.6710  0.3807
 1109TIP3   OH224961   5.164   3.605   2.164  0.1195 -0.1145  0.1644
 1109TIP3    H124962   5.195   3.527   2.118 -1.0555 -0.5510  0.0837
 1109TIP3    H224963   5.199   3.678   2.113  0.4043 -0.5860 -0.3318
 1110TIP3   OH224964   0.819   5.287   3.938 -0.1346  0.1080 -0.2535
 1110TIP3    H124965   0.878   5.267   4.011 -0.9126 -0.3444  0.2609
 1110TIP3    H224966   0.751   5.342   3.976 -1.0055 -0.8166 -0.4335
 1111TIP3   OH224967   3.169   3.224   2.608  0.2580  0.1488 -0.1751
 1111TIP3    H124968   3.128   3.206   2.693  0.6092  1.0514  0.2025
 1111TIP3    H224969   3.096   3.242   2.549  0.0607  0.6910  0.2305
 1112TIP3   OH224970   5.428   2.880   1.329  0.0152  0.4168 -0.5012
 1112TIP3    H124971   5.449   2.947   1.394  0.6364 -0.2071 -0.0432
 1112TIP3    H224972   5.429   2.798   1.378 -0.7132  0.0630 -1.0609
 1113TIP3   OH224973   1.050   4.676   0.662  0.5477 -0.0451  0.0480
 1113TIP3    H124974   1.075   4.713   0.747  0.1387 -0.1791  0.2288
 1113TIP3    H224975   0.960   4.646   0.674  0.1804  0.7206 -0.6938
 1114TIP3   OH224976   6.311   0.461   1.134  0.0431  0.3709 -0.2977
 1114TIP3    H124977   6.250   0.533   1.114 -1.6710 -1.0406 -0.4712
 1114TIP3    H224978   6.283   0.391   1.075  2.5571 -0.0127 -1.1121
 1115TIP3   OH224979   2.470   3.495   1.627  1.1721 -0.3365 -0.0309
 1115TIP3    H124980   2.499   3.423   1.683 -0.3147  0.5635  2.0830
 1115TIP3    H224981   2.494   3.574   1.676 -1.3103  0.4780  0.0330
 1116TIP3   OH224982   3.208   0.521   3.517 -0.0209  0.3313 -0.9070
 1116TIP3    H124983   3.156   0.458   3.566  2.0755 -1.2737 -0.6125
 1116TIP3    H224984   3.271   0.555   3.580  0.9886  0.2342 -1.8285
 1117TIP3   OH224985   6.371   3.391   2.785  0.1328 -0.2172  0.1521
 1117TIP3    H124986   6.347   3.388   2.878 -3.1684  0.6055 -0.5407
 1117TIP3    H224987   6.351   3.304   2.752  1.9740 -0.7248  0.3107
 1118TIP3   OH224988   0.432   2.775   1.127  0.1441  0.2253 -0.0648
 1118TIP3    H124989   0.435   2.714   1.053  0.4827 -0.9041  0.8310
 1118TIP3    H224990   0.367   2.840   1.102  0.8888  0.3864 -1.7159
 1119TIP3   OH224991   6.474   3.518   1.028  0.1799  0.1262  0.3688
 1119TIP3    H124992   6.518   3.597   0.998  0.4360 -0.0204  0.3579
 1119TIP3    H224993   6.452   3.536   1.120 -1.0676  0.7776 -0.0413
 1120TIP3   OH224994   3.510   6.738   2.126  0.1191 -0.3465  0.4581
 1120TIP3    H124995   3.427   6.744   2.078 -0.0430 -0.0903  0.7747
 1120TIP3    H224996   3.490   6.685   2.203 -0.1460  1.0930  1.4007
 1121TIP3   OH224997   0.346   3.018   1.548 -0.1640  0.5601  0.0449
 1121TIP3    H124998   0.355   3.113   1.536  3.0106  0.3924  0.4117
 1121TIP3    H224999   0.424   2.980   1.507 -0.9776 -1.8576  0.5612
 1122TIP3   OH225000   0.233   5.230   8.004  0.0696  0.0754 -0.1098
 1122TIP3    H125001   0.262   5.139   7.994  2.0793  0.6300  0.2382
 1122TIP3    H225002   0.295   5.268   8.066  1.6693  2.7084 -3.0516
 1123TIP3   OH225003   4.309   2.117   1.268  0.6308  0.6673 -0.2594
 1123TIP3    H125004   4.314   2.175   1.344  0.8719 -0.7309  0.8372
 1123TIP3    H225005   4.215   2.100   1.257  0.6094  0.6975 -0.1292
 1124TIP3   OH225006   6.813   4.123   2.588 -0.7738 -0.3286 -0.0045
 1124TIP3    H125007   6.883   4.186   2.602  0.3188 -1.5753  0.2900
 1124TIP3    H225008   6.826   4.091   2.499 -0.5237 -1.0918  0.3000
 1125TIP3   OH225009   4.938   5.430   0.040 -0.1110  0.1416  0.3808
 1125TIP3    H125010   5.026   5.464   0.056  0.0985 -0.8472  1.4460
 1125TIP3    H225011   4.921   5.450  -0.052  0.3807  2.2067  0.7051
 1126TIP3   OH225012   2.264   6.370   8.567 -0.2449  0.3090 -0.1392
 1126TIP3    H125013   2.218   6.403   8.644 -0.3117 -0.5950  0.2245
 1126TIP3    H225014   2.195   6.340   8.508 -0.2218  1.5733 -0.8430
 1127TIP3   OH225015   1.974   1.071   1.272  0.7897  0.3808  0.2103
 1127TIP3    H125016   1.884   1.095   1.293  0.6160  2.3232 -2.2011
 1127TIP3    H225017   1.969   0.980   1.243 -0.0965 -0.0080  1.5061
 1128TIP3   OH225018   2.297   5.537   1.705  0.4472  0.2137 -0.0884
 1128TIP3    H125019   2.274   5.623   1.739  0.1526  0.5033 -0.9784
 1128TIP3    H225020   2.217   5.485   1.715  0.2788  0.3767 -0.5710
 1129TIP3   OH225021   2.322   1.479   3.995  0.2580  0.1497  0.5368
 1129TIP3    H125022   2.348   1.389   4.016 -0.1773 -0.4832 -1.4028
 1129TIP3    H225023   2.259   1.469   3.924  0.8480  2.0290 -0.3103
 1130TIP3   OH225024   6.639   3.855   8.313 -0.0105 -0.0305 -0.4686
 1130TIP3    H125025   6.594   3.929   8.354  0.0421  0.8795 -1.9659
 1130TIP3    H225026   6.667   3.889   8.228  0.2713 -1.7023 -1.0759
 1131TIP3   OH225027   0.642   1.041   1.352 -0.5689 -0.2729  0.5889
 1131TIP3    H125028   0.678   0.967   1.303  0.0956 -0.1163  0.8159
 1131TIP3    H225029   0.551   1.017   1.370 -0.5858 -0.6795 -0.0207
 1132TIP3   OH225030   2.579   6.773   0.472 -0.4132 -0.3001 -0.3418
 1132TIP3    H125031   2.512   6.826   0.429  0.5195 -0.0647 -1.5145
 1132TIP3    H225032   2.645   6.757   0.405  0.4661 -0.9757  0.6543
 1133TIP3   OH225033   2.624   4.802   2.931 -0.1596 -0.1383 -0.2658
 1133TIP3    H125034   2.608   4.874   2.870 -0.4868 -0.5848 -0.7096
 1133TIP3    H225035   2.628   4.724   2.876 -2.6692 -0.8677  0.4775
 1134TIP3   OH225036   6.061   2.729   2.622 -0.6862  0.2682 -0.2680
 1134TIP3    H125037   6.003   2.657   2.644 -0.7978  0.4563  0.0589
 1134TIP3    H225038   6.123   2.692   2.559  0.5358 -0.6808  1.4115
 1135TIP3   OH225039   3.676   4.571   2.441  0.3903  0.2028  0.5395
 1135TIP3    H125040   3.610   4.639   2.427 -0.7168 -1.1215 -1.1482
 1135TIP3    H225041   3.738   4.582   2.369 -0.5427 -1.3320 -0.5613
 1136TIP3   OH225042   0.169   0.671   8.648 -0.7721 -0.3138 -0.2046
 1136TIP3    H125043   0.185   0.655   8.741 -0.1245  0.4787 -0.1748
 1136TIP3    H225044   0.255   0.686   8.611 -1.1558  0.8885 -0.6421
 1137TIP3   OH225045   0.277   2.928   8.009 -0.6763 -0.0344  0.1415
 1137TIP3    H125046   0.370   2.925   8.032 -1.0228  0.2635  1.7363
 1137TIP3    H225047   0.254   3.021   8.015 -0.6024  0.2101 -2.4664
 1138TIP3   OH225048   6.373   6.227   0.540  0.2638 -0.4158  0.2271
 1138TIP3    H125049   6.286   6.186   0.547 -1.0140  2.0782 -0.0141
 1138TIP3    H225050   6.387   6.267   0.626  0.7086  0.1018 -0.0843
 1139TIP3   OH225051   5.351   1.205   0.961 -0.1747  0.5698  0.3429
 1139TIP3    H125052   5.407   1.142   0.915 -0.1314  1.3510 -0.6996
 1139TIP3    H225053   5.339   1.166   1.048  1.1832 -0.0828  0.2720
 1140TIP3   OH225054   1.567   3.101   1.728 -0.4032 -0.5210  0.3114
 1140TIP3    H125055   1.582   3.015   1.767 -0.2630 -0.4383  0.4386
 1140TIP3    H225056   1.567   3.084   1.633  1.7348 -0.3366  0.2404
 1141TIP3   OH225057   5.692   1.435   1.038 -0.2639 -0.2001 -0.0254
 1141TIP3    H125058   5.664   1.472   1.122 -1.5075 -0.3903 -0.3384
 1141TIP3    H225059   5.614   1.440   0.982  1.1758  2.2509 -2.0127
 1142TIP3   OH225060   3.284   4.144   2.745  0.5192  0.0739 -0.3083
 1142TIP3    H125061   3.235   4.186   2.674  0.4974 -0.0997 -0.3962
 1142TIP3    H225062   3.221   4.087   2.788  0.0555  1.4999  0.9722
 1143TIP3   OH225063   5.924   5.690   3.472  0.3105 -0.5023  0.0734
 1143TIP3    H125064   6.012   5.656   3.457 -0.1204 -1.2967 -0.7318
 1143TIP3    H225065   5.867   5.631   3.423 -0.5500  0.8873 -0.6597
 1144TIP3   OH225066   6.303   0.137   3.713 -0.7342  0.0025  0.2636
 1144TIP3    H125067   6.381   0.169   3.668  1.5338 -3.2274  1.4986
 1144TIP3    H225068   6.320   0.155   3.805 -0.8284 -1.7858  0.6569
 1145TIP3   OH225069   4.957   5.122   0.039  0.1418  0.6723  0.9948
 1145TIP3    H125070   5.036   5.167   0.008 -0.2196  0.3182 -0.5178
 1145TIP3    H225071   4.990   5.051   0.096  0.8087  1.5072  1.6742
 1146TIP3   OH225072   1.842   0.744   4.131  0.0198  0.0363  0.1272
 1146TIP3    H125073   1.763   0.791   4.157  0.2288  0.5786 -0.2003
 1146TIP3    H225074   1.817   0.652   4.134 -0.1639  0.1044  1.5731
 1147TIP3   OH225075   3.071   4.646   1.846  0.7675 -0.0821  0.0436
 1147TIP3    H125076   3.064   4.569   1.789 -0.6462 -0.2159  0.3705
 1147TIP3    H225077   3.122   4.615   1.921  1.1944 -0.3704 -0.3550
 1148TIP3   OH225078   0.823   1.044   1.673 -0.3743 -0.2244 -0.0796
 1148TIP3    H125079   0.861   0.983   1.609 -0.8117 -0.8005  0.1973
 1148TIP3    H225080   0.757   0.992   1.718  1.3003 -0.4837  2.2664
 1149TIP3   OH225081   5.506   5.662   3.352  0.2309 -0.4003  0.2514
 1149TIP3    H125082   5.525   5.700   3.438  0.4168 -0.2732  0.1557
 1149TIP3    H225083   5.586   5.613   3.330  1.1184  1.4264 -0.8695
 1150TIP3   OH225084   3.247   0.429   3.086  0.0700  0.1888  0.5706
 1150TIP3    H125085   3.314   0.458   3.024 -0.6010  1.5771  0.4628
 1150TIP3    H225086   3.243   0.334   3.073  2.1452  0.0274  0.7439
 1151TIP3   OH225087   5.043   6.405   3.232  0.0522  0.3722 -0.0746
 1151TIP3    H125088   5.045   6.498   3.209 -2.1985  0.1032 -1.6642
 1151TIP3    H225089   5.098   6.363   3.166  0.4661  0.4725  0.1994
 1152TIP3   OH225090   0.631   1.794   1.469  0.0354 -0.4491 -0.3639
 1152TIP3    H125091   0.618   1.758   1.557  0.3758  0.3406  0.0224
 1152TIP3    H225092   0.625   1.889   1.481  2.5213 -0.1724 -0.7382
 1153TIP3   OH225093   1.403   1.729   0.847  0.2539 -0.0856  0.2028
 1153TIP3    H125094   1.424   1.795   0.913 -0.3030  1.3244 -0.9739
 1153TIP3    H225095   1.307   1.728   0.843  0.2730 -0.5093 -0.2285
 1154TIP3   OH225096   2.475   0.662   0.851  0.2572  0.4546  0.2741
 1154TIP3    H125097   2.498   0.628   0.764  2.1508  1.3886  0.3513
 1154TIP3    H225098   2.438   0.749   0.834 -0.2843  0.2420  0.3520
 1155TIP3   OH225099   1.562   4.005   1.085  0.0387 -0.0125 -0.1456
 1155TIP3    H125100   1.575   3.919   1.125  0.6267 -0.8286 -1.9771
 1155TIP3    H225101   1.616   4.065   1.138  1.2905 -1.1543 -0.0731
 1156TIP3   OH225102   1.793   6.483   1.225 -0.3862  0.5554  0.0336
 1156TIP3    H125103   1.740   6.553   1.186  0.6030  0.1619 -2.1357
 1156TIP3    H225104   1.737   6.447   1.294 -1.5488  2.4006  0.1290
 1157TIP3   OH225105   2.949   5.548   2.033  0.1571  0.0270  0.1713
 1157TIP3    H125106   3.034   5.566   1.992  0.0833 -1.6886 -0.8325
 1157TIP3    H225107   2.970   5.529   2.124  1.1332 -1.9774 -0.3946
 1158TIP3   OH225108   3.157   3.600   2.403  0.4600 -0.4117  0.8854
 1158TIP3    H125109   3.068   3.610   2.369 -0.0239 -0.3881  2.1169
 1158TIP3    H225110   3.171   3.678   2.457  2.4398  1.2455 -1.7661
 1159TIP3   OH225111   0.985   0.028   1.455 -0.5772  0.2027 -0.9229
 1159TIP3    H125112   0.985  -0.056   1.408 -0.6984  0.4170 -1.3079
 1159TIP3    H225113   1.057   0.077   1.416  1.9611 -1.0734  1.7686
 1160TIP3   OH225114   0.697   4.815   8.701  0.7204 -0.8314 -0.0519
 1160TIP3    H125115   0.641   4.844   8.773  1.7667  1.6314 -0.1542
 1160TIP3    H225116   0.781   4.859   8.716  0.9294 -0.1366 -2.8416
 1161TIP3   OH225117   2.758   6.060   0.748  0.1590  0.1270  0.4885
 1161TIP3    H125118   2.723   6.085   0.833  2.3956  1.9176  1.0041
 1161TIP3    H225119   2.714   6.118   0.685 -0.3722 -0.1287  0.6202
 1162TIP3   OH225120   0.308   3.374   2.783 -0.7497 -0.0335 -0.1219
 1162TIP3    H125121   0.397   3.410   2.782 -0.2768 -1.1670 -0.3870
 1162TIP3    H225122   0.283   3.371   2.690 -1.3112  0.8528 -0.0068
 1163TIP3   OH225123   6.413   0.611   0.635  0.6149 -0.0998  0.2388
 1163TIP3    H125124   6.497   0.573   0.607 -0.1076 -0.1056 -2.0927
 1163TIP3    H225125   6.349   0.576   0.573 -0.4598  3.1430 -0.6767
 1164TIP3   OH225126   3.741   3.624   2.176  0.4002  0.0284  0.1491
 1164TIP3    H125127   3.703   3.537   2.190 -0.4105  0.4606  0.7394
 1164TIP3    H225128   3.680   3.667   2.116  0.5139  0.3677  0.2766
 1165TIP3   OH225129   6.671   2.885   8.492 -0.4829 -0.3703 -0.6360
 1165TIP3    H125130   6.676   2.936   8.411  1.4938  1.3101  0.4526
 1165TIP3    H225131   6.685   2.949   8.562  3.3958 -2.4033  0.7906
 1166TIP3   OH225132   1.661   0.172   3.752 -0.4118 -0.2678  0.7700
 1166TIP3    H125133   1.718   0.214   3.816 -0.0573  0.2024  0.1632
 1166TIP3    H225134   1.590   0.234   3.738  1.1241  1.1181 -1.5930
 1167TIP3   OH225135   6.009   2.649   1.460  0.6230 -0.1456 -0.4908
 1167TIP3    H125136   6.091   2.635   1.509  0.2372  0.1545  0.2519
 1167TIP3    H225137   5.976   2.733   1.491  1.1928  0.8727 -2.4760
 1168TIP3   OH225138   4.662   0.432   1.921  0.0832 -0.2012 -0.3905
 1168TIP3    H125139   4.721   0.486   1.869  2.6941 -0.4926  1.9889
 1168TIP3    H225140   4.719   0.367   1.963 -2.4910 -2.8803 -0.7053
 1169TIP3   OH225141   6.534   2.115   3.206  0.2677 -0.2792  0.4713
 1169TIP3    H125142   6.480   2.178   3.254 -0.9627 -0.8537 -0.0940
 1169TIP3    H225143   6.572   2.060   3.273 -1.2919 -0.9649  0.8483
 1170TIP3   OH225144   0.242   5.869   2.865 -0.2608 -0.2778  0.2147
 1170TIP3    H125145   0.189   5.933   2.818  1.7085  0.4787 -1.1000
 1170TIP3    H225146   0.204   5.866   2.953 -1.3962  1.4552 -0.1716
 1171TIP3   OH225147   2.803   1.298   2.523 -0.6368  0.2088  0.1760
 1171TIP3    H125148   2.779   1.348   2.601 -1.7755  1.4790 -0.9347
 1171TIP3    H225149   2.847   1.361   2.466 -0.2452 -0.5747 -0.4166
 1172TIP3   OH225150   2.974   5.916   0.861  0.0387  0.0277 -0.6514
 1172TIP3    H125151   2.925   5.881   0.935  1.4822  1.2382  0.9798
 1172TIP3    H225152   2.913   5.977   0.819 -0.0830  1.0965  0.9945
 1173TIP3   OH225153   1.678   3.136   0.570  0.4336  0.2050  0.4735
 1173TIP3    H125154   1.698   3.085   0.648  2.0622 -1.2029 -0.7992
 1173TIP3    H225155   1.619   3.080   0.519  0.5326  0.5040  0.0236
 1174TIP3   OH225156   5.176   1.929   1.704  1.0838  0.1467 -0.0260
 1174TIP3    H125157   5.202   2.004   1.650  0.1383 -0.1338 -0.9065
 1174TIP3    H225158   5.238   1.860   1.679  2.2889  0.7468  1.1672
 1175TIP3   OH225159   0.141   0.631   3.212  0.0394  0.4878  0.0586
 1175TIP3    H125160   0.148   0.630   3.307 -1.0775  0.5889  0.1549
 1175TIP3    H225161   0.169   0.719   3.187 -1.1647  0.9916  0.4369
 1176TIP3   OH225162   3.096   0.826   2.670  0.1359 -0.0328  0.6708
 1176TIP3    H125163   3.052   0.909   2.649  0.8451  0.1444 -0.1509
 1176TIP3    H225164   3.048   0.792   2.746 -1.4698  0.1184 -0.2366
 1177TIP3   OH225165   6.702   3.154   1.615 -0.0156 -0.2140 -0.2313
 1177TIP3    H125166   6.690   3.142   1.521 -0.5651 -1.0150 -0.0751
 1177TIP3    H225167   6.790   3.121   1.633  0.2096  0.2293 -0.5050
 1178TIP3   OH225168   2.631   3.969   3.991 -0.1697  0.0832 -0.0029
 1178TIP3    H125169   2.582   4.014   3.921  0.4926  2.1836  0.8165
 1178TIP3    H225170   2.599   3.879   3.987  0.4888 -0.1576 -3.6036
 1179TIP3   OH225171   5.672   2.294   0.909  0.2304 -0.3383 -0.1977
 1179TIP3    H125172   5.703   2.383   0.926  0.1054  0.1725 -2.3031
 1179TIP3    H225173   5.744   2.238   0.935  0.7487  0.4690  0.1393
 1180TIP3   OH225174   2.459   2.355   0.780 -0.3584  0.1159 -0.0535
 1180TIP3    H125175   2.375   2.396   0.762 -0.4013 -0.3154 -0.8655
 1180TIP3    H225176   2.485   2.315   0.697  0.5237  0.0211  0.2571
 1181TIP3   OH225177   5.653   3.984   2.210 -0.6571 -0.0490 -0.1134
 1181TIP3    H125178   5.684   3.902   2.172 -1.4122 -0.0906 -0.6758
 1181TIP3    H225179   5.640   4.041   2.135  0.5726  0.8501  0.3363
 1182TIP3   OH225180   5.690   6.364   0.717 -0.5310  0.3318 -0.2610
 1182TIP3    H125181   5.718   6.321   0.798  0.0220 -2.5657 -1.8471
 1182TIP3    H225182   5.710   6.456   0.730 -0.9629  0.0761  3.0807
 1183TIP3   OH225183   3.029   1.941   1.460  0.6619 -0.9050  0.4733
 1183TIP3    H125184   3.073   1.887   1.525  0.2966 -1.1513  0.5150
 1183TIP3    H225185   2.944   1.900   1.447 -0.0200  0.1926  1.2285
 1184TIP3   OH225186   5.163   1.575   3.232 -0.3713 -0.2280  0.3560
 1184TIP3    H125187   5.109   1.514   3.284 -1.0729  0.1887  0.1262
 1184TIP3    H225188   5.167   1.534   3.146  2.0316 -1.6831  1.0660
 1185TIP3   OH225189   1.539   5.067   2.379  0.0307 -0.4115 -0.5525
 1185TIP3    H125190   1.633   5.057   2.391  0.3004 -0.2433 -2.2585
 1185TIP3    H225191   1.500   5.019   2.451  1.4115 -1.3700 -0.4093
 1186TIP3   OH225192   3.347   4.631   1.025 -0.0942  0.0411  0.7755
 1186TIP3    H125193   3.336   4.607   0.933 -0.3282  0.4510  0.6987
 1186TIP3    H225194   3.392   4.555   1.063 -0.1249 -0.1926  0.3583
 1187TIP3   OH225195   0.413   0.513   1.028  0.0260 -0.3665 -0.2864
 1187TIP3    H125196   0.488   0.572   1.021 -0.6360  0.7289  1.3620
 1187TIP3    H225197   0.450   0.432   1.063  0.3006  0.5497  1.6330
 1188TIP3   OH225198   3.862   3.942   1.152 -0.2286  0.0550 -0.0395
 1188TIP3    H125199   3.823   3.950   1.065  0.2445  0.7991 -0.1894
 1188TIP3    H225200   3.805   3.880   1.198 -0.7617  0.0281 -0.7149
 1189TIP3   OH225201   0.425   0.777   3.713  0.1797  0.1174  0.1530
 1189TIP3    H125202   0.360   0.760   3.781  0.4897 -0.6695  0.2708
 1189TIP3    H225203   0.476   0.696   3.708 -0.6452 -0.3330 -1.9392
 1190TIP3   OH225204   4.772   4.881   8.397 -0.0271  0.5871 -0.4312
 1190TIP3    H125205   4.803   4.826   8.468 -2.3491  0.9883  1.0192
 1190TIP3    H225206   4.839   4.874   8.329  1.6480 -0.8303  1.2734
 1191TIP3   OH225207   4.418   0.374   2.042 -0.0417  0.7316 -0.5460
 1191TIP3    H125208   4.509   0.368   2.013  0.7263  0.8257  1.6518
 1191TIP3    H225209   4.403   0.292   2.090 -1.1327  0.7070 -0.9006
 1192TIP3   OH225210   3.476   3.294   8.658  0.5784  0.0399  0.1971
 1192TIP3    H125211   3.435   3.314   8.742  0.8972  1.7672 -0.0061
 1192TIP3    H225212   3.416   3.330   8.593  1.5618  1.1061 -0.1686
 1193TIP3   OH225213   5.943   3.690   2.273  0.4844  0.3253  0.1486
 1193TIP3    H125214   5.998   3.616   2.299 -0.9878 -0.6840  0.5233
 1193TIP3    H225215   5.928   3.738   2.353  0.0969  0.0927  0.2168
 1194TIP3   OH225216   6.612   3.175   1.345 -0.6034 -0.6630  0.5195
 1194TIP3    H125217   6.658   3.091   1.344 -0.8012 -0.7782 -0.7118
 1194TIP3    H225218   6.610   3.202   1.253 -1.5290  0.1502  0.7664
 1195TIP3   OH225219   0.575   2.470   0.113  0.4825  0.7748 -0.1156
 1195TIP3    H125220   0.638   2.523   0.064  0.5556  0.1639 -0.7008
 1195TIP3    H225221   0.621   2.449   0.195  0.0706  2.4507  0.5982
 1196TIP3   OH225222   0.710   6.130   3.748 -0.1129 -0.0459 -0.4513
 1196TIP3    H125223   0.739   6.197   3.686  0.5939  0.4372  0.3903
 1196TIP3    H225224   0.714   6.172   3.834 -1.8174 -0.4570 -0.1281
 1197TIP3   OH225225   4.801   5.482   3.649  0.1781  0.1261 -0.4922
 1197TIP3    H125226   4.847   5.473   3.732 -0.3277 -1.5373 -0.3627
 1197TIP3    H225227   4.853   5.546   3.600  0.5120  1.0891  1.0575
 1198TIP3   OH225228   3.072   5.447   2.289  0.0723  0.5815  0.3736
 1198TIP3    H125229   3.072   5.403   2.375 -1.3779 -1.4778 -0.5961
 1198TIP3    H225230   3.163   5.474   2.276  0.2708  1.2041  2.6564
 1199TIP3   OH225231   3.970   4.926   2.235 -0.2972  0.6170 -0.1637
 1199TIP3    H125232   3.989   4.945   2.144  0.8258 -0.3936 -0.1752
 1199TIP3    H225233   3.878   4.949   2.247 -0.5939  0.2597 -1.6799
 1200TIP3   OH225234   2.811   3.781   3.668  0.0597  0.1271  0.5275
 1200TIP3    H125235   2.902   3.771   3.641 -0.3240 -0.7864 -0.5237
 1200TIP3    H225236   2.814   3.791   3.763  1.3312  1.3596  0.3900
 1201TIP3   OH225237   5.813   5.108   2.397 -0.0694 -0.0744  0.0615
 1201TIP3    H125238   5.719   5.099   2.385 -0.0781  1.4760 -1.6004
 1201TIP3    H225239   5.850   5.026   2.365 -0.6975  0.6415 -2.7197
 1202TIP3   OH225240   3.905   5.101   1.738 -0.1237  0.6363 -0.2979
 1202TIP3    H125241   3.815   5.133   1.750 -0.0151  0.7639  0.2069
 1202TIP3    H225242   3.932   5.137   1.654  0.2793  2.5780  0.6213
 1203TIP3   OH225243   4.164   4.028   3.788 -0.0192  0.1319 -0.7451
 1203TIP3    H125244   4.236   4.027   3.725  1.1974 -0.6308  0.5965
 1203TIP3    H225245   4.204   4.003   3.871 -1.6756  0.5709  0.2416
 1204TIP3   OH225246   0.457   6.160   2.281 -0.3488  0.0862  0.5461
 1204TIP3    H125247   0.492   6.072   2.270 -1.5097 -0.2164 -1.1213
 1204TIP3    H225248   0.388   6.151   2.347 -1.2415 -0.5267 -0.4340
 1205TIP3   OH225249   1.363   2.094   1.428 -0.7307  0.1341 -0.4252
 1205TIP3    H125250   1.385   2.183   1.457  0.2846 -0.5681  1.1083
 1205TIP3    H225251   1.288   2.070   1.483 -0.3076 -0.3451 -0.0485
 1206TIP3   OH225252   6.649   4.079   1.472 -0.1467  0.2593  0.2925
 1206TIP3    H125253   6.575   4.058   1.416  0.5407 -1.3362 -0.0731
 1206TIP3    H225254   6.713   4.119   1.414  1.2877 -2.9862 -0.5889
 1207TIP3   OH225255   6.428   1.273   0.212 -0.0689  0.1018  0.9104
 1207TIP3    H125256   6.493   1.261   0.143 -1.4370  0.4438 -0.4981
 1207TIP3    H225257   6.468   1.335   0.273 -0.0341  2.3942 -1.2929
 1208TIP3   OH225258   0.130   3.338   8.428  0.5606  0.4153 -0.0573
 1208TIP3    H125259   0.075   3.286   8.369  0.1852  0.6310  0.1018
 1208TIP3    H225260   0.156   3.277   8.496 -2.6412  1.1534  2.0410
 1209TIP3   OH225261   5.864   0.194   1.007 -0.2483 -0.5345 -0.2862
 1209TIP3    H125262   5.786   0.247   1.023 -0.8947 -1.5719  0.0557
 1209TIP3    H225263   5.937   0.250   1.034 -1.0043 -0.3837  1.6029
 1210TIP3   OH225264   3.466   6.278   2.720 -0.1963  0.7766 -0.1669
 1210TIP3    H125265   3.522   6.208   2.754  1.2640  1.4037 -1.1954
 1210TIP3    H225266   3.511   6.309   2.642 -3.2111 -0.3712 -2.5783
 1211TIP3   OH225267   2.462   4.808   2.446 -0.1480  0.7621  0.0499
 1211TIP3    H125268   2.378   4.772   2.415  0.9391 -0.9716 -1.0754
 1211TIP3    H225269   2.484   4.875   2.382 -0.2768  0.6466 -0.1174
 1212TIP3   OH225270   4.247   0.887   2.050  0.6077 -0.0023  0.1278
 1212TIP3    H125271   4.302   0.857   2.122  0.4390 -0.5845  0.0207
 1212TIP3    H225272   4.300   0.953   2.005  0.3948  0.9525  1.2584
 1213TIP3   OH225273   2.922   5.216   2.177  0.6930 -0.5425  0.4739
 1213TIP3    H125274   2.969   5.299   2.181 -0.9249  0.4891 -0.7513
 1213TIP3    H225275   2.841   5.231   2.226  0.7192 -1.6459  0.8796
 1214TIP3   OH225276   4.324   5.540   8.376  0.0102  0.4084 -0.0163
 1214TIP3    H125277   4.263   5.466   8.378  1.3015 -0.6987  0.0338
 1214TIP3    H225278   4.399   5.507   8.326  0.9120  1.4526  0.6046
 1215TIP3   OH225279   1.753   1.130   8.395 -0.0218 -0.0790  0.3140
 1215TIP3    H125280   1.789   1.215   8.419  0.4169 -0.4960  1.1724
 1215TIP3    H225281   1.695   1.149   8.321  0.8616  0.8108 -0.1805
 1216TIP3   OH225282   0.324   4.928   3.067  0.0449 -0.5762  0.4072
 1216TIP3    H125283   0.390   4.865   3.098 -0.6183 -1.0376  0.8923
 1216TIP3    H225284   0.370   4.977   2.998  0.6499 -1.4362  0.1682
 1217TIP3   OH225285   0.107   1.278   0.720 -0.0368  0.6005 -0.3758
 1217TIP3    H125286   0.146   1.316   0.799  0.1421  0.0148 -0.1781
 1217TIP3    H225287   0.028   1.330   0.704 -0.6961  0.0148  0.8466
 1218TIP3   OH225288   1.679   0.891   1.753  0.6032 -0.2252 -0.0052
 1218TIP3    H125289   1.773   0.888   1.769  0.7138 -0.7756 -0.7117
 1218TIP3    H225290   1.657   0.984   1.763  1.2269 -0.0816  0.1093
 1219TIP3   OH225291   2.799   2.285   0.971 -0.0288  0.0857 -0.5156
 1219TIP3    H125292   2.884   2.322   0.991  0.7521 -0.4346 -2.6091
 1219TIP3    H225293   2.791   2.292   0.875 -0.7929 -3.0519 -0.7955
 1220TIP3   OH225294   4.617   6.433   1.669  0.1299  0.0760 -0.5075
 1220TIP3    H125295   4.672   6.503   1.704  0.1661  0.5347 -1.4632
 1220TIP3    H225296   4.677   6.377   1.621  0.0895 -0.5940  0.2021
 1221TIP3   OH225297   6.440   2.715   1.306 -0.2523  0.3714 -0.2138
 1221TIP3    H125298   6.426   2.640   1.363  0.9170  0.2334 -0.0889
 1221TIP3    H225299   6.529   2.704   1.273 -0.0880  1.6660 -0.2503
 1222TIP3   OH225300   4.097   5.193   2.501 -0.0373  0.2375 -0.4323
 1222TIP3    H125301   4.140   5.205   2.417  0.3460  0.7235 -0.1772
 1222TIP3    H225302   4.164   5.154   2.557  0.7245  2.6534  0.4874
 1223TIP3   OH225303   4.291   0.489   2.896 -0.4778 -0.2644  0.0791
 1223TIP3    H125304   4.324   0.461   2.810  1.2032 -0.7882  0.8414
 1223TIP3    H225305   4.253   0.409   2.934 -1.3763  0.0069 -0.2270
 1224TIP3   OH225306   5.981   0.239   1.795 -0.5057  0.8660  0.1777
 1224TIP3    H125307   6.002   0.332   1.794  0.1858  0.7068 -0.1528
 1224TIP3    H225308   5.894   0.233   1.755 -1.1519  1.5085  1.4288
 1225TIP3   OH225309   1.682   0.321   4.489 -0.1796  0.3330 -0.3553
 1225TIP3    H125310   1.629   0.242   4.478  0.0199  0.5149 -3.6890
 1225TIP3    H225311   1.620   0.388   4.518 -0.7341 -0.5636  0.5937
 1226TIP3   OH225312   6.356   4.034   1.919 -0.0511  0.2455 -0.1599
 1226TIP3    H125313   6.403   4.039   1.835  0.8178  3.5924  0.3866
 1226TIP3    H225314   6.418   3.990   1.978  0.0921 -0.4366 -0.8033
 1227TIP3   OH225315   0.791   5.482   2.085 -0.0441 -0.4059 -0.2634
 1227TIP3    H125316   0.778   5.575   2.104  0.1410 -0.8793  2.5841
 1227TIP3    H225317   0.708   5.453   2.049 -1.1438  0.2840  1.5956
 1228TIP3   OH225318   3.385   4.259   1.235  0.9161 -0.4825 -0.3965
 1228TIP3    H125319   3.443   4.202   1.185  0.9715 -0.3284 -0.5090
 1228TIP3    H225320   3.429   4.344   1.235  0.7123 -0.3760 -0.4482
 1229TIP3   OH225321   4.404   4.670   1.045  0.1224 -0.1621 -0.5672
 1229TIP3    H125322   4.412   4.685   0.950  1.9411  1.2162 -0.2476
 1229TIP3    H225323   4.368   4.581   1.052 -0.8366  0.0092 -2.5308
 1230TIP3   OH225324   4.465   5.309   0.659  0.1079  0.0470  0.2205
 1230TIP3    H125325   4.439   5.381   0.716 -3.4933  1.0391 -2.3329
 1230TIP3    H225326   4.455   5.343   0.571  1.9630 -2.5006 -1.1202
 1231TIP3   OH225327   2.905   1.912   0.649 -0.1683  0.1392  0.0616
 1231TIP3    H125328   2.842   1.982   0.665 -1.2359 -0.1323 -2.4406
 1231TIP3    H225329   2.860   1.833   0.678  1.1144  0.3960  3.0753
 1232TIP3   OH225330   3.050   1.023   3.319 -0.7540  0.2091  0.1468
 1232TIP3    H125331   3.068   0.929   3.318 -1.9042 -0.0564 -1.8147
 1232TIP3    H225332   3.009   1.039   3.404  0.2056 -0.8828  0.8527
 1233TIP3   OH225333   5.777   4.497   0.566  0.3277  0.2433  0.1214
 1233TIP3    H125334   5.697   4.507   0.514  0.1228 -1.3528  0.1007
 1233TIP3    H225335   5.756   4.540   0.649 -0.1998  0.7003 -0.2394
 1234TIP3   OH225336   6.817   6.343   2.569  0.2553  0.5543  0.1255
 1234TIP3    H125337   6.789   6.274   2.508  0.0940  1.6319 -1.0409
 1234TIP3    H225338   6.740   6.397   2.582  0.6637  1.1186  0.2336
 1235TIP3   OH225339   5.005   1.398   1.198 -0.0527 -0.4783 -0.7760
 1235TIP3    H125340   5.040   1.487   1.197 -1.5085  0.3047  2.4905
 1235TIP3    H225341   4.926   1.402   1.145 -1.9499  1.2211  1.9279
 1236TIP3   OH225342   4.115   6.235   2.564 -0.2671  0.3639  0.5281
 1236TIP3    H125343   4.184   6.300   2.545 -1.1420  1.3306  0.5595
 1236TIP3    H225344   4.153   6.180   2.632  0.1350  1.4814  1.2438
 1237TIP3   OH225345   2.645   6.504   2.831  0.0921 -0.2818  0.1735
 1237TIP3    H125346   2.710   6.464   2.888  0.0848 -0.8685 -0.2250
 1237TIP3    H225347   2.655   6.598   2.846  0.0022 -0.4223  1.2412
 1238TIP3   OH225348   2.769   4.736   3.692 -0.1279 -1.1954 -0.5199
 1238TIP3    H125349   2.786   4.782   3.610 -0.2523 -0.1340  0.0328
 1238TIP3    H225350   2.856   4.726   3.732 -0.2308 -0.1968 -0.0083
 1239TIP3   OH225351   1.089   3.828   3.034 -0.1485  0.6861 -0.4009
 1239TIP3    H125352   1.082   3.859   2.944 -1.4858 -0.4662 -0.7418
 1239TIP3    H225353   1.140   3.747   3.028 -0.8318  0.2311 -0.2444
 1240TIP3   OH225354   4.499   0.344   0.333  0.3096 -0.5598 -0.1827
 1240TIP3    H125355   4.454   0.412   0.283  0.3770 -0.1177  0.3575
 1240TIP3    H225356   4.492   0.372   0.424  0.7453 -1.0364  0.0007
 1241TIP3   OH225357   0.190   1.451   1.785  0.2905 -0.2306  0.1912
 1241TIP3    H125358   0.140   1.482   1.710 -0.5553 -0.8325  0.4943
 1241TIP3    H225359   0.282   1.459   1.758 -0.0067 -1.0229 -1.1610
 1242TIP3   OH225360   2.327   4.254   0.063 -0.3437  0.2279 -0.3514
 1242TIP3    H125361   2.354   4.190  -0.003 -0.3873  0.1083 -0.2536
 1242TIP3    H225362   2.361   4.220   0.145 -1.0587 -0.0919 -0.1793
 1243TIP3   OH225363   0.693   6.722   4.191 -0.0187  0.2784 -0.2808
 1243TIP3    H125364   0.624   6.659   4.209  0.4230 -0.2255 -0.3176
 1243TIP3    H225365   0.651   6.807   4.198 -1.2847 -0.0525 -2.9188
 1244TIP3   OH225366   0.085   5.331   3.009  0.1649 -0.4300  0.0292
 1244TIP3    H125367  -0.001   5.349   3.048  0.7497  0.6353  0.8915
 1244TIP3    H225368   0.147   5.355   3.078  1.3163  2.7484 -1.9104
 1245TIP3   OH225369   1.168   0.722   3.551 -0.1899  0.2609  0.0108
 1245TIP3    H125370   1.145   0.814   3.564  0.6869  0.3940  0.6958
 1245TIP3    H225371   1.137   0.678   3.629 -1.2311 -0.1612 -0.6190
 1246TIP3   OH225372   3.055   5.037   1.960 -0.1094 -0.1486  0.1282
 1246TIP3    H125373   2.989   4.979   1.998 -0.2285 -0.8333 -1.0784
 1246TIP3    H225374   3.021   5.125   1.975  0.0085 -0.3570  1.8704
 1247TIP3   OH225375   6.091   6.194   0.422  0.4267 -0.0929  0.0331
 1247TIP3    H125376   6.109   6.131   0.352 -0.0527 -0.7829  0.5258
 1247TIP3    H225377   6.145   6.270   0.400 -0.3692  0.0537 -1.5820
 1248TIP3   OH225378   0.165   4.903   0.361 -0.1400  0.0364  0.0652
 1248TIP3    H125379   0.071   4.902   0.343 -0.1963 -1.1032  0.3494
 1248TIP3    H225380   0.172   4.926   0.454 -0.1799 -0.3888  0.1792
 1249TIP3   OH225381   5.954   5.142   8.822  0.2459  0.0147  0.4816
 1249TIP3    H125382   5.964   5.213   8.760  0.3490  0.6640  1.2195
 1249TIP3    H225383   6.041   5.104   8.831  0.3008  0.1432  0.4897
 1250TIP3   OH225384   1.878   2.913   3.652  0.0377  0.1574 -0.7750
 1250TIP3    H125385   1.827   2.990   3.675 -0.6452 -0.5909  0.2883
 1250TIP3    H225386   1.831   2.840   3.692  1.7319 -0.5960 -0.0422
 1251TIP3   OH225387   6.048   6.417   1.157  0.1364 -0.6534  0.4916
 1251TIP3    H125388   6.119   6.353   1.164  0.5386 -0.3319 -0.3842
 1251TIP3    H225389   6.061   6.475   1.231  1.8401  0.3799 -0.5394
 1252TIP3   OH225390   3.838   1.874   3.502 -0.4711 -0.0631  0.1987
 1252TIP3    H125391   3.849   1.958   3.458  0.3624  0.2050  0.8916
 1252TIP3    H225392   3.926   1.837   3.505 -0.9436 -1.3932 -0.8992
 1253TIP3   OH225393   0.609   1.161   2.454 -0.8687 -0.2167 -0.2641
 1253TIP3    H125394   0.558   1.081   2.444 -1.5163  0.2980 -1.2323
 1253TIP3    H225395   0.682   1.151   2.393  0.7658 -1.3379  1.7383
 1254TIP3   OH225396   3.675   2.132   2.460 -0.6258  0.1597  0.1015
 1254TIP3    H125397   3.584   2.142   2.491 -0.2685  1.0233  0.9583
 1254TIP3    H225398   3.722   2.097   2.536  0.2904  2.4061  0.6682
 1255TIP3   OH225399   5.189   4.274   0.952 -0.0968 -0.4936 -0.3390
 1255TIP3    H125400   5.235   4.343   1.001  1.0636 -1.0544 -0.6151
 1255TIP3    H225401   5.127   4.237   1.015 -0.9162  0.9322 -0.2451
 1256TIP3   OH225402   3.253   2.646   2.253 -0.0736  0.0830 -0.8155
 1256TIP3    H125403   3.171   2.631   2.206  0.6683  1.3169 -2.6063
 1256TIP3    H225404   3.322   2.619   2.192  0.9065  1.0751 -0.1888
 1257TIP3   OH225405   2.051   0.249   1.665 -0.0985 -0.1470  0.0830
 1257TIP3    H125406   2.020   0.267   1.576 -1.0694  0.0539  0.4488
 1257TIP3    H225407   2.020   0.160   1.684 -0.2052 -0.0535  0.3507
 1258TIP3   OH225408   5.287   1.535   0.240  0.1160 -0.3712 -0.3200
 1258TIP3    H125409   5.369   1.531   0.190  1.7751 -1.2451  2.3014
 1258TIP3    H225410   5.283   1.452   0.287 -1.2753  0.4785  1.1570
 1259TIP3   OH225411   6.048   4.738   4.182  0.3823  0.2187 -0.6904
 1259TIP3    H125412   5.952   4.732   4.188  0.2951  1.7969  0.3606
 1259TIP3    H225413   6.079   4.650   4.201 -0.8695 -0.4008 -1.3808
 1260TIP3   OH225414   2.879   2.957   2.517  0.0150  0.2757 -0.1819
 1260TIP3    H125415   2.929   2.908   2.583 -0.7101 -0.5670 -0.2395
 1260TIP3    H225416   2.896   2.911   2.435 -0.7595  0.0398 -0.2170
 1261TIP3   OH225417   1.325   0.346   0.425  0.0688 -0.2052  0.3688
 1261TIP3    H125418   1.410   0.324   0.387  0.2817 -0.2760  0.8669
 1261TIP3    H225419   1.328   0.440   0.439  0.3071 -0.2958  0.9501
 1262TIP3   OH225420   3.145   2.614   2.803  0.3083 -0.0827  0.1669
 1262TIP3    H125421   3.164   2.588   2.893 -3.5850  0.5249  1.3531
 1262TIP3    H225422   3.168   2.707   2.800  1.5338 -0.3669  0.1031
 1263TIP3   OH225423   5.794   1.008   0.938 -0.2496  0.1839 -0.7269
 1263TIP3    H125424   5.828   1.078   0.994  0.6606 -0.3230 -0.6371
 1263TIP3    H225425   5.802   1.041   0.849  0.4472  0.0952 -0.7038
 1264TIP3   OH225426   4.404   5.261   2.327  0.1363  0.0886 -0.7637
 1264TIP3    H125427   4.453   5.341   2.309 -0.1608  0.4474 -0.0462
 1264TIP3    H225428   4.316   5.278   2.294 -1.0097  1.5444  2.5500
 1265TIP3   OH225429   4.925   4.218   2.681  0.0596  0.1792  0.2553
 1265TIP3    H125430   4.996   4.234   2.744  0.1066  0.5140  0.1190
 1265TIP3    H225431   4.883   4.139   2.712  0.5421 -0.0665  0.3013
 1266TIP3   OH225432   1.165   2.018   1.593  0.1282  0.1417  0.1820
 1266TIP3    H125433   1.171   2.051   1.683 -0.0150 -0.0901  0.2776
 1266TIP3    H225434   1.072   1.998   1.581 -0.0074  1.0301 -0.3292
 1267TIP3   OH225435   3.765   1.640   3.385 -0.3689  0.3150 -0.7457
 1267TIP3    H125436   3.840   1.662   3.441  0.5627  1.1989 -2.2380
 1267TIP3    H225437   3.742   1.551   3.409  0.1702  0.5600  0.8162
 1268TIP3   OH225438   0.043   4.998   3.567  0.7673 -0.6999 -0.2759
 1268TIP3    H125439   0.044   4.904   3.583  0.6835 -0.5252  0.8211
 1268TIP3    H225440   0.017   5.036   3.651  1.5998  0.3498 -0.4819
 1269TIP3   OH225441   1.870   1.325   3.082 -0.3250  0.5824  1.2314
 1269TIP3    H125442   1.789   1.312   3.132 -0.4750  1.9194  1.3977
 1269TIP3    H225443   1.844   1.381   3.009  0.1569 -0.2825  0.3869
 1270TIP3   OH225444   2.317   6.088   3.315  0.8451 -0.2170  0.8402
 1270TIP3    H125445   2.361   6.005   3.298 -0.1554 -1.3322  3.3056
 1270TIP3    H225446   2.224   6.065   3.316  0.5717  0.8611  1.8126
 1271TIP3   OH225447   3.234   3.199   0.332 -0.3082  0.3078  0.4199
 1271TIP3    H125448   3.177   3.212   0.256 -0.7671  2.2356  1.0455
 1271TIP3    H225449   3.309   3.257   0.316  0.6902 -0.9149  0.4326
 1272TIP3   OH225450   1.560   2.550   1.844 -0.2636 -0.4113  0.4203
 1272TIP3    H125451   1.489   2.574   1.785 -0.5619  0.4409  1.0993
 1272TIP3    H225452   1.602   2.633   1.865  0.4934 -0.8291  0.5798
 1273TIP3   OH225453   5.500   5.423   2.805  0.2244  0.2497 -0.2697
 1273TIP3    H125454   5.534   5.437   2.717 -1.2222  1.7814 -0.6417
 1273TIP3    H225455   5.508   5.509   2.848  1.1518 -0.5269  1.2197
 1274TIP3   OH225456   2.156   4.356   0.818 -0.1020  0.0530 -0.3317
 1274TIP3    H125457   2.215   4.290   0.854  0.0111  0.7113  0.7358
 1274TIP3    H225458   2.069   4.317   0.822 -0.0033 -0.1317  0.0581
 1275TIP3   OH225459   0.495   0.920   3.477  0.1670 -0.3142  0.2637
 1275TIP3    H125460   0.590   0.925   3.482  0.1348 -0.5900  1.3327
 1275TIP3    H225461   0.468   0.880   3.559 -0.9072  0.1622  0.1684
 1276TIP3   OH225462   6.350   4.389   3.384  0.0742 -0.8530  0.2055
 1276TIP3    H125463   6.443   4.383   3.363  0.0858 -1.9865  0.5354
 1276TIP3    H225464   6.307   4.399   3.298  0.6165  1.9943  0.1729
 1277TIP3   OH225465   1.121   0.196   1.256  0.3989  0.5555  0.6557
 1277TIP3    H125466   1.199   0.149   1.227  0.4019  0.3625  0.9693
 1277TIP3    H225467   1.151   0.285   1.274  0.3119  0.7949 -0.3391
 1278TIP3   OH225468   1.107   4.746   0.934 -0.0389 -0.3700  0.5147
 1278TIP3    H125469   1.069   4.659   0.943  0.4891 -0.8365 -1.3460
 1278TIP3    H225470   1.037   4.806   0.961 -1.0903 -1.3029 -0.0647
 1279TIP3   OH225471   5.747   0.913   7.873  0.3974  0.3484  0.5592
 1279TIP3    H125472   5.764   0.972   7.800  0.4806  0.1907  0.4506
 1279TIP3    H225473   5.722   0.971   7.945  1.4895  0.5900  0.7551
 1280TIP3   OH225474   0.467   2.784   3.973 -0.7055  0.5906 -0.5247
 1280TIP3    H125475   0.543   2.823   4.016 -0.8227  1.0181 -0.6942
 1280TIP3    H225476   0.395   2.844   3.995 -0.3945  1.9807 -3.0152
 1281TIP3   OH225477   5.882   6.497   2.744 -0.6143 -0.1077 -0.2135
 1281TIP3    H125478   5.861   6.420   2.691 -0.4831 -1.0429  1.0569
 1281TIP3    H225479   5.870   6.468   2.834 -3.8143  2.2744  0.2853
 1282TIP3   OH225480   0.149   0.139   0.674  0.5229  0.3334 -0.1252
 1282TIP3    H125481   0.222   0.139   0.736  2.6660  0.0022 -2.4727
 1282TIP3    H225482   0.138   0.230   0.649  0.7193  0.2828 -0.4009
 1283TIP3   OH225483   1.259   3.795   2.012  0.7988 -0.9483 -0.0472
 1283TIP3    H125484   1.257   3.765   2.102  1.6668  1.8002  0.9821
 1283TIP3    H225485   1.167   3.800   1.986  0.4278 -0.0332  1.3462
 1284TIP3   OH225486   2.161   5.228   1.836  0.6331  0.2133  0.0176
 1284TIP3    H125487   2.246   5.185   1.833 -0.1520 -1.4357  0.1098
 1284TIP3    H225488   2.127   5.220   1.747 -0.6271 -1.8044  0.6140
 1285TIP3   OH225489   6.381   3.468   0.699 -0.1994  0.3123 -1.2251
 1285TIP3    H125490   6.394   3.562   0.716 -0.1590  0.4026 -1.7434
 1285TIP3    H225491   6.393   3.459   0.605 -0.6824 -0.1386 -1.2489
 1286TIP3   OH225492   4.849   1.896   8.568 -0.2059  0.6533 -0.3058
 1286TIP3    H125493   4.778   1.861   8.620 -1.1098  1.9332 -0.6206
 1286TIP3    H225494   4.828   1.872   8.478 -0.1130  0.8198 -0.3737
 1287TIP3   OH225495   2.151   0.064   2.873  0.1979 -0.2177  0.4026
 1287TIP3    H125496   2.101   0.133   2.829  1.2103  0.5184  0.3872
 1287TIP3    H225497   2.241   0.095   2.873  0.5718 -1.2429  0.9944
 1288TIP3   OH225498   0.663   4.135   1.178 -0.0199 -0.6163  0.6289
 1288TIP3    H125499   0.644   4.069   1.112  2.4520 -1.4311  0.6138
 1288TIP3    H225500   0.744   4.105   1.219  1.1716  2.3346  0.7172
 1289TIP3   OH225501   4.159   5.367   1.695  0.1416 -0.2125  0.1901
 1289TIP3    H125502   4.079   5.384   1.645  1.6970  0.5458 -2.2302
 1289TIP3    H225503   4.142   5.408   1.780 -1.1771  2.0985 -1.0692
 1290TIP3   OH225504   3.336   5.846   2.722  0.7593  0.3028 -0.4767
 1290TIP3    H125505   3.310   5.929   2.682 -1.8028 -0.7493 -1.1939
 1290TIP3    H225506   3.406   5.813   2.666  0.4255  1.0544 -1.3542
 1291TIP3   OH225507   3.008   4.963   8.465 -0.0939  0.5864 -0.3638
 1291TIP3    H125508   3.065   4.924   8.399 -0.1668  0.0064 -0.0924
 1291TIP3    H225509   2.983   5.048   8.428 -2.1479 -0.7225 -2.2439
 1292TIP3   OH225510   4.732   1.060   8.595  0.4132  0.3100  0.3415
 1292TIP3    H125511   4.737   1.146   8.555 -2.1987  0.3691 -0.0578
 1292TIP3    H225512   4.745   0.999   8.523 -1.1815  0.4304 -0.1040
 1293TIP3   OH225513   0.063   2.909   8.175  0.5142  0.0149  0.1263
 1293TIP3    H125514   0.141   2.903   8.120 -0.2376  0.4605 -1.0412
 1293TIP3    H225515   0.075   2.989   8.227  0.6502  0.3135 -0.3602
 1294TIP3   OH225516   4.935   6.322   2.073 -0.0652  0.2015 -0.2334
 1294TIP3    H125517   4.853   6.363   2.047  0.4823  1.6784  0.2760
 1294TIP3    H225518   4.983   6.391   2.119  0.9038 -1.0113  0.6476
 1295TIP3   OH225519   4.505   2.531   2.403  0.4142  0.5930 -0.3893
 1295TIP3    H125520   4.581   2.476   2.419  1.1551  1.8580  0.6970
 1295TIP3    H225521   4.523   2.572   2.318  0.3078 -0.1205 -0.7559
 1296TIP3   OH225522   2.697   2.998   3.665  0.0402 -0.3304  0.0727
 1296TIP3    H125523   2.703   3.077   3.610 -1.4821  0.9353  1.6258
 1296TIP3    H225524   2.745   2.931   3.616 -0.4456  0.9795 -2.3229
 1297TIP3   OH225525   0.893   6.593   3.485 -0.2426  0.3193  0.4206
 1297TIP3    H125526   0.850   6.677   3.502  0.5463  1.2521 -1.7349
 1297TIP3    H225527   0.935   6.605   3.399 -3.2946 -3.4763 -1.9485
 1298TIP3   OH225528   3.786   4.489   0.573  0.0471  0.2799  0.0143
 1298TIP3    H125529   3.781   4.453   0.484  2.6449 -0.3317  0.0180
 1298TIP3    H225530   3.794   4.412   0.629 -1.5156  0.6684  0.7955
 1299TIP3   OH225531   0.373   5.855   2.608  0.2795 -0.4849 -0.4947
 1299TIP3    H125532   0.327   5.851   2.692  1.1607 -0.7511  0.0006
 1299TIP3    H225533   0.466   5.843   2.632  0.7078  0.9290 -1.3575
 1300TIP3   OH225534   6.580   6.213   1.033  0.3796  0.0299 -0.2596
 1300TIP3    H125535   6.512   6.208   0.967  1.3154 -0.5586 -1.2105
 1300TIP3    H225536   6.564   6.296   1.078 -1.7695 -0.7180  0.4938
 1301TIP3   OH225537   3.825   5.715   1.832  0.1753  0.5600 -0.1886
 1301TIP3    H125538   3.876   5.718   1.914  0.0680  2.5858 -0.1511
 1301TIP3    H225539   3.785   5.802   1.825 -2.9898 -0.7995 -0.4438
 1302TIP3   OH225540   2.310   2.227   3.579 -0.0221 -0.3470 -0.0814
 1302TIP3    H125541   2.329   2.133   3.575 -1.9005 -0.7477 -0.8314
 1302TIP3    H225542   2.297   2.244   3.672  2.2458 -0.3763  0.2777
 1303TIP3   OH225543   3.733   1.685   1.062  0.1313 -0.1513  0.8595
 1303TIP3    H125544   3.666   1.669   0.995  1.0204  0.4484 -0.1928
 1303TIP3    H225545   3.785   1.757   1.027  2.6337 -1.9492  0.6615
 1304TIP3   OH225546   2.986   5.019   1.151  0.1424  0.5470 -0.7866
 1304TIP3    H125547   2.993   4.925   1.135  0.1918  0.7249 -1.8739
 1304TIP3    H225548   2.897   5.031   1.184  0.3431  0.0406 -0.0506
 1305TIP3   OH225549   4.735   1.131   3.168 -0.2562  0.0018 -0.5218
 1305TIP3    H125550   4.820   1.090   3.181 -0.1128  0.3406 -0.3916
 1305TIP3    H225551   4.672   1.060   3.179  0.0473 -0.4332 -1.4409
 1306TIP3   OH225552   0.940   2.538   0.673  0.5156 -0.2832 -0.0427
 1306TIP3    H125553   0.936   2.505   0.583 -0.6616  1.1883 -0.5669
 1306TIP3    H225554   0.851   2.564   0.693  1.2015  1.6488  0.6741
 1307TIP3   OH225555   3.365   1.085   2.721  0.2311 -0.1638 -0.1954
 1307TIP3    H125556   3.448   1.102   2.765  0.2168  1.1345 -0.6299
 1307TIP3    H225557   3.298   1.122   2.779  0.0714 -0.0169 -0.4699
 1308TIP3   OH225558   6.185   4.060   2.778  0.0299  0.3825 -0.0138
 1308TIP3    H125559   6.250   4.024   2.717  0.6010 -0.9322  1.3293
 1308TIP3    H225560   6.207   4.153   2.783  1.0172  0.1913 -0.5420
 1309TIP3   OH225561   2.724   0.486   8.442  0.3414 -0.1939  0.7633
 1309TIP3    H125562   2.661   0.426   8.482  0.4139 -1.9319 -1.5285
 1309TIP3    H225563   2.708   0.479   8.348  2.1603  1.3736  0.2779
 1310TIP3   OH225564   1.078   4.124   2.085  0.2968  0.5513  0.4345
 1310TIP3    H125565   0.987   4.146   2.061  0.3023  0.0871 -0.0134
 1310TIP3    H225566   1.120   4.102   2.002  0.0767 -1.9805  0.9377
 1311TIP3   OH225567   6.321   5.552   1.622 -0.2143  0.3747  0.2762
 1311TIP3    H125568   6.270   5.609   1.563  0.8102  0.5181 -0.5004
 1311TIP3    H225569   6.255   5.503   1.670 -1.1094  1.3750  0.1199
 1312TIP3   OH225570   3.712   5.754   3.688 -0.3980 -0.2372  0.1930
 1312TIP3    H125571   3.708   5.779   3.780  0.7982 -0.5380  0.3315
 1312TIP3    H225572   3.792   5.702   3.679  0.7717  1.6781 -1.4506
 1313TIP3   OH225573   4.144   1.461   8.409  0.2220  0.4757  0.4787
 1313TIP3    H125574   4.054   1.494   8.409  0.4945  1.2815  1.3760
 1313TIP3    H225575   4.196   1.534   8.375  0.4530 -0.3100 -0.9223
 1314TIP3   OH225576   1.603   1.519   3.365  0.0100 -0.9874  0.6795
 1314TIP3    H125577   1.626   1.608   3.340  0.6248 -1.4504 -0.4987
 1314TIP3    H225578   1.522   1.528   3.415  0.5450  0.3016  1.3648
 1315TIP3   OH225579   4.959   1.524   2.918 -0.2368  0.1927 -0.2386
 1315TIP3    H125580   4.912   1.473   2.984 -0.1005  1.0456  0.5364
 1315TIP3    H225581   4.896   1.591   2.891  0.2865  0.9198  0.3071
 1316TIP3   OH225582   5.506   3.569   8.194  0.4214 -0.1433  0.2235
 1316TIP3    H125583   5.506   3.474   8.205  3.2801 -0.5841 -2.1257
 1316TIP3    H225584   5.427   3.587   8.142  1.1843 -1.6895 -1.5922
 1317TIP3   OH225585   0.776   4.451   4.387 -0.1514  0.5910  0.3655
 1317TIP3    H125586   0.820   4.495   4.459  0.1230 -0.0819  0.6139
 1317TIP3    H225587   0.798   4.359   4.398  0.6036  0.5759 -1.0789
 1318TIP3   OH225588   0.087   2.237   8.595 -0.0625  0.6901  0.0821
 1318TIP3    H125589   0.133   2.169   8.545  1.0276  0.8624  0.8160
 1318TIP3    H225590   0.019   2.268   8.535 -0.0323 -0.4459 -0.5800
 1319TIP3   OH225591   1.985   1.341   2.726  0.7022 -0.3492 -0.2917
 1319TIP3    H125592   1.964   1.405   2.658  1.1944 -0.4902 -0.5814
 1319TIP3    H225593   2.073   1.365   2.755  0.9233 -0.9400 -0.4570
 1320TIP3   OH225594   3.692   5.245   1.021 -0.2054 -0.2029  0.5182
 1320TIP3    H125595   3.711   5.257   1.114  2.3346  1.5040 -0.1228
 1320TIP3    H225596   3.675   5.151   1.012  1.0855 -0.6728  2.4580
 1321TIP3   OH225597   5.469   6.102   0.936  0.2904 -0.1008  0.2077
 1321TIP3    H125598   5.466   6.196   0.920  1.9273 -0.0241  0.1931
 1321TIP3    H225599   5.559   6.085   0.964 -0.2776 -1.4945  1.3207
 1322TIP3   OH225600   1.870   3.756   2.793  0.4202 -0.6221  0.4032
 1322TIP3    H125601   1.798   3.717   2.843  1.6032 -0.5855  2.2200
 1322TIP3    H225602   1.933   3.783   2.859  2.1568 -0.7035 -1.1411
 1323TIP3   OH225603   3.381   0.242   1.633 -0.3741  0.0339 -0.2984
 1323TIP3    H125604   3.365   0.174   1.567  0.1595  1.8585 -2.4400
 1323TIP3    H225605   3.302   0.295   1.633 -0.3438  0.0888  0.5122
 1324TIP3   OH225606   3.457   1.496   0.618 -0.0894 -0.1247 -0.4150
 1324TIP3    H125607   3.478   1.589   0.618 -1.4963  0.2281 -0.8913
 1324TIP3    H225608   3.401   1.484   0.695 -0.4192 -0.4305 -0.6963
 1325TIP3   OH225609   1.127   3.330   2.869 -0.0820 -0.3645  0.0747
 1325TIP3    H125610   1.182   3.284   2.933  0.7346 -0.5247 -0.7207
 1325TIP3    H225611   1.131   3.276   2.791 -0.3261  0.3038 -0.4086
 1326TIP3   OH225612   1.065   5.533   4.132  0.2413  0.3136  0.6624
 1326TIP3    H125613   1.128   5.523   4.061  0.8351 -0.6129  1.3047
 1326TIP3    H225614   1.079   5.622   4.165 -0.1747  0.8209 -0.4871
 1327TIP3   OH225615   5.745   5.625   1.202  0.4676  0.7290 -0.4469
 1327TIP3    H125616   5.777   5.696   1.257  0.5493  1.5466 -1.5246
 1327TIP3    H225617   5.775   5.647   1.114 -1.6247  0.6671 -1.2252
 1328TIP3   OH225618   3.633   0.594   3.870 -0.1370 -0.3438  0.0045
 1328TIP3    H125619   3.704   0.536   3.896  0.3354  0.0663 -0.3358
 1328TIP3    H225620   3.590   0.549   3.798  0.4826 -0.0983 -0.5283
 1329TIP3   OH225621   0.175   6.406   2.824 -0.1098  0.3488 -0.4235
 1329TIP3    H125622   0.105   6.423   2.761 -0.1947 -0.9001 -0.6934
 1329TIP3    H225623   0.213   6.323   2.796 -0.6077 -0.6031  1.5479
 1330TIP3   OH225624   0.901   2.080   0.112 -0.2299 -0.1871 -0.2546
 1330TIP3    H125625   0.961   2.074   0.187 -3.0905 -1.4063  2.1468
 1330TIP3    H225626   0.877   2.173   0.107  2.4060  0.5035 -1.8673
 1331TIP3   OH225627   6.467   4.055   1.258  0.1705 -0.3311 -0.5101
 1331TIP3    H125628   6.477   4.103   1.176  1.0781 -1.1701 -0.9134
 1331TIP3    H225629   6.390   4.094   1.299  0.7153  1.2922 -0.9301
 1332TIP3   OH225630   1.957   5.610   0.243  0.0301  0.3103  0.0704
 1332TIP3    H125631   1.930   5.688   0.195  0.2067 -1.4379 -3.1549
 1332TIP3    H225632   2.052   5.620   0.253  0.4713 -0.4237 -2.5054
 1333TIP3   OH225633   1.581   4.013   3.333 -0.1288  0.1214 -0.5892
 1333TIP3    H125634   1.662   3.962   3.340 -0.4256 -0.5064 -1.6034
 1333TIP3    H225635   1.598   4.092   3.385  0.0594 -1.3317  1.7332
 1334TIP3   OH225636   3.071   5.993   4.214  0.5062 -0.2037 -0.3755
 1334TIP3    H125637   3.076   6.088   4.216  1.4727 -0.2451  1.1159
 1334TIP3    H225638   2.985   5.973   4.177 -0.8522  1.3044  1.7377
 1335TIP3   OH225639   0.985   3.281   4.261 -0.2318 -0.1300  0.0777
 1335TIP3    H125640   0.984   3.365   4.307  1.3254  0.2858 -0.5611
 1335TIP3    H225641   0.896   3.270   4.229  0.1650  2.9665 -2.6504
 1336TIP3   OH225642   6.646   1.108   8.657  0.1981 -0.4142 -0.6368
 1336TIP3    H125643   6.712   1.158   8.705 -0.0710  1.4721 -2.0893
 1336TIP3    H225644   6.687   1.089   8.572  0.3279 -2.8434 -0.0995
 1337TIP3   OH225645   2.193   4.894   0.693  0.1438 -0.7218  0.1290
 1337TIP3    H125646   2.144   4.859   0.767 -0.8789 -1.3016 -0.7894
 1337TIP3    H225647   2.194   4.988   0.707 -1.6018 -0.6411 -0.0098
 1338TIP3   OH225648   0.043   4.280   3.399  0.3354 -0.2835 -0.4836
 1338TIP3    H125649   0.101   4.266   3.473 -1.3150 -1.1591  0.7119
 1338TIP3    H225650   0.040   4.195   3.355  0.5660 -0.0244 -1.0100
 1339TIP3   OH225651   0.714   3.194   2.402 -0.2726 -0.2062 -1.3134
 1339TIP3    H125652   0.657   3.162   2.332 -0.5467 -1.3335 -0.5832
 1339TIP3    H225653   0.681   3.153   2.481  1.7272 -1.1123 -0.9026
 1340TIP3   OH225654   3.433   4.866   1.354 -0.0156  0.1181 -0.4530
 1340TIP3    H125655   3.386   4.938   1.311  0.0044  0.7384  0.5310
 1340TIP3    H225656   3.365   4.820   1.404 -0.5113 -2.0670 -2.9650
 1341TIP3   OH225657   5.381   4.649   3.282 -0.1507 -0.5815  0.6965
 1341TIP3    H125658   5.352   4.588   3.214  0.6827  0.5624 -0.7475
 1341TIP3    H225659   5.323   4.725   3.273  0.8568  0.1584  0.3024
 1342TIP3   OH225660   5.528   1.195   7.763 -0.3214 -0.1134  0.2417
 1342TIP3    H125661   5.617   1.162   7.754  0.2162  1.6524 -2.2009
 1342TIP3    H225662   5.524   1.233   7.851  1.0403 -0.9919  0.6986
 1343TIP3   OH225663   4.337   3.901   2.833  0.4696 -0.3924  0.5143
 1343TIP3    H125664   4.355   3.871   2.744  1.0402  0.1318  0.4547
 1343TIP3    H225665   4.307   3.822   2.879  0.0290 -0.6339 -0.1736
 1344TIP3   OH225666   2.849   6.678   1.040  0.0031  0.3556  0.1305
 1344TIP3    H125667   2.925   6.672   0.983  0.4317  0.7829  0.6468
 1344TIP3    H225668   2.774   6.682   0.980  0.3495 -0.4089 -0.3774
 1345TIP3   OH225669   5.770   0.282   0.370  0.1811 -0.6822  0.1068
 1345TIP3    H125670   5.822   0.362   0.359 -1.2499  0.3154  0.3365
 1345TIP3    H225671   5.781   0.235   0.288 -0.0076  0.4048 -0.5651
 1346TIP3   OH225672   5.098   1.142   4.171  0.5937  0.2132 -0.0882
 1346TIP3    H125673   5.101   1.050   4.143  2.1849  0.5035 -1.0237
 1346TIP3    H225674   5.174   1.182   4.128 -0.1947  2.0238  0.1249
 1347TIP3   OH225675   1.561   4.325   3.822  0.7405 -0.4033  0.2736
 1347TIP3    H125676   1.594   4.261   3.885  0.6316  0.4492  1.2290
 1347TIP3    H225677   1.485   4.283   3.782  0.1434 -0.5367  1.5207
 1348TIP3   OH225678   2.675   1.892   4.595 -1.0353 -0.2245 -0.3391
 1348TIP3    H125679   2.734   1.967   4.588  1.7850 -2.3670 -0.9581
 1348TIP3    H225680   2.642   1.880   4.506 -3.8918  1.9190  0.2707
 1349TIP3   OH225681   4.426   5.667   8.596  0.2834 -0.1556 -0.1291
 1349TIP3    H125682   4.392   5.607   8.530  0.4539  1.2518 -1.5635
 1349TIP3    H225683   4.388   5.752   8.573  0.3131  0.3752  1.6293
 1350TIP3   OH225684   3.857   6.770   3.898  0.1700 -0.2131  0.1727
 1350TIP3    H125685   3.853   6.865   3.911  0.9711 -0.2844  1.0484
 1350TIP3    H225686   3.789   6.735   3.955 -0.0020 -0.1746 -0.0096
 1351TIP3   OH225687   3.692   3.909   1.616  0.2328 -0.1448  0.1741
 1351TIP3    H125688   3.709   3.984   1.671  0.6947 -0.0402 -0.1046
 1351TIP3    H225689   3.683   3.945   1.528 -3.1626  0.0512  0.4529
 1352TIP3   OH225690   5.320   0.947   0.216  0.1190 -0.4942  0.2855
 1352TIP3    H125691   5.338   0.963   0.308  3.3685  0.4865 -0.3916
 1352TIP3    H225692   5.389   0.889   0.187  0.3686  0.7997 -1.9439
 1353TIP3   OH225693   0.393   1.466   0.707 -0.2230 -0.1205  0.5769
 1353TIP3    H125694   0.344   1.548   0.699 -1.9492 -1.2841 -2.8450
 1353TIP3    H225695   0.484   1.492   0.698 -0.6832  1.5170  0.2731
 1354TIP3   OH225696   6.596   2.547   0.278  0.1369 -0.4731 -0.3320
 1354TIP3    H125697   6.663   2.606   0.312 -0.0477 -1.1067  1.1970
 1354TIP3    H225698   6.627   2.460   0.302 -0.2676 -0.9161 -1.3606
 1355TIP3   OH225699   2.919   2.228   2.761 -0.4095  0.3769 -0.4088
 1355TIP3    H125700   2.964   2.163   2.815 -0.7298  2.6230  2.8572
 1355TIP3    H225701   2.830   2.193   2.750  0.5329 -1.6433 -2.4862
 1356TIP3   OH225702   0.970   0.516   4.017  0.3945 -0.1403 -0.2058
 1356TIP3    H125703   0.990   0.570   3.941 -1.4607 -0.0665 -0.6878
 1356TIP3    H225704   1.016   0.558   4.089  2.5478 -0.4459 -1.2977
 1357TIP3   OH225705   0.840   4.220   2.541 -0.6047 -0.1923 -0.2187
 1357TIP3    H125706   0.854   4.284   2.471  0.7083  0.3711  0.5177
 1357TIP3    H225707   0.776   4.263   2.599  0.2937  0.4998  0.2887
 1358TIP3   OH225708   3.405   4.715   0.154  0.1256 -0.0527 -0.6116
 1358TIP3    H125709   3.454   4.795   0.173  0.2231 -0.5119  1.2015
 1358TIP3    H225710   3.448   4.679   0.077  1.0024  0.8808 -0.5837
 1359TIP3   OH225711   1.708   2.695   3.666 -0.2987 -0.3523  0.0773
 1359TIP3    H125712   1.665   2.680   3.583  0.5401 -0.4530 -0.3502
 1359TIP3    H225713   1.666   2.634   3.727  1.6183 -3.0776 -1.1406
 1360TIP3   OH225714   5.940   5.355   4.330  0.3855  0.1975  0.4047
 1360TIP3    H125715   5.919   5.382   4.419 -2.0591 -0.8273  0.2268
 1360TIP3    H225716   5.907   5.425   4.275  1.5967  0.6743  0.2519
 1361TIP3   OH225717   5.256   5.450   0.362  0.2125  0.1214 -0.0225
 1361TIP3    H125718   5.265   5.369   0.311 -0.0189 -0.1688  0.3841
 1361TIP3    H225719   5.232   5.420   0.450  1.2404  0.5860  0.4269
 1362TIP3   OH225720   0.077   4.517   3.261  0.5476  0.1177 -0.1282
 1362TIP3    H125721   0.091   4.439   3.314  2.1422  1.3263  1.3351
 1362TIP3    H225722   0.045   4.483   3.177 -0.6538 -1.9399  1.0861
 1363TIP3   OH225723   6.263   2.401   2.274  0.2325  0.0503 -0.2128
 1363TIP3    H125724   6.258   2.489   2.312  1.7420  0.2962 -0.5145
 1363TIP3    H225725   6.330   2.356   2.325 -0.9956 -1.1906  0.3747
 1364TIP3   OH225726   3.936   1.686   1.256 -0.4632 -0.3375  0.5968
 1364TIP3    H125727   3.941   1.608   1.311 -0.6394  0.2881  1.5218
 1364TIP3    H225728   3.864   1.669   1.195  0.4753 -1.5182 -0.2406
 1365TIP3   OH225729   5.945   0.555   1.073  0.4505 -0.1513  0.0768
 1365TIP3    H125730   5.990   0.575   1.155  1.8586  3.0639 -1.3160
 1365TIP3    H225731   5.856   0.590   1.086  0.8392  0.8747  0.0780
 1366TIP3   OH225732   4.706   2.974   1.534 -1.0144  0.1888 -0.0465
 1366TIP3    H125733   4.678   2.886   1.557  2.0967 -1.1834 -0.9534
 1366TIP3    H225734   4.781   2.991   1.591  0.6697  0.7098 -2.2907
 1367TIP3   OH225735   1.893   5.773   2.266  0.3844 -0.2702  0.0974
 1367TIP3    H125736   1.853   5.860   2.259  0.6992  0.1334  2.4007
 1367TIP3    H225737   1.945   5.763   2.187 -0.0979  1.4177 -0.4656
 1368TIP3   OH225738   0.865   0.683   3.334  0.2692  0.1653  0.1061
 1368TIP3    H125739   0.777   0.645   3.332 -0.2757  1.3776 -0.2284
 1368TIP3    H225740   0.923   0.610   3.353 -0.7458 -0.7798 -0.3379
 1369TIP3   OH225741   1.786   4.197   3.699 -0.2906  0.1754  0.3901
 1369TIP3    H125742   1.824   4.217   3.784  0.7854  0.5099 -0.1541
 1369TIP3    H225743   1.728   4.122   3.715 -0.2465  0.3604  1.4386
 1370TIP3   OH225744   5.274   2.789   2.177 -0.4969 -0.6244 -0.5044
 1370TIP3    H125745   5.201   2.821   2.230  0.0320  1.9059 -1.2038
 1370TIP3    H225746   5.268   2.837   2.095  2.4167  0.3325 -0.2640
 1371TIP3   OH225747   2.900   2.112   0.078  0.6754  0.2439 -0.1236
 1371TIP3    H125748   2.864   2.031   0.042  0.7138  0.1513  0.0424
 1371TIP3    H225749   2.928   2.163   0.002 -2.4125  1.5915 -0.5103
 1372TIP3   OH225750   1.909   5.944   1.676 -0.1775  0.2706 -0.0798
 1372TIP3    H125751   1.894   5.849   1.681  0.1890  0.1200 -1.4329
 1372TIP3    H225752   1.987   5.958   1.730  0.9876 -0.5351 -1.4600
 1373TIP3   OH225753   4.394   3.272   2.253 -0.8347 -0.0749  0.1579
 1373TIP3    H125754   4.440   3.306   2.330  1.5001 -0.5153 -0.9472
 1373TIP3    H225755   4.345   3.196   2.286 -0.4005  0.1342  1.3223
 1374TIP3   OH225756   1.063   6.006   1.135  0.0349  0.2136  0.3530
 1374TIP3    H125757   1.057   5.932   1.075  1.1490 -0.2736  0.8293
 1374TIP3    H225758   1.135   6.058   1.102 -0.0985  0.5595  0.6009
 1375TIP3   OH225759   5.442   0.683   0.290 -0.0095  0.4027 -0.2042
 1375TIP3    H125760   5.514   0.744   0.307  0.0935  0.6215 -1.3569
 1375TIP3    H225761   5.472   0.629   0.217 -0.5728 -0.2574  0.0331
 1376TIP3   OH225762   2.281   3.370   2.857  0.7249 -0.4994  0.1332
 1376TIP3    H125763   2.376   3.367   2.844  0.8352  2.0451 -0.2117
 1376TIP3    H225764   2.247   3.301   2.801  2.2619  0.0773 -1.6283
 1377TIP3   OH225765   3.443   1.297   1.151 -0.1333  0.4753 -0.3015
 1377TIP3    H125766   3.388   1.337   1.083  0.2830  0.7888 -0.4620
 1377TIP3    H225767   3.471   1.371   1.205  0.3810  0.3596 -0.4070
 1378TIP3   OH225768   6.449   3.219   0.888 -0.0075  0.0853  0.3227
 1378TIP3    H125769   6.429   3.200   0.796  1.7056  0.4591 -0.1478
 1378TIP3    H225770   6.435   3.313   0.897 -1.2310 -0.1196  0.7474
 1379TIP3   OH225771   4.483   3.129   0.138 -0.1273 -0.6935  0.1978
 1379TIP3    H125772   4.541   3.115   0.063 -0.5429 -3.5251  0.2898
 1379TIP3    H225773   4.408   3.175   0.101  0.7978  0.2425 -0.5686
 1380TIP3   OH225774   0.548   4.808   3.882 -0.6375 -0.4606  0.0894
 1380TIP3    H125775   0.470   4.836   3.930 -0.6560  0.0656 -0.2357
 1380TIP3    H225776   0.612   4.878   3.897 -0.2769 -0.8131  0.2284
 1381TIP3   OH225777   1.461   0.113   2.153 -0.2651 -0.2739  0.1030
 1381TIP3    H125778   1.394   0.060   2.196 -0.6010 -1.1154 -1.3862
 1381TIP3    H225779   1.432   0.204   2.165  0.1120 -0.4016  2.3476
 1382TIP3   OH225780   6.172   5.321   1.869 -0.1009 -0.1444 -0.1784
 1382TIP3    H125781   6.137   5.405   1.899  0.9265 -0.1523  1.0930
 1382TIP3    H225782   6.123   5.255   1.917 -0.1920 -0.2457 -0.4069
 1383TIP3   OH225783   3.393   4.025   3.630  0.0700  0.2601  0.2848
 1383TIP3    H125784   3.306   4.061   3.614 -0.8455 -0.8746  2.3604
 1383TIP3    H225785   3.439   4.093   3.680  0.2085  0.6278 -0.3261
 1384TIP3   OH225786   5.578   3.981   2.475 -0.7098  0.4450  0.0156
 1384TIP3    H125787   5.490   3.953   2.450  0.0785 -1.2978 -1.0071
 1384TIP3    H225788   5.625   3.989   2.392  0.2860  0.7237  0.5866
 1385TIP3   OH225789   2.281   1.892   1.230 -0.2616  0.3485 -0.3058
 1385TIP3    H125790   2.366   1.879   1.272 -0.9109  2.1425  1.7762
 1385TIP3    H225791   2.296   1.872   1.138  2.3109  0.2253  0.0704
 1386TIP3   OH225792   5.404   2.010   1.984 -0.1983 -0.6153 -0.2417
 1386TIP3    H125793   5.411   2.100   2.015 -1.7988 -0.2713 -0.7472
 1386TIP3    H225794   5.312   2.001   1.958  0.1160 -2.1501 -0.9547
 1387TIP3   OH225795   5.600   4.059   4.102 -0.2697 -0.3074 -0.1541
 1387TIP3    H125796   5.605   3.973   4.059 -2.0560 -1.3369  1.5120
 1387TIP3    H225797   5.546   4.112   4.043  0.1161 -0.5986 -0.7841
 1388TIP3   OH225798   2.266   4.529   3.534 -0.4642 -0.4155  0.4675
 1388TIP3    H125799   2.204   4.540   3.462  1.7187  0.7868 -1.3491
 1388TIP3    H225800   2.352   4.530   3.493  1.0179  1.8580  3.2020
 1389TIP3   OH225801   4.875   5.978   2.557 -0.0024 -0.5018  0.4379
 1389TIP3    H125802   4.935   6.050   2.536 -1.3964  0.4526 -0.3957
 1389TIP3    H225803   4.790   6.020   2.571 -0.5215 -1.8327  1.5242
 1390TIP3   OH225804   1.000   4.480   0.933  0.5436  0.1733 -0.1497
 1390TIP3    H125805   1.027   4.431   1.011 -0.4284 -0.7068 -0.3519
 1390TIP3    H225806   0.910   4.453   0.918  0.8221  0.0943 -1.7824
 1391TIP3   OH225807   5.772   2.041   2.109  0.4506  0.2122  0.1315
 1391TIP3    H125808   5.719   2.085   2.175  1.3149  0.1060  0.9147
 1391TIP3    H225809   5.797   1.958   2.150  2.2194  0.7743  0.2706
 1392TIP3   OH225810   6.306   0.029   2.074 -0.3932 -0.4681  0.1976
 1392TIP3    H125811   6.335  -0.011   2.155 -0.6741  0.7384  0.9147
 1392TIP3    H225812   6.246   0.099   2.101  0.1006  0.4670 -0.9896
 1393TIP3   OH225813   5.039   1.331   3.904 -0.0268 -0.4419  0.2401
 1393TIP3    H125814   5.017   1.358   3.993  0.4906 -2.4730  1.0436
 1393TIP3    H225815   5.040   1.235   3.908 -0.9175 -0.6238 -2.1892
 1394TIP3   OH225816   4.900   1.666   3.331  0.2385  0.0430 -0.0476
 1394TIP3    H125817   4.877   1.585   3.377 -0.0770  0.8266  1.2112
 1394TIP3    H225818   4.982   1.646   3.286 -0.3970 -1.3138 -0.6708
 1395TIP3   OH225819   5.916   1.258   1.978  0.4383  0.0868  0.5632
 1395TIP3    H125820   5.925   1.353   1.967  1.3626  0.0827  1.1847
 1395TIP3    H225821   5.884   1.248   2.068  1.6566 -0.2330  0.9787
 1396TIP3   OH225822   4.963   2.949   0.702  0.1202 -0.2608 -0.3643
 1396TIP3    H125823   4.962   3.008   0.777 -0.1209  0.8875 -1.2369
 1396TIP3    H225824   4.990   2.864   0.738  3.7165  1.0648  0.3980
 1397TIP3   OH225825   1.486   6.361   0.846 -0.1553  0.5059  0.2400
 1397TIP3    H125826   1.577   6.378   0.868  0.8546 -0.2173 -2.8761
 1397TIP3    H225827   1.472   6.270   0.871  0.4412  0.1929 -0.5235
 1398TIP3   OH225828   3.538   3.698   0.178 -0.1576  0.1826 -0.2626
 1398TIP3    H125829   3.602   3.637   0.142 -0.0946  0.6138 -0.8960
 1398TIP3    H225830   3.581   3.783   0.174 -0.2313  0.2688  0.6472
 1399TIP3   OH225831   4.460   1.335   0.063  0.3548 -0.3791  0.5872
 1399TIP3    H125832   4.484   1.339  -0.029 -1.2170 -0.8953  0.1384
 1399TIP3    H225833   4.532   1.381   0.108  1.2224 -0.2658 -0.8518
 1400TIP3   OH225834   5.672   4.950   8.464 -0.1402  0.0620  0.1022
 1400TIP3    H125835   5.658   5.027   8.409 -1.2139  0.0958  0.4062
 1400TIP3    H225836   5.729   4.893   8.411  1.1404  1.2812  0.1123
 1401TIP3   OH225837   0.833   4.374   8.561 -0.0416  0.4061 -0.7000
 1401TIP3    H125838   0.742   4.386   8.536  0.2291  1.1637 -1.3568
 1401TIP3    H225839   0.881   4.439   8.510  0.6496  1.3782  1.0939
 1402TIP3   OH225840   5.877   3.087   3.129 -0.5216 -0.1552 -0.1228
 1402TIP3    H125841   5.904   3.028   3.199  1.8134  0.3221 -0.5127
 1402TIP3    H225842   5.820   3.151   3.171  0.4759 -0.1420  1.2607
 1403TIP3   OH225843   6.061   6.597   2.085  0.5708  0.1279 -1.0742
 1403TIP3    H125844   5.982   6.594   2.031 -0.0205  0.5943 -0.2485
 1403TIP3    H225845   6.103   6.680   2.061  1.2735 -0.5014 -2.1241
 1404TIP3   OH225846   6.533   2.851   3.807  0.1709  0.7171  0.0372
 1404TIP3    H125847   6.520   2.792   3.882 -0.6624  1.5643  0.5859
 1404TIP3    H225848   6.467   2.823   3.743 -0.3566  1.1723  0.3773
 1405TIP3   OH225849   0.760   5.444   1.443  0.7074  0.7339 -0.8673
 1405TIP3    H125850   0.818   5.518   1.425  0.3530  1.0735 -0.6169
 1405TIP3    H225851   0.815   5.382   1.491  0.5178  1.6266  0.5619
 1406TIP3   OH225852   0.945   6.140   1.356  0.1929 -0.3625 -0.0830
 1406TIP3    H125853   1.006   6.182   1.416  0.4790  0.9794 -1.2699
 1406TIP3    H225854   1.000   6.085   1.300  0.6488  2.1540 -2.2809
 1407TIP3   OH225855   0.394   3.909   8.436 -0.2421  0.0789 -0.1777
 1407TIP3    H125856   0.428   3.953   8.359 -1.1042 -0.3398 -0.8215
 1407TIP3    H225857   0.357   3.827   8.403  2.8736 -2.0703  1.1897
 1408TIP3   OH225858   3.545   1.190   0.511  0.3371 -0.1987  0.4743
 1408TIP3    H125859   3.528   1.281   0.489 -2.6864 -1.2145 -2.2207
 1408TIP3    H225860   3.474   1.167   0.573  0.1518 -1.0582 -0.0357
 1409TIP3   OH225861   2.759   0.457   1.977  0.1522  0.1595  0.1588
 1409TIP3    H125862   2.785   0.545   2.004  0.0363  0.1442  0.3234
 1409TIP3    H225863   2.809   0.398   2.034 -1.1250  0.1422  1.3222
 1410TIP3   OH225864   5.181   5.251   1.852 -0.5049  0.2275 -0.1497
 1410TIP3    H125865   5.145   5.162   1.862  0.4815 -0.0611  0.9703
 1410TIP3    H225866   5.160   5.294   1.935  2.8124 -0.3810  1.1637
 1411TIP3   OH225867   4.643   3.754   0.020  0.6320  0.4817  0.2587
 1411TIP3    H125868   4.726   3.740   0.066  1.0979 -0.6025 -0.8479
 1411TIP3    H225869   4.640   3.683  -0.044 -1.0429  0.6627  0.1127
 1412TIP3   OH225870   1.284   1.127   0.694  0.2078  0.4135  0.3356
 1412TIP3    H125871   1.300   1.121   0.600  1.9738  0.3492  0.6062
 1412TIP3    H225872   1.328   1.050   0.731 -2.7676 -1.1210  1.0167
 1413TIP3   OH225873   5.661   1.438   3.326  0.1537 -0.0049 -0.1430
 1413TIP3    H125874   5.586   1.466   3.378 -1.2705  1.5536 -2.8169
 1413TIP3    H225875   5.679   1.349   3.356 -1.5274  0.2573  1.8834
 1414TIP3   OH225876   2.193   1.182   8.611 -0.0212 -0.3362  0.4316
 1414TIP3    H125877   2.100   1.166   8.597 -0.0262  0.0525 -0.0228
 1414TIP3    H225878   2.214   1.256   8.553  1.3567 -2.7060 -2.3576
 1415TIP3   OH225879   1.619   6.050   1.691  0.3045 -0.2936  0.2732
 1415TIP3    H125880   1.642   6.062   1.784  0.3963  3.9299 -0.0788
 1415TIP3    H225881   1.697   6.012   1.651  1.9752  1.8687  1.2845
 1416TIP3   OH225882   1.600   0.377   1.239  0.3889  0.2399  0.1392
 1416TIP3    H125883   1.552   0.429   1.304 -0.3874  0.3973 -0.5519
 1416TIP3    H225884   1.684   0.423   1.231 -0.0691  1.0674 -0.0422
 1417TIP3   OH225885   0.357   2.522   3.626 -0.3514  0.4219 -0.5976
 1417TIP3    H125886   0.404   2.602   3.650 -0.2726  0.1450  0.2083
 1417TIP3    H225887   0.405   2.488   3.551 -0.8096  1.4998 -1.4087
 1418TIP3   OH225888   0.528   3.932   3.528 -0.3439 -0.4901  0.0443
 1418TIP3    H125889   0.587   3.857   3.544  0.1575 -0.5774 -1.8904
 1418TIP3    H225890   0.478   3.941   3.608 -0.0309 -2.5791  0.5317
 1419TIP3   OH225891   0.204   5.832   8.214 -0.2237 -0.4310  0.0143
 1419TIP3    H125892   0.182   5.894   8.283 -0.6212 -0.3906 -0.1509
 1419TIP3    H225893   0.264   5.879   8.157  0.1794 -0.4935  0.3815
 1420TIP3   OH225894   3.780   3.647   2.635 -0.1601  0.1267  0.4048
 1420TIP3    H125895   3.708   3.646   2.573 -0.7264  2.0205  0.9741
 1420TIP3    H225896   3.859   3.648   2.581 -0.5610 -0.9015 -0.2242
 1421TIP3   OH225897   4.145   1.060   2.877  0.4850  0.3050 -0.0576
 1421TIP3    H125898   4.114   1.093   2.792 -0.1256  3.6590  1.3208
 1421TIP3    H225899   4.160   1.139   2.929 -0.3079 -1.6494  3.3807
 1422TIP3   OH225900   3.060   4.137   1.895  0.3320 -0.6654  0.1759
 1422TIP3    H125901   3.090   4.211   1.842 -1.2510  0.0588  0.2440
 1422TIP3    H225902   3.009   4.083   1.834 -1.8868  0.4096  1.0071
 1423TIP3   OH225903   3.890   4.964   4.148 -0.2705 -0.0331  0.1933
 1423TIP3    H125904   3.948   4.914   4.090 -0.9009 -1.1102  0.4483
 1423TIP3    H225905   3.913   4.934   4.236 -0.3602  0.4631  0.3865
 1424TIP3   OH225906   1.072   4.812   1.503 -0.4340 -0.4322 -0.3375
 1424TIP3    H125907   1.091   4.872   1.575 -0.5884  0.4184 -0.9842
 1424TIP3    H225908   1.024   4.866   1.439  0.7672 -0.8266 -1.6146
 1425TIP3   OH225909   6.273   2.786   2.830  0.4441  0.2427  0.3007
 1425TIP3    H125910   6.199   2.768   2.771  1.3155  0.6216 -0.9547
 1425TIP3    H225911   6.233   2.806   2.914 -0.7881 -2.0522  0.3259
 1426TIP3   OH225912   4.041   3.199   1.607 -0.3288 -0.0121 -0.4570
 1426TIP3    H125913   4.088   3.278   1.633 -0.5392 -0.2825  0.8212
 1426TIP3    H225914   4.111   3.136   1.586 -0.1625  0.4982 -1.5117
 1427TIP3   OH225915   1.679   6.551   2.509 -0.2563 -0.2459  0.2590
 1427TIP3    H125916   1.667   6.458   2.529 -2.3655 -0.1176 -0.2525
 1427TIP3    H225917   1.592   6.583   2.488  0.6753  1.4675 -1.2910
 1428TIP3   OH225918   0.415   1.806   0.077 -0.0044  0.0645  0.0224
 1428TIP3    H125919   0.466   1.883   0.104  0.2248 -0.7147  2.0175
 1428TIP3    H225920   0.478   1.749   0.033  0.4374 -0.0779  0.8190
 1429TIP3   OH225921   0.314   5.985   1.155  0.0102  0.8144  0.3859
 1429TIP3    H125922   0.316   6.006   1.248  2.1205 -0.1723  0.6006
 1429TIP3    H225923   0.253   5.912   1.148  1.9175 -0.9833  1.4784
 1430TIP3   OH225924   1.147   3.608   1.582  0.1578  0.4534 -0.3453
 1430TIP3    H125925   1.078   3.642   1.639  0.0030 -1.1523  0.4882
 1430TIP3    H225926   1.228   3.626   1.630 -0.0483 -2.1306  1.1812
 1431TIP3   OH225927   2.229   1.096   4.745 -0.0076 -0.2850  0.2193
 1431TIP3    H125928   2.159   1.031   4.756 -1.0258  0.8395  0.5344
 1431TIP3    H225929   2.309   1.044   4.740 -0.5463 -1.4681  2.7053
 1432TIP3   OH225930   1.352   0.347   2.217 -0.6772  0.4483 -0.2414
 1432TIP3    H125931   1.297   0.379   2.146 -1.6178  1.8291  1.0421
 1432TIP3    H225932   1.292   0.338   2.291  0.6230  0.9724  0.9141
 1433TIP3   OH225933   4.775   0.810   8.426 -0.5476  0.0460  0.1177
 1433TIP3    H125934   4.761   0.724   8.386 -1.6077 -0.1542  0.8752
 1433TIP3    H225935   4.764   0.872   8.354 -0.3952 -0.4204 -0.3134
 1434TIP3   OH225936   0.572   3.649   1.866 -0.4085 -0.1753 -0.0807
 1434TIP3    H125937   0.569   3.680   1.956  0.2422 -0.9157  0.2138
 1434TIP3    H225938   0.656   3.604   1.860 -0.8262 -0.8733 -0.8075
 1435TIP3   OH225939   5.605   3.166   1.775 -0.0622 -0.7324 -0.0240
 1435TIP3    H125940   5.568   3.147   1.862  1.4804 -0.7193  0.6688
 1435TIP3    H225941   5.594   3.260   1.765 -0.1622 -0.7188  0.2016
 1436TIP3   OH225942   2.124   5.052   0.971 -0.5132 -0.2855 -0.4171
 1436TIP3    H125943   2.070   5.091   0.902 -0.2202  0.9008 -0.0043
 1436TIP3    H225944   2.063   5.003   1.025 -1.4135  1.8368  0.6220
 1437TIP3   OH225945   3.802   3.443   2.810 -0.2093 -0.2241 -0.3816
 1437TIP3    H125946   3.720   3.403   2.778 -0.8551 -0.1605  1.1294
 1437TIP3    H225947   3.789   3.537   2.797  0.7531 -0.3384 -2.6452
 1438TIP3   OH225948   5.995   2.452   2.773 -0.2226  0.4265  0.2561
 1438TIP3    H125949   6.069   2.459   2.834  0.0958  0.4619 -0.1279
 1438TIP3    H225950   6.035   2.421   2.692 -1.0465 -2.8102  0.9281
 1439TIP3   OH225951   3.755   4.731   8.244  0.0992 -0.1679  0.5967
 1439TIP3    H125952   3.799   4.801   8.291 -1.8031  0.5156  1.4454
 1439TIP3    H225953   3.677   4.711   8.297 -1.2261 -0.5303 -1.3789
 1440TIP3   OH225954   5.995   6.677   0.544 -0.2883  0.9526 -0.5221
 1440TIP3    H125955   5.903   6.692   0.519 -0.9344  1.4429  1.8604
 1440TIP3    H225956   6.008   6.734   0.620  2.2220  1.3740 -1.1996
 1441TIP3   OH225957   5.650   3.398   0.273  0.2951  0.2181  0.2662
 1441TIP3    H125958   5.738   3.397   0.235  1.0855 -0.2646  2.0109
 1441TIP3    H225959   5.604   3.328   0.227  1.0184  0.0447 -0.2132
 1442TIP3   OH225960   0.904   6.005   3.476 -0.6899  0.0190 -0.1526
 1442TIP3    H125961   0.986   5.959   3.459 -0.3717 -0.1159  1.5116
 1442TIP3    H225962   0.845   5.978   3.406 -0.4614 -2.8140  0.6492
 1443TIP3   OH225963   3.800   6.171   3.706 -0.4355  0.1870 -0.3438
 1443TIP3    H125964   3.714   6.167   3.749  0.2932 -1.3159  1.0698
 1443TIP3    H225965   3.780   6.162   3.612 -2.0293  3.1197 -0.4051
 1444TIP3   OH225966   0.873   3.030   0.418  0.1531  0.3412 -0.0249
 1444TIP3    H125967   0.926   3.097   0.375 -0.6972  1.0651  0.0164
 1444TIP3    H225968   0.913   3.017   0.503  2.1774 -1.4808 -1.1519
 1445TIP3   OH225969   6.011   2.359   3.278 -0.3576 -0.1981 -0.0377
 1445TIP3    H125970   5.975   2.369   3.366 -0.1726  0.0432  0.0100
 1445TIP3    H225971   5.959   2.288   3.240 -1.1743  0.4176 -0.1205
 1446TIP3   OH225972   5.993   2.151   0.295  0.5649  0.1564  0.5527
 1446TIP3    H125973   5.916   2.118   0.248  0.7866 -0.4507  0.6056
 1446TIP3    H225974   6.012   2.235   0.255  1.4295 -0.8368 -1.2385
 1447TIP3   OH225975   5.777   0.314   2.041  0.4671 -0.1653 -0.4821
 1447TIP3    H125976   5.780   0.237   2.097 -0.1143 -0.7258 -1.2003
 1447TIP3    H225977   5.775   0.279   1.952  1.4309  0.7039 -0.8771
 1448TIP3   OH225978   0.775   3.438   1.852  0.8560  0.0861 -0.7653
 1448TIP3    H125979   0.715   3.398   1.915  2.4425 -0.8552  0.2424
 1448TIP3    H225980   0.787   3.371   1.785  1.0906  0.0992 -0.7369
 1449TIP3   OH225981   3.930   6.798   8.833 -0.2837  0.6087  0.6369
 1449TIP3    H125982   3.845   6.761   8.808  0.3968 -0.0555 -0.8031
 1449TIP3    H225983   3.986   6.783   8.757  1.0154  1.4233  1.3974
 1450TIP3   OH225984   5.984   2.564   1.199 -0.4261  0.2210  0.1366
 1450TIP3    H125985   5.994   2.604   1.285 -0.2352 -2.0645  1.2618
 1450TIP3    H225986   6.058   2.598   1.148  0.5519  0.1923  1.4782
 1451TIP3   OH225987   4.649   1.501   3.628 -0.0018  0.0007  0.0036
 1451TIP3    H125988   4.706   1.502   3.551 -1.0252 -1.5565 -0.7986
 1451TIP3    H225989   4.596   1.580   3.619 -0.1361 -0.1907 -0.8916
 1452TIP3   OH225990   2.256   3.512   2.268  0.0909 -0.1759 -0.0953
 1452TIP3    H125991   2.247   3.502   2.363  0.4775  0.4341  0.0110
 1452TIP3    H225992   2.176   3.473   2.232  0.3925 -1.3202  0.4214
 1453TIP3   OH225993   2.844   3.164   2.032 -0.0688  0.5196 -0.1886
 1453TIP3    H125994   2.938   3.151   2.020 -0.3364 -1.3209 -0.6890
 1453TIP3    H225995   2.810   3.181   1.944 -0.4495 -1.0278 -0.3843
 1454TIP3   OH225996   5.046   3.002   4.125  0.2792  0.1117 -0.5048
 1454TIP3    H125997   4.973   2.945   4.101 -1.2414  1.6466  0.2048
 1454TIP3    H225998   5.062   3.055   4.047 -1.5029  1.8559  0.1944
 1455TIP3   OH225999   5.205   6.588   2.009 -0.9153  0.2159 -0.2027
 1455TIP3    H126000   5.295   6.581   2.039 -1.2380  0.7084  0.9380
 1455TIP3    H226001   5.153   6.552   2.081 -1.6902  0.8485 -0.4343
 1456TIP3   OH226002   0.285   1.271   3.233 -0.3058  0.4523  0.0993
 1456TIP3    H126003   0.302   1.228   3.149  0.8581  0.6453  0.2204
 1456TIP3    H226004   0.270   1.199   3.294 -0.4726  0.2928 -0.1262
 1457TIP3   OH226005   6.488   5.145   0.221  0.2287  0.0493  0.2722
 1457TIP3    H126006   6.404   5.119   0.261 -0.5651  0.5869 -0.9771
 1457TIP3    H226007   6.463   5.189   0.140  1.7674 -0.2822 -0.4098
 1458TIP3   OH226008   0.876   3.097   1.561  0.1270  0.4806  0.5474
 1458TIP3    H126009   0.857   3.185   1.527 -2.1094 -0.1554  0.0556
 1458TIP3    H226010   0.850   3.101   1.653 -0.8726  0.0882  0.2922
 1459TIP3   OH226011   0.713   5.752   1.539 -0.0883  1.2057  0.0808
 1459TIP3    H126012   0.693   5.745   1.446  0.8961  0.3306 -0.0932
 1459TIP3    H226013   0.722   5.845   1.556  0.2546  1.3420 -0.8269
 1460TIP3   OH226014   2.819   4.361   2.730  0.3006  0.4536 -0.2904
 1460TIP3    H126015   2.866   4.393   2.652  0.3331 -0.7127 -0.7620
 1460TIP3    H226016   2.888   4.332   2.789  0.2075 -0.8188 -0.7883
 1461TIP3   OH226017   2.050   4.753   0.919 -0.4250  0.4547 -0.2430
 1461TIP3    H126018   2.128   4.778   0.968 -0.5734 -0.3783  0.4423
 1461TIP3    H226019   1.977   4.778   0.976 -0.5823 -1.3905  0.4386
 1462TIP3   OH226020   4.389   5.132   3.431 -0.1816 -1.0803  0.5068
 1462TIP3    H126021   4.369   5.218   3.393 -0.2955 -1.7359 -0.9782
 1462TIP3    H226022   4.311   5.108   3.480 -0.3045 -0.5228  0.5925
 1463TIP3   OH226023   2.893   3.586   2.146  0.2628 -0.3917 -0.4030
 1463TIP3    H126024   2.890   3.681   2.144  2.1637 -0.2979 -0.2911
 1463TIP3    H226025   2.930   3.561   2.061 -1.3295 -1.1192 -0.9155
 1464TIP3   OH226026   1.566   3.369   2.354 -0.2393 -0.0976 -0.2541
 1464TIP3    H126027   1.593   3.461   2.362 -2.1397  0.5205 -0.3952
 1464TIP3    H226028   1.525   3.348   2.438  1.1511 -1.1974  0.1870
 1465TIP3   OH226029   2.979   0.224   2.426  0.0211  0.5520 -0.5174
 1465TIP3    H126030   2.930   0.150   2.463  1.3733 -0.2728 -0.2927
 1465TIP3    H226031   2.964   0.216   2.332 -0.0640  0.1487 -0.4747
 1466TIP3   OH226032   5.771   3.626   1.560  0.2719 -0.2840 -1.0229
 1466TIP3    H126033   5.747   3.711   1.595  1.1679 -0.3945 -0.1211
 1466TIP3    H226034   5.762   3.636   1.465  0.9019  0.9728 -0.9629
 1467TIP3   OH226035   1.526   6.778   2.883 -0.0862  0.1904 -0.2424
 1467TIP3    H126036   1.525   6.758   2.789  1.7004 -0.6742 -0.1110
 1467TIP3    H226037   1.434   6.772   2.909 -0.4114 -1.4427 -1.5795
 1468TIP3   OH226038   2.007   1.967   0.150 -0.2626  0.0865  0.1686
 1468TIP3    H126039   2.066   1.966   0.074  1.1298  0.6863  1.2069
 1468TIP3    H226040   2.003   2.059   0.176 -1.4925  0.0271  0.2752
 1469TIP3   OH226041   4.341   5.582   2.228  0.3065 -0.8195 -0.2534
 1469TIP3    H126042   4.369   5.672   2.213 -0.5465 -0.3272  0.9441
 1469TIP3    H226043   4.269   5.568   2.167 -1.5912  0.3713  1.6200
 1470TIP3   OH226044   1.734   1.509   3.746  0.7316 -0.0789 -0.2631
 1470TIP3    H126045   1.764   1.476   3.661  1.3674 -1.7741  0.5823
 1470TIP3    H226046   1.647   1.472   3.757  0.6386  0.1608 -0.1773
 1471TIP3   OH226047   1.961   5.184   8.369  0.1366 -0.2031  0.5235
 1471TIP3    H126048   2.047   5.181   8.411  0.4181  0.1795 -0.0110
 1471TIP3    H226049   1.979   5.173   8.276  0.0210  3.3221 -0.0833
 1472TIP3   OH226050   6.524   1.943   4.112 -0.0907 -0.4804 -0.7145
 1472TIP3    H126051   6.521   1.911   4.202  1.2226 -1.7580 -1.0698
 1472TIP3    H226052   6.610   1.915   4.080 -1.6833 -2.9929 -3.3586
 1473TIP3   OH226053   3.191   1.435   2.191  0.0309  0.0606 -0.1394
 1473TIP3    H126054   3.280   1.436   2.156 -0.6230  0.3561 -1.8780
 1473TIP3    H226055   3.141   1.491   2.132 -1.0640  0.9457  1.5461
 1474TIP3   OH226056   3.164   0.935   1.794  0.5468 -0.4262  0.7716
 1474TIP3    H126057   3.088   0.964   1.744  0.3888 -0.4368  1.0003
 1474TIP3    H226058   3.128   0.912   1.880  0.6010 -1.7052  0.4612
 1475TIP3   OH226059   6.544   5.215   0.775 -0.5303  0.0167  0.1491
 1475TIP3    H126060   6.563   5.262   0.856  0.3560  0.1590 -0.1351
 1475TIP3    H226061   6.552   5.281   0.706 -3.0734  0.3449  0.0694
 1476TIP3   OH226062   1.778   3.186   3.921 -0.3150 -0.4489  0.4099
 1476TIP3    H126063   1.711   3.172   3.989 -0.5427  0.3551  0.3591
 1476TIP3    H226064   1.832   3.107   3.925  0.4925  0.1222  2.4555
 1477TIP3   OH226065   4.140   3.708   3.990  0.0385  0.6410 -0.0624
 1477TIP3    H126066   4.088   3.659   4.053  0.9582 -0.8233 -0.3924
 1477TIP3    H226067   4.157   3.792   4.033  0.6113 -0.3028  1.6395
 1478TIP3   OH226068   0.027   5.593   0.156 -0.5376 -0.3270  0.6871
 1478TIP3    H126069  -0.021   5.512   0.139 -0.2314 -0.4151  0.2455
 1478TIP3    H226070  -0.037   5.649   0.200 -0.4697 -1.1687  1.9298
 1479TIP3   OH226071   5.630   3.491   8.767 -0.2835  0.2674  0.5478
 1479TIP3    H126072   5.639   3.438   8.846  0.8623  0.7411  0.7574
 1479TIP3    H226073   5.602   3.577   8.798  1.2209  0.7781  0.5844
 1480TIP3   OH226074   0.427   1.157   1.070  0.5174  0.1426 -0.1032
 1480TIP3    H126075   0.455   1.154   0.978  0.2114  1.1742 -0.2420
 1480TIP3    H226076   0.504   1.185   1.118  0.1059  1.8044 -0.3402
 1481TIP3   OH226077   2.219   2.365   3.131  0.2094 -0.2783  0.0172
 1481TIP3    H126078   2.268   2.313   3.194 -0.3524 -0.9061 -0.0605
 1481TIP3    H226079   2.130   2.331   3.135 -0.2791  0.9774  0.2931
 1482TIP3   OH226080   6.355   6.145   1.898 -0.2805 -0.0842 -0.3393
 1482TIP3    H126081   6.298   6.105   1.964 -1.0633 -0.3657 -1.1638
 1482TIP3    H226082   6.429   6.180   1.948 -0.8590 -0.2839  0.6807
 1483TIP3   OH226083   0.830   6.725   0.540  0.2375 -0.2454 -0.4238
 1483TIP3    H126084   0.754   6.667   0.537 -0.9008  1.2175 -1.3689
 1483TIP3    H226085   0.800   6.806   0.498  1.7758  1.0149  0.7837
 1484TIP3   OH226086   3.303   2.262   2.531 -0.0600  0.0838 -0.3546
 1484TIP3    H126087   3.220   2.302   2.557 -0.6653 -0.8840 -0.7477
 1484TIP3    H226088   3.333   2.316   2.457 -0.8463 -0.1574 -0.8579
 1485TIP3   OH226089   2.141   5.767   1.082  0.0387 -0.1572 -0.1781
 1485TIP3    H126090   2.089   5.741   1.158 -0.5939 -1.0302 -0.8871
 1485TIP3    H226091   2.217   5.709   1.084 -0.0492 -0.2755 -0.2947
 1486TIP3   OH226092   2.505   6.322   0.195 -0.3960  0.5270 -0.3877
 1486TIP3    H126093   2.455   6.382   0.139  0.9285  3.2728  1.1892
 1486TIP3    H226094   2.569   6.378   0.238  1.8905 -2.3105  0.1540
 1487TIP3   OH226095   4.915   4.411   0.421 -0.1709 -0.0954 -0.4370
 1487TIP3    H126096   4.986   4.396   0.359  2.7652  1.2066  2.3799
 1487TIP3    H226097   4.886   4.501   0.403  0.4827  0.1842 -0.0844
 1488TIP3   OH226098   4.308   2.324   2.174 -0.1178  0.4091 -0.2508
 1488TIP3    H126099   4.268   2.395   2.226 -2.4455 -1.5870  0.8667
 1488TIP3    H226100   4.263   2.245   2.204  2.0992 -1.5127 -1.7534
 1489TIP3   OH226101   5.693   3.062   8.713 -0.0086  0.0946  0.1461
 1489TIP3    H126102   5.773   3.035   8.667  0.1164  1.1302 -0.2578
 1489TIP3    H226103   5.715   3.146   8.753 -1.4561  1.3829 -1.5780
 1490TIP3   OH226104   1.351   1.118   0.413 -0.1295  0.2910 -0.2103
 1490TIP3    H126105   1.347   1.136   0.319  0.9926  1.5010 -0.0567
 1490TIP3    H226106   1.441   1.090   0.428 -1.4795 -5.3225 -0.3028
 1491TIP3   OH226107   2.216   5.356   8.170 -0.1542  0.2535 -0.1521
 1491TIP3    H126108   2.147   5.395   8.116 -1.5951 -1.4142  0.3977
 1491TIP3    H226109   2.218   5.264   8.145  1.1430  0.0382  0.6284
 1492TIP3   OH226110   3.556   5.199   1.984 -0.0451  0.1975 -0.1170
 1492TIP3    H126111   3.614   5.276   1.989 -0.8216  0.8004 -0.2071
 1492TIP3    H226112   3.468   5.236   1.986 -0.4957 -0.8303  2.4326
 1493TIP3   OH226113   1.705   0.487   4.223  0.4719 -0.1477 -0.1797
 1493TIP3    H126114   1.682   0.574   4.258 -0.0847 -0.6132  0.6528
 1493TIP3    H226115   1.627   0.459   4.176  0.8407  0.0126 -0.9091
 1494TIP3   OH226116   6.740   0.087   3.338 -0.4856  0.2161  0.1862
 1494TIP3    H126117   6.680   0.036   3.283  0.7513 -1.5092  0.3720
 1494TIP3    H226118   6.827   0.067   3.304  0.0579  2.5529  0.0268
 1495TIP3   OH226119   2.094   1.409   2.156  0.0508  0.5375 -0.5021
 1495TIP3    H126120   2.003   1.408   2.124 -0.9753 -1.0218  2.0817
 1495TIP3    H226121   2.123   1.499   2.144 -1.9343  1.1336 -1.1986
 1496TIP3   OH226122   1.172   3.575   2.991 -0.0917 -0.1780  0.9378
 1496TIP3    H126123   1.107   3.551   3.056 -1.0819 -0.9959 -0.3261
 1496TIP3    H226124   1.157   3.516   2.917  0.1278  1.5783 -0.5816
 1497TIP3   OH226125   2.697   0.763   2.056  0.0261  0.7893 -0.2005
 1497TIP3    H126126   2.654   0.716   1.985  1.7128  0.6392 -1.1877
 1497TIP3    H226127   2.699   0.854   2.026  0.2663  0.8166 -0.1025
 1498TIP3   OH226128   3.921   3.564   3.035 -0.2282  0.0327  0.1687
 1498TIP3    H126129   3.897   3.517   3.115  0.1888  0.2049  0.4035
 1498TIP3    H226130   3.875   3.518   2.965  1.2625 -1.6376  0.1990
 1499TIP3   OH226131   0.539   5.139   4.052  0.0372  0.4070 -0.1085
 1499TIP3    H126132   0.539   5.199   4.127 -0.1115 -0.6905  0.7923
 1499TIP3    H226133   0.512   5.193   3.978  1.2567  1.7773  0.4038
 1500TIP3   OH226134   5.092   1.369   0.643  0.2966 -0.6127  0.1442
 1500TIP3    H126135   5.171   1.408   0.607 -0.1572  0.8410  0.6424
 1500TIP3    H226136   5.024   1.390   0.579 -0.0682  0.0023  0.7109
 1501TIP3   OH226137   5.588   6.157   2.920  0.3930 -0.8755 -0.3779
 1501TIP3    H126138   5.569   6.097   2.849 -0.5192 -1.2972  0.2092
 1501TIP3    H226139   5.655   6.113   2.972  0.5840 -0.8554 -0.6068
 1502TIP3   OH226140   6.438   1.760   2.233 -0.0707  0.3992  0.6142
 1502TIP3    H126141   6.532   1.746   2.227  0.2796  2.8703 -1.4738
 1502TIP3    H226142   6.405   1.738   2.146 -0.8649  2.6016  0.2917
 1503TIP3   OH226143   1.807   0.918   8.541 -0.4318 -0.1406  0.2935
 1503TIP3    H126144   1.737   0.853   8.536  0.1051 -0.6748 -0.4223
 1503TIP3    H226145   1.786   0.981   8.471 -0.9826  0.5130  1.0207
 1504TIP3   OH226146   2.542   5.504   1.571  0.6474 -0.1097  0.6201
 1504TIP3    H126147   2.465   5.503   1.627  0.8898 -1.0388  0.9569
 1504TIP3    H226148   2.526   5.574   1.509 -2.7834 -3.2061 -2.5180
 1505TIP3   OH226149   6.809   4.245   1.311 -0.3741  0.1527 -0.2594
 1505TIP3    H126150   6.796   4.331   1.271  2.4538  0.8995  0.2374
 1505TIP3    H226151   6.804   4.183   1.237 -0.4924  0.9483 -0.9356
 1506TIP3   OH226152   4.070   3.618   2.159  0.4663  0.0589  0.6436
 1506TIP3    H126153   4.132   3.589   2.092  0.9085 -1.5086  1.6740
 1506TIP3    H226154   4.037   3.537   2.197  0.1750  0.9008  2.2701
 1507TIP3   OH226155   1.088   5.631   3.428 -0.4215  0.5918 -0.0624
 1507TIP3    H126156   1.123   5.651   3.515 -1.4630  0.2347  0.4480
 1507TIP3    H226157   1.148   5.565   3.393  0.5052  1.3596  0.0106
 1508TIP3   OH226158   6.175   1.382   0.100 -0.0202 -0.3399  0.4084
 1508TIP3    H126159   6.249   1.348   0.151 -0.8937 -0.9508  1.3191
 1508TIP3    H226160   6.212   1.452   0.047  0.7207  1.3492  2.9641
 1509TIP3   OH226161   3.115   5.222   0.344  0.3510  0.6994  0.1285
 1509TIP3    H126162   3.036   5.275   0.333 -0.1604 -0.1356 -0.3124
 1509TIP3    H226163   3.118   5.205   0.438 -1.5545 -1.5353 -0.1260
 1510TIP3   OH226164   1.783   1.847   1.549 -0.1649 -0.2159  0.0802
 1510TIP3    H126165   1.729   1.864   1.472  0.0724  1.1291  0.1857
 1510TIP3    H226166   1.728   1.791   1.604 -0.5071 -0.8308 -0.8485
 1511TIP3   OH226167   2.247   1.270   2.813  0.7027 -0.3682 -0.5647
 1511TIP3    H126168   2.246   1.304   2.902 -1.2530 -1.6165 -0.0442
 1511TIP3    H226169   2.289   1.338   2.761  0.1051  1.2533  0.9966
 1512TIP3   OH226170   0.213   6.200   3.255  0.0217  0.1777 -0.1768
 1512TIP3    H126171   0.295   6.220   3.301 -0.4645 -0.2815  0.9157
 1512TIP3    H226172   0.214   6.257   3.178  0.5008  1.5261  0.8047
 1513TIP3   OH226173   0.603   0.996   4.047 -0.0982  0.0799 -0.2744
 1513TIP3    H126174   0.509   0.997   4.066 -0.1712 -1.0757 -0.5137
 1513TIP3    H226175   0.642   0.949   4.120  0.4553  1.5277  0.3996
 1514TIP3   OH226176   1.615   3.074   2.112 -0.1759  0.0379 -0.1219
 1514TIP3    H126177   1.676   3.065   2.038 -0.5024 -0.4326 -0.3393
 1514TIP3    H226178   1.538   3.024   2.085 -0.1436 -0.4779  0.7128
 1515TIP3   OH226179   1.228   6.188   0.983  0.1853 -0.5812  0.3073
 1515TIP3    H126180   1.169   6.263   0.972  0.5695 -0.2583  0.3848
 1515TIP3    H226181   1.305   6.226   1.026 -0.2369 -1.3014  1.7634
 1516TIP3   OH226182   5.581   2.132   3.336 -0.0510  0.5419 -0.2472
 1516TIP3    H126183   5.602   2.190   3.409  1.8047 -0.2857 -0.0678
 1516TIP3    H226184   5.657   2.139   3.278 -0.4069 -0.6730 -0.8856
 1517TIP3   OH226185   5.663   5.996   3.530 -0.2390  0.3056 -0.1996
 1517TIP3    H126186   5.671   5.996   3.435 -1.8421  0.4962 -0.3616
 1517TIP3    H226187   5.609   5.920   3.550 -2.3448  1.8385  0.2689
 1518TIP3   OH226188   1.126   1.951   1.969  0.7803  0.4246  0.3255
 1518TIP3    H126189   1.171   2.023   2.013  1.4105  0.3916 -0.2486
 1518TIP3    H226190   1.034   1.965   1.989  0.9234  1.2135  0.4802
 1519TIP3   OH226191   3.675   1.861   1.893  0.4597  0.1113 -0.4968
 1519TIP3    H126192   3.683   1.802   1.818 -0.7232  1.5922 -1.8702
 1519TIP3    H226193   3.616   1.930   1.862 -0.2050  0.6876  1.8802
 1520TIP3   OH226194   3.999   2.567   3.024  0.2826  0.5998  0.4100
 1520TIP3    H126195   4.011   2.508   3.099  0.6937 -0.5479 -0.5275
 1520TIP3    H226196   4.056   2.641   3.044  1.3612 -0.2688  0.6662
 1521TIP3   OH226197   3.409   3.679   0.863  0.2426  0.2054  0.0113
 1521TIP3    H126198   3.329   3.625   0.859 -0.7171  1.4413  1.5014
 1521TIP3    H226199   3.409   3.726   0.780  0.2256 -0.8782 -0.6241
 1522TIP3   OH226200   6.021   3.129   1.122  0.5048 -0.4569 -0.3863
 1522TIP3    H126201   6.054   3.180   1.196  0.6958 -1.0813 -0.0361
 1522TIP3    H226202   6.098   3.116   1.066 -0.0517  1.8696 -1.8291
 1523TIP3   OH226203   3.680   4.869   1.454 -0.2868 -1.0155  0.5814
 1523TIP3    H126204   3.595   4.847   1.414 -0.1359  0.7427 -0.8479
 1523TIP3    H226205   3.671   4.961   1.479  0.5838 -1.3449  2.1671
 1524TIP3   OH226206   2.287   5.788   0.503 -0.0218  0.2009  0.7766
 1524TIP3    H126207   2.308   5.699   0.531 -0.6414 -0.7235 -1.4866
 1524TIP3    H226208   2.302   5.842   0.580  2.3053 -1.5765  1.6733
 1525TIP3   OH226209   2.044   3.855   3.594  0.3646  0.1713  0.0145
 1525TIP3    H126210   2.026   3.940   3.553  0.0355  0.0001 -0.1911
 1525TIP3    H226211   2.063   3.796   3.521  1.2897  0.2322  0.1961
 1526TIP3   OH226212   1.085   5.002   2.813 -0.5700  0.6298 -0.2435
 1526TIP3    H126213   1.084   5.001   2.908 -1.8583 -0.7385 -0.2541
 1526TIP3    H226214   1.174   4.973   2.790 -1.0301 -1.5426  0.5481
 1527TIP3   OH226215   0.896   2.104   3.763 -0.1055 -0.0111 -0.1746
 1527TIP3    H126216   0.961   2.067   3.822 -0.4026 -1.5333 -0.7641
 1527TIP3    H226217   0.898   2.048   3.686 -0.5838  1.2200 -1.1215
 1528TIP3   OH226218   0.258   2.052   8.430 -0.4217  0.1074 -0.3256
 1528TIP3    H126219   0.224   2.005   8.355 -2.7375 -0.3380  0.9123
 1528TIP3    H226220   0.351   2.031   8.431 -0.6488 -1.2081 -2.0926
 1529TIP3   OH226221   2.045   2.619   3.073  0.2969 -0.1232  0.8218
 1529TIP3    H126222   1.996   2.536   3.070  0.9523 -0.5058  0.3828
 1529TIP3    H226223   2.073   2.626   3.164 -1.3858  0.6095  1.3374
 1530TIP3   OH226224   5.104   3.146   3.871  1.0100  0.3718 -0.2646
 1530TIP3    H126225   5.032   3.201   3.840  2.7814  2.2185 -1.4170
 1530TIP3    H226226   5.112   3.077   3.805  0.8280  0.6839 -0.6205
 1531TIP3   OH226227   1.366   1.220   3.397  0.5142 -0.1044 -0.0839
 1531TIP3    H126228   1.352   1.126   3.411  0.1708 -0.0976 -0.3780
 1531TIP3    H226229   1.361   1.259   3.484 -1.7283 -0.0411 -0.1863
 1532TIP3   OH226230   6.744   2.500   1.682 -0.4169 -0.1845 -0.1557
 1532TIP3    H126231   6.725   2.500   1.775  0.2766  0.4315 -0.0005
 1532TIP3    H226232   6.768   2.409   1.662  1.4203  0.0651  0.7167
 1533TIP3   OH226233   0.697   3.972   1.442 -0.1412 -0.2042 -0.1640
 1533TIP3    H126234   0.712   3.938   1.530 -0.9640  0.9298  0.4387
 1533TIP3    H226235   0.655   4.057   1.456 -0.0150  0.1274 -1.6504
 1534TIP3   OH226236   5.446   0.224   0.688  0.3875 -0.2083  0.0654
 1534TIP3    H126237   5.507   0.294   0.665 -0.3946  0.6841  0.6577
 1534TIP3    H226238   5.490   0.144   0.658  1.8957  0.3900  0.5655
 1535TIP3   OH226239   4.000   1.829   1.694 -0.4180  0.5294  0.5619
 1535TIP3    H126240   4.061   1.867   1.631  0.1500  0.8125  1.2653
 1535TIP3    H226241   4.037   1.851   1.780 -1.8113  1.2019  1.0156
 1536TIP3   OH226242   1.484   3.687   0.988 -0.1133  0.0420  0.2389
 1536TIP3    H126243   1.405   3.733   1.015 -0.4710 -0.5630  0.2468
 1536TIP3    H226244   1.551   3.713   1.051 -0.7704 -0.8632  1.3380
 1537TIP3   OH226245   5.293   6.666   1.416 -0.0778 -0.2522  0.1843
 1537TIP3    H126246   5.291   6.584   1.465  1.7251 -0.4866 -0.0458
 1537TIP3    H226247   5.382   6.699   1.428 -0.2258  0.7659 -1.1789
 1538TIP3   OH226248   4.929   5.217   3.573  0.1434 -0.2425  0.1421
 1538TIP3    H126249   4.902   5.212   3.481 -1.2944  0.1977  0.5208
 1538TIP3    H226250   4.865   5.276   3.613 -0.0710 -1.5059  1.7237
 1539TIP3   OH226251   2.449   0.308   3.244 -0.1232  0.5345  0.4114
 1539TIP3    H126252   2.512   0.342   3.308  0.3945  0.1187  0.1330
 1539TIP3    H226253   2.488   0.328   3.159 -1.5077  2.3985  0.1674
 1540TIP3   OH226254   6.148   3.953   3.015 -0.5147  0.3737  0.5904
 1540TIP3    H126255   6.125   3.863   2.990 -1.0642 -0.1589  2.7626
 1540TIP3    H226256   6.161   3.999   2.932 -3.0846 -0.9551 -0.6798
 1541TIP3   OH226257   3.800   3.435   2.397 -0.2776 -0.5008 -0.5862
 1541TIP3    H126258   3.856   3.407   2.325  0.2981 -2.6051  0.5756
 1541TIP3    H226259   3.862   3.462   2.466 -0.6774 -1.7704  0.3038
 1542TIP3   OH226260   5.275   4.993   2.732 -0.4406  0.2431 -0.0583
 1542TIP3    H126261   5.196   4.948   2.702 -0.0662  1.8124 -3.9441
 1542TIP3    H226262   5.243   5.071   2.778 -1.1157  0.1573 -0.3803
 1543TIP3   OH226263   2.750   4.584   0.402 -0.2457  0.2758 -0.5807
 1543TIP3    H126264   2.731   4.500   0.445 -2.3104  0.4660 -0.9890
 1543TIP3    H226265   2.760   4.562   0.310  3.4349 -0.0264 -0.2363
 1544TIP3   OH226266   4.051   1.859   1.988  0.4289  0.3832  0.1081
 1544TIP3    H126267   4.114   1.787   1.996  0.9827  0.7629 -0.6944
 1544TIP3    H226268   3.973   1.827   2.031  0.6774 -0.6994 -0.2063
 1545TIP3   OH226269   6.043   3.661   2.860 -0.2132  0.4021 -0.3153
 1545TIP3    H126270   5.998   3.668   2.776 -0.8784 -1.8246 -0.2083
 1545TIP3    H226271   6.005   3.583   2.901  0.9418  0.7582  1.5374
 1546TIP3   OH226272   2.354   4.194   0.935 -0.1847  0.5414  0.5609
 1546TIP3    H126273   2.419   4.147   0.883 -1.6685 -2.4917  1.2389
 1546TIP3    H226274   2.366   4.161   1.024 -1.7388  0.9452  0.9555
 1547TIP3   OH226275   5.092   4.619   2.405  0.1865 -0.1603 -0.1238
 1547TIP3    H126276   5.169   4.636   2.351  0.7415 -0.1806  0.6418
 1547TIP3    H226277   5.127   4.577   2.484 -0.6642 -0.6390  0.0131
 1548TIP3   OH226278   1.304   2.642   4.231 -0.2519 -0.2340  0.4726
 1548TIP3    H126279   1.262   2.615   4.313 -0.1439 -2.5353 -0.1574
 1548TIP3    H226280   1.392   2.606   4.235  0.0930  0.4822 -0.2606
 1549TIP3   OH226281   2.515   0.069   3.771 -0.2051 -0.1186 -0.4063
 1549TIP3    H126282   2.466   0.058   3.690  0.5640  0.2852 -0.9376
 1549TIP3    H226283   2.508  -0.015   3.816 -1.2487 -0.1191 -0.5339
 1550TIP3   OH226284   6.346   1.346   1.082  0.0075  0.4998  0.5261
 1550TIP3    H126285   6.410   1.410   1.113  2.5919 -1.5533 -0.2084
 1550TIP3    H226286   6.367   1.266   1.131 -2.3884 -0.1518  0.6069
 1551TIP3   OH226287   2.395   6.539   0.047  0.6090  0.4448 -0.7208
 1551TIP3    H126288   2.310   6.531   0.005  0.3031 -0.2155 -0.0005
 1551TIP3    H226289   2.378   6.593   0.125  1.1405  1.5333 -1.3331
 1552TIP3   OH226290   3.776   3.458   0.682  0.1331  0.5087 -0.2448
 1552TIP3    H126291   3.764   3.498   0.768  0.4273  0.8453 -0.3551
 1552TIP3    H226292   3.697   3.406   0.668 -0.1468  0.8633  0.0062
 1553TIP3   OH226293   6.435   5.025   2.863  0.6796  0.8835 -0.0778
 1553TIP3    H126294   6.364   5.059   2.809  0.7393  1.1881  0.0338
 1553TIP3    H226295   6.418   5.062   2.950 -1.1505 -1.9424  0.9296
 1554TIP3   OH226296   0.741   0.108   2.063  0.4860  0.6718 -0.1913
 1554TIP3    H126297   0.733   0.160   1.982  0.2014  1.5500  0.3920
 1554TIP3    H226298   0.684   0.033   2.048  0.0284  1.0899 -0.6062
 1555TIP3   OH226299   3.831   5.279   8.701  0.2873  0.2058 -0.5934
 1555TIP3    H126300   3.798   5.349   8.645 -0.1234  2.3345  2.0669
 1555TIP3    H226301   3.846   5.205   8.642 -0.2081  2.1996 -3.4025
 1556TIP3   OH226302   3.464   6.174   0.316 -0.3925 -0.2473 -0.1996
 1556TIP3    H126303   3.388   6.117   0.310 -0.1515 -0.5321 -0.5989
 1556TIP3    H226304   3.481   6.201   0.226  0.7118 -1.1632 -0.2997
 1557TIP3   OH226305   3.872   3.029   1.112 -0.0976  0.1053  0.5750
 1557TIP3    H126306   3.928   3.061   1.042 -2.3954  3.4853  0.0168
 1557TIP3    H226307   3.916   3.057   1.193 -0.2158  1.4134  0.2049
 1558TIP3   OH226308   3.646   6.822   2.978  0.7572  0.3290  0.3749
 1558TIP3    H126309   3.607   6.891   3.032  1.6951  0.9872  0.2374
 1558TIP3    H226310   3.595   6.744   2.998  0.6497  0.7170  1.6914
 1559TIP3   OH226311   0.522   6.270   8.655  0.4624 -0.8611 -0.6149
 1559TIP3    H126312   0.580   6.242   8.726 -0.9762 -2.1627  0.1211
 1559TIP3    H226313   0.442   6.219   8.668 -0.5696  0.2964 -2.0452
 1560TIP3   OH226314   0.119   3.713   8.052  0.2456  0.4596  0.0554
 1560TIP3    H126315   0.101   3.685   8.141 -0.4025 -0.1041 -0.2490
 1560TIP3    H226316   0.111   3.809   8.055  0.5554  0.4707  0.6666
 1561TIP3   OH226317   1.991   3.185   0.711 -0.0731  0.2066 -0.1394
 1561TIP3    H126318   1.988   3.122   0.639 -0.2190 -0.4121  0.3943
 1561TIP3    H226319   1.927   3.152   0.775  0.2168  0.6146  0.3722
 1562TIP3   OH226320   4.660   0.909   2.114 -0.5692  0.1352  0.3525
 1562TIP3    H126321   4.722   0.979   2.097  0.4601 -0.5014  1.3483
 1562TIP3    H226322   4.639   0.874   2.027 -0.3486  1.0246 -0.0695
 1563TIP3   OH226323   3.185   3.168   3.294 -0.1156 -0.5528 -0.6093
 1563TIP3    H126324   3.152   3.081   3.272 -0.9178  0.2432 -2.8373
 1563TIP3    H226325   3.108   3.216   3.325 -0.0893 -0.0836 -1.2521
 1564TIP3   OH226326   0.328   0.079   1.348 -0.6275  0.0654  0.3406
 1564TIP3    H126327   0.388   0.008   1.325 -0.3989  0.1785  0.5827
 1564TIP3    H226328   0.283   0.099   1.266  1.5022  1.7319 -0.5142
 1565TIP3   OH226329   3.535   4.436   3.885 -0.6837 -0.0283 -0.5156
 1565TIP3    H126330   3.611   4.467   3.934 -1.0893 -0.0844  0.1594
 1565TIP3    H226331   3.513   4.353   3.925 -0.2543 -0.7067 -1.6266
 1566TIP3   OH226332   3.684   5.962   1.923 -0.3936  0.2015 -0.1679
 1566TIP3    H126333   3.754   6.010   1.968 -0.5613  1.6086 -1.3340
 1566TIP3    H226334   3.605   5.981   1.974 -0.3350  0.6147 -0.2271
 1567TIP3   OH226335   6.130   1.035   3.205 -0.5444  0.0488  0.7379
 1567TIP3    H126336   6.166   0.947   3.193 -1.5779 -0.1669 -1.1009
 1567TIP3    H226337   6.208   1.090   3.217  0.6846 -0.2901 -3.8341
 1568TIP3   OH226338   5.227   2.288   2.824 -0.3454 -0.8917 -0.3106
 1568TIP3    H126339   5.251   2.378   2.844 -0.6146 -1.1418  1.2788
 1568TIP3    H226340   5.285   2.235   2.879 -1.6228 -1.6092  0.3878
 1569TIP3   OH226341   3.133   4.311   0.308 -0.2255 -0.1924  0.3333
 1569TIP3    H126342   3.112   4.218   0.313  0.8216 -0.4804 -0.2697
 1569TIP3    H226343   3.221   4.314   0.270 -0.4731  1.0759 -0.1921
 1570TIP3   OH226344   6.211   3.435   3.056  0.1103 -0.6435  0.0460
 1570TIP3    H126345   6.123   3.453   3.024  0.9600  0.4225 -1.8505
 1570TIP3    H226346   6.207   3.347   3.092 -1.7349 -0.5741  0.0736
 1571TIP3   OH226347   0.731   2.673   2.136  0.2776 -0.0001  0.4409
 1571TIP3    H126348   0.791   2.746   2.119  0.1237  0.0898  0.2789
 1571TIP3    H226349   0.694   2.652   2.050  0.3890 -0.3291  0.4716
 1572TIP3   OH226350   0.868   3.123   2.747 -0.8812 -0.9976  0.8003
 1572TIP3    H126351   0.789   3.109   2.696 -0.3967 -0.6349 -0.0734
 1572TIP3    H226352   0.865   3.056   2.815 -2.7607  0.0699  1.8178
 1573TIP3   OH226353   5.828   1.211   2.223 -0.1641 -0.5985 -0.7146
 1573TIP3    H126354   5.740   1.199   2.257  0.2785 -0.1762  0.6337
 1573TIP3    H226355   5.881   1.147   2.272  0.7037  0.8746  0.3646
 1574TIP3   OH226356   0.604   6.501   0.675  0.0912 -0.7309 -0.4064
 1574TIP3    H126357   0.565   6.487   0.588  1.2524 -0.4066 -1.0004
 1574TIP3    H226358   0.695   6.475   0.664  0.1707 -1.0319  0.8293
 1575TIP3   OH226359   2.394   5.529   0.531  0.0115 -0.2165  0.5491
 1575TIP3    H126360   2.342   5.459   0.492 -1.3723  0.0405  1.8665
 1575TIP3    H226361   2.484   5.510   0.503 -0.6428 -1.1646 -1.0476
 1576TIP3   OH226362   2.832   3.173   2.796  0.2913  0.2343  0.0650
 1576TIP3    H126363   2.808   3.256   2.755  0.1079 -0.7026 -1.8071
 1576TIP3    H226364   2.753   3.120   2.792  0.4055 -0.0614  1.2463
 1577TIP3   OH226365   0.711   0.028   3.582  0.5417  0.1488 -0.0749
 1577TIP3    H126366   0.688   0.015   3.674  2.2576  0.9240  0.5091
 1577TIP3    H226367   0.635  -0.002   3.534  0.2987 -2.0062  1.5267
 1578TIP3   OH226368   3.483   2.814   3.452 -0.3591  0.5163 -0.1160
 1578TIP3    H126369   3.502   2.812   3.546 -0.3248 -2.8740 -0.0600
 1578TIP3    H226370   3.393   2.844   3.446 -1.5435 -2.3393  1.3960
 1579TIP3   OH226371   5.228   3.078   2.992  0.3153 -0.4738  0.0809
 1579TIP3    H126372   5.288   3.004   3.008  0.2132 -0.3318  1.1304
 1579TIP3    H226373   5.284   3.155   2.997  0.0219 -0.3296  1.2220
 1580TIP3   OH226374   1.675   4.162   1.355  0.1373  0.0135  0.1044
 1580TIP3    H126375   1.601   4.132   1.407 -0.0061  0.1450 -0.0218
 1580TIP3    H226376   1.752   4.146   1.410 -0.0082  0.1231  0.3409
 1581TIP3   OH226377   6.394   1.153   2.648 -0.1519 -0.1565  0.0222
 1581TIP3    H126378   6.322   1.206   2.682 -1.1445 -0.8115 -0.9550
 1581TIP3    H226379   6.462   1.215   2.625 -1.2260  0.6944 -0.9530
 1582TIP3   OH226380   5.716   0.122   0.743  0.3143 -0.4861 -0.3981
 1582TIP3    H126381   5.654   0.189   0.774 -0.1767 -0.1771 -1.9933
 1582TIP3    H226382   5.798   0.143   0.789 -0.3956 -0.1023  0.7417
 1583TIP3   OH226383   6.282   2.719   2.434  0.2774 -0.2378 -0.2818
 1583TIP3    H126384   6.281   2.643   2.491  0.9207  0.9771  1.4186
 1583TIP3    H226385   6.374   2.737   2.418  0.1226 -0.0544 -1.0145
 1584TIP3   OH226386   1.983   3.038   3.078  0.0616  0.3244  0.0628
 1584TIP3    H126387   1.923   2.983   3.028 -0.7635  2.1965 -1.1134
 1584TIP3    H226388   2.070   3.015   3.044  0.0924 -2.1309  1.5158
 1585TIP3   OH226389   3.401   5.966   2.032  0.0380  0.4617 -0.0629
 1585TIP3    H126390   3.366   5.901   1.971 -1.8206  1.2530  0.1099
 1585TIP3    H226391   3.425   5.914   2.109 -1.0946 -0.0866 -0.0564
 1586TIP3   OH226392   3.373   0.727   0.190 -0.3751 -0.5607 -0.1631
 1586TIP3    H126393   3.348   0.819   0.175 -2.1453 -1.0972 -0.7568
 1586TIP3    H226394   3.456   0.717   0.144  0.3347  0.9626  0.6908
 1587TIP3   OH226395   3.910   3.424   8.561  0.8552  0.1640 -0.0595
 1587TIP3    H126396   3.864   3.343   8.541 -0.4223  0.1588  2.4859
 1587TIP3    H226397   3.970   3.436   8.487 -1.0190 -1.4674 -1.9936
 1588TIP3   OH226398   0.619   6.465   3.810  0.5808 -0.5443  0.0705
 1588TIP3    H126399   0.693   6.477   3.869 -0.4032 -0.1513  1.2816
 1588TIP3    H226400   0.562   6.403   3.857  0.2127 -0.9568 -0.9040
 1589TIP3   OH226401   2.517   5.880   3.295  0.2602  0.3864 -0.0623
 1589TIP3    H126402   2.588   5.845   3.242  0.2133 -0.0122  0.1297
 1589TIP3    H226403   2.514   5.822   3.372 -1.6849 -0.9960 -1.0706
 1590TIP3   OH226404   2.851   5.688   2.372 -0.0869  0.6234 -0.5517
 1590TIP3    H126405   2.918   5.715   2.309  1.6480 -0.5938  0.6896
 1590TIP3    H226406   2.894   5.694   2.457 -1.7234  0.2477  0.3434
 1591TIP3   OH226407   1.335   5.464   1.180 -0.2158  0.1773  0.6334
 1591TIP3    H126408   1.355   5.393   1.241  1.0787  0.6913  0.8243
 1591TIP3    H226409   1.386   5.538   1.211  0.2517  0.5325 -0.9103
 1592TIP3   OH226410   0.032   0.548   1.030 -0.0881  0.5812 -0.8863
 1592TIP3    H126411   0.127   0.547   1.043 -0.2828  0.7542  0.7119
 1592TIP3    H226412   0.019   0.503   0.946  1.2637 -1.7089  0.0302
 1593TIP3   OH226413   5.484   3.783   2.784 -0.4437 -0.2407 -0.0208
 1593TIP3    H126414   5.444   3.708   2.829  0.1919  0.6668  2.1601
 1593TIP3    H226415   5.438   3.787   2.700 -2.6557 -1.2084  1.0536
 1594TIP3   OH226416   2.596   4.653   0.637 -0.4850  0.4308  0.1620
 1594TIP3    H126417   2.605   4.576   0.693  0.6947  0.8368  0.5496
 1594TIP3    H226418   2.502   4.656   0.616 -0.5764 -1.0280  0.2356
 1595TIP3   OH226419   6.148   0.223   3.434 -1.0279 -0.3564  0.4390
 1595TIP3    H126420   6.185   0.134   3.435 -1.1234 -0.3979  1.3654
 1595TIP3    H226421   6.197   0.270   3.501 -0.8298  0.3648 -0.2042
 1596TIP3   OH226422   2.073   0.288   1.991 -0.1397 -0.3360 -0.4935
 1596TIP3    H126423   2.087   0.245   2.076  1.0885  0.5605 -0.2290
 1596TIP3    H226424   1.996   0.344   2.006 -0.3391 -0.6828 -0.1783
 1597TIP3   OH226425   5.316   0.711   3.694 -0.0083  0.2548  0.1815
 1597TIP3    H126426   5.257   0.664   3.636 -0.0220 -0.6020  0.8683
 1597TIP3    H226427   5.259   0.761   3.752  0.0197  1.8303 -1.0912
 1598TIP3   OH226428   3.467   0.808   1.208 -0.1637  0.3056 -0.2469
 1598TIP3    H126429   3.476   0.898   1.240 -1.1430  0.6963 -1.0426
 1598TIP3    H226430   3.483   0.814   1.114 -0.5090 -0.2967 -0.3476
 1599TIP3   OH226431   1.281   0.093   0.248 -0.4790 -0.2233 -0.1702
 1599TIP3    H126432   1.287   0.185   0.221  0.0562  0.6712  2.6394
 1599TIP3    H226433   1.216   0.093   0.319 -0.2915 -1.9966  0.0534
 1600TIP3   OH226434   2.131   5.213   2.107  0.2451  0.3331 -0.5545
 1600TIP3    H126435   2.132   5.202   2.011  0.1564  0.8037 -0.6130
 1600TIP3    H226436   2.172   5.134   2.140 -1.6062 -0.8435 -0.8851
 1601TIP3   OH226437   6.508   1.351   3.380  0.3964  0.5817 -0.0860
 1601TIP3    H126438   6.531   1.443   3.369  0.2910  0.6899  0.5989
 1601TIP3    H226439   6.540   1.328   3.467 -1.0405  0.4219  0.4329
 1602TIP3   OH226440   4.853   5.378   1.220  0.5111  0.3329 -0.4143
 1602TIP3    H126441   4.939   5.419   1.224  1.1139 -1.0076  1.3264
 1602TIP3    H226442   4.839   5.341   1.307 -1.0995 -0.9175 -1.1375
 1603TIP3   OH226443   0.903   0.070   1.100  0.0541  0.2033 -0.6556
 1603TIP3    H126444   0.946   0.079   1.015  0.1777 -0.5386 -0.6755
 1603TIP3    H226445   0.960   0.117   1.160  0.3834  0.0491 -0.8454
 1604TIP3   OH226446   0.182   4.423   2.229 -0.5364  0.2903 -0.3562
 1604TIP3    H126447   0.269   4.413   2.266 -1.8482 -0.4367  2.9628
 1604TIP3    H226448   0.175   4.515   2.205  1.4504  0.1257 -1.7281
 1605TIP3   OH226449   2.464   1.730   2.350  0.2849  0.3682  0.0630
 1605TIP3    H126450   2.472   1.770   2.263  0.4342 -0.9037 -0.5371
 1605TIP3    H226451   2.460   1.804   2.410 -0.5734  1.2971 -1.0898
 1606TIP3   OH226452   5.462   5.746   2.285 -0.4367  0.3670 -0.1580
 1606TIP3    H126453   5.543   5.738   2.234 -0.3566 -3.3566  0.2463
 1606TIP3    H226454   5.490   5.787   2.367  1.3209 -1.5859  0.3178
 1607TIP3   OH226455   2.866   5.885   1.428 -0.0633 -0.2194  0.6244
 1607TIP3    H126456   2.810   5.863   1.502 -0.1167 -2.3988 -0.0056
 1607TIP3    H226457   2.807   5.889   1.353  0.1477  0.9408  0.4942
 1608TIP3   OH226458   1.099   1.195   2.237  0.0073 -0.5645  0.0412
 1608TIP3    H126459   1.008   1.220   2.254 -0.0850  1.3263 -2.5914
 1608TIP3    H226460   1.151   1.256   2.290 -0.2928  0.5619 -0.9170
 1609TIP3   OH226461   1.819   1.311   4.789  0.2267  0.0013  0.1450
 1609TIP3    H126462   1.871   1.269   4.720 -1.3809 -0.3494 -0.9251
 1609TIP3    H226463   1.827   1.252   4.864 -1.2639 -1.8519 -1.0570
 1610TIP3   OH226464   0.526   6.702   3.422 -0.0758  0.3438 -0.9043
 1610TIP3    H126465   0.553   6.637   3.487  0.5585  1.5901  0.1323
 1610TIP3    H226466   0.556   6.666   3.338  0.3994 -0.6211 -0.3421
 1611TIP3   OH226467   3.270   4.518   3.466 -0.6696  0.1862 -0.3224
 1611TIP3    H126468   3.314   4.509   3.381 -1.9218  2.2551 -1.2708
 1611TIP3    H226469   3.325   4.468   3.526  0.3340 -1.2404 -2.3036
 1612TIP3   OH226470   2.289   3.157   0.658  0.1546  0.3606  0.1181
 1612TIP3    H126471   2.287   3.242   0.703 -0.3344 -0.1035  0.9977
 1612TIP3    H226472   2.320   3.095   0.725  0.2788 -0.1923 -0.4440
 1613TIP3   OH226473   6.033   5.464   1.615  0.1025  0.2357  0.3908
 1613TIP3    H126474   6.012   5.371   1.609 -0.9638  0.4206  1.0730
 1613TIP3    H226475   6.008   5.500   1.530  0.9857 -0.1813 -0.0543
 1614TIP3   OH226476   4.688   4.341   4.234 -0.2747 -0.1815  0.6940
 1614TIP3    H126477   4.772   4.355   4.279  0.8541  1.0119 -1.5727
 1614TIP3    H226478   4.629   4.405   4.274  1.3762  2.6426 -0.9789
 1615TIP3   OH226479   1.012   1.034   0.528  0.0936 -0.1393  0.1424
 1615TIP3    H126480   0.987   1.071   0.443  0.0247  1.9179  1.0121
 1615TIP3    H226481   1.095   1.076   0.548 -0.7489  0.7527  1.8969
 1616TIP3   OH226482   4.784   5.629   2.103 -0.0458 -0.1182  0.7107
 1616TIP3    H126483   4.783   5.643   2.008 -0.8384 -1.6018  0.4781
 1616TIP3    H226484   4.875   5.610   2.123  0.3679  1.4192  0.4720
 1617TIP3   OH226485   4.068   6.145   3.491 -0.3695 -0.2664 -0.2278
 1617TIP3    H126486   3.976   6.165   3.476 -0.5121 -0.7665 -0.0500
 1617TIP3    H226487   4.066   6.071   3.552  0.1473 -0.5034 -0.5010
 1618TIP3   OH226488   0.247   4.751   4.212  0.4045  0.1801 -0.1247
 1618TIP3    H126489   0.342   4.746   4.220  0.3601  0.4574  0.5703
 1618TIP3    H226490   0.230   4.840   4.183  0.3040  0.3575  0.4868
 1619TIP3   OH226491   4.138   1.199   2.455  0.1846  0.2597 -0.1618
 1619TIP3    H126492   4.135   1.255   2.377 -1.9000 -0.3975 -0.6126
 1619TIP3    H226493   4.107   1.255   2.526 -0.4344  0.1271 -0.3217
 1620TIP3   OH226494   5.562   3.060   3.428 -0.9527 -0.3320 -0.0713
 1620TIP3    H126495   5.482   3.021   3.464 -1.1668 -0.4959 -0.7130
 1620TIP3    H226496   5.599   2.993   3.372  0.1645 -0.6045  0.9439
 1621TIP3   OH226497   6.015   1.613   0.181  0.3796 -0.0841 -0.0038
 1621TIP3    H126498   6.097   1.564   0.178  0.5627  0.1305  1.1320
 1621TIP3    H226499   6.027   1.676   0.252 -0.6715  0.1220  0.0077
 1622TIP3   OH226500   4.376   0.001   1.575 -0.2665  0.3469  0.3906
 1622TIP3    H126501   4.329  -0.082   1.586  0.0135  0.0209 -0.6745
 1622TIP3    H226502   4.313   0.059   1.532  0.5160 -0.3906 -1.9250
 1623TIP3   OH226503   2.408   1.927   0.675  0.5261 -0.0330  0.2451
 1623TIP3    H126504   2.485   1.894   0.628  1.3322  0.8744  0.9002
 1623TIP3    H226505   2.340   1.935   0.607  1.3570  0.2585 -0.5654
 1624TIP3   OH226506   3.824   1.530   4.524 -0.0201  0.1098 -0.1353
 1624TIP3    H126507   3.760   1.574   4.580 -0.1611 -1.3917  0.9526
 1624TIP3    H226508   3.784   1.445   4.505  1.0107 -0.2676 -0.6825
 1625TIP3   OH226509   1.056   5.598   3.163  0.3163 -0.0371 -0.7724
 1625TIP3    H126510   1.093   5.600   3.252  1.6589  3.3410 -1.2694
 1625TIP3    H226511   0.965   5.625   3.175 -0.0533 -1.3996 -0.2932
 1626TIP3   OH226512   2.833   2.363   3.020 -0.0891 -0.3900  0.0993
 1626TIP3    H126513   2.756   2.315   2.991 -0.1543 -1.2301  1.5657
 1626TIP3    H226514   2.902   2.297   3.026  0.3805  0.0904  0.1274
 1627TIP3   OH226515   5.415   3.009   7.847 -0.7356 -0.2926  0.3738
 1627TIP3    H126516   5.387   2.924   7.813 -1.6491 -0.3639  1.2514
 1627TIP3    H226517   5.356   3.026   7.920  0.1724  0.5775  0.9257
 1628TIP3   OH226518   2.378   5.695   2.581  0.2163  0.5488  0.0301
 1628TIP3    H126519   2.325   5.757   2.531  0.9478  0.7291 -0.5551
 1628TIP3    H226520   2.422   5.642   2.514 -2.6107 -2.6553  0.4222
 1629TIP3   OH226521   2.414   4.558   0.847  0.3347 -0.2018  0.0344
 1629TIP3    H126522   2.429   4.468   0.819 -0.8050 -0.5546  0.4634
 1629TIP3    H226523   2.397   4.606   0.767  0.7987 -0.4037 -0.1853
 1630TIP3   OH226524   2.293   2.730   0.182  0.3442  0.0347 -0.2297
 1630TIP3    H126525   2.300   2.824   0.200  0.2398 -0.1698  0.9782
 1630TIP3    H226526   2.263   2.725   0.091  1.4596  1.1419 -0.6956
 1631TIP3   OH226527   3.351   1.140   0.701 -0.4830 -0.0466  0.0036
 1631TIP3    H126528   3.381   1.054   0.729  0.6460 -0.2624 -1.6875
 1631TIP3    H226529   3.326   1.185   0.782 -2.0260 -2.2588  0.8517
 1632TIP3   OH226530   2.880   4.903   1.487  0.0309  0.3507 -0.2045
 1632TIP3    H126531   2.958   4.903   1.431 -0.2067  1.6000 -0.5517
 1632TIP3    H226532   2.915   4.900   1.576  0.4142 -3.6258 -0.3019
 1633TIP3   OH226533   4.509   4.090   8.394  0.5982  0.2052 -0.2712
 1633TIP3    H126534   4.502   4.182   8.419  1.4340  0.6898 -1.7155
 1633TIP3    H226535   4.555   4.091   8.311  0.9983 -1.5616 -0.1100
 1634TIP3   OH226536   2.566   2.044   1.580  0.3943 -0.3907 -0.6246
 1634TIP3    H126537   2.617   1.984   1.633  0.6460 -0.2508 -0.7074
 1634TIP3    H226538   2.612   2.048   1.496  1.4993  1.3935  0.0004
 1635TIP3   OH226539   2.070   5.471   2.154 -0.0997  0.2865 -0.2570
 1635TIP3    H126540   2.120   5.519   2.089 -0.6421 -1.1818 -1.8347
 1635TIP3    H226541   2.088   5.379   2.135 -0.4496 -0.1898  1.5457
 1636TIP3   OH226542   2.556   3.649   2.542  0.0437  0.3207 -0.2412
 1636TIP3    H126543   2.605   3.628   2.463  1.6549  2.4923  0.0996
 1636TIP3    H226544   2.611   3.712   2.589 -2.4467  1.8342  0.8590
 1637TIP3   OH226545   0.132   4.826   1.277  0.4397  0.1340 -0.1643
 1637TIP3    H126546   0.204   4.765   1.292  1.0285  0.1473 -2.5297
 1637TIP3    H226547   0.149   4.900   1.336  1.9819 -0.1809 -0.1916
 1638TIP3   OH226548   1.206   1.466   1.569  0.4851  0.4277 -0.1545
 1638TIP3    H126549   1.142   1.453   1.499  0.7809 -1.6817 -0.1039
 1638TIP3    H226550   1.220   1.560   1.571 -2.3354  0.9570 -0.4115
 1639TIP3   OH226551   3.970   3.433   0.460 -0.1314 -0.4265 -0.5205
 1639TIP3    H126552   3.888   3.449   0.506 -0.3039 -0.8501 -0.6683
 1639TIP3    H226553   3.947   3.368   0.393  0.9118 -2.9012  1.3520
 1640TIP3   OH226554   0.075   1.541   2.868 -0.6549 -0.4660 -0.0720
 1640TIP3    H126555   0.085   1.618   2.923 -0.4084 -0.9645  0.5966
 1640TIP3    H226556   0.019   1.569   2.796 -0.4009  0.3857  0.0587
 1641TIP3   OH226557   6.773   5.333   2.423  0.4305 -0.0814 -0.1122
 1641TIP3    H126558   6.761   5.282   2.343  0.2493  1.3559 -1.0356
 1641TIP3    H226559   6.780   5.424   2.393 -1.1828  0.6853  1.6182
 1642TIP3   OH226560   2.491   6.532   1.120 -0.2969 -0.1047 -0.5286
 1642TIP3    H126561   2.457   6.442   1.124  0.1990 -0.2607  0.3629
 1642TIP3    H226562   2.581   6.525   1.153 -0.6719  0.9149  0.7877
 1643TIP3   OH226563   5.809   2.128   3.176  0.3203 -0.3203  0.2432
 1643TIP3    H126564   5.822   2.187   3.102  1.0192 -0.3483  0.3315
 1643TIP3    H226565   5.831   2.041   3.141 -0.9478 -0.5843  0.0416
 1644TIP3   OH226566   0.796   2.584   1.159 -0.4035 -0.0569 -0.8857
 1644TIP3    H126567   0.721   2.601   1.216 -0.3221 -0.1718 -0.7428
 1644TIP3    H226568   0.770   2.508   1.107  0.3827 -1.4248  0.5995
 1645TIP3   OH226569   6.518   3.277   0.461 -0.4422  0.3789 -0.3306
 1645TIP3    H126570   6.510   3.228   0.380 -1.7049  0.6150 -0.3646
 1645TIP3    H226571   6.516   3.369   0.435  1.0650  0.4849 -0.1875
 1646TIP3   OH226572   5.484   0.126   1.043  0.3567 -0.3770 -0.1401
 1646TIP3    H126573   5.483   0.189   0.971  1.2524  0.2809  0.3875
 1646TIP3    H226574   5.461   0.043   1.003 -1.8698  0.4290 -0.6804
 1647TIP3   OH226575   1.341   4.398   1.556  0.0422 -0.3432 -0.2221
 1647TIP3    H126576   1.326   4.484   1.516  1.1240  0.1879  0.4629
 1647TIP3    H226577   1.270   4.388   1.619  0.8969  0.8690  0.9889
 1648TIP3   OH226578   5.628   6.253   1.220 -0.1366 -0.6452  0.3438
 1648TIP3    H126579   5.709   6.234   1.173 -0.0648  0.0611  0.1758
 1648TIP3    H226580   5.599   6.167   1.253  1.4163 -0.7305  1.6172
 1649TIP3   OH226581   4.713   2.099   0.036 -0.4169  0.2329 -0.0526
 1649TIP3    H126582   4.632   2.147   0.019  0.2308  0.8432 -1.6470
 1649TIP3    H226583   4.704   2.018  -0.014 -1.1804 -1.0472  2.0189
 1650TIP3   OH226584   6.798   4.923   1.979 -0.1306  0.6529 -0.2193
 1650TIP3    H126585   6.787   4.830   1.958 -0.1472  0.6850 -0.3511
 1650TIP3    H226586   6.875   4.925   2.036 -0.5498  0.4772  0.3626
 1651TIP3   OH226587   1.541   1.505   1.352  0.0407 -0.6893 -0.2683
 1651TIP3    H126588   1.471   1.451   1.389 -0.6617  0.0378 -0.5041
 1651TIP3    H226589   1.564   1.462   1.270  1.0536 -1.8660  0.6035
 1652TIP3   OH226590   1.506   6.043   2.690 -0.1177  0.2957  0.5868
 1652TIP3    H126591   1.488   6.097   2.767 -1.3103  0.0590  0.4957
 1652TIP3    H226592   1.601   6.048   2.679 -0.1898  2.3331  0.5835
 1653TIP3   OH226593   2.346   2.304   8.810  0.0718 -0.0311 -0.4921
 1653TIP3    H126594   2.429   2.258   8.821  0.4368  0.0225 -2.6222
 1653TIP3    H226595   2.369   2.388   8.770 -1.0825 -0.6800 -2.6744
 1654TIP3   OH226596   2.780   1.772   1.448  0.1840  0.1636  0.1469
 1654TIP3    H126597   2.825   1.689   1.434  1.0073  0.4209  1.0738
 1654TIP3    H226598   2.772   1.778   1.544  1.0566  1.5952  0.1597
 1655TIP3   OH226599   1.676   6.045   3.650  0.5926 -0.1963 -0.0628
 1655TIP3    H126600   1.728   5.967   3.628  0.7467 -0.5606  1.4919
 1655TIP3    H226601   1.729   6.091   3.715 -0.5476 -0.0036  0.7386
 1656TIP3   OH226602   5.050   4.910   2.568 -0.4892  0.1173  0.3964
 1656TIP3    H126603   4.975   4.888   2.624 -2.1162 -0.0557 -1.7074
 1656TIP3    H226604   5.023   4.883   2.481  1.9318  0.4011 -0.5114
 1657TIP3   OH226605   1.219   0.411   1.950  0.5690 -0.1032 -0.1349
 1657TIP3    H126606   1.150   0.472   1.926  0.7133  0.0435 -0.1786
 1657TIP3    H226607   1.280   0.414   1.876 -0.2932 -1.6140 -0.9693
 1658TIP3   OH226608   1.049   3.024   3.506 -0.0368  0.4426 -0.6510
 1658TIP3    H126609   1.005   3.034   3.591  1.2902  0.7187  0.0315
 1658TIP3    H226610   0.979   3.029   3.442 -1.1790 -0.4941  0.4609
 1659TIP3   OH226611   6.778   4.972   0.080 -0.8083  0.1283  0.1032
 1659TIP3    H126612   6.753   4.959   0.171  0.3834  1.2980  0.6356
 1659TIP3    H226613   6.695   4.992   0.035 -1.2009  1.2851  1.2820
 1660TIP3   OH226614   6.062   5.270   2.760 -0.1170 -0.1031  0.7395
 1660TIP3    H126615   6.062   5.198   2.822 -1.9561 -0.7454  0.0694
 1660TIP3    H226616   6.112   5.238   2.685 -0.6086 -0.5669  0.5997
 1661TIP3   OH226617   2.928   2.366   1.679  0.0724 -0.6271  0.5425
 1661TIP3    H126618   3.012   2.336   1.645  0.3576  3.4042 -3.1791
 1661TIP3    H226619   2.863   2.324   1.623  0.1102  0.7572 -0.6077
 1662TIP3   OH226620   6.011   4.693   0.513  0.4891 -0.9190 -0.5338
 1662TIP3    H126621   6.076   4.730   0.573 -2.8367 -0.1369  2.9993
 1662TIP3    H226622   5.987   4.609   0.552 -0.5485 -1.2469 -1.7978
 1663TIP3   OH226623   4.992   3.706   2.888  0.0094 -0.6935 -0.0916
 1663TIP3    H126624   4.960   3.731   2.975 -0.7468  2.0530 -1.0716
 1663TIP3    H226625   5.034   3.784   2.853 -1.3547 -1.0747 -2.9277
 1664TIP3   OH226626   3.079   1.537   2.558 -0.1492 -0.5959 -0.0721
 1664TIP3    H126627   3.113   1.572   2.640 -2.3291  1.0044  0.2498
 1664TIP3    H226628   2.985   1.531   2.572 -0.8236  1.2974 -2.9290
 1665TIP3   OH226629   0.827   4.146   0.157  0.0554 -0.0522 -0.0622
 1665TIP3    H126630   0.908   4.096   0.161  0.3727  0.2641 -1.8106
 1665TIP3    H226631   0.810   4.159   0.063 -1.7337  0.3451  0.2631
 1666TIP3   OH226632   3.307   5.782   1.795 -0.3259  0.1389 -0.1323
 1666TIP3    H126633   3.256   5.723   1.850 -1.6701  0.2685 -1.1844
 1666TIP3    H226634   3.266   5.868   1.807  0.0492  0.3770 -0.5104
 1667TIP3   OH226635   0.556   3.746   3.831 -0.1792 -0.6995  0.0571
 1667TIP3    H126636   0.461   3.755   3.824 -0.2303 -0.4882  0.8790
 1667TIP3    H226637   0.571   3.652   3.844 -0.0685 -1.1366 -2.6232
 1668TIP3   OH226638   3.202   0.384   0.961  0.0947 -0.3786  0.3004
 1668TIP3    H126639   3.114   0.417   0.945  0.8793  0.7691 -2.1988
 1668TIP3    H226640   3.246   0.456   1.007 -0.3413 -1.1438  2.0044
 1669TIP3   OH226641   0.868   4.173   4.392 -0.4949  0.7011  0.2566
 1669TIP3    H126642   0.812   4.095   4.396 -0.3943  0.6849  2.1071
 1669TIP3    H226643   0.929   4.155   4.320 -0.1497 -1.1799  0.9663
 1670TIP3   OH226644   4.833   3.311   1.488 -0.3556  0.7217 -0.4200
 1670TIP3    H126645   4.900   3.292   1.422  0.2283  3.7378 -0.8342
 1670TIP3    H226646   4.752   3.280   1.449  0.3965 -0.5134 -1.0968
 1671TIP3   OH226647   6.587   4.569   1.230  0.0094 -0.4118  0.3993
 1671TIP3    H126648   6.591   4.503   1.299  1.1957  1.3657  2.1430
 1671TIP3    H226649   6.677   4.574   1.197  0.3276  1.3551  1.3951
 1672TIP3   OH226650   0.157   6.771   3.267 -0.2076 -0.0360  0.1084
 1672TIP3    H126651   0.174   6.700   3.329  0.3054  0.8210  0.9854
 1672TIP3    H226652   0.133   6.727   3.185 -0.3914 -1.1983  0.7711
 1673TIP3   OH226653   3.061   1.722   3.055  0.3305 -0.3085 -0.0318
 1673TIP3    H126654   3.119   1.734   2.979  1.4431  1.7387  1.0445
 1673TIP3    H226655   2.973   1.736   3.021  0.6745 -0.9453 -1.2255
 1674TIP3   OH226656   2.031   4.469   1.568 -0.3761  0.0540 -0.1623
 1674TIP3    H126657   2.117   4.457   1.609 -0.0934 -1.9204 -1.1729
 1674TIP3    H226658   1.974   4.497   1.639  1.2564  2.3410  0.3520
 1675TIP3   OH226659   5.593   4.135   2.710 -0.6643  0.2068  0.1485
 1675TIP3    H126660   5.602   4.099   2.622  0.9492 -0.5476  0.5921
 1675TIP3    H226661   5.518   4.089   2.748 -1.4563  0.6293 -0.8367
 1676TIP3   OH226662   3.401   1.047   2.443  0.5713  0.5332  0.2378
 1676TIP3    H126663   3.344   1.087   2.377  2.2834  1.2966 -0.8501
 1676TIP3    H226664   3.387   1.100   2.522  0.1848  1.0431 -0.1635
 1677TIP3   OH226665   0.945   2.200   2.222  0.6457 -0.5521 -0.1932
 1677TIP3    H126666   0.863   2.154   2.235  0.1811 -0.0173 -1.0940
 1677TIP3    H226667   0.931   2.286   2.262  0.5088 -0.2204 -0.9273
 1678TIP3   OH226668   0.344   0.272   2.700 -0.4957 -0.3590  0.3779
 1678TIP3    H126669   0.427   0.319   2.700  0.1948 -1.4414 -1.5159
 1678TIP3    H226670   0.306   0.290   2.614 -0.3733 -2.8434 -0.2872
 1679TIP3   OH226671   0.247   5.030   4.163  0.4690 -0.0711 -0.3453
 1679TIP3    H126672   0.320   5.076   4.204 -0.0079 -0.7814  1.3881
 1679TIP3    H226673   0.190   5.099   4.130 -0.1463  0.6562  2.0452
 1680TIP3   OH226674   1.686   2.263   3.292  0.1561  0.1749 -0.2564
 1680TIP3    H126675   1.673   2.342   3.239  0.0968  0.0203 -0.4743
 1680TIP3    H226676   1.614   2.205   3.267  0.5051 -0.1634 -0.4931
 1681TIP3   OH226677   3.362   2.061   0.844 -0.5198  0.2608 -0.7337
 1681TIP3    H126678   3.360   2.007   0.923  2.1337 -0.8851 -1.3779
 1681TIP3    H226679   3.289   2.029   0.791 -0.5442 -0.9218 -0.0072
 1682TIP3   OH226680   1.356   1.589   3.495  0.2489 -0.0785  0.5202
 1682TIP3    H126681   1.325   1.680   3.490 -1.7899 -0.7710 -0.9390
 1682TIP3    H226682   1.276   1.538   3.507  1.1227 -1.8176 -0.7323
 1683TIP3   OH226683   2.143   5.175   0.703  0.0259  0.6406  0.1881
 1683TIP3    H126684   2.162   5.227   0.625 -3.7383  1.8843 -0.1388
 1683TIP3    H226685   2.069   5.220   0.744 -3.8396 -4.3497 -0.2180
 1684TIP3   OH226686   4.625   3.901   2.303  0.2335 -0.3607 -0.0012
 1684TIP3    H126687   4.640   3.823   2.249 -0.6343 -1.7583  1.6542
 1684TIP3    H226688   4.529   3.910   2.305  0.2605 -0.1355  0.9680
 1685TIP3   OH226689   1.782   1.134   2.745  0.2393  0.0246  0.6602
 1685TIP3    H126690   1.839   1.202   2.708  0.4376 -0.2810  0.3966
 1685TIP3    H226691   1.709   1.182   2.784 -1.0679  0.3261 -1.9100
 1686TIP3   OH226692   0.637   4.979   1.965 -0.1689  0.1767 -0.8906
 1686TIP3    H126693   0.615   4.895   1.926  0.7961  0.3313 -1.8141
 1686TIP3    H226694   0.723   5.001   1.929 -0.2718  1.4243 -0.4449
 1687TIP3   OH226695   4.625   2.878   3.135  0.4422 -0.0358  0.0703
 1687TIP3    H126696   4.570   2.875   3.213 -0.7395  0.2509 -0.7291
 1687TIP3    H226697   4.610   2.965   3.098 -1.9621 -1.3802 -2.5109
 1688TIP3   OH226698   5.958   0.009   1.223  0.6666 -0.3864 -0.2864
 1688TIP3    H126699   6.011   0.084   1.248  1.8902 -1.2103 -0.3441
 1688TIP3    H226700   5.901   0.042   1.154 -1.0555  1.2921  1.7734
 1689TIP3   OH226701   2.884   5.822   0.473  0.1002  0.3453  0.7589
 1689TIP3    H126702   2.909   5.791   0.385 -1.2652  1.4779 -0.0769
 1689TIP3    H226703   2.915   5.913   0.475 -1.0992  0.7607  0.9101
 1690TIP3   OH226704   1.998   6.536   2.849  0.0553 -0.0315 -0.3518
 1690TIP3    H126705   1.992   6.627   2.821  2.8997  0.8231  1.4182
 1690TIP3    H226706   1.964   6.537   2.939 -2.9301 -1.4494 -1.3476
 1691TIP3   OH226707   4.670   0.426   3.022 -0.1829 -0.7367 -0.8359
 1691TIP3    H126708   4.684   0.337   3.055 -2.0100 -1.1351 -0.9900
 1691TIP3    H226709   4.586   0.453   3.061 -0.2832  0.4292 -1.7782
 1692TIP3   OH226710   5.734   5.505   1.569 -0.4412  0.0916  0.0962
 1692TIP3    H126711   5.745   5.454   1.650 -1.2354 -0.0826  0.1046
 1692TIP3    H226712   5.692   5.586   1.598 -1.5016 -0.3208 -0.2351
 1693TIP3   OH226713   1.172   3.797   2.451  0.0636 -0.4529  0.2130
 1693TIP3    H126714   1.205   3.872   2.402  0.0743 -1.1888 -0.9471
 1693TIP3    H226715   1.080   3.791   2.427 -0.3805  0.2114  1.6535
 1694TIP3   OH226716   0.904   4.710   8.076 -0.2301 -0.5413 -0.5602
 1694TIP3    H126717   0.939   4.631   8.117  0.5261  1.0575  2.1085
 1694TIP3    H226718   0.825   4.731   8.126  1.5948  2.3666  1.4737
 1695TIP3   OH226719   1.572   6.671   1.125 -0.1563 -0.5440 -0.3265
 1695TIP3    H126720   1.503   6.610   1.153 -0.9378  0.5372  0.1951
 1695TIP3    H226721   1.529   6.756   1.124  1.5292  0.4268  1.5495
 1696TIP3   OH226722   5.004   2.052   2.981 -0.0141  0.5503 -0.3558
 1696TIP3    H126723   5.042   1.994   2.915 -1.2155  0.2137 -0.7757
 1696TIP3    H226724   5.061   2.042   3.058  0.9171  0.3175 -1.0622
 1697TIP3   OH226725   6.181   5.787   2.504 -0.0943  0.0367 -0.5567
 1697TIP3    H126726   6.162   5.804   2.596 -0.1291  1.1360 -0.7610
 1697TIP3    H226727   6.179   5.691   2.497 -0.9069 -0.0330  0.4010
 1698TIP3   OH226728   3.142   1.653   4.499  0.4840  0.5747  0.3802
 1698TIP3    H126729   3.214   1.651   4.436  0.0579  0.9411 -0.1292
 1698TIP3    H226730   3.130   1.561   4.524 -0.4158  0.1977 -1.3228
 1699TIP3   OH226731   3.480   0.388   1.384  0.0033  0.2158 -0.6264
 1699TIP3    H126732   3.484   0.397   1.480 -0.2125 -1.2814 -0.4555
 1699TIP3    H226733   3.451   0.298   1.370 -0.9848  0.7267 -2.0985
 1700TIP3   OH226734   6.273   6.713   0.480  0.5347 -0.1051  0.1737
 1700TIP3    H126735   6.316   6.755   0.555 -1.7665  3.3861 -0.2140
 1700TIP3    H226736   6.185   6.692   0.512  0.6385 -1.9351 -0.6126
 1701TIP3   OH226737   1.079   4.714   8.343 -0.0746  0.5867  0.6392
 1701TIP3    H126738   1.116   4.721   8.255 -0.2063  0.1241  0.5424
 1701TIP3    H226739   1.055   4.622   8.351  2.9552 -0.2073  2.3383
 1702TIP3   OH226740   1.873   2.807   2.951  0.3162 -0.0658 -0.2342
 1702TIP3    H126741   1.959   2.781   2.983  0.2754  2.3523  2.2808
 1702TIP3    H226742   1.811   2.764   3.010  0.0087  0.8012  0.1059
 1703TIP3   OH226743   0.293   5.057   2.448 -0.2399 -0.4151 -0.1129
 1703TIP3    H126744   0.331   5.127   2.395 -0.0238 -0.2852  0.2093
 1703TIP3    H226745   0.309   5.084   2.539  0.9764 -1.4753  0.0188
 1704TIP3   OH226746   5.532   3.457   0.559 -0.0313 -0.2160  0.4067
 1704TIP3    H126747   5.562   3.459   0.468 -0.0375  0.3263  0.4167
 1704TIP3    H226748   5.439   3.435   0.552 -0.8679  2.9912  0.0548
 1705TIP3   OH226749   5.487   3.059   1.541 -0.2699 -0.0956 -0.3649
 1705TIP3    H126750   5.543   3.082   1.615 -1.4961  0.8166  0.3273
 1705TIP3    H226751   5.480   3.141   1.491  1.5084 -0.9813 -2.2183
 1706TIP3   OH226752   2.398   0.154   2.819  0.5529  0.4871 -0.0203
 1706TIP3    H126753   2.414   0.247   2.834 -0.2425  1.2357 -3.1161
 1706TIP3    H226754   2.398   0.144   2.724  1.1994 -2.8248  0.1843
 1707TIP3   OH226755   2.304   3.608   2.593  0.1600  0.4661 -0.6513
 1707TIP3    H126756   2.398   3.616   2.608  0.4487 -0.8548 -1.6311
 1707TIP3    H226757   2.289   3.515   2.581 -0.9918  0.8213 -2.2654
 1708TIP3   OH226758   2.328   6.809   3.590 -0.1912  0.8194  0.0256
 1708TIP3    H126759   2.376   6.749   3.533 -0.3071 -1.0432  1.7409
 1708TIP3    H226760   2.289   6.873   3.531  0.6540 -0.3096 -1.8447
 1709TIP3   OH226761   1.309   0.300   0.751 -0.0294  0.2627 -0.6930
 1709TIP3    H126762   1.385   0.343   0.789  0.9945 -0.4835 -1.8362
 1709TIP3    H226763   1.292   0.348   0.670 -0.9897  0.6166 -0.3067
 1710TIP3   OH226764   2.726   4.008   0.260 -0.7240 -0.4480 -0.3444
 1710TIP3    H126765   2.658   3.951   0.298 -2.0387  1.2724  0.0206
 1710TIP3    H226766   2.686   4.095   0.259  1.7211  0.7710  0.4607
 1711TIP3   OH226767   2.736   5.899   1.678 -0.1160  0.6067  0.3891
 1711TIP3    H126768   2.662   5.944   1.638 -0.0694 -0.0941 -0.5362
 1711TIP3    H226769   2.809   5.962   1.671 -0.3384  0.8464  0.2278
 1712TIP3   OH226770   1.761   0.369   3.521 -0.1756 -0.5547 -0.0087
 1712TIP3    H126771   1.718   0.295   3.565  0.8291 -1.2615 -0.1726
 1712TIP3    H226772   1.721   0.372   3.434  0.2311 -1.3343 -0.2326
 1713TIP3   OH226773   3.463   1.228   1.541  0.2816  0.6050  0.8173
 1713TIP3    H126774   3.549   1.238   1.582  1.2364  0.6600 -1.1063
 1713TIP3    H226775   3.401   1.243   1.613  1.8483  0.1215  2.3574
 1714TIP3   OH226776   6.586   1.484   2.055  0.5335 -1.1100 -0.4454
 1714TIP3    H126777   6.570   1.392   2.032  0.5068 -0.7533 -1.9560
 1714TIP3    H226778   6.681   1.492   2.054  0.5585 -1.2678  0.3320
 1715TIP3   OH226779   3.272   5.986   0.826 -0.2768  0.5632 -0.5853
 1715TIP3    H126780   3.290   6.068   0.872  0.9376 -0.0515  0.0776
 1715TIP3    H226781   3.178   5.973   0.836 -0.2848  1.2508  0.3712
 1716TIP3   OH226782   5.957   3.495   2.642  0.2006  0.2516 -0.0028
 1716TIP3    H126783   5.864   3.499   2.619 -0.2272 -0.9011  1.4293
 1716TIP3    H226784   5.980   3.403   2.636  1.1110  0.4506  0.2442
 1717TIP3   OH226785   1.855   3.867   8.513 -0.0968 -0.4656 -0.7343
 1717TIP3    H126786   1.892   3.802   8.573 -0.0915 -0.9958 -1.3134
 1717TIP3    H226787   1.911   3.944   8.525  0.2272 -0.7418 -0.4426
 1718TIP3   OH226788   5.311   0.835   1.310  0.3651  0.0790  0.1855
 1718TIP3    H126789   5.351   0.910   1.354 -1.5872  0.1936  1.9468
 1718TIP3    H226790   5.350   0.759   1.353  0.5007  0.1470  0.1822
 1719TIP3   OH226791   5.273   1.764   2.931  0.3365  0.2389  0.0103
 1719TIP3    H126792   5.268   1.669   2.936  1.4533  0.0960 -1.0115
 1719TIP3    H226793   5.194   1.791   2.885  0.5921 -0.3236 -0.7814
 1720TIP3   OH226794   5.943   3.227   8.480 -0.7454  0.6334  0.0237
 1720TIP3    H126795   6.027   3.259   8.446 -1.3229  2.1955 -0.0233
 1720TIP3    H226796   5.878   3.285   8.441 -1.6145  1.1231  2.1086
 1721TIP3   OH226797   1.677   5.171   2.688 -0.4255 -0.5145 -0.2779
 1721TIP3    H126798   1.671   5.088   2.640 -2.3951 -0.7642  0.2853
 1721TIP3    H226799   1.702   5.145   2.777 -0.2474 -0.4163 -0.2991
 1722TIP3   OH226800   4.445   3.188   2.837  0.0532  0.0919  0.6656
 1722TIP3    H126801   4.430   3.119   2.773 -1.8228 -0.8041  1.9786
 1722TIP3    H226802   4.516   3.156   2.892 -0.1229 -0.3379  0.6406
 1723TIP3   OH226803   2.661   1.590   2.904 -0.5903 -0.2838 -0.6737
 1723TIP3    H126804   2.596   1.584   2.974 -0.1868 -0.8111 -0.3385
 1723TIP3    H226805   2.723   1.520   2.923  1.3252  1.5587  0.3028
 1724TIP3   OH226806   5.910   3.731   1.844 -0.8795  0.2840 -0.1459
 1724TIP3    H126807   5.996   3.772   1.833  0.1808 -1.4710  1.0732
 1724TIP3    H226808   5.863   3.753   1.764  0.9445  0.7451 -1.1542
 1725TIP3   OH226809   3.430   1.400   2.059  0.3881 -0.4495 -0.4929
 1725TIP3    H126810   3.457   1.338   1.991  0.8957 -0.9323  0.1435
 1725TIP3    H226811   3.481   1.478   2.042  0.1492 -0.3959 -0.9692
 1726TIP3   OH226812   0.166   3.518   8.772  0.0884  0.5541  0.2164
 1726TIP3    H126813   0.163   3.449   8.838  1.4131  0.6924  0.4372
 1726TIP3    H226814   0.218   3.588   8.812  1.0046  0.5960 -1.0097
 1727TIP3   OH226815   3.502   6.622   0.994 -0.6035  0.1401  0.0824
 1727TIP3    H126816   3.491   6.672   0.913 -2.3373  0.0173  0.1957
 1727TIP3    H226817   3.597   6.619   1.008 -0.1314 -1.0418 -2.6880
 1728TIP3   OH226818   1.743   5.247   8.535 -0.1253  0.2174  0.1985
 1728TIP3    H126819   1.815   5.215   8.481  0.6830 -1.4987  2.1691
 1728TIP3    H226820   1.682   5.173   8.540  0.2294  0.0334  2.2835
 1729TIP3   OH226821   2.500   0.429   1.237 -0.3318  0.1044  0.2577
 1729TIP3    H126822   2.512   0.375   1.315 -0.1911  0.3689  0.4218
 1729TIP3    H226823   2.477   0.516   1.271  1.3974  0.6829  0.0793
 1730TIP3   OH226824   0.017   6.474   0.192  0.0071  0.5034 -0.1164
 1730TIP3    H126825   0.064   6.393   0.209  0.3130  0.6904 -0.0705
 1730TIP3    H226826  -0.028   6.494   0.274  1.4683  1.3965  0.5132
 1731TIP3   OH226827   5.245   2.907   3.232 -0.1066  0.6613 -0.0843
 1731TIP3    H126828   5.298   2.931   3.308 -0.5733  0.2199  0.3917
 1731TIP3    H226829   5.231   2.812   3.242  1.6049  0.1460 -1.8512
 1732TIP3   OH226830   2.422   3.677   1.912 -0.1700 -0.1003 -0.0337
 1732TIP3    H126831   2.468   3.757   1.889  0.6907  0.0421  2.0054
 1732TIP3    H226832   2.333   3.690   1.880  0.3640  1.0021 -1.1018
 1733TIP3   OH226833   6.166   1.693   8.175 -0.2187  0.2626 -0.3668
 1733TIP3    H126834   6.175   1.641   8.095 -0.2457 -0.8725  0.3365
 1733TIP3    H226835   6.085   1.743   8.163 -0.9674 -0.9470 -0.4946
 1734TIP3   OH226836   0.965   5.294   1.765 -0.3206  0.0223 -0.2017
 1734TIP3    H126837   0.951   5.266   1.674 -0.9552  0.2851 -0.1916
 1734TIP3    H226838   0.981   5.388   1.759 -0.0103 -0.0220 -0.0719
 1735TIP3   OH226839   3.849   1.213   0.037  0.4005 -0.3597  0.1449
 1735TIP3    H126840   3.915   1.275   0.008  2.3338 -1.8119  1.1635
 1735TIP3    H226841   3.889   1.127   0.022 -1.2205 -1.2935  0.9187
 1736TIP3   OH226842   0.086   4.897   2.294 -0.2913  0.1611  0.5407
 1736TIP3    H126843   0.127   4.815   2.270  2.4830  1.5028  0.3266
 1736TIP3    H226844   0.151   4.942   2.348 -1.0269  2.8403 -0.6184
 1737TIP3   OH226845   2.941   4.330   1.399  0.0719  0.0288  0.1981
 1737TIP3    H126846   2.963   4.419   1.429  0.5312  0.7629 -2.0979
 1737TIP3    H226847   2.859   4.341   1.351 -0.3404 -0.9724  0.6568
 1738TIP3   OH226848   1.995   2.025   2.042  0.0070  0.4322 -0.2847
 1738TIP3    H126849   2.037   2.097   1.996 -0.8322  0.7625 -0.5633
 1738TIP3    H226850   1.991   1.954   1.979 -1.2229  0.9142 -0.7797
 1739TIP3   OH226851   2.794   1.810   3.001 -0.0041  0.6503 -0.3383
 1739TIP3    H126852   2.728   1.870   3.037  0.6276  1.3098 -0.2739
 1739TIP3    H226853   2.742   1.739   2.962 -0.7682 -0.9691  3.1726
 1740TIP3   OH226854   6.098   0.481   8.201  0.3852  0.5863 -0.1136
 1740TIP3    H126855   6.191   0.464   8.193  0.2085 -0.7580  0.4460
 1740TIP3    H226856   6.063   0.467   8.113  0.9364  2.9076 -0.7754
 1741TIP3   OH226857   2.572   3.676   0.657 -0.4465 -0.3452 -0.0633
 1741TIP3    H126858   2.615   3.667   0.743  2.7615 -2.7129 -1.6808
 1741TIP3    H226859   2.499   3.613   0.660  1.0780 -2.1954  0.2498
 1742TIP3   OH226860   0.039   6.689   0.822  0.2474 -0.7076  0.2032
 1742TIP3    H126861   0.011   6.724   0.737 -1.6912  0.6482  1.3269
 1742TIP3    H226862   0.132   6.712   0.827  0.2590 -0.2820 -1.2906
 1743TIP3   OH226863   2.535   3.292   1.838 -0.3531  0.1780 -0.0814
 1743TIP3    H126864   2.525   3.205   1.800 -0.2078  1.4834 -3.5183
 1743TIP3    H226865   2.466   3.298   1.904  0.5738 -2.9707  1.3471
 1744TIP3   OH226866   2.825   0.996   3.026 -0.0525  0.6082 -0.1298
 1744TIP3    H126867   2.815   0.939   3.103 -1.8240 -0.0153 -0.7800
 1744TIP3    H226868   2.846   1.082   3.062  2.9287 -0.3962  0.8811
 1745TIP3   OH226869   4.869   2.963   2.843  0.1676 -0.5032 -0.7066
 1745TIP3    H126870   4.831   3.032   2.788  0.3461 -0.4677 -0.7883
 1745TIP3    H226871   4.935   2.922   2.787 -0.5780 -1.3586 -0.9746
 1746TIP3   OH226872   4.278   2.558   0.870 -0.5458  0.3765  0.3838
 1746TIP3    H126873   4.227   2.595   0.942 -0.8727 -0.4150  0.5731
 1746TIP3    H226874   4.369   2.572   0.896 -0.6590 -0.1971  1.1236
 1747TIP3   OH226875   4.179   4.832   0.338 -0.6667  0.2608 -0.0265
 1747TIP3    H126876   4.086   4.815   0.324 -0.5111  1.4253 -3.3840
 1747TIP3    H226877   4.213   4.750   0.374 -2.7326 -0.6061  0.1147
 1748TIP3   OH226878   3.525   1.942   3.341 -0.1568 -0.0355  0.2633
 1748TIP3    H126879   3.593   1.943   3.273 -0.5938  1.7988 -0.2043
 1748TIP3    H226880   3.483   1.857   3.332  1.1123 -0.6210 -0.4115
 1749TIP3   OH226881   1.477   0.319   2.539  0.1982 -0.0092 -0.3481
 1749TIP3    H126882   1.387   0.297   2.517 -0.7705  2.4963  0.7683
 1749TIP3    H226883   1.496   0.267   2.618 -0.0665 -0.9191 -0.8763
 1750TIP3   OH226884   3.928   4.563   2.318 -0.1741  0.4750  0.0580
 1750TIP3    H126885   4.000   4.627   2.318  0.6758 -0.4509 -0.1476
 1750TIP3    H226886   3.967   4.483   2.354 -1.4192  0.2742  1.0403
 1751TIP3   OH226887   0.903   2.794   3.926  0.3350  0.2493  0.0599
 1751TIP3    H126888   0.822   2.819   3.971 -0.5314 -2.1637 -0.0067
 1751TIP3    H226889   0.970   2.794   3.995  0.3038  2.0700  0.1524
 1752TIP3   OH226890   0.078   6.011   2.713  0.1976 -0.0601  0.7937
 1752TIP3    H126891   0.005   6.058   2.754 -0.8399  0.8972 -1.9320
 1752TIP3    H226892   0.036   5.939   2.665  1.0465  0.3144 -0.5629
 1753TIP3   OH226893   4.486   1.006   1.121 -0.3970 -0.4943 -0.1681
 1753TIP3    H126894   4.479   1.073   1.189 -0.9854 -0.5843 -0.1373
 1753TIP3    H226895   4.428   1.035   1.051 -0.1110 -0.6131 -0.4633
 1754TIP3   OH226896   4.949   5.483   3.936 -0.4074  0.4655 -0.2342
 1754TIP3    H126897   5.031   5.530   3.952 -1.1013  1.4581  0.5799
 1754TIP3    H226898   4.969   5.392   3.959  1.3381  0.0218 -3.0976
 1755TIP3   OH226899   5.847   6.462   3.070  0.2920 -0.1234 -0.0489
 1755TIP3    H126900   5.847   6.522   3.145  0.5513 -0.5921  0.3332
 1755TIP3    H226901   5.777   6.495   3.013  2.0251  2.0486 -1.0893
 1756TIP3   OH226902   1.948   3.636   3.071  0.1912  0.2229 -0.1262
 1756TIP3    H126903   1.861   3.668   3.093  0.3497  0.9159 -0.4673
 1756TIP3    H226904   2.008   3.694   3.118  0.4703 -0.7571  0.7716
 1757TIP3   OH226905   0.907   6.766   2.454 -0.0013 -0.0636 -0.5535
 1757TIP3    H126906   0.843   6.792   2.520  0.9150 -0.7228  0.6186
 1757TIP3    H226907   0.881   6.677   2.429  0.7757 -0.5589  0.3535
 1758TIP3   OH226908   6.206   2.219   1.576 -0.0474  0.2053 -0.3139
 1758TIP3    H126909   6.275   2.284   1.562 -0.5624  0.5485 -1.3379
 1758TIP3    H226910   6.249   2.134   1.566  0.2946  0.4155 -0.6124
 1759TIP3   OH226911   2.346   3.556   0.712 -0.2165  0.1652 -0.3462
 1759TIP3    H126912   2.329   3.536   0.620 -0.8186  0.6358 -0.3457
 1759TIP3    H226913   2.263   3.536   0.756  0.1774 -0.3903  0.1512
 1760TIP3   OH226914   0.620   6.460   3.529  0.4857  0.0666 -0.1916
 1760TIP3    H126915   0.698   6.412   3.502  0.6813  0.3825 -0.2063
 1760TIP3    H226916   0.625   6.461   3.625 -0.4863 -1.5076 -0.0944
 1761TIP3   OH226917   6.641   0.243   0.283  0.6141 -0.4530  0.1893
 1761TIP3    H126918   6.615   0.272   0.370  1.5156  0.3377  0.2132
 1761TIP3    H226919   6.617   0.315   0.224  0.2923 -0.8513 -0.1757
 1762TIP3   OH226920   1.616   0.762   4.303  0.0866  0.4409 -0.2724
 1762TIP3    H126921   1.584   0.841   4.259 -1.0205  0.4648  0.5077
 1762TIP3    H226922   1.579   0.768   4.391 -0.5779 -1.2652 -0.3991
 1763TIP3   OH226923   2.236   2.416   8.506 -0.0209 -0.3236 -0.2143
 1763TIP3    H126924   2.163   2.422   8.569  0.3996  3.4487  0.1590
 1763TIP3    H226925   2.313   2.443   8.557  0.9235 -0.3958 -1.5622
 1764TIP3   OH226926   1.084   5.391   0.774  0.2711 -0.3611  0.0943
 1764TIP3    H126927   1.171   5.417   0.803 -0.0946  0.9343  0.0638
 1764TIP3    H226928   1.080   5.297   0.794  1.9952 -0.6644 -0.7471
 1765TIP3   OH226929   4.141   3.321   3.118 -0.0062  0.0416 -0.3805
 1765TIP3    H126930   4.088   3.298   3.194 -0.4579 -1.8585 -1.1976
 1765TIP3    H226931   4.117   3.412   3.099 -0.8669  0.1279  0.9428
 1766TIP3   OH226932   1.659   5.750   2.426 -0.4129  0.1707 -0.2035
 1766TIP3    H126933   1.585   5.741   2.366  0.1886 -2.9506 -0.6647
 1766TIP3    H226934   1.731   5.780   2.370 -0.3958 -0.6065 -0.6131
 1767TIP3   OH226935   6.007   3.865   0.516 -0.1614  0.0280 -0.1196
 1767TIP3    H126936   6.075   3.930   0.500  0.0997  0.1462  1.2723
 1767TIP3    H226937   6.014   3.803   0.444 -0.1284  1.2918 -1.2461
 1768TIP3   OH226938   0.210   6.030   8.439  0.0560  0.1446 -0.1347
 1768TIP3    H126939   0.138   6.093   8.449 -0.6438 -0.6975  0.2653
 1768TIP3    H226940   0.201   5.971   8.514  0.8359 -0.3026 -0.3834
 1769TIP3   OH226941   4.555   3.293   2.477 -0.0200 -0.4936  0.3833
 1769TIP3    H126942   4.569   3.211   2.524 -1.0666  0.0200  1.6531
 1769TIP3    H226943   4.638   3.310   2.433  0.8246 -1.2711  1.6188
 1770TIP3   OH226944   2.745   4.920   0.284  0.4462 -0.1609 -0.0990
 1770TIP3    H126945   2.704   4.876   0.209 -1.4813  1.4157 -0.0613
 1770TIP3    H226946   2.839   4.903   0.273  0.1130 -1.0524 -2.1559
 1771TIP3   OH226947   4.548   1.246   1.775  0.5838 -0.3674  0.4251
 1771TIP3    H126948   4.541   1.329   1.729 -2.5002 -0.7413 -0.0080
 1771TIP3    H226949   4.607   1.193   1.721 -0.8126  0.1362 -1.7384
 1772TIP3   OH226950   2.247   0.328   4.584 -0.0261  0.6025  0.2802
 1772TIP3    H126951   2.227   0.311   4.676 -3.6379  0.9220 -0.3105
 1772TIP3    H226952   2.253   0.242   4.544 -1.2024  0.4844  0.3420
 1773TIP3   OH226953   2.013   0.410   0.742  0.6811 -0.0650  0.6291
 1773TIP3    H126954   2.022   0.420   0.647 -0.3145 -0.7659  0.4405
 1773TIP3    H226955   2.020   0.316   0.757 -2.0761 -0.3020  0.8730
 1774TIP3   OH226956   3.913   0.509   3.171  0.0542  0.3109  0.3111
 1774TIP3    H126957   3.968   0.560   3.229 -0.8382 -0.0459  1.5172
 1774TIP3    H226958   3.944   0.419   3.180  1.4674  0.5527 -1.6263
 1775TIP3   OH226959   4.481   0.032   3.719  0.1559  0.5034  0.1412
 1775TIP3    H126960   4.473   0.006   3.811  0.8241 -0.2790 -0.0161
 1775TIP3    H226961   4.556   0.092   3.719 -0.8051  1.7371  0.3497
 1776TIP3   OH226962   2.858   3.582   3.093 -0.0545  0.5101  0.1445
 1776TIP3    H126963   2.777   3.571   3.043  2.1884  1.4312 -4.1236
 1776TIP3    H226964   2.874   3.676   3.093  1.5120  0.2657  0.0053
 1777TIP3   OH226965   5.718   6.641   0.722  0.1844 -0.7384 -0.8527
 1777TIP3    H126966   5.678   6.722   0.691 -0.8307 -1.0133 -0.2934
 1777TIP3    H226967   5.694   6.636   0.814 -0.4029 -2.0579 -1.0604
 1778TIP3   OH226968   3.419   2.353   8.736  0.2152 -0.1640  0.6854
 1778TIP3    H126969   3.369   2.294   8.680 -0.9788  1.0630  0.3977
 1778TIP3    H226970   3.454   2.419   8.676  0.8317 -0.1006  1.1036
 1779TIP3   OH226971   6.667   2.439   2.190  0.0108  0.1688  0.3232
 1779TIP3    H126972   6.602   2.374   2.215 -1.1317  1.9043  2.1544
 1779TIP3    H226973   6.622   2.494   2.125 -0.2798  1.1427  1.3146
 1780TIP3   OH226974   1.009   1.703   1.779 -0.2695 -0.0757 -0.8913
 1780TIP3    H126975   0.976   1.614   1.770 -1.5662  0.1341  1.0870
 1780TIP3    H226976   0.931   1.757   1.791  0.5768  1.0271 -0.1098
 1781TIP3   OH226977   5.340   1.898   1.346  0.9738 -0.3508 -0.6967
 1781TIP3    H126978   5.338   1.992   1.328  0.7677 -0.4758 -1.3468
 1781TIP3    H226979   5.254   1.867   1.321  0.7017 -0.5605  0.4434
 1782TIP3   OH226980   2.887   2.352   2.218 -0.5301 -0.2914 -0.2269
 1782TIP3    H126981   2.915   2.384   2.132 -1.1450 -1.1856 -0.7668
 1782TIP3    H226982   2.897   2.257   2.213  0.5091 -0.2866  1.0837
 1783TIP3   OH226983   1.347   2.206   0.257 -0.2674  0.1988  0.5513
 1783TIP3    H126984   1.365   2.290   0.300 -2.7331  1.1538 -0.1096
 1783TIP3    H226985   1.308   2.230   0.173  0.5767 -1.6554 -0.4274
 1784TIP3   OH226986   5.463   1.439   0.889  0.4496 -0.0859  0.2162
 1784TIP3    H126987   5.428   1.357   0.925 -0.3575  0.6841  1.2673
 1784TIP3    H226988   5.452   1.429   0.794  2.4240 -2.0809  0.1088
 1785TIP3   OH226989   0.871   1.853   2.888 -0.3724 -0.1648  0.0066
 1785TIP3    H126990   0.917   1.861   2.804  0.0707 -0.9278  0.1655
 1785TIP3    H226991   0.911   1.777   2.930  0.6772  1.2596  1.7222
 1786TIP3   OH226992   4.325   1.042   1.709 -0.3893 -0.4427  0.0569
 1786TIP3    H126993   4.409   1.009   1.680 -1.1186 -0.7044 -1.9181
 1786TIP3    H226994   4.344   1.091   1.789  1.6899 -0.1178 -0.5943
 1787TIP3   OH226995   1.485   5.561   3.227  0.0865  0.2898  0.6194
 1787TIP3    H126996   1.465   5.555   3.134  2.7773 -0.4065 -0.0098
 1787TIP3    H226997   1.489   5.655   3.244 -0.7549  0.4257  0.1174
 1788TIP3   OH226998   3.379   6.015   3.435 -0.4362  0.2157 -0.2203
 1788TIP3    H126999   3.301   5.982   3.479 -0.7457  0.9343 -0.2207
 1788TIP3    H227000   3.438   5.940   3.431 -0.4901  0.0683  1.2267
 1789TIP3   OH227001   4.204   0.004   2.896  0.4140  0.2119  0.0431
 1789TIP3    H127002   4.132  -0.008   2.834 -1.1978 -2.4674  2.2148
 1789TIP3    H227003   4.174   0.075   2.954 -0.6313 -0.9936  1.0304
 1790TIP3   OH227004   0.079   1.182   2.104 -0.1207 -0.0203 -0.7315
 1790TIP3    H127005  -0.014   1.175   2.080 -0.4121  2.9809 -0.8546
 1790TIP3    H227006   0.086   1.132   2.185 -1.7378 -0.7217 -0.9779
 1791TIP3   OH227007   5.596   0.417   0.580 -0.3155 -0.0628 -0.1178
 1791TIP3    H127008   5.655   0.381   0.514  0.9060  0.6627  0.5484
 1791TIP3    H227009   5.653   0.461   0.643 -1.5286  0.2205  0.8373
 1792TIP3   OH227010   3.022   4.118   3.889  0.2216  0.0511 -0.1835
 1792TIP3    H127011   2.941   4.136   3.840 -0.1850 -0.6411  0.2014
 1792TIP3    H227012   2.999   4.044   3.945  1.5981 -1.2597 -1.2554
 1793TIP3   OH227013   0.883   0.784   3.077 -0.3839  0.2689  0.2509
 1793TIP3    H127014   0.948   0.848   3.106  0.3666 -0.3422 -0.0460
 1793TIP3    H227015   0.860   0.736   3.156  0.7934 -0.6248  0.0775
 1794TIP3   OH227016   1.847   0.600   3.221  0.1697 -0.2878 -0.7935
 1794TIP3    H127017   1.791   0.567   3.151 -0.8193  0.7012 -0.5027
 1794TIP3    H227018   1.788   0.651   3.277  1.4475  1.2639 -0.7823
 1795TIP3   OH227019   1.090   4.741   3.095 -0.3813 -0.3226 -0.4548
 1795TIP3    H127020   1.146   4.689   3.153 -0.0451 -0.0475 -0.5321
 1795TIP3    H227021   1.140   4.821   3.078 -0.7725 -0.0998 -0.5712
 1796TIP3   OH227022   1.015   2.821   2.302 -0.3689  0.5732  0.8453
 1796TIP3    H127023   1.033   2.790   2.213 -2.9572  3.1772 -0.7905
 1796TIP3    H227024   1.038   2.748   2.358  2.1666 -0.9429 -1.8409
 1797TIP3   OH227025   3.799   6.563   1.416 -0.0106 -0.6146 -0.2530
 1797TIP3    H127026   3.861   6.636   1.415  1.0457 -1.4661  0.6435
 1797TIP3    H227027   3.770   6.557   1.507  0.4445 -1.7367 -0.1688
 1798TIP3   OH227028   2.099   4.776   1.323 -0.3162 -0.1804 -0.1846
 1798TIP3    H127029   2.062   4.698   1.365  0.9598  0.0538  1.4591
 1798TIP3    H227030   2.194   4.765   1.330 -0.1080  1.4082 -0.1259
 1799TIP3   OH227031   2.680   5.092   1.809  0.0644  0.0168  0.0321
 1799TIP3    H127032   2.673   5.008   1.854 -1.9222 -0.1471 -0.4935
 1799TIP3    H227033   2.647   5.075   1.721  1.9070  0.8185 -0.8726
 1800TIP3   OH227034   6.274   3.004   2.489 -0.7260 -0.2366  0.2998
 1800TIP3    H127035   6.204   2.942   2.472 -0.7261 -0.3836  0.8136
 1800TIP3    H227036   6.353   2.963   2.455 -0.7022 -0.5852  0.7704
 1801TIP3   OH227037   3.027   4.391   3.440 -0.3469 -0.5225  0.3318
 1801TIP3    H127038   2.975   4.440   3.504 -1.5132  1.6788 -2.0887
 1801TIP3    H227039   3.107   4.444   3.429 -0.7189 -0.1734 -0.8712
 1802TIP3   OH227040   2.208   1.407   4.476  0.2263  0.3768  0.5610
 1802TIP3    H127041   2.197   1.405   4.380  0.7921  2.1759  0.4260
 1802TIP3    H227042   2.285   1.462   4.490  0.4653 -0.2994  2.0518
 1803TIP3   OH227043   2.469   1.230   8.372 -0.4153 -0.4951  0.1043
 1803TIP3    H127044   2.476   1.138   8.398 -1.2842 -0.9948 -1.3251
 1803TIP3    H227045   2.559   1.260   8.363 -0.1208 -1.4852 -0.3320
 1804TIP3   OH227046   3.328   0.163   1.103  0.1723 -0.3707 -0.1116
 1804TIP3    H127047   3.421   0.183   1.110  0.6610 -2.1704 -1.0127
 1804TIP3    H227048   3.294   0.230   1.043  0.4274  1.5113  1.7387
 1805TIP3   OH227049   6.646   0.843   0.237  0.2383  0.3366  0.3701
 1805TIP3    H127050   6.683   0.840   0.149 -0.4867  0.8416  0.0396
 1805TIP3    H227051   6.676   0.926   0.273 -1.0726  1.0565 -0.1400
 1806TIP3   OH227052   6.738   6.172   3.239 -0.3651  0.2934 -0.7520
 1806TIP3    H127053   6.761   6.159   3.331  0.7498  1.4718 -0.8420
 1806TIP3    H227054   6.820   6.159   3.191 -0.6302  1.0375 -1.4385
 1807TIP3   OH227055   3.603   2.298   0.592 -0.4426  0.2445 -0.4582
 1807TIP3    H127056   3.559   2.376   0.556  0.3090  1.3224  0.8470
 1807TIP3    H227057   3.697   2.316   0.581 -0.2503 -1.3315 -1.7968
 1808TIP3   OH227058   6.673   0.057   0.512  0.6325  0.2273 -0.4489
 1808TIP3    H127059   6.656   0.085   0.422 -0.6932 -3.2344 -1.4183
 1808TIP3    H227060   6.598   0.089   0.562 -0.3426 -0.7181 -1.2901
 1809TIP3   OH227061   3.775   0.082   1.183 -0.1549  0.0723 -0.2697
 1809TIP3    H127062   3.718   0.046   1.251 -1.0841  0.4163 -0.8440
 1809TIP3    H227063   3.788   0.174   1.208  2.8835 -0.7277  1.6421
 1810TIP3   OH227064   3.519   3.045   4.346  0.3234 -0.3457  0.4054
 1810TIP3    H127065   3.606   3.046   4.387  0.2353  1.1402  0.6223
 1810TIP3    H227066   3.523   3.115   4.281 -0.0725 -1.6025 -0.9983
 1811TIP3   OH227067   1.495   1.449   8.729 -0.0082  0.5636 -0.5976
 1811TIP3    H127068   1.555   1.491   8.668 -1.3279  1.1548 -1.5179
 1811TIP3    H227069   1.416   1.502   8.726 -0.1010  0.6798  1.7192
 1812TIP3   OH227070   2.979   3.940   4.128  0.6818  0.3903 -0.1452
 1812TIP3    H127071   3.040   4.005   4.162  1.2556  0.1079 -0.6288
 1812TIP3    H227072   2.924   3.918   4.203  2.5764 -0.9737  0.9016
 1813TIP3   OH227073   3.554   2.849   1.681 -0.4041 -0.1622 -0.9295
 1813TIP3    H127074   3.612   2.839   1.756 -2.1546  1.0384  0.6960
 1813TIP3    H227075   3.582   2.930   1.638 -0.7780  0.3518 -0.2183
 1814TIP3   OH227076   2.335   5.774   3.944 -0.7122  0.1652 -0.2475
 1814TIP3    H127077   2.329   5.857   3.992 -1.3387  0.5856 -1.0362
 1814TIP3    H227078   2.419   5.737   3.972  0.0571  1.5411 -0.6240
 1815TIP3   OH227079   1.785   0.003   1.294 -0.0213  0.4106 -0.1223
 1815TIP3    H127080   1.737  -0.033   1.219  0.2921 -0.0842 -0.0942
 1815TIP3    H227081   1.780  -0.066   1.360 -1.3051  1.3042  0.7634
 1816TIP3   OH227082   4.469   5.421   0.415 -0.1830  0.3906  0.0492
 1816TIP3    H127083   4.563   5.440   0.415 -0.1647  0.4399  1.5090
 1816TIP3    H227084   4.430   5.497   0.372  0.3975  0.6713  0.0028
 1817TIP3   OH227085   3.561   4.167   2.678 -0.6149  0.5550  0.1402
 1817TIP3    H127086   3.469   4.162   2.703 -0.6239  2.3378  0.6384
 1817TIP3    H227087   3.572   4.257   2.646  0.6907  0.0214 -1.0446
 1818TIP3   OH227088   3.697   0.702   2.323  0.1454  0.0587 -0.3404
 1818TIP3    H127089   3.786   0.671   2.337  1.1355  2.7496 -0.0789
 1818TIP3    H227090   3.694   0.788   2.365 -1.8850  1.0251 -2.2190
 1819TIP3   OH227091   0.735   5.787   0.709 -0.6636  0.3438  0.1201
 1819TIP3    H127092   0.803   5.739   0.662  0.7397  1.9838  0.3508
 1819TIP3    H227093   0.778   5.816   0.790 -1.2344  2.4157 -0.2562
 1820TIP3   OH227094   1.232   1.178   1.982 -0.0951 -0.3209  1.1247
 1820TIP3    H127095   1.278   1.097   2.004 -0.3875 -0.5187  1.0227
 1820TIP3    H227096   1.162   1.184   2.047 -0.2605 -0.3132  0.9498
 1821TIP3   OH227097   6.717   4.912   3.152 -0.2151  0.1432 -0.4443
 1821TIP3    H127098   6.770   4.870   3.220  0.5483  0.2590 -0.9570
 1821TIP3    H227099   6.780   4.960   3.099 -0.8623  0.4350 -0.9602
 1822TIP3   OH227100   4.292   6.253   1.030  0.5906  0.1043  0.2233
 1822TIP3    H127101   4.361   6.218   1.087 -0.1794 -1.5221  0.2323
 1822TIP3    H227102   4.334   6.262   0.945  0.5208 -2.2858 -0.1414
 1823TIP3   OH227103   2.482   4.079   0.651  0.6148  0.3523  0.0660
 1823TIP3    H127104   2.460   3.999   0.699  1.3349 -0.1407 -0.4174
 1823TIP3    H227105   2.566   4.060   0.609 -0.7193  0.2112 -2.7026
 1824TIP3   OH227106   0.538   4.757   3.139 -0.3442 -0.0652 -0.3286
 1824TIP3    H127107   0.465   4.698   3.153 -0.0259 -0.2671  0.5565
 1824TIP3    H227108   0.592   4.748   3.218  0.9593 -0.3830 -1.2163
 1825TIP3   OH227109   0.478   0.197   1.537 -0.4346 -0.3747  0.1018
 1825TIP3    H127110   0.535   0.120   1.543  0.2185  0.1028  0.1878
 1825TIP3    H227111   0.436   0.188   1.451  0.7807 -0.0673 -0.5569
 1826TIP3   OH227112   0.908   2.380   2.885 -0.2502  0.2591 -0.3958
 1826TIP3    H127113   0.870   2.386   2.797 -0.3024  1.5318 -0.3088
 1826TIP3    H227114   0.833   2.366   2.943 -0.5678  2.1434 -0.2907
 1827TIP3   OH227115   5.652   6.437   2.229 -0.2406 -0.4410  0.4486
 1827TIP3    H127116   5.565   6.397   2.230 -1.4157  1.7962 -1.9687
 1827TIP3    H227117   5.640   6.524   2.267  1.0174 -0.1700  0.2840
 1828TIP3   OH227118   6.310   6.515   2.134 -0.2672  0.0223 -0.1314
 1828TIP3    H127119   6.217   6.534   2.116 -0.4065  0.0989  0.6196
 1828TIP3    H227120   6.342   6.476   2.053 -0.7718  0.6521 -0.6578
 1829TIP3   OH227121   6.433   3.802   1.635  0.1979 -0.4268  0.4682
 1829TIP3    H127122   6.375   3.726   1.628 -1.5135  0.9429 -1.2056
 1829TIP3    H227123   6.517   3.772   1.602 -0.3042 -1.7138  0.3146
 1830TIP3   OH227124   2.642   3.587   0.990  0.0515 -0.2890 -0.0646
 1830TIP3    H127125   2.646   3.492   0.982 -1.2308 -0.3777  0.2099
 1830TIP3    H227126   2.727   3.617   0.957  0.6258 -1.5394  0.2098
 1831TIP3   OH227127   5.905   6.465   1.668 -0.0355 -0.1398  0.9657
 1831TIP3    H127128   5.945   6.388   1.708  0.6632  0.2750  1.0637
 1831TIP3    H227129   5.847   6.428   1.601 -0.4814 -0.7921  1.6871
 1832TIP3   OH227130   3.163   3.892   2.341  0.3561  0.0429 -0.0655
 1832TIP3    H127131   3.175   3.886   2.246 -0.3551 -1.7049 -0.0901
 1832TIP3    H227132   3.250   3.878   2.377  0.5071 -0.0420 -0.4551
 1833TIP3   OH227133   5.290   0.475   7.887  0.5614 -0.4848 -0.2250
 1833TIP3    H127134   5.368   0.446   7.841  0.1948  0.2894 -1.3732
 1833TIP3    H227135   5.278   0.566   7.861 -1.2717 -0.8653 -0.8861
 1834TIP3   OH227136   0.543   4.580   2.707  0.4275  0.1370 -0.0049
 1834TIP3    H127137   0.611   4.594   2.641  0.8744  1.3926  0.6779
 1834TIP3    H227138   0.557   4.650   2.770 -0.8521 -0.2218  0.7076
 1835TIP3   OH227139   0.843   5.221   3.580 -0.3978  0.4278  0.2706
 1835TIP3    H127140   0.821   5.129   3.595 -3.4079  1.1216  0.8389
 1835TIP3    H227141   0.939   5.224   3.581 -0.2245 -2.4005  2.0567
 1836TIP3   OH227142   2.744   4.131   8.718 -0.2183  0.4198  0.1964
 1836TIP3    H127143   2.745   4.224   8.741  0.4265  0.6946 -0.8614
 1836TIP3    H227144   2.715   4.129   8.627 -0.1747 -0.4123  0.1945
 1837TIP3   OH227145   1.714   3.913   0.424 -0.0363 -0.4760  0.5280
 1837TIP3    H127146   1.741   3.826   0.451 -1.1246 -0.6847  1.0154
 1837TIP3    H227147   1.751   3.972   0.490 -0.7620 -0.7532  1.1923
 1838TIP3   OH227148   5.945   2.054   1.442 -0.8739 -0.4423 -0.1507
 1838TIP3    H127149   6.000   2.125   1.408 -1.2429  1.8235  3.3712
 1838TIP3    H227150   5.860   2.066   1.399 -0.1198 -0.6717 -1.7631
 1839TIP3   OH227151   1.907   0.753   2.807  0.8890 -0.3115 -0.0568
 1839TIP3    H127152   1.940   0.664   2.792  0.5683 -0.5430  0.5789
 1839TIP3    H227153   1.964   0.789   2.875  0.7671 -0.1780 -0.0241
 1840TIP3   OH227154   5.019   2.815   2.284  0.2742 -0.4541  0.3149
 1840TIP3    H127155   4.954   2.780   2.223  0.9001 -1.2871  0.1143
 1840TIP3    H227156   5.033   2.905   2.254 -0.1228 -0.5496 -0.1845
 1841TIP3   OH227157   1.872   6.659   1.936 -0.3078  0.0455 -0.0101
 1841TIP3    H127158   1.874   6.720   2.010  0.0885 -0.3193  0.2796
 1841TIP3    H227159   1.944   6.598   1.952 -1.5993 -1.4185  0.4964
 1842TIP3   OH227160   3.496   3.811   1.085 -0.5326  0.6071 -0.6087
 1842TIP3    H127161   3.446   3.818   1.167 -0.2719 -1.2866 -0.2463
 1842TIP3    H227162   3.439   3.761   1.027 -0.7576  2.0372 -1.6631
 1843TIP3   OH227163   6.048   2.636   3.281  0.1607  0.0719  0.0543
 1843TIP3    H127164   6.139   2.650   3.308  0.4310  0.9931 -1.2211
 1843TIP3    H227165   6.039   2.541   3.276  0.5169 -0.0865  1.8667
 1844TIP3   OH227166   2.917   2.183   1.402  0.6138 -0.7136  0.0159
 1844TIP3    H127167   2.968   2.104   1.420 -1.3426 -2.1910 -0.4846
 1844TIP3    H227168   2.827   2.150   1.390  0.2707  1.1082 -3.8493
 1845TIP3   OH227169   3.037   1.882   2.044 -0.8186  0.0032  0.3846
 1845TIP3    H127170   2.992   1.827   2.109  0.7306  1.7618  3.1252
 1845TIP3    H227171   3.093   1.821   1.996 -0.4125 -1.1181  2.1708
 1846TIP3   OH227172   3.214   1.254   1.373 -0.5825 -0.3566  0.1124
 1846TIP3    H127173   3.228   1.161   1.356 -0.1703 -0.2649 -0.0820
 1846TIP3    H227174   3.297   1.284   1.410 -0.8096 -0.1258  0.4396
 1847TIP3   OH227175   0.352   6.340   0.131  0.2475  0.3556 -0.2702
 1847TIP3    H127176   0.347   6.426   0.173 -0.8838  1.6425 -2.8393
 1847TIP3    H227177   0.423   6.295   0.177  0.7512  2.5844  1.2660
 1848TIP3   OH227178   3.780   1.309   2.603 -0.2199  0.0368 -0.2595
 1848TIP3    H127179   3.687   1.333   2.599  0.2501  1.8982 -1.5647
 1848TIP3    H227180   3.783   1.233   2.661 -2.3935  0.7408  0.8917
 1849TIP3   OH227181   5.003   0.016   1.082  0.6624 -0.2086  0.0690
 1849TIP3    H127182   5.008  -0.019   1.171  0.7468  1.1200  0.6132
 1849TIP3    H227183   5.062   0.091   1.082 -1.6973  1.7851 -0.1407
 1850TIP3   OH227184   3.246   5.128   8.625 -0.2519 -0.0779  0.0075
 1850TIP3    H127185   3.231   5.034   8.619  0.3570 -0.1800  0.0322
 1850TIP3    H227186   3.341   5.138   8.619 -0.2308  0.4543  1.0161
 1851TIP3   OH227187   3.269   2.744   3.086 -0.2405  0.0706 -0.1516
 1851TIP3    H127188   3.213   2.806   3.132  1.1048  0.7104  0.7060
 1851TIP3    H227189   3.283   2.784   3.000  0.5445  0.9469  0.3631
 1852TIP3   OH227190   6.485   0.117   3.933  0.0508 -0.4701 -0.0562
 1852TIP3    H127191   6.552   0.049   3.927  0.3423 -0.2391  0.5763
 1852TIP3    H227192   6.412   0.074   3.979 -0.0772 -0.5913 -0.3670
 1853TIP3   OH227193   5.907   0.758   1.421 -0.6094  0.4272 -0.4109
 1853TIP3    H127194   5.896   0.663   1.433 -1.8114  0.5251 -0.5622
 1853TIP3    H227195   5.968   0.784   1.490  0.5012 -0.5960 -0.9683
 1854TIP3   OH227196   0.631   2.250   3.242 -0.7642  0.3455  0.6841
 1854TIP3    H127197   0.726   2.238   3.254 -0.4064  0.3246 -1.8175
 1854TIP3    H227198   0.623   2.304   3.164 -2.8534  0.1338  0.7003
 1855TIP3   OH227199   4.321   5.910   1.129 -0.4703  0.9289  1.0059
 1855TIP3    H127200   4.311   6.001   1.157 -0.7993  0.7209  1.5709
 1855TIP3    H227201   4.368   5.867   1.201  1.8681  1.1863 -0.2756
 1856TIP3   OH227202   3.158   5.128   0.614 -0.1514 -0.4833 -0.3463
 1856TIP3    H127203   3.104   5.131   0.692 -0.4909 -2.1891 -0.4886
 1856TIP3    H227204   3.170   5.035   0.595  1.2985 -0.1344 -1.3829
 1857TIP3   OH227205   3.500   6.780   1.311 -0.1885 -0.4646  0.1741
 1857TIP3    H127206   3.487   6.687   1.330 -2.5939  0.0427  1.4115
 1857TIP3    H227207   3.433   6.824   1.363 -0.3461  1.8468 -1.8297
 1858TIP3   OH227208   4.816   1.842   8.304 -0.1287  0.8258  0.1690
 1858TIP3    H127209   4.821   1.907   8.234 -0.3330  1.1686  0.4705
 1858TIP3    H227210   4.868   1.768   8.272  0.3002  1.2278 -0.0836
 1859TIP3   OH227211   4.117   5.396   1.329 -0.1733  0.4026  0.1786
 1859TIP3    H127212   4.057   5.470   1.329  0.2547  0.7606  1.1856
 1859TIP3    H227213   4.201   5.433   1.302  0.2808  0.5017  1.6743
 1860TIP3   OH227214   2.242   4.714   8.743 -0.2096 -0.5118 -0.0133
 1860TIP3    H127215   2.169   4.739   8.685 -0.1320  1.1614  0.5554
 1860TIP3    H227216   2.321   4.738   8.694 -0.1287  0.3888  0.5507
 1861TIP3   OH227217   5.598   2.221   7.725 -0.3297 -0.0148 -0.3197
 1861TIP3    H127218   5.654   2.166   7.780 -0.3607  1.8779  1.7289
 1861TIP3    H227219   5.659   2.280   7.680 -0.4469 -0.2219 -0.7518
 1862TIP3   OH227220   3.005   6.785   0.772 -0.4343  0.2187 -0.3709
 1862TIP3    H127221   2.958   6.856   0.816 -1.1229  0.9277 -2.1559
 1862TIP3    H227222   3.084   6.772   0.824 -0.1627  2.4822 -0.1324
 1863TIP3   OH227223   4.097   3.644   1.519 -0.2705  0.1724  0.0540
 1863TIP3    H127224   4.009   3.659   1.552 -0.4762 -0.0440 -0.3915
 1863TIP3    H227225   4.085   3.616   1.428  0.2797  0.5910 -0.1555
 1864TIP3   OH227226   3.595   5.258   0.403 -0.1301 -0.1206  0.2954
 1864TIP3    H127227   3.625   5.332   0.351  1.7828 -0.7023  0.5005
 1864TIP3    H227228   3.628   5.274   0.491 -0.9325 -0.5332  0.6885
 1865TIP3   OH227229   6.483   3.215   2.200 -0.4660 -0.3626 -0.2379
 1865TIP3    H127230   6.556   3.201   2.260 -0.3935 -0.6345 -0.3876
 1865TIP3    H227231   6.406   3.224   2.256 -0.3408 -0.2393 -0.0878
 1866TIP3   OH227232   0.628   4.801   2.869 -0.5224 -0.0253 -0.2531
 1866TIP3    H127233   0.708   4.831   2.912 -0.8450  0.8687 -0.2542
 1866TIP3    H227234   0.579   4.757   2.938 -0.3990  0.1417 -0.0580
 1867TIP3   OH227235   1.908   6.509   3.128  0.9938  0.0440  0.0007
 1867TIP3    H127236   1.973   6.549   3.185  1.0407  0.0414 -0.0510
 1867TIP3    H227237   1.825   6.547   3.155  1.1003  0.5663 -0.3919
 1868TIP3   OH227238   6.358   6.676   0.223  0.2430 -0.3248  0.3115
 1868TIP3    H127239   6.349   6.700   0.315  0.9044 -0.2429  0.3587
 1868TIP3    H227240   6.268   6.672   0.191  0.0477  1.2183  0.5658
 1869TIP3   OH227241   1.025   2.999   8.699  0.5686 -0.4826  0.2494
 1869TIP3    H127242   1.043   3.002   8.793 -0.1578  2.5230  0.4060
 1869TIP3    H227243   0.940   2.957   8.691  0.0147  0.4417  1.1042
 1870TIP3   OH227244   4.178   4.959   8.810 -0.1032  0.1983 -0.2419
 1870TIP3    H127245   4.221   4.994   8.888  1.0467 -0.4413 -0.5783
 1870TIP3    H227246   4.085   4.959   8.833  0.1058  1.1019  0.6899
 1871TIP3   OH227247   0.586   1.800   8.578 -0.3253  0.7413 -0.3282
 1871TIP3    H127248   0.606   1.840   8.662 -0.9565 -0.1152  0.2483
 1871TIP3    H227249   0.646   1.725   8.573 -2.1154 -0.8357  0.6399
 1872TIP3   OH227250   0.292   4.545   3.651 -0.1650  0.0292 -0.4845
 1872TIP3    H127251   0.200   4.520   3.656  0.6720 -3.3066  0.9923
 1872TIP3    H227252   0.323   4.539   3.742  2.0680 -1.6813 -1.2621
 1873TIP3   OH227253   1.685   0.088   0.237 -0.3584 -0.3731 -0.3619
 1873TIP3    H127254   1.668   0.008   0.285 -0.1043 -0.3655 -0.2581
 1873TIP3    H227255   1.637   0.077   0.155  0.2168 -0.9214 -0.6340
 1874TIP3   OH227256   0.099   0.239   0.296 -0.0290 -0.0056  0.0784
 1874TIP3    H127257   0.121   0.170   0.233 -1.2227 -0.4181  0.0744
 1874TIP3    H227258   0.009   0.263   0.274 -0.0878  0.6065  0.9399
 1875TIP3   OH227259   4.731   6.199   0.237 -0.3975  0.3175  0.3701
 1875TIP3    H127260   4.751   6.202   0.144 -1.0237  0.0204  0.2194
 1875TIP3    H227261   4.702   6.288   0.258 -1.7450  0.0080 -0.0766
 1876TIP3   OH227262   3.378   2.119   2.031 -0.1731 -0.5627  0.3779
 1876TIP3    H127263   3.399   2.040   2.080 -0.4610 -1.0484 -0.2733
 1876TIP3    H227264   3.287   2.139   2.056 -0.7947 -1.5848 -0.9649
 1877TIP3   OH227265   2.393   5.411   0.035  0.1001 -0.1674  0.2659
 1877TIP3    H127266   2.466   5.352   0.050  0.0663 -0.5115 -0.8712
 1877TIP3    H227267   2.329   5.360  -0.014 -0.0453  0.7229 -0.5018
 1878TIP3   OH227268   2.539   3.000   0.114  0.7089 -0.0435 -0.0344
 1878TIP3    H127269   2.547   2.908   0.088  0.1976 -0.5624  1.5163
 1878TIP3    H227270   2.462   3.001   0.171  1.1848  1.1966  0.6080
 1879TIP3   OH227271   5.047   2.178   2.099 -0.0251 -0.0216 -0.4835
 1879TIP3    H127272   5.068   2.102   2.044 -0.2672  0.5012 -1.3156
 1879TIP3    H227273   4.969   2.152   2.148 -0.4865 -0.0966 -1.2366
 1880TIP3   OH227274   3.769   5.574   0.499 -0.6765  0.1703 -1.0164
 1880TIP3    H127275   3.717   5.563   0.419  0.0338  2.9139 -1.9737
 1880TIP3    H227276   3.750   5.663   0.528  0.3968 -0.1670  0.9506
 1881TIP3   OH227277   3.790   1.717   8.833 -0.1997  0.1679 -0.0017
 1881TIP3    H127278   3.752   1.738   8.747  1.0390 -2.7344 -1.3949
 1881TIP3    H227279   3.717   1.678   8.882 -0.2621 -0.8733 -0.8696
 1882TIP3   OH227280   5.523   0.995   1.177 -0.5235  0.4924 -0.0354
 1882TIP3    H127281   5.436   1.028   1.197 -0.3372  1.1463 -0.2881
 1882TIP3    H227282   5.528   0.996   1.082  0.6164  2.7923 -0.0170
 1883TIP3   OH227283   3.900   5.259   3.372  0.2290 -0.1858 -1.3232
 1883TIP3    H127284   3.841   5.216   3.434 -0.2948  0.9489 -1.0098
 1883TIP3    H227285   3.987   5.246   3.409  0.1182 -1.2244 -1.3971
 1884TIP3   OH227286   6.621   5.485   0.301  0.5402  0.3446 -0.2421
 1884TIP3    H127287   6.660   5.570   0.322 -0.1886  0.3297  1.3444
 1884TIP3    H227288   6.581   5.498   0.215 -0.4961  1.9802  0.4168
 1885TIP3   OH227289   0.737   2.629   8.821 -0.6189 -0.6165  0.2745
 1885TIP3    H127290   0.718   2.556   8.763  0.8775 -0.2664 -0.7328
 1885TIP3    H227291   0.761   2.701   8.762 -0.0152  0.0446  1.2892
 1886TIP3   OH227292   5.945   3.491   0.676 -0.7819 -0.6314  0.0991
 1886TIP3    H127293   5.999   3.419   0.709 -0.6820 -0.5346  0.1462
 1886TIP3    H227294   5.969   3.500   0.584  2.5864  2.3314  1.0683
 1887TIP3   OH227295   6.099   1.940   2.420  0.1578 -0.3165 -0.2017
 1887TIP3    H127296   6.053   1.936   2.503  0.2276 -0.2621 -0.1604
 1887TIP3    H227297   6.098   1.850   2.388 -1.7575 -0.0047 -1.1772
 1888TIP3   OH227298   3.381   2.465   1.828  0.3144 -0.1852 -0.6659
 1888TIP3    H127299   3.323   2.423   1.892  2.2920 -2.2537 -0.1223
 1888TIP3    H227300   3.404   2.549   1.868  0.6341 -0.9593  0.8462
 1889TIP3   OH227301   1.812   2.712   0.647  0.2706  0.1309 -0.6141
 1889TIP3    H127302   1.894   2.725   0.695  0.9846 -0.4898 -1.6115
 1889TIP3    H227303   1.839   2.708   0.555 -0.9938  0.8096 -1.0352
 1890TIP3   OH227304   0.460   4.572   1.542  0.3323  0.0208  0.3414
 1890TIP3    H127305   0.554   4.582   1.526  0.1570  0.8879 -0.2093
 1890TIP3    H227306   0.440   4.636   1.610 -0.2444  1.4179 -1.0808
 1891TIP3   OH227307   4.084   6.380   2.235  0.1367 -0.6000 -0.2968
 1891TIP3    H127308   4.106   6.423   2.152  2.1996  0.4519  0.7252
 1891TIP3    H227309   4.134   6.298   2.233  0.2170 -0.5571 -0.0960
 1892TIP3   OH227310   5.810   3.214   2.585  0.3216 -0.0056  0.1834
 1892TIP3    H127311   5.844   3.129   2.614  1.0695 -0.0727 -0.8387
 1892TIP3    H227312   5.718   3.197   2.566  0.9448 -1.1999 -2.1769
 1893TIP3   OH227313   2.177   1.951   0.828 -0.2509 -0.3349 -0.2316
 1893TIP3    H127314   2.138   1.865   0.810  0.0674 -1.0634  2.2505
 1893TIP3    H227315   2.259   1.950   0.779 -0.4070 -1.3102 -0.5052
 1894TIP3   OH227316   1.563   5.139   0.782  0.3501  0.6256  0.0789
 1894TIP3    H127317   1.475   5.160   0.752 -0.1240 -1.1657  0.0789
 1894TIP3    H227318   1.621   5.174   0.714 -0.3705  1.5284 -0.0841
 1895TIP3   OH227319   2.990   2.182   3.871  0.1093 -0.2580  0.0777
 1895TIP3    H127320   3.058   2.132   3.914  0.9360  0.3198 -0.5285
 1895TIP3    H227321   2.920   2.118   3.854  1.0977 -1.1894 -0.5847
 1896TIP3   OH227322   5.024   3.348   0.317  0.4135  0.2139  0.0504
 1896TIP3    H127323   5.036   3.333   0.411 -0.4690  1.0380  0.3096
 1896TIP3    H227324   4.951   3.292   0.292 -0.2948  1.0650  0.1745
 1897TIP3   OH227325   0.969   1.564   0.842 -0.0603  0.8139  0.4429
 1897TIP3    H127326   0.971   1.485   0.786  0.6326  0.9591  0.2496
 1897TIP3    H227327   0.959   1.530   0.931  1.4553  0.4153  0.4914
 1898TIP3   OH227328   3.482   2.713   2.370  0.1137  0.0828 -0.0274
 1898TIP3    H127329   3.389   2.701   2.352 -0.1424  1.3450  0.3067
 1898TIP3    H227330   3.488   2.803   2.403  1.5946  0.3737 -1.0063
 1899TIP3   OH227331   1.575   5.382   3.964 -0.4360 -0.1051 -0.4932
 1899TIP3    H127332   1.664   5.352   3.945  0.3552 -0.2062  2.7708
 1899TIP3    H227333   1.562   5.455   3.904  3.5994  2.7264  1.5331
 1900TIP3   OH227334   2.201   2.553   0.700  0.0646 -0.1081  0.0559
 1900TIP3    H127335   2.140   2.627   0.698  1.9344  1.5998  1.5841
 1900TIP3    H227336   2.288   2.594   0.700  1.2037 -2.3742 -0.1389
 1901TIP3   OH227337   5.078   0.691   2.761 -0.1875  0.3552 -0.3223
 1901TIP3    H127338   5.057   0.640   2.683 -0.2847  0.7523 -0.5569
 1901TIP3    H227339   5.046   0.638   2.834  1.3594 -0.8079 -0.4263
 1902TIP3   OH227340   6.165   5.534   3.447 -0.1499 -0.0654 -0.5050
 1902TIP3    H127341   6.208   5.544   3.532 -0.4158  1.7290 -0.5407
 1902TIP3    H227342   6.201   5.605   3.394  0.0401 -1.1846 -1.9316
 1903TIP3   OH227343   4.308   6.517   1.585  0.1528  0.8428 -0.3119
 1903TIP3    H127344   4.399   6.489   1.580 -0.2174 -0.8629  1.4446
 1903TIP3    H227345   4.259   6.448   1.540 -0.4609  0.4427  0.9237
 1904TIP3   OH227346   2.668   2.052   1.324  0.3211  0.3705  0.4616
 1904TIP3    H127347   2.610   2.105   1.269  0.0390  1.1691  1.5195
 1904TIP3    H227348   2.716   1.998   1.261 -0.7307  0.5209 -0.5124
 1905TIP3   OH227349   3.735   2.031   1.569 -0.2474  0.1452 -0.1715
 1905TIP3    H127350   3.800   2.027   1.639  0.2852  2.0670 -0.5023
 1905TIP3    H227351   3.651   2.039   1.614 -0.0444  0.0104  0.2381
 1906TIP3   OH227352   2.235   2.184   1.553  0.3988  0.1078 -0.5371
 1906TIP3    H127353   2.163   2.233   1.591  0.1548 -0.6975  0.0828
 1906TIP3    H227354   2.194   2.129   1.485  0.5299  0.1230 -0.6302
 1907TIP3   OH227355   5.645   0.472   3.115 -0.5547 -0.4293  0.1677
 1907TIP3    H127356   5.662   0.382   3.086  2.3926 -0.1035  0.5877
 1907TIP3    H227357   5.639   0.522   3.033  2.6535 -0.3378 -0.1580
 1908TIP3   OH227358   0.198   6.820   1.570  0.6286 -0.0757  0.3332
 1908TIP3    H127359   0.260   6.859   1.510  1.2414 -0.6941  0.5546
 1908TIP3    H227360   0.112   6.842   1.533  0.9029  2.1644  0.8796
 1909TIP3   OH227361   4.629   5.204   3.707  0.0740  0.4209 -0.3679
 1909TIP3    H127362   4.650   5.243   3.792 -0.2237 -0.3786  0.0952
 1909TIP3    H227363   4.586   5.121   3.730 -0.4503  0.4243 -1.2986
 1910TIP3   OH227364   2.943   0.117   0.052  0.0230 -0.3730 -0.2180
 1910TIP3    H127365   2.985   0.032   0.039  0.1410 -0.3332 -0.1061
 1910TIP3    H227366   3.016   0.177   0.072 -0.1672 -0.4936  0.9100
 1911TIP3   OH227367   3.393   6.490   1.366 -0.0649 -0.3239  0.2854
 1911TIP3    H127368   3.442   6.504   1.447  0.3836 -1.6688  0.2867
 1911TIP3    H227369   3.310   6.453   1.394 -1.5684  2.8085  0.3444
 1912TIP3   OH227370   6.190   5.500   2.508 -0.1468 -0.0673  0.2802
 1912TIP3    H127371   6.140   5.455   2.440 -0.8930  1.0150  0.0931
 1912TIP3    H227372   6.211   5.431   2.571 -0.1118 -0.9330 -0.6556
 1913TIP3   OH227373   2.099   4.681   3.297 -0.1905 -0.3782  0.0817
 1913TIP3    H127374   2.188   4.665   3.267 -0.0455  2.1817 -1.0510
 1913TIP3    H227375   2.045   4.672   3.219 -0.5496  0.7733  0.1811
 1914TIP3   OH227376   3.582   4.866   2.684  0.0950  0.2700  0.4799
 1914TIP3    H127377   3.526   4.935   2.649  0.3678  0.4350  0.3645
 1914TIP3    H227378   3.640   4.911   2.745  2.5417  0.7778 -2.0264
 1915TIP3   OH227379   3.691   0.796   0.974  0.4660 -0.5132 -0.2480
 1915TIP3    H127380   3.734   0.813   1.058  0.4285  0.2019 -0.3672
 1915TIP3    H227381   3.723   0.710   0.948  1.0086 -0.4463  0.1708
 1916TIP3   OH227382   6.059   1.420   1.134  0.1333  0.3644  0.1705
 1916TIP3    H127383   6.154   1.426   1.141  0.1848 -0.8778  0.9667
 1916TIP3    H227384   6.028   1.414   1.224 -0.4044 -2.2789 -0.0821
 1917TIP3   OH227385   0.309   4.193   3.919 -0.1652 -0.5567 -0.2330
 1917TIP3    H127386   0.308   4.107   3.961  0.5442 -0.0844  0.7958
 1917TIP3    H227387   0.316   4.255   3.991 -4.0515  0.6434 -0.6506
 1918TIP3   OH227388   4.778   3.992   2.756  0.8152 -0.0924  0.0110
 1918TIP3    H127389   4.794   3.905   2.719 -1.5383  0.2390 -2.0506
 1918TIP3    H227390   4.703   3.980   2.814  0.6747  0.4903 -0.0451
 1919TIP3   OH227391   0.330   0.606   2.826  0.0805 -0.8651  0.2414
 1919TIP3    H127392   0.297   0.529   2.778  3.2862 -0.7382 -2.6003
 1919TIP3    H227393   0.365   0.570   2.907  0.2777 -2.2702 -0.4237
 1920TIP3   OH227394   3.360   0.161   2.009 -0.3083  0.2253 -0.0750
 1920TIP3    H127395   3.366   0.215   2.087 -0.7485  0.8601 -0.4713
 1920TIP3    H227396   3.291   0.202   1.957  1.5496  1.2245 -1.8985
 1921TIP3   OH227397   0.188   3.743   0.725 -0.0969 -0.4738  0.6497
 1921TIP3    H127398   0.157   3.691   0.799 -0.6033 -0.8911  0.1448
 1921TIP3    H227399   0.192   3.833   0.759  0.5224 -0.7870  1.4418
 1922TIP3   OH227400   5.897   1.645   3.834  0.2265 -0.3432 -0.1451
 1922TIP3    H127401   5.946   1.564   3.845  2.3797  0.7668 -1.0834
 1922TIP3    H227402   5.848   1.633   3.753  1.4649 -0.3077 -0.9274
 1923TIP3   OH227403   2.544   1.339   4.260  0.0928  0.0584  0.0493
 1923TIP3    H127404   2.630   1.381   4.264  0.8710 -1.5109  0.8406
 1923TIP3    H227405   2.535   1.312   4.169 -0.8378  2.6810 -0.6987
 1924TIP3   OH227406   5.210   4.161   0.270  0.2609 -0.1539 -0.0310
 1924TIP3    H127407   5.270   4.142   0.342  1.4303 -1.7433 -1.3671
 1924TIP3    H227408   5.260   4.218   0.211 -0.5785  0.8677  0.2022
 1925TIP3   OH227409   3.543   1.628   0.896 -0.4252 -0.1945 -0.6392
 1925TIP3    H127410   3.538   1.687   0.821 -2.4913  1.6910  0.8812
 1925TIP3    H227411   3.553   1.541   0.857 -2.0456  0.6455 -3.1434
 1926TIP3   OH227412   2.022   2.688   2.733 -0.1557  0.4227  0.3327
 1926TIP3    H127413   1.963   2.632   2.682  0.9113 -1.3612  0.9624
 1926TIP3    H227414   1.965   2.732   2.796 -0.9496 -0.5475  0.3129
 1927TIP3   OH227415   0.052   0.900   8.220 -0.7448 -0.4013 -0.1327
 1927TIP3    H127416   0.122   0.853   8.173 -0.1704 -0.0464  0.3499
 1927TIP3    H227417  -0.029   0.868   8.180 -0.2976 -0.5991 -0.9088
 1928TIP3   OH227418   0.743   5.679   0.117 -0.1388  0.1382 -0.1280
 1928TIP3    H127419   0.738   5.742   0.046 -0.0958 -2.6289 -2.7756
 1928TIP3    H227420   0.833   5.687   0.150  0.9865 -0.7686 -2.7300
 1929TIP3   OH227421   5.446   4.299   1.174 -0.4884 -0.0837 -0.2097
 1929TIP3    H127422   5.457   4.388   1.140 -0.7952 -0.4450 -1.2872
 1929TIP3    H227423   5.442   4.310   1.269  0.1275  0.9836 -0.2945
 1930TIP3   OH227424   4.046   0.804   0.977 -0.2574  0.0462  0.4720
 1930TIP3    H127425   4.046   0.839   0.888 -0.6575  1.6652  1.0733
 1930TIP3    H227426   4.132   0.828   1.012  0.5000 -1.9204  0.0546
 1931TIP3   OH227427   1.649   3.961   3.662  0.1525 -0.1668  0.2803
 1931TIP3    H127428   1.554   3.959   3.661  0.1369  0.1637  0.6241
 1931TIP3    H227429   1.674   3.898   3.730  0.2551 -1.6957 -1.1077
 1932TIP3   OH227430   1.540   6.664   0.330 -0.1932  0.3700  0.3872
 1932TIP3    H127431   1.471   6.705   0.277 -0.1739 -2.4140 -2.0859
 1932TIP3    H227432   1.496   6.591   0.374  0.1578  1.6740  3.1091
 1933TIP3   OH227433   0.593   4.107   7.857  0.0611  0.0969  0.2979
 1933TIP3    H127434   0.621   4.198   7.850  1.1363 -0.1678  0.9310
 1933TIP3    H227435   0.564   4.099   7.948  0.3238 -0.2889  0.3471
 1934TIP3   OH227436   0.780   0.943   2.033 -0.6246 -0.1845 -0.0165
 1934TIP3    H127437   0.763   1.038   2.035 -0.7176 -0.2098  1.4109
 1934TIP3    H227438   0.713   0.908   1.975 -0.9213  0.5594 -0.1345
 1935TIP3   OH227439   6.255   3.051   0.993 -0.1605 -0.6199  0.2609
 1935TIP3    H127440   6.334   3.100   0.969 -0.8502 -1.1020 -3.5659
 1935TIP3    H227441   6.289   2.967   1.026  0.9170 -0.1776  0.3448
 1936TIP3   OH227442   1.801   5.797   1.090  0.1654 -0.3472  0.0952
 1936TIP3    H127443   1.719   5.783   1.138 -0.6937  1.8761 -0.6053
 1936TIP3    H227444   1.868   5.759   1.146 -1.2726 -1.8317  0.9095
 1937TIP3   OH227445   6.033   3.363   3.387  0.2759 -0.8942 -0.7504
 1937TIP3    H127446   5.984   3.413   3.322 -2.0730 -0.7726  0.9824
 1937TIP3    H227447   6.125   3.375   3.362 -0.2413  2.7770 -1.5118
 1938TIP3   OH227448   6.372   4.854   1.282  0.3710  0.4061  0.0920
 1938TIP3    H127449   6.304   4.907   1.322  0.6261  0.5026  0.4056
 1938TIP3    H227450   6.453   4.881   1.326  0.3149 -1.3063  1.3396
 1939TIP3   OH227451   6.136   5.309   3.325  0.2576  0.4354  0.5476
 1939TIP3    H127452   6.120   5.389   3.374  0.7445 -0.2973  1.9676
 1939TIP3    H227453   6.231   5.308   3.311  0.2726  0.0332  0.6596
 1940TIP3   OH227454   4.346   2.227   3.216  0.3745 -0.3881 -1.0734
 1940TIP3    H127455   4.369   2.319   3.226 -0.8579 -0.0378 -1.2855
 1940TIP3    H227456   4.367   2.206   3.125 -0.3954  0.0076 -1.3502
 1941TIP3   OH227457   1.518   3.860   0.209 -0.0078  0.3543  0.4763
 1941TIP3    H127458   1.431   3.855   0.247  0.2146 -0.6743  0.8882
 1941TIP3    H227459   1.577   3.864   0.284  0.3192  0.8239  0.2043
 1942TIP3   OH227460   2.441   5.806   1.120 -0.2417  0.0560 -0.7929
 1942TIP3    H127461   2.516   5.762   1.080  0.2818  0.0028  0.2163
 1942TIP3    H227462   2.478   5.886   1.158 -1.2480  1.6358 -2.9390
 1943TIP3   OH227463   0.058   3.762   0.338 -0.2678  0.2907  0.3044
 1943TIP3    H127464   0.110   3.704   0.394 -2.6571 -0.6338  1.7277
 1943TIP3    H227465   0.098   3.848   0.348  2.1882 -0.7004 -0.3064
 1944TIP3   OH227466   6.016   3.433   0.407  0.4747 -0.1445  0.7750
 1944TIP3    H127467   6.077   3.402   0.340  0.0687  0.0690  0.3008
 1944TIP3    H227468   5.988   3.519   0.376  0.3056 -0.0306  1.2340
 1945TIP3   OH227469   3.711   0.451   0.060 -0.1980  0.0478 -0.1540
 1945TIP3    H127470   3.788   0.496   0.025 -0.4519 -0.1131 -0.9391
 1945TIP3    H227471   3.649   0.449  -0.013 -1.2564  0.8711  0.6953
 1946TIP3   OH227472   6.520   1.966   3.434 -0.5637  0.1816  0.2962
 1946TIP3    H127473   6.428   1.941   3.445 -0.2227 -1.2197  0.0439
 1946TIP3    H227474   6.562   1.938   3.515  0.3309 -2.5611 -1.0159
 1947TIP3   OH227475   2.039   1.247   4.615 -0.1658  0.0280  0.3802
 1947TIP3    H127476   2.110   1.209   4.665 -0.3406  0.8239  1.2666
 1947TIP3    H227477   2.079   1.320   4.567  0.2873 -1.5041 -1.7381
 1948TIP3   OH227478   2.450   0.399   2.316  0.0901 -0.2294 -0.4605
 1948TIP3    H127479   2.515   0.466   2.333 -0.8725  0.5977  0.0738
 1948TIP3    H227480   2.371   0.429   2.362 -0.6792 -1.1840 -1.0985
 1949TIP3   OH227481   2.595   6.671   1.838 -0.2008  0.0870 -0.2041
 1949TIP3    H127482   2.615   6.721   1.918  1.6452 -0.4616 -0.2892
 1949TIP3    H227483   2.638   6.587   1.851 -1.1430 -0.5595 -1.1605
 1950TIP3   OH227484   6.030   2.909   2.208 -0.3906 -0.1696  0.3035
 1950TIP3    H127485   6.015   2.942   2.120  1.6541  0.3663  0.1160
 1950TIP3    H227486   5.977   2.965   2.265  1.6221  2.4003 -0.1816
 1951TIP3   OH227487   5.673   2.547   1.561 -0.1440 -0.0011  0.5125
 1951TIP3    H127488   5.762   2.581   1.568 -0.3781  0.7210  0.1394
 1951TIP3    H227489   5.684   2.456   1.535  0.4736  0.3716 -0.5981
 1952TIP3   OH227490   2.738   4.419   1.225 -0.6130  1.2395  0.3300
 1952TIP3    H127491   2.670   4.483   1.208 -0.4960  1.3227  0.1674
 1952TIP3    H227492   2.726   4.352   1.158 -2.1368 -0.0711  1.8448
 1953TIP3   OH227493   0.203   2.635   2.268  0.1677  0.1745 -0.1087
 1953TIP3    H127494   0.147   2.713   2.267  0.2263  0.2306  0.8428
 1953TIP3    H227495   0.193   2.598   2.180 -2.0079 -0.2785  0.2699
 1954TIP3   OH227496   3.147   0.591   0.152 -0.0602 -0.3002 -0.3124
 1954TIP3    H127497   3.175   0.539   0.077  0.1498 -0.9521  0.2054
 1954TIP3    H227498   3.227   0.631   0.185 -0.3904  1.5133 -1.5255
 1955TIP3   OH227499   3.923   6.416   2.472 -0.0152  0.0945  0.3729
 1955TIP3    H127500   3.977   6.409   2.393  1.0050 -1.8238  1.1701
 1955TIP3    H227501   3.979   6.385   2.543 -1.0724  1.2841  1.8172
 1956TIP3   OH227502   3.476   0.186   0.654  0.1379  0.2312  0.0825
 1956TIP3    H127503   3.533   0.246   0.702  0.4061 -0.8967  1.2188
 1956TIP3    H227504   3.508   0.099   0.677 -1.1111 -0.3902 -0.4511
 1957TIP3   OH227505   3.051   2.760   1.375 -0.2483  0.6671  0.2926
 1957TIP3    H127506   3.065   2.722   1.461 -0.9643 -1.6777 -0.5490
 1957TIP3    H227507   3.120   2.723   1.320 -0.8295  0.7364 -0.5112
 1958TIP3   OH227508   5.373   3.725   3.571 -0.6308 -0.4086  0.3591
 1958TIP3    H127509   5.362   3.669   3.648 -0.9126  0.9602  1.3525
 1958TIP3    H227510   5.468   3.736   3.561 -0.6123 -0.0827  0.8945
 1959TIP3   OH227511   4.973   0.425   0.108  0.3268 -0.5864 -0.6358
 1959TIP3    H127512   4.908   0.422   0.179  0.4029 -0.3241 -0.5524
 1959TIP3    H227513   4.927   0.392   0.031 -0.0884  0.1412 -0.7115
 1960TIP3   OH227514   2.728   4.286   0.487  0.4641  0.3635  0.4312
 1960TIP3    H127515   2.693   4.295   0.399  1.0041  0.8449  0.2569
 1960TIP3    H227516   2.791   4.214   0.481  1.4796  1.2466  0.0909
 1961TIP3   OH227517   0.751   0.574   1.933  0.5252  0.1531 -0.0220
 1961TIP3    H127518   0.731   0.527   2.014  0.9990 -0.6182 -0.3500
 1961TIP3    H227519   0.683   0.546   1.872  1.0991 -0.4910 -0.3668
 1962TIP3   OH227520   5.752   3.710   1.295 -0.1320  0.1785  0.2763
 1962TIP3    H127521   5.818   3.729   1.229  0.5747 -2.0190  0.2717
 1962TIP3    H227522   5.669   3.737   1.254  0.5381  1.0728 -0.5233
 1963TIP3   OH227523   5.751   3.169   1.183 -0.8974  0.4742  1.2946
 1963TIP3    H127524   5.836   3.125   1.189 -1.3008 -0.3002  1.4492
 1963TIP3    H227525   5.773   3.262   1.172 -0.0067  0.1252 -0.2300
 1964TIP3   OH227526   5.829   1.287   0.467 -0.2915 -0.0872 -0.4729
 1964TIP3    H127527   5.915   1.314   0.498  0.5853 -1.3650 -1.6842
 1964TIP3    H227528   5.807   1.350   0.399  0.3645 -0.5870 -1.1652
 1965TIP3   OH227529   1.153   5.368   3.065 -0.4522  0.5770 -0.2813
 1965TIP3    H127530   1.112   5.451   3.088 -0.5253  0.9712 -1.7380
 1965TIP3    H227531   1.224   5.392   3.005 -0.5219 -0.4117 -0.7715
 1966TIP3   OH227532   3.378   0.047   2.342 -0.0593 -0.1922  0.1204
 1966TIP3    H127533   3.394   0.124   2.288  1.0463 -0.1421  0.4863
 1966TIP3    H227534   3.463   0.028   2.382 -0.3972 -1.4056  0.2959
 1967TIP3   OH227535   0.200   4.219   8.325  0.0445 -0.0871  0.4034
 1967TIP3    H127536   0.155   4.143   8.362  0.4441 -0.0475  0.9872
 1967TIP3    H227537   0.199   4.204   8.230  1.0221 -1.3498  0.5555
 1968TIP3   OH227538   5.040   3.039   3.442 -1.0658 -0.5942  0.3978
 1968TIP3    H127539   5.113   3.101   3.446 -0.5469 -1.1305 -0.5051
 1968TIP3    H227540   5.073   2.961   3.486 -1.0908 -0.8379 -0.0128
 1969TIP3   OH227541   3.569   6.337   1.576  0.2755 -0.5984  0.2182
 1969TIP3    H127542   3.640   6.338   1.641 -1.7115  0.4762  2.5272
 1969TIP3    H227543   3.494   6.374   1.622 -1.1091  0.9382 -2.9649
 1970TIP3   OH227544   5.516   1.001   0.894 -0.4779  0.0554  0.1967
 1970TIP3    H127545   5.612   1.001   0.898 -0.5001  0.3652  3.3294
 1970TIP3    H227546   5.494   0.922   0.845  1.3802 -1.3327  1.4751
 1971TIP3   OH227547   1.678   6.674   1.763  0.3787 -0.5316 -0.3004
 1971TIP3    H127548   1.749   6.688   1.826 -0.0494  1.1132 -0.1583
 1971TIP3    H227549   1.638   6.592   1.791  1.3691 -0.7917  0.4267
 1972TIP3   OH227550   6.368   5.165   8.443 -0.7253  0.4391 -0.2047
 1972TIP3    H127551   6.422   5.088   8.457  1.3402  1.9954  0.8624
 1972TIP3    H227552   6.283   5.130   8.417  0.5187 -2.1327 -1.1162
 1973TIP3   OH227553   1.332   6.529   2.399 -0.2011  0.0618 -0.3964
 1973TIP3    H127554   1.272   6.466   2.439 -0.0125  0.3194  0.3051
 1973TIP3    H227555   1.414   6.480   2.387  0.3322  0.4869  1.2725
 1974TIP3   OH227556   3.670   4.374   8.549  0.0816 -0.6444 -0.1802
 1974TIP3    H127557   3.576   4.384   8.566 -0.1246 -0.9294 -1.1000
 1974TIP3    H227558   3.690   4.283   8.574 -0.0197 -0.7759 -0.5814
 1975TIP3   OH227559   1.305   6.016   1.329 -0.0064 -0.1830  0.1805
 1975TIP3    H127560   1.343   6.036   1.244  0.1325 -1.1047  0.0078
 1975TIP3    H227561   1.253   6.093   1.352 -0.2422 -0.0281 -0.8528
 1976TIP3   OH227562   4.282   1.444   0.226 -0.7871 -0.3819  0.1918
 1976TIP3    H127563   4.322   1.407   0.147  1.1721 -2.0735  1.8621
 1976TIP3    H227564   4.225   1.374   0.258 -1.5336  0.2776  0.3359
 1977TIP3   OH227565   6.453   5.353   2.593  0.1202 -0.1572 -0.4457
 1977TIP3    H127566   6.476   5.262   2.575 -1.4102 -0.5915 -0.3094
 1977TIP3    H227567   6.472   5.365   2.686  0.1711 -0.3836 -0.4268
 1978TIP3   OH227568   4.663   1.742   1.371 -0.3425  0.0516  0.1411
 1978TIP3    H127569   4.625   1.775   1.289  1.2066  0.5663 -0.4141
 1978TIP3    H227570   4.601   1.768   1.439  0.0970  2.9301 -0.4301
 1979TIP3   OH227571   4.864   1.524   2.532  0.7700 -0.3245  0.0746
 1979TIP3    H127572   4.789   1.569   2.574  0.1953 -1.7993  0.7027
 1979TIP3    H227573   4.825   1.476   2.459  1.0468 -1.2867  0.5450
 1980TIP3   OH227574   2.780   4.905   0.992 -0.3927  0.1612 -0.1853
 1980TIP3    H127575   2.838   4.880   0.920 -0.4195  0.2644 -0.2416
 1980TIP3    H227576   2.770   4.825   1.044 -1.3425 -0.2474 -0.9600
 1981TIP3   OH227577   1.821   0.346   3.871 -0.3012  0.4126 -0.1758
 1981TIP3    H127578   1.780   0.431   3.887 -0.0673  0.3783  0.6395
 1981TIP3    H227579   1.900   0.347   3.925  0.6912  0.4015 -1.5699
 1982TIP3   OH227580   5.063   5.445   0.962 -0.0999  0.2851  0.2515
 1982TIP3    H127581   5.075   5.350   0.959 -0.5983  0.1950  0.9346
 1982TIP3    H227582   5.088   5.469   1.051  1.1897  0.9724 -0.2694
 1983TIP3   OH227583   5.788   0.824   1.148  0.5488 -0.1205  0.1048
 1983TIP3    H127584   5.757   0.901   1.100 -1.5459 -0.4407  0.8138
 1983TIP3    H227585   5.856   0.858   1.206 -1.6537  1.7180  1.8351
 1984TIP3   OH227586   5.204   6.034   0.897  0.4413 -0.1284  0.1904
 1984TIP3    H127587   5.294   6.065   0.909 -0.1270  2.4575 -1.4122
 1984TIP3    H227588   5.212   5.939   0.892  3.2267  0.0681 -0.7902
 1985TIP3   OH227589   0.151   1.801   1.268  0.2100  0.7032  0.1888
 1985TIP3    H127590   0.236   1.768   1.297  0.8047  1.6188 -0.4435
 1985TIP3    H227591   0.123   1.741   1.199 -1.2015 -1.4789  2.4889
 1986TIP3   OH227592   5.491   4.511   2.700 -0.7765  0.1302 -0.2017
 1986TIP3    H127593   5.501   4.569   2.776 -0.6709  1.0522 -0.9005
 1986TIP3    H227594   5.432   4.442   2.731  0.1892 -0.1668  1.0686
 1987TIP3   OH227595   0.860   4.307   3.954  0.3254 -0.5239  0.1974
 1987TIP3    H127596   0.804   4.352   4.017  1.2425  2.0180 -0.7010
 1987TIP3    H227597   0.891   4.229   4.001 -1.3408 -0.2704  1.8186
 1988TIP3   OH227598   4.071   3.220   1.949 -1.0425 -0.5467 -0.1388
 1988TIP3    H127599   4.084   3.314   1.958  0.7358 -0.6534 -1.1729
 1988TIP3    H227600   4.068   3.205   1.855  1.6983 -1.8179 -0.1282
 1989TIP3   OH227601   0.840   5.825   1.875  0.1499  0.4036 -0.5555
 1989TIP3    H127602   0.923   5.807   1.919  0.2111  0.1873 -0.7586
 1989TIP3    H227603   0.793   5.742   1.878 -0.1262  0.5671 -0.3014
 1990TIP3   OH227604   6.486   3.492   3.062 -0.0772 -0.0553 -0.2574
 1990TIP3    H127605   6.392   3.500   3.047  0.1812 -0.5470 -2.5112
 1990TIP3    H227606   6.516   3.582   3.071 -0.9264  0.0705  2.1641
 1991TIP3   OH227607   1.279   4.633   1.397  0.3077  0.5868 -0.4891
 1991TIP3    H127608   1.286   4.641   1.302 -1.3166  1.2236 -0.5996
 1991TIP3    H227609   1.218   4.703   1.422 -0.0946 -0.2188  0.8876
 1992TIP3   OH227610   2.663   3.961   0.922  0.0259 -0.2223  0.3146
 1992TIP3    H127611   2.652   3.947   1.016 -0.8803  3.7297  0.9393
 1992TIP3    H227612   2.577   3.938   0.884 -0.7918  1.5611  1.0020
 1993TIP3   OH227613   0.057   2.804   0.007  0.5757  0.6653  0.5658
 1993TIP3    H127614   0.126   2.745  -0.020 -0.8953 -0.3626 -1.2032
 1993TIP3    H227615   0.036   2.855  -0.072  0.0484  1.7321  1.3581
 1994TIP3   OH227616   1.551   4.815   1.202 -0.3330  1.1291 -0.3595
 1994TIP3    H127617   1.471   4.765   1.190 -0.3806  1.1886 -0.2941
 1994TIP3    H227618   1.594   4.814   1.117 -1.1159  2.3238 -0.7900
 1995TIP3   OH227619   6.545   4.700   1.602  0.6921 -0.4116  0.0378
 1995TIP3    H127620   6.541   4.631   1.535 -0.6684  1.1142 -1.5557
 1995TIP3    H227621   6.618   4.755   1.575 -1.3393  1.5926 -1.7364
 1996TIP3   OH227622   5.128   0.451   8.097  0.4615  0.2670  0.1727
 1996TIP3    H127623   5.102   0.371   8.051  0.8168 -0.1029  0.6007
 1996TIP3    H227624   5.209   0.478   8.054 -0.1985  0.9877 -0.6542
 1997TIP3   OH227625   6.812   5.372   7.968  0.2226  0.1873 -0.6005
 1997TIP3    H127626   6.893   5.340   8.009 -0.2008 -0.9384 -0.5924
 1997TIP3    H227627   6.823   5.352   7.875  0.1123  0.3738 -0.6535
 1998TIP3   OH227628   0.713   0.411   1.275 -0.4611  0.2313  0.4554
 1998TIP3    H127629   0.743   0.348   1.340 -0.9538  0.6126  1.0662
 1998TIP3    H227630   0.655   0.361   1.218 -0.9819  0.1523  1.0358
 1999TIP3   OH227631   1.828   1.165   1.672 -0.1639 -0.0834  0.1765
 1999TIP3    H127632   1.801   1.178   1.581 -0.0140  1.2474  0.3075
 1999TIP3    H227633   1.749   1.186   1.723  0.4774  1.8097  0.4610
 2000TIP3   OH227634   3.697   4.421   0.272  0.0096  0.2612 -0.8788
 2000TIP3    H127635   3.683   4.516   0.277  0.4119  0.2687  1.2998
 2000TIP3    H227636   3.662   4.396   0.187 -1.3989  2.1505 -0.9270
 2001TIP3   OH227637   2.487   5.486   1.221 -0.3374  0.3786  0.2144
 2001TIP3    H127638   2.501   5.559   1.161 -1.6600  0.0380 -0.5494
 2001TIP3    H227639   2.401   5.504   1.261  0.6459  0.7798  2.2975
 2002TIP3   OH227640   1.966   3.438   0.598  0.1276  0.3149  0.9163
 2002TIP3    H127641   1.982   3.496   0.672 -0.7131  0.0497  1.3226
 2002TIP3    H227642   1.983   3.350   0.632 -1.9383  0.0308  1.3388
 2003TIP3   OH227643   2.328   6.379   2.077 -0.1467 -0.9263 -0.0088
 2003TIP3    H127644   2.357   6.459   2.034  1.8654 -1.4259  0.2696
 2003TIP3    H227645   2.348   6.309   2.014  0.0058 -1.3811  0.5293
 2004TIP3   OH227646   5.828   4.086   8.669 -0.0670  0.2860 -0.0139
 2004TIP3    H127647   5.759   4.051   8.613 -0.5060  1.0866  0.0075
 2004TIP3    H227648   5.792   4.080   8.757 -0.8570  2.3053 -0.1498
 2005TIP3   OH227649   0.843   1.892   0.768 -0.0374  0.7067  0.2481
 2005TIP3    H127650   0.870   1.833   0.838  0.2547  1.6796  0.9640
 2005TIP3    H227651   0.840   1.836   0.690  2.9635  0.2856  0.3189
 2006TIP3   OH227652   5.876   0.150   1.513 -0.5964 -0.8436 -0.6892
 2006TIP3    H127653   5.964   0.145   1.550 -1.8521  1.3123  3.1769
 2006TIP3    H227654   5.827   0.081   1.558 -1.6012  0.0829 -0.3237
 2007TIP3   OH227655   4.041   4.128   0.868 -0.2694 -0.3807 -0.1545
 2007TIP3    H127656   3.971   4.065   0.887 -0.6083 -0.0928 -0.4456
 2007TIP3    H227657   4.098   4.124   0.945  0.6568 -2.2825 -0.8625
 2008TIP3   OH227658   2.819   0.899   8.485  0.8212 -0.1059  0.1885
 2008TIP3    H127659   2.831   0.948   8.404 -0.2974 -0.7106 -0.3723
 2008TIP3    H227660   2.848   0.959   8.554 -3.5913  2.8575 -0.1027
 2009TIP3   OH227661   2.795   2.325   0.704 -0.2130  0.1230 -0.1559
 2009TIP3    H127662   2.762   2.414   0.689 -0.5994  0.1152  0.5911
 2009TIP3    H227663   2.884   2.326   0.668 -1.1288  0.0152 -2.6736
 2010TIP3   OH227664   0.667   6.538   8.416  0.4632  0.5082  0.6002
 2010TIP3    H127665   0.663   6.616   8.361 -0.8657 -0.1356 -0.2673
 2010TIP3    H227666   0.761   6.517   8.422  0.7297  1.4292 -0.1940
 2011TIP3   OH227667   2.487   6.170   2.630 -0.0815  0.5755 -0.1643
 2011TIP3    H127668   2.434   6.201   2.704  0.3393 -1.2859  0.9895
 2011TIP3    H227669   2.440   6.093   2.598  0.7559  0.2261 -0.5750
 2012TIP3   OH227670   1.621   4.419   1.558  0.3326  0.3095 -0.2177
 2012TIP3    H127671   1.679   4.494   1.549 -0.4557  1.1628  1.3495
 2012TIP3    H227672   1.534   4.457   1.568 -0.3894 -0.9098 -1.4907
 2013TIP3   OH227673   5.186   0.414   0.297 -0.2199 -0.1657 -0.2466
 2013TIP3    H127674   5.196   0.504   0.329  0.9225  0.2715 -1.7479
 2013TIP3    H227675   5.109   0.417   0.241 -1.9882 -0.8481  1.9714
 2014TIP3   OH227676   1.588   5.529   1.670  0.2197  0.3335 -0.4445
 2014TIP3    H127677   1.596   5.470   1.745 -1.8061  1.0326  0.4114
 2014TIP3    H227678   1.545   5.476   1.603  2.0958 -0.3129 -1.2000
 2015TIP3   OH227679   0.674   1.078   0.097 -0.3259  0.5198  0.0999
 2015TIP3    H127680   0.684   0.983   0.090 -0.0120  0.6677 -2.2455
 2015TIP3    H227681   0.618   1.091   0.173 -1.2071 -1.6036 -0.1292
 2016TIP3   OH227682   0.314   5.104   1.688 -0.2964  0.1145  0.8312
 2016TIP3    H127683   0.246   5.041   1.664  0.6955 -0.1064 -1.6506
 2016TIP3    H227684   0.387   5.050   1.720  0.1795  0.0244 -0.3507
 2017TIP3   OH227685   2.966   2.548   8.351  0.3142 -0.0830 -0.2536
 2017TIP3    H127686   2.997   2.627   8.306 -0.1418  0.4409  0.3144
 2017TIP3    H227687   3.041   2.519   8.403 -0.1785  1.4048  1.4197
 2018TIP3   OH227688   0.817   4.121   2.031 -0.2391  0.4131  0.2565
 2018TIP3    H127689   0.823   4.104   1.937 -0.8631  2.3838 -0.1798
 2018TIP3    H227690   0.728   4.095   2.055 -0.3265  0.6082  0.1432
 2019TIP3   OH227691   0.994   5.408   8.548  0.0236 -0.5952 -0.5405
 2019TIP3    H127692   0.928   5.389   8.615  0.2263  1.2502  0.2383
 2019TIP3    H227693   1.067   5.350   8.571 -1.0172 -2.1683 -1.0146
 2020TIP3   OH227694   5.101   3.780   0.224  0.1366  0.6832 -0.1762
 2020TIP3    H127695   5.080   3.860   0.175  0.9029  1.0752  0.1127
 2020TIP3    H227696   5.093   3.806   0.316  0.3734  0.4234 -0.0815
 2021TIP3   OH227697   4.510   2.032   1.658  0.1800  0.3605  0.1482
 2021TIP3    H127698   4.537   1.941   1.662  2.0618  0.8783  0.2446
 2021TIP3    H227699   4.416   2.030   1.674  0.0068 -1.6289 -0.8184
 2022TIP3   OH227700   3.833   3.966   0.588  0.0592 -0.1450  0.3163
 2022TIP3    H127701   3.927   3.960   0.573  0.4433  0.6213  2.1236
 2022TIP3    H227702   3.800   3.877   0.575  0.8471 -0.2387 -1.2642
 2023TIP3   OH227703   2.751   6.432   2.177  0.2415 -0.6634  0.0949
 2023TIP3    H127704   2.701   6.500   2.223 -0.6551 -1.2510  0.0125
 2023TIP3    H227705   2.714   6.350   2.209  1.8106 -1.1547  0.7569
 2024TIP3   OH227706   2.035   6.408   1.137 -0.0657 -0.1640  0.1718
 2024TIP3    H127707   1.943   6.429   1.149  0.0608  0.1100  0.6936
 2024TIP3    H227708   2.076   6.491   1.113 -0.1712 -0.5371 -1.3992
 2025TIP3   OH227709   3.515   0.522   0.508 -0.6078  0.4114  0.0866
 2025TIP3    H127710   3.528   0.519   0.602 -0.0116  0.7415  0.0211
 2025TIP3    H227711   3.460   0.599   0.494  0.1112  0.9297  0.0842
 2026TIP3   OH227712   0.598   5.245   1.626  0.6296 -0.2841 -0.5683
 2026TIP3    H127713   0.536   5.319   1.624  0.8487 -0.0730  0.1585
 2026TIP3    H227714   0.639   5.246   1.540  1.1715  0.9150 -0.3143
 2027TIP3   OH227715   0.195   0.959   3.656 -0.2421  0.6142  0.1289
 2027TIP3    H127716   0.129   1.012   3.701 -0.3977  1.0334 -0.5614
 2027TIP3    H227717   0.226   0.897   3.721 -0.1074  1.5160  0.9499
 2028TIP3   OH227718   1.966   3.466   1.070 -0.3707  0.5759 -0.0654
 2028TIP3    H127719   1.978   3.560   1.085 -0.6898  0.3820  1.6260
 2028TIP3    H227720   1.872   3.453   1.079 -0.4577  0.2431 -1.3543
 2029TIP3   OH227721   6.392   1.701   3.116 -0.4111 -0.0885  0.3952
 2029TIP3    H127722   6.419   1.628   3.059  1.4113  0.6327  0.2459
 2029TIP3    H227723   6.441   1.686   3.197 -1.6814 -0.1785  1.1627
 2030TIP3   OH227724   0.765   4.416   1.859 -0.5106  0.2536  0.0458
 2030TIP3    H127725   0.847   4.456   1.888 -0.3273 -0.9020  1.2027
 2030TIP3    H227726   0.728   4.480   1.797  1.8813  0.2466 -1.5426
 2031TIP3   OH227727   3.811   5.208   3.118 -0.2699 -0.2331 -0.0791
 2031TIP3    H127728   3.835   5.273   3.184  1.5657  0.9991 -1.8132
 2031TIP3    H227729   3.856   5.128   3.146  0.5755  0.2977  0.1188
 2032TIP3   OH227730   1.222   0.827   0.774 -0.3655 -0.4162  0.2193
 2032TIP3    H127731   1.236   0.876   0.854 -0.0804  0.0117 -0.0874
 2032TIP3    H227732   1.283   0.753   0.780 -0.8636 -0.7914  0.7244
 2033TIP3   OH227733   4.156   0.153   8.285 -0.1631 -0.3371  0.8445
 2033TIP3    H127734   4.179   0.186   8.198  1.7156 -1.0365  1.0186
 2033TIP3    H227735   4.214   0.201   8.345  1.4373 -2.6642  1.2677
 2034TIP3   OH227736   4.914   2.848   3.284 -0.2928 -0.1115  0.3415
 2034TIP3    H127737   4.958   2.916   3.336  1.0768 -1.4311  0.9889
 2034TIP3    H227738   4.865   2.797   3.349  0.9937 -1.4373  0.3460
 2035TIP3   OH227739   4.895   0.172   1.739  0.1205  0.2391 -0.3681
 2035TIP3    H127740   4.968   0.204   1.792 -0.0304  0.7635 -0.4724
 2035TIP3    H227741   4.850   0.109   1.795  0.1948  0.4949 -0.0224
 2036TIP3   OH227742   1.654   3.546   1.422  0.0471 -0.2977  0.1030
 2036TIP3    H127743   1.703   3.487   1.479 -0.7957 -0.5225  0.6129
 2036TIP3    H227744   1.634   3.622   1.477 -1.1537 -0.7089  0.2697
 2037TIP3   OH227745   2.311   0.435   0.654 -0.3092  0.3413  0.4941
 2037TIP3    H127746   2.398   0.470   0.632 -0.1153 -0.8040 -0.6483
 2037TIP3    H227747   2.257   0.513   0.667 -0.1144  1.1914 -2.8735
 2038TIP3   OH227748   5.055   0.104   2.677  1.1484  0.0574  0.1992
 2038TIP3    H127749   5.147   0.085   2.659  0.9147  0.5264 -1.6667
 2038TIP3    H227750   5.025   0.031   2.730  2.2781 -0.7285 -0.2170
 2039TIP3   OH227751   4.633   0.145   0.130 -0.3884  0.2762 -0.3564
 2039TIP3    H127752   4.638   0.072   0.192 -2.7095 -1.8317 -2.4267
 2039TIP3    H227753   4.571   0.206   0.171  0.6180  0.5204  0.8403
 2040TIP3   OH227754   0.937   3.742   8.820 -0.2227  0.0266 -0.1183
 2040TIP3    H127755   0.931   3.772   8.911  1.7641  0.6276 -0.1301
 2040TIP3    H227756   0.917   3.649   8.825  0.8172 -0.1637  1.1180
 2041TIP3   OH227757   3.422   3.147   2.577  0.1350  0.2870  0.2373
 2041TIP3    H127758   3.462   3.232   2.557 -0.7578  0.1023 -2.8127
 2041TIP3    H227759   3.330   3.167   2.593  0.4769  0.1790  2.7780
 2042TIP3   OH227760   0.333   5.158   0.673  0.0027  0.3932  0.5796
 2042TIP3    H127761   0.338   5.230   0.736 -0.7853 -0.3869  1.5657
 2042TIP3    H227762   0.266   5.186   0.610 -1.5321 -0.1631  1.9103
 2043TIP3   OH227763   0.952   0.386   2.857 -0.0290 -0.2534 -0.4112
 2043TIP3    H127764   0.873   0.440   2.861 -1.0098 -1.6850  0.1178
 2043TIP3    H227765   1.017   0.435   2.908 -1.2724 -0.1802  1.1709
 2044TIP3   OH227766   3.408   3.429   0.266 -0.0128  0.2550 -0.2227
 2044TIP3    H127767   3.423   3.514   0.308  0.1441 -0.3739  1.0076
 2044TIP3    H227768   3.358   3.451   0.187 -0.0054  1.4900  0.0954
 2045TIP3   OH227769   4.234   2.027   1.832  0.1089 -0.0649  0.5959
 2045TIP3    H127770   4.212   2.080   1.756 -0.9007 -1.8009 -0.3855
 2045TIP3    H227771   4.150   1.990   1.860  0.4419  0.6189  2.6477
 2046TIP3   OH227772   3.901   2.800   1.437  0.3359  0.1552  0.3845
 2046TIP3    H127773   3.863   2.885   1.413 -0.4640 -0.6705 -1.4152
 2046TIP3    H227774   3.873   2.786   1.528  0.7771  1.9453  0.8361
 2047TIP3   OH227775   3.494   0.481   1.094 -0.1513 -0.1414 -0.2121
 2047TIP3    H127776   3.469   0.456   1.183  0.8729 -0.0895  0.1074
 2047TIP3    H227777   3.572   0.428   1.076 -1.0500 -1.0751 -1.5594
 2048TIP3   OH227778   6.654   5.748   0.249  0.1016  0.2029  0.0190
 2048TIP3    H127779   6.629   5.793   0.168  0.6481 -0.0001 -0.2618
 2048TIP3    H227780   6.665   5.819   0.312  0.1522  0.4010 -0.2102
 2049TIP3   OH227781   0.685   0.026   1.505 -0.7111 -0.4462 -0.2638
 2049TIP3    H127782   0.671  -0.022   1.424 -0.9567 -0.7311 -0.0592
 2049TIP3    H227783   0.779   0.020   1.521 -0.8744 -1.8872  0.3647
 2050TIP3   OH227784   4.235   2.814   1.835  0.0917 -0.0085 -0.2932
 2050TIP3    H127785   4.322   2.777   1.821 -0.1648 -0.4059 -0.8331
 2050TIP3    H227786   4.202   2.770   1.913  0.7190  0.7774  0.4405
 2051TIP3   OH227787   6.224   4.209   0.026 -0.2625  0.3131  0.4922
 2051TIP3    H127788   6.236   4.129  -0.025  0.0100 -0.7389  2.1322
 2051TIP3    H227789   6.138   4.241  -0.000 -0.6946 -0.9299  0.3240
 2052TIP3   OH227790   6.172   5.314   2.203 -0.5018 -0.0997 -0.1854
 2052TIP3    H127791   6.107   5.316   2.274  0.6040 -0.7843  0.8842
 2052TIP3    H227792   6.253   5.342   2.244  0.8094 -3.1223 -0.4363
 2053TIP3   OH227793   6.301   4.236   0.302  0.0410 -0.4585  0.2199
 2053TIP3    H127794   6.390   4.271   0.299  0.3298 -0.7781  2.6635
 2053TIP3    H227795   6.281   4.213   0.212  2.5231 -0.5764 -0.3692
 2054TIP3   OH227796   1.679   1.604   0.430 -0.0804 -0.7428  0.7025
 2054TIP3    H127797   1.750   1.654   0.390 -0.8688  3.4521  3.8021
 2054TIP3    H227798   1.605   1.617   0.371  0.6525 -1.6138 -0.4471
 2055TIP3   OH227799   3.815   4.426   8.335  0.5439  0.2915 -0.6996
 2055TIP3    H127800   3.781   4.422   8.424 -0.9738 -1.0846 -1.2896
 2055TIP3    H227801   3.789   4.512   8.303 -1.2371 -0.1822 -0.6465
 2056TIP3   OH227802   2.065   3.520   1.385 -0.1204  0.0629  0.2204
 2056TIP3    H127803   2.016   3.550   1.462  1.6152 -0.2157  1.4833
 2056TIP3    H227804   2.043   3.427   1.377 -0.5555  0.1687  0.1908
 2057TIP3   OH227805   0.931   0.672   2.122  0.0579 -0.2729  0.4397
 2057TIP3    H127806   0.998   0.738   2.140  1.6568 -1.1900 -1.6696
 2057TIP3    H227807   0.875   0.713   2.055  1.3680 -1.1506 -1.2678
 2058TIP3   OH227808   3.298   0.130   1.363 -0.3195  0.1828 -0.6314
 2058TIP3    H127809   3.300   0.132   1.267 -2.8412 -1.8678 -0.8209
 2058TIP3    H227810   3.208   0.151   1.387  0.2047  0.4632  1.3110
 2059TIP3   OH227811   1.538   5.755   4.099 -0.0149  0.4822 -0.1702
 2059TIP3    H127812   1.459   5.807   4.117  0.1030  0.1667  1.3364
 2059TIP3    H227813   1.512   5.697   4.027 -1.5829 -0.5212  1.1409
 2060TIP3   OH227814   0.239   1.041   2.571  0.3737  0.1262  0.0371
 2060TIP3    H127815   0.324   1.077   2.598  1.3116 -0.7798 -1.5852
 2060TIP3    H227816   0.226   0.965   2.628  0.0653  0.9459  1.0848
 2061TIP3   OH227817   0.609   0.536   0.105 -0.0592 -0.1792 -0.2459
 2061TIP3    H127818   0.546   0.465   0.121  0.1633 -0.6012 -1.1444
 2061TIP3    H227819   0.622   0.535   0.010  0.0651  0.9793 -0.2593
 2062TIP3   OH227820   4.923   3.961   3.011  0.0541  0.3808 -0.5391
 2062TIP3    H127821   4.907   3.978   2.918  1.1751  2.0408 -0.4661
 2062TIP3    H227822   4.864   4.021   3.057 -0.9206 -0.8359 -0.1200
 2063TIP3   OH227823   1.241   2.253   0.002 -0.2047 -0.3847  0.3168
 2063TIP3    H127824   1.148   2.269  -0.011 -0.4022 -1.4623  0.3374
 2063TIP3    H227825   1.284   2.300  -0.070 -0.8282 -0.7030 -0.2675
 2064TIP3   OH227826   0.799   5.738   1.144 -0.1222 -0.2242  0.4101
 2064TIP3    H127827   0.805   5.677   1.070 -1.8620  0.1816 -0.1101
 2064TIP3    H227828   0.851   5.696   1.213  0.5333 -1.2082 -0.6409
 2065TIP3   OH227829   6.801   0.461   3.507 -0.5248 -0.0987 -0.2397
 2065TIP3    H127830   6.734   0.434   3.569 -0.4620 -0.5006 -0.3412
 2065TIP3    H227831   6.819   0.552   3.529  0.2918 -0.5393  1.0696
 2066TIP3   OH227832   5.560   3.253   3.619 -0.2448 -0.2830 -0.0247
 2066TIP3    H127833   5.548   3.196   3.543 -0.3349 -0.0756 -0.1686
 2066TIP3    H227834   5.474   3.257   3.660  0.1025 -1.4617  0.8580
 2067TIP3   OH227835   4.595   3.170   2.078  0.3441  0.2167  0.2257
 2067TIP3    H127836   4.519   3.214   2.116  0.2457  0.4935 -0.2857
 2067TIP3    H227837   4.666   3.234   2.086  1.3121 -1.0362  3.3469
 2068TIP3   OH227838   0.392   5.683   3.637  0.2342  0.1589  0.4878
 2068TIP3    H127839   0.436   5.765   3.657  0.2556  0.2309  0.1614
 2068TIP3    H227840   0.449   5.616   3.675  1.2757  0.1752 -0.9180
 2069TIP3   OH227841   4.014   1.742   2.788  0.4810 -0.4124 -0.2962
 2069TIP3    H127842   4.083   1.727   2.853 -0.6506 -0.1060  1.0123
 2069TIP3    H227843   3.966   1.659   2.783 -1.4760  0.4901  1.7882
 2070TIP3   OH227844   2.629   2.832   3.155  0.1476 -0.1435 -0.2324
 2070TIP3    H127845   2.675   2.749   3.166 -0.1406 -0.6906 -2.5158
 2070TIP3    H227846   2.610   2.836   3.061 -3.6275  0.4638  0.3762
 2071TIP3   OH227847   5.204   3.802   1.774 -0.8223  0.6489 -0.7312
 2071TIP3    H127848   5.253   3.836   1.699  0.9683 -0.5526 -0.1551
 2071TIP3    H227849   5.239   3.715   1.788 -3.0551 -0.2238 -0.1675
 2072TIP3   OH227850   5.321   5.609   1.623 -0.3354  1.1405  0.1526
 2072TIP3    H127851   5.403   5.559   1.622 -0.6563  0.6149 -1.1687
 2072TIP3    H227852   5.335   5.675   1.691 -0.0526 -0.9698  2.2740
 2073TIP3   OH227853   2.593   3.470   1.385  0.3988 -0.3897  0.5431
 2073TIP3    H127854   2.527   3.436   1.445  0.3750 -0.8730  0.2485
 2073TIP3    H227855   2.635   3.392   1.349 -0.4715 -0.1411 -1.0726
 2074TIP3   OH227856   4.690   0.743   3.096 -0.0941  0.0684 -0.1140
 2074TIP3    H127857   4.645   0.818   3.134  0.2685 -0.0934  0.6448
 2074TIP3    H227858   4.783   0.761   3.110  0.0780  0.2470 -1.3878
 2075TIP3   OH227859   5.076   3.273   8.175  0.2612 -0.6346 -0.1024
 2075TIP3    H127860   4.993   3.265   8.221  1.0089  0.2105  1.4544
 2075TIP3    H227861   5.081   3.365   8.150  1.9299  0.0212  2.3006
 2076TIP3   OH227862   5.811   0.164   0.118  0.5161 -0.0877  0.0139
 2076TIP3    H127863   5.787   0.102   0.049 -0.4546  0.0187  0.2512
 2076TIP3    H227864   5.831   0.245   0.071  0.3448 -0.1570 -0.1822
 2077TIP3   OH227865   5.235   0.416   1.731 -0.0152  0.9781 -0.1961
 2077TIP3    H127866   5.226   0.408   1.636 -0.7420 -0.6000 -0.0169
 2077TIP3    H227867   5.328   0.437   1.745  0.4159 -0.1998 -1.1884
 2078TIP3   OH227868   1.777   2.249   3.547 -0.3400 -0.0888 -0.3705
 2078TIP3    H127869   1.754   2.265   3.455 -3.0668 -2.0234 -0.1516
 2078TIP3    H227870   1.694   2.261   3.594  0.4729 -1.4101  1.5009
 2079TIP3   OH227871   0.710   2.884   3.611  0.3408  0.2733  0.5383
 2079TIP3    H127872   0.731   2.907   3.520 -0.7277  1.0044  0.4649
 2079TIP3    H227873   0.779   2.926   3.662  0.7597  0.1373  0.1017
 2080TIP3   OH227874   4.206   2.437   3.686 -0.3181  0.4007 -0.0738
 2080TIP3    H127875   4.156   2.357   3.701  0.1056  0.0853 -0.3174
 2080TIP3    H227876   4.167   2.501   3.746  0.4242 -0.4366  1.3594
 2081TIP3   OH227877   2.646   6.152   2.125 -0.1833 -0.4286 -0.4596
 2081TIP3    H127878   2.637   6.094   2.201  1.9572 -2.2056 -1.4500
 2081TIP3    H227879   2.559   6.154   2.086 -0.8738 -0.9920  0.9848
 2082TIP3   OH227880   2.405   2.920   0.832  0.3094  0.5345 -0.6646
 2082TIP3    H127881   2.434   2.860   0.900 -0.3398  1.0099  0.0497
 2082TIP3    H227882   2.434   2.880   0.750  1.8869  0.4021 -0.0697
 2083TIP3   OH227883   6.226   5.883   0.133 -0.0373  0.3098  0.0917
 2083TIP3    H127884   6.287   5.912   0.066 -0.0292  1.2062  0.4790
 2083TIP3    H227885   6.168   5.958   0.147 -1.7665 -0.7646 -0.8495
 2084TIP3   OH227886   4.451   0.808   3.366 -0.2302 -0.4519  0.3523
 2084TIP3    H127887   4.402   0.761   3.432 -0.3605 -1.3105 -0.3320
 2084TIP3    H227888   4.395   0.805   3.288 -0.8771  2.0796  0.6544
 2085TIP3   OH227889   1.876   3.821   1.615  0.1831 -0.3657  0.1559
 2085TIP3    H127890   1.918   3.736   1.604  3.3965  1.2125 -1.2183
 2085TIP3    H227891   1.940   3.874   1.661 -2.4740  0.9022  2.6988
 2086TIP3   OH227892   2.370   4.631   0.147  0.4248  0.0014  0.2643
 2086TIP3    H127893   2.457   4.629   0.107 -0.3956 -1.2800 -1.5509
 2086TIP3    H227894   2.311   4.661   0.078 -0.9621 -1.7328  0.6298
 2087TIP3   OH227895   3.526   1.756   0.668  0.3344 -0.2504  0.2849
 2087TIP3    H127896   3.613   1.773   0.632  0.4944  0.1713  0.8552
 2087TIP3    H227897   3.473   1.829   0.635  0.0333 -0.8405 -0.5777
 2088TIP3   OH227898   2.708   3.813   1.664 -0.0794  0.5346 -1.1815
 2088TIP3    H127899   2.733   3.806   1.572 -0.0655 -1.6174 -1.0507
 2088TIP3    H227900   2.759   3.745   1.708  1.3506  2.6733  0.7802
 2089TIP3   OH227901   0.503   2.313   2.680 -0.0718 -0.4215  0.2333
 2089TIP3    H127902   0.427   2.263   2.711 -0.3081 -0.5799 -0.5723
 2089TIP3    H227903   0.478   2.405   2.694 -0.1167 -0.4912  0.6323
 2090TIP3   OH227904   4.466   1.283   2.519 -0.5082 -0.4154 -0.1412
 2090TIP3    H127905   4.421   1.366   2.506 -0.3186 -0.4301 -0.9455
 2090TIP3    H227906   4.490   1.254   2.431 -1.2539 -1.7031  0.0532
 2091TIP3   OH227907   3.343   5.641   2.940  0.3353  0.9456  0.1801
 2091TIP3    H127908   3.347   5.708   2.872  3.2373 -0.1635 -0.8875
 2091TIP3    H227909   3.419   5.659   2.996  0.4116 -0.6458  0.6371
 2092TIP3   OH227910   0.425   0.281   3.052  0.2343 -0.0291  0.9681
 2092TIP3    H127911   0.514   0.261   3.023 -0.1988  0.1375 -0.5305
 2092TIP3    H227912   0.369   0.232   2.992 -0.6918 -0.1761  1.9366
 2093TIP3   OH227913   6.553   6.104   1.304 -0.0462  0.1338 -0.0087
 2093TIP3    H127914   6.475   6.150   1.334 -1.6927 -1.2376 -1.8943
 2093TIP3    H227915   6.589   6.160   1.235  0.7483  0.8279  0.9489
 2094TIP3   OH227916   5.554   6.028   2.692 -0.0435 -0.3822 -0.1648
 2094TIP3    H127917   5.561   6.017   2.597  1.8774 -1.9716  0.0915
 2094TIP3    H227918   5.543   5.939   2.725  1.0667 -0.0484  1.1899
 2095TIP3   OH227919   0.602   5.811   1.289  0.5246 -0.0248  0.0654
 2095TIP3    H127920   0.592   5.906   1.280 -0.9105 -0.3521 -2.9093
 2095TIP3    H227921   0.665   5.787   1.221  0.5718 -1.2420  0.5228
 2096TIP3   OH227922   1.806   0.603   3.648 -0.6581  0.6137 -0.5637
 2096TIP3    H127923   1.798   0.516   3.609  2.1586  0.8134 -1.8201
 2096TIP3    H227924   1.768   0.594   3.735 -1.4448 -1.5456 -1.0678
 2097TIP3   OH227925   6.011   0.445   0.306  0.7336 -0.2742  0.3655
 2097TIP3    H127926   6.028   0.495   0.226 -0.3879  0.5314  0.6053
 2097TIP3    H227927   6.056   0.362   0.292  2.0046  0.5002 -0.3640
 2098TIP3   OH227928   0.820   5.687   4.291 -0.0590 -0.6010 -0.0629
 2098TIP3    H127929   0.905   5.721   4.261  0.9108 -1.9386  1.0351
 2098TIP3    H227930   0.828   5.592   4.279 -1.0684 -0.8166  0.8772
 2099TIP3   OH227931   0.287   3.633   2.051 -0.4935 -0.3349  0.2620
 2099TIP3    H127932   0.279   3.602   2.142 -2.6224 -0.9031 -0.0684
 2099TIP3    H227933   0.286   3.552   1.999  0.7115 -0.0094 -0.2882
 2100TIP3   OH227934   5.052   4.683   1.764 -0.2920 -0.6144 -0.0493
 2100TIP3    H127935   5.075   4.689   1.856 -1.2247  0.5921  0.1321
 2100TIP3    H227936   4.957   4.687   1.762 -0.2558  0.6842 -1.1194
 2101TIP3   OH227937   2.235   5.627   0.259 -0.1942  1.1548 -0.3382
 2101TIP3    H127938   2.261   5.540   0.290 -1.7464  0.8669  0.2275
 2101TIP3    H227939   2.250   5.685   0.333  0.5433  1.3290 -0.6139
 2102TIP3   OH227940   1.830   4.778   2.332  0.1183  0.2600  0.4907
 2102TIP3    H127941   1.747   4.742   2.298  0.7937 -0.0871 -0.8548
 2102TIP3    H227942   1.824   4.872   2.315 -1.0884  0.6852  2.8169
 2103TIP3   OH227943   4.233   4.096   1.175 -0.2601  0.4416  0.6574
 2103TIP3    H127944   4.232   4.002   1.158 -0.8661  0.7737 -1.5580
 2103TIP3    H227945   4.326   4.119   1.174 -0.1700  0.1863 -1.2792
 2104TIP3   OH227946   4.462   6.460   0.702  0.2882 -0.0297 -0.1272
 2104TIP3    H127947   4.439   6.367   0.705  0.1475  0.0222  0.5673
 2104TIP3    H227948   4.399   6.498   0.640 -0.7361 -0.1127  0.8242
 2105TIP3   OH227949   5.490   3.638   3.253  0.1228 -0.5991 -0.0041
 2105TIP3    H127950   5.511   3.569   3.191 -3.2273 -3.8227  2.0269
 2105TIP3    H227951   5.567   3.645   3.309  1.6018 -0.5221 -1.9507
 2106TIP3   OH227952   1.711   5.864   8.842 -0.3734 -0.0452 -0.4575
 2106TIP3    H127953   1.774   5.796   8.817  1.2147  1.1834  0.0555
 2106TIP3    H227954   1.651   5.870   8.767  0.3668 -0.9492 -1.1418
 2107TIP3   OH227955   5.438   0.269   3.952  0.8113  0.0843 -0.0490
 2107TIP3    H127956   5.496   0.309   4.017  0.7827 -1.8076  1.2439
 2107TIP3    H227957   5.443   0.175   3.970 -2.0171 -0.2341 -0.4056
 2108TIP3   OH227958   3.434   1.015   8.417  0.3152 -0.1040  0.7858
 2108TIP3    H127959   3.368   1.083   8.406  3.0173  2.4883 -0.8957
 2108TIP3    H227960   3.462   0.994   8.328  1.7400 -1.1033  1.4331
 2109TIP3   OH227961   3.225   1.749   3.471  0.0961  1.0475 -0.1076
 2109TIP3    H127962   3.217   1.673   3.530 -0.4682  0.9092 -0.3591
 2109TIP3    H227963   3.150   1.742   3.413  0.9839  0.8392 -1.2521
 2110TIP3   OH227964   2.353   4.670   1.369 -0.3283  0.5121 -0.2667
 2110TIP3    H127965   2.421   4.722   1.413  0.2342 -0.4505  0.0184
 2110TIP3    H227966   2.400   4.619   1.303 -0.7833 -0.0943 -0.1285
 2111TIP3   OH227967   0.210   4.721   8.188  0.3452 -0.7547 -0.5160
 2111TIP3    H127968   0.135   4.664   8.175  0.0928 -0.3630 -0.7711
 2111TIP3    H227969   0.285   4.661   8.189  0.1943 -0.9940 -1.8176
 2112TIP3   OH227970   0.488   1.484   8.634  0.4512 -0.3094 -0.3240
 2112TIP3    H127971   0.417   1.434   8.591 -0.9701  0.6472  0.8272
 2112TIP3    H227972   0.550   1.501   8.564  0.2724 -2.4253 -1.0744
 2113TIP3   OH227973   4.333   1.218   1.398  0.3892  0.3169  0.3273
 2113TIP3    H127974   4.315   1.293   1.340  1.7518  0.3761 -0.0469
 2113TIP3    H227975   4.428   1.220   1.411  0.1230  0.4272  2.7445
 2114TIP3   OH227976   4.337   5.406   2.708 -1.0485 -0.6209 -0.2791
 2114TIP3    H127977   4.367   5.323   2.745  2.3466 -0.4128 -2.1154
 2114TIP3    H227978   4.270   5.381   2.645 -1.3816 -1.7577  0.4843
 2115TIP3   OH227979   3.043   0.204   1.427 -0.5373  0.1804 -0.1509
 2115TIP3    H127980   2.997   0.285   1.446  1.3335  1.6945 -1.5921
 2115TIP3    H227981   3.021   0.184   1.336 -0.9751 -0.9323  0.1885
 2116TIP3   OH227982   5.155   2.178   1.532 -0.1213  0.3545  0.2705
 2116TIP3    H127983   5.109   2.261   1.538 -0.9114 -0.0223 -0.4091
 2116TIP3    H227984   5.216   2.188   1.460  0.1946  0.5328  0.5596
 2117TIP3   OH227985   1.535   2.330   3.678  0.0532 -0.4905  0.0300
 2117TIP3    H127986   1.538   2.368   3.766  1.4930  1.7743 -0.9316
 2117TIP3    H227987   1.468   2.380   3.633 -1.5035 -2.3991  0.0757
 2118TIP3   OH227988   3.005   1.177   3.833 -0.4742  0.2324  0.6408
 2118TIP3    H127989   2.914   1.207   3.841 -0.9755 -1.0187 -0.0535
 2118TIP3    H227990   3.001   1.084   3.853  0.7960  0.3004  1.3085
 2119TIP3   OH227991   2.904   3.842   2.394 -1.2860  1.0912 -0.1462
 2119TIP3    H127992   2.899   3.837   2.490  0.9769 -3.6115  0.0362
 2119TIP3    H227993   2.998   3.852   2.376 -1.4835  0.2501 -1.8297
 2120TIP3   OH227994   0.563   2.821   0.189 -0.4943 -0.3393  0.1801
 2120TIP3    H127995   0.587   2.741   0.144  0.1862 -0.8657  1.4262
 2120TIP3    H227996   0.472   2.808   0.216 -1.0515  0.1625 -1.3842
 2121TIP3   OH227997   3.586   2.181   0.199  0.0187  0.2198 -0.3157
 2121TIP3    H127998   3.594   2.275   0.182  1.3204  0.3350  0.7671
 2121TIP3    H227999   3.669   2.145   0.169 -1.2233 -0.9395 -2.6407
 2122TIP3   OH228000   3.335   2.874   1.052 -0.2146 -0.2453  0.1666
 2122TIP3    H128001   3.348   2.921   1.134  1.0251 -0.1959 -0.0422
 2122TIP3    H228002   3.355   2.938   0.984 -1.3107 -0.2632 -0.1937
 2123TIP3   OH228003   1.747   4.085   3.057  0.1293  0.2535  0.5364
 2123TIP3    H128004   1.731   3.999   3.018  0.8507 -0.7466  2.2884
 2123TIP3    H228005   1.750   4.068   3.151 -0.4291  2.3429  0.9841
 2124TIP3   OH228006   1.414   2.733   0.413  0.3865  0.3805 -0.6022
 2124TIP3    H128007   1.329   2.765   0.441  0.4768 -0.1089  0.2660
 2124TIP3    H228008   1.471   2.745   0.489  0.5524 -1.3257 -0.4111
 2125TIP3   OH228009   3.738   2.507   3.323  0.2745  0.3524  0.7866
 2125TIP3    H128010   3.791   2.433   3.351  0.1644  0.2408  0.7023
 2125TIP3    H228011   3.677   2.523   3.395 -0.7842 -0.6706  0.1558
 2126TIP3   OH228012   4.137   5.879   2.149 -0.0829  0.0351  0.0374
 2126TIP3    H128013   4.125   5.784   2.146  1.9270 -0.2640  0.1906
 2126TIP3    H228014   4.207   5.896   2.087 -1.3203  1.6320 -1.0004
 2127TIP3   OH228015   0.150   3.091   1.732  0.2671 -0.3791  0.5027
 2127TIP3    H128016   0.227   3.051   1.692 -1.0346 -1.0059 -1.5216
 2127TIP3    H228017   0.111   3.021   1.783  0.1768 -0.5179  0.2427
 2128TIP3   OH228018   1.787   1.149   3.401 -0.5082  0.1151  0.6492
 2128TIP3    H128019   1.809   1.206   3.475 -2.4173  3.1097 -0.8620
 2128TIP3    H228020   1.715   1.195   3.357 -0.9818 -2.6776 -1.7662
 2129TIP3   OH228021   0.985   1.472   2.766 -0.2922  0.7937 -0.7263
 2129TIP3    H128022   0.894   1.491   2.789 -1.0600 -0.0850 -2.7477
 2129TIP3    H228023   0.994   1.378   2.781  0.5854  1.0180  0.2901
 2130TIP3   OH228024   4.179   0.680   0.443 -0.2678 -0.4139  0.0743
 2130TIP3    H128025   4.168   0.646   0.354  1.5320 -0.0745 -0.3149
 2130TIP3    H228026   4.271   0.707   0.448 -0.5951  0.5885  1.6904
 2131TIP3   OH228027   5.209   5.023   4.138  0.0309 -0.6462  0.3365
 2131TIP3    H128028   5.249   5.041   4.223 -1.1813  0.4788  0.7164
 2131TIP3    H228029   5.250   4.942   4.108  1.2557 -0.4840  1.4926
 2132TIP3   OH228030   1.632   4.258   3.472 -0.1318 -0.2768  0.1751
 2132TIP3    H128031   1.712   4.272   3.422 -0.4981  0.6512 -0.1743
 2132TIP3    H228032   1.662   4.232   3.559  0.5488  0.1087  0.0596
 2133TIP3   OH228033   4.504   2.278   1.543  0.6361  0.6818  0.2943
 2133TIP3    H128034   4.463   2.321   1.617  1.0787  0.9830  0.3702
 2133TIP3    H228035   4.519   2.188   1.573 -0.0210  0.5536  0.2399
 2134TIP3   OH228036   5.387   4.028   0.926 -0.1355 -0.3749  0.1486
 2134TIP3    H128037   5.406   4.107   0.876  0.0173 -0.8918 -0.6232
 2134TIP3    H228038   5.297   4.040   0.957 -0.0555  0.1698  0.1731
 2135TIP3   OH228039   1.631   3.985   2.795 -0.0982 -0.2086 -0.0711
 2135TIP3    H128040   1.562   4.040   2.759  0.4863 -1.0008 -2.5826
 2135TIP3    H228041   1.709   4.042   2.798 -0.4525  0.2415  1.3084
 2136TIP3   OH228042   6.076   6.167   1.520  0.0806  0.3077  0.2511
 2136TIP3    H128043   6.065   6.239   1.582  0.5294  0.5161  0.0878
 2136TIP3    H228044   6.002   6.174   1.461 -1.9497 -1.5051  2.3500
 2137TIP3   OH228045   4.680   3.647   1.352 -0.8076 -0.2280  0.4549
 2137TIP3    H128046   4.738   3.614   1.283  0.5313 -0.1870  1.5087
 2137TIP3    H228047   4.594   3.652   1.311  0.0963  0.6200 -1.4628
 2138TIP3   OH228048   1.280   4.982   0.384 -0.1378  0.0328 -0.4001
 2138TIP3    H128049   1.308   5.036   0.457  2.2943  0.4941 -1.5540
 2138TIP3    H228050   1.262   5.044   0.313 -0.9253 -0.4853 -0.6719
 2139TIP3   OH228051   1.841   1.912   1.206  0.3833  0.1972  0.2113
 2139TIP3    H128052   1.915   1.955   1.249  1.5062 -1.1306 -0.3301
 2139TIP3    H228053   1.777   1.899   1.276 -0.4227  3.4617  0.2478
 2140TIP3   OH228054   6.667   1.265   3.635  0.1938  0.8453 -0.2519
 2140TIP3    H128055   6.642   1.313   3.714  3.0898  1.3402  0.4935
 2140TIP3    H228056   6.670   1.173   3.663  0.1452  0.8942 -0.0859
 2141TIP3   OH228057   6.658   3.473   0.751 -0.0445 -0.2464 -0.0662
 2141TIP3    H128058   6.569   3.452   0.778  0.7329 -2.1990  1.2409
 2141TIP3    H228059   6.668   3.566   0.771 -1.4923 -0.2208  0.6717
 2142TIP3   OH228060   6.291   4.081   3.260  0.2540  0.4311  0.0273
 2142TIP3    H128061   6.265   4.055   3.172 -0.9260 -1.7559  0.9667
 2142TIP3    H228062   6.281   4.177   3.260 -0.3015  0.4281 -1.9950
 2143TIP3   OH228063   1.884   4.378   3.227  0.2156  0.1413  0.3702
 2143TIP3    H128064   1.972   4.386   3.264  0.7203  1.4181 -1.0016
 2143TIP3    H228065   1.891   4.309   3.162  0.8646  1.8231 -1.4219
 2144TIP3   OH228066   3.447   5.000   0.904 -0.1262 -0.3390  0.5478
 2144TIP3    H128067   3.512   5.032   0.841  0.5043  1.3336  1.9498
 2144TIP3    H228068   3.365   5.041   0.876  0.4134  1.5155  1.5266
 2145TIP3   OH228069   4.098   0.655   1.925 -0.5539 -0.0532 -0.3662
 2145TIP3    H128070   4.138   0.733   1.963 -0.4311 -1.0030  1.5839
 2145TIP3    H228071   4.004   0.670   1.932 -0.5333 -0.2400  0.4160
 2146TIP3   OH228072   5.547   6.083   0.615  0.3425 -0.4915 -0.4160
 2146TIP3    H128073   5.590   6.105   0.697 -0.4621 -0.0758 -0.1012
 2146TIP3    H228074   5.594   6.135   0.549 -0.1432  0.5275  0.0253
 2147TIP3   OH228075   5.593   2.503   2.559  0.5192  0.0612 -0.0316
 2147TIP3    H128076   5.648   2.559   2.505  0.3514 -1.0750 -1.4415
 2147TIP3    H228077   5.508   2.547   2.561  0.9579  0.9022  0.6380
 2148TIP3   OH228078   3.891   2.122   2.686 -0.9795 -0.7245  0.1171
 2148TIP3    H128079   3.851   2.149   2.769 -2.0570  1.1373 -0.9278
 2148TIP3    H228080   3.892   2.202   2.633 -2.0153 -2.2001 -2.3032
 2149TIP3   OH228081   6.205   0.712   1.859 -0.1462  0.3017 -0.3331
 2149TIP3    H128082   6.149   0.785   1.884 -1.1613  0.1563 -1.9997
 2149TIP3    H228083   6.250   0.741   1.780  2.8505  0.7114  1.3629
 2150TIP3   OH228084   6.344   0.040   1.414  0.1538  0.2230  0.5752
 2150TIP3    H128085   6.348   0.124   1.369 -0.7642 -0.9620 -1.9726
 2150TIP3    H228086   6.420  -0.008   1.380 -0.0449 -0.3954  0.9946
 2151TIP3   OH228087   3.363   3.816   1.330 -0.3464 -0.3070  0.3643
 2151TIP3    H128088   3.310   3.876   1.381 -1.0580  0.0695 -0.7781
 2151TIP3    H228089   3.302   3.748   1.302 -0.8383  1.2322 -2.7423
 2152TIP3   OH228090   3.007   4.687   8.547  0.4182  0.5505 -0.0367
 2152TIP3    H128091   3.027   4.638   8.468  1.8442 -1.4175  1.4590
 2152TIP3    H228092   3.035   4.777   8.527  3.0578 -0.3900 -0.9814
 2153TIP3   OH228093   2.814   1.994   1.058  0.2861 -0.0262 -0.7027
 2153TIP3    H128094   2.781   2.080   1.030 -2.6715 -0.4159  1.1307
 2153TIP3    H228095   2.904   2.011   1.086  0.3379  2.1081 -1.9182
 2154TIP3   OH228096   3.122   1.045   1.179 -0.0174  0.2779  0.1375
 2154TIP3    H128097   3.042   0.993   1.170  0.8357 -0.8010 -2.0426
 2154TIP3    H228098   3.170   1.004   1.250  0.1749 -1.3660 -0.8845
 2155TIP3   OH228099   1.935   0.511   1.665  0.2845  0.0861  0.7681
 2155TIP3    H128100   1.995   0.439   1.681  1.4530  1.3140  2.2068
 2155TIP3    H228101   1.852   0.482   1.701  0.0269 -1.4957 -0.9430
 2156TIP3   OH228102   6.549   1.345   0.431 -0.2842 -0.3674 -0.4949
 2156TIP3    H128103   6.603   1.341   0.510  1.6653 -2.4458 -1.7832
 2156TIP3    H228104   6.572   1.428   0.390 -2.1914  1.3097  1.5680
 2157TIP3   OH228105   2.035   6.766   0.349  0.3279  0.1015  0.0832
 2157TIP3    H128106   2.012   6.856   0.329 -0.6613 -0.1084  0.2437
 2157TIP3    H228107   1.954   6.726   0.381  0.4831 -1.1138 -0.9376
 2158TIP3   OH228108   2.099   5.525   0.002  0.1941 -0.5820 -0.0254
 2158TIP3    H128109   2.153   5.546   0.079  0.5793  0.2333 -0.5089
 2158TIP3    H228110   2.143   5.450  -0.038 -0.8202 -1.9683  1.3462
 2159TIP3   OH228111   1.020   1.028   1.159  0.2851 -0.0877  0.3071
 2159TIP3    H128112   1.052   1.104   1.208 -0.7279 -0.2144  1.2095
 2159TIP3    H228113   1.058   0.953   1.206  0.1451 -0.1820  0.2676
 2160TIP3   OH228114   5.211   4.867   3.308 -0.2647  0.6660 -0.3591
 2160TIP3    H128115   5.220   4.952   3.351 -1.2506  0.9355 -0.6607
 2160TIP3    H228116   5.121   4.841   3.324 -0.7312  0.8629 -2.3784
 2161TIP3   OH228117   2.188   2.843   2.963 -0.0699  0.2769  0.1462
 2161TIP3    H128118   2.178   2.809   2.874 -0.4601  0.6419  0.0504
 2161TIP3    H228119   2.168   2.767   3.019 -0.3762  0.1946 -0.0722
 2162TIP3   OH228120   0.052   5.421   1.253  0.0974 -0.4459 -0.2309
 2162TIP3    H128121   0.146   5.409   1.241  1.1161  5.0358 -0.4573
 2162TIP3    H228122   0.018   5.434   1.165 -0.8122 -1.6761 -0.0913
 2163TIP3   OH228123   0.335   1.984   2.177 -0.2916 -0.1197 -0.3565
 2163TIP3    H128124   0.286   1.958   2.255  0.3746 -0.9421 -0.1923
 2163TIP3    H228125   0.397   2.050   2.208 -0.7652  0.3612 -0.4162
 2164TIP3   OH228126   0.867   4.584   2.998  0.2674 -0.1680  0.1353
 2164TIP3    H128127   0.932   4.654   3.008 -0.3216  0.6164 -1.3182
 2164TIP3    H228128   0.907   4.508   3.040  1.3783  0.7542  0.7949
 2165TIP3   OH228129   5.279   2.421   1.065  0.4933 -0.0653 -0.2790
 2165TIP3    H128130   5.187   2.406   1.089  0.2520  0.0583 -1.0888
 2165TIP3    H228131   5.295   2.359   0.994  0.7960  0.4687 -0.6827
 2166TIP3   OH228132   0.082   2.094   1.162 -0.4692  0.0650 -0.0898
 2166TIP3    H128133   0.106   2.055   1.079  0.8014  1.2642 -0.3254
 2166TIP3    H228134   0.161   2.088   1.216 -0.7097  0.9263  0.3856
 2167TIP3   OH228135   5.390   6.296   1.962  0.2258  0.3884  0.0186
 2167TIP3    H128136   5.393   6.332   1.873 -0.0638 -1.3553 -0.7204
 2167TIP3    H228137   5.451   6.222   1.960 -2.2181 -1.7648  0.2690
 2168TIP3   OH228138   0.910   3.938   0.631  0.3123  0.4454 -0.5943
 2168TIP3    H128139   0.983   3.883   0.603  0.1863 -0.2757  0.4579
 2168TIP3    H228140   0.883   3.902   0.715  0.2192  2.1000  0.1341
 2169TIP3   OH228141   2.520   5.016   8.672  0.2600  0.1113  0.4239
 2169TIP3    H128142   2.542   5.096   8.720 -1.5443  0.5177  0.6594
 2169TIP3    H228143   2.447   5.042   8.616  0.5492 -1.0464 -0.5263
 2170TIP3   OH228144   3.511   2.315   0.868  0.9071  0.2140  0.1957
 2170TIP3    H128145   3.572   2.303   0.795 -0.1604 -0.8428 -0.5583
 2170TIP3    H228146   3.459   2.236   0.868 -0.2503  0.9574  1.0307
 2171TIP3   OH228147   2.119   1.049   1.513 -0.3769  0.5671 -0.0120
 2171TIP3    H128148   2.080   1.051   1.426  1.9960  1.3264 -1.1361
 2171TIP3    H228149   2.170   0.968   1.515  2.9261  2.4469 -1.0080
 2172TIP3   OH228150   2.153   0.466   8.798 -0.0257  0.2401 -0.0126
 2172TIP3    H128151   2.080   0.430   8.746 -0.0852  0.8337 -0.3487
 2172TIP3    H228152   2.224   0.474   8.735  0.7236 -1.4358  0.5569
 2173TIP3   OH228153   6.380   3.992   2.598  0.6268  0.5547  0.0565
 2173TIP3    H128154   6.416   4.021   2.515  2.4361 -0.5665  0.3924
 2173TIP3    H228155   6.351   3.902   2.583 -2.8632  1.5820 -0.3783
 2174TIP3   OH228156   6.573   2.852   1.717 -0.5939 -0.3319 -0.0755
 2174TIP3    H128157   6.565   2.909   1.641  0.6779 -1.2722 -0.9427
 2174TIP3    H228158   6.484   2.821   1.734 -1.0558  0.7189 -0.4996
 2175TIP3   OH228159   3.507   6.288   0.063  0.0248 -0.2587 -0.3654
 2175TIP3    H128160   3.447   6.361   0.080 -3.7211 -3.1373  0.0533
 2175TIP3    H228161   3.545   6.307  -0.023 -0.4594  2.3242 -0.0853
 2176TIP3   OH228162   4.242   3.550   1.933 -0.4033  0.2017  0.0111
 2176TIP3    H128163   4.158   3.516   1.904 -0.9478  0.5569  1.1289
 2176TIP3    H228164   4.253   3.632   1.885 -0.8234  0.2869  0.0604
 2177TIP3   OH228165   6.198   0.304   2.118 -0.5149  0.1104 -0.1012
 2177TIP3    H128166   6.187   0.396   2.140  1.9594 -0.0006  2.0653
 2177TIP3    H228167   6.284   0.299   2.076 -0.1446 -1.3356  0.7713
 2178TIP3   OH228168   0.006   1.231   1.668 -0.2491  0.4459 -0.4983
 2178TIP3    H128169   0.038   1.153   1.714 -1.8648  0.3186  0.4650
 2178TIP3    H228170   0.079   1.293   1.673  0.6456 -0.5914 -0.2924
 2179TIP3   OH228171   1.573   0.298   2.803 -0.1505 -0.4814 -0.1797
 2179TIP3    H128172   1.492   0.297   2.855  0.7424 -1.4950  1.2952
 2179TIP3    H228173   1.631   0.238   2.850  0.5969 -1.8124 -2.6151
 2180TIP3   OH228174   1.298   5.437   0.074 -0.3682 -0.0002 -0.1401
 2180TIP3    H128175   1.294   5.395  -0.012  1.2045 -0.6486  0.0548
 2180TIP3    H228176   1.351   5.516   0.060 -0.1329 -0.0908  0.2226
 2181TIP3   OH228177   2.447   2.445   2.145 -0.1628 -0.2091  0.1564
 2181TIP3    H128178   2.466   2.374   2.083 -1.1257 -1.3102  1.0759
 2181TIP3    H228179   2.532   2.466   2.183  0.2294 -0.4494 -0.5556
 2182TIP3   OH228180   1.215   0.125   3.360  1.2330 -0.3912 -0.4147
 2182TIP3    H128181   1.187   0.201   3.310 -1.8989 -0.8437  0.4560
 2182TIP3    H228182   1.202   0.051   3.301  1.5358 -0.5247 -0.3158
 2183TIP3   OH228183   4.157   1.336   3.808  0.6389 -0.0095  0.1137
 2183TIP3    H128184   4.236   1.340   3.754 -0.6843 -1.1514 -2.0248
 2183TIP3    H228185   4.141   1.243   3.820 -0.8604  0.1764 -0.2538
 2184TIP3   OH228186   0.242   5.316   1.850 -0.3124 -0.2397 -0.3956
 2184TIP3    H128187   0.323   5.309   1.800 -0.5715  0.6146 -0.9556
 2184TIP3    H228188   0.177   5.270   1.797 -0.6765  1.0079 -1.0773
 2185TIP3   OH228189   6.566   3.683   3.384 -0.3261 -0.4980 -0.0878
 2185TIP3    H128190   6.518   3.601   3.398 -3.1615  1.3411  1.9849
 2185TIP3    H228191   6.515   3.730   3.317 -0.6332  0.8574  1.0449
 2186TIP3   OH228192   3.032   3.114   8.178  0.4328 -0.0397 -0.5325
 2186TIP3    H128193   3.063   3.131   8.089 -0.5607 -0.2847 -0.9461
 2186TIP3    H228194   2.946   3.157   8.182 -0.1260 -1.1343 -0.1452
 2187TIP3   OH228195   2.993   4.148   3.244 -0.0534  0.0189 -0.1623
 2187TIP3    H128196   3.061   4.186   3.189 -0.3437  0.1125 -0.4572
 2187TIP3    H228197   3.000   4.197   3.327  2.2360 -1.9746  0.9393
 2188TIP3   OH228198   6.464   5.517   1.012 -0.0958 -0.0865 -0.2578
 2188TIP3    H128199   6.473   5.588   0.948 -0.5921 -1.3510 -1.8253
 2188TIP3    H228200   6.378   5.531   1.051  0.4770  1.0658  0.6331
 2189TIP3   OH228201   6.688   3.800   8.576  0.0289 -0.1926 -0.5966
 2189TIP3    H128202   6.669   3.858   8.502 -0.5408 -0.3762 -0.5999
 2189TIP3    H228203   6.774   3.763   8.556  0.4899  0.7818 -0.5079
 2190TIP3   OH228204   6.434   4.938   3.378 -0.5046  0.1736  0.1476
 2190TIP3    H128205   6.489   4.992   3.322 -0.6903 -1.4000 -1.6280
 2190TIP3    H228206   6.491   4.866   3.406 -0.6889  0.4293  1.2176
 2191TIP3   OH228207   3.877   3.841   3.417 -0.4970 -0.0973  0.1338
 2191TIP3    H128208   3.866   3.935   3.410 -0.9504 -0.1840 -0.3850
 2191TIP3    H228209   3.891   3.811   3.327  0.7216 -0.4017  0.4033
 2192TIP3   OH228210   0.558   4.930   8.479  0.0384 -0.2943  1.0321
 2192TIP3    H128211   0.481   4.875   8.493  0.4770 -1.0148  0.6346
 2192TIP3    H228212   0.629   4.886   8.524  0.5842 -0.5296 -0.0364
 2193TIP3   OH228213   3.229   0.615   1.422  0.3483  0.6499  0.8492
 2193TIP3    H128214   3.198   0.613   1.512 -1.6764  1.8347  0.2652
 2193TIP3    H228215   3.322   0.595   1.427 -0.1001 -1.2032  2.9848
 2194TIP3   OH228216   1.887   5.646   3.168  0.8639 -0.3177  0.1633
 2194TIP3    H128217   1.839   5.588   3.226  1.1988 -1.5575 -0.7734
 2194TIP3    H228218   1.979   5.624   3.182  1.3191  2.4210  2.3612
 2195TIP3   OH228219   0.974   2.444   0.397 -0.6927 -0.3600  0.3369
 2195TIP3    H128220   1.048   2.399   0.439 -0.7195 -2.1707 -1.4158
 2195TIP3    H228221   1.005   2.464   0.309 -0.9308  2.6105  0.8254
 2196TIP3   OH228222   3.275   2.743   1.938  0.2361  0.2728  0.0052
 2196TIP3    H128223   3.366   2.742   1.970  0.1648 -0.6003  0.2047
 2196TIP3    H228224   3.275   2.808   1.868  1.0744  0.1209 -0.1481
 2197TIP3   OH228225   2.771   6.193   3.159 -0.3587 -0.1168  0.4923
 2197TIP3    H128226   2.685   6.156   3.137  0.6065 -0.8355 -2.5170
 2197TIP3    H228227   2.815   6.123   3.208  0.3898 -2.0842 -2.6779
 2198TIP3   OH228228   5.190   2.607   0.814  0.1871 -0.7239  0.2487
 2198TIP3    H128229   5.246   2.679   0.783 -0.2698  0.7566  2.6529
 2198TIP3    H228230   5.250   2.533   0.826  1.0616 -0.0905 -0.1597
 2199TIP3   OH228231   4.868   6.542   2.766  0.0681  0.9262 -0.8588
 2199TIP3    H128232   4.782   6.538   2.807 -0.1990 -0.4539 -1.4896
 2199TIP3    H228233   4.921   6.595   2.826 -0.7357  0.3258  0.4242
 2200TIP3   OH228234   1.307   0.304   2.918 -0.2062 -0.0900  0.2921
 2200TIP3    H128235   1.308   0.393   2.882  2.4381 -0.8725 -1.9650
 2200TIP3    H228236   1.343   0.314   3.006 -0.3460  1.1232  0.2342
 2201TIP3   OH228237   0.862   4.892   3.056 -0.0230 -0.2420 -0.2006
 2201TIP3    H128238   0.936   4.832   3.069  1.2474  0.8238 -2.0099
 2201TIP3    H228239   0.858   4.943   3.137 -0.8071 -2.3289  1.1635
 2202TIP3   OH228240   1.841   1.421   1.201 -0.0104 -0.4590  0.1232
 2202TIP3    H128241   1.775   1.467   1.148 -0.7827  1.5415  2.5977
 2202TIP3    H228242   1.925   1.453   1.168 -0.4477  0.2761 -0.3080
 2203TIP3   OH228243   0.830   0.956   2.333  0.5329  0.1495 -0.3157
 2203TIP3    H128244   0.839   0.873   2.285  0.4291  0.0029 -0.0830
 2203TIP3    H228245   0.805   1.020   2.266  0.0371 -0.1234 -0.3978
 2204TIP3   OH228246   3.311   6.444   0.836  0.3673  0.0098  0.5368
 2204TIP3    H128247   3.383   6.453   0.773  0.1863  1.6048  0.5090
 2204TIP3    H228248   3.343   6.490   0.914  0.1409 -0.9794  1.2238
 2205TIP3   OH228249   3.224   5.338   3.309 -0.7180 -0.2959  0.4492
 2205TIP3    H128250   3.166   5.344   3.385 -0.1260  0.0967  0.8771
 2205TIP3    H228251   3.307   5.304   3.344 -0.5729 -0.5254 -0.0956
 2206TIP3   OH228252   2.175   0.470   2.425 -0.0062 -0.1522 -0.2391
 2206TIP3    H128253   2.138   0.552   2.456 -1.3064 -0.3990 -1.0569
 2206TIP3    H228254   2.099   0.418   2.397  0.9633 -0.5197 -2.4113
 2207TIP3   OH228255   6.488   2.279   1.426 -0.3917 -0.1551  0.4627
 2207TIP3    H128256   6.492   2.253   1.518 -1.2326  1.9691  1.1557
 2207TIP3    H228257   6.559   2.231   1.384 -1.1616 -2.6225  1.8056
 2208TIP3   OH228258   5.013   0.178   8.081 -0.5638 -0.2004 -0.5618
 2208TIP3    H128259   4.929   0.171   8.126 -0.3512  1.9883  0.3228
 2208TIP3    H228260   5.055   0.093   8.094 -1.3084 -0.2760  1.8029
 2209TIP3   OH228261   3.139   6.335   4.012  0.1376 -0.2909  0.3661
 2209TIP3    H128262   3.058   6.373   4.047 -0.6899 -1.7093  0.0563
 2209TIP3    H228263   3.193   6.320   4.089  0.6351  1.7326  0.4864
 2210TIP3   OH228264   4.907   4.589   1.145 -0.4180 -0.1879  0.1236
 2210TIP3    H128265   4.847   4.543   1.087  1.2659  1.8747 -3.6342
 2210TIP3    H228266   4.865   4.673   1.162 -0.1812 -0.1519  0.5503
 2211TIP3   OH228267   2.863   4.829   3.423 -0.2292 -0.2181 -0.0061
 2211TIP3    H128268   2.940   4.778   3.446 -0.4465 -0.1784  0.8462
 2211TIP3    H228269   2.870   4.909   3.476  0.1689  0.7150 -1.4070
 2212TIP3   OH228270   3.693   2.452   1.824  0.2300 -0.5013  0.3895
 2212TIP3    H128271   3.628   2.383   1.839 -1.4653  0.3162 -2.4829
 2212TIP3    H228272   3.749   2.418   1.754  1.6116 -0.2909  1.3351
 2213TIP3   OH228273   1.679   4.900   2.575  0.3570  0.4850  0.2215
 2213TIP3    H128274   1.751   4.866   2.628  0.7145  1.2725  0.2619
 2213TIP3    H228275   1.647   4.825   2.526  1.1525  0.1069  0.2707
 2214TIP3   OH228276   5.522   3.703   1.888 -0.4983 -0.2781 -0.0755
 2214TIP3    H128277   5.467   3.676   1.961 -1.0888  2.5651  0.6468
 2214TIP3    H228278   5.540   3.795   1.904  2.8986 -0.5718 -1.3346
 2215TIP3   OH228279   3.292   2.907   1.360 -0.0029 -0.2049 -0.0298
 2215TIP3    H128280   3.214   2.950   1.395 -1.6595 -1.9798 -1.3369
 2215TIP3    H228281   3.304   2.830   1.415  1.6044  0.6386  0.8910
 2216TIP3   OH228282   3.380   3.965   0.321 -0.0836 -0.2664 -0.0519
 2216TIP3    H128283   3.368   3.999   0.410  0.9388  1.8151 -0.6342
 2216TIP3    H228284   3.462   3.915   0.325 -0.5809 -1.0602  0.3888
 2217TIP3   OH228285   3.398   5.303   0.603  0.0052  0.2488 -0.1997
 2217TIP3    H128286   3.320   5.250   0.585  0.5749 -0.9572  0.7663
 2217TIP3    H228287   3.398   5.370   0.534 -2.3286  0.8037  0.2438
 2218TIP3   OH228288   2.679   0.981   2.447 -0.1109 -0.2728  0.2630
 2218TIP3    H128289   2.621   0.990   2.522  0.3248 -1.6448  0.7952
 2218TIP3    H228290   2.620   0.982   2.371 -0.8250 -1.3746  0.7735
 2219TIP3   OH228291   1.468   4.069   1.805 -0.4949 -0.1592  0.0515
 2219TIP3    H128292   1.539   4.005   1.809 -0.9097 -0.7104 -0.9775
 2219TIP3    H228293   1.511   4.154   1.820  0.0514 -0.6629  1.4690
 2220TIP3   OH228294   1.650   3.601   8.501 -0.7713  0.5734 -0.1205
 2220TIP3    H128295   1.644   3.676   8.443  0.7300  0.2255 -0.7862
 2220TIP3    H228296   1.739   3.604   8.536 -0.7264 -0.7744 -0.0288
 2221TIP3   OH228297   4.903   0.337   2.062 -0.0447  0.8737 -0.3605
 2221TIP3    H128298   4.852   0.260   2.039 -1.0682  1.1572  0.8368
 2221TIP3    H228299   4.987   0.326   2.016  0.4337 -1.7256  0.9795
 2222TIP3   OH228300   5.434   3.827   4.378  0.3858 -0.3191 -0.3788
 2222TIP3    H128301   5.342   3.802   4.368 -0.2930  1.0436  1.7064
 2222TIP3    H228302   5.441   3.913   4.336  0.2556  0.3304  0.8762
 2223TIP3   OH228303   4.431   6.291   1.493  0.4542 -0.6686  0.0258
 2223TIP3    H128304   4.422   6.224   1.425  0.1246 -1.6319  0.9800
 2223TIP3    H228305   4.525   6.309   1.497  0.4195 -0.1832 -1.0595
 2224TIP3   OH228306   3.135   5.251   2.498  0.4154 -0.0668 -0.1333
 2224TIP3    H128307   3.158   5.237   2.589  1.1189 -1.8045 -0.5462
 2224TIP3    H228308   3.082   5.175   2.474  0.1591  0.4046 -1.1504
 2225TIP3   OH228309   0.534   4.970   2.226 -0.0480 -0.3558  0.4195
 2225TIP3    H128310   0.457   5.018   2.195  0.8786  0.8944 -0.0134
 2225TIP3    H228311   0.582   4.946   2.147  0.9868  0.5681  0.7406
 2226TIP3   OH228312   5.404   6.511   2.457  0.1296  0.5009  0.4536
 2226TIP3    H128313   5.434   6.427   2.424  0.1943  0.9616 -0.7212
 2226TIP3    H228314   5.484   6.554   2.490  0.4707  0.9187 -0.8466
 2227TIP3   OH228315   6.238   4.528   1.791  0.1941 -0.3396 -0.3246
 2227TIP3    H128316   6.195   4.506   1.709  1.9317 -3.2220 -0.6134
 2227TIP3    H228317   6.317   4.575   1.765  0.5514 -0.9141 -0.2909
 2228TIP3   OH228318   4.171   6.287   4.149 -0.0943  0.3767 -0.0868
 2228TIP3    H128319   4.188   6.193   4.159 -0.0527  0.4730  0.8382
 2228TIP3    H228320   4.253   6.329   4.177 -0.6184  0.7318  0.9293
 2229TIP3   OH228321   5.204   2.230   1.792  0.7062  0.1693  0.2446
 2229TIP3    H128322   5.121   2.184   1.805  0.4882  0.4950  0.0184
 2229TIP3    H228323   5.206   2.249   1.698  1.4264 -0.5737  0.0942
 2230TIP3   OH228324   3.918   1.882   2.579  0.3461 -0.3501 -0.1194
 2230TIP3    H128325   3.928   1.831   2.660  1.1036  1.3958  0.9562
 2230TIP3    H228326   3.896   1.970   2.609  0.6596  0.3568 -1.8336
 2231TIP3   OH228327   3.476   5.475   2.467  0.5779 -0.5415  0.0736
 2231TIP3    H128328   3.454   5.473   2.560  0.7996  2.2349  0.2739
 2231TIP3    H228329   3.572   5.472   2.464  0.6425  0.8083  0.0739
 2232TIP3   OH228330   2.303   5.364   2.742  0.2068 -0.0294 -0.1149
 2232TIP3    H128331   2.270   5.390   2.656 -0.9276  1.1011  0.6404
 2232TIP3    H228332   2.323   5.271   2.732 -2.5301 -0.6387 -0.8681
 2233TIP3   OH228333   6.459   6.515   2.382 -0.1117 -0.0001 -0.5380
 2233TIP3    H128334   6.381   6.493   2.433 -0.2097  0.3861 -0.5172
 2233TIP3    H228335   6.425   6.542   2.296 -0.1396  1.8368  0.0065
 2234TIP3   OH228336   4.882   5.038   3.789 -0.0698  0.2252  0.3931
 2234TIP3    H128337   4.916   5.125   3.767  0.9481 -0.1467  0.4346
 2234TIP3    H228338   4.879   4.992   3.705 -0.9286  0.4055  0.3216
 2235TIP3   OH228339   5.818   2.060   1.043 -0.2669 -0.7190 -0.4746
 2235TIP3    H128340   5.833   1.967   1.058 -2.6644 -1.6798 -3.1129
 2235TIP3    H228341   5.885   2.084   0.978 -0.4775 -0.9767 -0.7923
 2236TIP3   OH228342   2.795   2.133   0.316 -0.0796 -0.8011 -0.1602
 2236TIP3    H128343   2.829   2.118   0.228 -0.4521  0.2772 -0.5043
 2236TIP3    H228344   2.704   2.104   0.312 -0.7354  1.1329 -0.7653
 2237TIP3   OH228345   2.250   6.035   1.025 -0.2946  0.7653  0.1243
 2237TIP3    H128346   2.284   5.950   1.055 -1.5519  0.5395  0.9577
 2237TIP3    H228347   2.166   6.045   1.070 -1.0247  1.6296 -1.3502
 2238TIP3   OH228348   6.297   0.046   3.235 -0.4703 -0.2045  0.1757
 2238TIP3    H128349   6.282   0.110   3.166 -1.6084 -0.0060  0.5770
 2238TIP3    H228350   6.237  -0.026   3.214  2.3015 -2.2141 -1.4981
 2239TIP3   OH228351   2.787   4.773   8.355  0.2030 -0.2431 -0.8234
 2239TIP3    H128352   2.873   4.750   8.322  0.8991 -0.3213  0.9266
 2239TIP3    H228353   2.804   4.829   8.430 -1.2188 -1.0115  0.1342
 2240TIP3   OH228354   0.295   6.136   8.743  0.2007 -0.0687 -0.2981
 2240TIP3    H128355   0.270   6.171   8.828 -0.9423 -0.4510 -0.4537
 2240TIP3    H228356   0.236   6.179   8.681  1.0620  0.2586 -0.9232
 2241TIP3   OH228357   1.347   4.253   3.688 -0.3772  0.0480 -0.2313
 2241TIP3    H128358   1.330   4.159   3.678 -1.0375  0.1490 -0.0836
 2241TIP3    H228359   1.326   4.290   3.602  0.0351  0.0475 -0.3382
 2242TIP3   OH228360   0.301   4.332   3.093  0.0391  0.0089 -0.0936
 2242TIP3    H128361   0.286   4.412   3.043  0.3610  0.3228  0.2979
 2242TIP3    H228362   0.395   4.332   3.111  0.3561 -1.3103 -1.4900
 2243TIP3   OH228363   3.603   1.076   2.228  0.3601  0.2682  0.2145
 2243TIP3    H128364   3.571   0.998   2.181  0.6887  0.2395  0.0319
 2243TIP3    H228365   3.545   1.084   2.303 -1.6221  1.6127 -1.3580
 2244TIP3   OH228366   5.502   6.201   0.143  0.1585 -0.1169 -0.3212
 2244TIP3    H128367   5.485   6.116   0.102  0.2661 -0.5956  0.6013
 2244TIP3    H228368   5.454   6.264   0.089  1.1302 -0.5789 -1.7845
 2245TIP3   OH228369   5.605   0.671   7.784 -0.5746  0.3312  0.6249
 2245TIP3    H128370   5.675   0.736   7.786 -1.0972  0.8929  1.1218
 2245TIP3    H228371   5.648   0.589   7.807  0.3714  0.2024 -1.4456
 2246TIP3   OH228372   4.429   3.182   1.156  0.1391 -0.0534 -0.0495
 2246TIP3    H128373   4.357   3.245   1.160  0.8503  0.8255 -0.8325
 2246TIP3    H228374   4.408   3.118   1.225 -0.2198  1.4100  1.2657
 2247TIP3   OH228375   6.480   5.665   2.197  0.2466 -0.4513  0.0635
 2247TIP3    H128376   6.556   5.647   2.253 -1.1431 -1.5669  1.6967
 2247TIP3    H228377   6.488   5.604   2.124  1.6624  0.4606 -0.5896
 2248TIP3   OH228378   0.650   4.042   0.399  0.0798 -0.0812  0.4983
 2248TIP3    H128379   0.722   4.079   0.348  0.1091 -1.7424 -0.7523
 2248TIP3    H228380   0.571   4.067   0.351  0.0274 -0.5436  0.3285
 2249TIP3   OH228381   2.867   1.640   4.060 -0.0887  0.2254 -0.4343
 2249TIP3    H128382   2.886   1.724   4.101  0.7500 -0.2871  0.2663
 2249TIP3    H228383   2.880   1.656   3.967  0.1920  0.8383 -0.2970
 2250TIP3   OH228384   3.037   1.091   4.206  0.5195  0.6128 -0.5282
 2250TIP3    H128385   3.093   1.169   4.210  0.0842  0.8994  0.4891
 2250TIP3    H228386   2.957   1.118   4.251  0.7388 -0.7180  0.7136
 2251TIP3   OH228387   6.321   2.963   2.119  0.4339 -0.5684  0.1012
 2251TIP3    H128388   6.226   2.977   2.124  0.0202 -2.8918  0.2462
 2251TIP3    H228389   6.330   2.867   2.119  2.8350 -0.4043  1.0801
 2252TIP3   OH228390   4.787   5.304   2.295 -0.0797 -0.6594  0.6725
 2252TIP3    H128391   4.717   5.322   2.232  1.0256 -1.0098 -0.7165
 2252TIP3    H228392   4.791   5.209   2.300  0.6259 -0.6573  0.3213
 2253TIP3   OH228393   4.845   5.680   1.844 -0.9296  0.1433  0.0594
 2253TIP3    H128394   4.928   5.635   1.863 -0.1025  2.0178  1.2597
 2253TIP3    H228395   4.826   5.659   1.753  0.2661 -1.2628  0.1045
 2254TIP3   OH228396   3.756   5.985   1.309 -0.0276  0.1773  0.1339
 2254TIP3    H128397   3.661   5.996   1.308 -0.0094  0.4934 -1.3910
 2254TIP3    H228398   3.789   6.060   1.358 -0.5631  0.1175  0.5839
 2255TIP3   OH228399   3.727   3.700   0.587  0.3348  0.1833  0.2390
 2255TIP3    H128400   3.738   3.609   0.614  0.7583  0.0351 -0.4083
 2255TIP3    H228401   3.729   3.697   0.491  2.1999  1.0776  0.1961
 2256TIP3   OH228402   1.838   2.651   4.014  0.1844  0.4210  0.2449
 2256TIP3    H128403   1.802   2.688   4.095  0.8664  0.5538  0.4949
 2256TIP3    H228404   1.898   2.583   4.044 -1.8384 -1.6944 -0.2240
 2257TIP3   OH228405   4.448   6.178   1.772  0.0400 -0.2960 -0.0253
 2257TIP3    H128406   4.438   6.220   1.687 -0.0224  1.0823  0.6301
 2257TIP3    H228407   4.497   6.098   1.754 -0.0543 -0.0786 -1.3595
 2258TIP3   OH228408   1.428   6.195   2.047  0.3348  0.2580 -0.0459
 2258TIP3    H128409   1.352   6.215   2.100  0.4307  0.5141 -0.0025
 2258TIP3    H228410   1.449   6.277   2.002  1.8506  0.7911  1.5457
 2259TIP3   OH228411   3.782   4.678   2.680 -0.2307 -0.0311  0.2344
 2259TIP3    H128412   3.699   4.724   2.672  0.5666  1.1636 -1.7740
 2259TIP3    H228413   3.784   4.616   2.607  1.1008  0.7802 -0.4649
 2260TIP3   OH228414   1.825   6.306   1.956 -0.4596 -0.1017  0.1209
 2260TIP3    H128415   1.787   6.352   1.880 -0.8259 -0.4362  0.0972
 2260TIP3    H228416   1.872   6.374   2.004 -0.4038  0.1564 -0.2951
 2261TIP3   OH228417   1.081   3.371   1.462 -0.2117  0.0784  0.1546
 2261TIP3    H128418   1.116   3.449   1.507  0.9388 -0.8441  0.9097
 2261TIP3    H228419   0.987   3.374   1.479 -0.0491  0.7769  1.0349
 2262TIP3   OH228420   2.430   5.765   1.440 -0.0593 -0.2788 -0.1078
 2262TIP3    H128421   2.406   5.771   1.533 -2.2859  0.8676 -0.6738
 2262TIP3    H228422   2.367   5.822   1.396  0.4656 -1.3695 -2.4122
 2263TIP3   OH228423   6.725   4.863   0.325  0.1648  0.3857 -0.2477
 2263TIP3    H128424   6.668   4.879   0.400 -1.5806 -1.2748 -1.1350
 2263TIP3    H228425   6.709   4.772   0.302  1.7545  0.4394 -1.7412
 2264TIP3   OH228426   5.067   2.820   3.012 -0.0906  0.0602 -0.0407
 2264TIP3    H128427   5.137   2.880   2.986 -0.8822  0.6293 -0.9288
 2264TIP3    H228428   5.091   2.792   3.100 -0.0079  2.2288  0.6923
 2265TIP3   OH228429   4.496   1.990   3.323  0.2235  0.4897  0.6368
 2265TIP3    H128430   4.472   1.930   3.393  1.0153 -2.1070 -1.1726
 2265TIP3    H228431   4.427   2.056   3.323 -0.9066 -0.6108  2.4908
 2266TIP3   OH228432   4.854   0.433   1.645  0.2793 -0.4139 -0.6028
 2266TIP3    H128433   4.917   0.480   1.699 -0.5216  0.6227 -0.5171
 2266TIP3    H228434   4.850   0.345   1.682 -0.0775  0.2068  0.9105
 2267TIP3   OH228435   3.241   2.865   2.793  0.1902 -0.3392  0.5412
 2267TIP3    H128436   3.174   2.927   2.822  1.2135 -0.4382  3.5144
 2267TIP3    H228437   3.316   2.920   2.771 -0.1205 -0.3589 -0.6397
 2268TIP3   OH228438   0.117   1.704   8.318  0.1015  0.2188  0.1271
 2268TIP3    H128439   0.207   1.684   8.342  0.9395  2.2214 -1.0892
 2268TIP3    H228440   0.087   1.627   8.269  1.8460  0.3066 -1.1659
 2269TIP3   OH228441   3.807   3.330   1.535  0.1502 -0.2901  0.3817
 2269TIP3    H128442   3.785   3.386   1.609 -1.9148 -1.8802  1.0672
 2269TIP3    H228443   3.890   3.290   1.560  1.6657  2.3093 -0.1212
 2270TIP3   OH228444   4.647   5.499   3.241 -0.5400 -0.1533 -0.1202
 2270TIP3    H128445   4.605   5.448   3.310  0.9245  0.4456  1.2658
 2270TIP3    H228446   4.741   5.481   3.251 -0.0190  2.2920  0.0517
 2271TIP3   OH228447   5.353   3.122   2.725 -0.4882 -0.1847 -0.5470
 2271TIP3    H128448   5.362   3.206   2.681  0.0664 -0.2111 -0.4959
 2271TIP3    H228449   5.268   3.126   2.768 -1.6836 -0.6498 -2.6874
 2272TIP3   OH228450   1.760   0.246   2.437  0.8620 -0.2315  0.1221
 2272TIP3    H128451   1.695   0.200   2.384  1.0066  0.7381 -0.9437
 2272TIP3    H228452   1.825   0.179   2.458 -0.5856 -1.2902  1.4588
 2273TIP3   OH228453   6.162   1.463   3.148 -0.5467  0.1480 -0.5685
 2273TIP3    H128454   6.067   1.455   3.154 -0.3568 -1.9883  0.3382
 2273TIP3    H228455   6.194   1.373   3.138  1.3836  0.8053 -0.8200
 2274TIP3   OH228456   6.027   0.511   1.817  0.3504 -0.2451 -0.1985
 2274TIP3    H128457   6.082   0.588   1.831  0.0663  0.0475 -0.6549
 2274TIP3    H228458   5.951   0.525   1.875  0.6873 -0.5858  0.3338
 2275TIP3   OH228459   2.252   2.079   2.533  0.4894 -0.1049 -0.2232
 2275TIP3    H128460   2.277   2.044   2.447 -2.6830  1.0564 -1.7779
 2275TIP3    H228461   2.289   2.168   2.534  3.7012 -1.3048  1.3356
 2276TIP3   OH228462   2.772   4.393   4.623 -0.5530  0.0998  0.0780
 2276TIP3    H128463   2.677   4.388   4.633 -0.6622  2.1739  0.4722
 2276TIP3    H228464   2.805   4.414   4.710  0.4128 -1.8233  0.2144
 2277TIP3   OH228465   5.721   5.277   3.400 -0.5144 -0.0173 -0.0292
 2277TIP3    H128466   5.668   5.212   3.353  0.0429  0.6271 -1.6523
 2277TIP3    H228467   5.792   5.227   3.440 -0.1918 -0.4600 -1.1124
 2278TIP3   OH228468   3.037   3.019   2.892  0.0224 -0.0956 -0.9963
 2278TIP3    H128469   2.998   2.934   2.910 -0.8470  0.4324 -0.2788
 2278TIP3    H228470   2.962   3.076   2.872  0.3742  0.9634  0.4664
 2279TIP3   OH228471   0.515   3.429   1.247  0.1313 -0.2476 -0.2313
 2279TIP3    H128472   0.570   3.455   1.321 -0.5204 -1.6786  0.8033
 2279TIP3    H228473   0.526   3.499   1.183  1.2830  0.6711  0.9250
 2280TIP3   OH228474   4.718   3.835   1.567  0.0265  0.3615  0.4115
 2280TIP3    H128475   4.703   3.874   1.654 -0.7302 -0.9778  0.9159
 2280TIP3    H228476   4.738   3.743   1.586  0.6856  0.2381 -0.8024
 2281TIP3   OH228477   0.605   1.865   8.246  0.6733  0.2639  0.6426
 2281TIP3    H128478   0.526   1.901   8.287 -0.5848 -2.1489  0.4886
 2281TIP3    H228479   0.615   1.778   8.284  1.4255 -0.7247 -1.6454
 2282TIP3   OH228480   5.255   5.289   1.593 -0.3151 -0.3454 -0.4809
 2282TIP3    H128481   5.342   5.328   1.589 -0.3289 -0.1785  0.4858
 2282TIP3    H228482   5.241   5.271   1.686 -1.3882 -0.2179 -0.6015
 2283TIP3   OH228483   0.171   2.422   0.528  0.4948 -0.0404  0.2850
 2283TIP3    H128484   0.216   2.502   0.499  0.6413  0.3902  1.6619
 2283TIP3    H228485   0.236   2.375   0.579  0.0742 -0.5273  0.3812
 2284TIP3   OH228486   0.559   3.867   8.700  0.0982 -1.3746  0.0408
 2284TIP3    H128487   0.650   3.896   8.708 -0.0016 -0.9795 -0.2170
 2284TIP3    H228488   0.546   3.857   8.605 -0.9914  1.4363 -0.2062
 2285TIP3   OH228489   5.683   5.210   0.089 -0.6459 -0.3065  0.1575
 2285TIP3    H128490   5.662   5.239   0.000  0.3617 -1.7679 -0.6115
 2285TIP3    H228491   5.777   5.189   0.085 -1.0506 -2.5355  0.8978
 2286TIP3   OH228492   2.460   4.809   1.741 -0.3578  0.0015 -0.6144
 2286TIP3    H128493   2.392   4.744   1.759  0.2927 -0.5512 -0.1091
 2286TIP3    H228494   2.487   4.840   1.827  0.0939  0.1490 -0.8085
 2287TIP3   OH228495   6.439   6.474   3.389 -0.0820 -0.5947 -0.1136
 2287TIP3    H128496   6.344   6.466   3.397 -0.0511 -2.7557 -1.2998
 2287TIP3    H228497   6.463   6.410   3.322  2.1204  0.5509 -0.4992
 2288TIP3   OH228498   0.258   2.942   4.107  0.0025  0.4742  0.3199
 2288TIP3    H128499   0.237   2.965   4.016 -0.1395 -0.8673 -0.0101
 2288TIP3    H228500   0.176   2.952   4.154 -0.9616 -2.5108 -0.5062
 2289TIP3   OH228501   3.388   1.049   3.701  1.3389  0.3404  0.0730
 2289TIP3    H128502   3.441   0.981   3.742  0.1606 -0.7581 -0.1610
 2289TIP3    H228503   3.323   1.001   3.649 -2.3890  1.3370  3.3174
 2290TIP3   OH228504   0.521   2.021   8.448 -0.3842  0.1108  0.1052
 2290TIP3    H128505   0.542   1.938   8.492 -1.1027 -0.0652  0.1419
 2290TIP3    H228506   0.587   2.082   8.479  0.4634 -0.5684 -0.3077
 2291TIP3   OH228507   5.994   0.793   2.436 -0.4871  0.3923  0.1495
 2291TIP3    H128508   5.981   0.882   2.467 -0.5667  0.1849  0.7188
 2291TIP3    H228509   6.023   0.744   2.513  0.8714  0.2189 -0.4387
 2292TIP3   OH228510   2.488   2.483   3.173  0.3989  0.1127  0.0102
 2292TIP3    H128511   2.502   2.537   3.250  0.4314  0.0061  0.0796
 2292TIP3    H228512   2.393   2.475   3.166  0.4056 -0.3542  0.3765
 2293TIP3   OH228513   4.297   1.695   2.325 -0.0230 -0.1475 -0.0336
 2293TIP3    H128514   4.219   1.685   2.379 -1.5475  3.1889 -1.3272
 2293TIP3    H228515   4.282   1.638   2.250 -0.8456 -0.1601  0.1293
 2294TIP3   OH228516   1.533   3.241   1.459 -0.5109 -0.4570 -0.7280
 2294TIP3    H128517   1.448   3.200   1.476 -1.9708  3.1344  1.9244
 2294TIP3    H228518   1.517   3.298   1.384 -0.6915  0.6646  0.1379
 2295TIP3   OH228519   4.123   5.565   0.831  0.4927 -0.0128 -0.7017
 2295TIP3    H128520   4.090   5.509   0.901 -0.7075 -0.0071 -1.2433
 2295TIP3    H228521   4.106   5.654   0.862 -0.2457 -0.0153 -1.0957
 2296TIP3   OH228522   4.169   2.365   0.700 -0.0593 -0.1891  0.4831
 2296TIP3    H128523   4.216   2.429   0.754 -1.5555  2.3148 -0.9971
 2296TIP3    H228524   4.224   2.353   0.623 -0.4375  0.4469  0.1080
 2297TIP3   OH228525   0.895   0.837   0.330 -0.4698  0.0465  0.1204
 2297TIP3    H128526   0.971   0.892   0.313 -1.6196  1.7239  0.2249
 2297TIP3    H228527   0.930   0.747   0.330  1.5836  0.8020  0.7776
 2298TIP3   OH228528   0.809   6.363   0.360 -0.0880 -0.2559  0.2443
 2298TIP3    H128529   0.890   6.341   0.314 -0.5754 -1.4600 -0.0677
 2298TIP3    H228530   0.836   6.385   0.449  0.8584  1.9083 -0.4868
 2299TIP3   OH228531   6.511   3.384   1.506 -0.6428 -0.5306 -0.3033
 2299TIP3    H128532   6.524   3.372   1.601  1.6980 -0.0219 -0.5031
 2299TIP3    H228533   6.518   3.296   1.470 -1.3768 -0.7068 -0.0292
 2300TIP3   OH228534   4.938   1.259   1.875  0.1500 -0.3750  0.3860
 2300TIP3    H128535   4.917   1.191   1.940  0.3771 -0.8252 -0.0018
 2300TIP3    H228536   4.972   1.332   1.927 -0.9120 -0.2161  0.8921
 2301TIP3   OH228537   0.358   4.661   1.302  0.0663 -0.0756 -0.4963
 2301TIP3    H128538   0.380   4.607   1.378 -2.3242  0.6321  0.8199
 2301TIP3    H228539   0.407   4.743   1.315 -1.2216  0.5101  1.0028
 2302TIP3   OH228540   1.282   3.747   8.651 -0.6245 -0.9066  0.5035
 2302TIP3    H128541   1.256   3.666   8.696  0.7049 -1.0843  0.9930
 2302TIP3    H228542   1.376   3.737   8.636 -0.6432  0.1005 -0.3917
 2303TIP3   OH228543   2.447   2.879   3.373  0.7488  0.1153  0.2106
 2303TIP3    H128544   2.365   2.929   3.371  0.0167 -1.0388 -1.6897
 2303TIP3    H228545   2.486   2.895   3.287  1.5615 -0.8841  0.3828
 2304TIP3   OH228546   0.751   2.812   1.705 -0.2983  0.7053 -0.4979
 2304TIP3    H128547   0.811   2.741   1.682  0.9993  1.1555  1.2844
 2304TIP3    H228548   0.731   2.854   1.621  1.0712 -0.1027 -1.2755
 2305TIP3   OH228549   3.690   4.114   8.645 -0.6370  0.0755  0.7173
 2305TIP3    H128550   3.785   4.104   8.654 -0.6232 -0.5733 -0.0877
 2305TIP3    H228551   3.658   4.027   8.622 -1.0435  0.8848 -2.1663
 2306TIP3   OH228552   1.260   5.948   2.683 -0.0538 -0.2999  0.0784
 2306TIP3    H128553   1.350   5.976   2.666 -0.1029  1.8097  2.5997
 2306TIP3    H228554   1.206   6.013   2.638 -0.2375  0.2557  1.0637
 2307TIP3   OH228555   4.414   0.501   1.660  0.5920  0.2797 -0.6146
 2307TIP3    H128556   4.423   0.574   1.722  0.8630 -0.2594 -0.0021
 2307TIP3    H228557   4.434   0.539   1.575  0.4480  0.9846 -0.3400
 2308TIP3   OH228558   2.159   1.518   2.607  0.1579 -0.2460  0.0484
 2308TIP3    H128559   2.151   1.594   2.549  2.7759 -1.5222 -2.2328
 2308TIP3    H228560   2.242   1.531   2.653  0.6866 -1.6600 -0.4284
 2309TIP3   OH228561   6.019   4.496   0.816  0.1974  0.0903  0.0284
 2309TIP3    H128562   6.048   4.408   0.793  0.5145  0.1708  0.1141
 2309TIP3    H228563   6.082   4.525   0.882  1.1794  1.0815 -1.2890
 2310TIP3   OH228564   5.472   1.961   8.307  0.6676 -0.5836 -0.3809
 2310TIP3    H128565   5.396   1.915   8.274  0.6821  0.1874 -1.5568
 2310TIP3    H228566   5.539   1.950   8.239  1.3572 -0.5935  0.2742
 2311TIP3   OH228567   4.354   3.955   2.268 -0.1364  0.5724  0.0221
 2311TIP3    H128568   4.343   3.996   2.354  0.5012  1.1262 -0.1487
 2311TIP3    H228569   4.290   4.000   2.212 -0.6515  0.1123  0.2317
 2312TIP3   OH228570   6.005   6.638   3.385  0.6307  0.2272 -0.0656
 2312TIP3    H128571   5.928   6.627   3.440  1.2367 -2.7012  0.3315
 2312TIP3    H228572   6.070   6.679   3.443 -0.0514  1.1307  0.0842
 2313TIP3   OH228573   2.464   4.819   0.334  0.1972  0.3483 -0.1318
 2313TIP3    H128574   2.442   4.758   0.263  0.1221  0.7113 -0.4223
 2313TIP3    H228575   2.380   4.841   0.374  0.2225  0.2819 -0.0408
 2314TIP3   OH228576   4.358   3.954   3.605 -0.1570 -0.2034  0.1792
 2314TIP3    H128577   4.303   3.920   3.535  0.8254  1.0612 -1.2916
 2314TIP3    H228578   4.440   3.978   3.562  0.3106  1.0979  1.6639
 2315TIP3   OH228579   2.841   2.411   0.266  0.1941  0.1192 -0.6596
 2315TIP3    H128580   2.925   2.432   0.225  0.3434 -1.4417 -1.2056
 2315TIP3    H228581   2.850   2.320   0.295 -1.3119 -0.0698 -0.7207
 2316TIP3   OH228582   5.632   2.981   0.212  0.3234 -0.2132 -0.2961
 2316TIP3    H128583   5.663   2.932   0.135  0.3717 -0.4159 -0.1475
 2316TIP3    H228584   5.591   2.915   0.267 -1.7802  0.2624 -1.1812
 2317TIP3   OH228585   3.398   1.724   1.422 -0.1991 -0.2470  0.3486
 2317TIP3    H128586   3.494   1.733   1.425 -0.0489 -1.7341  1.4086
 2317TIP3    H228587   3.367   1.771   1.499 -0.4631  1.2069 -0.5980
 2318TIP3   OH228588   4.379   5.946   2.927  0.7819 -0.4151 -0.9712
 2318TIP3    H128589   4.332   5.921   3.007 -1.0573  2.7028 -0.9225
 2318TIP3    H228590   4.356   5.878   2.864  0.1052 -1.5159  0.4007
 2319TIP3   OH228591   1.626   2.258   0.508 -0.6367  0.2015  0.4575
 2319TIP3    H128592   1.654   2.272   0.418  0.9348 -0.4896  0.8023
 2319TIP3    H228593   1.601   2.166   0.512  1.1720 -0.3079  1.1457
 2320TIP3   OH228594   4.515   5.180   1.079 -0.0563 -0.5690  0.5847
 2320TIP3    H128595   4.483   5.153   1.165  1.5945  0.9665  1.7440
 2320TIP3    H228596   4.489   5.272   1.071  0.0282 -0.6171 -0.4783
 2321TIP3   OH228597   5.317   2.958   0.104  0.2358 -0.1034  0.4684
 2321TIP3    H128598   5.362   2.945   0.020 -1.0306  1.3804 -0.4922
 2321TIP3    H228599   5.285   2.871   0.128 -0.1483 -0.4197 -1.0658
 2322TIP3   OH228600   1.850   2.127   2.271  0.5273  0.6154  0.1558
 2322TIP3    H128601   1.873   2.100   2.182  1.6878 -0.6339  0.8008
 2322TIP3    H228602   1.754   2.118   2.274  0.5943 -0.7051 -0.5673
 2323TIP3   OH228603   2.609   2.801   2.506  0.2327 -0.0007 -0.6113
 2323TIP3    H128604   2.685   2.774   2.456  0.0548 -1.6575 -0.0233
 2323TIP3    H228605   2.643   2.824   2.593  0.1645  0.0582 -0.5996
 2324TIP3   OH228606   0.310   6.025   1.533 -0.1689  0.3439  0.3810
 2324TIP3    H128607   0.280   6.109   1.498 -1.6636 -1.0524 -2.0364
 2324TIP3    H228608   0.282   6.026   1.624 -0.8706  2.1367  0.2022
 2325TIP3   OH228609   3.352   1.799   3.044 -0.0006  0.1296 -0.1983
 2325TIP3    H128610   3.358   1.894   3.038  3.0751  0.0750  0.4474
 2325TIP3    H228611   3.383   1.778   3.132  0.6684 -1.5182 -0.7796
 2326TIP3   OH228612   5.807   4.620   2.768 -0.0045 -0.1297  0.0306
 2326TIP3    H128613   5.792   4.658   2.682  2.1611  0.5730 -0.0949
 2326TIP3    H228614   5.767   4.533   2.764 -1.6272  0.6132 -0.9877
 2327TIP3   OH228615   2.421   1.560   1.543  0.4048 -0.1602  0.2324
 2327TIP3    H128616   2.336   1.604   1.538  0.1354 -0.7958 -1.3421
 2327TIP3    H228617   2.479   1.615   1.490  1.3046  0.8726  2.1757
 2328TIP3   OH228618   0.670   2.626   0.728  0.3423  0.2229  0.0410
 2328TIP3    H128619   0.605   2.658   0.791 -1.9263 -2.2871 -0.8154
 2328TIP3    H228620   0.638   2.655   0.643  2.2700  1.8108 -0.2214
 2329TIP3   OH228621   4.961   1.806   2.103  0.4070 -0.4753 -0.1791
 2329TIP3    H128622   4.993   1.853   2.180  0.1092 -2.7222  1.4283
 2329TIP3    H228623   4.979   1.714   2.122  1.6510 -1.0438 -3.4880
 2330TIP3   OH228624   3.097   5.429   1.556 -0.5403  0.4125  0.1077
 2330TIP3    H128625   3.031   5.495   1.578  0.0180  1.0651 -0.1493
 2330TIP3    H228626   3.046   5.350   1.537 -1.3270  1.1801 -1.0979
 2331TIP3   OH228627   1.679   2.188   1.017 -0.2180 -0.2038  0.1308
 2331TIP3    H128628   1.744   2.241   0.970 -0.1392 -1.4768 -1.2586
 2331TIP3    H228629   1.728   2.111   1.046 -0.1539  0.7134  2.7591
 2332TIP3   OH228630   1.005   5.936   1.670 -0.1364  0.2048 -0.5156
 2332TIP3    H128631   1.034   6.018   1.710  1.5762  0.1240 -1.5051
 2332TIP3    H228632   0.982   5.880   1.744  0.8650  0.7923  0.2655
 2333TIP3   OH228633   4.066   6.043   3.084 -0.2876 -0.1212  0.3178
 2333TIP3    H128634   4.112   6.088   3.155 -0.8243  1.8841 -0.5231
 2333TIP3    H228635   4.079   6.100   3.008 -0.4753 -1.7546 -0.9940
 2334TIP3   OH228636   0.739   2.566   0.298 -0.3869 -0.5091 -0.4427
 2334TIP3    H128637   0.779   2.635   0.246  0.1935  0.2408  0.9407
 2334TIP3    H228638   0.812   2.514   0.331 -0.5460  0.2960  1.3138
 2335TIP3   OH228639   2.041   1.156   2.974 -0.3183 -0.4423 -0.5191
 2335TIP3    H128640   2.115   1.204   2.937  0.8485 -0.9145  1.0796
 2335TIP3    H228641   1.983   1.224   3.008 -0.5011 -0.0740 -1.5424
 2336TIP3   OH228642   1.118   2.843   1.688  0.3545 -0.0575  0.3588
 2336TIP3    H128643   1.117   2.824   1.782 -0.4372  0.0464  0.3775
 2336TIP3    H228644   1.136   2.937   1.683 -3.1778  0.7746  0.5975
 2337TIP3   OH228645   1.400   0.305   3.778  0.8510 -0.2567  0.1916
 2337TIP3    H128646   1.319   0.345   3.809  1.4157  0.8946  0.2263
 2337TIP3    H228647   1.383   0.211   3.784 -1.7681 -0.1851 -3.0739
 2338TIP3   OH228648   1.128   0.091   3.922  0.1389  0.2525  0.0313
 2338TIP3    H128649   1.105   0.135   3.840 -1.9473 -0.4253  0.2109
 2338TIP3    H228650   1.145   0.001   3.896  2.1197  0.5840  0.0074
 2339TIP3   OH228651   3.631   5.925   8.691  0.2993 -0.2818  0.0748
 2339TIP3    H128652   3.612   5.837   8.659  1.2436 -0.5218  0.1288
 2339TIP3    H228653   3.566   5.940   8.760 -0.0239 -0.8393 -0.1034
 2340TIP3   OH228654   6.171   4.218   1.594  0.0790  0.0114 -0.1621
 2340TIP3    H128655   6.166   4.311   1.572 -0.4266 -0.0295 -0.2293
 2340TIP3    H228656   6.191   4.175   1.511 -1.9956 -0.1587 -0.6111
 2341TIP3   OH228657   5.886   4.672   3.343 -0.2747 -0.5038  0.3950
 2341TIP3    H128658   5.879   4.661   3.438 -1.7977 -0.3081  0.3350
 2341TIP3    H228659   5.842   4.755   3.326  0.1115 -0.4690 -0.4718
 2342TIP3   OH228660   1.935   3.194   1.171 -0.3609  0.1525  0.3289
 2342TIP3    H128661   2.008   3.252   1.150 -1.1732  0.8836 -0.5650
 2342TIP3    H228662   1.858   3.239   1.137 -1.0083 -1.5111 -0.5388
 2343TIP3   OH228663   0.193   4.281   8.695  0.6141 -0.2590  0.3928
 2343TIP3    H128664   0.250   4.230   8.638 -0.0055 -0.4481 -0.0718
 2343TIP3    H228665   0.204   4.371   8.665  0.7961 -0.2721  0.4190
 2344TIP3   OH228666   1.804   1.363   2.134 -1.1580  0.4052  0.0445
 2344TIP3    H128667   1.753   1.411   2.200 -1.3590  0.8133 -0.4062
 2344TIP3    H228668   1.786   1.271   2.153  1.4534  0.2910  2.7538
 2345TIP3   OH228669   5.323   3.206   4.159  0.6414 -0.3821  0.3500
 2345TIP3    H128670   5.319   3.294   4.197 -0.7863 -0.2314 -0.0802
 2345TIP3    H228671   5.232   3.176   4.158  0.9801 -1.4491 -0.4680
 2346TIP3   OH228672   0.215   5.412   3.513  0.3510  0.0528 -0.0483
 2346TIP3    H128673   0.283   5.480   3.518 -0.4882  0.8925  0.3642
 2346TIP3    H228674   0.135   5.457   3.542 -0.0920 -1.3109  0.9257
 2347TIP3   OH228675   2.798   1.836   2.696  0.6912 -0.4824  0.4988
 2347TIP3    H128676   2.704   1.830   2.713  0.4151  1.1911 -0.2705
 2347TIP3    H228677   2.834   1.872   2.777  0.3181  1.1373 -0.0362
 2348TIP3   OH228678   2.422   6.250   1.417 -0.5485  0.2344  0.5202
 2348TIP3    H128679   2.465   6.333   1.437 -1.3194  0.7565  0.0641
 2348TIP3    H228680   2.379   6.265   1.333 -2.7004  0.2070  1.5254
 2349TIP3   OH228681   2.630   6.143   1.107 -0.2514  0.2872  0.0702
 2349TIP3    H128682   2.667   6.177   1.188 -0.4799 -0.2134  0.3893
 2349TIP3    H228683   2.606   6.052   1.127  0.4094 -0.0962 -0.7787
 2350TIP3   OH228684   0.401   6.070   0.586 -0.2158  0.0715 -0.0178
 2350TIP3    H128685   0.475   6.122   0.618  0.5706 -1.0249  0.0074
 2350TIP3    H228686   0.350   6.051   0.665  0.2818 -0.4065  0.1936
 2351TIP3   OH228687   5.998   5.195   1.542  0.4368 -0.5340 -0.0326
 2351TIP3    H128688   6.066   5.131   1.524  0.5990 -0.7433  1.1967
 2351TIP3    H228689   5.919   5.160   1.500  0.5595 -1.4858  0.5047
 2352TIP3   OH228690   4.292   0.016   1.891 -0.2303  0.1469 -0.1874
 2352TIP3    H128691   4.317   0.095   1.842  0.4277  0.3924  0.5278
 2352TIP3    H228692   4.367  -0.042   1.884 -0.4518 -0.1482 -0.1408
 2353TIP3   OH228693   3.238   0.068   3.258  0.3276  0.3707  0.0503
 2353TIP3    H128694   3.156   0.098   3.218  0.3051  1.3226  0.7775
 2353TIP3    H228695   3.299   0.062   3.185  0.0049  1.0650 -0.2924
 2354TIP3   OH228696   3.838   5.849   3.103 -0.2138 -0.2326 -0.2981
 2354TIP3    H128697   3.914   5.903   3.084  0.0573 -1.1690 -2.0655
 2354TIP3    H228698   3.861   5.801   3.182  0.6963  0.1178 -0.3439
 2355TIP3   OH228699   3.987   6.676   2.005  0.0714  0.4664 -0.2604
 2355TIP3    H128700   3.959   6.754   1.957  0.3288  1.8931  1.7453
 2355TIP3    H228701   3.906   6.636   2.036 -0.0091  1.4703  0.9022
 2356TIP3   OH228702   4.314   5.831   2.439  0.0473  0.2473  0.4322
 2356TIP3    H128703   4.354   5.918   2.438 -0.7504  0.6271  0.6808
 2356TIP3    H228704   4.361   5.782   2.371  3.2112 -0.4181  2.8914
 2357TIP3   OH228705   4.925   2.566   3.853 -0.0397  0.5031  0.4558
 2357TIP3    H128706   4.934   2.662   3.846 -1.5363  0.7370  1.3148
 2357TIP3    H228707   4.930   2.549   3.947 -1.3171 -0.0635  0.4408
 2358TIP3   OH228708   4.668   0.103   1.173  0.5608  0.8914  0.3426
 2358TIP3    H128709   4.652   0.138   1.260 -1.3312  0.7978  0.0764
 2358TIP3    H228710   4.760   0.122   1.156  0.5571  2.3729  1.7037
 2359TIP3   OH228711   0.315   0.904   1.888  0.7590  0.3930  0.0732
 2359TIP3    H128712   0.299   0.823   1.841 -0.8144  1.1008 -0.6946
 2359TIP3    H228713   0.330   0.877   1.979 -0.3498 -0.7213 -0.0554
 2360TIP3   OH228714   4.203   1.581   2.084  0.1398 -0.9048  0.1088
 2360TIP3    H128715   4.235   1.513   2.025 -0.7057 -0.9075 -0.3564
 2360TIP3    H228716   4.130   1.540   2.131 -1.1581  0.0133 -1.0223
 2361TIP3   OH228717   4.105   2.509   2.751 -0.1789  0.1536  0.4818
 2361TIP3    H128718   4.069   2.571   2.815  0.0708  1.2978 -0.4561
 2361TIP3    H228719   4.180   2.471   2.796 -2.2086 -1.9985  2.3394
 2362TIP3   OH228720   5.652   0.917   1.428 -0.6318 -0.1320 -0.0301
 2362TIP3    H128721   5.720   0.852   1.446 -0.9603  0.1106  2.5869
 2362TIP3    H228722   5.629   0.904   1.337  2.5076 -0.6006 -0.8824
 2363TIP3   OH228723   4.455   0.541   0.581 -0.6726  0.1910  0.2251
 2363TIP3    H128724   4.439   0.561   0.673 -4.3443  2.5192 -0.7028
 2363TIP3    H228725   4.446   0.625   0.536 -0.7975 -1.1437 -2.4514
 2364TIP3   OH228726   5.523   5.145   2.082 -0.1231 -0.2259 -0.4007
 2364TIP3    H128727   5.607   5.099   2.086 -1.1088 -2.0278  0.5557
 2364TIP3    H228728   5.527   5.195   2.000  2.3703  0.7975  0.2367
 2365TIP3   OH228729   6.509   5.762   4.143 -0.4939 -0.6758 -0.2153
 2365TIP3    H128730   6.541   5.790   4.057 -0.7826 -0.9333 -0.4079
 2365TIP3    H228731   6.532   5.669   4.148 -1.1554 -0.8476 -0.3311
 2366TIP3   OH228732   2.710   5.648   1.299 -0.1090  0.1666  0.0127
 2366TIP3    H128733   2.651   5.722   1.310 -0.2617  0.5335 -2.6321
 2366TIP3    H228734   2.653   5.576   1.269  0.4438 -0.1704 -0.2406
 2367TIP3   OH228735   5.701   3.561   2.548 -0.0734  0.6052 -0.2094
 2367TIP3    H128736   5.742   3.636   2.506  1.5192 -0.0118  0.1537
 2367TIP3    H228737   5.636   3.531   2.485  0.0675  1.5945 -0.8503
 2368TIP3   OH228738   1.191   1.003   1.753 -0.4834  0.1266  0.5478
 2368TIP3    H128739   1.152   0.920   1.726 -0.7373  0.5638 -0.5094
 2368TIP3    H228740   1.201   0.996   1.847 -0.3281 -1.1782  0.4498
 2369TIP3   OH228741   0.771   6.661   1.757  0.5125  0.1330  0.1110
 2369TIP3    H128742   0.809   6.742   1.724  0.1100 -0.1562 -1.1265
 2369TIP3    H228743   0.706   6.689   1.821  1.2801  0.7191  0.6535
 2370TIP3   OH228744   0.718   5.633   3.612  0.2215  0.1765  0.3476
 2370TIP3    H128745   0.687   5.577   3.684 -0.2384 -0.5894 -0.4236
 2370TIP3    H228746   0.674   5.717   3.625 -0.2163 -0.1041  0.7042
 2371TIP3   OH228747   0.493   4.377   3.505  0.1113  0.3679 -0.2999
 2371TIP3    H128748   0.505   4.321   3.582  0.0051 -1.9875 -1.8948
 2371TIP3    H228749   0.414   4.426   3.524 -0.3300 -0.7071  0.8075
 2372TIP3   OH228750   5.189   3.004   0.921 -0.2009 -0.1759  0.4580
 2372TIP3    H128751   5.235   2.920   0.915 -0.9089 -0.6123  1.0139
 2372TIP3    H228752   5.154   3.006   1.010 -0.0522  0.7891  0.5058
 2373TIP3   OH228753   1.869   4.788   1.844 -0.3673  0.1155  0.1630
 2373TIP3    H128754   1.931   4.802   1.916  0.0080  0.3794 -0.2080
 2373TIP3    H228755   1.828   4.874   1.831 -0.6131  0.0079  0.2247
 2374TIP3   OH228756   3.448   1.537   0.360 -0.0526  0.2124 -0.0223
 2374TIP3    H128757   3.424   1.500   0.444  0.4334 -2.2226 -0.8899
 2374TIP3    H228758   3.540   1.562   0.370 -0.4583  1.5651  0.6466
 2375TIP3   OH228759   1.327   1.688   8.765  0.0984 -0.0777 -0.1936
 2375TIP3    H128760   1.237   1.668   8.740  0.2165  0.6672 -1.2518
 2375TIP3    H228761   1.345   1.774   8.727  1.6363 -0.7205 -1.0309
 2376TIP3   OH228762   4.649   1.665   0.557  0.2339  0.1675 -0.4973
 2376TIP3    H128763   4.570   1.616   0.533  2.0158 -3.2072 -0.1184
 2376TIP3    H228764   4.716   1.632   0.497  1.7488  1.6953  0.2791
 2377TIP3   OH228765   3.503   6.265   1.938  0.1326  0.6624 -0.3210
 2377TIP3    H128766   3.512   6.357   1.914 -4.2717  1.7858  1.2652
 2377TIP3    H228767   3.546   6.258   2.024  0.2627  1.3157 -0.3278
 2378TIP3   OH228768   3.299   6.745   3.995 -0.3975  0.0643  0.1176
 2378TIP3    H128769   3.375   6.726   4.049  1.4430 -0.9937 -2.6289
 2378TIP3    H228770   3.224   6.720   4.049  1.2027  0.2489  2.5765
 2379TIP3   OH228771   5.620   0.872   0.239  0.0915  0.0229 -0.3297
 2379TIP3    H128772   5.660   0.897   0.323 -0.3551  0.0449 -0.1207
 2379TIP3    H228773   5.681   0.904   0.173 -1.1853  3.1552 -0.1497
 2380TIP3   OH228774   0.420   4.275   1.232 -0.0120  0.4854 -0.3420
 2380TIP3    H128775   0.379   4.288   1.146 -1.3454 -0.0748  0.1768
 2380TIP3    H228776   0.502   4.230   1.213 -1.2782 -1.6267 -1.2219
 2381TIP3   OH228777   1.461   5.823   2.254 -0.5058  0.1755 -0.5173
 2381TIP3    H128778   1.405   5.782   2.188  1.0052 -0.0256 -1.7518
 2381TIP3    H228779   1.400   5.861   2.317 -2.0004 -2.1440 -0.4407
 2382TIP3   OH228780   3.164   0.747   3.355 -0.0003 -0.4694  0.0028
 2382TIP3    H128781   3.153   0.701   3.272  0.5458 -0.5015 -0.0546
 2382TIP3    H228782   3.158   0.679   3.422  2.0803 -0.8586 -0.1408
 2383TIP3   OH228783   6.493   5.747   3.654  0.3952  0.6704  0.0349
 2383TIP3    H128784   6.403   5.718   3.670 -0.2130  1.1083 -2.2408
 2383TIP3    H228785   6.532   5.676   3.603  0.6103  1.4579 -0.9169
 2384TIP3   OH228786   5.078   1.024   8.298 -0.0043  0.5495  0.3043
 2384TIP3    H128787   5.079   0.961   8.370 -1.7127  1.2145  0.9386
 2384TIP3    H228788   4.989   1.020   8.263 -0.0286  2.3075  0.0905
 2385TIP3   OH228789   4.519   2.484   0.392 -0.0749 -0.2206  0.1547
 2385TIP3    H128790   4.542   2.540   0.318 -1.9922  0.4491  0.0073
 2385TIP3    H228791   4.567   2.520   0.466  1.9599 -0.9645 -0.7342
 2386TIP3   OH228792   1.240   0.611   0.484  0.5084  0.1644  0.1473
 2386TIP3    H128793   1.230   0.694   0.438 -0.9240  0.7020  1.3293
 2386TIP3    H228794   1.293   0.633   0.561  1.3917 -0.3454 -0.3084
 2387TIP3   OH228795   3.096   5.619   2.613 -0.6400  0.1598  0.6797
 2387TIP3    H128796   3.187   5.612   2.585 -0.5281 -0.5561  1.1886
 2387TIP3    H228797   3.099   5.671   2.694 -0.2562 -2.4575  2.4948
 2388TIP3   OH228798   4.066   2.214   3.710 -0.4363  0.5862 -0.0009
 2388TIP3    H128799   4.034   2.143   3.766  1.2060  0.5071  0.9053
 2388TIP3    H228800   4.100   2.170   3.632 -0.5689  0.4811  0.0005
 2389TIP3   OH228801   6.797   0.247   0.911 -0.2254  0.4970  0.0329
 2389TIP3    H128802   6.781   0.241   0.817  0.0474 -0.3927  0.0323
 2389TIP3    H228803   6.711   0.267   0.949 -0.8349 -1.3907 -0.2169
 2390TIP3   OH228804   5.327   5.308   1.275 -0.2527 -0.0743 -0.3582
 2390TIP3    H128805   5.319   5.403   1.283 -0.6176 -0.0589 -0.8904
 2390TIP3    H228806   5.237   5.277   1.268 -0.3133 -0.6773  2.0294
 2391TIP3   OH228807   2.121   6.362   0.217 -0.1504 -0.0385  0.6020
 2391TIP3    H128808   2.151   6.271   0.222  0.4969  0.1932  1.0105
 2391TIP3    H228809   2.119   6.381   0.124 -0.0122 -0.3822  0.5251
 2392TIP3   OH228810   1.347   1.499   2.573  0.7306  0.0714 -0.1023
 2392TIP3    H128811   1.374   1.426   2.628  0.9640 -0.3278 -0.7364
 2392TIP3    H228812   1.415   1.506   2.506  1.3761  1.6645  0.6468
 2393TIP3   OH228813   5.905   1.525   1.840 -0.1033  0.0661 -0.8940
 2393TIP3    H128814   5.923   1.507   1.748  0.4504  1.2457 -1.0337
 2393TIP3    H228815   5.811   1.543   1.843 -0.2955 -0.8424 -1.0648
 2394TIP3   OH228816   0.643   4.244   4.143 -0.1985  0.2594 -0.2624
 2394TIP3    H128817   0.622   4.220   4.233 -0.2233  0.7064 -0.1447
 2394TIP3    H228818   0.665   4.161   4.100  2.5999  0.3065  0.8757
 2395TIP3   OH228819   4.187   6.624   0.728 -0.2529 -0.3137  0.0765
 2395TIP3    H128820   4.247   6.675   0.783  2.8645 -3.1063 -0.3724
 2395TIP3    H228821   4.137   6.689   0.680  1.8036  2.2728  1.1821
 2396TIP3   OH228822   4.076   1.814   3.551  0.4993 -0.5996 -0.4489
 2396TIP3    H128823   4.113   1.849   3.632  0.3311 -0.6419 -0.3535
 2396TIP3    H228824   4.146   1.758   3.516  0.6516 -0.4129 -0.4437
 2397TIP3   OH228825   0.582   0.299   1.043 -0.6120  0.0223 -0.0258
 2397TIP3    H128826   0.594   0.214   1.086  0.8006  0.2496  0.0537
 2397TIP3    H228827   0.665   0.317   1.000 -1.1833  0.9740 -0.7744
 2398TIP3   OH228828   0.516   4.224   0.782 -0.9748 -0.0332 -0.1805
 2398TIP3    H128829   0.594   4.262   0.822 -2.2000  0.7213  1.6243
 2398TIP3    H228830   0.536   4.131   0.772  1.0684  0.5484 -2.1576
 2399TIP3   OH228831   2.531   1.319   1.460  0.1173 -0.1209 -0.1040
 2399TIP3    H128832   2.491   1.397   1.498  0.7764 -0.2882  0.9844
 2399TIP3    H228833   2.590   1.352   1.393  1.5117  0.4603  1.3482
 2400TIP3   OH228834   6.403   5.870   0.407 -0.1547  0.2008  0.7573
 2400TIP3    H128835   6.356   5.878   0.324 -1.1357 -2.2207  1.0015
 2400TIP3    H228836   6.490   5.906   0.388 -0.9485  1.4936 -0.7337
 2401TIP3   OH228837   5.044   2.337   2.588  0.5094 -0.3195 -0.2095
 2401TIP3    H128838   5.081   2.302   2.506  2.2749  1.4893 -0.2676
 2401TIP3    H228839   5.099   2.299   2.657  2.0988  1.7563 -0.2385
 2402TIP3   OH228840   1.772   3.361   2.085  0.4312  0.5356 -0.0371
 2402TIP3    H128841   1.859   3.321   2.081  0.1284 -0.3899  1.6197
 2402TIP3    H228842   1.772   3.428   2.016  1.9805 -0.3495 -0.9264
 2403TIP3   OH228843   5.239   2.902   1.949  0.0369 -0.3431  0.3988
 2403TIP3    H128844   5.254   2.890   1.855  2.9887 -0.1547  0.7388
 2403TIP3    H228845   5.229   2.997   1.960  0.4676 -0.2862  0.3355
 2404TIP3   OH228846   0.480   4.897   2.662 -0.6251  0.1547  0.3922
 2404TIP3    H128847   0.482   4.991   2.680  0.9572  0.3867 -0.8327
 2404TIP3    H228848   0.562   4.863   2.698 -2.0984 -1.1954  2.7376
 2405TIP3   OH228849   4.362   0.364   0.835  0.3637  0.2515 -0.0635
 2405TIP3    H128850   4.368   0.310   0.914  1.2885  0.5605  0.0822
 2405TIP3    H228851   4.414   0.318   0.770 -0.4784 -0.0566 -0.5448
 2406TIP3   OH228852   5.506   0.365   1.531 -0.1358 -0.6714  0.7388
 2406TIP3    H128853   5.413   0.368   1.509 -0.1994 -0.9798  0.9659
 2406TIP3    H228854   5.550   0.369   1.446 -0.3962 -4.3356  0.2650
 2407TIP3   OH228855   0.143   3.692   8.540 -0.0013 -0.0222 -0.5812
 2407TIP3    H128856   0.157   3.658   8.629 -1.2311  0.8175 -0.0396
 2407TIP3    H228857   0.172   3.783   8.545  1.4085 -0.3868 -1.4937
 2408TIP3   OH228858   3.575   4.941   2.053  0.1547  0.1499  0.2736
 2408TIP3    H128859   3.543   5.024   2.017 -0.3963  0.1827  0.8366
 2408TIP3    H228860   3.501   4.905   2.101 -0.8734 -2.3848 -2.7825
 2409TIP3   OH228861   0.255   6.321   0.845 -0.1549  0.0959 -0.1521
 2409TIP3    H128862   0.282   6.230   0.857 -1.7747 -0.3640  0.1918
 2409TIP3    H228863   0.275   6.340   0.753  1.8322  0.0003  0.2109
 2410TIP3   OH228864   2.380   3.850   2.410  0.3821  0.1484 -0.4415
 2410TIP3    H128865   2.453   3.906   2.437  0.3098  0.8481 -1.6387
 2410TIP3    H228866   2.415   3.761   2.418  0.7407  0.3816  0.7781
 2411TIP3   OH228867   4.577   4.663   0.467  0.4155 -0.3529  0.2151
 2411TIP3    H128868   4.539   4.592   0.518  0.1458  0.2667  0.9086
 2411TIP3    H228869   4.660   4.628   0.435 -0.2967 -1.4057 -0.5496
 2412TIP3   OH228870   1.560   2.702   3.446 -0.0862  0.4324  0.0391
 2412TIP3    H128871   1.621   2.726   3.376  1.6854 -2.3677  0.4705
 2412TIP3    H228872   1.484   2.666   3.400  1.0090 -1.2604 -0.5457
 2413TIP3   OH228873   4.327   1.488   1.282  0.5423 -0.1088  0.1265
 2413TIP3    H128874   4.364   1.461   1.198 -2.2094 -1.3312 -0.8116
 2413TIP3    H228875   4.398   1.536   1.325  1.8771  1.1665 -3.1560
 2414TIP3   OH228876   5.525   1.370   0.127 -0.4801 -0.5950  0.7067
 2414TIP3    H128877   5.620   1.377   0.134 -0.3747 -1.4871  0.3199
 2414TIP3    H228878   5.498   1.331   0.210 -0.2219 -2.6408 -0.1223
 2415TIP3   OH228879   1.721   4.843   0.107  0.3321 -0.1871  0.2323
 2415TIP3    H128880   1.761   4.756   0.116  0.5345 -0.1019  0.1724
 2415TIP3    H228881   1.771   4.884   0.036  1.6745  0.7828  1.6558
 2416TIP3   OH228882   5.186   0.185   4.170  0.0833  0.5345 -0.4905
 2416TIP3    H128883   5.148   0.271   4.151 -3.1955 -0.8369 -0.7861
 2416TIP3    H228884   5.196   0.144   4.084 -0.6735 -0.2332 -0.2255
 2417TIP3   OH228885   6.788   5.117   3.812  0.0908  0.4195  0.4015
 2417TIP3    H128886   6.725   5.185   3.836  1.0524  1.1116  1.0353
 2417TIP3    H228887   6.747   5.035   3.840 -1.4541  0.6117 -1.1202
 2418TIP3   OH228888   3.916   4.997   0.002  0.1958 -0.0484 -0.0588
 2418TIP3    H128889   3.842   5.036   0.048 -0.0255 -0.9899  0.4118
 2418TIP3    H228890   3.897   5.011  -0.091  1.5149  3.4681  0.0698
 2419TIP3   OH228891   4.698   0.587   8.317  0.5058  0.8002  0.0882
 2419TIP3    H128892   4.632   0.527   8.352  1.6510  0.6948  2.2378
 2419TIP3    H228893   4.728   0.545   8.236  0.1947 -0.7617  0.7451
 2420TIP3   OH228894   6.658   3.278   2.972 -0.4370  0.2095  0.6768
 2420TIP3    H128895   6.671   3.255   3.064  2.4159  2.5504  1.0207
 2420TIP3    H228896   6.597   3.352   2.975 -2.0058 -1.0188  0.4205
 2421TIP3   OH228897   5.965   1.040   0.259  0.2616  0.0907 -1.0840
 2421TIP3    H128898   6.004   0.953   0.266 -0.8455 -0.3630 -0.2653
 2421TIP3    H228899   6.039   1.097   0.239  1.1119 -0.9347 -1.0021
 2422TIP3   OH228900   2.901   5.869   1.936  0.7818 -0.0300 -0.2432
 2422TIP3    H128901   2.827   5.850   1.993  0.8892  0.7055  0.1586
 2422TIP3    H228902   2.862   5.906   1.857  0.7036  0.1112 -0.1384
 2423TIP3   OH228903   4.258   1.380   1.909  0.1407  0.0227  0.1387
 2423TIP3    H128904   4.208   1.372   1.828 -1.9984 -0.7422  1.4356
 2423TIP3    H228905   4.282   1.290   1.931 -1.2754 -0.0798  1.4552
 2424TIP3   OH228906   6.054   0.665   0.650  0.0575 -0.0553 -0.5044
 2424TIP3    H128907   6.064   0.590   0.709 -1.0262  1.4373  1.7101
 2424TIP3    H228908   6.128   0.722   0.671 -0.6008  0.7097 -0.2122
 2425TIP3   OH228909   3.601   6.738   2.721 -0.2034  0.5000 -0.6756
 2425TIP3    H128910   3.582   6.831   2.730  0.4135  0.4692  1.1625
 2425TIP3    H228911   3.603   6.704   2.810  0.2424 -1.1550 -1.2718
 2426TIP3   OH228912   1.716   4.710   4.025  0.0569  0.4041  0.1372
 2426TIP3    H128913   1.637   4.660   4.007  1.2401 -1.7082  0.4792
 2426TIP3    H228914   1.726   4.769   3.951 -2.4807  1.6393  0.6912
 2427TIP3   OH228915   1.080   3.711   0.555 -0.1694  0.7753  0.3937
 2427TIP3    H128916   1.011   3.739   0.495 -0.2755  0.4041  0.3379
 2427TIP3    H228917   1.144   3.668   0.498  0.3350  1.5289  0.3805
 2428TIP3   OH228918   6.061   6.039   2.983 -0.7395  0.0701 -0.1337
 2428TIP3    H128919   6.104   5.971   2.931 -2.2429 -1.6055  0.7235
 2428TIP3    H228920   6.092   6.023   3.072 -2.2286 -0.4535  0.3082
 2429TIP3   OH228921   5.688   4.682   2.537  0.5538  0.0183  0.6087
 2429TIP3    H128922   5.653   4.615   2.478  1.8986  0.6495 -0.9930
 2429TIP3    H228923   5.612   4.715   2.584 -0.1690 -2.4980  1.3435
 2430TIP3   OH228924   6.135   3.857   3.335 -0.3067 -0.0302 -0.1196
 2430TIP3    H128925   6.054   3.906   3.325 -0.5840 -0.1655  1.2636
 2430TIP3    H228926   6.191   3.887   3.263 -0.5762  2.0804  0.4963
 2431TIP3   OH228927   2.226   3.340   0.290  0.0102  0.3595 -0.1772
 2431TIP3    H128928   2.300   3.284   0.313 -0.1590 -0.8986 -2.3842
 2431TIP3    H228929   2.264   3.414   0.244 -0.1093 -1.0675 -2.7264
 2432TIP3   OH228930   0.286   6.358   1.782  0.3597  0.3129 -0.3339
 2432TIP3    H128931   0.344   6.365   1.858  1.3682  0.5176 -1.1010
 2432TIP3    H228932   0.225   6.431   1.792  1.5596  1.3855 -0.5992
 2433TIP3   OH228933   2.980   2.594   3.333 -0.5332  0.6575  0.0325
 2433TIP3    H128934   2.908   2.565   3.389  0.1754  0.2707  0.7739
 2433TIP3    H228935   3.029   2.656   3.387 -0.3395  0.9617 -0.4842
 2434TIP3   OH228936   0.598   3.795   0.474  0.3041  0.3927 -0.5784
 2434TIP3    H128937   0.527   3.783   0.410 -0.0129  0.0744 -0.1733
 2434TIP3    H228938   0.613   3.890   0.475  0.8753  0.3341 -1.7156
 2435TIP3   OH228939   1.370   0.997   1.389 -0.2807  0.5676  0.4767
 2435TIP3    H128940   1.364   1.073   1.446  0.8984 -0.4880  2.0845
 2435TIP3    H228941   1.325   0.927   1.437  0.2009 -0.1989 -0.1673
 2436TIP3   OH228942   2.841   4.688   1.192 -0.1724 -0.4323  0.6107
 2436TIP3    H128943   2.806   4.602   1.218  1.1947 -1.0183  0.5800
 2436TIP3    H228944   2.847   4.737   1.275 -0.3242 -0.5972  0.7209
 2437TIP3   OH228945   0.488   4.507   4.331 -0.0696  0.5790  0.0115
 2437TIP3    H128946   0.499   4.592   4.287 -0.5402  1.6559  1.8291
 2437TIP3    H228947   0.576   4.478   4.351  0.1725 -0.0616 -1.7720
 2438TIP3   OH228948   3.868   4.757   0.568  0.1605 -0.2121  0.3460
 2438TIP3    H128949   3.870   4.797   0.481 -1.9366  2.0394  1.2188
 2438TIP3    H228950   3.831   4.670   0.553  0.9904 -0.3464 -1.1405
 2439TIP3   OH228951   6.597   2.085   0.854  0.3132 -0.9009 -0.6252
 2439TIP3    H128952   6.665   2.131   0.805  0.2962 -0.4211 -0.2050
 2439TIP3    H228953   6.516   2.128   0.828  0.3369 -0.4411  0.0515
 2440TIP3   OH228954   5.536   1.186   3.198  0.3379 -0.3596  0.1568
 2440TIP3    H128955   5.501   1.099   3.213  1.6450 -0.8670  0.3474
 2440TIP3    H228956   5.583   1.208   3.278  1.6077 -0.2681 -0.5829
 2441TIP3   OH228957   4.385   1.184   0.614  0.6379  0.0531  0.4708
 2441TIP3    H128958   4.470   1.197   0.657  0.6339  0.0153  0.4905
 2441TIP3    H228959   4.380   1.089   0.600 -0.4993 -0.2852  2.7536
 2442TIP3   OH228960   4.923   5.187   0.757 -0.1822  0.1569  0.7037
 2442TIP3    H128961   4.964   5.182   0.843  0.4102 -0.5508  0.3895
 2442TIP3    H228962   4.899   5.097   0.736 -1.5561  0.4956  0.7049
 2443TIP3   OH228963   0.583   0.653   1.312 -0.4203 -0.6131  0.4143
 2443TIP3    H128964   0.640   0.714   1.266  0.3208 -0.1400  1.8885
 2443TIP3    H228965   0.621   0.567   1.294 -0.4732 -0.4937 -0.2925
 2444TIP3   OH228966   0.635   0.496   4.206 -0.0214 -0.2367  0.1742
 2444TIP3    H128967   0.699   0.432   4.177  2.6442  1.1023  2.6128
 2444TIP3    H228968   0.569   0.444   4.253  0.7782 -1.4117  0.0294
 2445TIP3   OH228969   0.588   3.457   2.712 -0.1560  0.2816  0.1182
 2445TIP3    H128970   0.651   3.422   2.650  0.1951  2.4242 -0.8433
 2445TIP3    H228971   0.639   3.477   2.790 -0.2216 -0.6137  0.3991
 2446TIP3   OH228972   4.922   0.839   0.700  0.2780 -0.0909 -0.4265
 2446TIP3    H128973   5.012   0.823   0.673  0.6735 -1.8779  1.6863
 2446TIP3    H228974   4.929   0.882   0.785 -0.8808  0.5321 -0.6162
 2447TIP3   OH228975   4.833   3.562   0.425  0.5086  0.6077 -0.3430
 2447TIP3    H128976   4.920   3.597   0.444 -0.5475  2.7908  0.8567
 2447TIP3    H228977   4.819   3.583   0.332  0.1012  3.1885  0.2129
 2448TIP3   OH228978   4.089   3.059   0.905  0.1236 -0.1484  0.2701
 2448TIP3    H128979   4.167   3.004   0.910  0.3357  0.1018 -0.2305
 2448TIP3    H228980   4.066   3.061   0.812 -2.3539 -2.8004  0.6640
 2449TIP3   OH228981   6.661   1.602   1.251 -0.0638 -0.0833  0.0337
 2449TIP3    H128982   6.740   1.549   1.261 -1.4924 -2.1043  1.2104
 2449TIP3    H228983   6.615   1.563   1.177  0.5711  1.9085 -1.5131
 2450TIP3   OH228984   0.886   2.630   3.381 -0.7250 -0.3951  0.0086
 2450TIP3    H128985   0.956   2.682   3.421  0.7157 -1.6908 -0.7067
 2450TIP3    H228986   0.858   2.571   3.451  1.0616 -1.9351 -0.4711
 2451TIP3   OH228987   5.117   3.529   3.459 -0.3988 -0.4150  0.3414
 2451TIP3    H128988   5.157   3.531   3.546  0.9179  1.6286 -0.2513
 2451TIP3    H228989   5.032   3.571   3.470 -0.7409 -1.2030  0.8307
 2452TIP3   OH228990   0.255   0.740   2.401  0.3757 -0.1734  0.1387
 2452TIP3    H128991   0.179   0.740   2.458 -0.3236 -1.1163 -0.7451
 2452TIP3    H228992   0.328   0.713   2.457  0.1839  1.2071  1.1033
 2453TIP3   OH228993   6.071   0.015   0.767 -0.0750 -1.1398 -0.1173
 2453TIP3    H128994   6.119   0.081   0.818  1.0117 -2.2574  0.3643
 2453TIP3    H228995   6.060  -0.058   0.828 -1.0047 -1.5259 -0.7353
 2454TIP3   OH228996   3.820   1.504   2.413  0.1142  0.0044 -0.3952
 2454TIP3    H128997   3.753   1.481   2.349  0.3932 -0.3052 -0.5810
 2454TIP3    H228998   3.806   1.443   2.486 -0.6946  0.8593  0.1909
 2455TIP3   OH228999   0.105   1.379   3.574 -0.5029 -0.2394 -0.1695
 2455TIP3    H129000   0.039   1.318   3.541  1.5741 -2.5949 -0.2648
 2455TIP3    H229001   0.092   1.379   3.668 -0.4378 -0.9683 -0.1531
 2456TIP3   OH229002   6.270   5.322   0.486 -0.9727  0.5244  0.7600
 2456TIP3    H129003   6.366   5.332   0.487 -0.9580  1.0271 -1.4416
 2456TIP3    H229004   6.238   5.397   0.537 -0.2374  1.3068  0.0986
 2457TIP3   OH229005   0.548   5.542   1.610 -0.1782 -0.2238 -0.4057
 2457TIP3    H129006   0.531   5.520   1.519 -0.8978  0.1431 -0.3610
 2457TIP3    H229007   0.609   5.616   1.606  1.0364 -1.1867 -0.5630
 2458TIP3   OH229008   6.008   3.751   3.980  0.3837 -0.5161  0.0040
 2458TIP3    H129009   5.933   3.694   4.000 -0.7889  0.8468 -0.3415
 2458TIP3    H229010   6.077   3.691   3.951  0.1696 -1.9986  2.3563
 2459TIP3   OH229011   1.248   5.006   2.459  0.0470  0.1327  0.0071
 2459TIP3    H129012   1.300   4.934   2.424  0.7198  1.0567 -0.9551
 2459TIP3    H229013   1.279   5.083   2.412 -0.6764  1.0544  0.9911
 2460TIP3   OH229014   1.453   4.154   1.529  0.4255  0.3403 -0.6153
 2460TIP3    H129015   1.419   4.241   1.549  0.2174  0.5403 -1.7443
 2460TIP3    H229016   1.490   4.122   1.611  1.9907  2.1483 -0.5513
 2461TIP3   OH229017   6.596   4.408   3.581 -0.0664 -0.0857 -0.8562
 2461TIP3    H129018   6.518   4.454   3.613  0.8668  1.3246 -0.4713
 2461TIP3    H229019   6.596   4.424   3.487  0.7260  1.5555 -0.6130
 2462TIP3   OH229020   2.846   2.254   2.466 -0.1417 -0.4436 -0.1307
 2462TIP3    H129021   2.846   2.298   2.381 -0.1580  2.0166  1.0601
 2462TIP3    H229022   2.937   2.256   2.494 -0.5500  1.9072  1.3402
 2463TIP3   OH229023   3.428   6.118   1.458  0.4538  0.0949  0.0045
 2463TIP3    H129024   3.473   6.193   1.498 -0.0840 -0.4704  1.7617
 2463TIP3    H229025   3.456   6.120   1.367  1.7673  1.4522  0.3850
 2464TIP3   OH229026   5.996   5.389   3.099  0.3839 -0.3651  0.0361
 2464TIP3    H129027   6.055   5.360   3.169  0.1255 -2.4324 -0.5425
 2464TIP3    H229028   6.052   5.395   3.022  0.3277  0.2629  0.0358
 2465TIP3   OH229029   1.904   6.390   3.751  0.0680 -0.2667 -0.1533
 2465TIP3    H129030   1.875   6.304   3.783  0.5425 -0.0374  0.9431
 2465TIP3    H229031   1.835   6.450   3.778 -0.8374 -0.4443 -1.9381
 2466TIP3   OH229032   3.103   2.350   0.990 -0.4551  0.7295 -0.6065
 2466TIP3    H129033   3.162   2.419   0.960 -2.1118  1.8509 -1.4654
 2466TIP3    H229034   3.108   2.282   0.922  1.5736 -0.3170  0.4971
 2467TIP3   OH229035   1.856   1.291   0.177 -0.7147  0.3562 -0.0709
 2467TIP3    H129036   1.843   1.197   0.191  0.9372 -0.0512 -1.0225
 2467TIP3    H229037   1.948   1.306   0.198  0.0679  1.0027 -3.3242
 2468TIP3   OH229038   2.545   0.399   3.909  0.0029 -0.6846 -0.1639
 2468TIP3    H129039   2.536   0.483   3.954 -0.2881 -1.0853  0.5443
 2468TIP3    H229040   2.455   0.371   3.892  0.1048  0.0944 -2.2466
 2469TIP3   OH229041   1.295   3.097   0.509  0.1599 -0.3632 -0.2237
 2469TIP3    H129042   1.234   3.024   0.503 -0.6249  0.2183  0.4150
 2469TIP3    H229043   1.382   3.057   0.507 -0.2453 -1.2257 -0.8499
 2470TIP3   OH229044   0.689   5.290   3.362 -0.2397  0.9749  0.2288
 2470TIP3    H129045   0.744   5.289   3.440  0.7044 -0.7971 -0.4017
 2470TIP3    H229046   0.751   5.297   3.289 -0.9989  1.1266 -0.4164
 2471TIP3   OH229047   4.413   6.078   2.397 -0.0132  0.2511 -0.1412
 2471TIP3    H129048   4.478   6.081   2.327 -1.0185  2.5566 -1.0722
 2471TIP3    H229049   4.434   6.152   2.453 -0.1508 -0.6666  1.1830
 2472TIP3   OH229050   2.119   0.080   8.420  0.6216 -0.4227 -0.2140
 2472TIP3    H129051   2.131   0.021   8.494  0.3172  0.5357  0.6249
 2472TIP3    H229052   2.170   0.158   8.443 -0.4018  0.3413 -0.4637
 2473TIP3   OH229053   2.534   3.277   0.404 -0.1014 -0.2041  0.0880
 2473TIP3    H129054   2.610   3.285   0.462 -1.0475  1.0567  1.2114
 2473TIP3    H229055   2.535   3.185   0.376  2.2943 -0.0250 -0.6183
 2474TIP3   OH229056   0.554   2.232   1.264  0.1348  0.1245  0.3077
 2474TIP3    H129057   0.630   2.174   1.255  0.6396  1.0473 -2.0926
 2474TIP3    H229058   0.585   2.306   1.316  0.9078  0.4793 -0.6322
 2475TIP3   OH229059   0.368   0.975   1.415 -0.1693  1.2114 -0.2491
 2475TIP3    H129060   0.354   1.003   1.506 -1.2011  0.3757 -0.1335
 2475TIP3    H229061   0.299   0.910   1.399  1.6158 -0.6757 -0.7363
 2476TIP3   OH229062   6.188   2.043   0.730 -0.6410 -0.3159 -0.6846
 2476TIP3    H129063   6.168   2.047   0.636  1.0016  1.0496 -1.0086
 2476TIP3    H229064   6.209   1.951   0.745  1.3150 -0.1924 -2.1873
 2477TIP3   OH229065   6.587   6.510   2.618  0.0083  0.1359  0.1201
 2477TIP3    H129066   6.533   6.456   2.676 -0.2440 -0.9463 -1.0734
 2477TIP3    H229067   6.535   6.517   2.537  1.6385 -0.9885 -1.0908
 2478TIP3   OH229068   3.933   5.443   1.568  0.1027  0.3701 -0.2460
 2478TIP3    H129069   3.869   5.509   1.540  3.0416  2.2608 -3.3294
 2478TIP3    H229070   3.898   5.360   1.535 -2.3163  0.7085  1.2355
 2479TIP3   OH229071   6.700   1.326   1.419  0.0991 -0.4321  0.1875
 2479TIP3    H129072   6.713   1.241   1.377  1.7624 -0.1484  0.0316
 2479TIP3    H229073   6.728   1.312   1.510  3.1131  0.5187 -0.4602
 2480TIP3   OH229074   3.849   4.174   0.238 -0.2332  0.2190  0.2193
 2480TIP3    H129075   3.781   4.129   0.187  0.0295  1.6618 -1.5204
 2480TIP3    H229076   3.812   4.261   0.255  1.3883  1.3102 -1.4103
 2481TIP3   OH229077   1.892   2.060   4.299  0.0643  0.0106  0.0709
 2481TIP3    H129078   1.967   2.086   4.353 -0.3636 -0.5620  0.9811
 2481TIP3    H229079   1.894   1.964   4.300 -0.3625 -0.0072 -0.3525
 2482TIP3   OH229080   6.029   4.051   0.955  0.3595  0.0131 -0.4303
 2482TIP3    H129081   6.014   4.099   0.874 -0.5502  0.3782 -0.0553
 2482TIP3    H229082   5.959   4.079   1.014 -0.4112 -2.0292 -0.2972
 2483TIP3   OH229083   1.432   1.464   4.297  0.3199  0.2469  0.6726
 2483TIP3    H129084   1.481   1.505   4.369  0.8025  1.5998 -0.3787
 2483TIP3    H229085   1.452   1.370   4.305  0.7791  0.4353  1.9832
 2484TIP3   OH229086   1.154   6.109   8.283 -0.5321  0.1464  0.3718
 2484TIP3    H129087   1.193   6.056   8.353 -1.4120 -0.1869  0.6224
 2484TIP3    H229088   1.138   6.194   8.324  1.0246  0.6833 -0.0741
 2485TIP3   OH229089   5.787   6.822   8.692 -0.7542  0.3149 -0.9417
 2485TIP3    H129090   5.812   6.744   8.641 -0.2852 -1.3653  1.6454
 2485TIP3    H229091   5.708   6.794   8.740  0.1035  0.9776  0.9283
 2486TIP3   OH229092   4.883   6.487   1.606  0.0514  0.1206  0.2045
 2486TIP3    H129093   4.948   6.498   1.676 -1.1901  0.4771  1.3606
 2486TIP3    H229094   4.888   6.394   1.583  1.1251  0.1948  0.0937
 2487TIP3   OH229095   5.330   2.626   0.470  0.2330 -0.0498 -0.9324
 2487TIP3    H129096   5.273   2.702   0.479  2.1108  1.1693  2.9872
 2487TIP3    H229097   5.277   2.553   0.502 -0.3682  0.3295 -1.0431
 2488TIP3   OH229098   5.086   3.232   2.784  0.0377 -0.0981 -0.2946
 2488TIP3    H129099   5.009   3.199   2.831 -0.0632 -1.1313 -1.1700
 2488TIP3    H229100   5.126   3.294   2.845 -1.6526  0.7040  0.0703
 2489TIP3   OH229101   5.331   5.163   0.714  0.6718  0.1833 -0.2578
 2489TIP3    H129102   5.402   5.142   0.654 -0.0092 -0.2014 -0.9555
 2489TIP3    H229103   5.265   5.206   0.659  0.7349  1.3730  0.5497
 2490TIP3   OH229104   1.434   0.649   0.721  0.1331  0.2918  0.1988
 2490TIP3    H129105   1.499   0.602   0.773  0.4491  1.6826  1.0935
 2490TIP3    H229106   1.473   0.652   0.633  1.3321  1.1350  0.7259
 2491TIP3   OH229107   5.798   2.792   2.932  0.0153 -0.0581 -0.0023
 2491TIP3    H129108   5.783   2.723   2.868 -4.2142 -0.1006  0.7473
 2491TIP3    H229109   5.810   2.745   3.015  1.0046  0.0794 -0.0583
 2492TIP3   OH229110   2.407   2.591   1.388  0.2497  1.1964 -0.0238
 2492TIP3    H129111   2.481   2.532   1.405  0.1457  0.8367 -0.7886
 2492TIP3    H229112   2.443   2.659   1.331 -0.3313  0.2305 -1.5986
 2493TIP3   OH229113   6.321   0.106   1.787  0.0417 -0.2823 -0.4407
 2493TIP3    H129114   6.277   0.097   1.872 -3.5143  1.1697 -1.9137
 2493TIP3    H229115   6.339   0.200   1.779  0.2847 -0.3963 -1.3017
 2494TIP3   OH229116   4.357   1.036   4.164 -0.3202 -0.1739 -0.5127
 2494TIP3    H129117   4.428   1.040   4.227  0.1367  1.2512 -1.0856
 2494TIP3    H229118   4.371   1.111   4.106 -1.6125 -0.5423 -1.3581
 2495TIP3   OH229119   1.114   5.713   0.969 -0.1523 -0.3314  0.0971
 2495TIP3    H129120   1.109   5.617   0.968  0.4468 -0.3717  0.5155
 2495TIP3    H229121   1.068   5.740   0.890 -1.0305 -0.9254  0.3890
 2496TIP3   OH229122   6.329   4.848   0.437 -0.5418  0.2065 -0.5783
 2496TIP3    H129123   6.304   4.762   0.402  1.7764 -0.7759 -0.0690
 2496TIP3    H229124   6.278   4.911   0.387 -2.4962 -1.4556 -0.8131
 2497TIP3   OH229125   1.868   1.409   3.496 -0.1650 -0.2053  0.0877
 2497TIP3    H129126   1.952   1.365   3.513 -0.4989 -1.1736 -0.7275
 2497TIP3    H229127   1.893   1.497   3.469  0.6162 -0.6160 -0.5693
 2498TIP3   OH229128   4.834   6.296   2.393 -0.0128  0.2450  0.4109
 2498TIP3    H129129   4.863   6.209   2.366 -0.7480 -0.7495  2.5653
 2498TIP3    H229130   4.908   6.332   2.442  0.4148  1.0210 -0.7544
 2499TIP3   OH229131   5.798   0.018   2.153 -0.0740 -0.0094  0.0179
 2499TIP3    H129132   5.736  -0.044   2.192  0.1482  0.6215  1.4266
 2499TIP3    H229133   5.852   0.047   2.226  1.3050  0.1510 -1.0304
 2500TIP3   OH229134   1.725   5.072   2.964  0.0894 -0.2583  0.3589
 2500TIP3    H129135   1.724   5.003   3.030 -0.9947 -0.3843  0.2233
 2500TIP3    H229136   1.799   5.128   2.989  0.1987 -0.7577  1.1945
 2501TIP3   OH229137   0.316   0.538   2.217 -0.7274  0.0152  0.4751
 2501TIP3    H129138   0.306   0.624   2.260 -0.7479  0.2426  0.0211
 2501TIP3    H229139   0.228   0.515   2.189 -0.5019  0.5532 -0.7392
 2502TIP3   OH229140   1.346   1.511   0.149  0.0352 -0.3811  0.2664
 2502TIP3    H129141   1.304   1.579   0.096  0.2162  0.0869  0.7165
 2502TIP3    H229142   1.425   1.488   0.101 -0.5382 -0.9997 -0.3968
 2503TIP3   OH229143   3.268   6.202   2.184 -0.1570  0.2742  0.3430
 2503TIP3    H129144   3.286   6.261   2.258  0.4400  0.9622 -0.3262
 2503TIP3    H229145   3.275   6.114   2.221  0.9799  0.5925  0.9461
 2504TIP3   OH229146   6.046   1.033   1.945  0.7080 -0.0544  0.1608
 2504TIP3    H129147   6.006   1.111   1.983  1.7464  1.4851 -1.6690
 2504TIP3    H229148   6.005   0.959   1.990 -1.4243  1.5017  0.9084
 2505TIP3   OH229149   4.736   1.133   2.469  0.5896  0.7774 -0.0875
 2505TIP3    H129150   4.706   1.222   2.488  0.5776  0.8262 -0.3255
 2505TIP3    H229151   4.679   1.104   2.397 -0.0836  0.2056  0.6649
 2506TIP3   OH229152   0.743   1.804   2.575  0.3938  0.1134  0.6359
 2506TIP3    H129153   0.695   1.886   2.588 -0.0749 -0.2559  1.2854
 2506TIP3    H229154   0.834   1.832   2.562 -0.1186  0.9170 -1.8837
 2507TIP3   OH229155   1.924   5.897   8.054  0.7210 -0.4533  0.6081
 2507TIP3    H129156   1.844   5.915   8.006 -0.8929 -2.4396  2.3652
 2507TIP3    H229157   1.931   5.969   8.117  0.9467  0.2721 -0.2124
 2508TIP3   OH229158   3.801   6.212   3.425  0.0323 -0.7103 -0.2412
 2508TIP3    H129159   3.844   6.231   3.342 -0.8486 -0.9092 -0.7569
 2508TIP3    H229160   3.713   6.183   3.401 -0.2173 -0.8418  0.7574
 2509TIP3   OH229161   2.975   4.493   1.028  0.1318 -0.2227  0.3984
 2509TIP3    H129162   2.918   4.559   1.067  0.0624 -0.1508  0.1806
 2509TIP3    H229163   2.963   4.505   0.934  2.0073  1.1300  0.2751
 2510TIP3   OH229164   4.598   6.070   0.540  0.3946 -0.3603  0.1862
 2510TIP3    H129165   4.670   6.115   0.584  0.1282  1.9948 -1.6134
 2510TIP3    H229166   4.638   5.992   0.502  1.8550  0.5343 -0.1893
 2511TIP3   OH229167   2.482   3.388   3.627 -0.2096 -0.6757  0.4130
 2511TIP3    H129168   2.420   3.324   3.661 -1.2981  0.0344 -0.1476
 2511TIP3    H229169   2.512   3.436   3.705  0.6429 -1.8625  0.8367
 2512TIP3   OH229170   6.169   1.013   2.923  0.5555 -0.2013 -0.1734
 2512TIP3    H129171   6.151   1.037   3.014  0.7630  2.0733 -0.6860
 2512TIP3    H229172   6.245   0.955   2.929  1.1795  0.6895  1.0539
 2513TIP3   OH229173   0.976   1.600   8.345  0.6223 -0.3428  0.1035
 2513TIP3    H129174   1.044   1.620   8.281 -0.0634 -1.2157 -0.9532
 2513TIP3    H229175   0.977   1.504   8.352  1.7897 -0.2065  2.6913
 2514TIP3   OH229176   4.056   2.436   3.261 -0.3996  0.4430 -0.2534
 2514TIP3    H129177   4.072   2.345   3.283  1.0522  0.5961 -0.6193
 2514TIP3    H229178   4.126   2.484   3.305 -0.0757  1.1946 -1.5356
 2515TIP3   OH229179   6.776   4.074   2.907  0.4907  0.2951  0.1436
 2515TIP3    H129180   6.758   4.101   2.817  0.5815  0.4116  0.1594
 2515TIP3    H229181   6.701   4.020   2.932  0.3336  0.4883  0.0902
 2516TIP3   OH229182   4.460   1.752   0.857 -0.5842 -0.5271 -0.0907
 2516TIP3    H129183   4.368   1.733   0.837 -0.8513  1.3125 -0.8118
 2516TIP3    H229184   4.493   1.795   0.779  1.5202 -2.8730 -0.6479
 2517TIP3   OH229185   1.437   5.128   2.958  0.5293  0.3282  1.2511
 2517TIP3    H129186   1.532   5.124   2.950  0.5133 -2.1474  1.4808
 2517TIP3    H229187   1.407   5.160   2.873  1.5224  0.3830  0.9076
 2518TIP3   OH229188   0.902   0.932   2.729  0.2943  0.1842  0.4910
 2518TIP3    H129189   0.877   0.928   2.637  1.3833  1.9944  0.0792
 2518TIP3    H229190   0.973   0.868   2.738  0.7699  0.6208 -0.1237
 2519TIP3   OH229191   2.336   3.106   1.190 -0.6081 -0.1174  0.0624
 2519TIP3    H129192   2.422   3.067   1.200 -0.4620  0.3862  0.8839
 2519TIP3    H229193   2.350   3.180   1.131 -1.2144 -2.2675 -3.0330
 2520TIP3   OH229194   4.041   1.556   3.690 -0.2337  0.1406 -0.5014
 2520TIP3    H129195   4.094   1.499   3.747 -0.7957  1.0248  0.9697
 2520TIP3    H229196   4.057   1.523   3.602  0.4003 -1.5209  0.1885
 2521TIP3   OH229197   6.039   6.057   2.512 -0.0542  0.3704  0.0217
 2521TIP3    H129198   6.007   6.035   2.600 -1.8691  1.2893 -0.3595
 2521TIP3    H229199   6.096   5.984   2.488 -0.5287 -0.5164  1.4636
 2522TIP3   OH229200   2.236   3.799   0.003 -0.4075 -0.4818  0.4988
 2522TIP3    H129201   2.184   3.845  -0.063  0.3749 -1.4757 -0.8373
 2522TIP3    H229202   2.223   3.851   0.083 -1.3562  0.7592 -0.4129
 2523TIP3   OH229203   1.209   6.345   2.559 -0.0301 -0.7149 -0.2140
 2523TIP3    H129204   1.182   6.263   2.518 -2.1566  0.4045 -1.1737
 2523TIP3    H229205   1.128   6.383   2.594  1.1229  0.2905  1.5427
 2524TIP3   OH229206   6.445   6.321   2.784  0.1749  0.3912  0.0246
 2524TIP3    H129207   6.434   6.290   2.874 -0.1939 -1.1170 -0.5069
 2524TIP3    H229208   6.363   6.299   2.741  0.4665  0.8119 -0.7740
 2525TIP3   OH229209   5.058   0.870   1.511  0.1211 -0.6329  0.8651
 2525TIP3    H129210   5.116   0.802   1.475  1.4300  0.3903  0.9589
 2525TIP3    H229211   5.098   0.952   1.483 -1.8269  0.1317  0.1448
 2526TIP3   OH229212   0.112   2.655   7.933 -0.0789  0.7820 -0.0178
 2526TIP3    H129213   0.154   2.592   7.992  2.2741  0.9747 -1.3908
 2526TIP3    H229214   0.183   2.711   7.902 -1.2416  0.8790 -2.7862
 2527TIP3   OH229215   2.988   0.095   1.158 -0.6483  0.3124 -0.6091
 2527TIP3    H129216   2.931   0.027   1.122  0.6802 -1.9165  1.2217
 2527TIP3    H229217   3.029   0.135   1.082 -0.6216 -1.7469 -1.7323
 2528TIP3   OH229218   1.509   4.526   0.767 -0.1000  0.7035 -0.0878
 2528TIP3    H129219   1.578   4.585   0.739  1.1704 -1.1363 -1.0736
 2528TIP3    H229220   1.544   4.483   0.845  0.0581 -0.4890 -0.7873
 2529TIP3   OH229221   6.082   5.060   2.207 -0.5763 -0.0516  0.1660
 2529TIP3    H129222   6.073   4.988   2.270 -1.7804 -0.3111 -0.2700
 2529TIP3    H229223   6.082   5.139   2.260  0.7222 -0.3564  0.6504
 2530TIP3   OH229224   2.449   3.789   8.635  0.1492 -0.1642  0.0876
 2530TIP3    H129225   2.493   3.730   8.574  0.2902  0.0038  0.0264
 2530TIP3    H229226   2.499   3.780   8.717 -0.5891 -1.0848  0.4587
 2531TIP3   OH229227   4.207   3.060   2.317 -0.2728  0.2297  0.1407
 2531TIP3    H129228   4.181   3.043   2.227  0.2102 -0.4992  0.1299
 2531TIP3    H229229   4.136   3.024   2.370  0.3394 -1.1191  0.0922
 2532TIP3   OH229230   4.094   0.996   1.326  0.2418  0.0231 -0.1405
 2532TIP3    H129231   4.160   0.967   1.263 -0.5452 -0.7880 -0.6096
 2532TIP3    H229232   4.144   1.045   1.391  1.1306  0.4918 -1.1469
 2533TIP3   OH229233   6.754   0.369   3.797  0.6251 -0.6249  0.5581
 2533TIP3    H129234   6.787   0.458   3.799 -2.2019  0.5184  0.0221
 2533TIP3    H229235   6.822   0.318   3.843  1.6646  1.9801  2.1642
 2534TIP3   OH229236   0.057   2.580   8.374  0.3419 -0.6751 -0.4742
 2534TIP3    H129237   0.139   2.577   8.326  0.5110  1.0024 -0.3537
 2534TIP3    H229238   0.034   2.489   8.390  1.2725 -1.2059 -2.0465
 2535TIP3   OH229239   4.055   3.677   2.801 -0.2113  0.2643  0.6215
 2535TIP3    H129240   4.044   3.587   2.769 -4.1678 -0.2161  2.7577
 2535TIP3    H229241   4.074   3.667   2.894 -0.5546  1.6268  0.8537
 2536TIP3   OH229242   3.748   3.375   1.280 -0.2210 -0.2544 -0.9269
 2536TIP3    H129243   3.772   3.329   1.360  1.2300  2.8400  0.5724
 2536TIP3    H229244   3.654   3.359   1.270 -0.5771 -0.1949  1.7524
 2537TIP3   OH229245   6.495   1.123   1.186 -0.2900  0.5644 -0.0934
 2537TIP3    H129246   6.525   1.042   1.228  0.7656 -0.3118 -2.3349
 2537TIP3    H229247   6.554   1.133   1.111 -1.8957  2.1525 -1.2027
 2538TIP3   OH229248   1.511   6.091   0.882 -0.0756  0.1924  0.4992
 2538TIP3    H129249   1.444   6.049   0.828  0.8591 -1.7668  0.7679
 2538TIP3    H229250   1.591   6.085   0.829  0.3034  0.6559  1.0140
 2539TIP3   OH229251   2.137   1.089   0.061  0.2924 -0.1091  0.2069
 2539TIP3    H129252   2.050   1.084   0.100  0.4239  0.0119  0.5148
 2539TIP3    H229253   2.123   1.139  -0.019 -0.5040 -2.7109 -1.4202
 2540TIP3   OH229254   6.668   3.751   1.539  0.0282 -0.2236 -0.2739
 2540TIP3    H129255   6.701   3.662   1.524  0.1042 -0.8543  2.9477
 2540TIP3    H229256   6.738   3.794   1.589 -0.0111  1.7223 -1.7783
 2541TIP3   OH229257   1.482   0.691   2.125  0.0465  0.1592 -0.3196
 2541TIP3    H129258   1.412   0.666   2.186  0.3399 -1.3605 -0.5624
 2541TIP3    H229259   1.527   0.763   2.168  1.1422 -1.7823  1.9772
 2542TIP3   OH229260   0.277   3.719   3.836 -0.2139 -0.3618  0.2566
 2542TIP3    H129261   0.276   3.624   3.827 -0.4665 -0.4184  0.8033
 2542TIP3    H229262   0.198   3.739   3.886 -0.6181  0.2219 -0.5976
 2543TIP3   OH229263   4.930   4.498   3.377 -0.0822  0.3675  0.4887
 2543TIP3    H129264   4.996   4.429   3.384 -0.2876  0.1330  0.1599
 2543TIP3    H229265   4.900   4.493   3.286  1.1288  2.0341 -0.0483
 2544TIP3   OH229266   5.691   5.727   2.135 -0.1981 -0.1545  0.5406
 2544TIP3    H129267   5.774   5.681   2.150  0.2017  0.1196 -0.6194
 2544TIP3    H229268   5.718   5.809   2.093 -1.0758 -0.2959 -0.3476
 2545TIP3   OH229269   0.505   4.594   8.707  0.1075  0.1499 -0.7542
 2545TIP3    H129270   0.580   4.648   8.683  1.7248 -2.2094 -1.3373
 2545TIP3    H229271   0.533   4.504   8.689 -1.7564 -1.0954  1.8842
 2546TIP3   OH229272   0.256   3.303   7.723  0.4669 -0.7525  0.2002
 2546TIP3    H129273   0.166   3.300   7.757  0.5733 -1.2545  0.4418
 2546TIP3    H229274   0.305   3.350   7.790  0.3445 -0.2891 -0.0308
 2547TIP3   OH229275   0.251   1.764   1.701  0.3373  0.2898 -0.1924
 2547TIP3    H129276   0.216   1.817   1.630 -0.5732 -0.5154 -0.3701
 2547TIP3    H229277   0.184   1.767   1.769  1.1832  1.0193  0.6334
 2548TIP3   OH229278   0.247   5.586   3.253 -0.0368 -0.1954  0.0001
 2548TIP3    H129279   0.286   5.504   3.222  0.6683  0.8014 -1.8621
 2548TIP3    H229280   0.160   5.561   3.283  0.3235 -1.6984 -0.1110
 2549TIP3   OH229281   0.020   1.184   0.009 -0.5095  1.0379  0.2258
 2549TIP3    H129282   0.064   1.231   0.079  1.8405  0.3060 -0.6532
 2549TIP3    H229283  -0.041   1.124   0.054  1.1238  0.3952  1.6797
 2550TIP3   OH229284   0.480   2.241   1.803  0.2560  0.0499  0.0763
 2550TIP3    H129285   0.511   2.263   1.715  0.2946 -1.0355 -0.1969
 2550TIP3    H229286   0.424   2.314   1.827  2.8346  2.0153  0.5341
 2551TIP3   OH229287   3.723   4.040   1.925  0.5041 -0.2627 -0.3178
 2551TIP3    H129288   3.790   4.104   1.949 -1.3385  1.7819 -0.3524
 2551TIP3    H229289   3.687   4.011   2.009  0.1376  0.0986 -0.3488
 2552TIP3   OH229290   1.977   2.551   2.048 -0.3181  0.8494 -0.3020
 2552TIP3    H129291   1.936   2.490   2.111 -0.6557  0.9753 -0.3993
 2552TIP3    H229292   2.051   2.587   2.096 -0.0461  0.2740 -0.2813
 2553TIP3   OH229293   5.771   1.019   0.433 -0.2361 -0.4775 -0.0538
 2553TIP3    H129294   5.841   1.003   0.370 -0.3226 -1.1266  0.0040
 2553TIP3    H229295   5.760   1.114   0.434 -0.2953 -0.4666 -1.0746
 2554TIP3   OH229296   4.678   0.038   3.351 -0.5680 -0.7874 -0.0212
 2554TIP3    H129297   4.601   0.093   3.360  0.1286  0.0654  1.1072
 2554TIP3    H229298   4.720   0.042   3.437  1.4752 -0.0974 -0.9956
 2555TIP3   OH229299   5.382   3.491   4.185  0.6740  0.0030 -0.0989
 2555TIP3    H129300   5.337   3.547   4.121  1.2865 -0.0611 -0.5943
 2555TIP3    H229301   5.462   3.464   4.141  2.2317  1.7437  1.4674
 2556TIP3   OH229302   1.767   6.020   2.775 -0.0735 -0.3129  0.2599
 2556TIP3    H129303   1.849   6.040   2.729 -0.4479 -0.2305 -0.3858
 2556TIP3    H229304   1.791   5.952   2.838  0.0595 -1.9007 -1.4303
 2557TIP3   OH229305   3.186   2.402   2.018  0.2077 -0.1731 -0.5125
 2557TIP3    H129306   3.155   2.492   2.033 -0.5913 -0.5035 -0.1430
 2557TIP3    H229307   3.135   2.349   2.079  0.5761 -0.9016 -0.8331
 2558TIP3   OH229308   2.444   1.171   2.439  0.4741  0.2521  0.0598
 2558TIP3    H129309   2.387   1.246   2.451 -1.0913 -1.0259  1.0910
 2558TIP3    H229310   2.529   1.209   2.416 -0.9468  2.1932 -2.5208
 2559TIP3   OH229311   6.587   4.308   0.332  0.2003  0.3695  0.1190
 2559TIP3    H129312   6.682   4.296   0.329  0.1855  0.4918 -1.5397
 2559TIP3    H229313   6.557   4.246   0.399  1.2484 -0.9940 -0.6223
 2560TIP3   OH229314   3.668   4.973   3.995 -0.1019  0.4650  0.6143
 2560TIP3    H129315   3.718   4.992   3.915 -0.4235  2.3647  0.8317
 2560TIP3    H229316   3.735   4.949   4.059  0.1302 -1.6160 -0.2903
 2561TIP3   OH229317   5.608   5.716   1.678 -0.6950  0.2432  0.2238
 2561TIP3    H129318   5.586   5.684   1.765 -0.6141 -0.2868  0.0517
 2561TIP3    H229319   5.620   5.811   1.689  0.5752  0.0190  1.0473
 2562TIP3   OH229320   1.320   4.900   3.921  0.0046 -0.4300 -0.1678
 2562TIP3    H129321   1.397   4.901   3.977 -0.5773  1.7476  0.6841
 2562TIP3    H229322   1.246   4.887   3.981 -0.3791 -2.4635 -0.9627
 2563TIP3   OH229323   3.714   0.085   2.097 -0.0962 -0.6243 -0.6870
 2563TIP3    H129324   3.644   0.023   2.116 -0.3890 -0.2006 -0.3658
 2563TIP3    H229325   3.695   0.161   2.153 -0.3127  0.1649 -1.7886
 2564TIP3   OH229326   1.762   4.568   0.133 -0.4268  0.0213  0.2719
 2564TIP3    H129327   1.744   4.595   0.043  0.5973  2.5026  0.7035
 2564TIP3    H229328   1.830   4.501   0.125 -0.4904  0.0613 -0.8025
 2565TIP3   OH229329   0.228   4.920   8.019  0.0532  0.1512 -0.2149
 2565TIP3    H129330   0.226   4.856   8.089 -1.1316 -0.0956 -0.4472
 2565TIP3    H229331   0.237   4.868   7.939 -1.3776  0.2029 -0.4420
 2566TIP3   OH229332   4.681   3.757   3.138 -0.2832  0.0360  0.8347
 2566TIP3    H129333   4.775   3.758   3.156 -0.0148 -1.5677 -0.2633
 2566TIP3    H229334   4.668   3.820   3.068 -0.1876  0.8741  1.5497
 2567TIP3   OH229335   6.361   1.808   2.737  0.1356  0.5462 -0.0100
 2567TIP3    H129336   6.362   1.904   2.743  0.9730  0.5154  0.4354
 2567TIP3    H229337   6.453   1.783   2.728 -0.0520 -0.2363  0.1489
 2568TIP3   OH229338   6.641   5.033   2.237 -1.1712  0.5605  0.0465
 2568TIP3    H129339   6.589   4.955   2.218 -2.3396  1.2637  0.2369
 2568TIP3    H229340   6.730   5.001   2.250 -1.9772 -1.0058  2.1512
 2569TIP3   OH229341   4.183   6.587   3.718  0.0828 -0.6323 -0.0864
 2569TIP3    H129342   4.244   6.516   3.702  1.1258 -0.3116  2.1204
 2569TIP3    H229343   4.136   6.561   3.797 -0.6490  0.4120 -0.1588
 2570TIP3   OH229344   4.659   3.666   2.150  0.2000  0.3829  0.5825
 2570TIP3    H129345   4.723   3.660   2.080  0.7924  0.4193  1.1165
 2570TIP3    H229346   4.592   3.601   2.127  0.9321 -0.3678  0.5370
 2571TIP3   OH229347   3.580   0.220   3.165 -0.1562 -0.3055 -0.6007
 2571TIP3    H129348   3.659   0.181   3.202 -0.6164 -0.8828 -0.2152
 2571TIP3    H229349   3.528   0.248   3.241 -0.1919  0.3494 -0.8539
 2572TIP3   OH229350   4.813   4.296   1.740  0.3151 -0.2499  0.3503
 2572TIP3    H129351   4.902   4.274   1.714  0.6541  1.8060 -0.4435
 2572TIP3    H229352   4.799   4.385   1.706 -2.9092 -1.3633 -1.7243
 2573TIP3   OH229353   2.196   3.777   8.552 -0.6822  0.5907  0.3204
 2573TIP3    H129354   2.278   3.787   8.602 -0.9857  0.4141  0.8600
 2573TIP3    H229355   2.210   3.830   8.474  0.2833 -0.1186 -0.0166
 2574TIP3   OH229356   0.179   3.543   3.144 -0.1126  0.3890 -1.1595
 2574TIP3    H129357   0.191   3.629   3.184  1.8903 -0.1260 -0.5232
 2574TIP3    H229358   0.137   3.490   3.212  3.9213 -0.6902  0.8344
 2575TIP3   OH229359   3.785   5.291   0.629  0.7555  0.0698  0.3434
 2575TIP3    H129360   3.742   5.366   0.671  0.3562  0.2216 -0.3235
 2575TIP3    H229361   3.856   5.331   0.578 -0.2032  0.1308 -0.9815
 2576TIP3   OH229362   6.541   2.877   0.709 -0.6707  0.6348  0.2761
 2576TIP3    H129363   6.513   2.811   0.772 -1.0223  1.6355  1.1921
 2576TIP3    H229364   6.479   2.870   0.637  1.2710 -2.3821 -1.3553
 2577TIP3   OH229365   3.434   2.961   2.333  0.2805  0.4809 -0.0088
 2577TIP3    H129366   3.343   2.975   2.307  0.1844  0.0114  0.0763
 2577TIP3    H229367   3.450   3.026   2.401  0.4054  1.4465 -0.9306
 2578TIP3   OH229368   5.515   3.209   0.113 -0.1822 -0.3922 -0.3348
 2578TIP3    H129369   5.548   3.135   0.164 -0.6680 -0.6349 -0.3581
 2578TIP3    H229370   5.421   3.192   0.105 -0.5731  0.9837  0.9224
 2579TIP3   OH229371   3.627   5.167   0.021 -0.4850 -0.0491  0.2629
 2579TIP3    H129372   3.580   5.093  -0.018 -0.1403  0.0785 -0.4027
 2579TIP3    H229373   3.663   5.214  -0.054 -1.6112  1.4222  0.5969
 2580TIP3   OH229374   1.440   1.712   3.101 -0.6325 -0.6333 -0.2071
 2580TIP3    H129375   1.523   1.732   3.059 -0.1608  0.4891  1.1669
 2580TIP3    H229376   1.406   1.635   3.054 -0.0390  0.3795 -2.4133
 2581TIP3   OH229377   6.651   1.766   8.349  0.5793  0.4054 -0.2715
 2581TIP3    H129378   6.647   1.712   8.428  0.5604  0.6054 -0.1331
 2581TIP3    H229379   6.744   1.765   8.325  0.7875  1.3095  0.4375
 2582TIP3   OH229380   4.404   4.294   3.835  0.3153 -0.5601 -0.2421
 2582TIP3    H129381   4.331   4.285   3.773  1.8754 -0.6276 -2.1458
 2582TIP3    H229382   4.451   4.211   3.830  1.0824 -0.1696  0.2364
 2583TIP3   OH229383   2.248   1.415   8.373  1.1216 -0.5497  0.0450
 2583TIP3    H129384   2.314   1.348   8.353  0.9857 -0.4215 -0.8542
 2583TIP3    H229385   2.197   1.423   8.293 -0.1254 -0.7811  0.7980
 2584TIP3   OH229386   3.288   4.253   1.538 -0.5700 -0.0958 -0.0736
 2584TIP3    H129387   3.323   4.214   1.458 -0.0594  1.0616 -0.4264
 2584TIP3    H229388   3.336   4.209   1.609 -1.1010 -1.2011 -0.3724
 2585TIP3   OH229389   2.150   0.362   3.103 -0.5705 -0.0669 -0.3148
 2585TIP3    H129390   2.097   0.370   3.182  0.2933 -0.6490  0.3439
 2585TIP3    H229391   2.170   0.269   3.096  0.2551  0.1222 -0.6225
 2586TIP3   OH229392   0.664   6.217   0.586 -0.1172  0.0700  0.1618
 2586TIP3    H129393   0.747   6.176   0.560 -0.6198 -0.3297 -0.8267
 2586TIP3    H229394   0.650   6.187   0.676  0.5099 -0.3448  0.1265
 2587TIP3   OH229395   6.072   6.710   2.720  0.1788  0.4364 -0.0849
 2587TIP3    H129396   6.062   6.753   2.805  0.7652 -0.7100  0.5814
 2587TIP3    H229397   6.033   6.623   2.732  1.2095 -0.1228 -0.6640
 2588TIP3   OH229398   4.647   4.766   3.203  0.2749 -0.7761  0.4451
 2588TIP3    H129399   4.646   4.857   3.233 -0.4418 -1.4825  2.7218
 2588TIP3    H229400   4.690   4.770   3.118 -2.4352  2.1356 -1.0247
 2589TIP3   OH229401   6.438   3.753   0.744  0.2133 -0.2575  0.1795
 2589TIP3    H129402   6.530   3.745   0.769  0.2635 -0.2624 -0.0053
 2589TIP3    H229403   6.404   3.824   0.800  0.1736 -0.6580  0.6700
 2590TIP3   OH229404   5.184   2.052   0.464  0.0345 -0.6186  0.0398
 2590TIP3    H129405   5.172   2.045   0.559  2.6114 -2.8214  0.2910
 2590TIP3    H229406   5.101   2.020   0.427 -0.2830 -1.6455  1.5541
 2591TIP3   OH229407   1.401   3.546   8.795 -0.2367 -0.6024  0.1418
 2591TIP3    H129408   1.492   3.549   8.767  0.3224 -0.7491  1.8312
 2591TIP3    H229409   1.376   3.454   8.786  0.1172 -0.7519  0.5962
 2592TIP3   OH229410   6.411   1.562   2.407 -0.0869 -0.4292 -0.3580
 2592TIP3    H129411   6.412   1.653   2.376  2.3653 -0.0111  0.7470
 2592TIP3    H229412   6.339   1.560   2.470 -1.0874  0.3291 -1.4202
 2593TIP3   OH229413   3.710   1.349   3.835  0.0533 -0.0568  0.3414
 2593TIP3    H129414   3.756   1.411   3.779  0.4280 -0.6188  0.0253
 2593TIP3    H229415   3.690   1.399   3.914 -1.5754  1.1246 -0.7468
 2594TIP3   OH229416   4.942   1.925   0.438 -0.2939 -0.1316 -0.5879
 2594TIP3    H129417   4.889   1.876   0.501  1.2196 -0.5986  0.3737
 2594TIP3    H229418   4.883   1.993   0.405 -0.7476  1.1304  2.4666
 2595TIP3   OH229419   3.597   4.007   8.287 -0.4489  0.2554 -0.2597
 2595TIP3    H129420   3.526   3.992   8.349 -1.2761  0.1482 -1.2138
 2595TIP3    H229421   3.621   3.920   8.256  1.1860  0.1282  1.1921
 2596TIP3   OH229422   2.535   3.947   2.054  0.3527  0.3796  0.0386
 2596TIP3    H129423   2.606   4.002   2.020  0.2086  0.0202 -0.8691
 2596TIP3    H229424   2.579   3.878   2.103  0.5952  0.5109  0.0060
 2597TIP3   OH229425   2.677   4.692   4.108 -0.0616 -0.1419  0.0790
 2597TIP3    H129426   2.717   4.616   4.149 -1.2403 -1.0326 -0.3368
 2597TIP3    H229427   2.632   4.657   4.031 -1.5950  0.7713  0.5040
 2598TIP3   OH229428   2.524   2.499   2.889 -0.0517  0.1711  0.3335
 2598TIP3    H129429   2.440   2.471   2.853  0.2714 -1.5293  0.8057
 2598TIP3    H229430   2.515   2.482   2.983  0.2262  1.5954  0.6303
 2599TIP3   OH229431   2.805   2.611   3.115  0.0766  0.2948  0.0025
 2599TIP3    H129432   2.805   2.530   3.064 -0.9315  1.0345 -1.2168
 2599TIP3    H229433   2.867   2.595   3.186 -0.8549 -1.9222  0.3944
 2600TIP3   OH229434   3.701   6.328   0.938 -0.1408  0.1894  1.0690
 2600TIP3    H129435   3.745   6.357   0.858 -2.1279 -0.5545 -0.3585
 2600TIP3    H229436   3.745   6.378   1.008  2.1361  0.3325 -0.3473
 2601TIP3   OH229437   4.226   3.772   1.709 -0.3408 -0.0113  0.3170
 2601TIP3    H129438   4.158   3.837   1.728  0.6749  1.0594  0.3898
 2601TIP3    H229439   4.193   3.724   1.633 -1.8676 -0.5516  1.2791
 2602TIP3   OH229440   6.029   1.278   8.265  0.1110 -0.6843 -0.0027
 2602TIP3    H129441   5.943   1.300   8.231  1.1067  1.6017 -1.2431
 2602TIP3    H229442   6.045   1.343   8.334  0.8797 -1.0384  0.1650
 2603TIP3   OH229443   4.801   0.876   0.292 -0.1444  0.1856 -0.0102
 2603TIP3    H129444   4.793   0.797   0.346 -2.2876  0.1245 -0.3299
 2603TIP3    H229445   4.799   0.949   0.354  1.8028  0.0531  0.2836
 2604TIP3   OH229446   4.396   5.713   0.329 -0.1998 -0.1465  0.6867
 2604TIP3    H129447   4.332   5.723   0.400  0.3179 -0.9964  1.2858
 2604TIP3    H229448   4.460   5.782   0.345 -0.8810  0.6341  0.1524
 2605TIP3   OH229449   2.333   4.872   3.970 -0.2881 -0.5623 -0.2691
 2605TIP3    H129450   2.266   4.894   3.906 -0.3265 -0.1635 -0.0957
 2605TIP3    H229451   2.414   4.866   3.919 -0.3821 -0.6201 -0.4110
 2606TIP3   OH229452   5.588   4.210   3.327  0.2261 -0.1189  0.8353
 2606TIP3    H129453   5.670   4.259   3.321  1.2929 -1.9104  0.1160
 2606TIP3    H229454   5.597   4.139   3.264 -2.6008  0.5755 -0.5128
 2607TIP3   OH229455   6.540   0.548   0.097 -0.3245 -0.1616 -0.2973
 2607TIP3    H129456   6.546   0.626   0.153  1.9609 -0.0578 -0.6218
 2607TIP3    H229457   6.592   0.569   0.020  0.7975 -2.2020 -0.1516
 2608TIP3   OH229458   1.507   0.509   4.581 -0.1833 -0.5670 -0.1732
 2608TIP3    H129459   1.497   0.603   4.600 -0.2794 -0.7547  0.7874
 2608TIP3    H229460   1.440   0.490   4.516  0.8495  0.3463 -1.5395
 2609TIP3   OH229461   0.324   2.027   3.085  0.3644 -0.4416  0.0056
 2609TIP3    H129462   0.356   2.073   3.007 -1.0210  0.5701 -0.0015
 2609TIP3    H229463   0.282   2.095   3.138 -0.9102 -1.5198  0.4418
 2610TIP3   OH229464   4.025   0.071   4.258  0.4475  0.2614 -0.5750
 2610TIP3    H129465   4.115   0.090   4.285  0.1901 -0.7531  1.1478
 2610TIP3    H229466   4.015  -0.023   4.273 -0.9150  0.3735 -0.6711
 2611TIP3   OH229467   3.838   2.716   2.633  0.2449 -0.4262  0.0425
 2611TIP3    H129468   3.904   2.779   2.663  0.7633 -0.6376 -0.6291
 2611TIP3    H229469   3.795   2.687   2.713  0.7053  0.0032  0.4563
 2612TIP3   OH229470   1.727   2.788   3.243 -0.6047 -0.3831 -0.2908
 2612TIP3    H129471   1.805   2.826   3.284 -0.7062 -1.7553  1.2991
 2612TIP3    H229472   1.697   2.854   3.182  0.9456  0.7984  0.1612
 2613TIP3   OH229473   6.199   0.893   8.116 -0.1947 -0.2561  0.2145
 2613TIP3    H129474   6.249   0.860   8.042  1.0340 -0.1370  0.9751
 2613TIP3    H229475   6.112   0.853   8.106  0.7958 -2.5975  0.3155
 2614TIP3   OH229476   6.201   2.815   0.324  0.2081  0.2762 -0.1183
 2614TIP3    H129477   6.140   2.833   0.253  0.2542  0.1638 -0.1874
 2614TIP3    H229478   6.178   2.878   0.392 -0.3828 -0.1655  0.1007
 2615TIP3   OH229479   3.461   3.814   3.486  0.9504  0.2185  0.3730
 2615TIP3    H129480   3.425   3.867   3.557  1.2089  1.3920 -0.3471
 2615TIP3    H229481   3.418   3.730   3.495 -0.1254  0.8182  1.0253
 2616TIP3   OH229482   1.204   2.219   1.796  0.6029 -0.1135  0.1073
 2616TIP3    H129483   1.160   2.253   1.874 -0.0271  0.0882 -0.3249
 2616TIP3    H229484   1.183   2.282   1.727  2.9136  0.8775  0.2152
 2617TIP3   OH229485   6.555   6.017   0.702 -0.4755  0.2872  0.1361
 2617TIP3    H129486   6.569   6.111   0.697 -0.6119  0.2799 -0.5574
 2617TIP3    H229487   6.635   5.982   0.741 -0.3510  0.6747  0.2274
 2618TIP3   OH229488   0.418   4.680   3.467 -0.3901  0.0521 -0.2773
 2618TIP3    H129489   0.389   4.631   3.544  0.4818 -0.6461 -0.3726
 2618TIP3    H229490   0.352   4.661   3.400 -1.2866  0.8593  0.3416
 2619TIP3   OH229491   2.159   1.824   4.062 -0.0720 -0.5648  0.7646
 2619TIP3    H129492   2.148   1.916   4.037  2.2530 -0.2804  0.5460
 2619TIP3    H229493   2.080   1.803   4.112 -1.4299  1.0410 -0.5402
 2620TIP3   OH229494   3.614   5.565   3.213  0.0570 -0.0805 -0.2680
 2620TIP3    H129495   3.594   5.653   3.181  3.7319  1.4488  1.1120
 2620TIP3    H229496   3.556   5.554   3.288 -1.6599  0.3768 -1.4527
 2621TIP3   OH229497   2.236   3.342   2.526 -0.1805  0.3010  0.0541
 2621TIP3    H129498   2.313   3.297   2.561  0.5754  1.4221 -0.1087
 2621TIP3    H229499   2.205   3.285   2.455 -0.6809 -1.1221  1.3609
 2622TIP3   OH229500   0.507   3.149   3.361 -0.2256 -0.2491 -0.3323
 2622TIP3    H129501   0.546   3.135   3.274 -1.0038  1.8087 -1.0718
 2622TIP3    H229502   0.413   3.149   3.345 -0.3928 -0.3040  0.6096
 2623TIP3   OH229503   3.749   2.175   3.666  0.3146 -0.0181  0.2577
 2623TIP3    H129504   3.822   2.120   3.695  0.2789  0.0222  0.4228
 2623TIP3    H229505   3.686   2.114   3.629  0.6123 -0.0184 -0.2712
 2624TIP3   OH229506   4.964   0.996   2.398  0.4928  0.0144 -0.0899
 2624TIP3    H129507   4.999   0.932   2.460 -1.2464 -1.5434 -0.6428
 2624TIP3    H229508   4.874   1.011   2.427  0.6234  1.6493 -0.4398
 2625TIP3   OH229509   0.449   1.882   2.666 -0.0330 -0.6345  0.1347
 2625TIP3    H129510   0.445   1.842   2.753  1.7085  1.7071  1.3872
 2625TIP3    H229511   0.463   1.808   2.607 -1.2576 -2.2935  1.8176
 2626TIP3   OH229512   2.792   4.975   2.192 -0.4249  0.2589  0.0220
 2626TIP3    H129513   2.850   5.051   2.199 -0.2149  0.0231  1.0609
 2626TIP3    H229514   2.850   4.900   2.204 -0.6062 -0.0889 -1.1489
 2627TIP3   OH229515   6.382   2.386   1.061  0.3250  0.4067  0.4715
 2627TIP3    H129516   6.317   2.457   1.057  1.0256  1.0478  0.3129
 2627TIP3    H229517   6.375   2.343   0.976 -0.9974 -0.5468  1.0202
 2628TIP3   OH229518   1.327   2.000   8.788  0.2430 -0.0634  0.1986
 2628TIP3    H129519   1.302   1.943   8.860 -0.8445  0.9090  0.6248
 2628TIP3    H229520   1.321   2.089   8.824  0.8634  0.3839 -0.7445
 2629TIP3   OH229521   3.521   4.928   8.782 -0.3489  0.1289 -0.5785
 2629TIP3    H129522   3.550   4.911   8.692  0.1199 -1.7990 -0.1030
 2629TIP3    H229523   3.438   4.882   8.790 -0.0110 -0.3677  0.2010
 2630TIP3   OH229524   5.903   1.760   1.109  0.1325 -0.2357  0.1115
 2630TIP3    H129525   5.943   1.743   1.024  1.1088  0.0355  0.5043
 2630TIP3    H229526   5.959   1.715   1.172 -0.8508 -0.8423  0.5830
 2631TIP3   OH229527   4.070   0.627   0.182  0.4012 -0.1264  0.6070
 2631TIP3    H129528   4.112   0.710   0.160  0.8282 -0.4037  0.3685
 2631TIP3    H229529   4.009   0.610   0.111 -1.4096  1.1214  1.7608
 2632TIP3   OH229530   1.755   2.998   0.793  0.5511 -0.0151  0.5165
 2632TIP3    H129531   1.811   2.961   0.861  0.7888 -1.1829 -0.2883
 2632TIP3    H229532   1.682   3.037   0.840  1.2735  0.1730  1.4978
 2633TIP3   OH229533   5.025   1.337   2.268 -0.8334 -0.3648  0.6035
 2633TIP3    H129534   4.995   1.407   2.326 -1.0157 -1.6448  2.1342
 2633TIP3    H229535   5.096   1.295   2.316  2.5876  1.6178 -2.2929
 2634TIP3   OH229536   6.178   5.965   0.927  0.0826 -0.5194 -0.0641
 2634TIP3    H129537   6.263   5.967   0.970  0.4657 -0.7155 -0.7941
 2634TIP3    H229538   6.197   5.984   0.835 -0.9366  1.9341  0.1507
 2635TIP3   OH229539   2.332   0.728   3.228 -0.3291  0.6867  0.0742
 2635TIP3    H129540   2.278   0.744   3.151  0.2201  2.1740 -0.0400
 2635TIP3    H229541   2.419   0.707   3.193 -1.0765 -3.3819  0.1913
 2636TIP3   OH229542   1.367   5.304   2.383  0.0493 -0.2182 -0.1926
 2636TIP3    H129543   1.296   5.310   2.447 -0.1591  0.0943 -0.4521
 2636TIP3    H229544   1.447   5.311   2.436 -0.0821 -1.4977  0.2058
 2637TIP3   OH229545   2.942   4.258   2.964  0.0447 -0.0559  0.2687
 2637TIP3    H129546   2.869   4.244   3.025 -0.3160  0.1727 -0.1097
 2637TIP3    H229547   3.003   4.314   3.012 -0.1633 -0.0088  0.4764
 2638TIP3   OH229548   4.808   2.622   3.115  0.0210 -0.3662  0.1627
 2638TIP3    H129549   4.873   2.594   3.180 -0.3467 -0.6355  0.4189
 2638TIP3    H229550   4.729   2.576   3.140 -0.1159 -0.4842 -0.4990
 2639TIP3   OH229551   3.268   3.199   2.914 -0.1782 -0.0678 -0.6653
 2639TIP3    H129552   3.190   3.144   2.920  0.9623 -1.6291  3.0056
 2639TIP3    H229553   3.336   3.141   2.880  0.2230  0.0928 -0.1594
 2640TIP3   OH229554   1.003   2.383   8.727 -0.3311  0.6394  0.0012
 2640TIP3    H129555   1.052   2.401   8.647  0.9861  1.0511  0.8824
 2640TIP3    H229556   0.917   2.423   8.712  0.3070  1.7589 -0.7252
 2641TIP3   OH229557   3.784   1.385   0.550 -0.2664  0.6433  0.3282
 2641TIP3    H129558   3.762   1.306   0.599 -0.5700  1.1979  1.1142
 2641TIP3    H229559   3.811   1.448   0.617  2.3896  0.4570 -0.4509
 2642TIP3   OH229560   3.360   1.850   1.698 -0.1063  0.5985 -0.2737
 2642TIP3    H129561   3.304   1.825   1.771  0.1397 -1.3660 -0.7075
 2642TIP3    H229562   3.384   1.941   1.716 -1.8401  0.8543  0.9179
 2643TIP3   OH229563   4.689   4.618   3.446 -0.3182  0.2289  0.6161
 2643TIP3    H129564   4.675   4.659   3.361 -2.3156 -0.4160  0.5769
 2643TIP3    H229565   4.770   4.568   3.436 -0.2260  0.6229 -0.7239
 2644TIP3   OH229566   1.337   6.470   1.425  0.2148  0.1113 -0.4063
 2644TIP3    H129567   1.279   6.395   1.428  0.9050 -0.3967  0.4458
 2644TIP3    H229568   1.343   6.491   1.331 -0.7436 -0.2775 -0.5669
 2645TIP3   OH229569   2.486   2.068   3.810  0.3361  0.0324  0.1098
 2645TIP3    H129570   2.571   2.108   3.828  0.4322  0.7569 -1.7854
 2645TIP3    H229571   2.428   2.141   3.791 -0.1851 -0.5650 -0.6649
 2646TIP3   OH229572   6.005   3.475   1.958  0.4608 -0.1060  0.5571
 2646TIP3    H129573   6.050   3.559   1.967  1.1955 -0.2776 -1.0818
 2646TIP3    H229574   5.986   3.468   1.865 -2.9759 -0.0927  1.1454
 2647TIP3   OH229575   3.724   2.063   4.119 -0.4401  0.1299  0.0460
 2647TIP3    H129576   3.763   2.030   4.199  0.8983  1.5486  0.0231
 2647TIP3    H229577   3.682   1.987   4.079  0.3167 -0.9407  1.2454
 2648TIP3   OH229578   0.440   5.987   0.258  0.4547 -0.5179 -0.0401
 2648TIP3    H129579   0.474   6.076   0.251 -0.4088  0.0783  2.3878
 2648TIP3    H229580   0.424   5.960   0.168 -1.4515  2.6903 -0.8088
 2649TIP3   OH229581   4.572   3.956   2.950  0.2859  0.0027  0.0211
 2649TIP3    H129582   4.545   4.038   2.991  0.1836  0.0857 -0.2153
 2649TIP3    H229583   4.497   3.930   2.897  0.5482  0.0672 -0.3804
 2650TIP3   OH229584   3.544   5.739   2.555  0.1597  0.1699 -0.4162
 2650TIP3    H129585   3.524   5.704   2.468  0.8841  0.1000 -0.5615
 2650TIP3    H229586   3.623   5.693   2.581  0.0129  0.2839  0.2327
 2651TIP3   OH229587   5.037   3.124   3.151  0.0116 -0.3654  0.1689
 2651TIP3    H129588   5.099   3.107   3.080  0.1412  0.6501  0.0243
 2651TIP3    H229589   5.091   3.121   3.230  0.0541 -0.5094  0.1343
 2652TIP3   OH229590   1.742   1.585   2.341 -0.3930  0.2676 -0.0356
 2652TIP3    H129591   1.823   1.633   2.322  0.1704 -0.6816 -0.1461
 2652TIP3    H229592   1.772   1.505   2.385 -1.4237  0.8208  1.7834
 2653TIP3   OH229593   4.733   3.287   0.372  0.2505 -0.4744 -0.3820
 2653TIP3    H129594   4.713   3.380   0.374 -4.1774 -1.1576 -1.4819
 2653TIP3    H229595   4.779   3.270   0.454 -0.5542  2.3922  0.7634
 2654TIP3   OH229596   0.766   4.025   3.755  0.1195 -0.4559  0.5451
 2654TIP3    H129597   0.856   4.036   3.726  0.3091 -1.6157  0.6734
 2654TIP3    H229598   0.715   4.084   3.699  1.2674  2.5058  2.3905
 2655TIP3   OH229599   0.148   5.226   0.472  0.3447 -0.3548  0.0951
 2655TIP3    H129600   0.184   5.241   0.384  0.5416  1.8802  0.5123
 2655TIP3    H229601   0.053   5.230   0.460  0.3809  1.5291  0.1831
 2656TIP3   OH229602   5.416   6.253   1.668  0.2494 -0.3373 -0.1565
 2656TIP3    H129603   5.331   6.288   1.641 -0.3171  0.6997  2.6384
 2656TIP3    H229604   5.480   6.310   1.626 -0.5225  0.6060 -0.0784
 2657TIP3   OH229605   5.199   5.294   2.707 -0.3402 -0.1371 -0.5396
 2657TIP3    H129606   5.242   5.269   2.789 -0.3136  1.5870  0.0185
 2657TIP3    H229607   5.105   5.293   2.728 -0.3359  0.2505 -0.4850
 2658TIP3   OH229608   1.283   2.319   3.225  0.5225  0.1850  0.5748
 2658TIP3    H129609   1.295   2.374   3.303 -0.2060  2.2449 -0.6955
 2658TIP3    H229610   1.225   2.370   3.168  2.1147 -0.6276 -1.9230
 2659TIP3   OH229611   4.731   2.749   3.477  0.5720  0.1529 -0.0446
 2659TIP3    H129612   4.783   2.687   3.527  1.0744  0.3840 -0.2763
 2659TIP3    H229613   4.651   2.701   3.455  1.0291 -0.4733 -0.3769
 2660TIP3   OH229614   0.317   5.955   3.788 -0.1022 -0.5889 -0.2150
 2660TIP3    H129615   0.246   5.895   3.765 -0.2374 -0.5505  0.1028
 2660TIP3    H229616   0.308   5.969   3.882 -1.3161  1.5271 -0.5970
 2661TIP3   OH229617   4.236   2.831   2.592 -0.8551  0.0035  0.0935
 2661TIP3    H129618   4.165   2.841   2.528  0.2148  1.6087 -0.8899
 2661TIP3    H229619   4.258   2.920   2.618  0.1682 -0.5265  1.1001
 2662TIP3   OH229620   2.561   1.732   0.561  0.0599  0.3997  0.1830
 2662TIP3    H129621   2.485   1.673   0.561 -0.0378  0.4295 -2.2791
 2662TIP3    H229622   2.607   1.711   0.642 -1.2923 -1.3236  0.5689
 2663TIP3   OH229623   0.164   4.717   0.755 -0.0024 -0.4748 -0.0219
 2663TIP3    H129624   0.150   4.807   0.723  1.4544  0.4688  1.8254
 2663TIP3    H229625   0.081   4.693   0.796 -0.3038  0.1578 -0.2482
 2664TIP3   OH229626   0.592   3.950   0.736 -0.1282  0.1266 -0.5864
 2664TIP3    H129627   0.547   3.866   0.728 -0.4832 -0.1189  2.4621
 2664TIP3    H229628   0.666   3.944   0.676  0.0359 -2.5154 -0.2531
 2665TIP3   OH229629   2.621   5.053   0.827  0.5120  0.4498  0.3060
 2665TIP3    H129630   2.549   5.075   0.887  2.2644  1.1624  2.2720
 2665TIP3    H229631   2.672   4.987   0.874  0.5958 -0.8482 -1.5104
 2666TIP3   OH229632   3.672   2.964   0.321  0.5657  0.5443 -0.0846
 2666TIP3    H129633   3.629   2.892   0.366  1.3702 -0.3510 -0.6878
 2666TIP3    H229634   3.705   3.021   0.391  0.7894 -0.2039  0.4259
 2667TIP3   OH229635   3.208   5.577   3.154 -0.3144 -0.2501  0.1566
 2667TIP3    H129636   3.246   5.575   3.066  0.4460 -1.7730  0.4812
 2667TIP3    H229637   3.204   5.485   3.181 -1.3217  0.1241  1.3904
 2668TIP3   OH229638   5.614   2.163   3.946 -0.2668  0.2858 -0.5369
 2668TIP3    H129639   5.608   2.256   3.925 -3.8056  0.2814 -0.1888
 2668TIP3    H229640   5.531   2.144   3.991  0.4789 -2.9794 -0.3245
 2669TIP3   OH229641   5.453   2.089   1.715 -0.1058 -0.1690 -0.0000
 2669TIP3    H129642   5.385   2.138   1.761  0.9876  0.7637  0.6871
 2669TIP3    H229643   5.508   2.052   1.784  0.4595 -0.3578 -0.5359
 2670TIP3   OH229644   4.147   2.322   0.057  0.0456 -0.3697 -0.3338
 2670TIP3    H129645   4.054   2.312   0.075  0.0569 -4.9766 -1.7100
 2670TIP3    H229646   4.150   2.354  -0.034 -0.2204 -0.7172 -0.4672
 2671TIP3   OH229647   6.164   5.305   1.315 -0.2709  0.3697 -0.1693
 2671TIP3    H129648   6.206   5.347   1.240  1.1163 -0.5622  0.0586
 2671TIP3    H229649   6.078   5.346   1.320 -0.6752 -0.0286 -2.6902
 2672TIP3   OH229650   2.093   0.086   8.785  0.2967 -0.6415 -0.1643
 2672TIP3    H129651   2.000   0.062   8.795 -0.2994  2.0727  2.5089
 2672TIP3    H229652   2.138   0.003   8.778 -2.3437 -2.0667 -2.2244
 2673TIP3   OH229653   5.695   3.945   3.462  0.1167  0.3455  0.1195
 2673TIP3    H129654   5.696   3.851   3.442 -1.6371  0.4681 -0.6938
 2673TIP3    H229655   5.782   3.975   3.438  1.1583 -1.2952  1.5995
 2674TIP3   OH229656   4.216   5.490   3.558  0.5871  0.2717  0.6611
 2674TIP3    H129657   4.171   5.525   3.635 -0.0113  0.6382  0.1573
 2674TIP3    H229658   4.270   5.419   3.591  0.2999  0.3998  1.4102
 2675TIP3   OH229659   1.435   6.421   1.912  0.9125 -0.1847 -0.7336
 2675TIP3    H129660   1.496   6.401   1.841  1.0331  1.4966 -1.1372
 2675TIP3    H229661   1.461   6.508   1.942 -1.7890  0.9724 -1.4962
 2676TIP3   OH229662   2.187   1.633   1.285  0.3488  0.2527 -0.2717
 2676TIP3    H129663   2.251   1.704   1.286  0.8340 -0.1725  0.1390
 2676TIP3    H229664   2.140   1.641   1.368 -1.4765  1.7125 -1.3662
 2677TIP3   OH229665   0.468   3.109   4.177  0.7984  0.1570 -0.0075
 2677TIP3    H129666   0.429   3.186   4.135  0.1268 -0.0149  0.2871
 2677TIP3    H229667   0.400   3.042   4.169  0.3620  0.3115  1.9618
 2678TIP3   OH229668   6.710   2.289   0.676 -0.0671 -0.0046 -0.5474
 2678TIP3    H129669   6.680   2.368   0.721 -1.8724 -2.1178  2.2480
 2678TIP3    H229670   6.664   2.291   0.592 -0.8316  1.4482 -0.1292
 2679TIP3   OH229671   3.520   4.508   0.828  0.0676  0.1424  0.6429
 2679TIP3    H129672   3.564   4.585   0.864 -0.5238 -0.5822  3.1306
 2679TIP3    H229673   3.581   4.437   0.842 -0.2848 -0.2046  0.4398
 2680TIP3   OH229674   1.041   5.374   2.088 -0.0444 -0.0798  0.0223
 2680TIP3    H129675   1.032   5.301   2.027  1.5323 -0.0220 -0.3384
 2680TIP3    H229676   0.952   5.407   2.101 -1.0332 -2.9230  1.3217
 2681TIP3   OH229677   3.735   3.501   0.053 -0.2936 -0.0371 -0.6008
 2681TIP3    H129678   3.808   3.563   0.052 -0.4500  0.1671 -2.3665
 2681TIP3    H229679   3.776   3.415   0.062  0.0080  0.2092  0.5210
 2682TIP3   OH229680   3.210   5.540   1.974 -0.4335 -0.1223  0.6629
 2682TIP3    H129681   3.280   5.530   2.038 -0.8799 -2.1700  0.9049
 2682TIP3    H229682   3.216   5.462   1.919 -0.0802  1.5460 -1.8394
 2683TIP3   OH229683   5.033   3.512   0.853 -0.0039 -0.5662  0.5725
 2683TIP3    H129684   5.108   3.455   0.871  1.1715  0.9657  0.6577
 2683TIP3    H229685   4.977   3.501   0.930  1.1775 -0.0963  1.5321
 2684TIP3   OH229686   5.345   0.233   2.004 -0.4334 -0.0257  0.5713
 2684TIP3    H129687   5.407   0.284   2.056 -0.5770 -3.0836  4.2127
 2684TIP3    H229688   5.399   0.166   1.962 -0.7262  0.5055 -0.7029
 2685TIP3   OH229689   0.680   0.748   2.444 -0.1152  0.5363 -0.2929
 2685TIP3    H129690   0.668   0.825   2.389 -1.2057  1.6448  1.4036
 2685TIP3    H229691   0.600   0.744   2.498 -0.2095 -1.9382 -0.5031
 2686TIP3   OH229692   2.644   5.916   2.913  0.1855  0.2132  0.2624
 2686TIP3    H129693   2.599   5.835   2.888  0.8327 -0.5295  1.3793
 2686TIP3    H229694   2.583   5.960   2.973  0.4196 -0.1919  0.8131
 2687TIP3   OH229695   6.476   4.880   0.132  0.5037 -0.1808 -0.0822
 2687TIP3    H129696   6.514   4.945   0.191  0.3427  1.3077 -1.5493
 2687TIP3    H229697   6.484   4.919   0.045  0.4660 -2.1736 -1.0385
 2688TIP3   OH229698   1.257   4.425   1.021  0.5803  0.0710  0.1493
 2688TIP3    H129699   1.308   4.347   1.000  1.4666  0.8745 -0.8269
 2688TIP3    H229700   1.188   4.428   0.955 -1.6129 -1.7024  2.2146
 2689TIP3   OH229701   5.987   4.272   2.491  0.7162  0.1962  0.8355
 2689TIP3    H129702   5.954   4.362   2.494  0.7519  0.3391 -1.4175
 2689TIP3    H229703   6.003   4.255   2.398  2.1312 -1.6388  1.3478
 2690TIP3   OH229704   2.296   0.160   1.608 -0.2474 -0.3630 -0.2591
 2690TIP3    H129705   2.227   0.225   1.621 -0.1756 -0.1916 -0.7320
 2690TIP3    H229706   2.332   0.146   1.695  1.1202  1.7479 -0.4071
 2691TIP3   OH229707   0.115   1.905   0.049  0.1697 -0.7571  0.1508
 2691TIP3    H129708   0.195   1.865   0.085 -0.8235 -2.7891  0.2220
 2691TIP3    H229709   0.138   1.928  -0.041  0.8997 -1.0948  0.2441
 2692TIP3   OH229710   2.460   6.750   2.967  0.1502 -0.4966 -0.0545
 2692TIP3    H129711   2.437   6.708   2.884 -0.2062  0.5911 -0.5421
 2692TIP3    H229712   2.445   6.844   2.950 -2.2408 -0.4170  1.9339
 2693TIP3   OH229713   0.909   0.768   0.960  0.1693 -0.0877 -0.2104
 2693TIP3    H129714   1.005   0.769   0.961  0.1671  0.3204  0.8517
 2693TIP3    H229715   0.886   0.784   0.869  1.1136 -2.0290 -0.8508
 2694TIP3   OH229716   6.417   2.301   2.023 -0.1698  0.5284 -0.0991
 2694TIP3    H129717   6.425   2.261   2.110  1.3167  2.3826  0.6679
 2694TIP3    H229718   6.322   2.313   2.012 -0.4779 -0.9766  0.6515
 2695TIP3   OH229719   4.543   4.131   4.152 -0.4192  0.1220  0.1704
 2695TIP3    H129720   4.499   4.118   4.236  1.4259 -2.7512  0.8420
 2695TIP3    H229721   4.615   4.191   4.171  0.3735 -1.0007  0.8906
 2696TIP3   OH229722   5.964   5.704   3.021  0.3088 -0.4970  0.3746
 2696TIP3    H129723   6.043   5.710   3.074  0.7104  0.9404 -0.3322
 2696TIP3    H229724   5.991   5.657   2.942  0.2714 -0.6634  0.4608
 2697TIP3   OH229725   5.377   6.095   2.475  0.0602  0.3431 -0.2815
 2697TIP3    H129726   5.337   6.155   2.538 -1.1466 -0.9935  0.2805
 2697TIP3    H229727   5.346   6.008   2.501  0.1206 -0.3321 -2.2881
 2698TIP3   OH229728   2.877   2.313   3.381 -0.2714  0.4848  0.3009
 2698TIP3    H129729   2.818   2.372   3.335  0.1755  0.1089 -0.7812
 2698TIP3    H229730   2.865   2.228   3.339 -1.2104 -0.3453  2.1056
 2699TIP3   OH229731   2.937   5.248   3.164  0.3748 -0.0190  0.9605
 2699TIP3    H129732   2.982   5.180   3.113  0.9711  0.2322  1.1456
 2699TIP3    H229733   3.000   5.273   3.231 -0.0253  0.3822  1.1894
 2700TIP3   OH229734   6.180   1.959   8.783 -0.3423  0.2601 -0.1499
 2700TIP3    H129735   6.169   2.020   8.857  0.4146  0.7040 -0.3933
 2700TIP3    H229736   6.170   1.872   8.822  0.9805  0.4520  0.6708
 2701TIP3   OH229737   2.811   4.876   3.970 -0.6316  0.4031  0.1373
 2701TIP3    H129738   2.725   4.912   3.949  0.0195  2.6224  0.9537
 2701TIP3    H229739   2.792   4.803   4.030 -2.0455 -1.2521 -2.1815
 2702TIP3   OH229740   6.818   5.040   1.676  0.2058 -0.0328  0.2270
 2702TIP3    H129741   6.858   4.955   1.664 -0.8593 -0.4635 -0.5138
 2702TIP3    H229742   6.763   5.031   1.753 -0.3678 -0.2128 -0.1949
 2703TIP3   OH229743   0.603   1.176   3.265  0.3739 -0.3402  0.0341
 2703TIP3    H129744   0.627   1.157   3.356 -0.8052 -1.5505  0.1236
 2703TIP3    H229745   0.640   1.263   3.248 -0.0510  0.2545  1.9210
 2704TIP3   OH229746   1.710   4.342   0.474  0.3838 -0.5196  0.1423
 2704TIP3    H129747   1.622   4.307   0.466 -0.2864  0.5600  2.0875
 2704TIP3    H229748   1.710   4.421   0.421  0.5707 -1.1160 -0.7777
 2705TIP3   OH229749   3.738   6.269   0.635  0.1530 -0.5891 -0.0221
 2705TIP3    H129750   3.750   6.335   0.567  1.0197 -2.3659 -1.6588
 2705TIP3    H229751   3.714   6.189   0.588 -1.4875 -1.3479  1.9443
 2706TIP3   OH229752   2.425   3.025   1.884  0.0556  0.5163  0.9266
 2706TIP3    H129753   2.505   2.975   1.872  0.6306  1.4846  0.5619
 2706TIP3    H229754   2.382   3.023   1.798  0.3814  1.1225  0.7391
 2707TIP3   OH229755   0.256   0.124   2.935  0.2705 -0.1375 -0.2325
 2707TIP3    H129756   0.275   0.163   2.850  0.7199 -0.6271 -0.3584
 2707TIP3    H229757   0.271   0.030   2.923  1.0075 -0.1405  0.5633
 2708TIP3   OH229758   1.166   6.738   0.075 -0.0010  0.1369 -0.3117
 2708TIP3    H129759   1.193   6.810   0.133 -2.0946  0.0293  0.8831
 2708TIP3    H229760   1.245   6.685   0.065  1.3088  1.9979 -0.3457
 2709TIP3   OH229761   4.557   5.021   2.316 -0.1702  0.5873  0.6053
 2709TIP3    H129762   4.527   5.111   2.327  0.0688  0.7816 -0.2155
 2709TIP3    H229763   4.652   5.026   2.326 -0.3286  0.0520  2.7431
 2710TIP3   OH229764   1.430   2.772   1.126  0.1396  0.0053 -0.1965
 2710TIP3    H129765   1.350   2.774   1.073 -0.2781  0.7286  0.4325
 2710TIP3    H229766   1.424   2.851   1.181  1.5658  0.3889 -0.5494
 2711TIP3   OH229767   1.837   5.088   1.811 -0.1453  0.4445  0.5456
 2711TIP3    H129768   1.896   5.114   1.740  1.3971 -1.1897  1.1327
 2711TIP3    H229769   1.756   5.063   1.768  0.0577  1.4198 -0.4394
 2712TIP3   OH229770   3.504   4.794   2.352  0.9605  0.2466  0.4825
 2712TIP3    H129771   3.531   4.878   2.388 -0.8047  0.9401  0.3085
 2712TIP3    H229772   3.441   4.817   2.283  0.8068 -1.1973  0.1085
 2713TIP3   OH229773   2.628   5.187   0.328 -0.4507  0.2746  0.2173
 2713TIP3    H129774   2.553   5.200   0.270  0.0945  0.9995 -0.3392
 2713TIP3    H229775   2.643   5.092   0.327  0.6798  0.4189 -2.3069
 2714TIP3   OH229776   4.256   0.026   0.483  0.8840  0.1348  0.6973
 2714TIP3    H129777   4.351   0.027   0.487  0.8687  1.2717  1.2628
 2714TIP3    H229778   4.229   0.104   0.533 -0.3110  0.2567 -0.0874
 2715TIP3   OH229779   5.577   6.304   3.486  0.0679 -0.0841 -0.0780
 2715TIP3    H129780   5.562   6.274   3.396  1.4767  0.3748 -0.4862
 2715TIP3    H229781   5.581   6.399   3.479 -0.6577  0.0009  0.6148
 2716TIP3   OH229782   3.069   2.402   2.612  0.0011  0.0234 -0.4382
 2716TIP3    H129783   3.020   2.341   2.667 -0.4444 -0.3340 -1.2200
 2716TIP3    H229784   3.090   2.475   2.671  1.3533 -1.2754  0.7700
 2717TIP3   OH229785   3.089   1.161   2.901  0.5772 -0.3006  0.0124
 2717TIP3    H129786   3.086   1.164   2.806 -1.9297  0.7100  0.0465
 2717TIP3    H229787   3.037   1.236   2.929 -1.6869 -2.4618  2.1198
 2718TIP3   OH229788   1.831   3.839   2.293 -0.0310 -0.1392 -0.2942
 2718TIP3    H129789   1.861   3.783   2.365  0.1629  1.2238  0.7341
 2718TIP3    H229790   1.821   3.925   2.333  0.5454  0.7720 -2.0239
 2719TIP3   OH229791   2.409   2.548   8.689  0.4166 -0.2794 -0.0602
 2719TIP3    H129792   2.337   2.609   8.705 -0.5420 -1.4436  0.2340
 2719TIP3    H229793   2.487   2.603   8.682 -0.6000  1.0813 -1.0986
 2720TIP3   OH229794   2.225   3.749   8.197 -0.2683  0.1690  0.3282
 2720TIP3    H129795   2.132   3.768   8.183 -0.2799 -0.6246 -0.8248
 2720TIP3    H229796   2.264   3.834   8.218 -0.9345  0.8422 -1.0352
 2721TIP3   OH229797   1.185   4.074   2.548 -0.1742 -0.6350 -0.3279
 2721TIP3    H129798   1.209   4.062   2.456 -1.4043 -0.6213 -0.6611
 2721TIP3    H229799   1.103   4.026   2.559 -0.2049 -0.3862  0.6874
 2722TIP3   OH229800   1.529   5.679   8.434  0.5219  0.0445  0.0010
 2722TIP3    H129801   1.603   5.665   8.375 -0.0357 -0.0678 -0.6924
 2722TIP3    H229802   1.455   5.636   8.391  0.1604 -0.3097  0.9401
 2723TIP3   OH229803   1.422   0.171   8.574  0.1192 -0.2228 -0.1380
 2723TIP3    H129804   1.350   0.131   8.623  0.5011 -2.7543 -1.4510
 2723TIP3    H229805   1.499   0.120   8.601  0.6616 -0.3321 -1.7993
 2724TIP3   OH229806   1.080   1.762   3.566  0.0242 -0.1015  0.0442
 2724TIP3    H129807   1.105   1.674   3.593  1.2423  0.2817  0.2222
 2724TIP3    H229808   1.163   1.809   3.555 -0.4925  0.4492 -2.0643
 2725TIP3   OH229809   6.283   0.829   1.620 -0.1083 -0.2729 -0.6068
 2725TIP3    H129810   6.299   0.793   1.533 -0.4924  0.8015 -1.1383
 2725TIP3    H229811   6.279   0.923   1.606 -0.9000 -0.1394  0.4630
 2726TIP3   OH229812   0.576   4.397   8.523 -0.1775 -0.7168 -0.3426
 2726TIP3    H129813   0.490   4.356   8.526 -0.5033 -0.0046  0.4760
 2726TIP3    H229814   0.561   4.482   8.481 -0.0420 -0.2287  0.5674
 2727TIP3   OH229815   1.310   4.671   1.100 -0.0542 -0.1037  0.0020
 2727TIP3    H129816   1.260   4.720   1.035  0.1551 -1.1677 -0.9985
 2727TIP3    H229817   1.308   4.580   1.069  1.3087 -0.3969  0.6739
 2728TIP3   OH229818   2.863   4.026   1.743  0.1757  0.4626 -0.3435
 2728TIP3    H129819   2.878   4.052   1.652  0.7254  0.3385 -0.2964
 2728TIP3    H229820   2.800   3.955   1.738  0.7703 -0.0556 -0.6968
 2729TIP3   OH229821   6.805   0.311   8.370 -0.1452 -0.1416  0.0704
 2729TIP3    H129822   6.759   0.331   8.288 -0.9657 -0.9200  0.3168
 2729TIP3    H229823   6.756   0.237   8.406  2.1490 -1.9730 -0.3411
 2730TIP3   OH229824   4.656   1.749   1.056  0.0014 -0.3727 -0.2159
 2730TIP3    H129825   4.582   1.762   0.997  0.2225 -2.4406 -1.0469
 2730TIP3    H229826   4.684   1.837   1.081 -0.7039  0.5456 -2.4541
 2731TIP3   OH229827   6.527   1.397   2.669 -0.0579 -0.0720  0.1918
 2731TIP3    H129828   6.611   1.421   2.631 -0.3952  1.5972  0.3995
 2731TIP3    H229829   6.462   1.439   2.613 -0.8563 -2.3368 -0.6903
 2732TIP3   OH229830   0.473   3.375   2.249  0.5220 -0.0518  0.1909
 2732TIP3    H129831   0.387   3.347   2.281  0.8425  0.1917  1.3374
 2732TIP3    H229832   0.502   3.440   2.313  1.8086 -0.5630  0.1607
 2733TIP3   OH229833   5.534   5.038   0.257  0.0618 -0.1250  0.1386
 2733TIP3    H129834   5.442   5.052   0.237  0.2217  1.2050  0.2803
 2733TIP3    H229835   5.580   5.110   0.213  0.8311  0.3939  1.7104
 2734TIP3   OH229836   2.488   5.217   1.262  0.1131  0.5187 -0.3065
 2734TIP3    H129837   2.464   5.309   1.253 -0.4678  0.4259  0.1988
 2734TIP3    H229838   2.553   5.216   1.332 -1.0376  0.3870  0.8033
 2735TIP3   OH229839   5.447   0.519   3.553 -0.4261  0.0879 -0.4482
 2735TIP3    H129840   5.473   0.540   3.463  2.1687  0.2638  0.2455
 2735TIP3    H229841   5.442   0.604   3.597  0.2503 -0.0874 -0.0043
 2736TIP3   OH229842   5.657   2.109   0.257  0.4334 -0.0292 -0.1913
 2736TIP3    H129843   5.681   2.192   0.216 -0.8440  1.6385  2.1205
 2736TIP3    H229844   5.571   2.088   0.220 -0.8154  1.5811  1.5806
 2737TIP3   OH229845   0.179   4.864   1.612 -0.1374 -0.1507  0.6699
 2737TIP3    H129846   0.265   4.836   1.644  0.8349  0.2100 -1.4542
 2737TIP3    H229847   0.137   4.783   1.584 -1.4687 -0.6353  3.6528
 2738TIP3   OH229848   0.087   0.445   1.804  0.1693 -0.1682 -0.1402
 2738TIP3    H129849  -0.004   0.415   1.806  0.4204 -1.0382 -0.7699
 2738TIP3    H229850   0.131   0.381   1.748  0.9041  0.9695 -0.8920
 2739TIP3   OH229851   2.315   0.953   4.073  0.0796 -0.1110  0.0048
 2739TIP3    H129852   2.233   0.910   4.048  0.1864 -0.1069 -0.3681
 2739TIP3    H229853   2.372   0.880   4.099  0.5542 -0.3122 -1.4679
 2740TIP3   OH229854   0.327   0.023   0.307 -0.2019 -0.3793  0.5286
 2740TIP3    H129855   0.387   0.092   0.279  1.2231 -1.4714  0.7696
 2740TIP3    H229856   0.282   0.060   0.383 -0.8628  0.9645 -0.4771
 2741TIP3   OH229857   1.242   4.873   8.841  0.0505  0.0899  0.4698
 2741TIP3    H129858   1.286   4.908   8.763 -0.2173  0.6220  0.5498
 2741TIP3    H229859   1.288   4.792   8.861 -0.2714 -0.3768 -0.6069
 2742TIP3   OH229860   5.637   5.545   1.899  0.1521  0.1409 -0.4732
 2742TIP3    H129861   5.560   5.518   1.948 -0.9757  0.6748 -1.8830
 2742TIP3    H229862   5.695   5.583   1.965 -1.8011  1.9467  0.3301
 2743TIP3   OH229863   2.364   5.432   2.054 -0.5325  0.3364 -0.3354
 2743TIP3    H129864   2.344   5.390   1.970 -0.1670 -0.2941 -0.1148
 2743TIP3    H229865   2.387   5.360   2.112 -1.5025  0.7014  0.5243
 2744TIP3   OH229866   5.853   6.389   0.937  0.1821 -0.3818  0.5461
 2744TIP3    H129867   5.926   6.418   0.993  1.2455 -0.7499 -0.5976
 2744TIP3    H229868   5.854   6.294   0.944  0.2871 -0.4280 -0.0293
 2745TIP3   OH229869   1.105   4.511   8.563  0.0713  0.0341  0.0280
 2745TIP3    H129870   1.089   4.461   8.643 -0.5308  2.7498  1.7619
 2745TIP3    H229871   1.076   4.600   8.585  0.4141  1.0175 -3.0612
 2746TIP3   OH229872   4.381   0.527   0.146  0.0021 -0.0128  0.6745
 2746TIP3    H129873   4.366   0.618   0.171  2.0874  0.6104 -0.1333
 2746TIP3    H229874   4.470   0.525   0.113  0.2212 -2.4935  1.1860
 2747TIP3   OH229875   2.590   1.850   4.354  0.3512 -0.2975 -0.2345
 2747TIP3    H129876   2.556   1.895   4.276 -2.2388  1.0116  1.4794
 2747TIP3    H229877   2.567   1.758   4.341 -2.8922  0.3177  0.1697
 2748TIP3   OH229878   1.282   1.937   0.188  0.2498  0.0772 -0.0734
 2748TIP3    H129879   1.249   2.025   0.208 -0.3525  0.0900 -1.0492
 2748TIP3    H229880   1.209   1.879   0.210 -0.3597  0.0712 -1.9158
 2749TIP3   OH229881   5.875   6.065   0.689 -0.7780 -0.7197  0.2013
 2749TIP3    H129882   5.966   6.080   0.715 -0.1239 -1.5913 -1.4190
 2749TIP3    H229883   5.825   6.071   0.770  0.5148  1.3301  0.9037
 2750TIP3   OH229884   4.389   1.148   2.003  0.2459 -0.4370  0.2302
 2750TIP3    H129885   4.421   1.141   2.093 -1.3099 -1.6430  0.7326
 2750TIP3    H229886   4.459   1.194   1.956  2.6165 -2.6846  1.2895
 2751TIP3   OH229887   1.328   2.279   0.967  0.2331  0.0733  0.5223
 2751TIP3    H129888   1.330   2.329   0.886  1.3014 -0.0377  0.4742
 2751TIP3    H229889   1.374   2.333   1.031  2.1207 -1.1634  0.2686
 2752TIP3   OH229890   4.612   4.248   2.420 -0.3284 -0.4949  0.2703
 2752TIP3    H129891   4.638   4.224   2.331 -0.3022 -1.7336  0.5910
 2752TIP3    H229892   4.568   4.333   2.411  2.1460  0.7815 -0.5333
 2753TIP3   OH229893   3.759   0.974   0.484 -0.1602  0.2373  0.0360
 2753TIP3    H129894   3.726   1.063   0.502  0.7765  0.5161  0.4678
 2753TIP3    H229895   3.728   0.954   0.396  0.4632  1.4124 -0.4733
 2754TIP3   OH229896   5.383   4.665   0.189  0.1588 -0.2268  0.1017
 2754TIP3    H129897   5.294   4.679   0.219 -0.2665  0.1874 -1.2604
 2754TIP3    H229898   5.373   4.614   0.108  0.9995  1.3101 -1.0314
 2755TIP3   OH229899   2.513   5.714   2.820 -0.0536 -0.1268  0.0473
 2755TIP3    H129900   2.593   5.663   2.809  0.5018  0.9388 -0.9662
 2755TIP3    H229901   2.464   5.701   2.739 -1.0622 -0.9559  0.7402
 2756TIP3   OH229902   6.760   6.245   1.778  0.0811 -0.0301  0.5539
 2756TIP3    H129903   6.737   6.320   1.832  0.8616  1.5487 -1.1884
 2756TIP3    H229904   6.806   6.186   1.838 -0.7129  0.7644  2.0114
 2757TIP3   OH229905   4.574   4.217   0.552 -0.0659  0.0143  0.1768
 2757TIP3    H129906   4.619   4.139   0.585  0.8455  1.0892  1.5906
 2757TIP3    H229907   4.635   4.288   0.569 -0.7552  1.0260 -1.3542
 2758TIP3   OH229908   3.991   2.360   0.963 -0.0319  0.3605  0.0550
 2758TIP3    H129909   4.021   2.299   0.895 -0.5760  1.1042 -0.8773
 2758TIP3    H229910   3.997   2.446   0.922 -0.0600  0.8541  1.0742
 2759TIP3   OH229911   2.412   3.339   1.030  0.0344 -0.4277 -0.4023
 2759TIP3    H129912   2.380   3.405   0.968  1.9514  0.7615 -0.2206
 2759TIP3    H229913   2.489   3.302   0.987 -0.0663 -1.3801  0.2130
 2760TIP3   OH229914   3.770   5.774   0.144 -0.0025  0.1201 -0.3339
 2760TIP3    H129915   3.845   5.715   0.157 -0.2173 -0.2059 -0.5376
 2760TIP3    H229916   3.782   5.808   0.056  0.4491  0.8635  0.0102
 2761TIP3   OH229917   5.333   4.952   0.949 -0.2001  0.0331  0.1549
 2761TIP3    H129918   5.328   4.966   1.043 -0.8835 -1.3182  0.3477
 2761TIP3    H229919   5.412   4.998   0.921 -1.3811  2.7276  0.9322
 2762TIP3   OH229920   5.845   2.589   0.911  0.6099  0.2626 -0.2207
 2762TIP3    H129921   5.831   2.677   0.877 -0.7653  0.3570  0.5032
 2762TIP3    H229922   5.851   2.600   1.006  0.0834 -0.4439 -0.0908
 2763TIP3   OH229923   4.656   1.306   2.035 -0.7174  0.5082 -0.2083
 2763TIP3    H129924   4.624   1.396   2.046 -2.4926 -0.2189  1.1235
 2763TIP3    H229925   4.628   1.282   1.946  0.2378  1.4196 -0.7724
 2764TIP3   OH229926   4.480   2.711   1.046 -0.2652 -0.0381  0.0315
 2764TIP3    H129927   4.533   2.638   1.079 -0.2681  0.7952  2.0413
 2764TIP3    H229928   4.545   2.775   1.015  0.1128  1.3316  3.2346
 2765TIP3   OH229929   2.979   6.733   3.055  0.0599 -0.2418  0.4732
 2765TIP3    H129930   3.043   6.771   3.115  0.1227 -0.8270  0.7913
 2765TIP3    H229931   3.029   6.669   3.005 -0.4194 -1.2751  1.2706
 2766TIP3   OH229932   0.775   0.332   4.036  0.3481  0.0632  0.2317
 2766TIP3    H129933   0.740   0.290   3.957 -0.1695 -0.7546  0.8762
 2766TIP3    H229934   0.847   0.386   4.005  1.6433 -1.9907 -0.5564
 2767TIP3   OH229935   0.419   5.288   2.359  0.2086  0.3590  0.5184
 2767TIP3    H129936   0.390   5.364   2.409  0.5664  1.8767 -1.4602
 2767TIP3    H229937   0.514   5.291   2.362  0.2298  0.2164  0.0953
 2768TIP3   OH229938   1.546   1.160   1.073  0.0637 -0.0547 -0.1038
 2768TIP3    H129939   1.508   1.209   0.999 -0.1631  3.7049  2.2198
 2768TIP3    H229940   1.640   1.167   1.060  0.0385 -0.7740 -0.7787
 2769TIP3   OH229941   2.407   3.983   4.359 -0.3651  0.0286  0.8519
 2769TIP3    H129942   2.478   4.019   4.306 -0.2965 -1.2813  0.0009
 2769TIP3    H229943   2.353   4.059   4.382 -0.3395  0.6707 -1.0243
 2770TIP3   OH229944   6.572   0.649   3.157 -0.0669  0.0606 -0.0581
 2770TIP3    H129945   6.568   0.554   3.158  2.0083 -0.0847 -0.2472
 2770TIP3    H229946   6.559   0.672   3.065  3.1052 -0.3850 -0.7481
 2771TIP3   OH229947   4.764   5.178   8.709 -0.2597 -0.6329 -0.1055
 2771TIP3    H129948   4.792   5.269   8.699 -1.3383 -0.1717  0.8744
 2771TIP3    H229949   4.840   5.134   8.748 -0.7218  0.5583  2.3268
 2772TIP3   OH229950   3.261   1.657   2.801  0.0975  0.0644 -0.1564
 2772TIP3    H129951   3.332   1.717   2.823  0.4453 -0.5718  0.4814
 2772TIP3    H229952   3.303   1.572   2.792 -0.5530 -0.2800  0.0113
 2773TIP3   OH229953   4.504   4.409   1.923  0.1712  0.4398 -0.3209
 2773TIP3    H129954   4.494   4.315   1.929  1.2091  0.2929 -0.5959
 2773TIP3    H229955   4.535   4.436   2.010 -2.7694  0.9452  0.6648
 2774TIP3   OH229956   1.389   2.090   3.677  0.3776 -0.3353 -0.1562
 2774TIP3    H129957   1.360   2.117   3.764 -0.7263  1.3332 -0.9917
 2774TIP3    H229958   1.458   2.153   3.654  0.6745 -0.7741 -0.4944
 2775TIP3   OH229959   4.372   3.860   0.626  0.2121  0.2910  0.3253
 2775TIP3    H129960   4.289   3.815   0.639  0.4084  0.0901  0.9278
 2775TIP3    H229961   4.429   3.826   0.695  0.9945 -0.0595 -0.4600
 2776TIP3   OH229962   2.346   1.767   0.106 -0.4726  0.2630 -0.0075
 2776TIP3    H129963   2.324   1.828   0.176  0.1579  0.3913  0.0771
 2776TIP3    H229964   2.269   1.768   0.049  0.3472  2.8197 -1.2085
 2777TIP3   OH229965   4.921   0.974   0.960  0.2177 -0.5793  0.1553
 2777TIP3    H129966   4.954   0.983   1.049  0.2570 -0.5183  0.1344
 2777TIP3    H229967   4.941   1.057   0.918  0.2824 -0.6412  0.0618
 2778TIP3   OH229968   1.365   0.943   3.408 -0.5512  0.3880  0.4362
 2778TIP3    H129969   1.394   0.858   3.440 -0.4484 -0.0950 -0.8931
 2778TIP3    H229970   1.277   0.954   3.444 -1.7455 -1.5841 -1.5946
 2779TIP3   OH229971   1.181   4.485   2.070  0.0340  0.1200 -0.8211
 2779TIP3    H129972   1.276   4.480   2.086 -0.1858  0.9487  0.9468
 2779TIP3    H229973   1.143   4.497   2.156 -1.8335 -1.7141 -1.3165
 2780TIP3   OH229974   4.665   5.742   8.692 -0.1479  0.1577  0.7945
 2780TIP3    H129975   4.636   5.718   8.780  0.0783  0.0268  0.8363
 2780TIP3    H229976   4.611   5.690   8.633 -1.8469  1.8364  0.7516
 2781TIP3   OH229977   3.613   0.114   1.560 -0.5505  0.9309 -0.2085
 2781TIP3    H129978   3.550   0.165   1.611 -0.3103  1.1254 -0.1033
 2781TIP3    H229979   3.653   0.056   1.625 -0.3344  1.0900 -0.1983
 2782TIP3   OH229980   5.828   6.216   7.860  0.3260 -0.3422 -0.0538
 2782TIP3    H129981   5.873   6.293   7.894  1.2344 -1.1027  0.5266
 2782TIP3    H229982   5.894   6.147   7.862 -0.2882 -0.9907 -1.1460
 2783TIP3   OH229983   3.467   5.475   1.507 -0.7227 -0.5100  0.3229
 2783TIP3    H129984   3.478   5.391   1.463  0.9048 -0.3584  0.4058
 2783TIP3    H229985   3.430   5.533   1.440 -1.5614 -1.1920  0.1826
 2784TIP3   OH229986   5.774   6.016   3.073  0.0630 -0.4447  0.2397
 2784TIP3    H129987   5.811   5.982   3.154 -0.0563  0.8801  0.8879
 2784TIP3    H229988   5.849   6.041   3.020  0.2674 -3.7458 -1.2688
 2785TIP3   OH229989   1.948   6.068   1.440  0.2085  0.0238  0.4734
 2785TIP3    H129990   1.928   6.006   1.510  1.1657 -0.0625  0.6808
 2785TIP3    H229991   1.957   6.152   1.485  0.5510  0.0166  0.4228
 2786TIP3   OH229992   3.026   4.160   8.383 -0.2402 -0.2303 -0.2351
 2786TIP3    H129993   2.983   4.233   8.427 -0.4043  0.2103 -1.0929
 2786TIP3    H229994   3.075   4.201   8.311  0.1443 -0.9073 -0.3696
 2787TIP3   OH229995   3.042   6.422   1.087  0.1573 -0.2924 -0.5029
 2787TIP3    H129996   3.109   6.488   1.107  0.7783 -0.1970 -2.6634
 2787TIP3    H229997   3.084   6.339   1.107  0.6538 -0.1896 -1.0807
 2788TIP3   OH229998   3.688   5.940   1.017  0.3219 -0.0296 -0.5690
 2788TIP3    H129999   3.691   5.920   1.111  0.0135  0.8748 -0.3569
 2788TIP3    H230000   3.702   5.856   0.974 -1.3563 -0.7873  0.2706
 2789TIP3   OH230001   6.549   5.194   8.243 -0.3719 -0.2478 -0.4619
 2789TIP3    H130002   6.582   5.108   8.268 -0.0520 -0.5328 -1.7563
 2789TIP3    H230003   6.493   5.221   8.315 -1.0808 -1.8883 -0.3575
 2790TIP3   OH230004   6.296   0.131   8.724  0.0026 -0.1124  1.0795
 2790TIP3    H130005   6.314   0.200   8.788 -1.8013 -0.2456  1.7775
 2790TIP3    H230006   6.216   0.090   8.755 -0.1779 -1.0665 -0.5595
 2791TIP3   OH230007   1.224   6.070   3.252  0.4235  0.6159  0.2957
 2791TIP3    H130008   1.210   6.025   3.335  1.0793  0.3123  0.2494
 2791TIP3    H230009   1.262   6.154   3.277 -0.1109  0.8480  0.3412
 2792TIP3   OH230010   4.407   5.796   1.634 -0.0682  0.2965 -0.1732
 2792TIP3    H130011   4.334   5.857   1.644 -0.2605  0.0431 -0.0274
 2792TIP3    H230012   4.370   5.721   1.588  0.0100  0.0071  0.2264
 2793TIP3   OH230013   1.010   1.877   2.653  0.1630  0.1698 -0.1274
 2793TIP3    H130014   1.080   1.828   2.695  0.0632 -0.7142 -0.9711
 2793TIP3    H230015   1.055   1.948   2.606  0.4977 -0.3450 -0.5982
 2794TIP3   OH230016   0.500   4.309   3.766 -0.3605  0.0292  0.3032
 2794TIP3    H130017   0.445   4.271   3.834 -0.9210 -1.1095 -0.7476
 2794TIP3    H230018   0.545   4.382   3.809 -2.4144  0.7901  1.2706
 2795TIP3   OH230019   5.016   3.557   8.235 -0.1265 -0.3457 -0.7405
 2795TIP3    H130020   5.017   3.637   8.289 -1.7069  0.1427 -1.3766
 2795TIP3    H230021   4.949   3.502   8.275 -0.1898 -0.6525 -1.2627
 2796TIP3   OH230022   1.627   3.021   1.170  0.2525  0.1323  0.3217
 2796TIP3    H130023   1.605   3.066   1.088  1.2922  0.5912  0.2791
 2796TIP3    H230024   1.591   3.076   1.239 -1.3389 -0.6676  0.1687
 2797TIP3   OH230025   3.198   2.356   3.406  0.6414  0.4645  0.2080
 2797TIP3    H130026   3.177   2.262   3.403  4.1663 -0.4796 -0.1214
 2797TIP3    H230027   3.124   2.398   3.363 -0.1298 -2.4111 -1.6285
 2798TIP3   OH230028   1.851   2.404   8.284  0.0332  1.0319  0.6546
 2798TIP3    H130029   1.825   2.482   8.332  2.6035  1.0082  2.3260
 2798TIP3    H230030   1.921   2.434   8.226 -0.5322  0.3644 -0.3977
 2799TIP3   OH230031   4.826   3.141   1.908 -1.0018  0.2350 -0.1946
 2799TIP3    H130032   4.858   3.134   1.818 -0.0305 -2.3904  0.2696
 2799TIP3    H230033   4.731   3.138   1.900 -0.9462  0.6187 -1.1552
 2800TIP3   OH230034   5.934   6.013   8.162  0.4493 -0.3461  0.0787
 2800TIP3    H130035   5.911   5.952   8.092  1.7022 -0.8347  0.0701
 2800TIP3    H230036   5.986   5.961   8.224 -1.8165 -0.3264  2.1649
 2801TIP3   OH230037   2.293   3.962   4.017 -0.3777  0.5865 -0.8228
 2801TIP3    H130038   2.331   4.043   4.052  0.9107  0.5101 -1.9747
 2801TIP3    H230039   2.279   3.907   4.094  3.3692 -0.0123 -0.4067
 2802TIP3   OH230040   5.532   5.783   2.800  0.1639  0.3470 -0.0112
 2802TIP3    H130041   5.598   5.723   2.836  0.4090  1.2584  1.1110
 2802TIP3    H230042   5.453   5.764   2.852  0.0053  0.3980 -0.2341
 2803TIP3   OH230043   1.272   6.629   0.709  0.0090 -0.0642  0.2512
 2803TIP3    H130044   1.180   6.655   0.713 -0.0404 -0.2886  0.5513
 2803TIP3    H230045   1.317   6.708   0.677  0.0415  0.8899  2.4777
 2804TIP3   OH230046   4.123   6.222   1.683 -0.0565 -0.4920  0.5851
 2804TIP3    H130047   4.076   6.299   1.716 -3.1158 -1.3345 -1.3585
 2804TIP3    H230048   4.146   6.245   1.594 -1.3845 -1.8793 -0.1684
 2805TIP3   OH230049   3.948   1.729   3.894  0.1184 -0.8036 -0.4983
 2805TIP3    H130050   3.972   1.689   3.811  0.8709 -0.5342 -0.4135
 2805TIP3    H230051   3.854   1.745   3.886  0.1068 -1.1513 -1.1332
 2806TIP3   OH230052   6.514   5.754   1.508 -0.2514 -0.3254 -0.0777
 2806TIP3    H130053   6.460   5.691   1.556 -1.5380  1.4789  0.9689
 2806TIP3    H230054   6.603   5.721   1.518 -0.5280 -0.4324  3.0866
 2807TIP3   OH230055   6.634   1.787   8.675  0.1976 -0.8531 -0.3936
 2807TIP3    H130056   6.700   1.852   8.651 -0.2935 -0.8273 -1.7605
 2807TIP3    H230057   6.553   1.821   8.639 -0.1942 -1.8812 -0.5081
 2808TIP3   OH230058   2.997   3.293   0.584 -0.4145 -0.3054  0.0071
 2808TIP3    H130059   3.053   3.371   0.587  0.1919 -0.7099 -0.4247
 2808TIP3    H230060   3.038   3.232   0.644  0.0118 -0.8547 -0.8204
 2809TIP3   OH230061   2.656   2.460   1.391 -0.4030  0.1407  0.1766
 2809TIP3    H130062   2.732   2.516   1.372 -0.0431 -0.1945  0.6039
 2809TIP3    H230063   2.645   2.408   1.311  1.7102 -1.9462  1.1216
 2810TIP3   OH230064   4.859   0.206   0.475  0.0986 -0.2202  0.6624
 2810TIP3    H130065   4.834   0.126   0.522  2.4826 -0.6104  1.3795
 2810TIP3    H230066   4.911   0.255   0.539 -0.2625  1.3274 -0.1955
 2811TIP3   OH230067   5.852   4.103   0.432  0.2569  0.0324 -0.4454
 2811TIP3    H130068   5.890   4.016   0.423 -0.3115 -0.1284 -1.3849
 2811TIP3    H230069   5.801   4.116   0.352 -1.3485  0.3941  0.5980
 2812TIP3   OH230070   4.735   6.775   0.275  0.0504 -0.2430  0.9528
 2812TIP3    H130071   4.775   6.817   0.351 -0.4246  0.6011  0.7554
 2812TIP3    H230072   4.803   6.778   0.208 -0.3667  1.3732  0.5532
 2813TIP3   OH230073   5.684   1.786   2.741  0.2566  0.0913 -0.3285
 2813TIP3    H130074   5.760   1.759   2.792 -0.3099  0.1544  0.5785
 2813TIP3    H230075   5.661   1.872   2.776  0.3575  0.5222 -1.2794
 2814TIP3   OH230076   5.855   4.392   3.323  0.0764 -0.0460 -0.3712
 2814TIP3    H130077   5.931   4.366   3.374 -1.0287  0.4855  1.6451
 2814TIP3    H230078   5.868   4.485   3.306 -0.1122  0.0480 -0.0142
 2815TIP3   OH230079   3.857   1.509   2.784  0.0084 -0.2895  0.2962
 2815TIP3    H130080   3.905   1.470   2.710 -0.4299  0.1848 -0.2495
 2815TIP3    H230081   3.855   1.440   2.850  0.3796 -0.7356 -0.1492
 2816TIP3   OH230082   6.667   0.646   8.455 -0.0764 -0.4238  0.1947
 2816TIP3    H130083   6.722   0.630   8.378 -0.2755 -0.7477  0.1182
 2816TIP3    H230084   6.601   0.709   8.425  0.7387  0.6099  0.5104
 2817TIP3   OH230085   0.304   2.627   3.232 -0.9097  0.5834  0.3627
 2817TIP3    H130086   0.301   2.721   3.214 -1.3864  0.6492  0.7478
 2817TIP3    H230087   0.362   2.618   3.308 -2.7262  0.8459  1.8604
 2818TIP3   OH230088   4.767   3.366   2.309  0.2654 -0.2049  0.2659
 2818TIP3    H130089   4.831   3.428   2.345  0.1051 -0.7961  1.6166
 2818TIP3    H230090   4.774   3.378   2.214  0.3792  1.7391  0.4708
 2819TIP3   OH230091   2.547   2.253   3.072 -0.5112 -0.5570  0.6241
 2819TIP3    H130092   2.478   2.195   3.103  0.9643 -1.0755  3.1782
 2819TIP3    H230093   2.542   2.329   3.129  1.8785 -1.2463  1.8800
 2820TIP3   OH230094   1.772   2.492   0.247 -0.1269  0.1975 -0.3595
 2820TIP3    H130095   1.829   2.524   0.177 -1.1064 -1.3420 -1.9314
 2820TIP3    H230096   1.683   2.512   0.217 -0.5231  1.1258  1.3065
 2821TIP3   OH230097   0.324   1.117   1.698  0.3171 -0.0948 -0.2252
 2821TIP3    H130098   0.282   1.192   1.741  0.0052 -0.2674 -0.2228
 2821TIP3    H230099   0.318   1.047   1.763  0.8865 -0.0380 -0.1078
 2822TIP3   OH230100   1.112   0.172   0.459  0.0005 -0.6228  0.5740
 2822TIP3    H130101   1.182   0.237   0.462 -1.7068  1.3983 -0.9620
 2822TIP3    H230102   1.037   0.214   0.502 -0.3689 -2.7214  2.1701
 2823TIP3   OH230103   6.568   4.999   1.433 -0.0513 -0.0320  0.1922
 2823TIP3    H130104   6.644   4.942   1.445  1.5320  2.0155  0.5050
 2823TIP3    H230105   6.547   5.031   1.521 -0.1523  0.7566 -0.1083
 2824TIP3   OH230106   5.628   2.638   2.178 -0.5207  0.2381  0.0088
 2824TIP3    H130107   5.544   2.595   2.193 -0.3650 -0.5142 -1.1485
 2824TIP3    H230108   5.606   2.710   2.118 -0.3854  0.1719 -0.1209
 2825TIP3   OH230109   1.069   2.470   3.082  0.4362  0.1229 -0.0947
 2825TIP3    H130110   0.995   2.443   3.138  0.9742 -1.1152  0.0559
 2825TIP3    H230111   1.036   2.458   2.993  0.1486  0.4674 -0.0386
 2826TIP3   OH230112   1.591   3.755   1.230  0.4549 -0.4159 -0.2905
 2826TIP3    H130113   1.650   3.811   1.281  2.0746 -1.5119 -0.9238
 2826TIP3    H230114   1.601   3.668   1.268 -0.6236 -0.6797 -0.5591
 2827TIP3   OH230115   0.447   4.111   3.341 -0.5660 -0.3073  0.1294
 2827TIP3    H130116   0.484   4.063   3.415 -0.9683  1.2970  1.4269
 2827TIP3    H230117   0.493   4.195   3.341 -0.0372 -0.5283 -1.9432
 2828TIP3   OH230118   5.457   5.197   1.812 -0.1132  0.1548 -0.5197
 2828TIP3    H130119   5.414   5.112   1.802 -0.9329  0.0158  2.7390
 2828TIP3    H230120   5.385   5.257   1.835  0.6426  1.3942 -1.3055
 2829TIP3   OH230121   3.068   5.730   0.657  0.3862  0.1961  0.0267
 2829TIP3    H130122   3.052   5.809   0.708  0.5573  0.1768  0.1114
 2829TIP3    H230123   3.011   5.739   0.581  1.0745  0.8536 -0.4393
 2830TIP3   OH230124   1.199   0.799   2.769 -0.1438  0.4494 -0.4210
 2830TIP3    H130125   1.201   0.716   2.720  0.1913  1.0865 -1.5013
 2830TIP3    H230126   1.286   0.806   2.809 -0.9107 -0.8687  1.7056
 2831TIP3   OH230127   2.333   1.110   1.749 -0.0724  0.0888  0.6588
 2831TIP3    H130128   2.242   1.097   1.723  0.4295 -3.0704  0.1688
 2831TIP3    H230129   2.384   1.066   1.682  1.7593  0.5091  1.7164
 2832TIP3   OH230130   1.817   6.419   0.528 -0.0290  0.1564 -0.0688
 2832TIP3    H130131   1.880   6.388   0.593 -0.9603 -1.2890  0.2104
 2832TIP3    H230132   1.812   6.347   0.464  1.9434  2.0975 -2.6136
 2833TIP3   OH230133   4.898   6.147   1.276  0.2296 -0.5923  0.0114
 2833TIP3    H130134   4.968   6.212   1.284  0.5337 -0.7676 -1.0399
 2833TIP3    H230135   4.909   6.111   1.188 -0.0996 -1.8904  0.4776
 2834TIP3   OH230136   4.303   3.175   0.553  0.7285  0.1513 -0.3927
 2834TIP3    H130137   4.379   3.198   0.607  0.4562 -0.4507  0.2658
 2834TIP3    H230138   4.326   3.091   0.514  0.2573 -0.2214  0.1148
 2835TIP3   OH230139   2.502   1.476   2.419  0.1146  0.4652 -0.0025
 2835TIP3    H130140   2.492   1.566   2.387  0.8523  0.6491  0.2542
 2835TIP3    H230141   2.557   1.433   2.353  0.4640  0.4501  0.2905
 2836TIP3   OH230142   0.749   6.678   7.858  0.2358 -0.3138 -0.2629
 2836TIP3    H130143   0.810   6.700   7.928 -0.6329  0.1414  0.3717
 2836TIP3    H230144   0.768   6.587   7.836  1.4175 -0.0567 -0.3764
 2837TIP3   OH230145   1.895   2.580   0.014 -0.3142  0.5019  0.1451
 2837TIP3    H130146   1.937   2.660   0.047 -0.3018  0.2635  0.7125
 2837TIP3    H230147   1.810   2.609  -0.017 -0.7117  0.5787  1.2638
 2838TIP3   OH230148   4.725   1.098   0.050 -0.6004 -0.8524  0.2593
 2838TIP3    H130149   4.726   1.098  -0.046 -0.3486 -1.3889  0.2544
 2838TIP3    H230150   4.660   1.032   0.073 -1.7391  0.3117  0.4763
 2839TIP3   OH230151   3.359   4.361   1.868  0.4977  0.1266  0.0326
 2839TIP3    H130152   3.336   4.420   1.939  2.6509 -0.0563  0.9783
 2839TIP3    H230153   3.391   4.282   1.912 -0.3640 -0.9456 -1.1848
 2840TIP3   OH230154   4.900   1.000   1.251 -0.3688 -0.3002 -0.6416
 2840TIP3    H130155   4.863   0.941   1.317 -0.6801 -0.8137 -1.2564
 2840TIP3    H230156   4.954   1.061   1.300 -1.2058 -0.1969  0.1659
 2841TIP3   OH230157   3.370   3.397   2.389 -0.0199  0.1038 -0.1973
 2841TIP3    H130158   3.291   3.451   2.390  0.0411  0.3238 -2.6995
 2841TIP3    H230159   3.342   3.313   2.355  0.3880 -0.6848  1.3091
 2842TIP3   OH230160   0.521   0.294   3.639 -0.0009  0.4742 -0.3330
 2842TIP3    H130161   0.567   0.242   3.705  1.1305  0.5702 -1.0176
 2842TIP3    H230162   0.554   0.383   3.653 -0.6404  0.7052 -0.2728
 2843TIP3   OH230163   0.755   5.615   2.416  0.1583  0.1224  0.1634
 2843TIP3    H130164   0.680   5.593   2.360 -0.0866  0.8714  0.1835
 2843TIP3    H230165   0.821   5.549   2.395 -0.8485 -1.1405  0.8617
 2844TIP3   OH230166   6.785   2.832   3.947  0.4179 -0.6643 -0.3222
 2844TIP3    H130167   6.852   2.875   3.894 -1.3214  0.2359 -1.8872
 2844TIP3    H230168   6.775   2.888   4.024  0.6535 -0.1880 -0.6362
 2845TIP3   OH230169   1.716   1.804   1.902 -0.1048 -0.0848  0.4463
 2845TIP3    H130170   1.653   1.860   1.948  0.4142 -0.2855  1.4380
 2845TIP3    H230171   1.783   1.785   1.968  0.3008 -0.9571 -0.2041
 2846TIP3   OH230172   4.393   4.102   4.379 -0.7718  0.1177 -0.1977
 2846TIP3    H130173   4.367   4.155   4.454  1.2912 -1.0194  1.4259
 2846TIP3    H230174   4.327   4.032   4.375 -3.0032  2.1506 -1.8178
 2847TIP3   OH230175   1.955   1.937   8.513 -0.1353  0.0672  0.3335
 2847TIP3    H130176   1.983   2.008   8.456  0.5836 -1.1661 -0.9043
 2847TIP3    H230177   1.868   1.914   8.481  0.1997 -0.5147 -0.1686
 2848TIP3   OH230178   6.388   6.565   3.652  0.0290 -0.6401  0.2122
 2848TIP3    H130179   6.426   6.512   3.582  0.0380  0.1307 -0.3875
 2848TIP3    H230180   6.453   6.635   3.666 -0.9304  0.4319 -0.5046
 2849TIP3   OH230181   5.309   3.666   1.026  0.6096  0.4331 -0.1818
 2849TIP3    H130182   5.362   3.702   0.955 -0.2175  0.3298 -0.8816
 2849TIP3    H230183   5.330   3.572   1.026  0.8939  0.4968 -0.0356
 2850TIP3   OH230184   4.385   3.959   0.365  0.3230 -0.4519  1.3371
 2850TIP3    H130185   4.302   3.946   0.318  0.5804  0.6444  0.5305
 2850TIP3    H230186   4.362   3.946   0.457 -0.7704 -0.1300  1.1352
 2851TIP3   OH230187   6.269   5.036   1.991 -0.0016 -0.8657 -0.5580
 2851TIP3    H130188   6.336   5.104   1.994  1.5401 -2.3137 -0.7035
 2851TIP3    H230189   6.211   5.057   2.064  0.8337  0.1955 -0.1687
 2852TIP3   OH230190   5.146   6.248   3.534 -0.0881 -0.2557  0.2797
 2852TIP3    H130191   5.113   6.190   3.603  0.2665 -1.1945 -0.3267
 2852TIP3    H230192   5.218   6.199   3.494 -0.7154 -0.0137 -1.2010
 2853TIP3   OH230193   2.817   2.935   0.432 -0.6433 -0.4722  1.0233
 2853TIP3    H130194   2.835   3.015   0.383  1.1665 -0.4087  1.6988
 2853TIP3    H230195   2.766   2.963   0.507  0.1410  0.1083  1.3565
 2854TIP3   OH230196   6.596   5.644   2.954 -0.1621 -0.8406  0.2533
 2854TIP3    H130197   6.658   5.638   3.027 -0.6484 -2.6030  0.5898
 2854TIP3    H230198   6.588   5.737   2.936  0.9616 -0.4501  1.5978
 2855TIP3   OH230199   1.394   4.782   2.010  0.2685  0.0753 -0.0659
 2855TIP3    H130200   1.310   4.774   2.055 -0.5998 -0.2539 -1.6848
 2855TIP3    H230201   1.381   4.739   1.925  1.5383  1.5348 -1.0521
 2856TIP3   OH230202   1.895   6.490   2.319 -0.1339  0.1474 -0.3414
 2856TIP3    H130203   1.806   6.517   2.340  0.3444  1.3969  0.2327
 2856TIP3    H230204   1.934   6.468   2.404  0.9648  2.4948 -0.1482
 2857TIP3   OH230205   2.637   6.689   8.846 -0.4273 -0.3491  0.4399
 2857TIP3    H130206   2.567   6.624   8.851 -0.7932 -0.0703 -0.7376
 2857TIP3    H230207   2.717   6.638   8.838 -0.5782 -0.6568  0.8620
 2858TIP3   OH230208   0.040   1.762   0.909  0.2277  0.3578  0.0183
 2858TIP3    H130209   0.094   1.838   0.931 -1.2859  1.8164 -1.0587
 2858TIP3    H230210  -0.048   1.786   0.937 -0.3126 -0.9471 -0.4745
 2859TIP3   OH230211   5.216   5.861   3.480 -0.6350 -0.4349  0.3660
 2859TIP3    H130212   5.130   5.882   3.443 -0.7864 -2.2109 -0.3946
 2859TIP3    H230213   5.204   5.775   3.522  0.5699 -0.3367  0.9568
 2860TIP3   OH230214   0.847   1.846   8.060  0.4568 -0.0171 -0.3087
 2860TIP3    H130215   0.874   1.937   8.075  3.7587 -0.7975 -0.6203
 2860TIP3    H230216   0.757   1.842   8.091  0.1186  3.3793 -0.4410
 2861TIP3   OH230217   3.251   4.989   1.185 -0.8701  0.9848  0.5223
 2861TIP3    H130218   3.160   5.018   1.176 -0.7666  1.5579  1.1592
 2861TIP3    H230219   3.260   4.917   1.123 -1.9063  0.5704  0.8261
 2862TIP3   OH230220   2.365   1.630   2.983  0.1953 -0.3440  0.1407
 2862TIP3    H130221   2.346   1.537   2.995  0.1173 -0.5143 -1.2187
 2862TIP3    H230222   2.360   1.667   3.072  0.2938 -1.6357  0.7018
 2863TIP3   OH230223   1.260   3.702   0.121 -0.1217 -0.0781 -0.6752
 2863TIP3    H130224   1.171   3.685   0.089  0.1363  0.8450 -1.9647
 2863TIP3    H230225   1.315   3.642   0.072  0.1778  0.7116 -1.3184
 2864TIP3   OH230226   1.670   3.500   0.234 -0.6722 -0.1058  0.3733
 2864TIP3    H130227   1.576   3.503   0.215 -0.6613  0.7227  0.4165
 2864TIP3    H230228   1.678   3.432   0.301 -1.1717 -0.5565 -0.0139
 2865TIP3   OH230229   5.120   2.362   3.181  0.2237  0.6436 -0.4056
 2865TIP3    H130230   5.068   2.353   3.101  1.4812  2.6663 -1.5394
 2865TIP3    H230231   5.083   2.297   3.241 -2.6426  1.0150 -1.6076
 2866TIP3   OH230232   0.299   2.135   1.324  0.2666  0.1207 -0.0351
 2866TIP3    H130233   0.393   2.143   1.307  0.3280 -0.0024  0.2534
 2866TIP3    H230234   0.267   2.225   1.322  0.1377  0.0711 -1.5660
 2867TIP3   OH230235   6.813   1.312   8.485 -0.4547  0.3237  0.0478
 2867TIP3    H130236   6.854   1.369   8.550  0.5213  1.3745 -1.4255
 2867TIP3    H230237   6.800   1.368   8.409  0.7435 -1.4263 -1.5546
 2868TIP3   OH230238   6.621   2.273   0.232  0.4995  0.0757  0.0499
 2868TIP3    H130239   6.699   2.270   0.288  0.7964  1.4297 -0.2576
 2868TIP3    H230240   6.652   2.241   0.147  1.0810  1.8362 -0.4384
 2869TIP3   OH230241   0.694   1.228   2.859 -0.1788 -0.5230 -0.2681
 2869TIP3    H130242   0.719   1.159   2.920  0.1954  0.9445  1.3058
 2869TIP3    H230243   0.741   1.306   2.889 -2.0727  0.8999 -0.7710
 2870TIP3   OH230244   0.207   4.227   3.588 -0.3814  0.1345 -0.8418
 2870TIP3    H130245   0.244   4.280   3.658 -1.2500 -0.8871  0.4356
 2870TIP3    H230246   0.241   4.139   3.604 -0.9133 -0.1965 -1.4740
 2871TIP3   OH230247   0.035   6.622   2.109  0.0720  0.0193  0.6249
 2871TIP3    H130248  -0.005   6.709   2.101  0.2079 -0.0188 -0.5288
 2871TIP3    H230249   0.020   6.580   2.025  0.9513 -0.6796  0.8015
 2872TIP3   OH230250   6.180   4.077   0.502  0.0380  0.9077 -0.4062
 2872TIP3    H130251   6.265   4.048   0.536  0.3045  1.1382 -0.8602
 2872TIP3    H230252   6.202   4.144   0.437 -0.5071  1.1588 -0.3388
 2873TIP3   OH230253   3.708   5.602   1.556  0.4657  0.4626  0.4513
 2873TIP3    H130254   3.673   5.688   1.580 -1.0791 -0.0368  0.0866
 2873TIP3    H230255   3.631   5.549   1.535  1.3789 -1.0270  0.6681
 2874TIP3   OH230256   2.767   0.823   3.243 -0.0316  0.3391  0.0095
 2874TIP3    H130257   2.744   0.817   3.336 -0.4685 -1.5029 -0.1866
 2874TIP3    H230258   2.835   0.757   3.231 -1.2023 -0.6847 -1.3122
 2875TIP3   OH230259   0.418   5.823   0.936  0.3231  0.0621  0.7216
 2875TIP3    H130260   0.362   5.779   0.999 -0.4286 -0.1880 -0.0921
 2875TIP3    H230261   0.445   5.904   0.979 -1.3139  0.5699  0.8646
 2876TIP3   OH230262   5.536   4.245   0.787 -0.3191  0.7001  0.2630
 2876TIP3    H130263   5.613   4.272   0.838 -0.2158 -1.1593  1.1912
 2876TIP3    H230264   5.569   4.177   0.729 -1.0045  0.8555 -0.3237
 2877TIP3   OH230265   2.617   4.187   4.249  0.4440  0.7097 -0.1884
 2877TIP3    H130266   2.537   4.211   4.203 -0.0035  0.9648  0.6883
 2877TIP3    H230267   2.669   4.140   4.185 -0.9461 -0.5627 -0.4350
 2878TIP3   OH230268   0.076   5.053   3.012 -0.2963 -0.7144 -0.2121
 2878TIP3    H130269   0.160   5.015   3.038 -0.5495 -1.1444 -0.0053
 2878TIP3    H230270   0.096   5.145   2.992 -0.1837 -0.1180  2.2364
 2879TIP3   OH230271   2.420   5.680   3.593 -0.1503 -0.8167  0.5934
 2879TIP3    H130272   2.487   5.737   3.633 -0.2395 -0.1701 -0.1679
 2879TIP3    H230273   2.465   5.638   3.520 -0.9728  0.9171 -1.0134
 2880TIP3   OH230274   2.758   6.772   2.892  0.6225 -0.2690  0.1946
 2880TIP3    H130275   2.688   6.813   2.943  0.1657 -0.6166 -0.1487
 2880TIP3    H230276   2.828   6.759   2.955  0.4409  0.2267  0.5095
 2881TIP3   OH230277   3.628   0.739   0.049 -0.0821 -0.4544 -0.1828
 2881TIP3    H130278   3.675   0.656   0.036  2.2641  0.8454 -0.5533
 2881TIP3    H230279   3.659   0.795  -0.022 -1.9917  0.6327 -0.2262
 2882TIP3   OH230280   0.966   5.325   8.058 -0.3589  0.5482 -0.1438
 2882TIP3    H130281   0.916   5.279   8.124 -0.6806  0.2320 -0.5996
 2882TIP3    H230282   0.901   5.363   7.999 -0.2180 -2.9557 -2.9048
 2883TIP3   OH230283   0.126   3.981   7.854  0.2719  0.1157 -0.1806
 2883TIP3    H130284   0.086   3.947   7.774 -0.8284  2.3017 -0.6160
 2883TIP3    H230285   0.203   4.029   7.824  0.2594  0.3325  0.1303
 2884TIP3   OH230286   2.264   5.364   3.015 -0.2554  0.5767  0.6266
 2884TIP3    H130287   2.228   5.450   3.034  3.2746  2.4416 -0.2761
 2884TIP3    H230288   2.259   5.355   2.920 -1.1496 -0.5381  0.7542
 2885TIP3   OH230289   6.742   0.759   0.628  0.2136  0.4171  0.0601
 2885TIP3    H130290   6.734   0.852   0.607 -0.7760  0.2341 -0.4153
 2885TIP3    H230291   6.779   0.720   0.549  0.3953  0.3679  0.1692
 2886TIP3   OH230292   1.798   3.874   1.359  0.1578  0.2962 -0.0310
 2886TIP3    H130293   1.859   3.946   1.344 -0.7392  1.3258  1.0430
 2886TIP3    H230294   1.819   3.842   1.447 -1.7263  1.6670  1.0201
 2887TIP3   OH230295   1.536   4.420   1.264  0.1363 -0.0144 -0.0907
 2887TIP3    H130296   1.572   4.362   1.331 -1.7571  0.6235  1.5830
 2887TIP3    H230297   1.451   4.383   1.242  0.9515 -0.5634 -2.7235
 2888TIP3   OH230298   2.653   4.847   1.962 -0.5148  0.1583 -0.2252
 2888TIP3    H130299   2.710   4.773   1.942 -0.1606 -0.0014  1.2714
 2888TIP3    H230300   2.684   4.879   2.046 -1.4135  1.2899 -0.3014
 2889TIP3   OH230301   1.645   4.184   4.028  1.0230  0.1163  0.1367
 2889TIP3    H130302   1.733   4.221   4.022  0.2038  1.9203 -1.6305
 2889TIP3    H230303   1.660   4.092   4.049  3.2710  0.6189  1.0370
 2890TIP3   OH230304   0.315   4.503   2.882 -0.2815 -0.1776 -0.1241
 2890TIP3    H130305   0.396   4.503   2.830  0.6214  0.9134  1.2061
 2890TIP3    H230306   0.280   4.592   2.872 -0.8714 -0.3947 -0.0246
 2891TIP3   OH230307   5.808   1.541   8.707  0.1552  0.4716 -0.3531
 2891TIP3    H130308   5.873   1.606   8.733  0.7785 -0.1591 -0.3212
 2891TIP3    H230309   5.837   1.460   8.749 -0.5044  0.1249 -0.5573
 2892TIP3   OH230310   3.728   4.862   3.424 -0.3839 -0.6819  0.2399
 2892TIP3    H130311   3.708   4.769   3.414  1.0897 -1.0678  0.6209
 2892TIP3    H230312   3.815   4.872   3.384 -0.4182  0.4884  0.4130
 2893TIP3   OH230313   0.749   3.741   3.447 -0.2747 -0.7754  0.1313
 2893TIP3    H130314   0.695   3.771   3.373 -1.7176  1.1840  1.8722
 2893TIP3    H230315   0.839   3.749   3.416 -0.8618 -0.9637 -1.7350
 2894TIP3   OH230316   2.458   0.633   4.003  0.0391  0.1865  0.3822
 2894TIP3    H130317   2.442   0.682   3.922 -0.8947 -0.5153  0.1144
 2894TIP3    H230318   2.453   0.699   4.072  0.8314  0.7907 -0.1307
 2895TIP3   OH230319   3.313   4.997   3.234 -0.1136  0.0050 -0.0393
 2895TIP3    H130320   3.389   4.959   3.190  0.7864 -1.3449  2.4707
 2895TIP3    H230321   3.348   5.072   3.281 -0.3144 -0.5677  1.0570
 2896TIP3   OH230322   6.142   4.851   2.900  0.1118 -0.6791  0.0020
 2896TIP3    H130323   6.214   4.810   2.851 -1.7247 -2.4524 -1.3928
 2896TIP3    H230324   6.089   4.778   2.930 -3.6627  0.4526 -3.0785
 2897TIP3   OH230325   0.206   4.869   3.880 -0.1515  0.3241  0.0551
 2897TIP3    H130326   0.233   4.781   3.908  0.4474  1.1406  2.2702
 2897TIP3    H230327   0.111   4.871   3.893 -0.0164  0.3452  1.1118
 2898TIP3   OH230328   4.911   1.865   1.625  0.7640 -0.1845  0.3396
 2898TIP3    H130329   5.005   1.864   1.645  1.2818 -2.4693 -1.6970
 2898TIP3    H230330   4.901   1.798   1.557 -2.1480  0.9534 -0.4722
 2899TIP3   OH230331   2.956   1.190   1.453 -0.9035 -0.7755 -0.1450
 2899TIP3    H130332   3.040   1.229   1.432 -0.7400 -0.2464  1.3944
 2899TIP3    H230333   2.960   1.102   1.416 -0.1582 -0.3376 -1.1346
 2900TIP3   OH230334   2.315   4.019   3.123 -0.5749  0.0506  0.1069
 2900TIP3    H130335   2.329   3.986   3.034 -1.5132  0.6218 -0.2844
 2900TIP3    H230336   2.396   4.064   3.145 -0.4523  0.1992 -0.6123
 2901TIP3   OH230337   0.883   5.251   1.156 -0.0401 -0.2417 -0.4244
 2901TIP3    H130338   0.894   5.334   1.109 -0.7325  0.3491  0.4333
 2901TIP3    H230339   0.883   5.185   1.087 -0.3217  0.5454 -1.2015
 2902TIP3   OH230340   2.744   1.677   2.360  0.4174  0.0529 -0.5165
 2902TIP3    H130341   2.652   1.700   2.347 -0.1274 -0.6759  1.7048
 2902TIP3    H230342   2.788   1.760   2.377 -0.1292  0.2562 -0.0693
 2903TIP3   OH230343   6.723   3.225   0.645 -0.0678 -0.7370  0.3991
 2903TIP3    H130344   6.676   3.233   0.562  1.3922 -0.3497 -0.4302
 2903TIP3    H230345   6.711   3.309   0.688  1.2437 -0.0116 -0.5933
 2904TIP3   OH230346   1.475   4.204   0.918  0.2241  0.1994 -0.6194
 2904TIP3    H130347   1.551   4.234   0.868  1.3461  0.1204  0.9472
 2904TIP3    H230348   1.511   4.137   0.977 -1.0893  0.0962  0.0925
 2905TIP3   OH230349   0.289   3.086   2.838 -0.8784 -0.6671 -0.1544
 2905TIP3    H130350   0.306   3.177   2.812 -0.6041 -0.6155  0.1906
 2905TIP3    H230351   0.206   3.064   2.796 -0.5674 -0.5117 -0.8806
 2906TIP3   OH230352   6.468   1.677   1.420 -0.6072  0.6123 -0.3306
 2906TIP3    H130353   6.506   1.722   1.496 -1.4125  2.7105 -1.0902
 2906TIP3    H230354   6.543   1.645   1.371 -0.0666 -0.9031  1.3569
 2907TIP3   OH230355   6.201   4.784   2.013  0.1561  0.0428  0.2132
 2907TIP3    H130356   6.267   4.760   1.949 -1.0066 -0.4273 -0.8548
 2907TIP3    H230357   6.206   4.880   2.018 -0.3236  0.1758 -1.2753
 2908TIP3   OH230358   2.071   2.161   8.796 -0.1602  0.7826 -0.2949
 2908TIP3    H130359   2.141   2.214   8.834 -0.8564  1.3158  0.2900
 2908TIP3    H230360   2.112   2.076   8.777  0.8085  1.3081 -0.6269
 2909TIP3   OH230361   3.193   2.034   2.891  0.0234 -0.3149 -0.0238
 2909TIP3    H130362   3.128   2.000   2.952  0.6775  0.9015  1.4379
 2909TIP3    H230363   3.233   2.108   2.938 -0.4726  1.6746 -2.4874
 2910TIP3   OH230364   6.263   1.900   3.020  0.6652 -0.0925  0.1404
 2910TIP3    H130365   6.292   1.817   3.059 -0.0499  0.4447  1.8795
 2910TIP3    H230366   6.340   1.933   2.974  0.9064 -1.7965 -0.7804
 2911TIP3   OH230367   2.168   1.446   4.194  0.8567 -0.0967 -0.3318
 2911TIP3    H130368   2.229   1.459   4.122  0.5971 -1.9735 -0.9659
 2911TIP3    H230369   2.084   1.478   4.161  0.6232 -1.4267 -1.1292
 2912TIP3   OH230370   5.598   3.881   3.878  0.1330 -0.9310 -0.3536
 2912TIP3    H130371   5.594   3.793   3.915 -1.0989 -0.0586  1.8219
 2912TIP3    H230372   5.507   3.910   3.874  0.5952  1.0163  1.1625
 2913TIP3   OH230373   2.539   6.615   2.249 -0.0526 -0.0642 -0.0348
 2913TIP3    H130374   2.526   6.584   2.339  1.2515  1.1033  0.5869
 2913TIP3    H230375   2.451   6.637   2.219 -0.6532 -1.4690  0.5499
 2914TIP3   OH230376   1.834   6.026   0.885 -0.1368 -0.2395  0.1459
 2914TIP3    H130377   1.908   5.995   0.833  0.1983  0.1795  0.3744
 2914TIP3    H230378   1.814   5.952   0.943 -1.0256 -1.0217 -1.1044
 2915TIP3   OH230379   5.695   5.613   2.926  0.2100 -0.4476  0.0458
 2915TIP3    H130380   5.665   5.540   2.980 -0.0571 -1.1075 -0.9609
 2915TIP3    H230381   5.780   5.638   2.964 -0.2731 -0.4403  1.1612
 2916TIP3   OH230382   2.600   5.248   2.126 -0.1359 -0.6320  0.1311
 2916TIP3    H130383   2.631   5.268   2.038 -0.0308 -0.3854  0.2245
 2916TIP3    H230384   2.597   5.333   2.171 -2.9529 -0.2953 -0.5197
 2917TIP3   OH230385   4.071   0.254   1.069 -0.3368  0.1198 -0.0503
 2917TIP3    H130386   4.155   0.298   1.070 -0.9791  1.4635 -1.0160
 2917TIP3    H230387   4.016   0.304   1.130 -0.9498  0.4143 -0.8199
 2918TIP3   OH230388   4.448   0.994   2.842  0.0100  0.1684  0.0733
 2918TIP3    H130389   4.357   1.006   2.818 -0.5056  1.3138  2.3090
 2918TIP3    H230390   4.467   0.903   2.819 -1.7668 -0.1552 -0.2495
 2919TIP3   OH230391   3.793   0.781   0.694  0.3361 -0.1584  0.1567
 2919TIP3    H130392   3.770   0.850   0.633 -0.4862  0.9388  1.6372
 2919TIP3    H230393   3.762   0.812   0.779 -0.7490 -2.6556  0.7800
 2920TIP3   OH230394   5.100   5.548   1.818 -0.3375 -0.2208  0.2403
 2920TIP3    H130395   5.168   5.533   1.753 -1.0136  0.8498 -0.7559
 2920TIP3    H230396   5.027   5.491   1.791  0.0370 -1.1388  1.1277
 2921TIP3   OH230397   3.243   1.600   8.557 -0.1281  0.7763 -0.3006
 2921TIP3    H130398   3.176   1.605   8.488 -1.4903 -0.2126  0.8787
 2921TIP3    H230399   3.207   1.538   8.621  0.5941  2.3881  1.8077
 2922TIP3   OH230400   3.464   1.898   2.158  0.0596 -0.6038  0.6945
 2922TIP3    H130401   3.550   1.866   2.184  1.1470  2.7008  1.5690
 2922TIP3    H230402   3.404   1.859   2.222  0.8950 -2.5926  0.3439
 2923TIP3   OH230403   2.760   3.655   1.294 -0.4024 -0.1544  0.0370
 2923TIP3    H130404   2.692   3.588   1.306 -0.5573 -0.0827 -0.4219
 2923TIP3    H230405   2.814   3.649   1.373  0.5343 -1.9093 -0.6789
 2924TIP3   OH230406   0.436   1.859   3.924  0.2070 -0.4954  0.7748
 2924TIP3    H130407   0.524   1.863   3.888 -0.0326  0.7329  0.2939
 2924TIP3    H230408   0.443   1.896   4.012  0.1750 -0.4501  0.7580
 2925TIP3   OH230409   5.290   0.344   3.692 -0.0847  0.2747  0.0987
 2925TIP3    H130410   5.348   0.396   3.637 -1.2657  1.3461 -0.1776
 2925TIP3    H230411   5.343   0.321   3.768  0.7045  1.1967 -0.1582
 2926TIP3   OH230412   3.856   4.116   3.448 -0.4083  0.1142 -0.5539
 2926TIP3    H130413   3.909   4.184   3.406 -0.4265  1.4222  1.4174
 2926TIP3    H230414   3.767   4.152   3.449 -0.7652 -0.7216 -1.0618
 2927TIP3   OH230415   5.941   1.351   3.367 -0.1104 -0.1403 -0.4832
 2927TIP3    H130416   5.972   1.297   3.440 -0.4218 -0.2471 -0.4287
 2927TIP3    H230417   5.943   1.292   3.292  0.5562  0.0699 -0.6391
 2928TIP3   OH230418   4.195   6.129   2.239 -0.6329 -0.1221 -0.1852
 2928TIP3    H130419   4.160   6.044   2.214 -0.1264 -0.2214 -0.5813
 2928TIP3    H230420   4.267   6.109   2.299 -1.4616  0.0916  0.9230
 2929TIP3   OH230421   0.216   3.172   3.318 -0.2016 -0.0273 -0.5675
 2929TIP3    H130422   0.165   3.176   3.398 -0.7693  0.5570 -0.9416
 2929TIP3    H230423   0.152   3.150   3.250  0.6562 -2.9179 -0.5473
 2930TIP3   OH230424   3.770   0.863   2.810  0.5307  0.1662  0.4789
 2930TIP3    H130425   3.758   0.795   2.743 -0.6971  0.7229  0.1026
 2930TIP3    H230426   3.824   0.821   2.877  0.3869 -0.9560 -0.0736
 2931TIP3   OH230427   4.532   5.074   2.955  0.0251 -0.1340  0.4284
 2931TIP3    H130428   4.470   5.006   2.929  0.2130 -1.3422  2.8711
 2931TIP3    H230429   4.479   5.139   3.001  0.3166 -0.2854  0.9821
 2932TIP3   OH230430   0.463   1.635   3.613 -0.0829  0.1912  0.0057
 2932TIP3    H130431   0.395   1.700   3.631 -0.3315 -0.7557  3.2161
 2932TIP3    H230432   0.414   1.553   3.599  0.3242  0.0547 -0.6707
 2933TIP3   OH230433   5.366   0.592   0.532 -0.3203  0.3770 -0.2030
 2933TIP3    H130434   5.422   0.515   0.522 -0.5828  0.2722 -0.9554
 2933TIP3    H230435   5.370   0.635   0.446  0.3844  1.5949  0.4187
 2934TIP3   OH230436   4.492   2.738   1.749 -0.0250 -0.1995  0.2026
 2934TIP3    H130437   4.538   2.666   1.792 -1.3662 -2.0902 -1.3333
 2934TIP3    H230438   4.483   2.710   1.658 -4.3726 -0.1888  0.3930
 2935TIP3   OH230439   2.572   4.922   3.820 -0.2549 -0.0097  0.1228
 2935TIP3    H130440   2.636   4.876   3.766  1.1096 -0.2669  1.8365
 2935TIP3    H230441   2.541   4.994   3.765  2.0464  0.5495 -0.5759
 2936TIP3   OH230442   0.427   2.767   0.829 -0.8027  0.3646  0.1334
 2936TIP3    H130443   0.349   2.756   0.774 -1.3451  0.6245  0.8374
 2936TIP3    H230444   0.470   2.845   0.795  0.1369 -0.7567 -1.4059
 2937TIP3   OH230445   4.762   6.777   0.568 -0.0362 -0.0576 -0.2136
 2937TIP3    H130446   4.787   6.729   0.647  0.2337  0.3973 -0.0201
 2937TIP3    H230447   4.693   6.724   0.529  2.0580 -2.0324 -1.4656
 2938TIP3   OH230448   5.980   5.696   2.157  0.0456  0.1335  0.2238
 2938TIP3    H130449   6.061   5.725   2.198  0.2624  1.1806 -0.8957
 2938TIP3    H230450   6.009   5.640   2.085 -0.1596  1.2326 -0.7409
 2939TIP3   OH230451   6.177   4.594   0.019  0.4765 -0.5311  0.0907
 2939TIP3    H130452   6.163   4.525  -0.045 -1.8481  0.3496 -0.4647
 2939TIP3    H230453   6.171   4.675  -0.031 -0.4672  0.1555  1.2412
 2940TIP3   OH230454   3.473   5.923   0.052  0.2264  0.1890  0.5104
 2940TIP3    H130455   3.474   6.001   0.107 -2.2467  1.0608 -0.5065
 2940TIP3    H230456   3.380   5.908   0.034  0.7970 -1.4835 -1.4345
 2941TIP3   OH230457   4.311   1.648   3.775  0.0638  0.2427  0.3803
 2941TIP3    H130458   4.305   1.601   3.692 -0.0123 -0.8259  0.9674
 2941TIP3    H230459   4.399   1.685   3.776  0.9048 -1.6548  0.7850
 2942TIP3   OH230460   3.986   0.644   3.701  0.0745 -0.1886  0.4513
 2942TIP3    H130461   3.938   0.719   3.735 -1.5868 -1.3376  0.7706
 2942TIP3    H230462   4.009   0.593   3.778 -0.4324 -0.9201  0.1318
 2943TIP3   OH230463   5.488   0.085   1.688 -0.4663 -0.1600  0.5728
 2943TIP3    H130464   5.393   0.073   1.694 -0.5655  0.7340  1.0561
 2943TIP3    H230465   5.499   0.147   1.616 -0.0317 -2.3504 -1.3444
 2944TIP3   OH230466   0.168   4.739   2.872 -0.6585  0.3333  0.1889
 2944TIP3    H130467   0.167   4.798   2.796 -0.5665  1.1025  0.7670
 2944TIP3    H230468   0.158   4.798   2.948 -1.0100 -0.4443  0.7577
 2945TIP3   OH230469   6.469   6.509   0.971  0.7229  0.0714  0.5718
 2945TIP3    H130470   6.434   6.596   0.992  0.8585  0.4947 -0.8511
 2945TIP3    H230471   6.544   6.499   1.030 -0.6464 -0.0760  2.3556
 2946TIP3   OH230472   2.779   3.288   0.123 -0.6624 -0.5197 -0.5354
 2946TIP3    H130473   2.758   3.252   0.208  0.2075  1.2330  0.4827
 2946TIP3    H230474   2.796   3.381   0.139  1.0258 -0.4266 -2.3331
 2947TIP3   OH230475   4.104   1.237   0.355 -0.1943  0.7514  0.9547
 2947TIP3    H130476   4.150   1.267   0.433  1.2899 -0.3346  0.5538
 2947TIP3    H230477   4.059   1.157   0.383 -2.0893  1.9219  1.3986
 2948TIP3   OH230478   3.979   5.979   2.779  0.1795 -0.0901 -0.4899
 2948TIP3    H130479   4.039   5.967   2.705  0.3136  0.4375 -0.4669
 2948TIP3    H230480   3.991   6.070   2.806 -1.7426  0.4835 -1.4317
 2949TIP3   OH230481   4.029   0.908   0.139 -0.3255  0.3885  0.3138
 2949TIP3    H130482   3.999   0.914   0.048 -1.5403 -2.4962  0.4039
 2949TIP3    H230483   3.955   0.942   0.190 -1.1669 -1.2894  0.2934
 2950TIP3   OH230484   3.573   6.204   2.275 -0.1189  0.2551  0.0495
 2950TIP3    H130485   3.523   6.281   2.300 -1.8343 -0.9398  0.4450
 2950TIP3    H230486   3.515   6.130   2.294  1.2770 -1.1147 -0.7836
 2951TIP3   OH230487   0.577   2.441   1.451  0.3922  0.4547  0.5991
 2951TIP3    H130488   0.490   2.423   1.486  0.5737  0.1031  0.8823
 2951TIP3    H230489   0.572   2.530   1.417 -1.0421 -0.6185 -2.3572
 2952TIP3   OH230490   6.176   2.108   2.778  0.3432  0.2883  0.2299
 2952TIP3    H130491   6.084   2.083   2.781 -0.0960  1.9083  0.8878
 2952TIP3    H230492   6.200   2.122   2.869  0.4418  2.5684 -0.0938
 2953TIP3   OH230493   3.836   6.141   2.309 -0.6252 -0.9373  0.1761
 2953TIP3    H130494   3.870   6.216   2.358 -0.7158 -1.5691  1.2312
 2953TIP3    H230495   3.741   6.149   2.315 -0.6350 -1.1370  0.2962
 2954TIP3   OH230496   6.700   0.158   8.683 -0.4736  0.2342  0.2677
 2954TIP3    H130497   6.697   0.102   8.605  0.1766  1.1460 -0.4237
 2954TIP3    H230498   6.650   0.109   8.749 -1.0175 -0.5631 -0.7043
 2955TIP3   OH230499   6.251   5.385   4.310  0.2060 -0.0935  0.8434
 2955TIP3    H130500   6.301   5.343   4.380 -0.7894 -2.8837  0.0047
 2955TIP3    H230501   6.159   5.369   4.332 -0.1638 -3.2592 -2.1606
 2956TIP3   OH230502   1.304   1.895   3.248 -0.2100 -0.0620 -0.1102
 2956TIP3    H130503   1.327   1.822   3.191  0.2836  0.3505 -0.4473
 2956TIP3    H230504   1.246   1.949   3.195  0.0811  0.2121 -0.1540
 2957TIP3   OH230505   3.361   6.009   2.396 -0.4426  0.2583 -1.0057
 2957TIP3    H130506   3.324   5.921   2.398 -1.0838  0.5342  0.5411
 2957TIP3    H230507   3.301   6.062   2.447  1.3241  1.0319  0.3866
 2958TIP3   OH230508   3.473   3.312   4.464  0.3816  0.0962  0.0288
 2958TIP3    H130509   3.410   3.295   4.394  1.7279  0.5838 -1.3789
 2958TIP3    H230510   3.463   3.238   4.524 -0.1638 -0.8593 -1.1885
 2959TIP3   OH230511   2.605   1.787   2.084 -0.3938  0.3234  0.1526
 2959TIP3    H130512   2.682   1.731   2.071  0.4241  1.0669  1.5330
 2959TIP3    H230513   2.533   1.740   2.043  0.6687 -0.7373 -0.5390
 2960TIP3   OH230514   0.054   1.461   2.021  0.3121 -0.3461  0.0141
 2960TIP3    H130515   0.065   1.369   2.046  0.6879 -0.6421 -1.1898
 2960TIP3    H230516   0.100   1.469   1.938 -1.9214  0.2984 -1.2350
 2961TIP3   OH230517   2.057   0.214   4.375 -0.1715 -0.1002 -0.1137
 2961TIP3    H130518   2.125   0.156   4.341 -0.9401 -0.4993 -1.0131
 2961TIP3    H230519   2.031   0.173   4.458  1.3730  0.6147  0.7666
 2962TIP3   OH230520   5.094   2.803   1.635 -0.2527 -0.7311  0.0525
 2962TIP3    H130521   5.107   2.708   1.641  0.2505 -0.5972  2.1865
 2962TIP3    H230522   5.181   2.837   1.612 -0.3492 -0.7556 -0.3564
 2963TIP3   OH230523   3.492   2.052   3.050 -0.3290  0.1336  0.1226
 2963TIP3    H130524   3.555   2.097   2.992  0.3145 -1.3509 -0.3764
 2963TIP3    H230525   3.421   2.115   3.060  0.5898  1.3222 -0.4322
 2964TIP3   OH230526   2.312   0.774   1.839  0.3876  0.3894  0.1561
 2964TIP3    H130527   2.287   0.707   1.776  0.5933 -0.4375  0.9194
 2964TIP3    H230528   2.243   0.840   1.833  0.1378  0.0688 -0.5619
 2965TIP3   OH230529   3.206   3.919   3.854 -0.5912 -0.9354 -0.0366
 2965TIP3    H130530   3.144   3.982   3.890 -1.2704 -0.8625 -1.2742
 2965TIP3    H230531   3.292   3.955   3.876 -0.9235  1.2914 -2.0059
 2966TIP3   OH230532   4.857   3.649   0.144 -0.0207 -0.5668 -0.2745
 2966TIP3    H130533   4.868   3.559   0.113  0.6172 -1.3400  2.0284
 2966TIP3    H230534   4.941   3.691   0.125 -0.5999 -0.1654 -2.1164
 2967TIP3   OH230535   0.804   2.070   3.069 -0.0056 -0.0264  0.1710
 2967TIP3    H130536   0.729   2.097   3.016 -0.0169  0.4413  0.4157
 2967TIP3    H230537   0.844   1.998   3.021 -0.2605  0.1207 -0.2595
 2968TIP3   OH230538   3.642   3.891   3.727 -0.3262  0.0248  0.1719
 2968TIP3    H130539   3.635   3.813   3.672 -2.5461  1.8663 -2.3921
 2968TIP3    H230540   3.557   3.933   3.720 -0.9154  0.3513  5.3590
 2969TIP3   OH230541   3.424   3.000   8.606 -0.1103 -0.1737 -0.2782
 2969TIP3    H130542   3.472   2.969   8.530 -0.6450 -0.7686 -0.3783
 2969TIP3    H230543   3.463   3.086   8.626  0.9323 -0.5954 -0.4063
 2970TIP3   OH230544   2.823   3.897   4.353 -0.4029  0.1007 -0.3574
 2970TIP3    H130545   2.780   3.953   4.418  0.3800 -0.2017  0.4344
 2970TIP3    H230546   2.753   3.839   4.323 -0.2808 -1.5029  2.1309
 2971TIP3   OH230547   1.778   0.429   2.639  0.2045  0.1574 -0.3036
 2971TIP3    H130548   1.711   0.402   2.702  1.6018 -0.8878  0.7938
 2971TIP3    H230549   1.765   0.370   2.564  1.6407 -2.0851  1.0743
 2972TIP3   OH230550   2.784   3.269   1.375  0.0895 -0.4580  0.7309
 2972TIP3    H130551   2.773   3.175   1.394 -0.0496 -0.4364  0.7573
 2972TIP3    H230552   2.854   3.297   1.433 -0.0193 -0.4973  0.8825
 2973TIP3   OH230553   5.060   6.682   1.295  0.0419  0.4829  0.4928
 2973TIP3    H130554   5.039   6.591   1.314 -0.7629  0.8814  1.6287
 2973TIP3    H230555   5.147   6.695   1.332  0.3570  0.0508 -0.0954
 2974TIP3   OH230556   1.736   2.037   0.765  0.2273 -0.3106  0.3035
 2974TIP3    H130557   1.816   2.078   0.797  0.4338 -0.2537 -0.2725
 2974TIP3    H230558   1.762   1.993   0.684 -0.1052 -1.1376  0.6323
 2975TIP3   OH230559   6.140   2.538   7.946  0.0076  0.1753 -0.2812
 2975TIP3    H130560   6.199   2.607   7.915 -0.5478  0.2332 -1.2646
 2975TIP3    H230561   6.197   2.476   7.991  1.0080 -0.2919 -2.1009
 2976TIP3   OH230562   1.858   3.953   3.306 -0.1972 -0.2184  0.5335
 2976TIP3    H130563   1.884   4.013   3.375 -1.4712 -0.6932  1.4727
 2976TIP3    H230564   1.940   3.924   3.267  0.6480 -0.9849  2.7423
 2977TIP3   OH230565   6.376   0.827   0.389  0.3460  0.2908  0.4002
 2977TIP3    H130566   6.413   0.886   0.455 -1.6362 -0.3883  2.2497
 2977TIP3    H230567   6.452   0.786   0.348  1.7003 -0.0121  2.9978
 2978TIP3   OH230568   5.982   1.395   3.861 -0.3352 -0.7866 -0.1373
 2978TIP3    H130569   6.034   1.357   3.931  1.0447 -0.4231 -0.9242
 2978TIP3    H230570   5.893   1.362   3.875  0.0283 -1.1416  1.4469
 2979TIP3   OH230571   5.090   2.563   2.359  0.2944  0.4217  0.0176
 2979TIP3    H130572   5.066   2.655   2.347  4.6868  2.1335  2.2040
 2979TIP3    H230573   5.119   2.534   2.273  1.3359  1.9752 -0.1873
 2980TIP3   OH230574   2.253   6.032   2.609 -0.4546 -0.3551  0.2850
 2980TIP3    H130575   2.249   5.985   2.525  0.3600  2.1008 -1.2302
 2980TIP3    H230576   2.162   6.039   2.636 -0.9035  0.0797 -1.1966
 2981TIP3   OH230577   0.742   2.432   2.341 -0.1663  0.1993  0.3652
 2981TIP3    H130578   0.680   2.395   2.278 -1.5874 -0.0620  1.8346
 2981TIP3    H230579   0.731   2.526   2.333 -0.4090  0.1647  0.2956
 2982TIP3   OH230580   4.262   1.851   2.993  0.1142  0.1300  0.5970
 2982TIP3    H130581   4.310   1.899   2.926  0.5342 -2.0099 -0.7176
 2982TIP3    H230582   4.329   1.801   3.039 -0.4265 -0.0233  1.2337
 2983TIP3   OH230583   4.351   4.388   1.005  0.2427  0.1832  0.5161
 2983TIP3    H130584   4.435   4.358   0.970  0.3277  1.0896 -0.0832
 2983TIP3    H230585   4.306   4.428   0.931 -0.4735  0.2427  0.9661
 2984TIP3   OH230586   0.721   4.607   1.674  0.1830 -0.3570  0.1411
 2984TIP3    H130587   0.703   4.700   1.686 -0.8718 -0.3523 -1.1565
 2984TIP3    H230588   0.794   4.604   1.613  0.2090 -0.3778  0.1731
 2985TIP3   OH230589   3.956   0.389   3.567 -0.6003  0.4883  0.6283
 2985TIP3    H130590   3.997   0.476   3.568 -0.9289  0.6448  0.5226
 2985TIP3    H230591   3.871   0.403   3.526 -1.0612  0.3000  1.4799
 2986TIP3   OH230592   0.232   6.217   0.432 -0.6943 -0.4600  0.4774
 2986TIP3    H130593   0.312   6.167   0.444  0.2052  0.8632  0.1874
 2986TIP3    H230594   0.185   6.207   0.515  0.6395  0.2465  1.3495
 2987TIP3   OH230595   5.900   1.797   8.827  0.7160  0.4194  0.2816
 2987TIP3    H130596   5.806   1.793   8.848  0.9278 -0.4510  1.1673
 2987TIP3    H230597   5.943   1.763   8.905  1.6751 -1.0150 -0.8064
 2988TIP3   OH230598   4.917   2.543   8.402 -0.4108 -0.3058 -0.6687
 2988TIP3    H130599   4.906   2.603   8.476  0.5093 -0.2908 -0.5285
 2988TIP3    H230600   4.942   2.600   8.329  1.0337 -0.5572 -0.3940
 2989TIP3   OH230601   1.736   1.189   1.412  0.2480 -0.0602 -0.1483
 2989TIP3    H130602   1.701   1.112   1.367  2.6129 -1.3705  0.0697
 2989TIP3    H230603   1.759   1.250   1.342  1.9253 -1.2044 -0.6591
 2990TIP3   OH230604   1.979   6.403   2.609  0.1973  0.3663 -0.6533
 2990TIP3    H130605   2.074   6.390   2.611  0.5320  2.3545 -1.1823
 2990TIP3    H230606   1.960   6.455   2.686 -0.6650 -0.9213  0.0370
 2991TIP3   OH230607   5.931   4.031   3.279 -0.7917  0.4363 -0.0606
 2991TIP3    H130608   5.947   4.106   3.221  2.4013 -0.7794 -0.9683
 2991TIP3    H230609   5.916   3.958   3.219 -2.3369  0.0217  0.7917
 2992TIP3   OH230610   2.487   6.808   1.169 -0.3948  0.1955 -0.6481
 2992TIP3    H130611   2.568   6.843   1.207 -0.7993  1.3295 -0.7846
 2992TIP3    H230612   2.503   6.714   1.161  0.6730  0.3126 -0.0955
 2993TIP3   OH230613   2.127   3.765   1.867  0.2976 -0.6133  0.3877
 2993TIP3    H130614   2.089   3.803   1.947  3.0761  0.9054  1.1309
 2993TIP3    H230615   2.107   3.828   1.798  0.3600 -0.4691  0.5013
 2994TIP3   OH230616   4.987   0.465   2.279  0.7133  0.2458  0.3386
 2994TIP3    H130617   4.989   0.388   2.336  2.6927 -1.1767 -1.4749
 2994TIP3    H230618   4.935   0.437   2.203  0.8698  0.9341 -0.0287
 2995TIP3   OH230619   4.788   6.503   1.141 -0.7465  0.3642  0.3081
 2995TIP3    H130620   4.723   6.570   1.160 -0.5436  0.7154 -0.1967
 2995TIP3    H230621   4.749   6.450   1.071 -0.6432  0.3475  0.2624
 2996TIP3   OH230622   3.031   4.905   0.297  0.0451 -0.1917 -0.2107
 2996TIP3    H130623   3.111   4.948   0.327  0.3905 -0.1400 -1.1594
 2996TIP3    H230624   3.061   4.843   0.230 -0.8583  1.1033 -1.9136
 2997TIP3   OH230625   0.788   5.390   4.236 -0.4125 -0.0452 -0.4501
 2997TIP3    H130626   0.732   5.338   4.293 -0.4014 -0.1599 -0.5438
 2997TIP3    H230627   0.734   5.409   4.159 -0.1160 -0.6989 -0.8308
 2998TIP3   OH230628   4.894   5.447   1.668 -0.1711  0.1335  0.3002
 2998TIP3    H130629   4.813   5.490   1.638 -0.2344  0.7256  1.2751
 2998TIP3    H230630   4.879   5.354   1.652 -1.7280  0.0511  1.9869
 2999TIP3   OH230631   1.309   5.104   0.655 -0.2429 -0.1415  0.6504
 2999TIP3    H130632   1.343   5.018   0.681  0.1611  0.0345  0.7136
 2999TIP3    H230633   1.223   5.110   0.697 -0.0358 -0.2903  1.0986
 3000TIP3   OH230634   6.087   1.462   8.643  0.6805  0.0430 -0.0281
 3000TIP3    H130635   6.163   1.504   8.684 -0.0987  0.3760  1.1412
 3000TIP3    H230636   6.067   1.518   8.567  3.3358 -1.6641 -2.1597
 3001TIP3   OH230637   3.698   0.291   3.737 -0.1488  0.2843 -0.1703
 3001TIP3    H130638   3.743   0.284   3.821 -0.7473 -0.9155  0.0714
 3001TIP3    H230639   3.734   0.371   3.697  1.1082  0.1477  0.6353
 3002TIP3   OH230640   0.487   5.460   0.497 -0.0668 -0.0637  0.0978
 3002TIP3    H130641   0.513   5.372   0.524 -0.4845 -0.2593 -0.1254
 3002TIP3    H230642   0.508   5.515   0.572  1.9336 -0.0339 -0.4476
 3003TIP3   OH230643   0.192   4.269   0.969 -0.1056  0.0750 -0.2111
 3003TIP3    H130644   0.123   4.277   0.903 -0.6863 -0.2607  0.3303
 3003TIP3    H230645   0.196   4.356   1.010 -2.6960 -0.7503  2.1062
 3004TIP3   OH230646   4.448   0.579   1.379  0.0071  0.1405  0.5377
 3004TIP3    H130647   4.527   0.607   1.332 -0.1297 -0.1904  0.0980
 3004TIP3    H230648   4.416   0.504   1.328 -0.2525 -0.1052  1.0620
 3005TIP3   OH230649   1.318   5.904   3.038 -0.6587 -0.2523 -0.7831
 3005TIP3    H130650   1.273   5.959   3.102  0.5544  0.1980 -0.2901
 3005TIP3    H230651   1.320   5.956   2.958 -1.2631 -0.3958 -0.8959
 3006TIP3   OH230652   6.239   3.766   1.191 -0.7988  0.0907  0.2193
 3006TIP3    H130653   6.293   3.697   1.228 -0.2552  1.4205  2.0221
 3006TIP3    H230654   6.262   3.768   1.098  1.4614 -0.1139  0.7217
 3007TIP3   OH230655   1.981   3.975   8.759 -0.8094 -0.3626  0.2682
 3007TIP3    H130656   1.959   4.067   8.775 -0.8132 -0.6336  2.0818
 3007TIP3    H230657   1.947   3.929   8.836  0.1231 -1.7442 -0.1047
 3008TIP3   OH230658   6.686   3.715   0.880 -0.5637  0.2788  0.1498
 3008TIP3    H130659   6.739   3.691   0.956  0.1554  1.7541  0.1440
 3008TIP3    H230660   6.729   3.792   0.844 -2.5135  1.3354 -0.0595
 3009TIP3   OH230661   3.096   3.085   0.740  0.3305 -0.2645 -0.1167
 3009TIP3    H130662   3.172   3.080   0.799  0.2613 -0.5449 -0.0461
 3009TIP3    H230663   3.108   3.011   0.681  0.6490  0.2954 -0.7673
 3010TIP3   OH230664   0.281   3.008   1.049 -0.3671 -0.0672 -0.3549
 3010TIP3    H130665   0.319   3.095   1.064  0.9997 -0.7470  0.4320
 3010TIP3    H230666   0.261   3.006   0.956 -0.1049  0.9754 -0.4517
 3011TIP3   OH230667   3.868   0.395   0.524  0.0736  0.0973  0.0714
 3011TIP3    H130668   3.881   0.485   0.496  1.2211  0.1226  0.6110
 3011TIP3    H230669   3.957   0.363   0.543 -0.1128 -1.6655 -1.6786
 3012TIP3   OH230670   4.144   1.905   3.232  0.3736  0.1911 -0.0083
 3012TIP3    H130671   4.182   1.902   3.145  1.2584  0.0779  0.3756
 3012TIP3    H230672   4.112   1.816   3.247 -0.2398  0.3344 -0.4056
 3013TIP3   OH230673   4.670   3.903   0.476  0.3422  0.6748  0.1955
 3013TIP3    H130674   4.661   3.907   0.571 -1.3672 -0.3413  0.1294
 3013TIP3    H230675   4.585   3.932   0.443  0.2718 -0.6968 -0.9433
 3014TIP3   OH230676   4.774   0.252   2.523  0.2351 -0.2386  0.1979
 3014TIP3    H130677   4.863   0.222   2.508  0.0152 -0.6075 -0.4029
 3014TIP3    H230678   4.733   0.252   2.436 -0.6680 -1.1228  0.5929
 3015TIP3   OH230679   1.605   3.760   8.824  0.6515 -0.5405 -0.1411
 3015TIP3    H130680   1.697   3.738   8.838  0.5043 -1.0102  0.1438
 3015TIP3    H230681   1.574   3.786   8.911  0.1054 -2.0063  0.1394
 3016TIP3   OH230682   4.032   3.970   1.716 -0.2626  0.4379 -0.1462
 3016TIP3    H130683   4.072   3.980   1.629  1.9660  0.2397  0.7974
 3016TIP3    H230684   3.995   4.057   1.735  0.2008  0.7967 -0.8396
 3017TIP3   OH230685   4.463   4.505   1.637 -0.0366  0.4497  0.5655
 3017TIP3    H130686   4.455   4.428   1.582 -1.1125  0.3101  0.9017
 3017TIP3    H230687   4.486   4.470   1.723  0.9268  0.6183  0.3893
 3018TIP3   OH230688   2.876   0.930   1.378  0.3944  0.8064 -0.3766
 3018TIP3    H130689   2.896   0.859   1.439 -1.2196  1.6666  1.2423
 3018TIP3    H230690   2.871   0.888   1.293 -1.1340 -1.1633  0.6115
 3019TIP3   OH230691   4.688   4.841   2.645 -0.3560 -0.3336  0.0121
 3019TIP3    H130692   4.744   4.800   2.711 -0.2289  0.3849  0.3578
 3019TIP3    H230693   4.738   4.834   2.564  0.4263  0.6675  0.3941
 3020TIP3   OH230694   4.128   2.724   1.098 -0.4621 -0.2301 -0.3939
 3020TIP3    H130695   4.032   2.722   1.099 -0.4592 -1.0279 -0.9987
 3020TIP3    H230696   4.152   2.754   1.186 -1.2556 -0.6809 -0.0130
 3021TIP3   OH230697   5.044   1.121   3.196  0.2786  0.4316  0.1936
 3021TIP3    H130698   5.019   1.203   3.240 -2.8100  0.0526 -0.6011
 3021TIP3    H230699   5.068   1.148   3.108 -0.6105  0.5409 -0.0286
 3022TIP3   OH230700   1.344   4.033   3.007  0.0995 -0.2133  0.4027
 3022TIP3    H130701   1.255   4.007   3.033 -1.2726  2.1720 -1.5341
 3022TIP3    H230702   1.370   4.099   3.071  0.3400 -0.6484  0.7573
 3023TIP3   OH230703   2.618   4.566   8.473 -0.0482 -0.1134 -0.3452
 3023TIP3    H130704   2.670   4.636   8.434  0.0648  0.6395  1.1081
 3023TIP3    H230705   2.617   4.497   8.406  3.6858 -0.6461 -0.0697
 3024TIP3   OH230706   5.344   1.249   2.640  0.3667  0.4980  0.0719
 3024TIP3    H130707   5.279   1.293   2.694  1.1925  1.5126  0.2663
 3024TIP3    H230708   5.298   1.230   2.558 -0.2006  1.1311  0.2362
 3025TIP3   OH230709   6.045   3.067   1.972  1.1050  0.1494 -0.1333
 3025TIP3    H130710   6.134   3.073   1.937  0.8705 -1.3606 -1.0470
 3025TIP3    H230711   5.991   3.046   1.896 -0.2038  1.9553  0.2375
 3026TIP3   OH230712   6.176   5.972   3.367  0.1691 -0.3820  0.1864
 3026TIP3    H130713   6.160   5.980   3.461  1.9986 -1.0777  0.6014
 3026TIP3    H230714   6.254   5.917   3.360 -0.1321 -0.6572 -1.7663
 3027TIP3   OH230715   1.123   1.730   0.299 -0.3251 -0.0830  0.4012
 3027TIP3    H130716   1.092   1.642   0.324  0.1061 -0.2693  0.2926
 3027TIP3    H230717   1.118   1.781   0.380 -2.5796  0.3968  0.0237
 3028TIP3   OH230718   4.129   0.769   2.609  0.3558 -0.5678 -0.2425
 3028TIP3    H130719   4.212   0.814   2.588  0.5506  0.4306  2.3617
 3028TIP3    H230720   4.065   0.840   2.617 -0.3763 -1.1888 -0.5277
 3029TIP3   OH230721   2.506   3.294   3.071 -0.2886 -0.0246 -0.0909
 3029TIP3    H130722   2.513   3.324   3.162 -1.1874  0.9440 -0.3267
 3029TIP3    H230723   2.561   3.355   3.021  0.2884 -0.6189 -0.1900
 3030TIP3   OH230724   3.784   6.719   0.976  0.0109  0.5654  0.2185
 3030TIP3    H130725   3.779   6.779   1.051  2.1381  0.4561  0.5283
 3030TIP3    H230726   3.813   6.773   0.903  2.7549 -0.1008  0.6876
 3031TIP3   OH230727   3.384   0.886   1.562 -0.4126  0.1908  0.0956
 3031TIP3    H130728   3.390   0.929   1.647  0.1111  0.4606 -0.0718
 3031TIP3    H230729   3.475   0.876   1.534 -0.5523 -0.4794 -0.1456
 3032TIP3   OH230730   2.429   1.095   0.186  0.4529  0.2097 -0.6774
 3032TIP3    H130731   2.339   1.090   0.154 -0.2393  0.5363  1.1278
 3032TIP3    H230732   2.457   1.004   0.194 -0.9518 -0.0939  1.9438
 3033TIP3   OH230733   5.148   4.462   2.653  0.6159  0.0471 -0.0726
 3033TIP3    H130734   5.103   4.502   2.728  0.2956  0.1458 -0.3170
 3033TIP3    H230735   5.110   4.374   2.648  1.4242 -0.3494  0.5561
 3034TIP3   OH230736   2.178   2.251   0.513 -0.1221  0.2563  0.4243
 3034TIP3    H130737   2.164   2.157   0.497  1.0480  0.1879 -0.3201
 3034TIP3    H230738   2.100   2.279   0.561 -0.9304 -0.8932 -0.1733
 3035TIP3   OH230739   0.829   3.476   8.774  0.3195  0.3882 -0.0484
 3035TIP3    H130740   0.776   3.442   8.846  2.4831  0.6156  1.7571
 3035TIP3    H230741   0.880   3.400   8.744  1.9603  1.0042  1.0553
 3036TIP3   OH230742   2.238   6.574   0.934 -0.5851  0.0775  0.0363
 3036TIP3    H130743   2.293   6.553   1.009 -2.4063 -0.2132  1.3586
 3036TIP3    H230744   2.276   6.654   0.898  1.5321 -0.8789 -0.0224
 3037TIP3   OH230745   2.077   0.356   3.986  0.7762 -0.2241 -0.0578
 3037TIP3    H130746   2.121   0.390   3.907  0.6803  0.2312  0.0818
 3037TIP3    H230747   2.139   0.371   4.056  0.1602  1.0293  0.2551
 3038TIP3   OH230748   3.658   1.628   3.000 -0.0244  0.0256 -0.0504
 3038TIP3    H130749   3.640   1.663   2.913 -1.2132 -1.0365 -0.2650
 3038TIP3    H230750   3.724   1.560   2.986  3.3936  2.9258  0.5477
 3039TIP3   OH230751   0.465   6.053   3.131 -0.1522 -0.1874  0.0879
 3039TIP3    H130752   0.371   6.039   3.123 -0.3639 -0.2216  2.0525
 3039TIP3    H230753   0.478   6.143   3.102 -0.7661 -0.2208 -0.3172
 3040TIP3   OH230754   2.394   5.668   3.118  0.1616 -0.2112  0.2413
 3040TIP3    H130755   2.479   5.626   3.130  0.8701  0.9917 -0.3533
 3040TIP3    H230756   2.411   5.738   3.055 -1.1499  0.4166  0.5557
 3041TIP3   OH230757   3.646   4.686   0.312 -0.1108 -0.6032 -0.4056
 3041TIP3    H130758   3.605   4.695   0.398  4.2228 -1.2806  2.0826
 3041TIP3    H230759   3.696   4.766   0.301 -1.2415 -0.1534 -2.8259
 3042TIP3   OH230760   4.326   2.940   0.916 -0.7250 -0.0669  0.4945
 3042TIP3    H130761   4.302   2.870   0.977  0.8392 -0.2902  0.9007
 3042TIP3    H230762   4.404   2.907   0.871 -1.2531  0.5248 -0.9015
 3043TIP3   OH230763   0.576   6.301   0.884 -0.7048  0.0934 -0.2312
 3043TIP3    H130764   0.568   6.368   0.816 -3.0401 -0.4575 -0.5513
 3043TIP3    H230765   0.504   6.318   0.944  0.4674 -0.3173  1.3833
 3044TIP3   OH230766   3.621   1.074   8.634  0.2674 -0.2056 -0.6045
 3044TIP3    H130767   3.570   1.031   8.565  0.0713 -0.1170 -0.5164
 3044TIP3    H230768   3.701   1.103   8.591  0.7412 -1.3040 -0.5129
 3045TIP3   OH230769   0.953   0.853   1.517  0.0890 -0.6551 -0.0723
 3045TIP3    H130770   0.977   0.824   1.429  0.4247 -2.9812  0.7362
 3045TIP3    H230771   0.870   0.811   1.534  0.0133 -0.1907  0.7271
 3046TIP3   OH230772   0.820   4.942   3.609  0.3840  0.3643  0.8203
 3046TIP3    H130773   0.820   4.933   3.704  1.0187  0.1760  0.8005
 3046TIP3    H230774   0.862   4.863   3.576 -0.4735  0.0850  0.3404
 3047TIP3   OH230775   0.471   0.017   2.661  0.1648 -0.4620  0.5333
 3047TIP3    H130776   0.459  -0.038   2.584  0.0085  1.3073 -0.7474
 3047TIP3    H230777   0.419   0.095   2.643  4.1946  2.3748 -0.0031
 3048TIP3   OH230778   1.226   3.329   0.163 -0.0266  0.3901 -0.1199
 3048TIP3    H130779   1.164   3.261   0.191  0.1693  0.4018  0.3627
 3048TIP3    H230780   1.185   3.370   0.088 -0.2752 -0.0829 -0.2448
 3049TIP3   OH230781   5.920   4.113   2.247  0.1445  0.1736  0.3032
 3049TIP3    H130782   5.889   4.191   2.201  0.0208 -0.4310 -0.6587
 3049TIP3    H230783   5.849   4.050   2.239  0.3588 -0.1397  0.8296
 3050TIP3   OH230784   0.712   1.607   8.458 -0.0060  0.0221  0.1335
 3050TIP3    H130785   0.796   1.642   8.426  0.9493  0.7412  3.1405
 3050TIP3    H230786   0.715   1.514   8.433  0.4094  0.5828 -2.1615
 3051TIP3   OH230787   4.321   0.749   1.088  0.4253  0.1445 -0.2073
 3051TIP3    H130788   4.364   0.807   1.150  0.1208  0.3837 -0.2149
 3051TIP3    H230789   4.387   0.733   1.020  1.3831 -1.5356  1.0424
 3052TIP3   OH230790   1.993   1.638   3.442 -0.0033 -0.2705 -0.6108
 3052TIP3    H130791   1.943   1.718   3.428 -0.4112 -0.5501 -0.7672
 3052TIP3    H230792   2.020   1.611   3.354  0.2184 -0.2517 -0.5490
 3053TIP3   OH230793   2.056   1.221   3.612 -0.5193  0.2484 -0.4384
 3053TIP3    H130794   2.019   1.147   3.660  0.6519 -0.1122 -0.0468
 3053TIP3    H230795   2.063   1.190   3.522 -0.3076 -0.0215 -0.3321
 3054TIP3   OH230796   4.049   2.110   0.733  0.8012 -0.7373  0.0223
 3054TIP3    H130797   4.086   2.191   0.699 -0.8409 -0.2235 -0.6903
 3054TIP3    H230798   3.961   2.106   0.694 -0.0606 -1.6562  1.9003
 3055TIP3   OH230799   6.327   2.584   0.187  0.1349 -0.4420  0.0855
 3055TIP3    H130800   6.301   2.656   0.246 -1.0657 -0.4684 -0.3854
 3055TIP3    H230801   6.412   2.556   0.221  0.4688  0.9658  0.4939
 3056TIP3   OH230802   4.125   1.620   0.581  0.4782 -0.2409  0.0469
 3056TIP3    H130803   4.170   1.681   0.523  0.2922  0.0613  0.2172
 3056TIP3    H230804   4.146   1.533   0.546  0.0125 -0.0485 -0.7388
 3057TIP3   OH230805   0.833   5.228   0.185  0.3373  0.1444  0.3820
 3057TIP3    H130806   0.861   5.143   0.150 -0.4854 -0.3716  0.9236
 3057TIP3    H230807   0.914   5.274   0.205  0.7972 -0.9555  1.1119
 3058TIP3   OH230808   5.713   0.793   2.300 -0.0073 -0.0454 -0.7415
 3058TIP3    H130809   5.642   0.854   2.323  0.9292  1.0966 -0.8074
 3058TIP3    H230810   5.775   0.801   2.373  2.1287  2.2567 -2.6015
 3059TIP3   OH230811   1.741   0.888   0.382  0.0782  0.0250  0.2835
 3059TIP3    H130812   1.747   0.943   0.460 -0.9469  1.5405 -0.6418
 3059TIP3    H230813   1.664   0.833   0.397  0.0956  0.0539  0.4840
 3060TIP3   OH230814   0.170   6.497   8.809 -0.2931  0.4690 -0.3582
 3060TIP3    H130815   0.210   6.450   8.883 -1.7717  1.0249  0.8577
 3060TIP3    H230816   0.157   6.430   8.742 -2.1709 -0.9254  1.2582
 3061TIP3   OH230817   6.580   5.858   3.898  0.0281  0.0422  0.4201
 3061TIP3    H130818   6.553   5.812   3.819  0.3426 -1.1371  0.9648
 3061TIP3    H230819   6.536   5.943   3.894 -0.1339 -0.0924 -0.8942
 3062TIP3   OH230820   3.261   2.422   0.747  0.2242  0.4642  0.4942
 3062TIP3    H130821   3.247   2.515   0.764  0.0899  0.3532  1.0310
 3062TIP3    H230822   3.353   2.407   0.770  0.4424  0.6019 -0.2607
 3063TIP3   OH230823   2.665   5.503   2.289 -0.1528  0.0565 -0.9911
 3063TIP3    H130824   2.732   5.561   2.324 -0.1692  0.1961 -1.1864
 3063TIP3    H230825   2.589   5.559   2.276 -0.4159 -0.1715 -0.4566
 3064TIP3   OH230826   1.771   5.708   1.771 -0.3821  0.0352 -0.3267
 3064TIP3    H130827   1.712   5.732   1.843  0.0645  1.3974 -0.3887
 3064TIP3    H230828   1.716   5.655   1.713 -1.2159  0.2939  0.2025
 3065TIP3   OH230829   4.853   5.516   2.484 -0.2421  0.3524 -0.0840
 3065TIP3    H130830   4.824   5.479   2.567 -0.3770 -1.1313 -0.7456
 3065TIP3    H230831   4.811   5.461   2.418 -0.7466  1.9706 -1.1539
 3066TIP3   OH230832   5.724   3.753   8.243 -0.0580  0.0524 -0.7340
 3066TIP3    H130833   5.635   3.717   8.249  0.0412 -0.3623 -1.6291
 3066TIP3    H230834   5.772   3.688   8.192  0.4268  0.9047 -1.3709
 3067TIP3   OH230835   3.784   6.140   8.508  0.2153 -0.1179 -0.7135
 3067TIP3    H130836   3.753   6.058   8.469 -0.2091  0.1343 -0.9099
 3067TIP3    H230837   3.826   6.186   8.436 -0.6178  0.3732 -0.8922
 3068TIP3   OH230838   0.702   5.470   2.895 -0.0647 -0.1670 -0.3895
 3068TIP3    H130839   0.633   5.529   2.924 -0.5518 -0.0530 -1.7246
 3068TIP3    H230840   0.677   5.385   2.930 -0.2178  0.0993  0.1677
 3069TIP3   OH230841   5.528   4.962   3.774 -0.0442  0.4289  0.3083
 3069TIP3    H130842   5.597   5.029   3.775  0.3872  0.0339 -1.1426
 3069TIP3    H230843   5.562   4.892   3.829  0.5021  0.4529  0.0117
 3070TIP3   OH230844   4.839   3.580   3.434 -0.2888 -0.1736 -0.3466
 3070TIP3    H130845   4.842   3.542   3.522 -2.5907 -0.9220 -0.5106
 3070TIP3    H230846   4.808   3.508   3.379 -0.0641  0.6363 -1.5551
 3071TIP3   OH230847   5.558   1.511   2.417  0.0318 -0.0023  0.5456
 3071TIP3    H130848   5.572   1.597   2.458  1.7973 -0.0267  0.0961
 3071TIP3    H230849   5.583   1.524   2.326  1.5001 -1.2389  0.7225
 3072TIP3   OH230850   0.188   1.784   3.007 -0.3046 -0.3299  0.1246
 3072TIP3    H130851   0.206   1.878   3.001 -0.4974 -0.3360 -0.6274
 3072TIP3    H230852   0.263   1.742   2.967 -1.3354 -0.3948 -1.8634
 3073TIP3   OH230853   3.562   4.143   1.719  0.0596  0.6862 -0.0429
 3073TIP3    H130854   3.615   4.120   1.796  0.9997  0.9098 -0.6154
 3073TIP3    H230855   3.500   4.070   1.711  0.6422  0.1358  0.3091
 3074TIP3   OH230856   0.950   3.657   2.394  0.3194 -0.5366  0.3109
 3074TIP3    H130857   0.879   3.712   2.359  1.1052 -0.3708 -1.1187
 3074TIP3    H230858   0.924   3.568   2.372  0.0379 -0.5728  0.7757
 3075TIP3   OH230859   0.377   6.266   1.113  0.3936  0.3893  0.1043
 3075TIP3    H130860   0.362   6.173   1.096  0.5501 -0.0522  2.2056
 3075TIP3    H230861   0.289   6.302   1.128  0.1715  0.9485 -2.1383
 3076TIP3   OH230862   2.604   1.027   1.888  0.2269 -0.1872 -0.7168
 3076TIP3    H130863   2.561   1.110   1.871 -0.4149 -0.6993 -1.6362
 3076TIP3    H230864   2.606   0.982   1.804 -0.2806 -1.5038 -0.0576
 3077TIP3   OH230865   3.738   1.707   1.650  0.0848  0.0262  0.1749
 3077TIP3    H130866   3.720   1.755   1.570  0.5284 -0.9247 -0.5246
 3077TIP3    H230867   3.829   1.727   1.670  0.6181 -1.3215 -0.7328
 3078TIP3   OH230868   6.217   1.596   2.831 -0.2173 -0.0446  0.5493
 3078TIP3    H130869   6.264   1.673   2.799 -0.0973 -0.0161  0.7852
 3078TIP3    H230870   6.266   1.569   2.909  0.8656 -1.4941 -0.5770
 3079TIP3   OH230871   0.257   5.986   4.075  0.7070  0.0547 -0.1489
 3079TIP3    H130872   0.344   6.022   4.091  0.3287  0.4151  1.2976
 3079TIP3    H230873   0.267   5.892   4.091  1.0196 -0.0389 -0.8743
 3080TIP3   OH230874   0.529   0.143   4.183  0.3309  0.3226 -0.1831
 3080TIP3    H130875   0.471   0.181   4.117 -0.3866 -0.9216 -0.3026
 3080TIP3    H230876   0.509   0.191   4.263 -3.1485 -1.9970  0.5384
 3081TIP3   OH230877   2.930   0.174   4.186 -0.4742 -0.0109 -0.6128
 3081TIP3    H130878   2.893   0.086   4.176 -2.4204  0.7200 -0.1932
 3081TIP3    H230879   3.020   0.158   4.214 -1.0267 -1.8736  0.2854
 3082TIP3   OH230880   2.847   4.519   2.206 -0.3791 -0.5492  0.1435
 3082TIP3    H130881   2.915   4.510   2.139 -0.6971 -1.2391 -0.1015
 3082TIP3    H230882   2.865   4.603   2.248  1.9088 -1.6220  1.5081
 3083TIP3   OH230883   1.732   2.276   4.249  0.1328 -0.0345 -0.2730
 3083TIP3    H130884   1.807   2.217   4.254  0.7077  0.7360  0.2985
 3083TIP3    H230885   1.676   2.251   4.322  0.0219 -0.3531 -0.4670
 3084TIP3   OH230886   4.702   5.693   1.437  0.6244  0.8248 -0.5499
 3084TIP3    H130887   4.780   5.746   1.456  0.7438  0.7966 -0.9498
 3084TIP3    H230888   4.687   5.642   1.517  1.5520  0.1575 -0.7912
 3085TIP3   OH230889   1.589   4.942   0.329  0.0371  0.2107 -0.2697
 3085TIP3    H130890   1.631   4.895   0.257 -1.3553 -0.3103 -0.7807
 3085TIP3    H230891   1.504   4.898   0.340 -0.5942  1.5328  0.3786
 3086TIP3   OH230892   5.540   3.916   1.630 -0.0528  0.1390 -0.3293
 3086TIP3    H130893   5.565   3.946   1.717  0.1497 -1.2520  0.1161
 3086TIP3    H230894   5.576   3.981   1.570  2.9293 -0.6951  0.4056
 3087TIP3   OH230895   0.025   4.269   0.330 -0.4255 -0.3918  0.2152
 3087TIP3    H130896   0.080   4.347   0.328 -0.3221 -0.3187  2.5600
 3087TIP3    H230897   0.022   4.239   0.240  1.5497  0.9207 -0.3470
 3088TIP3   OH230898   1.745   5.509   3.387 -0.1331  0.0465  0.2333
 3088TIP3    H130899   1.708   5.422   3.372  1.1532 -0.1729 -2.0383
 3088TIP3    H230900   1.669   5.565   3.403 -1.1025 -1.1534 -0.0124
 3089TIP3   OH230901   6.542   2.372   3.322  0.8011  0.5904 -0.3323
 3089TIP3    H130902   6.496   2.428   3.385 -0.8082 -0.1787 -0.7863
 3089TIP3    H230903   6.621   2.343   3.369 -1.3475 -1.6994  2.2396
 3090TIP3   OH230904   4.443   0.212   2.577  0.1720  0.0750  0.5687
 3090TIP3    H130905   4.499   0.138   2.555 -1.1391 -0.5441 -0.9450
 3090TIP3    H230906   4.403   0.188   2.660  0.9826 -0.1650  0.8972
 3091TIP3   OH230907   5.298   4.677   1.326 -0.7488  0.3567  0.1642
 3091TIP3    H130908   5.342   4.739   1.267  0.9232  0.0962  1.0754
 3091TIP3    H230909   5.253   4.732   1.389  1.5020  0.7704  1.5478
 3092TIP3   OH230910   1.510   1.832   2.684 -0.9275  0.3357  0.2889
 3092TIP3    H130911   1.576   1.890   2.647 -1.0283  0.9689  1.0880
 3092TIP3    H230912   1.537   1.744   2.656  0.0718  0.6193  0.3390
 3093TIP3   OH230913   0.644   0.381   1.660  0.0573  0.0071  0.1403
 3093TIP3    H130914   0.595   0.315   1.612  0.4157  0.3420 -0.7012
 3093TIP3    H230915   0.580   0.449   1.680  0.2205  0.5810 -1.2143
 3094TIP3   OH230916   4.876   5.808   0.145 -0.5655 -0.2749  0.1012
 3094TIP3    H130917   4.942   5.765   0.199  0.0367  0.3443 -0.1195
 3094TIP3    H230918   4.904   5.791   0.055 -0.2998  0.5805  0.0103
 3095TIP3   OH230919   5.160   3.546   2.715 -0.0249  0.3849  0.7181
 3095TIP3    H130920   5.067   3.527   2.708  0.3022 -0.8559 -0.8996
 3095TIP3    H230921   5.167   3.608   2.787 -2.1246  0.7246  0.6741
 3096TIP3   OH230922   1.031   3.973   3.718 -0.1604 -0.0704  0.1254
 3096TIP3    H130923   1.086   3.929   3.783 -1.4301  0.5292  1.6691
 3096TIP3    H230924   0.987   3.902   3.671 -1.9229 -0.5448  2.3500
 3097TIP3   OH230925   6.009   1.214   3.579 -0.5381 -0.0347 -0.4350
 3097TIP3    H130926   5.971   1.127   3.580  0.5885 -0.5466  0.8945
 3097TIP3    H230927   6.061   1.219   3.659 -2.2071  2.5941  0.6214
 3098TIP3   OH230928   5.395   4.489   1.792  0.1194 -0.3510  0.1923
 3098TIP3    H130929   5.474   4.459   1.746  0.6554  0.7255  0.3722
 3098TIP3    H230930   5.323   4.467   1.733  0.8430  1.6272 -1.5477
 3099TIP3   OH230931   4.522   4.160   1.184 -0.0026 -0.1621  0.4714
 3099TIP3    H130932   4.589   4.185   1.247  2.3648 -1.5395 -1.3146
 3099TIP3    H230933   4.503   4.241   1.136  2.2950 -0.1568 -0.5831
 3100TIP3   OH230934   1.497   0.705   0.180 -0.3367 -0.0331  0.2899
 3100TIP3    H130935   1.494   0.799   0.201 -0.6577  0.3013 -1.1398
 3100TIP3    H230936   1.455   0.699   0.094  2.8304 -1.0010 -1.3235
 3101TIP3   OH230937   3.991   5.354   0.124  1.1109  0.3961 -0.4186
 3101TIP3    H130938   4.000   5.448   0.139  0.1333  0.3731  0.5176
 3101TIP3    H230939   3.956   5.347   0.035 -0.4170  1.0494  0.0802
 3102TIP3   OH230940   6.433   4.828   1.796 -0.4232 -0.3038 -0.2064
 3102TIP3    H130941   6.476   4.762   1.740  0.6006  0.0060  0.1918
 3102TIP3    H230942   6.460   4.912   1.759 -0.9629 -0.1017 -0.1464
 3103TIP3   OH230943   2.052   4.212   0.123  0.5225  0.0830  0.8030
 3103TIP3    H130944   2.147   4.207   0.112  0.7548 -1.8437  2.9163
 3103TIP3    H230945   2.038   4.203   0.217 -1.7881 -0.0565  0.5060
 3104TIP3   OH230946   4.435   3.024   1.396  0.6632 -0.3864 -0.0402
 3104TIP3    H130947   4.518   2.986   1.368  1.6190  0.4638  1.4719
 3104TIP3    H230948   4.439   3.023   1.492 -0.9955 -0.1548  0.0655
 3105TIP3   OH230949   6.043   1.260   4.073  0.5726  0.1795 -0.3062
 3105TIP3    H130950   6.036   1.166   4.063 -2.1348  0.4567 -1.9012
 3105TIP3    H230951   6.101   1.272   4.148  0.8929 -2.7164  0.0141
 3106TIP3   OH230952   2.611   0.688   2.796 -0.4976  0.6897  0.3415
 3106TIP3    H130953   2.675   0.636   2.747  1.0974  0.5183  2.4247
 3106TIP3    H230954   2.531   0.682   2.745  0.1845 -2.0837 -0.6174
 3107TIP3   OH230955   2.674   0.019   2.078  0.3984 -0.6708 -0.7357
 3107TIP3    H130956   2.671  -0.031   2.160 -0.6929  0.2115 -0.2122
 3107TIP3    H230957   2.764   0.050   2.073  0.1926  0.2829  0.7803
 3108TIP3   OH230958   4.367   6.093   0.334 -0.0091 -0.7630 -0.2199
 3108TIP3    H130959   4.406   6.177   0.310  0.4896 -0.1229  2.5017
 3108TIP3    H230960   4.399   6.076   0.422 -1.9681 -2.6780  0.2090
 3109TIP3   OH230961   3.395   4.137   2.019  0.6943 -0.2743 -0.2762
 3109TIP3    H130962   3.470   4.103   2.067 -0.0045 -0.5851  0.6393
 3109TIP3    H230963   3.338   4.061   2.008  0.4530 -0.0152 -0.8456
 3110TIP3   OH230964   2.211   3.942   0.248  0.5241 -0.0542  0.1754
 3110TIP3    H130965   2.255   4.026   0.259  2.0339 -0.7539 -0.3152
 3110TIP3    H230966   2.226   3.896   0.331 -1.7459  0.7458  1.1206
 3111TIP3   OH230967   0.799   6.801   3.895 -0.1605  0.2613  0.2154
 3111TIP3    H130968   0.893   6.787   3.895 -0.0663  0.8286  0.8881
 3111TIP3    H230969   0.763   6.723   3.938 -0.1581 -0.7322 -1.4632
 3112TIP3   OH230970   2.728   5.406   3.239  0.1906 -0.1497  0.3313
 3112TIP3    H130971   2.813   5.363   3.231  0.0933 -0.5045  1.1870
 3112TIP3    H230972   2.673   5.362   3.174  0.2183 -1.0046  0.8889
 3113TIP3   OH230973   3.297   1.169   3.075 -0.2987  0.2438 -0.4062
 3113TIP3    H130974   3.240   1.117   3.018 -0.8327  1.6009 -1.1430
 3113TIP3    H230975   3.262   1.258   3.070 -0.0406  0.4988  1.6539
 3114TIP3   OH230976   1.836   6.130   3.839 -0.0323 -0.3868 -0.3654
 3114TIP3    H130977   1.819   6.135   3.933 -1.0760  2.9455 -0.6035
 3114TIP3    H230978   1.930   6.115   3.831  0.7099  2.5447  1.3502
 3115TIP3   OH230979   1.040   4.402   3.099  0.1116  0.0507  0.3133
 3115TIP3    H130980   1.067   4.320   3.059 -0.1932 -0.6382  1.4940
 3115TIP3    H230981   0.973   4.378   3.163  0.7907  1.0763  1.4625
 3116TIP3   OH230982   3.888   5.642   2.199 -0.2664 -0.4327 -0.2017
 3116TIP3    H130983   3.843   5.601   2.273 -1.7872  0.9956 -0.2840
 3116TIP3    H230984   3.851   5.730   2.194  0.0064 -0.3955 -2.5226
 3117TIP3   OH230985   2.151   5.559   3.219  0.4732  0.0152 -0.6281
 3117TIP3    H130986   2.240   5.587   3.202  0.4815 -0.1996 -0.9448
 3117TIP3    H230987   2.158   5.465   3.238  0.4492  0.2130  0.4282
 3118TIP3   OH230988   6.625   3.013   2.778 -0.5791 -0.6192 -0.1623
 3118TIP3    H130989   6.671   3.094   2.802 -1.0805 -0.6770  1.0341
 3118TIP3    H230990   6.577   2.988   2.857 -2.8095 -0.4743 -1.3909
 3119TIP3   OH230991   1.221   2.545   4.490 -0.0451 -0.5044 -0.0694
 3119TIP3    H130992   1.251   2.630   4.523 -2.1663  0.5118 -0.5897
 3119TIP3    H230993   1.293   2.485   4.511  1.1826  1.2370  1.0367
 3120TIP3   OH230994   4.835   2.211   1.261 -0.0247  0.4409 -0.5788
 3120TIP3    H130995   4.833   2.156   1.340 -0.5752 -0.4598 -1.1886
 3120TIP3    H230996   4.743   2.232   1.245  0.1921  1.6731 -0.2850
 3121TIP3   OH230997   2.985   3.736   8.141 -0.1631 -0.3239  0.0250
 3121TIP3    H130998   3.054   3.768   8.199  2.2391 -0.9281 -2.3026
 3121TIP3    H230999   2.968   3.808   8.081  0.8166 -1.2051 -1.3819
 3122TIP3   OH231000   0.771   0.963   3.427  0.0192  0.2387 -0.6055
 3122TIP3    H131001   0.821   0.926   3.354  1.8918 -0.0252  0.7184
 3122TIP3    H231002   0.837   0.979   3.495 -1.5377  1.1451  0.7739
 3123TIP3   OH231003   0.151   0.397   0.599  0.8471  0.1846 -0.8644
 3123TIP3    H131004   0.098   0.473   0.621  0.7021 -0.2141  0.2272
 3123TIP3    H231005   0.109   0.360   0.521 -1.9874 -1.4863  1.2609
 3124TIP3   OH231006   6.642   1.738   3.617 -0.0630  0.9768  0.2465
 3124TIP3    H131007   6.612   1.800   3.683  1.1358  0.9508  0.8521
 3124TIP3    H231008   6.644   1.654   3.663  0.7239  0.9480  0.1645
 3125TIP3   OH231009   5.744   3.410   2.315  0.3481  0.6181  0.1692
 3125TIP3    H131010   5.792   3.386   2.394 -0.7171 -1.0392  0.3653
 3125TIP3    H231011   5.801   3.382   2.243 -0.2309 -1.3357  0.3997
 3126TIP3   OH231012   0.333   5.795   1.375  0.4055  0.0226  0.3408
 3126TIP3    H131013   0.428   5.805   1.364  0.4422 -0.3902  0.2918
 3126TIP3    H231014   0.307   5.873   1.425  0.9097 -0.3016  1.1426
 3127TIP3   OH231015   0.875   5.041   1.841 -0.5238  0.8204  0.1075
 3127TIP3    H131016   0.888   4.996   1.758  1.1107 -0.3958  0.9667
 3127TIP3    H231017   0.910   5.129   1.826  0.1943  0.4604 -0.3739
 3128TIP3   OH231018   6.710   4.434   3.949  0.1320 -0.0257  0.6144
 3128TIP3    H131019   6.661   4.513   3.925 -0.0837 -0.4447 -0.3571
 3128TIP3    H231020   6.752   4.457   4.032  1.4685  1.7353 -0.4770
 3129TIP3   OH231021   3.343   6.614   2.634  0.6262 -0.1766 -0.5295
 3129TIP3    H131022   3.438   6.608   2.628  0.6176 -0.9410 -0.0321
 3129TIP3    H231023   3.325   6.708   2.639  1.3575 -0.0352 -0.4847
 3130TIP3   OH231024   2.738   5.063   2.871 -0.6071 -0.2517  0.0612
 3130TIP3    H131025   2.759   5.156   2.868 -0.5192 -0.3076 -1.4348
 3130TIP3    H231026   2.735   5.035   2.780  0.7818 -2.0459  0.4975
 3131TIP3   OH231027   0.444   4.323   1.685  0.0355 -0.9392 -0.3068
 3131TIP3    H131028   0.470   4.365   1.603 -0.6622  1.1428  0.4880
 3131TIP3    H231029   0.362   4.366   1.710  0.4657 -1.1887  1.7091
 3132TIP3   OH231030   2.632   5.965   2.348 -0.0454 -0.4912  0.6482
 3132TIP3    H131031   2.677   5.915   2.416 -1.8694 -1.2707  1.3500
 3132TIP3    H231032   2.581   6.030   2.397 -1.5258 -1.1816  0.0846
 3133TIP3   OH231033   0.415   4.672   0.873 -0.2313 -0.0744  0.6717
 3133TIP3    H131034   0.447   4.615   0.803  1.0805  1.0703  0.2815
 3133TIP3    H231035   0.322   4.683   0.855 -0.1591 -0.7946 -0.1842
 3134TIP3   OH231036   6.402   4.314   3.975 -0.7947  0.4771 -0.2179
 3134TIP3    H131037   6.307   4.329   3.973 -0.9756 -0.5567  0.2976
 3134TIP3    H231038   6.412   4.224   4.005  0.2669 -0.4685 -3.0449
 3135TIP3   OH231039   1.786   2.866   1.313  0.4734 -0.2432 -1.0260
 3135TIP3    H131040   1.776   2.790   1.255  0.3346 -0.3755 -0.8298
 3135TIP3    H231041   1.735   2.935   1.271 -1.6573 -1.0209  0.1716
 3136TIP3   OH231042   1.576   0.533   1.915 -0.7655 -0.1589 -0.3391
 3136TIP3    H131043   1.525   0.583   1.978 -1.1606 -0.6954 -0.2271
 3136TIP3    H231044   1.631   0.476   1.968 -0.9699 -0.4846 -0.4707
 3137TIP3   OH231045   3.099   4.981   2.749 -0.2928  0.1823 -0.2640
 3137TIP3    H131046   3.035   4.923   2.791  0.3487 -0.9218 -0.7624
 3137TIP3    H231047   3.165   4.922   2.714  0.9123  1.2867  0.0604
 3138TIP3   OH231048   2.470   0.688   8.531  0.1515 -0.2792 -0.1693
 3138TIP3    H131049   2.422   0.608   8.551 -0.6349  0.2215 -0.0037
 3138TIP3    H231050   2.406   0.758   8.543  1.2011  0.5070  1.0832
 3139TIP3   OH231051   0.349   0.321   2.395 -0.0318  0.1235  0.3536
 3139TIP3    H131052   0.443   0.311   2.404 -0.1635 -0.2506  1.4297
 3139TIP3    H231053   0.338   0.392   2.331  0.9678 -0.0750 -0.0460
 3140TIP3   OH231054   2.711   5.423   1.946 -0.2298 -0.1938 -0.2459
 3140TIP3    H131055   2.655   5.488   1.903 -0.1965 -1.1702 -1.8644
 3140TIP3    H231056   2.792   5.471   1.964 -0.7334  0.6042 -0.0276
 3141TIP3   OH231057   4.096   4.368   2.670  0.0329  0.5190 -0.0069
 3141TIP3    H131058   4.185   4.334   2.675 -0.2326 -0.0483  1.5401
 3141TIP3    H231059   4.107   4.463   2.674  0.6201  0.5098 -1.1102
 3142TIP3   OH231060   1.717   5.375   0.581  0.2353 -0.1625 -0.2600
 3142TIP3    H131061   1.654   5.327   0.528 -0.5703  1.0914 -0.4700
 3142TIP3    H231062   1.732   5.457   0.533  0.7530  0.2740  0.6195
 3143TIP3   OH231063   0.782   3.560   1.006 -0.7233  0.2459  0.1693
 3143TIP3    H131064   0.814   3.555   1.096  0.2231  0.5433 -0.1368
 3143TIP3    H231065   0.689   3.583   1.014 -0.8092 -0.3724  1.0795
 3144TIP3   OH231066   0.592   5.898   3.620 -0.0447 -0.1367  0.5628
 3144TIP3    H131067   0.601   5.947   3.538 -0.7917 -0.7632  0.0866
 3144TIP3    H231068   0.618   5.960   3.688 -0.2487  0.6824 -0.0851
 3145TIP3   OH231069   1.776   1.024   3.061 -0.5803  0.2000 -0.0218
 3145TIP3    H131070   1.846   1.060   3.115  0.1748 -0.3371 -0.6218
 3145TIP3    H231071   1.813   1.018   2.973 -0.7254 -1.8099 -0.0027
 3146TIP3   OH231072   4.770   3.666   8.596 -0.3297 -0.0036 -0.2319
 3146TIP3    H131073   4.803   3.577   8.603  0.3486  0.0978 -1.7457
 3146TIP3    H231074   4.825   3.717   8.656  1.8815  0.0291 -2.1545
 3147TIP3   OH231075   5.130   0.534   8.683 -0.1861  0.0794 -0.3769
 3147TIP3    H131076   5.049   0.543   8.632 -0.2503 -0.6176 -0.4004
 3147TIP3    H231077   5.120   0.597   8.754  0.0389  1.2896 -1.3767
 3148TIP3   OH231078   6.699   5.167   0.397 -0.5111  0.7494 -0.2707
 3148TIP3    H131079   6.642   5.188   0.470 -1.9718  0.0507 -1.1598
 3148TIP3    H231080   6.640   5.158   0.322  0.6425 -0.8849 -1.0537
 3149TIP3   OH231081   5.286   5.553   2.565  0.2780  0.3085 -0.5175
 3149TIP3    H131082   5.314   5.465   2.591 -0.9173  0.2334  0.6589
 3149TIP3    H231083   5.225   5.538   2.493 -0.9095  0.0193  0.4920
 3150TIP3   OH231084   4.870   4.145   3.200  0.1954  0.2477  0.4677
 3150TIP3    H131085   4.929   4.220   3.192  0.8229 -0.3920 -1.2591
 3150TIP3    H231086   4.782   4.182   3.192  0.5189  0.5990 -3.4696
 3151TIP3   OH231087   6.130   3.322   0.745 -0.3086  0.0264  0.4511
 3151TIP3    H131088   6.138   3.227   0.737  0.5059  0.1559 -0.5451
 3151TIP3    H231089   6.208   3.356   0.701 -1.1851  1.1806 -0.2727
 3152TIP3   OH231090   3.294   1.143   8.766  0.1664 -0.5636 -0.6030
 3152TIP3    H131091   3.353   1.210   8.732 -0.9252 -0.0987 -1.6686
 3152TIP3    H231092   3.210   1.187   8.775 -0.3459 -1.5454 -0.4051
 3153TIP3   OH231093   4.640   5.045   0.388  0.1480  0.1667  0.0501
 3153TIP3    H131094   4.604   5.131   0.366  0.3608  0.5893  1.3306
 3153TIP3    H231095   4.735   5.054   0.374  0.2533  0.3586  0.8498
 3154TIP3   OH231096   5.161   2.620   3.246  0.4155 -0.7787  0.1619
 3154TIP3    H131097   5.141   2.526   3.241  0.0497 -0.6755 -0.3159
 3154TIP3    H231098   5.121   2.648   3.328  0.3779 -1.0065  0.2230
 3155TIP3   OH231099   0.818   6.006   0.511  0.1812  0.1769  0.1809
 3155TIP3    H131100   0.796   5.941   0.578 -0.9328  0.6418  0.2813
 3155TIP3    H231101   0.900   5.974   0.474  0.2807 -0.6447  1.0517
 3156TIP3   OH231102   2.129   2.134   2.785 -0.3151  0.3624 -0.2084
 3156TIP3    H131103   2.171   2.122   2.700 -0.1553  0.5489 -0.1573
 3156TIP3    H231104   2.036   2.144   2.764 -0.2167  0.9311 -0.4136
 3157TIP3   OH231105   4.402   0.195   2.854 -0.2586 -0.0030  0.0619
 3157TIP3    H131106   4.346   0.120   2.871 -1.4519  0.4138 -1.7389
 3157TIP3    H231107   4.432   0.223   2.941 -2.6287 -0.4273  1.0844
 3158TIP3   OH231108   1.117   4.319   1.717  0.3158 -0.2930  0.6442
 3158TIP3    H131109   1.032   4.301   1.677 -0.0173  0.1723  1.1294
 3158TIP3    H231110   1.147   4.234   1.750  0.3819 -0.5928 -0.1735
 3159TIP3   OH231111   6.581   1.696   3.320  0.1482 -0.0222 -0.2375
 3159TIP3    H131112   6.672   1.668   3.312  0.4996  0.9606  0.1400
 3159TIP3    H231113   6.584   1.770   3.380 -0.8896  0.1142 -0.3309
 3160TIP3   OH231114   0.851   4.765   1.120  0.3903  0.1013 -0.2541
 3160TIP3    H131115   0.798   4.710   1.062  1.9775 -0.7663 -0.9311
 3160TIP3    H231116   0.818   4.746   1.208  0.9999 -2.1014 -0.4569
 3161TIP3   OH231117   0.313   6.574   0.284 -0.5738  0.2135  0.5677
 3161TIP3    H131118   0.320   6.668   0.298 -1.5884  0.1946  1.2779
 3161TIP3    H231119   0.222   6.559   0.258 -0.8049 -0.7019  1.7814
 3162TIP3   OH231120   3.592   0.798   3.019  0.1128  0.5048  0.4181
 3162TIP3    H131121   3.616   0.822   2.930  2.4231  1.3612  1.1842
 3162TIP3    H231122   3.597   0.703   3.021 -1.3210  0.3719 -0.6662
 3163TIP3   OH231123   6.100   1.593   1.609 -0.1693 -0.0098 -0.0589
 3163TIP3    H131124   6.196   1.586   1.611 -0.0878  1.0070  0.0338
 3163TIP3    H231125   6.080   1.666   1.667 -0.9613  0.1879 -0.5624
 3164TIP3   OH231126   1.598   5.152   2.110  0.1075 -0.1704 -0.3618
 3164TIP3    H131127   1.557   5.147   2.197 -0.3405 -0.0904 -0.5612
 3164TIP3    H231128   1.660   5.080   2.109  0.7222  0.3344  0.3305
 3165TIP3   OH231129   5.574   1.770   2.480  0.0461 -0.1405  0.0895
 3165TIP3    H131130   5.629   1.795   2.554  0.7782 -2.0250  0.2240
 3165TIP3    H231131   5.485   1.766   2.517 -0.1640  2.2152  0.0295
 3166TIP3   OH231132   1.456   6.110   2.403 -0.3650 -0.1562  0.7048
 3166TIP3    H131133   1.364   6.084   2.398 -0.0513 -1.5804  1.7662
 3166TIP3    H231134   1.493   6.053   2.470  1.3603  0.2073  0.0979
 3167TIP3   OH231135   4.084   3.651   0.389 -0.1729 -0.3903  0.4966
 3167TIP3    H131136   4.127   3.656   0.303 -1.2997  0.9315 -0.0255
 3167TIP3    H231137   4.044   3.564   0.391 -0.6064 -0.2277 -0.5551
 3168TIP3   OH231138   1.338   6.656   1.668  0.5372 -1.4026  0.1808
 3168TIP3    H131139   1.412   6.711   1.645  0.3943 -0.8228  1.0599
 3168TIP3    H231140   1.342   6.582   1.607  0.4801 -0.2155 -1.3200
 3169TIP3   OH231141   1.184   5.123   3.388 -0.5189 -0.1654  0.3609
 3169TIP3    H131142   1.212   5.057   3.452 -0.5433  0.3839  0.9536
 3169TIP3    H231143   1.161   5.199   3.441  0.6914  0.7525 -0.3716
 3170TIP3   OH231144   6.785   2.200   2.642 -0.2186 -0.6019  0.2034
 3170TIP3    H131145   6.741   2.254   2.707  1.0163  0.3453  0.2712
 3170TIP3    H231146   6.825   2.129   2.693 -0.4431 -0.6652  0.2961
 3171TIP3   OH231147   1.576   0.830   3.951 -0.4221 -0.3434 -0.3846
 3171TIP3    H131148   1.497   0.831   3.897 -0.2728  0.2672 -0.6011
 3171TIP3    H231149   1.550   0.872   4.033 -0.1983  0.3047 -0.6417
 3172TIP3   OH231150   6.622   3.331   3.501 -0.4082  0.3401 -0.4641
 3172TIP3    H131151   6.596   3.292   3.585 -0.7413  0.4603 -0.5102
 3172TIP3    H231152   6.713   3.304   3.489 -0.8373 -1.0120 -0.8286
 3173TIP3   OH231153   3.400   4.372   0.222  0.4518 -0.1328 -0.2030
 3173TIP3    H131154   3.458   4.365   0.146 -0.6820 -1.0272 -1.0325
 3173TIP3    H231155   3.347   4.450   0.205 -0.4039 -0.8182 -0.8069
 3174TIP3   OH231156   1.502   2.609   2.316  0.0218 -0.3455 -0.2123
 3174TIP3    H131157   1.541   2.522   2.326  0.8922  0.1416  0.8589
 3174TIP3    H231158   1.482   2.616   2.222 -0.0560 -1.6836 -0.3146
 3175TIP3   OH231159   5.785   3.830   2.504  0.1527  0.3454 -0.3259
 3175TIP3    H131160   5.698   3.869   2.514 -0.2726 -0.8858  1.0951
 3175TIP3    H231161   5.836   3.866   2.577  0.2065 -0.5402  0.0853
 3176TIP3   OH231162   6.769   5.148   2.677 -0.0904 -0.1771  0.0379
 3176TIP3    H131163   6.861   5.148   2.703 -0.2650  0.6562  0.6813
 3176TIP3    H231164   6.769   5.191   2.591  0.1614 -0.5352 -0.1459
 3177TIP3   OH231165   4.646   3.507   3.238 -0.0149 -0.0712  0.0303
 3177TIP3    H131166   4.645   3.576   3.172 -1.1431  0.7659  0.8822
 3177TIP3    H231167   4.700   3.438   3.200  0.2334  0.8246 -1.3063
 3178TIP3   OH231168   0.423   0.350   4.341 -0.1724  0.2151 -0.3684
 3178TIP3    H131169   0.339   0.366   4.298 -0.6931  3.4502  1.5379
 3178TIP3    H231170   0.401   0.314   4.426  0.0912  2.9651  0.9716
 3179TIP3   OH231171   4.076   3.796   0.659 -0.4744 -0.1167 -0.1588
 3179TIP3    H131172   4.051   3.724   0.718  0.6640 -0.8067 -0.4797
 3179TIP3    H231173   4.107   3.751   0.580 -0.5901  0.7648 -0.7111
 3180TIP3   OH231174   1.381   6.445   3.021  0.1558  0.4100 -0.8463
 3180TIP3    H131175   1.467   6.469   3.053 -0.0798  0.0098  0.1394
 3180TIP3    H231176   1.373   6.489   2.936  1.5427 -0.0005 -1.2232
 3181TIP3   OH231177   1.949   2.594   1.221  0.5392  0.6554 -0.3642
 3181TIP3    H131178   2.002   2.530   1.268  0.1895 -0.0845 -0.9534
 3181TIP3    H231179   1.954   2.673   1.274 -0.0086 -0.2126  1.0255
 3182TIP3   OH231180   0.600   6.567   2.172  0.4769  0.5642  0.1244
 3182TIP3    H131181   0.539   6.609   2.232 -0.0252  0.7773 -0.5239
 3182TIP3    H231182   0.674   6.541   2.227 -0.3471 -0.0156  0.9898
 3183TIP3   OH231183   1.932   2.895   1.748  0.4951  0.2021  0.2608
 3183TIP3    H131184   1.925   2.990   1.739  2.2566  0.3821  0.5040
 3183TIP3    H231185   1.933   2.879   1.843  0.2675 -0.0739  0.2222
 3184TIP3   OH231186   5.597   5.882   4.231  0.6154 -0.2734  0.4000
 3184TIP3    H131187   5.528   5.923   4.283 -0.9836 -1.4524 -0.6873
 3184TIP3    H231188   5.602   5.792   4.264  1.5027 -0.2608  0.3283
 3185TIP3   OH231189   6.607   0.132   2.577  0.3143  0.3628 -0.0199
 3185TIP3    H131190   6.561   0.071   2.519 -0.0070 -1.1187  1.6931
 3185TIP3    H231191   6.537   0.181   2.620  0.3609 -0.7404  1.3736
 3186TIP3   OH231192   1.187   2.073   3.101 -0.4583  0.4580  0.2687
 3186TIP3    H131193   1.181   2.162   3.134  0.4561  1.0285 -1.0361
 3186TIP3    H231194   1.157   2.078   3.011  1.5013 -0.1258 -0.4761
 3187TIP3   OH231195   0.435   3.982   3.095  0.5301  0.4207  0.2880
 3187TIP3    H131196   0.408   4.032   3.172  0.5601  0.2826  0.3904
 3187TIP3    H231197   0.354   3.960   3.051  0.3750 -0.8772  1.1512
 3188TIP3   OH231198   4.007   3.427   4.658 -0.0059 -0.4946  0.3435
 3188TIP3    H131199   4.015   3.517   4.626  0.9825 -0.9399 -0.7629
 3188TIP3    H231200   4.091   3.386   4.635 -0.0158 -1.4119  1.8074
 3189TIP3   OH231201   3.976   6.501   3.294  0.5061  0.0677 -0.5980
 3189TIP3    H131202   3.916   6.547   3.236 -0.1034 -0.5965 -0.5087
 3189TIP3    H231203   3.984   6.559   3.370  0.0574  0.2162 -0.6585
 3190TIP3   OH231204   1.571   0.678   0.464  0.0206  1.0487  0.0482
 3190TIP3    H131205   1.530   0.652   0.381 -0.0216 -1.6093  0.7900
 3190TIP3    H231206   1.635   0.609   0.481 -0.0240  1.4843  2.2390
 3191TIP3   OH231207   1.375   4.375   2.285  0.7660 -0.3052  0.9857
 3191TIP3    H131208   1.435   4.338   2.349 -1.2026  0.3495  3.3375
 3191TIP3    H231209   1.289   4.372   2.327 -1.1366 -1.9503 -2.4768
 3192TIP3   OH231210   4.762   4.842   0.056 -0.2520 -0.4028 -0.2359
 3192TIP3    H131211   4.783   4.933   0.080 -2.0105  0.0111 -0.0782
 3192TIP3    H231212   4.713   4.851  -0.026 -0.2120 -1.2353 -0.3502
 3193TIP3   OH231213   2.085   6.421   3.531  0.4396  0.1494  0.6510
 3193TIP3    H131214   2.170   6.404   3.572  0.6074  1.9503  1.1331
 3193TIP3    H231215   2.022   6.409   3.602  0.2623 -1.2650  0.2739
 3194TIP3   OH231216   2.300   3.000   0.262  0.5248 -0.1991  0.1426
 3194TIP3    H131217   2.255   3.008   0.346 -1.0858 -1.8837 -0.4669
 3194TIP3    H231218   2.231   3.014   0.197  1.8279  1.5711 -0.9476
 3195TIP3   OH231219   3.044   1.987   1.190  0.2830  0.8036  0.4070
 3195TIP3    H131220   3.055   1.981   1.285  1.3243  1.3686  0.3432
 3195TIP3    H231221   3.118   2.040   1.161 -0.8543  1.9283 -0.5508
 3196TIP3   OH231222   1.986   5.174   3.062 -0.3016 -0.6211 -0.3118
 3196TIP3    H131223   1.980   5.092   3.110  1.1465 -0.5488  0.0674
 3196TIP3    H231224   2.011   5.239   3.128  0.8059 -0.3362 -0.9687
 3197TIP3   OH231225   2.906   4.752   2.388  0.1557 -0.2217 -0.3591
 3197TIP3    H131226   2.927   4.836   2.429  1.4899 -0.1082 -1.2433
 3197TIP3    H231227   2.990   4.715   2.362 -0.5569 -0.7707 -2.0638
 3198TIP3   OH231228   0.631   4.402   2.968  0.4292  0.3474  0.1049
 3198TIP3    H131229   0.605   4.418   3.058  0.1525  0.4667  0.0061
 3198TIP3    H231230   0.702   4.464   2.952  0.5990  0.2042  0.2933
 3199TIP3   OH231231   5.705   3.226   0.628 -0.3355  0.0786 -0.3880
 3199TIP3    H131232   5.695   3.228   0.723 -0.9132  0.0603 -0.4452
 3199TIP3    H231233   5.654   3.301   0.597  0.1348  0.2878 -0.6611
 3200TIP3   OH231234   1.716   3.372   1.158  0.4589  0.0584 -0.8510
 3200TIP3    H131235   1.738   3.430   1.230  0.5504  0.0622 -0.8818
 3200TIP3    H231236   1.629   3.339   1.179 -0.3986  1.6103 -1.7247
 3201TIP3   OH231237   5.162   0.668   3.456 -0.3513 -0.5909  0.1010
 3201TIP3    H131238   5.156   0.573   3.468 -1.9929 -0.8243 -1.9845
 3201TIP3    H231239   5.200   0.679   3.369  1.9869  0.7678  1.1931
 3202TIP3   OH231240   3.358   0.538   2.834 -0.2720 -0.3549  0.2616
 3202TIP3    H131241   3.356   0.622   2.790 -0.3058 -0.6793 -0.3681
 3202TIP3    H231242   3.445   0.502   2.814  1.4274  1.2692  3.8873
 3203TIP3   OH231243   0.716   4.460   2.307  0.4703  0.1048 -0.4360
 3203TIP3    H131244   0.788   4.407   2.275  1.5941  1.3200 -0.0192
 3203TIP3    H231245   0.663   4.479   2.229  1.5371  0.5768 -1.0612
 3204TIP3   OH231246   2.115   1.371   0.622  0.3955  0.4902  0.3430
 3204TIP3    H131247   2.166   1.389   0.701  2.7612 -0.3403 -0.8949
 3204TIP3    H231248   2.058   1.297   0.647  1.0633  0.2739  1.2895
 3205TIP3   OH231249   3.029   0.846   0.870  0.3811  0.3075 -0.4400
 3205TIP3    H131250   3.024   0.932   0.827 -1.4109 -0.3535 -1.6681
 3205TIP3    H231251   3.112   0.809   0.840  1.2069  1.6057  0.1517
 3206TIP3   OH231252   1.017   5.196   4.092 -0.1859 -0.7634  1.1197
 3206TIP3    H131253   1.093   5.175   4.038 -1.4879 -1.4339 -0.5538
 3206TIP3    H231254   0.971   5.113   4.102  0.0310 -0.6688  3.3615
 3207TIP3   OH231255   4.504   5.489   2.967  0.0200 -0.2806 -0.5713
 3207TIP3    H131256   4.565   5.529   2.905  1.0184 -0.9557 -0.0431
 3207TIP3    H231257   4.544   5.504   3.053 -1.5521  1.0244 -0.0017
 3208TIP3   OH231258   3.407   6.066   4.033  0.2399 -0.1362 -0.2004
 3208TIP3    H131259   3.473   6.113   3.982  0.2922  0.5104  0.4381
 3208TIP3    H231260   3.433   5.974   4.028  2.1781  0.2476  1.4044
 3209TIP3   OH231261   2.980   6.082   0.462  0.4961 -0.4641 -0.6914
 3209TIP3    H131262   2.999   6.118   0.549 -3.2663  0.1581  0.0430
 3209TIP3    H231263   3.023   6.142   0.401  2.0340 -0.1089  0.6610
 3210TIP3   OH231264   0.668   0.189   2.920  0.3250  0.0040 -0.0294
 3210TIP3    H131265   0.659   0.097   2.946 -0.5409 -0.2174 -1.0631
 3210TIP3    H231266   0.712   0.230   2.995  2.8957 -1.7107 -0.4508
 3211TIP3   OH231267   1.379   5.294   3.679 -0.0311 -0.3293 -0.1577
 3211TIP3    H131268   1.411   5.384   3.680 -0.8836  0.0138 -1.4572
 3211TIP3    H231269   1.456   5.241   3.699  1.0056  0.5600 -1.6370
 3212TIP3   OH231270   6.759   6.300   1.499  0.3901 -0.1150  0.0620
 3212TIP3    H131271   6.743   6.283   1.592  0.9627 -0.3228  0.1237
 3212TIP3    H231272   6.807   6.382   1.497  0.5828 -0.2303 -0.0393
 3213TIP3   OH231273   2.152   6.742   2.651 -0.1474  0.1188 -0.0112
 3213TIP3    H131274   2.219   6.676   2.667  2.2340  2.4317  0.2012
 3213TIP3    H231275   2.144   6.789   2.733 -1.0360  0.7560 -0.4490
 3214TIP3   OH231276   3.121   5.599   0.395 -0.5131  0.4405 -0.2829
 3214TIP3    H131277   3.055   5.534   0.417 -0.9596  1.3337  1.1992
 3214TIP3    H231278   3.076   5.662   0.339 -0.3661  0.0224 -0.8742
 3215TIP3   OH231279   0.988   1.098   0.260  0.0666 -0.1496  0.2725
 3215TIP3    H131280   1.054   1.161   0.229  1.6657 -0.4650  2.7364
 3215TIP3    H231281   0.971   1.042   0.184  1.5534  0.8533 -0.8626
 3216TIP3   OH231282   3.560   4.439   1.709 -0.7158 -0.0608 -0.1352
 3216TIP3    H131283   3.591   4.348   1.709 -0.0596  0.1574  0.6603
 3216TIP3    H231284   3.485   4.438   1.768 -0.9261 -0.1435 -0.3967
 3217TIP3   OH231285   4.037   4.302   3.334 -0.2822  0.0097 -0.2163
 3217TIP3    H131286   4.124   4.323   3.299 -0.6230  2.7434  0.3181
 3217TIP3    H231287   3.976   4.335   3.268 -0.9355 -0.8307 -0.0463
 3218TIP3   OH231288   0.117   1.950   3.446 -0.7624  0.2410  0.1013
 3218TIP3    H131289   0.067   1.927   3.368 -0.2399 -0.0564 -0.1463
 3218TIP3    H231290   0.204   1.972   3.414 -1.2955  3.0006  0.2538
 3219TIP3   OH231291   1.566   1.159   1.801 -0.1601 -0.4811 -0.0930
 3219TIP3    H131292   1.511   1.200   1.735  0.5340 -0.3485 -0.5979
 3219TIP3    H231293   1.505   1.107   1.854 -1.4381  2.6806  1.8195
 3220TIP3   OH231294   0.346   5.608   0.266  0.1007  0.1703  0.8215
 3220TIP3    H131295   0.315   5.520   0.243 -1.7717  1.1502 -0.7502
 3220TIP3    H231296   0.323   5.617   0.359 -3.0710  0.2162  0.1461
 3221TIP3   OH231297   2.391   5.090   0.979  0.1699 -0.2065  0.0416
 3221TIP3    H131298   2.296   5.089   0.975  0.0157 -0.4942  2.3552
 3221TIP3    H231299   2.411   5.117   1.069  2.2712 -0.0871 -0.4144
 3222TIP3   OH231300   4.540   5.761   0.682  0.0264 -0.2047  0.1760
 3222TIP3    H131301   4.477   5.803   0.624  1.5235  2.2475  0.1580
 3222TIP3    H231302   4.538   5.814   0.762  2.4200  0.3413 -0.0519
 3223TIP3   OH231303   4.966   0.496   2.943 -0.0429  0.1071  0.2993
 3223TIP3    H131304   4.943   0.417   2.894  0.8441  0.2474 -0.3805
 3223TIP3    H231305   4.890   0.514   2.997 -0.6766 -0.6139 -0.3276
 3224TIP3   OH231306   4.098   4.010   3.193  0.3354  0.0364 -0.3460
 3224TIP3    H131307   4.076   4.091   3.147  0.0506  1.0498  1.4938
 3224TIP3    H231308   4.018   3.957   3.187 -0.8587  1.4734  1.6217
 3225TIP3   OH231309   2.772   0.929   2.761 -0.2268 -0.1457 -0.3048
 3225TIP3    H131310   2.716   0.853   2.749 -0.1406 -0.2493 -0.0750
 3225TIP3    H231311   2.781   0.937   2.856 -2.4361  1.7707 -0.1763
 3226TIP3   OH231312   6.399   1.304   1.402 -0.2505 -0.0214  0.1434
 3226TIP3    H131313   6.421   1.225   1.353 -0.2965 -0.8143  1.3358
 3226TIP3    H231314   6.483   1.344   1.423 -0.2214  0.1758 -0.3416
 3227TIP3   OH231315   3.467   2.397   2.343 -0.4121 -0.1486 -0.7629
 3227TIP3    H131316   3.473   2.489   2.314 -0.3610 -0.0345 -0.3901
 3227TIP3    H231317   3.532   2.352   2.289  0.9624  0.3795  0.3810
 3228TIP3   OH231318   5.021   6.388   1.244 -0.5107 -0.0973  0.7022
 3228TIP3    H131319   5.078   6.363   1.172  0.2130  1.2630  0.7586
 3228TIP3    H231320   4.948   6.434   1.202 -0.9211 -0.7202  0.7250
 3229TIP3   OH231321   6.591   0.095   1.737 -0.5077  0.6641 -0.0327
 3229TIP3    H131322   6.500   0.102   1.710 -0.2020  1.8748 -0.8372
 3229TIP3    H231323   6.614   0.182   1.769 -0.0371 -0.0012  1.5614
 3230TIP3   OH231324   6.568   4.505   0.723 -1.0576 -0.1350 -0.3626
 3230TIP3    H131325   6.585   4.425   0.674  0.7437  0.3413 -0.5803
 3230TIP3    H231326   6.489   4.541   0.683  0.4368  0.3422 -3.1410
 3231TIP3   OH231327   6.769   6.043   2.007  0.1331 -0.0553 -0.3265
 3231TIP3    H131328   6.774   5.959   1.961 -0.8657 -0.6995  0.6938
 3231TIP3    H231329   6.833   6.035   2.078 -1.8015 -1.0725  1.4264
 3232TIP3   OH231330   0.208   6.378   8.185 -0.6011  0.1482 -0.1326
 3232TIP3    H131331   0.231   6.452   8.129 -1.9990 -0.6705 -1.8954
 3232TIP3    H231332   0.114   6.386   8.198 -0.6292 -0.8307  0.3814
 3233TIP3   OH231333   6.487   2.115   8.074 -0.1816  0.0742  0.6163
 3233TIP3    H131334   6.494   2.150   8.163  1.1923 -1.7852  1.2968
 3233TIP3    H231335   6.392   2.112   8.057 -0.4198  2.0242  1.3068
 3234TIP3   OH231336   3.946   2.148   3.121 -0.6755 -0.0897  0.5942
 3234TIP3    H131337   3.950   2.209   3.048 -1.6622 -0.6120  0.0884
 3234TIP3    H231338   3.943   2.062   3.080 -0.2045 -0.4417  1.2812
 3235TIP3   OH231339   2.654   4.607   2.742  0.1543  0.2858  0.2554
 3235TIP3    H131340   2.629   4.620   2.651  1.6713  1.8468  0.0017
 3235TIP3    H231341   2.720   4.538   2.739  0.0367  0.1746  0.2076
 3236TIP3   OH231342   3.162   4.617   2.411 -0.4427  0.9612 -0.0616
 3236TIP3    H131343   3.182   4.572   2.329 -1.0707  0.8124 -0.1414
 3236TIP3    H231344   3.245   4.655   2.439  0.2431 -0.7310  0.3067
 3237TIP3   OH231345   2.433   6.205   3.082 -0.4729  0.2175 -0.2748
 3237TIP3    H131346   2.390   6.172   3.161  0.5733  2.5697  1.3822
 3237TIP3    H231347   2.363   6.248   3.033 -0.6661  1.2634  0.8494
 3238TIP3   OH231348   1.417   5.811   3.307 -0.1503  0.0470 -0.3170
 3238TIP3    H131349   1.396   5.847   3.221  0.5898 -0.9408 -0.9326
 3238TIP3    H231350   1.472   5.879   3.348 -0.9497  0.7569 -0.3900
 3239TIP3   OH231351   4.697   5.094   1.337  0.2684  0.0362 -0.4232
 3239TIP3    H131352   4.681   5.130   1.250  3.0244  0.8369 -0.6786
 3239TIP3    H231353   4.662   5.005   1.333  0.1883  0.1164 -2.2754
 3240TIP3   OH231354   0.364   1.629   2.511 -0.1288  0.4548  0.2941
 3240TIP3    H131355   0.393   1.587   2.431 -1.1137 -1.0430  0.6880
 3240TIP3    H231356   0.359   1.558   2.575 -3.6903  0.7034  0.4976
 3241TIP3   OH231357   5.599   3.968   1.914  0.3669 -0.2636  0.0956
 3241TIP3    H131358   5.684   4.007   1.896  0.6613  0.0925  1.9977
 3241TIP3    H231359   5.540   4.043   1.924  0.0714 -0.4654 -0.1116
 3242TIP3   OH231360   0.945   1.421   1.060  0.0192 -0.0621 -0.0438
 3242TIP3    H131361   0.983   1.335   1.043  0.2156  0.1686 -0.8088
 3242TIP3    H231362   0.858   1.401   1.095  0.2787 -0.5705  0.3465
 3243TIP3   OH231363   4.079   5.206   0.341 -0.3503  0.3026  0.2185
 3243TIP3    H131364   4.054   5.237   0.428  0.6633 -1.5553  1.2284
 3243TIP3    H231365   4.015   5.246   0.282 -1.3564  1.2280  1.8641
 3244TIP3   OH231366   4.405   3.475   0.755 -0.1612 -0.2823 -0.5481
 3244TIP3    H131367   4.317   3.459   0.721  0.3288 -0.4305 -1.7869
 3244TIP3    H231368   4.430   3.393   0.798 -0.5147 -0.3399 -0.4541
 3245TIP3   OH231369   3.303   5.362   3.624 -0.2541 -0.2130 -0.1786
 3245TIP3    H131370   3.211   5.390   3.632  0.1811  1.1075  0.7100
 3245TIP3    H231371   3.309   5.283   3.676 -0.6609  0.3419  0.7408
 3246TIP3   OH231372   5.995   6.504   8.347  0.3037  0.2851  0.0780
 3246TIP3    H131373   6.046   6.427   8.373 -1.5220 -0.9099  0.3507
 3246TIP3    H231374   5.974   6.488   8.255  0.1121  0.5668  0.0730
 3247TIP3   OH231375   0.750   6.400   7.879  0.2081  0.3844 -0.0440
 3247TIP3    H131376   0.788   6.328   7.930 -1.5465  0.8437  2.0626
 3247TIP3    H231377   0.656   6.384   7.882 -0.1377  2.1953 -0.4363
 3248TIP3   OH231378   4.611   5.940   0.101 -0.8267  0.1371  0.2501
 3248TIP3    H131379   4.603   6.019   0.155 -0.3469  3.5003 -4.0352
 3248TIP3    H231380   4.699   5.907   0.119 -0.1428  1.9992  0.4930
 3249TIP3   OH231381   0.905   4.024   3.305  0.0216  0.1412 -0.2965
 3249TIP3    H131382   0.940   3.958   3.365 -0.4998 -0.3504 -0.5237
 3249TIP3    H231383   0.956   4.013   3.225 -1.2315 -1.2320 -0.9685
 3250TIP3   OH231384   3.921   4.839   0.248 -0.3087  0.0111  0.1152
 3250TIP3    H131385   3.908   4.751   0.212  1.7998 -0.2914 -0.0132
 3250TIP3    H231386   3.924   4.896   0.171 -0.3563  0.0184  0.1183
 3251TIP3   OH231387   4.064   4.650   2.699 -0.5792  0.7199 -0.2061
 3251TIP3    H131388   3.979   4.683   2.727  0.2006  1.7230  1.1458
 3251TIP3    H231389   4.082   4.697   2.617 -2.5091 -1.6053 -2.1244
 3252TIP3   OH231390   5.548   6.060   2.248  0.2286 -0.5646 -0.1927
 3252TIP3    H131391   5.523   6.030   2.336  0.7545  0.1225  0.2042
 3252TIP3    H231392   5.636   6.096   2.260 -0.6044  1.7035 -0.4892
 3253TIP3   OH231393   5.062   2.920   2.632  0.5059  0.1565 -0.3210
 3253TIP3    H131394   5.153   2.938   2.656  0.4474  1.7798 -1.2197
 3253TIP3    H231395   5.065   2.831   2.595  1.6254 -0.0198  0.1530
 3254TIP3   OH231396   4.625   5.362   2.637 -0.7601  0.0864  0.6150
 3254TIP3    H131397   4.558   5.424   2.665  0.7835  0.6684  3.4194
 3254TIP3    H231398   4.576   5.287   2.604 -2.7948  0.7626  1.9045
 3255TIP3   OH231399   3.033   1.383   0.624 -0.1062 -0.1431 -0.0461
 3255TIP3    H131400   3.066   1.458   0.673 -1.2471 -0.6479  1.5814
 3255TIP3    H231401   2.959   1.418   0.574 -0.2284 -0.0456  0.2024
 3256TIP3   OH231402   0.980   5.103   8.514 -0.3753  0.5971 -0.0416
 3256TIP3    H131403   0.952   5.080   8.603  0.0892 -0.0008 -0.0461
 3256TIP3    H231404   1.070   5.134   8.524  0.5208 -1.6262 -0.5608
 3257TIP3   OH231405   4.137   5.639   0.527  0.0748  0.4179  0.2924
 3257TIP3    H131406   4.050   5.615   0.558  0.6843 -1.8135  0.4346
 3257TIP3    H231407   4.159   5.718   0.576 -0.7585 -0.5432  2.3262
 3258TIP3   OH231408   2.024   4.491   3.926 -0.2990  0.1844 -0.1479
 3258TIP3    H131409   2.102   4.435   3.926 -0.2148  0.2918  0.6038
 3258TIP3    H231410   2.007   4.508   3.834  0.2693 -0.2605 -0.3411
 3259TIP3   OH231411   6.769   4.206   1.694  0.3236  0.0841  0.1351
 3259TIP3    H131412   6.718   4.140   1.646 -0.7150  0.0864  1.1954
 3259TIP3    H231413   6.748   4.190   1.786  0.1093  1.8352  0.4186
 3260TIP3   OH231414   4.738   1.562   3.885 -0.1638  0.2807 -0.5810
 3260TIP3    H131415   4.679   1.624   3.843  0.7749  1.7231  0.1496
 3260TIP3    H231416   4.823   1.578   3.842  0.4873  0.7880  0.8532
 3261TIP3   OH231417   6.701   6.429   2.234 -0.1271  0.2682 -0.1031
 3261TIP3    H131418   6.754   6.491   2.183 -0.1537  0.3889  0.0151
 3261TIP3    H231419   6.643   6.485   2.286 -1.8543  0.1262 -1.7923
 3262TIP3   OH231420   0.406   2.940   2.513 -0.3584 -0.1042  0.1042
 3262TIP3    H131421   0.387   2.966   2.603 -0.1636  2.6794 -0.5450
 3262TIP3    H231422   0.325   2.901   2.481 -1.3182  1.2540  0.7570
 3263TIP3   OH231423   3.109   6.389   1.445  0.0917  0.2621 -0.2071
 3263TIP3    H131424   3.049   6.434   1.386 -1.9564 -0.4638  1.2026
 3263TIP3    H231425   3.077   6.299   1.447  2.0648 -0.4970 -0.3949
 3264TIP3   OH231426   1.783   6.223   2.420  0.0569  0.2153 -0.2495
 3264TIP3    H131427   1.870   6.229   2.458 -0.2461  0.8122  0.3783
 3264TIP3    H231428   1.794   6.171   2.341  0.6740 -1.2787  0.7825
 3265TIP3   OH231429   6.705   3.030   3.703  0.2108  0.2808  0.0263
 3265TIP3    H131430   6.620   3.070   3.685  1.0808  1.9704 -0.5349
 3265TIP3    H231431   6.688   2.971   3.776 -1.2418  1.4105  0.6591
 3266TIP3   OH231432   2.408   1.215   4.011  0.0333  0.1028  0.3311
 3266TIP3    H131433   2.361   1.230   3.929  1.1892 -0.5504 -0.4726
 3266TIP3    H231434   2.387   1.125   4.035 -0.7970  0.4874  1.0993
 3267TIP3   OH231435   6.824   5.581   8.382 -0.6739  0.4770 -0.2247
 3267TIP3    H131436   6.883   5.642   8.337  0.3456  0.0866  0.5377
 3267TIP3    H231437   6.804   5.514   8.317  2.2389 -1.0903  0.3084
 3268TIP3   OH231438   2.824   3.122   3.443 -0.5487  0.4019  0.1505
 3268TIP3    H131439   2.817   3.212   3.412 -0.0499 -0.0797 -1.4728
 3268TIP3    H231440   2.842   3.071   3.364 -0.9731 -1.1453  1.0159
 3269TIP3   OH231441   5.974   2.185   0.848  0.1684 -0.4507  0.0044
 3269TIP3    H131442   6.006   2.275   0.846 -0.8298 -0.0594  0.7956
 3269TIP3    H231443   6.001   2.148   0.764  0.5311  0.6078 -0.3599
 3270TIP3   OH231444   2.122   5.728   1.521 -0.0488 -0.1616  0.0785
 3270TIP3    H131445   2.093   5.715   1.611 -0.8442 -0.6348 -0.2367
 3270TIP3    H231446   2.174   5.808   1.524  0.4622 -0.5065  1.0681
 3271TIP3   OH231447   5.798   5.603   0.704  0.5444 -0.4730 -0.1548
 3271TIP3    H131448   5.757   5.587   0.789 -1.2933  1.1389 -0.6616
 3271TIP3    H231449   5.889   5.577   0.716 -0.4644 -4.1393  1.0956
 3272TIP3   OH231450   0.336   4.216   0.591  0.1218  0.1318  0.2987
 3272TIP3    H131451   0.291   4.300   0.582 -0.0185  0.1382  0.9845
 3272TIP3    H231452   0.399   4.230   0.661  0.6773 -0.0988 -0.1510
 3273TIP3   OH231453   4.225   0.340   0.492 -0.2548 -0.1182 -0.2584
 3273TIP3    H131454   4.212   0.330   0.397 -2.0998 -2.2541  0.1314
 3273TIP3    H231455   4.276   0.421   0.501  1.9789 -1.0241 -3.1705
 3274TIP3   OH231456   6.395   4.095   2.333  0.5064 -0.3832 -0.0006
 3274TIP3    H131457   6.319   4.038   2.321  0.0586  0.0372  0.7767
 3274TIP3    H231458   6.376   4.170   2.276 -0.1420  0.1734  0.9204
 3275TIP3   OH231459   4.074   1.430   1.396  0.3332  0.1090 -0.3282
 3275TIP3    H131460   4.149   1.447   1.339  0.7617 -0.3098  0.0973
 3275TIP3    H231461   4.106   1.365   1.458 -0.0526  0.7211  0.5331
 3276TIP3   OH231462   4.410   4.470   2.480  0.0453  0.4688 -0.1542
 3276TIP3    H131463   4.317   4.458   2.459 -0.0006 -0.1627  0.3881
 3276TIP3    H231464   4.413   4.555   2.525  0.5157  3.3309 -4.8853
 3277TIP3   OH231465   4.259   1.506   2.867  0.0395 -0.1158 -0.5173
 3277TIP3    H131466   4.346   1.517   2.830  0.5170  0.5172  0.7161
 3277TIP3    H231467   4.268   1.430   2.925  0.0026  0.4176  0.2080
 3278TIP3   OH231468   0.539   3.102   3.623  0.7408  0.4382 -0.1818
 3278TIP3    H131469   0.617   3.047   3.627  0.9898  0.5866 -2.1082
 3278TIP3    H231470   0.517   3.106   3.530 -1.9931 -0.1578  0.3518
 3279TIP3   OH231471   4.882   4.587   3.118  0.0089 -0.3979  0.0175
 3279TIP3    H131472   4.948   4.540   3.066 -1.4569 -2.1323 -0.3715
 3279TIP3    H231473   4.866   4.668   3.070  0.7854 -0.6321 -0.6640
 3280TIP3   OH231474   1.612   3.742   0.748 -0.5549 -0.4521  0.3357
 3280TIP3    H131475   1.581   3.731   0.837  1.3664 -1.4643  0.9350
 3280TIP3    H231476   1.562   3.678   0.697 -1.3443 -0.1724  0.7442
 3281TIP3   OH231477   4.032   4.627   4.596 -0.5106 -0.1902 -0.5517
 3281TIP3    H131478   3.965   4.559   4.597  1.3523 -2.1553  1.1171
 3281TIP3    H231479   3.984   4.709   4.605 -2.6558 -1.5737  1.7405
 3282TIP3   OH231480   5.583   0.633   1.939  0.3044 -0.4295  0.5919
 3282TIP3    H131481   5.560   0.621   1.847  1.1517  1.2645  0.1129
 3282TIP3    H231482   5.499   0.645   1.984 -0.2844 -3.2122  0.4409
 3283TIP3   OH231483   5.441   3.090   0.820 -0.1684 -0.0376  0.0896
 3283TIP3    H131484   5.488   3.138   0.889 -1.0865  0.5744  0.3077
 3283TIP3    H231485   5.358   3.066   0.861  0.2379 -1.7944 -0.0313
 3284TIP3   OH231486   2.780   3.422   2.624  0.0187  0.3389  0.2013
 3284TIP3    H131487   2.861   3.453   2.663  1.0051 -1.0265 -0.6764
 3284TIP3    H231488   2.760   3.485   2.555  0.8118  0.2207 -0.1422
 3285TIP3   OH231489   6.171   6.571   1.594 -0.0178  0.1185  0.4938
 3285TIP3    H131490   6.209   6.483   1.603 -1.9298 -1.1119 -2.0096
 3285TIP3    H231491   6.100   6.574   1.658 -1.2877 -1.0672 -0.7732
 3286TIP3   OH231492   0.237   1.031   3.370 -0.2727  0.0304  0.2478
 3286TIP3    H131493   0.330   1.026   3.393  0.3595  0.2816 -2.0241
 3286TIP3    H231494   0.191   1.016   3.453  1.7615 -1.6414  1.1604
 3287TIP3   OH231495   5.202   4.133   2.532  0.2467 -0.1200 -0.0816
 3287TIP3    H131496   5.225   4.081   2.456 -1.9039 -1.9254  0.3871
 3287TIP3    H231497   5.107   4.141   2.528  0.0302 -0.4182  2.4631
 3288TIP3   OH231498   4.127   2.141   3.393  0.1491 -0.4789 -0.0753
 3288TIP3    H131499   4.108   2.055   3.356  2.2335 -1.1491  0.3066
 3288TIP3    H231500   4.207   2.169   3.349  0.4036  0.5413  0.9955
 3289TIP3   OH231501   5.601   2.599   0.079 -0.1382 -0.6018 -0.1696
 3289TIP3    H131502   5.678   2.560   0.039  0.7615  0.9097  0.0156
 3289TIP3    H231503   5.621   2.693   0.084 -1.4217 -0.3578  1.1229
 3290TIP3   OH231504   0.857   0.345   1.008  0.0620 -0.3642  0.5355
 3290TIP3    H131505   0.879   0.385   1.093  0.5956  1.4266 -0.3900
 3290TIP3    H231506   0.938   0.304   0.980  0.2698  0.1866  0.3102
 3291TIP3   OH231507   0.539   1.838   0.481  0.2527  0.0164  0.4362
 3291TIP3    H131508   0.540   1.774   0.411 -0.3452  0.6082 -0.1294
 3291TIP3    H231509   0.619   1.821   0.531  0.4219 -0.7375 -0.0823
 3292TIP3   OH231510   3.203   6.635   2.913 -0.4622  1.5249 -0.1486
 3292TIP3    H131511   3.292   6.607   2.934 -1.3461 -0.3526  1.4521
 3292TIP3    H231512   3.166   6.564   2.861 -1.2675  1.9225 -0.1385
 3293TIP3   OH231513   4.045   3.220   8.723  0.7789 -0.6969 -0.5289
 3293TIP3    H131514   4.055   3.315   8.729  2.1909 -0.8617  0.2864
 3293TIP3    H231515   4.078   3.198   8.636 -0.9142 -0.3193 -1.3017
 3294TIP3   OH231516   0.587   6.538   3.186  0.0930  0.1526 -0.4265
 3294TIP3    H131517   0.625   6.495   3.109 -0.7152  0.1314 -0.8209
 3294TIP3    H231518   0.556   6.466   3.240 -0.9088  0.1979 -0.9065
 3295TIP3   OH231519   5.177   3.202   1.276  0.7068 -0.1154  0.2605
 3295TIP3    H131520   5.085   3.217   1.256  0.3366  0.7552  2.2760
 3295TIP3    H231521   5.189   3.107   1.270 -0.1878 -0.1882 -0.4991
 3296TIP3   OH231522   4.729   4.589   8.732  0.3810  0.2807  0.4164
 3296TIP3    H131523   4.773   4.505   8.744 -0.1694  0.1573  1.6962
 3296TIP3    H231524   4.758   4.619   8.645  0.5498 -1.2369 -0.0795
 3297TIP3   OH231525   4.004   0.794   7.962 -0.4150  0.7101  0.6944
 3297TIP3    H131526   3.996   0.884   7.993  2.9841  0.9112  1.4255
 3297TIP3    H231527   3.954   0.742   8.025  0.3297  1.8103  2.2634
 3298TIP3   OH231528   0.529   1.119   0.818 -0.0067  0.4871 -0.3464
 3298TIP3    H131529   0.491   1.107   0.731  0.3806 -1.4387 -0.3048
 3298TIP3    H231530   0.606   1.061   0.818 -1.5574 -1.8244  2.1768
 3299TIP3   OH231531   1.397   5.439   8.585 -0.6691 -0.3678  0.4333
 3299TIP3    H131532   1.479   5.477   8.619 -0.2537 -1.7322  1.0162
 3299TIP3    H231533   1.384   5.483   8.501  0.6340 -0.0756  0.3521
 3300TIP3   OH231534   5.889   0.833   2.099 -0.0527 -0.2735  0.5270
 3300TIP3    H131535   5.913   0.743   2.077  2.2008  0.1872  0.7751
 3300TIP3    H231536   5.839   0.825   2.180 -1.5128 -1.4073 -0.4536
 3301TIP3   OH231537   0.807   1.948   4.070  0.5201  0.0653  0.2818
 3301TIP3    H131538   0.792   1.979   4.159  1.7268  1.0757  0.1742
 3301TIP3    H231539   0.875   1.881   4.079  1.7165  1.2060  0.0053
 3302TIP3   OH231540   1.561   1.693   1.564  0.8943 -0.0371  0.1749
 3302TIP3    H131541   1.589   1.631   1.498 -2.6946 -2.3951  0.5920
 3302TIP3    H231542   1.584   1.652   1.647 -2.9371 -1.9198  0.5189
 3303TIP3   OH231543   1.250   4.692   2.673  0.2157 -0.4611 -0.6696
 3303TIP3    H131544   1.155   4.703   2.667  0.0558  0.7213  2.3086
 3303TIP3    H231545   1.269   4.616   2.619 -2.4323 -0.7511 -1.3159
 3304TIP3   OH231546   1.982   2.171   8.345 -0.1572  0.3117 -0.7616
 3304TIP3    H131547   2.072   2.205   8.340 -0.2214  0.4349 -1.0763
 3304TIP3    H231548   1.927   2.246   8.320 -0.1959 -0.7025 -4.2531
 3305TIP3   OH231549   1.596   0.958   1.250  0.1497 -0.0181 -0.1950
 3305TIP3    H131550   1.590   1.020   1.177  0.6057 -0.2334 -0.4240
 3305TIP3    H231551   1.509   0.956   1.288  0.0285  0.4564 -0.4431
 3306TIP3   OH231552   2.127   3.134   1.788  0.7444  0.1755 -0.4750
 3306TIP3    H131553   2.172   3.089   1.717  1.1895  1.5006 -1.0675
 3306TIP3    H231554   2.123   3.225   1.760 -2.5653  0.1258 -0.6099
 3307TIP3   OH231555   2.226   2.321   8.239 -0.2792  0.3828 -0.0396
 3307TIP3    H131556   2.249   2.409   8.208 -1.2730  0.2632 -1.1633
 3307TIP3    H231557   2.253   2.321   8.331  2.1226  0.9818 -0.6756
 3308TIP3   OH231558   2.813   0.338   1.474  0.2108 -0.1389  0.0546
 3308TIP3    H131559   2.772   0.387   1.546 -1.5142 -0.0160 -0.9449
 3308TIP3    H231560   2.802   0.394   1.397  1.5410 -0.5041 -0.4193
 3309TIP3   OH231561   0.525   2.491   4.290  0.3914  0.4679 -0.5289
 3309TIP3    H131562   0.476   2.526   4.215 -0.3778  0.3188 -0.0947
 3309TIP3    H231563   0.516   2.396   4.283  0.5592  0.4409 -0.3953
 3310TIP3   OH231564   0.567   3.923   2.429  0.3463 -0.0781 -0.0184
 3310TIP3    H131565   0.558   4.018   2.425  1.0870  0.1502  2.1818
 3310TIP3    H231566   0.502   3.889   2.368 -0.3267  1.8252 -0.4048
 3311TIP3   OH231567   3.833   0.908   1.746 -0.0642  0.3014 -0.2901
 3311TIP3    H131568   3.812   0.861   1.666 -0.6468  0.7383 -0.4033
 3311TIP3    H231569   3.913   0.957   1.725  0.7725 -0.9316 -0.0398
 3312TIP3   OH231570   1.086   3.899   8.100 -0.3209  0.1699  0.0663
 3312TIP3    H131571   1.114   3.863   8.184 -2.0872  0.0993  0.6516
 3312TIP3    H231572   1.081   3.823   8.042  0.6884  0.1897 -0.0723
 3313TIP3   OH231573   0.115   6.338   1.138  0.0859  0.5600 -0.2827
 3313TIP3    H131574   0.042   6.357   1.079 -0.3858  2.2504  0.7722
 3313TIP3    H231575   0.130   6.420   1.184  2.0243 -0.0395  0.2348
 3314TIP3   OH231576   3.878   4.227   1.659  0.6195  0.8400 -0.6044
 3314TIP3    H131577   3.802   4.237   1.601 -0.9394 -0.4904  1.0805
 3314TIP3    H231578   3.852   4.272   1.740  1.0660 -0.7112  0.4509
 3315TIP3   OH231579   0.244   6.040   2.442  0.0972 -0.3994  0.0881
 3315TIP3    H131580   0.273   5.964   2.493 -0.8018 -0.5873  0.3403
 3315TIP3    H231581   0.182   6.085   2.500 -0.0562  0.0201 -0.4013
 3316TIP3   OH231582   5.611   3.977   3.177  0.0471  0.4775  0.2568
 3316TIP3    H131583   5.684   3.918   3.159 -1.1759 -0.4159 -2.2913
 3316TIP3    H231584   5.580   4.004   3.090 -1.4645  2.3413  1.2945
 3317TIP3   OH231585   6.629   3.081   2.504  0.0625  0.3335 -0.0708
 3317TIP3    H131586   6.640   3.080   2.599 -0.0121 -0.2194 -0.0668
 3317TIP3    H231587   6.688   3.150   2.473  0.0710  0.5268  0.3777
 3318TIP3   OH231588   4.683   4.935   0.919 -0.2696 -0.2864  0.1599
 3318TIP3    H131589   4.732   5.015   0.938  0.8065 -0.3456 -2.0595
 3318TIP3    H231590   4.725   4.900   0.841 -3.7877 -0.4236 -1.8476
 3319TIP3   OH231591   3.845   0.778   4.089  0.4553 -0.4475 -0.7050
 3319TIP3    H131592   3.820   0.779   3.997  0.1323 -1.4304 -0.6341
 3319TIP3    H231593   3.940   0.792   4.088  0.2844  0.8846 -1.0945
 3320TIP3   OH231594   5.915   6.174   1.282 -0.0046  0.2310  0.7623
 3320TIP3    H131595   5.971   6.233   1.232  0.0212 -0.4672 -0.0622
 3320TIP3    H231596   5.918   6.091   1.234 -1.8872  0.2220  0.5650
 3321TIP3   OH231597   4.071   1.669   2.454 -0.0183  0.0134  0.2143
 3321TIP3    H131598   4.016   1.591   2.461  0.5192 -0.2134  2.9287
 3321TIP3    H231599   4.013   1.741   2.479  0.1786  0.1602  0.2461
 3322TIP3   OH231600   0.658   0.507   3.407  0.5025  0.3367 -0.6011
 3322TIP3    H131601   0.586   0.445   3.400 -1.0324  1.9751 -0.0364
 3322TIP3    H231602   0.681   0.508   3.500 -0.0312  1.1984 -0.4750
 3323TIP3   OH231603   0.599   2.970   1.482 -0.1308  0.1297 -0.0104
 3323TIP3    H131604   0.638   3.010   1.404 -0.8062  1.0032  0.0845
 3323TIP3    H231605   0.639   3.016   1.556  0.7695 -0.9312  0.1997
 3324TIP3   OH231606   0.192   3.122   2.207 -0.5965 -0.1497 -0.2600
 3324TIP3    H131607   0.264   3.066   2.178  0.3267  1.4025 -1.1525
 3324TIP3    H231608   0.138   3.133   2.128 -0.8024  0.1448 -0.0787
 3325TIP3   OH231609   4.666   2.915   0.924 -0.1588 -0.2603  0.9605
 3325TIP3    H131610   4.607   2.897   0.851 -0.1242  1.4540  0.4688
 3325TIP3    H231611   4.754   2.896   0.890 -0.2504 -0.9605  1.0858
 3326TIP3   OH231612   5.635   0.666   2.756 -0.4160  0.3111  0.2123
 3326TIP3    H131613   5.634   0.693   2.848  0.0010  1.5378 -0.1352
 3326TIP3    H231614   5.717   0.700   2.721 -0.8614  0.4073 -0.7811
 3327TIP3   OH231615   5.240   0.109   1.468  0.5620 -0.0284  0.3615
 3327TIP3    H131616   5.273   0.022   1.446  0.2480 -0.0622 -0.0032
 3327TIP3    H231617   5.145   0.098   1.472  0.3012  0.7474 -1.9782
 3328TIP3   OH231618   6.580   4.719   3.030 -0.1053 -0.3769 -0.4188
 3328TIP3    H131619   6.608   4.740   2.941 -0.9584  0.4872 -0.5053
 3328TIP3    H231620   6.617   4.789   3.083 -0.3954 -0.3547 -0.2427
 3329TIP3   OH231621   4.043   2.792   0.335 -0.5200  0.2508  0.6452
 3329TIP3    H131622   4.125   2.804   0.288 -0.0453 -1.3296  1.0186
 3329TIP3    H231623   4.069   2.771   0.424 -1.3471  0.3346  0.9190
 3330TIP3   OH231624   6.268   4.268   0.858 -0.3802 -0.3988  0.2800
 3330TIP3    H131625   6.178   4.249   0.884  0.0534 -1.0548  1.3576
 3330TIP3    H231626   6.260   4.310   0.772 -1.6614 -1.2523 -0.0406
 3331TIP3   OH231627   1.161   5.007   1.684 -0.0971  0.5420  0.1138
 3331TIP3    H131628   1.190   5.096   1.663  1.5063 -0.0510 -0.3594
 3331TIP3    H231629   1.187   4.995   1.776  1.6348 -0.1209 -0.4184
 3332TIP3   OH231630   0.940   0.583   0.330 -0.1019 -0.8262  0.0949
 3332TIP3    H131631   0.902   0.498   0.307 -0.7024 -0.8317  1.0514
 3332TIP3    H231632   1.024   0.561   0.371  0.1100 -0.9114 -0.3790
 3333TIP3   OH231633   5.634   6.586   8.047 -0.1506  0.1796 -0.0669
 3333TIP3    H131634   5.618   6.559   8.137 -0.3520  0.7594  0.0736
 3333TIP3    H231635   5.548   6.592   8.007 -0.3877  3.2322  0.6744
 3334TIP3   OH231636   1.119   1.471   3.691  0.1606  0.1291 -0.5587
 3334TIP3    H131637   1.188   1.407   3.674  1.1750  1.1826 -0.5263
 3334TIP3    H231638   1.071   1.434   3.766 -0.0956 -1.1958 -1.3316
 3335TIP3   OH231639   5.325   4.551   8.363 -0.6893  0.4710  0.5383
 3335TIP3    H131640   5.237   4.572   8.334 -0.7661 -0.1565  0.3098
 3335TIP3    H231641   5.313   4.499   8.442 -0.5790 -0.7311 -0.1984
 3336TIP3   OH231642   5.057   1.386   2.696  0.3002  0.6114 -0.3394
 3336TIP3    H131643   5.012   1.425   2.772  0.8582 -1.0765  0.9192
 3336TIP3    H231644   4.991   1.386   2.627 -0.9941  0.0839  0.8434
 3337TIP3   OH231645   5.597   4.839   3.256  0.3342 -0.4067  0.3316
 3337TIP3    H131646   5.604   4.811   3.164 -0.4192 -0.8448  0.3980
 3337TIP3    H231647   5.539   4.774   3.296  0.4950 -0.0997  1.0736
 3338TIP3   OH231648   1.076   6.643   3.933  0.3519 -0.2323  0.3800
 3338TIP3    H131649   1.127   6.566   3.955  0.7700 -0.4629 -1.2425
 3338TIP3    H231650   1.051   6.630   3.841 -0.9928  0.7788  0.5675
 3339TIP3   OH231651   1.630   1.897   2.437  0.4677 -0.2225 -0.3736
 3339TIP3    H131652   1.623   1.813   2.391  0.3224 -0.0913 -0.5945
 3339TIP3    H231653   1.544   1.937   2.426  0.5522 -0.0237 -0.3110
 3340TIP3   OH231654   0.777   0.763   4.215  0.2089 -0.3833  0.1583
 3340TIP3    H131655   0.739   0.675   4.206  1.8998 -1.0518 -1.1260
 3340TIP3    H231656   0.834   0.756   4.292  1.8268 -1.0748 -1.0235
 3341TIP3   OH231657   0.237   0.874   3.133  0.0193  0.2571 -0.1163
 3341TIP3    H131658   0.237   0.929   3.211  2.4150  0.3687 -0.1208
 3341TIP3    H231659   0.329   0.866   3.109 -0.5955 -0.2164 -2.6353
 3342TIP3   OH231660   4.319   4.149   3.324  1.2690  0.0293  0.4996
 3342TIP3    H131661   4.386   4.082   3.336  0.7874 -0.5160  0.1439
 3342TIP3    H231662   4.256   4.111   3.263 -0.1463 -0.0532  1.9513
 3343TIP3   OH231663   0.992   4.967   0.075 -0.1064 -0.4552  0.6568
 3343TIP3    H131664   0.966   4.901   0.139  0.0634 -0.5382  0.6417
 3343TIP3    H231665   1.070   4.931   0.033 -1.5249 -1.4958 -1.2740
 3344TIP3   OH231666   6.107   5.653   0.831 -0.1777  0.8245  0.1156
 3344TIP3    H131667   6.153   5.737   0.829  0.2214  0.6054 -1.4612
 3344TIP3    H231668   6.115   5.619   0.742 -1.8206 -0.0929  0.2678
 3345TIP3   OH231669   0.228   5.666   8.810 -0.4586  0.6471 -0.4945
 3345TIP3    H131670   0.160   5.612   8.852 -1.7980  1.0707 -2.0335
 3345TIP3    H231671   0.259   5.724   8.880 -2.2860  1.0163  0.0580
 3346TIP3   OH231672   4.934   0.518   8.499 -0.5854  0.0511 -0.1875
 3346TIP3    H131673   4.851   0.531   8.545  0.9110 -1.6668  3.3976
 3346TIP3    H231674   4.912   0.459   8.427 -2.8480  1.6712 -0.9080
 3347TIP3   OH231675   4.181   0.561   8.746  0.1121 -0.1721  0.4746
 3347TIP3    H131676   4.238   0.492   8.712  0.4370  0.6424 -0.7068
 3347TIP3    H231677   4.231   0.600   8.818  0.5143 -0.2745  0.2524
 3348TIP3   OH231678   1.055   2.190   1.121 -0.3942 -0.3617 -0.9777
 3348TIP3    H131679   1.142   2.177   1.084 -0.9229 -0.6121 -2.1715
 3348TIP3    H231680   1.065   2.266   1.179  1.0090 -1.4519  0.2957
 3349TIP3   OH231681   6.664   1.802   0.629  0.0165 -0.2648  0.2558
 3349TIP3    H131682   6.733   1.737   0.636 -0.1099 -0.5564 -0.9397
 3349TIP3    H231683   6.607   1.786   0.703  1.8020  0.6990  1.9262
 3350TIP3   OH231684   6.286   1.479   0.819  0.0300  0.1784  1.1756
 3350TIP3    H131685   6.233   1.528   0.883  0.2108 -1.9858  3.0859
 3350TIP3    H231686   6.224   1.418   0.779 -0.0113  1.2993 -0.6005
 3351TIP3   OH231687   0.250   1.543   3.258 -0.4755  0.6299  0.1695
 3351TIP3    H131688   0.239   1.448   3.265  0.2786  0.5728  0.7590
 3351TIP3    H231689   0.338   1.554   3.223 -0.3924  1.1099  0.5175
 3352TIP3   OH231690   5.516   2.764   1.959 -0.0605 -0.0552 -0.4707
 3352TIP3    H131691   5.476   2.850   1.944 -0.8721 -0.3889 -0.2969
 3352TIP3    H231692   5.455   2.720   2.018  1.9989  0.4554  2.2171
 3353TIP3   OH231693   6.090   3.477   2.379 -0.4433  0.0033  0.0486
 3353TIP3    H131694   6.141   3.396   2.373 -1.7682 -0.9281  0.7716
 3353TIP3    H231695   6.096   3.502   2.472 -0.0882  0.7160 -0.1614
 3354TIP3   OH231696   6.016   6.350   3.520  0.3546  0.2136  0.3202
 3354TIP3    H131697   5.945   6.329   3.459  0.6865  0.8919 -0.3072
 3354TIP3    H231698   6.096   6.343   3.468  0.7722 -0.6672  1.0570
 3355TIP3   OH231699   6.357   0.991   0.901  0.6401  0.2246  0.1473
 3355TIP3    H131700   6.436   1.034   0.868  0.5904  0.6216  0.5421
 3355TIP3    H231701   6.300   1.063   0.927  0.8108 -0.0729  1.4190
 3356TIP3   OH231702   5.974   2.466   0.266  0.1409 -0.3602  0.0147
 3356TIP3    H131703   6.040   2.483   0.334  1.8252  0.7506 -1.7821
 3356TIP3    H231704   5.917   2.543   0.270 -0.0292 -0.5054  0.4479
 3357TIP3   OH231705   5.332   2.119   3.225  0.0786 -0.3860  0.0060
 3357TIP3    H131706   5.417   2.101   3.263  0.0376 -1.5798 -0.4124
 3357TIP3    H231707   5.291   2.032   3.216 -1.2704  0.1805  0.4238
 3358TIP3   OH231708   1.549   0.137   1.129  0.4431 -0.9423 -0.1962
 3358TIP3    H131709   1.585   0.224   1.147  0.3959 -0.4600 -2.1612
 3358TIP3    H231710   1.481   0.124   1.194  0.9951  0.1536  0.6237
 3359TIP3   OH231711   4.808   1.121   0.447  0.0213  0.3133 -0.3698
 3359TIP3    H131712   4.764   1.086   0.524  1.0506 -2.5202 -0.9503
 3359TIP3    H231713   4.902   1.111   0.465  0.2903 -0.2711 -1.8760
 3360TIP3   OH231714   5.401   2.819   0.884 -0.3342  0.4092  0.0946
 3360TIP3    H131715   5.463   2.747   0.871 -1.4259 -0.3071 -1.5277
 3360TIP3    H231716   5.438   2.892   0.833 -1.1584 -0.2715 -1.5695
 3361TIP3   OH231717   1.524   2.338   0.751 -0.3962  0.2915  0.0905
 3361TIP3    H131718   1.568   2.322   0.667 -1.2963 -0.7736 -0.2061
 3361TIP3    H231719   1.552   2.425   0.777 -1.9837  1.7137 -2.5280
 3362TIP3   OH231720   5.173   5.252   8.823 -0.4579  0.0413 -0.7377
 3362TIP3    H131721   5.140   5.218   8.740 -1.3115  0.2537 -0.5009
 3362TIP3    H231722   5.172   5.347   8.811 -1.6848  0.1259 -0.1016
 3363TIP3   OH231723   3.767   4.653   1.586  0.1030 -0.3553  0.1249
 3363TIP3    H131724   3.782   4.576   1.531  0.4867 -0.1407 -0.0767
 3363TIP3    H231725   3.764   4.726   1.525  2.9517  0.2150  0.5416
 3364TIP3   OH231726   2.014   1.060   1.964 -0.0577 -0.2327  0.5401
 3364TIP3    H131727   1.981   0.995   2.026 -3.3859 -0.4849 -1.2623
 3364TIP3    H231728   2.005   1.018   1.878  0.3560  1.6177 -0.4580
 3365TIP3   OH231729   3.380   0.615   3.694  0.2927  0.4747 -0.3007
 3365TIP3    H131730   3.320   0.661   3.754 -1.1410  0.5439 -1.7065
 3365TIP3    H231731   3.408   0.683   3.633  0.5455  0.1004 -0.6001
 3366TIP3   OH231732   3.970   4.984   3.172  0.4726  0.5446  0.0618
 3366TIP3    H131733   3.958   4.894   3.201  2.1588  0.4130  0.4892
 3366TIP3    H231734   4.064   4.991   3.154  0.0131  1.5463 -2.3277
 3367TIP3   OH231735   6.622   3.205   1.081  0.0043  0.0751 -0.7570
 3367TIP3    H131736   6.698   3.263   1.071 -1.8293  2.9673  0.5489
 3367TIP3    H231737   6.568   3.224   1.005 -0.3022 -0.5122 -0.6890
 3368TIP3   OH231738   5.818   6.224   8.262  0.1274 -0.1267  0.1462
 3368TIP3    H131739   5.828   6.287   8.191 -0.4703  2.4781  2.2229
 3368TIP3    H231740   5.858   6.144   8.229 -0.9274  0.6654 -3.4270
 3369TIP3   OH231741   5.720   0.781   0.586 -0.4010  0.2208  0.1380
 3369TIP3    H131742   5.774   0.730   0.526 -0.4548 -0.5246  0.7071
 3369TIP3    H231743   5.745   0.872   0.569 -0.2494  0.0094 -0.8369
 3370TIP3   OH231744   0.866   5.998   2.219  0.2966 -0.4652 -0.2845
 3370TIP3    H131745   0.820   5.960   2.293  0.7268 -1.4234 -0.4955
 3370TIP3    H231746   0.828   5.955   2.142 -0.3147  0.6917 -0.6551
 3371TIP3   OH231747   1.765   6.756   2.699 -0.2944 -0.0800 -0.3666
 3371TIP3    H131748   1.789   6.814   2.627  1.4960 -0.7102 -0.3033
 3371TIP3    H231749   1.763   6.668   2.661 -0.8229 -0.2545  0.0375
 3372TIP3   OH231750   1.100   0.538   0.983 -0.1353 -0.0111 -0.8834
 3372TIP3    H131751   1.193   0.531   1.004  0.1452  1.1836 -1.6207
 3372TIP3    H231752   1.056   0.549   1.067  0.7836  3.0330 -0.6693
 3373TIP3   OH231753   3.051   6.565   8.326 -0.1700 -0.5468 -0.4859
 3373TIP3    H131754   3.118   6.627   8.355 -2.1477  1.2455  0.5578
 3373TIP3    H231755   3.073   6.483   8.369 -0.4578  0.8664  2.6474
 3374TIP3   OH231756   6.163   3.770   2.106  0.4763  0.4425 -0.4265
 3374TIP3    H131757   6.073   3.752   2.134  1.2393 -1.9607  0.8158
 3374TIP3    H231758   6.166   3.865   2.094 -1.8703  0.7487  0.7639
 3375TIP3   OH231759   5.240   0.962   2.182  0.0256 -0.0268  0.2485
 3375TIP3    H131760   5.215   1.054   2.189 -0.5537 -0.0796 -0.8896
 3375TIP3    H231761   5.198   0.932   2.102  2.4590 -0.5599 -0.9243
 3376TIP3   OH231762   0.496   5.919   8.775  0.1798 -0.4566  0.0785
 3376TIP3    H131763   0.588   5.894   8.785  0.3203  0.4395  1.1088
 3376TIP3    H231764   0.499   6.002   8.727 -0.3071 -2.3672 -3.7113
 3377TIP3   OH231765   0.052   1.861   7.965  0.0381  0.1614  0.8827
 3377TIP3    H131766  -0.024   1.913   7.940  0.9657  0.1304 -2.5642
 3377TIP3    H231767   0.039   1.777   7.921  1.4161 -0.3327  1.3516
 3378TIP3   OH231768   6.553   2.954   1.030 -0.0925  0.2407 -0.3457
 3378TIP3    H131769   6.622   2.956   0.964 -0.2898  0.0977 -0.5563
 3378TIP3    H231770   6.554   3.042   1.069 -0.3088  0.4842 -0.8804
 3379TIP3   OH231771   0.428   5.103   2.874 -0.0091 -0.6458 -0.5166
 3379TIP3    H131772   0.516   5.071   2.892 -0.2951  0.0159  2.6231
 3379TIP3    H231773   0.433   5.198   2.887 -1.3182 -0.6893  0.6020
 3380TIP3   OH231774   2.202   1.316   2.396 -0.1412  0.5396  0.1476
 3380TIP3    H131775   2.194   1.354   2.308 -0.9180  0.0536 -0.0016
 3380TIP3    H231776   2.209   1.392   2.454 -0.4354  0.8883 -0.2643
 3381TIP3   OH231777   3.243   0.837   4.248  0.3751  0.1152  0.1389
 3381TIP3    H131778   3.163   0.888   4.261  0.2493 -0.3152  1.1241
 3381TIP3    H231779   3.212   0.750   4.222  0.4643 -0.3620  1.5576
 3382TIP3   OH231780   0.178   5.562   1.746 -0.4637 -0.8947  0.4321
 3382TIP3    H131781   0.214   5.492   1.801  1.7867  0.2974  0.5660
 3382TIP3    H231782   0.191   5.532   1.656  3.3199  0.5073  0.3670
 3383TIP3   OH231783   3.695   4.243   0.924  0.3625  0.2383 -0.3970
 3383TIP3    H131784   3.750   4.236   1.003  0.5180 -1.4364 -0.6234
 3383TIP3    H231785   3.758   4.256   0.853  0.3307  0.1868 -0.4341
 3384TIP3   OH231786   3.045   5.724   4.372  0.0699  0.4490 -0.1563
 3384TIP3    H131787   3.081   5.813   4.364  0.3055  0.4172  0.4917
 3384TIP3    H231788   3.074   5.679   4.294 -0.3181  1.0371 -0.6527
 3385TIP3   OH231789   0.038   2.224   0.360  0.4466 -0.0930  1.0617
 3385TIP3    H131790   0.067   2.133   0.354  1.9240  0.3001  1.6323
 3385TIP3    H231791   0.088   2.260   0.433 -0.6016  1.0146  1.2713
 3386TIP3   OH231792   2.762   3.495   0.311  0.0559 -0.0927 -0.1278
 3386TIP3    H131793   2.730   3.430   0.373 -1.8147 -0.8152 -1.7665
 3386TIP3    H231794   2.790   3.569   0.366 -2.4444 -0.2937  1.5753
 3387TIP3   OH231795   0.059   3.213   7.873 -0.5987  0.5847 -0.0223
 3387TIP3    H131796  -0.003   3.155   7.917  1.3748  0.1072  2.3750
 3387TIP3    H231797   0.107   3.255   7.944  0.3000  2.6458 -1.7510
 3388TIP3   OH231798   3.593   1.486   1.694 -0.2473 -1.0934  0.3627
 3388TIP3    H131799   3.622   1.575   1.676 -2.5576 -0.3884 -0.2327
 3388TIP3    H231800   3.670   1.442   1.731  0.7548  1.3036  1.2847
 3389TIP3   OH231801   0.490   6.571   8.703 -0.6714 -1.0733 -0.0748
 3389TIP3    H131802   0.550   6.509   8.745  0.3771 -0.1499 -0.1792
 3389TIP3    H231803   0.411   6.519   8.686 -0.8583 -1.6918  2.3007
 3390TIP3   OH231804   0.022   5.591   2.033  0.2543  0.3750 -0.2246
 3390TIP3    H131805   0.060   5.672   1.999  1.0970 -0.1440 -0.5588
 3390TIP3    H231806  -0.021   5.552   1.958  0.3280  0.2411 -0.1973
 3391TIP3   OH231807   1.414   0.547   2.759 -0.8190  0.1668  0.4701
 3391TIP3    H131808   1.339   0.544   2.700 -0.1550  0.2455 -0.3859
 3391TIP3    H231809   1.468   0.472   2.734 -0.7462 -0.0736  1.2871
 3392TIP3   OH231810   1.291   3.979   0.353  0.2177 -0.0260 -0.0673
 3392TIP3    H131811   1.244   4.034   0.415 -2.4200 -1.7860 -0.3408
 3392TIP3    H231812   1.344   3.921   0.409 -0.9537 -0.5776  0.5157
 3393TIP3   OH231813   1.641   5.438   1.099 -0.0986 -0.8365  0.0548
 3393TIP3    H131814   1.601   5.438   1.186  0.8286 -2.5867  0.5296
 3393TIP3    H231815   1.621   5.524   1.063 -0.5645 -0.1102  1.9607
 3394TIP3   OH231816   2.685   3.258   2.220  0.1346 -0.2058 -0.7485
 3394TIP3    H131817   2.606   3.299   2.184 -0.4891 -0.8268 -0.1174
 3394TIP3    H231818   2.720   3.207   2.147 -0.8270 -1.0335 -0.6469
 3395TIP3   OH231819   0.171   2.590   1.153 -0.4062  0.5085 -0.2680
 3395TIP3    H131820   0.132   2.653   1.093  0.5460 -0.5057 -2.0212
 3395TIP3    H231821   0.173   2.508   1.105  0.0600 -0.4475  1.3023
 3396TIP3   OH231822   0.957   2.601   4.426 -0.4736  0.5059 -0.1358
 3396TIP3    H131823   1.037   2.552   4.445 -1.1435  0.1103  2.0190
 3396TIP3    H231824   0.983   2.693   4.431  0.1103  0.3780 -0.7927
 3397TIP3   OH231825   6.493   4.240   3.008 -0.6084 -0.4802 -0.3576
 3397TIP3    H131826   6.476   4.317   3.060 -0.2835 -1.1288  0.7428
 3397TIP3    H231827   6.501   4.272   2.918  4.6469  1.6697  0.4906
 3398TIP3   OH231828   2.581   0.628   1.538 -0.5433 -0.2408  0.1536
 3398TIP3    H131829   2.508   0.579   1.576 -0.3106 -2.5513 -2.1346
 3398TIP3    H231830   2.556   0.644   1.447  0.4310  1.9101  0.1873
 3399TIP3   OH231831   0.231   0.730   3.898 -0.2131  0.7401 -0.2210
 3399TIP3    H131832   0.247   0.636   3.913  0.5733  0.8682 -0.2326
 3399TIP3    H231833   0.243   0.771   3.984  0.7669  0.9988 -0.4682
 3400TIP3   OH231834   3.030   3.944   1.236 -0.0667 -0.1506  0.3826
 3400TIP3    H131835   3.058   4.033   1.215 -2.0188  0.6279  0.8285
 3400TIP3    H231836   3.028   3.898   1.152 -0.8332  0.7932 -0.1326
 3401TIP3   OH231837   2.910   4.747   0.785  0.3027 -0.9794 -0.3057
 3401TIP3    H131838   2.866   4.662   0.776 -3.1742  0.3909  1.6922
 3401TIP3    H231839   2.904   4.786   0.699 -0.1000 -1.8859 -0.7064
 3402TIP3   OH231840   4.075   6.773   2.315 -0.0414 -0.1642 -0.1922
 3402TIP3    H131841   4.011   6.703   2.322  1.1932 -1.2044  1.2505
 3402TIP3    H231842   4.024   6.850   2.289 -2.0213 -0.7501  1.7075
 3403TIP3   OH231843   0.858   2.362   0.100  0.2567  0.4618  0.1463
 3403TIP3    H131844   0.941   2.372   0.053  0.0646  0.8779 -0.1051
 3403TIP3    H231845   0.794   2.409   0.047 -0.1135  0.2696  0.4182
 3404TIP3   OH231846   0.074   1.770   1.928 -0.3889 -0.2702  0.2066
 3404TIP3    H131847   0.084   1.677   1.946  0.2383 -0.2654 -0.1122
 3404TIP3    H231848   0.090   1.813   2.012 -0.9548 -0.4616  0.4179
 3405TIP3   OH231849   0.487   2.864   8.657 -0.3346  0.4731  1.0003
 3405TIP3    H131850   0.477   2.874   8.562 -0.0983  0.9981  1.0233
 3405TIP3    H231851   0.399   2.876   8.692 -0.3407  0.8061  0.8817
 3406TIP3   OH231852   4.212   5.717   1.874 -0.3921  0.2366  0.5028
 3406TIP3    H131853   4.153   5.706   1.799 -0.5821  1.6472  0.4091
 3406TIP3    H231854   4.236   5.810   1.871 -1.0946  0.5454  2.6976
 3407TIP3   OH231855   2.343   4.687   0.575 -0.1375 -0.0723 -0.5666
 3407TIP3    H131856   2.295   4.759   0.617  2.0887  0.4951  1.2218
 3407TIP3    H231857   2.277   4.641   0.523 -2.7344  0.3087  2.1110
 3408TIP3   OH231858   1.345   3.897   1.426 -0.4606 -0.3003  0.1242
 3408TIP3    H131859   1.420   3.844   1.454  0.0882  0.5305  0.2573
 3408TIP3    H231860   1.365   3.985   1.458 -1.7859 -0.1895  0.7127
 3409TIP3   OH231861   4.882   0.555   0.679  0.2190  0.8593  0.3626
 3409TIP3    H131862   4.918   0.643   0.692  0.9899  0.7706 -0.9267
 3409TIP3    H231863   4.953   0.496   0.706  0.0613  0.6455  0.3159
 3410TIP3   OH231864   4.527   6.225   1.166 -0.3316 -0.1221 -0.3654
 3410TIP3    H131865   4.546   6.160   1.099  1.0297 -1.1615  0.9599
 3410TIP3    H231866   4.612   6.262   1.190 -0.7859  0.2371  0.7670
 3411TIP3   OH231867   1.770   3.240   2.525  0.2009  0.2861 -0.1415
 3411TIP3    H131868   1.833   3.296   2.572 -0.3942  2.0945 -1.3716
 3411TIP3    H231869   1.727   3.300   2.464 -1.5746 -1.2458 -0.4637
 3412TIP3   OH231870   2.689   2.065   0.725  0.4234  0.6195  0.0049
 3412TIP3    H131871   2.714   2.155   0.702  1.5995 -0.1444 -1.9215
 3412TIP3    H231872   2.594   2.064   0.720  0.3397  1.9154  0.7724
 3413TIP3   OH231873   5.243   5.660   3.199 -0.1825  0.1038  0.0651
 3413TIP3    H131874   5.256   5.733   3.138  0.8212 -1.7018 -2.0281
 3413TIP3    H231875   5.327   5.653   3.246  0.6390 -1.1877 -1.5179
 3414TIP3   OH231876   1.872   5.334   1.915 -0.1012  0.9590 -0.1518
 3414TIP3    H131877   1.944   5.348   1.976 -1.8424  1.9349  1.8132
 3414TIP3    H231878   1.861   5.239   1.911 -0.2240  0.8888  1.4456
 3415TIP3   OH231879   3.082   6.801   2.249 -0.2739  0.2173 -0.2377
 3415TIP3    H131880   3.035   6.869   2.201 -0.6552  0.9740  1.1391
 3415TIP3    H231881   3.155   6.847   2.291 -0.0178 -0.3931 -0.0021
 3416TIP3   OH231882   1.952   0.324   8.636 -0.3533  0.0470 -0.2875
 3416TIP3    H131883   1.882   0.282   8.587  0.5658 -0.9454 -0.7919
 3416TIP3    H231884   2.021   0.258   8.641  0.3865  0.8498  0.5648
 3417TIP3   OH231885   3.000   6.079   2.329 -0.2535 -0.1780 -0.0507
 3417TIP3    H131886   2.982   6.156   2.276 -3.5449 -0.2461  0.7769
 3417TIP3    H231887   2.971   6.103   2.417 -3.2013 -2.8367 -0.1170
 3418TIP3   OH231888   0.036   0.219   3.072  0.4072  0.1509 -0.4115
 3418TIP3    H131889  -0.033   0.156   3.051 -0.0067  0.7377 -0.8472
 3418TIP3    H231890   0.116   0.179   3.037  0.5902 -1.2830  1.4852
 3419TIP3   OH231891   6.494   6.229   3.258 -0.3863 -0.1037  0.7539
 3419TIP3    H131892   6.453   6.200   3.177 -2.5839 -0.0435  1.7744
 3419TIP3    H231893   6.588   6.219   3.242 -0.7143  0.4479 -1.9670
 3420TIP3   OH231894   5.139   5.450   3.044 -0.9061 -0.0625  0.6013
 3420TIP3    H131895   5.050   5.473   3.018 -1.3077  0.0548  2.0087
 3420TIP3    H231896   5.175   5.530   3.081 -0.2902 -0.1848  0.2931
 3421TIP3   OH231897   5.613   6.431   8.567 -0.0610  0.5059  0.1470
 3421TIP3    H131898   5.606   6.339   8.594 -1.5264  0.6301  0.2462
 3421TIP3    H231899   5.541   6.475   8.612 -2.0657  0.9031 -3.1397
 3422TIP3   OH231900   6.092   2.979   0.784  0.0598 -0.4115  0.3688
 3422TIP3    H131901   6.173   3.003   0.829  0.0696 -0.2364  0.2569
 3422TIP3    H231902   6.024   3.025   0.833  0.2170  1.0886 -0.7568
 3423TIP3   OH231903   0.068   6.452   3.100 -0.4871  0.7184 -0.4998
 3423TIP3    H131904  -0.011   6.438   3.047 -0.6531  1.4001 -0.4486
 3423TIP3    H231905   0.035   6.466   3.189 -0.0971 -2.6742  0.3074
 3424TIP3   OH231906   5.111   5.975   2.738  0.2792 -1.4444 -0.0084
 3424TIP3    H131907   5.151   5.901   2.692 -0.3519 -1.6791 -0.1808
 3424TIP3    H231908   5.019   5.973   2.712 -0.1957 -1.8511  1.5756
 3425TIP3   OH231909   5.611   1.767   1.138 -0.1454  0.5860 -0.0907
 3425TIP3    H131910   5.589   1.774   1.231 -1.8555  1.6577 -0.5196
 3425TIP3    H231911   5.694   1.719   1.136  0.0779  0.7915  1.9894
 3426TIP3   OH231912   0.741   3.881   8.442 -0.4630 -0.2826 -0.2567
 3426TIP3    H131913   0.680   3.888   8.369  0.1363 -0.2265 -0.7607
 3426TIP3    H231914   0.822   3.921   8.410 -0.3418  0.1996  0.6077
 3427TIP3   OH231915   0.512   3.855   1.258  0.3340 -0.0827 -0.3918
 3427TIP3    H131916   0.595   3.874   1.302  0.1843  1.5460 -0.7468
 3427TIP3    H231917   0.526   3.882   1.167  0.1705 -2.0479 -1.0406
 3428TIP3   OH231918   0.187   4.859   2.590  0.3134  0.5486 -0.5408
 3428TIP3    H131919   0.143   4.943   2.606 -1.0181 -0.2687  0.2171
 3428TIP3    H231920   0.277   4.884   2.567 -0.0467  2.1824 -0.3199
 3429TIP3   OH231921   3.049   4.759   8.261 -0.2699  0.0378 -0.0083
 3429TIP3    H131922   3.116   4.821   8.234  0.4008  0.0483  1.6040
 3429TIP3    H231923   3.051   4.691   8.193  2.5951 -0.8713  0.8450
 3430TIP3   OH231924   2.394   6.218   0.422 -0.3789  0.1071  0.0709
 3430TIP3    H131925   2.331   6.174   0.365  1.1710 -0.1328 -1.5290
 3430TIP3    H231926   2.400   6.307   0.387 -0.7662  0.5274  1.0288
 3431TIP3   OH231927   1.222   1.366   8.561 -0.4628 -0.2131  0.2018
 3431TIP3    H131928   1.265   1.443   8.524 -0.4725 -0.3488 -0.1006
 3431TIP3    H231929   1.134   1.397   8.584 -0.6646 -0.2738 -0.4618
 3432TIP3   OH231930   6.742   1.709   0.082 -0.6605 -0.0760 -0.6226
 3432TIP3    H131931   6.803   1.782   0.073 -1.0438  0.4522  0.8129
 3432TIP3    H231932   6.687   1.713   0.004  1.2525 -0.7175 -2.0752
 3433TIP3   OH231933   2.797   6.352   1.541  0.0100 -0.1557 -0.1223
 3433TIP3    H131934   2.835   6.427   1.586  1.7185 -0.7386 -0.5024
 3433TIP3    H231935   2.707   6.377   1.524  0.5047  1.7696 -0.1579
 3434TIP3   OH231936   3.633   3.473   3.099  0.0699 -0.2483  0.3332
 3434TIP3    H131937   3.560   3.414   3.118  0.0349 -1.0082 -1.8374
 3434TIP3    H231938   3.704   3.442   3.156 -0.5455 -1.1152  0.6639
 3435TIP3   OH231939   6.616   4.412   1.456  0.0671 -0.1559 -0.5754
 3435TIP3    H131940   6.561   4.373   1.525  0.9389 -0.8683 -0.2628
 3435TIP3    H231941   6.685   4.348   1.442  0.2595  0.2735 -1.6846
 3436TIP3   OH231942   5.606   1.645   8.322  0.3997 -0.4459 -0.0185
 3436TIP3    H131943   5.652   1.589   8.259 -0.9512 -0.7102 -0.8306
 3436TIP3    H231944   5.602   1.593   8.402  1.3355 -0.4858  0.0077
 3437TIP3   OH231945   5.933   4.542   2.404 -0.0171  0.0765 -0.4865
 3437TIP3    H131946   5.997   4.605   2.370  0.6042  0.1239  0.7221
 3437TIP3    H231947   5.851   4.591   2.407  0.7098  1.2713  1.6136
 3438TIP3   OH231948   6.808   3.550   1.784  0.6313 -0.2199 -0.2440
 3438TIP3    H131949   6.788   3.551   1.878  1.7684 -0.2889  0.0123
 3438TIP3    H231950   6.812   3.642   1.759  0.0833 -0.2038 -0.2880
 3439TIP3   OH231951   1.348   3.956   3.651  0.4346  0.4191 -0.0110
 3439TIP3    H131952   1.338   3.865   3.624  3.5310  0.3729 -1.4616
 3439TIP3    H231953   1.346   3.953   3.747  0.1307 -1.0928 -0.0413
 3440TIP3   OH231954   6.526   5.073   2.532  0.4485  0.4035 -0.6178
 3440TIP3    H131955   6.602   5.044   2.583 -0.8051 -2.3655 -0.1655
 3440TIP3    H231956   6.532   5.024   2.450 -0.8225  0.1860 -0.5907
 3441TIP3   OH231957   0.826   3.675   0.403 -0.1769 -0.0363 -0.8367
 3441TIP3    H131958   0.823   3.595   0.455  0.0836  0.8304  0.5473
 3441TIP3    H231959   0.739   3.713   0.413  0.1169  0.5281 -0.3950
 3442TIP3   OH231960   4.270   0.875   3.174  0.2753 -0.0461  0.1449
 3442TIP3    H131961   4.187   0.849   3.214 -0.6507 -0.2504 -1.7773
 3442TIP3    H231962   4.272   0.827   3.091  2.0545  0.4059 -0.1053
 3443TIP3   OH231963   0.771   1.998   2.299  0.4189 -0.2714 -0.1580
 3443TIP3    H131964   0.715   1.951   2.237  0.0942 -0.5160  0.3205
 3443TIP3    H231965   0.715   2.015   2.374  0.1099  2.0863 -0.8429
 3444TIP3   OH231966   4.503   0.268   3.457 -0.2976  0.2202 -0.1779
 3444TIP3    H131967   4.557   0.266   3.535 -0.4598 -1.8089 -0.0877
 3444TIP3    H231968   4.415   0.288   3.489 -0.1496  0.6026  0.0002
 3445TIP3   OH231969   3.554   4.660   3.501 -0.0431  0.2660  0.2515
 3445TIP3    H131970   3.535   4.622   3.416 -0.1453 -0.9439  0.7924
 3445TIP3    H231971   3.628   4.609   3.534  0.6901  1.4214  0.4385
 3446TIP3   OH231972   0.813   2.830   0.974 -0.0496  0.6280  0.5605
 3446TIP3    H131973   0.811   2.797   1.064 -1.7303  1.1337  0.7562
 3446TIP3    H231974   0.798   2.925   0.984 -0.5610  0.6375 -0.2543
 3447TIP3   OH231975   5.096   6.409   1.783  0.2150  0.5111 -0.1322
 3447TIP3    H131976   5.040   6.337   1.810 -0.4361  1.2414  0.5097
 3447TIP3    H231977   5.110   6.460   1.863  0.8479  0.9694 -0.5258
 3448TIP3   OH231978   2.035   6.343   8.409 -0.1101 -0.4273 -0.3925
 3448TIP3    H131979   2.007   6.366   8.321 -1.0120 -0.5146 -0.1419
 3448TIP3    H231980   1.954   6.317   8.454  0.4947 -1.5040  0.1198
 3449TIP3   OH231981   0.429   0.579   8.053  0.2011  0.3174 -0.0985
 3449TIP3    H131982   0.464   0.530   7.979  1.0081  1.0060 -0.1841
 3449TIP3    H231983   0.337   0.552   8.058  0.5095 -0.8646 -0.4112
 3450TIP3   OH231984   5.440   6.751   2.041 -0.4835 -0.6066 -0.4968
 3450TIP3    H131985   5.480   6.753   1.955 -1.2415  0.0200 -0.8499
 3450TIP3    H231986   5.513   6.737   2.102  0.3173  0.8929 -1.0827
 3451TIP3   OH231987   6.263   6.361   0.273 -0.4518  0.1295 -0.1233
 3451TIP3    H131988   6.248   6.431   0.337 -1.3659 -0.4054  0.2678
 3451TIP3    H231989   6.346   6.384   0.231 -1.2473  2.0561 -0.7865
 3452TIP3   OH231990   4.416   6.244   3.208 -0.2145  0.4415 -0.1481
 3452TIP3    H131991   4.329   6.274   3.183 -1.2682 -0.2627  2.3768
 3452TIP3    H231992   4.451   6.314   3.262 -0.7202 -0.7406  1.7861
 3453TIP3   OH231993   1.694   2.774   8.798 -0.5968 -0.1676  0.2111
 3453TIP3    H131994   1.691   2.850   8.856 -0.5509 -0.0642  0.0763
 3453TIP3    H231995   1.649   2.803   8.719 -0.1011 -0.1085 -0.0481
 3454TIP3   OH231996   1.586   2.345   2.285  0.2637 -0.1390 -0.7974
 3454TIP3    H131997   1.634   2.342   2.202 -1.1788  0.7393 -1.6914
 3454TIP3    H231998   1.515   2.282   2.275  1.2443 -1.5427  0.5787
 3455TIP3   OH231999   6.202   0.097   8.464 -0.3025 -0.2691  0.2585
 3455TIP3    H132000   6.246   0.098   8.549  0.1839  0.9108  0.0106
 3455TIP3    H232001   6.273   0.081   8.401 -0.4949 -0.0731 -0.0079
 3456TIP3   OH232002   5.120   3.232   1.571  0.0378 -0.0691 -0.2463
 3456TIP3    H132003   5.187   3.296   1.594 -0.0235  0.5888 -1.7546
 3456TIP3    H232004   5.139   3.209   1.480 -2.8706  1.6645 -1.4533
 3457TIP3   OH232005   0.330   3.332   3.046  0.0020 -0.1170 -0.3245
 3457TIP3    H132006   0.260   3.391   3.073 -1.5355 -1.3836 -1.4021
 3457TIP3    H232007   0.349   3.357   2.956 -0.3378 -0.9736 -0.6323
 3458TIP3   OH232008   2.424   5.140   2.637 -0.0406  0.1653 -0.1345
 3458TIP3    H132009   2.418   5.075   2.708 -1.4304  0.4512  0.0516
 3458TIP3    H232010   2.348   5.121   2.582 -0.6792  1.8330  0.1105
 3459TIP3   OH232011   0.755   3.086   2.105 -0.2484  0.2068  0.3351
 3459TIP3    H132012   0.767   3.012   2.045 -0.3997  1.9013 -1.9261
 3459TIP3    H232013   0.695   3.054   2.172  0.3998 -1.9687 -0.0536
 3460TIP3   OH232014   3.258   3.713   0.179  0.8114 -0.9022 -0.1985
 3460TIP3    H132015   3.352   3.716   0.159  0.8899  0.3532  0.2783
 3460TIP3    H232016   3.227   3.635   0.133  2.0063 -1.1100 -0.7106
 3461TIP3   OH232017   3.773   2.479   0.357  0.1226 -0.3936  0.2057
 3461TIP3    H132018   3.797   2.392   0.327 -1.4833 -2.1143  3.3780
 3461TIP3    H232019   3.682   2.490   0.331 -0.1558 -0.3552  1.1601
 3462TIP3   OH232020   2.172   4.409   3.238  0.0006 -0.4606  0.1750
 3462TIP3    H132021   2.175   4.426   3.144 -2.1035 -2.3074 -0.3099
 3462TIP3    H232022   2.245   4.349   3.254  0.6909  0.2754 -0.1369
 3463TIP3   OH232023   4.452   0.611   3.085  0.2466 -0.3543  0.3343
 3463TIP3    H132024   4.395   0.621   3.009  0.4926  1.3399  0.3279
 3463TIP3    H232025   4.536   0.646   3.057  0.0980  1.1540  1.6402
 3464TIP3   OH232026   3.258   1.564   0.820  0.3771  0.5289 -1.0943
 3464TIP3    H132027   3.165   1.563   0.842  0.4954 -2.0964 -0.4334
 3464TIP3    H232028   3.296   1.625   0.884 -0.6649  0.4162 -0.3319
 3465TIP3   OH232029   3.987   5.493   2.748 -0.2170  0.1604  0.0790
 3465TIP3    H132030   4.003   5.568   2.806  1.4398 -1.0390  1.2402
 3465TIP3    H232031   4.051   5.503   2.678 -0.5762  0.2792 -0.2376
 3466TIP3   OH232032   5.508   3.653   8.467 -0.0736 -0.0383  0.1934
 3466TIP3    H132033   5.439   3.708   8.431 -1.1608 -0.9286  0.8389
 3466TIP3    H232034   5.539   3.602   8.392  0.7634  1.2483 -0.3504
 3467TIP3   OH232035   1.915   1.170   8.644 -0.0225 -0.2234  0.1504
 3467TIP3    H132036   1.913   1.077   8.619 -1.3367 -0.3129  0.5077
 3467TIP3    H232037   1.826   1.188   8.675  0.9799  0.3547  3.0277
 3468TIP3   OH232038   3.617   0.668   1.669  0.1204 -0.1961 -0.4161
 3468TIP3    H132039   3.547   0.687   1.731  1.3750  2.1542  0.4264
 3468TIP3    H232040   3.595   0.719   1.591  1.8820  2.4334  0.6634
 3469TIP3   OH232041   2.101   4.779   2.006 -0.3554 -0.2813  0.2659
 3469TIP3    H132042   2.088   4.731   1.924  0.3120  0.8160 -0.5160
 3469TIP3    H232043   2.182   4.745   2.042 -0.4051 -0.4376  0.2303
 3470TIP3   OH232044   0.322   0.481   3.662 -0.4134  0.1047 -0.6209
 3470TIP3    H132045   0.316   0.472   3.758  1.2485  0.4595 -0.4659
 3470TIP3    H232046   0.383   0.412   3.636 -1.7203 -0.7410 -1.6005
 3471TIP3   OH232047   4.719   0.126   8.572  0.2139  0.0902 -0.3189
 3471TIP3    H132048   4.788   0.131   8.506 -0.9375  0.3732 -1.5625
 3471TIP3    H232049   4.647   0.081   8.527 -1.2444  1.8455  0.1387
 3472TIP3   OH232050   5.152   0.837   2.962 -0.2689 -0.6623 -0.4009
 3472TIP3    H132051   5.220   0.900   2.939 -0.1945 -1.1416 -1.5278
 3472TIP3    H232052   5.133   0.790   2.881 -3.0253  0.4835 -0.5415
 3473TIP3   OH232053   0.928   5.220   1.511 -0.1154  0.3323 -0.0793
 3473TIP3    H132054   0.920   5.125   1.507 -0.8730  0.3953 -0.2152
 3473TIP3    H232055   1.003   5.240   1.454  1.0541 -0.2906  1.1678
 3474TIP3   OH232056   5.160   2.430   2.101 -0.4412  0.1357  0.2655
 3474TIP3    H132057   5.131   2.459   2.015  0.3527 -1.6475 -0.6672
 3474TIP3    H232058   5.106   2.352   2.119 -1.0064  0.8104  1.6715
 3475TIP3   OH232059   3.434   4.903   1.773  0.2070  0.1477  0.2501
 3475TIP3    H132060   3.523   4.873   1.755  1.1840  2.0051  1.6014
 3475TIP3    H232061   3.378   4.843   1.724  2.2083 -0.7537 -1.0809
 3476TIP3   OH232062   0.945   6.598   4.279 -0.2659 -0.8261  0.0740
 3476TIP3    H132063   0.924   6.524   4.337  1.0544 -1.0070  0.3569
 3476TIP3    H232064   0.861   6.627   4.246 -0.9077 -1.7701  0.8186
 3477TIP3   OH232065   3.357   2.679   8.753  0.1235 -0.0843  0.1343
 3477TIP3    H132066   3.393   2.650   8.669 -0.6844 -0.2108 -0.1793
 3477TIP3    H232067   3.298   2.608   8.780  0.3484 -0.0284  0.7927
 3478TIP3   OH232068   1.719   5.968   2.242  0.3987 -0.4175 -0.2045
 3478TIP3    H132069   1.638   5.959   2.292  1.4441 -3.0005  1.2153
 3478TIP3    H232070   1.691   6.001   2.157 -2.3189 -2.2373 -0.1455
 3479TIP3   OH232071   0.267   3.896   1.959 -0.3893  0.0232 -0.2870
 3479TIP3    H132072   0.273   3.877   2.052  0.0064 -0.9223 -0.4920
 3479TIP3    H232073   0.309   3.821   1.916 -0.2156  0.6193 -1.2077
 3480TIP3   OH232074   2.340   0.141   0.092 -0.0912  0.4096  0.1677
 3480TIP3    H132075   2.358   0.169   0.002  0.9056 -1.6858 -0.3452
 3480TIP3    H232076   2.255   0.179   0.113 -0.3340  0.9366 -1.6590
 3481TIP3   OH232077   4.472   3.673   1.174  0.1119 -0.0727 -0.4197
 3481TIP3    H132078   4.415   3.599   1.154 -0.1129  0.1811 -0.7159
 3481TIP3    H232079   4.503   3.704   1.089  0.1172  0.2468 -0.3032
 3482TIP3   OH232080   3.833   3.685   3.648 -0.0960  0.1850  0.2069
 3482TIP3    H132081   3.833   3.747   3.575 -0.1325  0.3704  0.3630
 3482TIP3    H232082   3.918   3.642   3.643  0.2983  0.8821  0.6286
 3483TIP3   OH232083   5.600   2.008   0.744  0.1712 -0.0105 -0.2716
 3483TIP3    H132084   5.622   1.986   0.653 -1.6864 -0.1867 -0.7232
 3483TIP3    H232085   5.685   2.022   0.786  1.1239 -0.8901 -1.7780
 3484TIP3   OH232086   1.192   6.526   3.402  0.0965 -0.1882  0.4933
 3484TIP3    H132087   1.211   6.593   3.337  1.0829  0.9514  1.8815
 3484TIP3    H232088   1.218   6.443   3.361 -2.4123  0.0144 -1.7848
 3485TIP3   OH232089   1.239   3.131   1.817 -0.2824 -0.3077  0.4501
 3485TIP3    H132090   1.182   3.114   1.892 -0.1422  0.5151  0.7621
 3485TIP3    H232091   1.327   3.112   1.849 -0.4996 -4.2051 -0.8148
 3486TIP3   OH232092   1.828   5.861   3.543 -0.2054 -0.4571  0.0287
 3486TIP3    H132093   1.758   5.799   3.521 -0.9628  0.4195 -0.0634
 3486TIP3    H232094   1.909   5.809   3.534 -0.8124 -1.4018 -0.1440
 3487TIP3   OH232095   2.714   1.903   3.502  0.2979  0.0883 -0.1777
 3487TIP3    H132096   2.805   1.929   3.514  0.3529  0.0450 -0.5017
 3487TIP3    H232097   2.717   1.834   3.436  0.2370 -1.3252  1.2503
 3488TIP3   OH232098   4.838   3.311   3.140  0.4592 -0.3984 -0.0520
 3488TIP3    H132099   4.900   3.243   3.167  0.0295 -0.7856 -0.0394
 3488TIP3    H232100   4.860   3.329   3.049 -0.3651 -1.5913 -0.4980
 3489TIP3   OH232101   4.931   0.853   1.756  0.1000 -0.0653  0.1880
 3489TIP3    H132102   4.961   0.877   1.668  1.5481  1.0249  0.9157
 3489TIP3    H232103   4.981   0.774   1.778 -0.2940 -0.3627  0.0210
 3490TIP3   OH232104   1.608   1.958   1.360 -0.7484 -0.2994 -0.2761
 3490TIP3    H132105   1.558   1.890   1.315 -0.6039  1.6496 -3.6878
 3490TIP3    H232106   1.545   2.028   1.374 -0.3799 -0.2322  1.2207
 3491TIP3   OH232107   2.677   0.693   0.147 -0.1632  0.3810 -0.0729
 3491TIP3    H132108   2.612   0.711   0.216 -0.4576 -0.2774 -0.1730
 3491TIP3    H232109   2.656   0.756   0.078 -1.4844 -0.6125 -0.6171
 3492TIP3   OH232110   5.167   4.966   3.781  0.4051 -0.4214  0.0362
 3492TIP3    H132111   5.081   4.998   3.805 -0.4646 -0.8541 -2.1963
 3492TIP3    H232112   5.171   4.877   3.815  1.1316  0.4961  2.5338
 3493TIP3   OH232113   3.069   0.292   3.664  0.0947 -0.1579 -0.4904
 3493TIP3    H132114   3.066   0.239   3.584  0.9021  0.4440 -0.9464
 3493TIP3    H232115   3.121   0.240   3.725 -2.6577 -1.8083  0.6111
 3494TIP3   OH232116   3.622   3.114   1.513  0.2797 -0.2474 -0.1850
 3494TIP3    H132117   3.533   3.142   1.534 -0.3433 -0.7128 -2.0537
 3494TIP3    H232118   3.673   3.195   1.510 -1.1483  0.7234 -3.8737
 3495TIP3   OH232119   2.204   0.695   1.170 -0.8442  0.0587 -0.0983
 3495TIP3    H132120   2.212   0.791   1.165  2.2332 -0.1864 -2.1366
 3495TIP3    H232121   2.168   0.669   1.086 -0.6606 -0.6394  0.0320
 3496TIP3   OH232122   1.968   4.925   1.152  0.4163  0.0309  0.3110
 3496TIP3    H132123   2.013   4.887   1.228 -1.9836  0.9579  2.3244
 3496TIP3    H232124   1.879   4.890   1.157 -0.1794  1.2067 -1.2983
 3497TIP3   OH232125   5.191   0.088   0.640 -0.5167  0.2051  0.4891
 3497TIP3    H132126   5.268   0.142   0.658  0.4737 -0.8716 -0.3757
 3497TIP3    H232127   5.126   0.149   0.607  0.0595  1.0916  0.9609
 3498TIP3   OH232128   5.318   1.645   2.084 -0.9122 -0.6763  0.5130
 3498TIP3    H132129   5.287   1.708   2.148  0.4127  0.5936 -0.0410
 3498TIP3    H232130   5.274   1.670   2.003 -0.3066 -0.3733  0.2692
 3499TIP3   OH232131   5.866   4.695   1.394  0.0204 -0.1906 -0.1263
 3499TIP3    H132132   5.889   4.710   1.486 -0.8953 -2.1657  0.4786
 3499TIP3    H232133   5.931   4.746   1.345  0.9631  0.3661  1.5961
 3500TIP3   OH232134   0.813   1.456   8.692  0.3424  0.8316  0.0916
 3500TIP3    H132135   0.830   1.376   8.743  3.2293 -0.2633 -2.2646
 3500TIP3    H232136   0.762   1.425   8.617  1.8247  1.0169 -1.0471
 3501TIP3   OH232137   5.198   6.624   3.185  0.1223 -0.2337  0.2983
 3501TIP3    H132138   5.210   6.717   3.165  0.4958 -0.7709 -2.3482
 3501TIP3    H232139   5.286   6.586   3.177 -0.4034 -1.2099 -1.2524
 3502TIP3   OH232140   6.538   0.588   3.475  0.0452 -0.7378 -0.4923
 3502TIP3    H132141   6.585   0.670   3.491  0.9397 -1.4769  0.8857
 3502TIP3    H232142   6.585   0.547   3.402  1.0536 -1.0673  0.3159
 3503TIP3   OH232143   1.913   1.349   1.872 -0.4551 -0.2161  0.0974
 3503TIP3    H132144   1.912   1.260   1.838  1.9616 -0.8473  1.4182
 3503TIP3    H232145   1.868   1.344   1.956 -1.7952  0.2034 -0.5761
 3504TIP3   OH232146   2.868   1.672   3.773 -0.5482  0.4854  0.5715
 3504TIP3    H132147   2.881   1.762   3.744  0.5621  0.1680  0.0555
 3504TIP3    H232148   2.773   1.664   3.783 -0.6640  1.6938  0.5811
 3505TIP3   OH232149   2.574   4.370   2.506  0.0996  0.1634  0.5721
 3505TIP3    H132150   2.664   4.339   2.522 -0.0608 -0.6083  0.0585
 3505TIP3    H232151   2.584   4.457   2.468  0.6501 -0.0990  0.1071
 3506TIP3   OH232152   3.797   3.161   2.446  0.0587 -0.0956  0.1816
 3506TIP3    H132153   3.793   3.255   2.431  4.9389  0.2434 -0.6105
 3506TIP3    H232154   3.740   3.123   2.379 -0.5862  2.2523 -0.6824
 3507TIP3   OH232155   3.330   3.855   0.642  0.2932  0.0189 -0.0010
 3507TIP3    H132156   3.238   3.853   0.668  0.8924 -0.8584  2.3510
 3507TIP3    H232157   3.351   3.948   0.633 -1.6406  0.2716 -4.3003
 3508TIP3   OH232158   1.176   2.379   1.285 -0.7595  0.0214  0.2151
 3508TIP3    H132159   1.183   2.428   1.203 -2.1202  0.5168  0.3629
 3508TIP3    H232160   1.266   2.367   1.314 -0.3306  1.2143 -0.5469
 3509TIP3   OH232161   5.322   5.047   2.468 -0.1156 -0.4707  0.3979
 3509TIP3    H132162   5.241   5.001   2.488 -0.8438  0.7883  0.4590
 3509TIP3    H232163   5.360   5.068   2.554  0.9557 -2.1631  0.3749
 3510TIP3   OH232164   3.212   3.603   1.301  0.2796  0.5158  0.1955
 3510TIP3    H132165   3.181   3.515   1.281  0.6872  0.1743  1.0540
 3510TIP3    H232166   3.256   3.595   1.385 -0.3233  1.6856  0.6509
 3511TIP3   OH232167   0.797   0.630   2.879 -0.3229 -0.0002  0.5248
 3511TIP3    H132168   0.860   0.650   2.948 -1.4333 -0.8137  1.8478
 3511TIP3    H232169   0.728   0.695   2.890  0.6711  1.4874 -1.5249
 3512TIP3   OH232170   3.945   2.188   0.348 -0.1986  0.0130 -0.4330
 3512TIP3    H132171   3.987   2.274   0.355 -0.8057  0.3556 -0.8742
 3512TIP3    H232172   3.925   2.179   0.255 -0.3015 -0.5287 -0.3591
 3513TIP3   OH232173   3.063   3.855   0.672 -0.0648  0.0864  0.9011
 3513TIP3    H132174   3.028   3.858   0.761 -0.6446 -0.4475  0.6959
 3513TIP3    H232175   3.019   3.781   0.631  2.7465 -1.9084  1.2178
 3514TIP3   OH232176   6.612   1.150   2.068  0.2877  0.2007 -0.8983
 3514TIP3    H132177   6.625   1.077   2.127  0.3985  2.9253  2.7939
 3514TIP3    H232178   6.531   1.129   2.021 -0.2680 -1.7827  0.8131
 3515TIP3   OH232179   4.047   3.108   0.603  0.1674 -0.2405  0.6885
 3515TIP3    H132180   3.987   3.113   0.529 -0.4550 -0.2555  1.1809
 3515TIP3    H232181   4.130   3.143   0.570 -0.1226 -0.1814  0.0137
 3516TIP3   OH232182   4.545   2.648   2.162 -0.7309  0.0248  0.2035
 3516TIP3    H132183   4.524   2.606   2.079  2.0265  1.6346 -1.4553
 3516TIP3    H232184   4.501   2.733   2.159 -1.5018 -0.3344  0.9108
 3517TIP3   OH232185   2.992   2.935   1.767 -0.0755 -0.3652  0.4295
 3517TIP3    H132186   3.000   2.855   1.717  0.2291 -0.4335  0.5851
 3517TIP3    H232187   3.080   2.973   1.766 -0.2504  0.0432  0.2298
 3518TIP3   OH232188   5.658   1.196   3.458 -0.0384  0.0770 -0.1933
 3518TIP3    H132189   5.629   1.105   3.460  0.9857 -0.2635 -0.2832
 3518TIP3    H232190   5.638   1.230   3.545  1.3691 -0.8264  0.5065
 3519TIP3   OH232191   6.406   1.665   1.950  0.5921 -0.2039 -0.0153
 3519TIP3    H132192   6.470   1.604   1.986  0.7230 -0.7657 -1.1583
 3519TIP3    H232193   6.359   1.614   1.884 -0.6203  0.3800  0.3639
 3520TIP3   OH232194   5.087   2.559   2.931 -0.3321 -0.6916  0.2115
 3520TIP3    H132195   5.007   2.510   2.952 -1.4710  0.7706 -0.5105
 3520TIP3    H232196   5.065   2.650   2.952 -0.1372  0.2872 -3.2326
 3521TIP3   OH232197   1.484   4.739   8.832  0.7691 -0.1748 -0.1234
 3521TIP3    H132198   1.562   4.793   8.844  0.2565  1.1565 -2.2630
 3521TIP3    H232199   1.507   4.678   8.762 -0.4756  1.1022 -1.7137
 3522TIP3   OH232200   0.849   5.497   0.981  0.1054  0.1826 -0.2630
 3522TIP3    H132201   0.869   5.474   0.890  0.3238  0.3962 -0.2674
 3522TIP3    H232202   0.774   5.440   1.003  0.3998 -0.2657 -0.3973
 3523TIP3   OH232203   4.736   1.697   2.961 -0.2095 -0.1580 -0.7027
 3523TIP3    H132204   4.642   1.713   2.973 -0.4968 -0.9260 -1.8240
 3523TIP3    H232205   4.773   1.710   3.048 -1.4305 -0.3642 -0.1266
 3524TIP3   OH232206   4.739   2.562   2.669  0.4245  0.2283 -0.4407
 3524TIP3    H132207   4.757   2.502   2.597  1.6371  0.8759 -0.7003
 3524TIP3    H232208   4.788   2.641   2.647 -2.0203  1.7665 -0.6835
 3525TIP3   OH232209   2.918   2.588   4.180  0.0655 -0.1807  0.0364
 3525TIP3    H132210   2.884   2.650   4.116  0.0834 -1.3909 -1.1971
 3525TIP3    H232211   3.001   2.626   4.208 -0.6710  1.1290  0.5311
 3526TIP3   OH232212   0.505   0.628   1.765  0.2622 -0.0444  0.2032
 3526TIP3    H132213   0.493   0.582   1.848  0.3469 -0.6479 -0.1138
 3526TIP3    H232214   0.423   0.675   1.750  0.0157 -0.4425  0.3167
 3527TIP3   OH232215   0.731   5.072   0.554  0.1501  0.5619 -0.3309
 3527TIP3    H132216   0.704   4.985   0.584 -0.8076  0.3574 -1.6557
 3527TIP3    H232217   0.799   5.054   0.489  0.0852  0.8013 -0.4657
 3528TIP3   OH232218   1.247   4.103   1.044 -0.2345 -0.5928 -0.0506
 3528TIP3    H132219   1.280   4.020   1.080 -0.5358 -0.8744 -0.4179
 3528TIP3    H232220   1.325   4.149   1.014  0.1131 -0.0492  1.5555
 3529TIP3   OH232221   4.627   3.127   8.726 -0.0627 -0.2166 -0.4313
 3529TIP3    H132222   4.659   3.170   8.647 -0.3897 -0.0271 -0.4643
 3529TIP3    H232223   4.636   3.033   8.709 -0.6365 -0.1879 -0.9107
 3530TIP3   OH232224   1.593   1.082   0.541 -0.3614 -0.1665 -0.2738
 3530TIP3    H132225   1.594   1.068   0.636 -0.3596 -0.6718 -0.3484
 3530TIP3    H232226   1.625   1.172   0.530  2.8226 -1.1461  0.0168
 3531TIP3   OH232227   2.924   1.394   2.909  0.7651 -0.2560  0.0110
 3531TIP3    H132228   2.857   1.350   2.857  1.3520 -0.7783 -0.3197
 3531TIP3    H232229   2.909   1.363   2.998  1.9423 -2.1853 -0.3876
 3532TIP3   OH232230   3.942   5.950   0.001  0.1887  0.0414 -0.4413
 3532TIP3    H132231   3.907   6.033   0.033 -0.7818 -1.0514  1.5405
 3532TIP3    H232232   4.029   5.944   0.040 -0.4000 -0.5800  0.8844
 3533TIP3   OH232233   3.504   0.562   0.811 -0.2576  1.2240  0.4438
 3533TIP3    H132234   3.597   0.584   0.803 -0.2100  0.4542 -1.7565
 3533TIP3    H232235   3.503   0.477   0.856  0.0896  1.2174  0.4378
 3534TIP3   OH232236   4.602   2.420   2.900 -0.5294  0.1285  0.3844
 3534TIP3    H132237   4.697   2.427   2.911 -0.1701 -3.0402  0.3833
 3534TIP3    H232238   4.568   2.409   2.989 -1.0777  2.1515  0.4735
 3535TIP3   OH232239   4.146   6.153   0.634 -0.3436  0.0384  0.1698
 3535TIP3    H132240   4.107   6.222   0.579  0.0794 -0.7118 -1.1160
 3535TIP3    H232241   4.084   6.141   0.705 -1.4586  0.2788 -0.7408
 3536TIP3   OH232242   0.321   6.700   0.761  0.3808  0.7858 -0.3297
 3536TIP3    H132243   0.351   6.791   0.763 -1.1244  1.2900 -0.1036
 3536TIP3    H232244   0.346   6.670   0.673 -0.0269  1.7387 -0.7883
 3537TIP3   OH232245   0.817   4.513   0.094 -0.2361  0.0764  0.4622
 3537TIP3    H132246   0.753   4.444   0.075 -0.0799 -0.1653  0.7883
 3537TIP3    H232247   0.889   4.496   0.034  0.3039 -0.7501  1.3072
 3538TIP3   OH232248   6.072   5.192   4.141 -0.3328  0.2188  0.4059
 3538TIP3    H132249   6.021   5.194   4.061 -0.2773 -1.6455  0.3004
 3538TIP3    H232250   6.027   5.253   4.200 -0.9079  0.8861 -0.7005
 3539TIP3   OH232251   6.750   4.792   1.450 -0.7836 -0.0370  0.2030
 3539TIP3    H132252   6.797   4.713   1.477 -2.3772 -1.3121 -0.5173
 3539TIP3    H232253   6.798   4.823   1.373  0.4702  0.3280  1.1076
 3540TIP3   OH232254   3.844   2.234   3.339 -0.7448 -0.0086  0.4277
 3540TIP3    H132255   3.877   2.209   3.252  0.8630  0.8218  0.7464
 3540TIP3    H232256   3.922   2.234   3.394 -1.9281 -1.7432  2.2021
 3541TIP3   OH232257   4.928   5.874   1.442  0.3664  0.4742 -0.3124
 3541TIP3    H132258   5.023   5.861   1.447  0.0882 -1.3154  1.8765
 3541TIP3    H232259   4.908   5.866   1.349  2.0522 -2.1814 -0.5615
 3542TIP3   OH232260   3.284   1.737   1.972  0.0692 -0.7124  0.1217
 3542TIP3    H132261   3.354   1.737   2.038  1.3867  1.1797 -1.1443
 3542TIP3    H232262   3.307   1.666   1.913 -0.1825 -1.3398  0.7669
 3543TIP3   OH232263   3.842   2.327   8.327 -0.1811 -0.5818  0.4391
 3543TIP3    H132264   3.794   2.379   8.391 -0.0213 -0.1889  0.2440
 3543TIP3    H232265   3.782   2.320   8.253  0.7463  1.5826 -0.6140
 3544TIP3   OH232266   6.267   6.325   1.724  0.1137  0.5948  0.1426
 3544TIP3    H132267   6.199   6.279   1.773 -0.1205  1.8685  1.0638
 3544TIP3    H232268   6.344   6.323   1.780  0.1361  1.2098  0.1397
 3545TIP3   OH232269   3.518   4.274   3.117 -0.0242 -0.1512 -0.0640
 3545TIP3    H132270   3.599   4.270   3.167 -1.0947 -0.5740  1.7459
 3545TIP3    H232271   3.520   4.196   3.061  0.5124 -0.5000  0.4368
 3546TIP3   OH232272   2.610   6.335   0.898  0.4732  0.5921  0.4117
 3546TIP3    H132273   2.617   6.273   0.970  0.0693  0.3655  0.2621
 3546TIP3    H232274   2.699   6.341   0.862  0.5240  0.1261  0.4492
 3547TIP3   OH232275   4.965   6.032   1.041  0.5841 -0.6326  0.1131
 3547TIP3    H132276   5.057   6.033   1.017  0.7513 -0.4135  0.7451
 3547TIP3    H232277   4.952   5.947   1.084  0.0812 -1.4033 -1.4810
 3548TIP3   OH232278   3.568   6.171   3.293 -0.3644  0.0514  0.0321
 3548TIP3    H132279   3.505   6.102   3.311  0.8964 -1.1113  0.2166
 3548TIP3    H232280   3.590   6.159   3.200 -1.0862  1.0351 -0.2730
 3549TIP3   OH232281   0.019   4.192   0.072  0.4847  0.1366  0.1965
 3549TIP3    H132282  -0.033   4.135   0.016  0.5594 -1.3234  1.5527
 3549TIP3    H232283   0.093   4.218   0.018 -0.3906  0.2613 -0.9623
 3550TIP3   OH232284   1.047   6.336   0.010 -0.0195  0.2595  0.5035
 3550TIP3    H132285   0.978   6.390  -0.029  0.9097  0.1516 -1.4279
 3550TIP3    H232286   1.042   6.253  -0.039 -0.8230 -1.1380  2.7773
 3551TIP3   OH232287   6.117   0.821   0.379 -0.2351  0.0321 -0.1169
 3551TIP3    H132288   6.088   0.779   0.460 -1.3776  2.2797  0.7209
 3551TIP3    H232289   6.213   0.815   0.381 -0.1669  1.1923  2.0780
 3552TIP3   OH232290   6.288   5.418   3.012  0.1313  0.2282 -0.3035
 3552TIP3    H132291   6.288   5.383   3.101 -1.1035 -1.5249 -0.9243
 3552TIP3    H232292   6.381   5.429   2.990  0.4665 -0.0251  0.9295
 3553TIP3   OH232293   6.128   0.613   3.086  0.4960 -0.1738  0.4355
 3553TIP3    H132294   6.182   0.693   3.092  0.8539 -0.4985  1.9669
 3553TIP3    H232295   6.055   0.638   3.030  2.0409  0.3780 -1.4762
 3554TIP3   OH232296   3.185   2.067   4.017  0.0399 -0.2147  0.2568
 3554TIP3    H132297   3.160   1.986   4.062  1.0369 -0.2200  0.8392
 3554TIP3    H232298   3.261   2.099   4.066 -2.2169  2.8392  2.0991
 3555TIP3   OH232299   5.599   5.033   0.854 -0.2075 -0.6576  0.6280
 3555TIP3    H132300   5.552   5.116   0.861  0.6382  0.0640 -1.4178
 3555TIP3    H232301   5.674   5.043   0.913  1.8933  1.5968 -2.1274
 3556TIP3   OH232302   2.173   1.015   2.735  0.0567  0.2468  0.1261
 3556TIP3    H132303   2.080   1.009   2.712  0.1792 -0.4836 -0.2213
 3556TIP3    H232304   2.183   1.100   2.776 -1.0977 -0.3364  1.6887
 3557TIP3   OH232305   5.363   3.004   2.375 -0.2505 -0.4185  0.2535
 3557TIP3    H132306   5.337   2.932   2.317 -2.0655 -1.1135  1.8332
 3557TIP3    H232307   5.283   3.055   2.387 -0.0956 -0.6453  2.5950
 3558TIP3   OH232308   0.108   3.281   0.986 -0.0339  0.2902  0.2018
 3558TIP3    H132309   0.109   3.360   0.932 -1.4156  1.7411  2.1897
 3558TIP3    H232310   0.184   3.291   1.044 -0.8740  0.7866  1.2478
 3559TIP3   OH232311   6.484   6.119   3.925  0.6073 -0.1108 -0.5284
 3559TIP3    H132312   6.543   6.154   3.858  0.9202 -0.0542 -0.2256
 3559TIP3    H232313   6.536   6.121   4.006  1.0531 -2.3078 -0.6839
 3560TIP3   OH232314   6.308   2.684   2.115  0.6209  0.0389 -0.2191
 3560TIP3    H132315   6.233   2.629   2.095 -0.6299  2.0701 -1.4443
 3560TIP3    H232316   6.290   2.719   2.202  0.4906 -0.0365 -0.2165
 3561TIP3   OH232317   6.182   2.279   1.873  0.0636 -0.4033 -0.3580
 3561TIP3    H132318   6.109   2.221   1.895  1.8053 -2.9556 -0.8340
 3561TIP3    H232319   6.198   2.263   1.780  3.5371 -2.9203  0.4822
 3562TIP3   OH232320   6.049   4.894   1.264  0.1119  0.1033 -0.0524
 3562TIP3    H132321   6.042   4.960   1.195  0.0280  0.3057  0.1491
 3562TIP3    H232322   6.084   4.941   1.340  1.3050 -0.3668 -0.2953
 3563TIP3   OH232323   2.663   4.524   1.569  0.2040 -0.2325  0.2061
 3563TIP3    H132324   2.586   4.474   1.595 -0.7838  0.1435 -1.8223
 3563TIP3    H232325   2.628   4.602   1.527  1.6728 -0.2751 -1.1937
 3564TIP3   OH232326   3.645   0.921   1.484  0.8488  0.5075 -0.1274
 3564TIP3    H132327   3.597   0.964   1.413 -0.7538 -1.6804 -0.4886
 3564TIP3    H232328   3.710   0.867   1.440  1.5333  1.0394  0.2145
 3565TIP3   OH232329   4.959   3.914   1.783 -0.1114 -0.8538 -0.1222
 3565TIP3    H132330   4.954   3.946   1.693  0.4799  1.4017  0.5662
 3565TIP3    H232331   5.043   3.868   1.788 -0.4376 -1.5462 -0.8599
 3566TIP3   OH232332   5.713   4.382   0.942 -0.1581  0.1671 -0.6549
 3566TIP3    H132333   5.672   4.408   1.025 -0.1376 -1.8308  0.0467
 3566TIP3    H232334   5.717   4.462   0.891  2.1339  2.0909  2.2050
 3567TIP3   OH232335   2.585   5.025   3.191  0.2502 -0.4741 -0.0452
 3567TIP3    H132336   2.618   5.015   3.102 -1.7518 -1.8264 -0.7083
 3567TIP3    H232337   2.589   4.937   3.228  2.0651  0.2365  1.6486
 3568TIP3   OH232338   2.042   2.917   8.598  0.1397  0.2184  0.3929
 3568TIP3    H132339   2.057   2.982   8.530  1.6713 -0.5441 -0.0446
 3568TIP3    H232340   1.987   2.962   8.663  0.8591  1.8296 -0.0555
 3569TIP3   OH232341   6.673   6.754   3.867  0.1782  0.2917  0.2439
 3569TIP3    H132342   6.724   6.762   3.948 -0.2624 -1.9416  0.8196
 3569TIP3    H232343   6.602   6.694   3.889  0.6187 -1.2001 -2.0238
 3570TIP3   OH232344   0.134   2.138   2.004 -0.6420 -0.2593 -0.6364
 3570TIP3    H132345   0.188   2.062   2.025  1.3134  1.0064 -0.7191
 3570TIP3    H232346   0.055   2.128   2.057 -0.0279 -1.8771  0.0246
 3571TIP3   OH232347   2.934   4.117   2.331  0.2108 -0.2441 -0.2184
 3571TIP3    H132348   2.962   4.026   2.331  0.7997 -0.0713 -0.8840
 3571TIP3    H232349   2.972   4.154   2.251  0.8675  0.8472  0.5703
 3572TIP3   OH232350   3.519   6.573   2.988  0.3069 -0.0402  0.2661
 3572TIP3    H132351   3.598   6.519   2.985  2.2850  2.5288  1.8215
 3572TIP3    H232352   3.453   6.518   3.030  1.8479 -1.6254  0.7227
 3573TIP3   OH232353   5.737   1.486   1.298 -0.0728 -0.3860 -0.2544
 3573TIP3    H132354   5.680   1.445   1.363  0.8564 -0.7571  0.3592
 3573TIP3    H232355   5.825   1.472   1.332  0.4242 -0.3500 -1.4685
 3574TIP3   OH232356   1.703   2.970   2.340 -0.3407 -0.0257 -0.3114
 3574TIP3    H132357   1.676   3.036   2.276  0.8327  0.1818 -0.6258
 3574TIP3    H232358   1.792   2.946   2.313 -0.1401 -0.5440  0.7603
 3575TIP3   OH232359   1.387   4.345   8.294  0.1303 -0.3094  0.2695
 3575TIP3    H132360   1.469   4.353   8.245  0.2871 -2.7055  0.0214
 3575TIP3    H232361   1.414   4.317   8.382 -0.3368  0.7073  0.7448
 3576TIP3   OH232362   2.657   4.751   3.204  0.7608  0.4534  0.1476
 3576TIP3    H132363   2.740   4.736   3.249  0.8719  0.6115  0.0009
 3576TIP3    H232364   2.682   4.759   3.111  0.4181 -0.8560 -0.0730
 3577TIP3   OH232365   0.659   0.530   3.677 -0.1301  0.4174 -0.0013
 3577TIP3    H132366   0.738   0.584   3.670  0.5997 -0.5737  0.2867
 3577TIP3    H232367   0.634   0.535   3.769  1.2291 -1.4402  0.5246
 3578TIP3   OH232368   5.625   4.479   2.354 -0.7269 -0.1299  0.3240
 3578TIP3    H132369   5.597   4.408   2.411 -1.8275 -0.4858 -0.6184
 3578TIP3    H232370   5.637   4.437   2.268 -0.6928  0.6780 -0.0780
 3579TIP3   OH232371   5.752   5.545   3.332  0.4013  0.3183  0.1610
 3579TIP3    H132372   5.795   5.515   3.252  2.2413  1.0372  0.8178
 3579TIP3    H232373   5.720   5.465   3.374 -0.1342 -0.1102 -1.0123
 3580TIP3   OH232374   1.783   4.767   4.317 -0.4710 -0.5252 -0.2751
 3580TIP3    H132375   1.768   4.860   4.304 -0.9335 -0.3627  1.2453
 3580TIP3    H232376   1.768   4.728   4.231 -0.0854  0.8039 -0.9774
 3581TIP3   OH232377   4.725   1.074   1.630 -0.3970 -0.1965 -0.1705
 3581TIP3    H132378   4.721   0.995   1.577 -0.9824 -0.5345  0.3715
 3581TIP3    H232379   4.794   1.056   1.694  1.7215  0.9474 -1.9437
 3582TIP3   OH232380   0.962   4.774   1.982 -0.2508 -0.2595 -0.1133
 3582TIP3    H132381   0.990   4.687   1.952  2.1079  0.4858 -0.3135
 3582TIP3    H232382   0.934   4.819   1.903  0.3770 -0.2301 -0.3290
 3583TIP3   OH232383   0.839   0.349   0.172 -0.9394  0.1018 -0.2309
 3583TIP3    H132384   0.770   0.407   0.139  0.7355  1.9694 -0.6622
 3583TIP3    H232385   0.860   0.292   0.098 -1.2385  0.3025 -0.4713
 3584TIP3   OH232386   3.153   4.148   3.570  0.3118 -0.0425  0.4185
 3584TIP3    H132387   3.103   4.098   3.634  0.6817 -0.7195  0.1937
 3584TIP3    H232388   3.108   4.232   3.563 -1.5354 -1.0617 -0.6975
 3585TIP3   OH232389   6.616   1.540   8.545  0.0464 -0.3891 -0.2721
 3585TIP3    H132390   6.635   1.608   8.610  0.5934 -0.0609 -0.7698
 3585TIP3    H232391   6.690   1.479   8.553 -1.8230 -2.5884  2.2657
 3586TIP3   OH232392   1.693   6.189   0.018  0.1534  0.4433 -0.3708
 3586TIP3    H132393   1.781   6.153   0.009  0.3217  0.9015 -0.6150
 3586TIP3    H232394   1.665   6.206  -0.072  1.0212  3.1162 -0.2201
 3587TIP3   OH232395   2.151   2.369   3.413 -0.2077  0.1030  0.0092
 3587TIP3    H132396   2.086   2.308   3.379  0.2797  0.0351 -0.8406
 3587TIP3    H232397   2.214   2.314   3.460 -0.4231  0.0970  0.2922
 3588TIP3   OH232398   4.998   1.077   0.106 -0.1640  0.2346 -0.2067
 3588TIP3    H132399   4.906   1.090   0.084  0.1913  0.4313 -1.7030
 3588TIP3    H232400   4.998   1.054   0.199 -1.7657 -0.3260 -0.3160
 3589TIP3   OH232401   3.210   5.667   1.495 -0.0283  0.1331  0.2458
 3589TIP3    H132402   3.182   5.578   1.519 -3.8923  0.9024 -0.6940
 3589TIP3    H232403   3.240   5.705   1.578 -0.5315 -1.3233  1.1376
 3590TIP3   OH232404   3.882   0.838   1.229 -0.1289  0.0962  0.1813
 3590TIP3    H132405   3.941   0.770   1.199 -1.0446 -0.3964 -0.5669
 3590TIP3    H232406   3.938   0.900   1.277  0.8113 -0.8431  0.3280
 3591TIP3   OH232407   1.829   1.562   8.729  0.5041 -0.3190 -0.2998
 3591TIP3    H132408   1.825   1.609   8.646 -0.5611 -0.3668 -0.2846
 3591TIP3    H232409   1.794   1.623   8.794  0.3425 -0.6568 -0.0626
 3592TIP3   OH232410   0.985   1.138   8.641  0.4605 -0.2936  0.7377
 3592TIP3    H132411   0.894   1.113   8.623  0.6798 -0.3277 -0.3811
 3592TIP3    H232412   1.038   1.076   8.590  1.1235 -0.3415  1.4610
 3593TIP3   OH232413   4.012   4.624   1.070  0.5364 -0.4875 -0.5305
 3593TIP3    H132414   3.948   4.588   1.008 -1.6697  0.3813  1.0986
 3593TIP3    H232415   4.044   4.703   1.028 -0.8763  0.0591 -0.6474
 3594TIP3   OH232416   4.345   2.068   0.541 -0.1486  0.4178 -0.1735
 3594TIP3    H132417   4.273   2.018   0.502 -2.9208  1.1298  3.4092
 3594TIP3    H232418   4.328   2.159   0.515 -0.5534  0.5727  0.5898
 3595TIP3   OH232419   0.735   1.067   1.050 -0.3978 -0.2412  0.0650
 3595TIP3    H132420   0.709   1.139   1.107 -2.1840 -1.3744  0.7721
 3595TIP3    H232421   0.827   1.050   1.072 -0.5149  0.5574  1.2551
 3596TIP3   OH232422   6.314   0.365   0.067 -0.6286 -0.1456 -0.4116
 3596TIP3    H132423   6.403   0.396   0.086 -1.5490  2.1577  0.6098
 3596TIP3    H232424   6.286   0.323   0.148 -0.3705 -1.1969 -0.8552
 3597TIP3   OH232425   3.534   1.447   2.537  0.1047 -0.5032  0.3436
 3597TIP3    H132426   3.561   1.413   2.452  1.6421 -1.1687  1.0456
 3597TIP3    H232427   3.533   1.542   2.526 -0.5547 -0.6173 -0.6389
 3598TIP3   OH232428   3.731   6.093   3.991  0.2017  0.2841  0.3053
 3598TIP3    H132429   3.737   6.002   4.019 -1.8183 -0.3582 -1.1150
 3598TIP3    H232430   3.796   6.139   4.045  2.2660 -2.1804  0.0920
 3599TIP3   OH232431   4.949   1.648   1.359  0.2690  0.4042 -0.5909
 3599TIP3    H132432   4.955   1.654   1.264 -0.0471  1.4848 -0.5496
 3599TIP3    H232433   4.859   1.676   1.379  0.5320  0.7981  0.0680
 3600TIP3   OH232434   4.822   5.193   1.587  0.0317  0.1533  0.6576
 3600TIP3    H132435   4.824   5.115   1.643  0.3941 -1.2164 -1.1644
 3600TIP3    H232436   4.771   5.166   1.510  1.7883  1.0809 -0.9038
 3601TIP3   OH232437   2.861   0.873   1.103 -0.2078 -0.3365 -0.4607
 3601TIP3    H132438   2.938   0.824   1.075  0.3330  0.0367  0.3167
 3601TIP3    H232439   2.791   0.844   1.045  0.2340 -1.5868 -0.3955
 3602TIP3   OH232440   4.532   1.541   2.096 -0.0497 -0.6363  0.2605
 3602TIP3    H132441   4.449   1.579   2.067  0.2544  2.6972  3.1085
 3602TIP3    H232442   4.599   1.589   2.048  0.2803 -0.1515  1.1802
 3603TIP3   OH232443   6.176   4.964   0.013 -0.0807  0.0795 -0.3072
 3603TIP3    H132444   6.212   4.954  -0.075  1.5296  0.1941  0.3007
 3603TIP3    H232445   6.251   4.948   0.071 -1.1167 -0.0201  1.0406
 3604TIP3   OH232446   3.403   3.367   1.011  0.1499 -0.1097  0.5183
 3604TIP3    H132447   3.369   3.437   1.068  0.3814  0.7479 -0.3577
 3604TIP3    H232448   3.452   3.310   1.070  0.3907  0.7602  1.1850
 3605TIP3   OH232449   6.501   1.477   2.969 -0.2224  0.1578  0.1007
 3605TIP3    H132450   6.488   1.444   2.880  0.3003  0.0535  0.0614
 3605TIP3    H232451   6.579   1.432   3.000 -1.2361 -0.9237  1.1612
 3606TIP3   OH232452   0.943   3.612   8.532 -0.1660 -0.5267  0.1800
 3606TIP3    H132453   0.914   3.522   8.516 -0.8699 -0.4477  0.9623
 3606TIP3    H232454   0.880   3.646   8.595 -0.0362  0.5942 -0.2775
 3607TIP3   OH232455   3.680   0.306   1.034  0.0005 -0.0721  0.1072
 3607TIP3    H132456   3.738   0.231   1.048  1.4150  1.1484  1.1398
 3607TIP3    H232457   3.708   0.341   0.949 -0.0202 -0.1568  0.0647
 3608TIP3   OH232458   5.387   2.272   8.137  0.4834  0.3650 -0.3212
 3608TIP3    H132459   5.385   2.176   8.129  1.1969  0.3780 -0.6734
 3608TIP3    H232460   5.330   2.290   8.212  1.8923 -0.4773  1.0077
 3609TIP3   OH232461   5.725   6.519   0.011 -0.1254 -0.1797 -0.4573
 3609TIP3    H132462   5.655   6.567  -0.034 -0.3037 -0.9862 -1.0609
 3609TIP3    H232463   5.719   6.548   0.102 -2.5516 -1.6810 -0.0600
 3610TIP3   OH232464   1.581   6.558   8.759 -0.2999  0.3245 -0.2021
 3610TIP3    H132465   1.500   6.520   8.794  0.5728 -1.7764 -0.3354
 3610TIP3    H232466   1.570   6.653   8.771 -3.0804  0.1762 -0.8991
 3611TIP3   OH232467   1.364   1.034   3.812  0.4762 -0.3835 -0.3139
 3611TIP3    H132468   1.341   0.943   3.827 -0.5563 -0.1086 -0.1648
 3611TIP3    H232469   1.348   1.077   3.897  0.6248 -0.0010 -0.4749
 3612TIP3   OH232470   2.776   3.995   3.510  0.0459 -0.2657 -0.4382
 3612TIP3    H132471   2.766   3.922   3.571  0.2220  2.2492  2.9531
 3612TIP3    H232472   2.815   4.065   3.564  2.6554  1.4734 -4.1280
 3613TIP3   OH232473   6.477   1.269   0.805  0.4677 -0.5375 -0.3204
 3613TIP3    H132474   6.523   1.277   0.889  2.0075 -1.6199 -1.0158
 3613TIP3    H232475   6.400   1.325   0.815  0.8966 -0.2105  1.6122
 3614TIP3   OH232476   1.667   5.236   3.371 -0.2896 -0.5338  0.1869
 3614TIP3    H132477   1.718   5.156   3.382  1.0021  0.1814 -0.4121
 3614TIP3    H232478   1.583   5.207   3.337 -0.1670 -1.7041  0.8388
 3615TIP3   OH232479   6.157   0.202   0.592  0.7943  0.0937  0.3235
 3615TIP3    H132480   6.115   0.122   0.624 -0.3193  0.4792 -0.1335
 3615TIP3    H232481   6.127   0.270   0.652  2.0733  0.1267  0.9678
 3616TIP3   OH232482   5.336   3.576   3.791  0.3714 -0.3316 -0.4138
 3616TIP3    H132483   5.261   3.616   3.834 -0.2969  0.5354 -2.3100
 3616TIP3    H232484   5.409   3.591   3.852 -0.7437 -0.1965  0.9369
 3617TIP3   OH232485   1.629   2.529   3.888 -0.7017 -0.0665  0.2018
 3617TIP3    H132486   1.587   2.462   3.942 -0.5894  0.9841  1.6570
 3617TIP3    H232487   1.701   2.561   3.942  0.2568  0.1262 -1.1287
 3618TIP3   OH232488   5.077   4.756   4.095  0.1196 -0.1425 -0.4288
 3618TIP3    H132489   5.043   4.697   4.163  1.3106 -1.4464 -0.9185
 3618TIP3    H232490   5.063   4.844   4.130  1.6693 -0.7712  2.0360
 3619TIP3   OH232491   4.157   0.969   3.547 -0.4820 -0.3599  0.1535
 3619TIP3    H132492   4.205   0.975   3.630 -0.4087 -0.5868  0.1277
 3619TIP3    H232493   4.172   0.879   3.518  1.3067  0.3165 -1.1905
 3620TIP3   OH232494   4.594   0.145   1.433 -0.6482 -0.0392 -0.1756
 3620TIP3    H132495   4.509   0.129   1.474 -0.9209 -2.2866 -1.4144
 3620TIP3    H232496   4.655   0.090   1.483 -0.0210  1.1021  0.3349
 3621TIP3   OH232497   0.117   4.613   1.488  0.6062 -0.1693  0.2377
 3621TIP3    H132498   0.117   4.579   1.577  2.7909  0.3672  0.4802
 3621TIP3    H232499   0.180   4.559   1.441  0.3203  0.2861 -0.7049
 3622TIP3   OH232500   4.790   0.031   3.657  0.4299  0.3783  0.2994
 3622TIP3    H132501   4.759   0.121   3.653  0.1861  0.3775  1.7075
 3622TIP3    H232502   4.867   0.035   3.714  0.4457 -0.3050  0.3327
 3623TIP3   OH232503   6.177   5.524   1.089 -0.1709 -0.5317  0.5553
 3623TIP3    H132504   6.157   5.434   1.061  1.9878 -0.2814 -2.1645
 3623TIP3    H232505   6.169   5.576   1.010 -1.5493  1.8110  2.1043
 3624TIP3   OH232506   2.719   1.184   3.872 -0.4554 -0.3249  0.0286
 3624TIP3    H132507   2.769   1.124   3.928 -0.1679 -1.4969 -1.4105
 3624TIP3    H232508   2.713   1.265   3.923  0.9839 -0.8802  1.1647
 3625TIP3   OH232509   2.569   6.721   3.220  0.1278  0.2340 -0.0015
 3625TIP3    H132510   2.578   6.626   3.232  0.8366  0.2396 -0.4051
 3625TIP3    H232511   2.538   6.731   3.130 -0.4395  0.3697  0.2061
 3626TIP3   OH232512   2.196   3.425   8.680  0.5594 -0.4375  0.1594
 3626TIP3    H132513   2.186   3.492   8.612 -0.8793  0.7315  1.4351
 3626TIP3    H232514   2.254   3.360   8.641  0.7884  0.7939 -1.7103
 3627TIP3   OH232515   1.521   5.828   8.660 -0.2408  0.4939  0.1801
 3627TIP3    H132516   1.468   5.907   8.657 -0.0923  0.6060  0.4529
 3627TIP3    H232517   1.499   5.781   8.580 -0.5417  0.6747  0.1546
 3628TIP3   OH232518   4.122   5.324   8.321 -0.4769 -0.1044  0.1188
 3628TIP3    H132519   4.027   5.340   8.315 -0.1979  2.7748  1.5491
 3628TIP3    H232520   4.144   5.278   8.240 -3.0105 -0.5226 -0.4236
 3629TIP3   OH232521   2.029   4.805   0.129  0.1505  0.1887 -0.5837
 3629TIP3    H132522   2.057   4.806   0.038  1.5321 -0.0853 -0.1949
 3629TIP3    H232523   2.033   4.897   0.157 -0.0988  0.2497 -0.7502
 3630TIP3   OH232524   4.064   5.250   2.976  0.3074 -0.4735 -0.1634
 3630TIP3    H132525   4.036   5.288   2.893 -1.1264 -0.2867  0.3864
 3630TIP3    H232526   3.984   5.240   3.027  1.1351 -0.7274  1.1506
 3631TIP3   OH232527   3.461   5.121   2.682 -0.0815  0.6118 -0.2119
 3631TIP3    H132528   3.387   5.176   2.706 -0.4856  0.7405 -1.6167
 3631TIP3    H232529   3.532   5.182   2.663  0.0945  0.5366  0.1917
 3632TIP3   OH232530   5.847   4.238   0.120  0.4148  0.1605  0.1809
 3632TIP3    H132531   5.912   4.276   0.180 -0.9468  2.2599  0.4388
 3632TIP3    H232532   5.809   4.313   0.075 -1.6900 -0.9811 -0.0949
 3633TIP3   OH232533   5.871   4.047   2.642  0.5159  0.1071  0.2021
 3633TIP3    H132534   5.934   4.036   2.713  1.1569  0.5280 -0.3018
 3633TIP3    H232535   5.881   4.138   2.614 -0.1563  0.1143 -0.0319
 3634TIP3   OH232536   3.609   2.437   3.089  0.2584  0.3448 -0.4178
 3634TIP3    H132537   3.664   2.436   3.167 -0.0205  1.1538 -0.1993
 3634TIP3    H232538   3.523   2.467   3.120  0.1625  0.7446 -1.0383
 3635TIP3   OH232539   5.589   2.059   2.338  0.0135 -0.0450  0.0706
 3635TIP3    H132540   5.542   1.976   2.350  0.8886 -0.4438  0.9613
 3635TIP3    H232541   5.538   2.107   2.273 -2.1981 -0.0135  1.7049
 3636TIP3   OH232542   0.286   2.729   1.664 -0.2617  0.1041 -0.3833
 3636TIP3    H132543   0.314   2.795   1.601 -0.0846  1.6863  1.2647
 3636TIP3    H232544   0.191   2.740   1.668 -0.2249  0.2953 -0.0592
 3637TIP3   OH232545   4.637   3.919   0.762 -0.2623 -0.0165 -0.1586
 3637TIP3    H132546   4.666   3.840   0.807  0.5176 -0.3557 -1.2077
 3637TIP3    H232547   4.651   3.989   0.825 -1.0486 -0.7111  0.8264
 3638TIP3   OH232548   5.499   5.930   2.011  0.1202  0.1783 -0.1423
 3638TIP3    H132549   5.588   5.897   1.998  0.0848  0.2634 -0.6191
 3638TIP3    H232550   5.494   5.950   2.104 -0.5780 -3.2797  0.6938
 3639TIP3   OH232551   5.103   2.362   0.444  0.2782  0.2844  0.7910
 3639TIP3    H132552   5.149   2.282   0.466  0.4264  0.0371 -0.3687
 3639TIP3    H232553   5.098   2.362   0.348 -1.2960  0.7704  0.8464
 3640TIP3   OH232554   6.605   1.990   0.405 -0.1092  0.6249 -0.3438
 3640TIP3    H132555   6.544   2.058   0.434 -0.8919  0.3090 -1.2113
 3640TIP3    H232556   6.640   1.954   0.487  0.1873  1.9264  0.1399
 3641TIP3   OH232557   5.351   3.976   3.305 -0.1405 -0.0868 -0.2104
 3641TIP3    H132558   5.358   4.070   3.315 -1.8084  0.2135 -1.3257
 3641TIP3    H232559   5.440   3.946   3.285  0.5669  1.0928  1.0552
 3642TIP3   OH232560   6.398   4.485   2.965  0.1234 -0.1594 -0.1423
 3642TIP3    H132561   6.471   4.545   2.979  1.0252 -0.9295 -1.3398
 3642TIP3    H232562   6.363   4.508   2.879 -1.5379  0.6610  0.7036
 3643TIP3   OH232563   1.756   2.589   1.639 -0.0318 -0.2214  0.0400
 3643TIP3    H132564   1.789   2.541   1.715  0.9797 -0.1766 -0.3538
 3643TIP3    H232565   1.662   2.570   1.637 -0.2251  0.3770  1.7271
 3644TIP3   OH232566   4.298   4.803   1.252  0.2081  0.5803  0.6385
 3644TIP3    H132567   4.338   4.756   1.178  1.1541  0.2626  1.3405
 3644TIP3    H232568   4.211   4.764   1.260 -0.0539  0.8791 -0.5477
 3645TIP3   OH232569   3.670   1.095   1.846 -0.1026  0.4330 -0.2776
 3645TIP3    H132570   3.584   1.056   1.830 -0.2540 -0.3232  2.0674
 3645TIP3    H232571   3.732   1.028   1.818 -0.2517  0.7436 -1.4121
 3646TIP3   OH232572   2.758   1.717   3.320  0.0316  0.1901  0.4422
 3646TIP3    H132573   2.851   1.707   3.301 -0.2548  0.3094 -1.1921
 3646TIP3    H232574   2.716   1.716   3.234 -1.4788  0.1639  1.1465
 3647TIP3   OH232575   4.158   0.333   2.116 -0.3050 -0.2391 -0.4915
 3647TIP3    H132576   4.189   0.330   2.206 -2.0236  0.9328  0.1795
 3647TIP3    H232577   4.233   0.367   2.067  1.2376 -2.4857  0.1449
 3648TIP3   OH232578   4.249   2.819   1.335  0.5663  0.1256 -0.1131
 3648TIP3    H132579   4.327   2.874   1.332  0.7553 -0.0237  1.3671
 3648TIP3    H232580   4.217   2.827   1.425  0.0868 -1.4811 -0.1051
 3649TIP3   OH232581   4.107   1.417   2.654  0.1938  0.4252  0.0334
 3649TIP3    H132582   4.167   1.443   2.723  1.7998 -1.2168 -0.6496
 3649TIP3    H232583   4.146   1.454   2.574 -1.9533  2.8233 -0.0186
 3650TIP3   OH232584   1.373   1.867   8.197  0.4498  0.1608 -0.1476
 3650TIP3    H132585   1.416   1.819   8.268 -0.4538  1.8665  1.6234
 3650TIP3    H232586   1.429   1.942   8.181  0.7320 -0.2940 -1.3967
 3651TIP3   OH232587   0.003   1.346   0.291 -0.1251  0.0391 -0.2815
 3651TIP3    H132588  -0.068   1.408   0.275 -0.6118 -0.1524  1.0220
 3651TIP3    H232589   0.064   1.394   0.349 -0.8566 -0.8974  1.3231
 3652TIP3   OH232590   5.420   4.698   0.878  0.1562 -0.4828 -0.4072
 3652TIP3    H132591   5.381   4.778   0.913  3.0733  0.7785  0.2941
 3652TIP3    H232592   5.425   4.712   0.784 -0.5177 -0.3939 -0.4284
 3653TIP3   OH232593   2.334   5.574   8.586  0.5169 -0.2575  0.4884
 3653TIP3    H132594   2.339   5.669   8.603  0.1910 -0.0561 -0.4993
 3653TIP3    H232595   2.422   5.542   8.606  1.1697  0.5602 -0.9065
 3654TIP3   OH232596   5.685   3.488   2.818 -0.0411 -0.3174 -0.6977
 3654TIP3    H132597   5.698   3.514   2.726 -2.4623 -1.1197 -1.3344
 3654TIP3    H232598   5.637   3.405   2.813 -1.1560  0.1490  1.2774
 3655TIP3   OH232599   5.446   6.719   0.887  0.0221  0.0729 -0.4358
 3655TIP3    H132600   5.364   6.693   0.929  1.5882  0.2654  3.1038
 3655TIP3    H232601   5.514   6.682   0.943  2.3930  0.5873 -2.7956
 3656TIP3   OH232602   6.811   6.442   0.892  0.7565 -0.2390  0.2731
 3656TIP3    H132603   6.822   6.536   0.882 -2.7689  0.1991 -0.8366
 3656TIP3    H232604   6.893   6.404   0.860  2.6706  2.3976  1.6964
 3657TIP3   OH232605   6.303   4.274   2.118  0.4491  0.0068 -0.2568
 3657TIP3    H132606   6.340   4.260   2.031 -1.1233 -1.2650 -0.7726
 3657TIP3    H232607   6.231   4.335   2.104  0.4309  0.0995  0.2261
 3658TIP3   OH232608   6.453   5.945   3.490 -0.3156 -0.4996 -0.4067
 3658TIP3    H132609   6.484   5.887   3.559 -0.1717  0.3093  0.2266
 3658TIP3    H232610   6.527   6.003   3.472  0.2954 -1.8017 -2.5210
 3659TIP3   OH232611   0.156   6.519   3.393  0.2784 -0.1789  0.0350
 3659TIP3    H132612   0.153   6.463   3.470  0.3292  0.8639  0.8267
 3659TIP3    H232613   0.069   6.512   3.354  0.1093 -0.3802  0.4415
 3660TIP3   OH232614   2.271   5.651   8.228  0.6777  0.0392  0.0361
 3660TIP3    H132615   2.331   5.697   8.170 -0.1568  0.3736 -0.5987
 3660TIP3    H232616   2.288   5.559   8.212  2.0424  0.1149  0.9686
 3661TIP3   OH232617   3.444   5.551   3.429 -0.5772 -0.5115  0.1360
 3661TIP3    H132618   3.359   5.593   3.414 -0.4961 -1.0127 -1.9108
 3661TIP3    H232619   3.423   5.469   3.473 -1.2354 -1.0124 -1.0880
 3662TIP3   OH232620   2.314   5.101   3.108 -0.4123  0.1625  0.1902
 3662TIP3    H132621   2.395   5.105   3.157  0.3565 -0.6302 -0.9602
 3662TIP3    H232622   2.325   5.165   3.037 -0.1375 -0.9685 -0.8404
 3663TIP3   OH232623   6.315   2.467   1.334  0.1287 -0.4567 -0.2917
 3663TIP3    H132624   6.307   2.450   1.240  0.3931  1.0732 -0.6084
 3663TIP3    H232625   6.365   2.392   1.367  0.5653 -0.7116 -1.4836
 3664TIP3   OH232626   0.844   3.735   3.763 -0.0121  0.6148 -0.1000
 3664TIP3    H132627   0.756   3.772   3.755 -0.3230  0.0549  0.5903
 3664TIP3    H232628   0.838   3.649   3.723 -0.1984 -0.0475  1.2951
 3665TIP3   OH232629   2.379   4.502   2.222  0.3808  0.0588 -0.5564
 3665TIP3    H132630   2.345   4.505   2.133 -0.9223  2.0760 -0.0711
 3665TIP3    H232631   2.448   4.569   2.223  1.0261 -0.5988 -0.2676
 3666TIP3   OH232632   2.942   5.021   2.480 -0.1236  0.0987  0.2358
 3666TIP3    H132633   2.859   5.063   2.504 -0.1757  0.9078 -1.2360
 3666TIP3    H232634   2.987   5.007   2.564 -1.2566  0.6816  0.9663
 3667TIP3   OH232635   5.087   0.148   3.632 -0.6568  0.0973  0.1172
 3667TIP3    H132636   5.101   0.057   3.657  1.5652 -0.1525 -1.6898
 3667TIP3    H232637   5.152   0.197   3.682  0.4804  0.1908 -1.3622
 3668TIP3   OH232638   4.352   2.815   3.305  0.4421  0.1548  0.3775
 3668TIP3    H132639   4.366   2.824   3.399  0.5576 -0.6633  0.4495
 3668TIP3    H232640   4.324   2.901   3.276  0.4918  0.4359  1.1480
 3669TIP3   OH232641   0.588   6.733   1.981 -0.4767  0.2920  0.4834
 3669TIP3    H132642   0.584   6.654   2.035 -0.1519 -1.5872 -2.0286
 3669TIP3    H232643   0.508   6.731   1.930  0.1938  0.7942 -0.6200
 3670TIP3   OH232644   6.739   0.344   2.249 -0.2238 -0.3688  0.4264
 3670TIP3    H132645   6.646   0.367   2.263 -1.0723 -2.4503 -1.2648
 3670TIP3    H232646   6.773   0.416   2.196 -1.1244 -0.0044  0.3223
 3671TIP3   OH232647   0.630   0.339   2.490 -0.5933  0.2110 -0.1648
 3671TIP3    H132648   0.698   0.282   2.454 -2.1663 -3.0807  1.5997
 3671TIP3    H232649   0.669   0.378   2.567 -0.1195 -0.1698 -0.2057
 3672TIP3   OH232650   6.527   0.813   8.232 -0.9516 -0.0659  0.1446
 3672TIP3    H132651   6.509   0.738   8.176 -2.0847  0.2839  0.0138
 3672TIP3    H232652   6.544   0.885   8.172  0.4709 -0.2778  0.2692
 3673TIP3   OH232653   0.020   0.920   2.120 -0.0414 -0.1671 -0.1373
 3673TIP3    H132654  -0.035   0.873   2.182 -2.2009  0.6462 -1.3251
 3673TIP3    H232655   0.004   0.877   2.036 -0.0782  1.0503 -0.7843
 3674TIP3   OH232656   2.282   1.060   0.505  0.0310  0.2180  0.6444
 3674TIP3    H132657   2.338   1.121   0.456  1.6895 -1.1591  0.7033
 3674TIP3    H232658   2.252   0.998   0.438 -0.2602  0.1345  0.8547
 3675TIP3   OH232659   4.710   3.131   2.659 -0.5378  0.4334  0.2818
 3675TIP3    H132660   4.634   3.073   2.655 -0.1935  0.0504 -2.1548
 3675TIP3    H232661   4.772   3.094   2.596  1.2354  1.3735  1.3908
 3676TIP3   OH232662   1.994   0.389   3.357  0.4096 -0.3858  0.1932
 3676TIP3    H132663   1.918   0.369   3.411 -0.2021 -0.7405 -0.7783
 3676TIP3    H232664   1.960   0.445   3.287  1.2737  0.4385  0.4076
 3677TIP3   OH232665   5.448   5.297   3.279  0.0497  0.7042  0.8045
 3677TIP3    H132666   5.353   5.300   3.267  0.1176  3.0921  0.3386
 3677TIP3    H232667   5.463   5.217   3.329 -1.6338 -2.6001 -3.3346
 3678TIP3   OH232668   5.949   5.909   0.453 -0.4523 -0.1349  0.0393
 3678TIP3    H132669   5.909   5.922   0.539 -0.6965 -0.9734  0.0661
 3678TIP3    H232670   5.940   5.993   0.409 -0.8308  0.1407  0.6313
 3679TIP3   OH232671   0.175   0.493   8.128  0.5656  0.2464  0.0173
 3679TIP3    H132672   0.140   0.473   8.215  2.7673  1.9593  1.4239
 3679TIP3    H232673   0.102   0.535   8.082 -0.5305 -0.3385  1.1466
 3680TIP3   OH232674   3.683   2.737   0.498 -0.1403  0.7037  0.2153
 3680TIP3    H132675   3.717   2.776   0.578  0.3368 -0.1543  0.4387
 3680TIP3    H232676   3.750   2.674   0.471 -0.5170  0.6358 -0.5898
 3681TIP3   OH232677   4.364   5.944   0.867 -0.3817 -0.0555 -0.3016
 3681TIP3    H132678   4.315   5.915   0.944 -1.1814 -0.8102 -1.0674
 3681TIP3    H232679   4.455   5.940   0.894 -0.2632 -4.4154 -0.5643
 3682TIP3   OH232680   1.183   4.222   0.485 -0.3836  0.2349 -1.0052
 3682TIP3    H132681   1.181   4.238   0.579  1.3405  0.7164 -1.0169
 3682TIP3    H232682   1.177   4.309   0.446  0.8409  0.2144 -1.2731
 3683TIP3   OH232683   2.971   0.168   3.275  0.2377  0.4127  0.3316
 3683TIP3    H132684   2.882   0.139   3.293  0.6391 -0.9490  0.2941
 3683TIP3    H232685   3.009   0.185   3.361 -0.5084  2.5930  0.2976
 3684TIP3   OH232686   0.502   3.737   3.232 -0.2713 -0.0020  0.5437
 3684TIP3    H132687   0.481   3.829   3.217 -0.0255 -0.1423 -0.7987
 3684TIP3    H232688   0.532   3.705   3.147 -0.0182 -1.2376  1.0728
 3685TIP3   OH232689   2.245   5.013   0.425 -0.4183 -0.0691  0.3794
 3685TIP3    H132690   2.196   4.978   0.499 -1.1660  2.0529  0.9690
 3685TIP3    H232691   2.184   5.008   0.352 -0.1466 -0.9096  0.1909
 3686TIP3   OH232692   3.256   2.902   3.689 -0.1954 -0.1967 -0.1047
 3686TIP3    H132693   3.339   2.905   3.737 -1.0458  2.6803  1.4091
 3686TIP3    H232694   3.189   2.912   3.757 -1.6352  0.3256 -1.5536
 3687TIP3   OH232695   5.196   6.323   1.036 -0.0579  0.2333  0.1334
 3687TIP3    H132696   5.285   6.356   1.044  0.6403 -1.5157 -0.0789
 3687TIP3    H232697   5.172   6.339   0.945  0.0443  0.6492  0.1754
 3688TIP3   OH232698   3.945   4.213   1.990  0.7382  0.3764  0.6846
 3688TIP3    H132699   3.973   4.298   1.957  0.5547  0.5417  0.9534
 3688TIP3    H232700   3.963   4.216   2.083 -0.2108  0.5067  0.8806
 3689TIP3   OH232701   4.205   3.020   2.063  0.6536  0.3646  0.2339
 3689TIP3    H132702   4.151   3.095   2.037  1.8972  0.5589 -2.1021
 3689TIP3    H232703   4.192   2.956   1.994 -0.0760 -1.4839  1.9993
 3690TIP3   OH232704   5.979   1.423   1.401 -0.2558  0.2660 -0.5782
 3690TIP3    H132705   5.949   1.351   1.457 -0.3542  0.9781  0.3202
 3690TIP3    H232706   6.028   1.481   1.460  0.4824  0.5514 -1.4417
 3691TIP3   OH232707   3.263   0.130   2.944  0.2947 -0.1884  0.1876
 3691TIP3    H132708   3.302   0.053   2.902 -1.0623 -0.3167 -0.9324
 3691TIP3    H232709   3.264   0.198   2.877 -3.7066 -0.9630 -0.9651
 3692TIP3   OH232710   1.226   5.955   1.966  0.6277 -0.1490  0.6378
 3692TIP3    H132711   1.274   6.038   1.967  0.8628 -0.2866  1.3811
 3692TIP3    H232712   1.167   5.960   2.041 -0.8762  0.2050 -0.5235
 3693TIP3   OH232713   2.937   0.758   0.324 -0.0160  0.2161  0.2734
 3693TIP3    H132714   2.988   0.838   0.311 -0.3370  0.3778 -0.0125
 3693TIP3    H232715   2.858   0.787   0.370 -0.7694  0.2901 -1.0254
 3694TIP3   OH232716   5.825   6.284   0.153 -0.6487 -0.4430  0.7307
 3694TIP3    H132717   5.796   6.359   0.100 -0.7905 -0.1727  1.1776
 3694TIP3    H232718   5.812   6.313   0.243  0.6764 -0.4675  0.9415
 3695TIP3   OH232719   0.293   2.811   0.213  0.2755  0.5650  0.3344
 3695TIP3    H132720   0.267   2.888   0.164 -2.4090  0.7029  1.7769
 3695TIP3    H232721   0.288   2.739   0.149 -2.0485  0.8980  0.0506
 3696TIP3   OH232722   4.095   0.438   1.771  0.1670 -1.2248  0.2311
 3696TIP3    H132723   4.122   0.506   1.832  0.4273 -1.2955  0.1973
 3696TIP3    H232724   4.000   0.447   1.765  0.2118 -0.7879  0.1367
 3697TIP3   OH232725   0.784   2.832   8.642  0.4643 -0.0084 -0.7270
 3697TIP3    H132726   0.810   2.841   8.550 -0.3304  1.9461 -0.7956
 3697TIP3    H232727   0.691   2.853   8.642 -0.0299 -1.9486  0.2635
 3698TIP3   OH232728   6.325   5.748   3.363 -0.4282  0.0780  0.1220
 3698TIP3    H132729   6.396   5.689   3.339 -0.8457 -0.3231 -0.1266
 3698TIP3    H232730   6.362   5.804   3.432 -0.4380 -1.3414  1.3251
 3699TIP3   OH232731   4.057   2.494   0.336  0.2414  0.3932 -0.3576
 3699TIP3    H132732   3.987   2.529   0.281  1.0816  2.4754 -0.1613
 3699TIP3    H232733   4.135   2.543   0.310  1.0888 -0.0211  1.2823
 3700TIP3   OH232734   3.059   2.792   8.775  0.0286  0.0510  0.0745
 3700TIP3    H132735   3.091   2.705   8.797  0.6865  0.7040  1.8335
 3700TIP3    H232736   2.982   2.776   8.721  0.7296 -1.5962 -0.5017
 3701TIP3   OH232737   1.968   5.402   3.512  0.5047 -0.5392  0.1084
 3701TIP3    H132738   1.958   5.402   3.607  1.1403  0.3624  0.1954
 3701TIP3    H232739   1.882   5.427   3.479  0.6465  0.5948  0.5259
 3702TIP3   OH232740   0.458   5.865   2.319 -0.3783  0.1026 -0.8834
 3702TIP3    H132741   0.417   5.798   2.263  1.0402 -0.6238 -1.1009
 3702TIP3    H232742   0.439   5.836   2.408  1.3218 -1.3772 -0.9440
 3703TIP3   OH232743   4.490   4.852   0.252  0.0544  0.3840 -0.4858
 3703TIP3    H132744   4.543   4.916   0.300 -0.1123  0.4090 -0.3360
 3703TIP3    H232745   4.461   4.789   0.319 -0.9038  0.9057 -0.3970
 3704TIP3   OH232746   3.305   6.463   0.104 -0.2002  0.2312 -0.4398
 3704TIP3    H132747   3.210   6.474   0.098 -0.0494  1.5536 -0.5331
 3704TIP3    H232748   3.336   6.539   0.153  0.6818 -0.8709  0.8100
 3705TIP3   OH232749   2.033   6.472   0.764  0.3133  0.5373 -0.0715
 3705TIP3    H132750   2.091   6.519   0.825 -0.0418 -0.9326  1.4763
 3705TIP3    H232751   2.068   6.383   0.761 -0.6324  0.1703 -0.7778
 3706TIP3   OH232752   2.561   3.800   2.899 -0.0847  0.4867 -0.5527
 3706TIP3    H132753   2.616   3.878   2.908  0.4311  0.2666 -1.6260
 3706TIP3    H232754   2.472   3.834   2.889 -0.1063  0.8622  0.7091
 3707TIP3   OH232755   6.266   0.263   3.078  0.6812  0.0758  0.8449
 3707TIP3    H132756   6.272   0.259   2.983  1.1877  1.0327  0.8243
 3707TIP3    H232757   6.323   0.336   3.103 -0.2054  0.4708  1.8000
 3708TIP3   OH232758   6.036   0.740   3.394  0.0414  0.2524 -0.0678
 3708TIP3    H132759   6.121   0.781   3.406 -0.1842  0.4986  0.7692
 3708TIP3    H232760   6.057   0.650   3.366  0.5695  0.3476  0.0068
 3709TIP3   OH232761   2.498   6.484   1.553  0.0436 -0.3697 -0.8065
 3709TIP3    H132762   2.529   6.574   1.562  0.7201 -0.5416 -1.3462
 3709TIP3    H232763   2.498   6.450   1.643 -1.9015  0.6838 -0.3499
 3710TIP3   OH232764   6.608   0.203   4.172  0.2516 -0.4027 -0.1750
 3710TIP3    H132765   6.678   0.140   4.155 -0.0013 -0.6331 -0.3643
 3710TIP3    H232766   6.570   0.220   4.085  1.4673  1.3634 -0.4285
 3711TIP3   OH232767   0.571   6.188   7.965  0.7969 -0.2177 -0.6900
 3711TIP3    H132768   0.616   6.129   8.027  0.6969  0.6468  0.2236
 3711TIP3    H232769   0.478   6.170   7.979  0.7809 -1.9742 -2.5494
 3712TIP3   OH232770   6.629   5.112   1.901  0.3227  0.0008 -0.0782
 3712TIP3    H132771   6.596   5.159   1.978 -1.5546 -2.1521  0.5218
 3712TIP3    H232772   6.665   5.031   1.936 -0.4578 -0.9600 -1.4364
 3713TIP3   OH232773   2.890   2.800   2.882 -0.1446 -0.1632 -0.6239
 3713TIP3    H132774   2.859   2.739   2.950  0.3394 -0.3043 -0.5249
 3713TIP3    H232775   2.868   2.757   2.800 -0.0309 -0.3591 -0.5536
 3714TIP3   OH232776   6.570   3.428   0.065  0.3321  0.3769  0.0048
 3714TIP3    H132777   6.635   3.447   0.132  0.4942  0.5096 -0.1894
 3714TIP3    H232778   6.538   3.340   0.087  3.5271 -1.5653 -2.1943
 3715TIP3   OH232779   0.848   6.219   0.882  0.0580 -0.3666  0.1287
 3715TIP3    H132780   0.872   6.254   0.968  0.3690  0.1911 -0.1842
 3715TIP3    H232781   0.752   6.226   0.879  0.1474  0.9825 -0.1447
 3716TIP3   OH232782   2.214   4.300   3.858 -0.8888  0.0271  0.1292
 3716TIP3    H132783   2.180   4.259   3.778 -2.6085 -0.5822  1.1171
 3716TIP3    H232784   2.288   4.246   3.884  0.7763  1.1653 -1.8820
 3717TIP3   OH232785   0.156   2.463   2.803 -0.4018 -0.6634 -0.0354
 3717TIP3    H132786   0.093   2.412   2.854 -1.7380  0.0808 -0.8808
 3717TIP3    H232787   0.178   2.405   2.729 -1.8730 -0.1030 -0.9624
 3718TIP3   OH232788   4.542   2.203   0.335 -0.0748  0.2593 -0.0352
 3718TIP3    H132789   4.519   2.290   0.368  1.9189  0.6880  0.3889
 3718TIP3    H232790   4.497   2.196   0.251 -0.3390  1.6765 -0.0323
 3719TIP3   OH232791   3.131   4.816   0.999 -0.5922 -0.2042 -0.2296
 3719TIP3    H132792   3.074   4.768   0.940 -1.1973 -1.0886  1.0239
 3719TIP3    H232793   3.198   4.752   1.025 -0.9694 -0.1828  0.8706
 3720TIP3   OH232794   2.602   1.787   3.762 -0.5321 -0.5156 -0.0257
 3720TIP3    H132795   2.524   1.835   3.791  0.2252  0.5152  0.3797
 3720TIP3    H232796   2.614   1.814   3.671  0.0266  0.2703  0.2716
 3721TIP3   OH232797   2.101   6.555   3.304  0.1657  0.0791 -0.5066
 3721TIP3    H132798   2.090   6.513   3.389  3.1438 -0.4923 -0.3163
 3721TIP3    H232799   2.133   6.643   3.324  2.4375 -0.5906 -0.9949
 3722TIP3   OH232800   1.940   5.787   0.551  1.3207 -0.3650 -0.0455
 3722TIP3    H132801   2.009   5.810   0.489  1.1899 -0.5928 -0.2757
 3722TIP3    H232802   1.963   5.835   0.631  0.1770  1.8584 -0.9840
 3723TIP3   OH232803   5.163   3.933   2.735  0.2576  0.2224  0.0612
 3723TIP3    H132804   5.192   4.023   2.723 -1.1752  0.5171 -1.5358
 3723TIP3    H232805   5.218   3.882   2.676  1.1174  0.0180  1.0182
 3724TIP3   OH232806   3.198   0.890   1.384  0.8556 -0.0036  0.1162
 3724TIP3    H132807   3.275   0.891   1.441  0.3948  0.8946  0.7572
 3724TIP3    H232808   3.177   0.797   1.374  1.4864 -0.2156  0.6606
 3725TIP3   OH232809   5.186   4.754   1.545  0.0202 -0.2826  0.1252
 3725TIP3    H132810   5.181   4.737   1.639 -1.4006  2.3800  0.6455
 3725TIP3    H232811   5.113   4.704   1.508 -0.4734  0.0135  0.6894
 3726TIP3   OH232812   3.690   5.407   0.170 -0.2603  0.6225  0.2888
 3726TIP3    H132813   3.781   5.400   0.141 -0.1892  0.2610  0.5989
 3726TIP3    H232814   3.652   5.321   0.153 -0.7352  0.9693 -0.4646
 3727TIP3   OH232815   6.625   0.089   2.190  0.0547 -0.5521 -0.6200
 3727TIP3    H132816   6.675   0.150   2.243  1.5914 -2.1235 -0.1620
 3727TIP3    H232817   6.556   0.056   2.248 -0.2186  0.0543 -0.5974
 3728TIP3   OH232818   2.201   3.739   0.994  0.2269  0.1102 -0.0832
 3728TIP3    H132819   2.130   3.734   1.058 -0.2232  1.9565 -0.3757
 3728TIP3    H232820   2.276   3.700   1.039 -0.2695  0.6922  1.2989
 3729TIP3   OH232821   5.236   4.078   3.567  0.1286  0.3722  0.2323
 3729TIP3    H132822   5.178   4.107   3.638  1.7792 -1.4245  2.4821
 3729TIP3    H232823   5.320   4.119   3.586  0.6958 -0.4147 -0.4912
 3730TIP3   OH232824   4.796   3.468   0.698  0.0620  0.4704 -0.1744
 3730TIP3    H132825   4.828   3.501   0.614  0.8629 -1.2757 -0.5950
 3730TIP3    H232826   4.868   3.485   0.759  1.3046 -2.0818 -0.7991
 3731TIP3   OH232827   0.583   0.055   0.174  0.2259  0.1085  0.1137
 3731TIP3    H132828   0.608  -0.029   0.135 -0.1686  0.7336 -1.5658
 3731TIP3    H232829   0.648   0.070   0.243  1.1158 -0.9354 -0.4708
 3732TIP3   OH232830   4.040   3.566   0.829 -0.0713 -0.2332 -0.0161
 3732TIP3    H132831   3.990   3.524   0.899  1.2199 -0.0382  1.0636
 3732TIP3    H232832   4.078   3.493   0.780 -0.4687 -0.3676 -0.1239
 3733TIP3   OH232833   5.064   3.337   2.300  0.3501  0.2310 -0.3277
 3733TIP3    H132834   5.059   3.301   2.389  1.4227  0.7783 -0.0177
 3733TIP3    H232835   5.016   3.420   2.305 -1.2081 -0.6063 -0.7685
 3734TIP3   OH232836   1.409   1.371   0.670 -0.3852 -0.2205  0.2467
 3734TIP3    H132837   1.380   1.280   0.655 -1.4746  0.1154  0.2365
 3734TIP3    H232838   1.348   1.424   0.619  0.4202  0.5109  0.0267
 3735TIP3   OH232839   3.097   2.800   3.499  0.1623 -0.6058 -0.7774
 3735TIP3    H132840   3.011   2.808   3.540 -0.3131  1.4787 -2.0547
 3735TIP3    H232841   3.158   2.838   3.563  0.2840 -2.5447  0.3492
 3736TIP3   OH232842   3.173   4.520   3.145  1.0142  0.2028 -0.1677
 3736TIP3    H132843   3.183   4.580   3.071  1.2305  0.2341 -0.1156
 3736TIP3    H232844   3.199   4.435   3.111  2.0294  0.3807  0.1127
 3737TIP3   OH232845   2.672   1.098   1.260  0.1903  0.1466 -0.0517
 3737TIP3    H132846   2.716   1.090   1.344  2.0165  1.0665 -0.8623
 3737TIP3    H232847   2.742   1.091   1.195 -1.0402  0.3943 -1.4650
 3738TIP3   OH232848   0.645   5.757   2.682  0.5344  0.4208  0.1289
 3738TIP3    H132849   0.568   5.739   2.736 -0.8679  2.7863 -0.9101
 3738TIP3    H232850   0.646   5.687   2.617 -0.2172 -0.1451  0.7113
 3739TIP3   OH232851   2.819   3.314   8.213 -0.1552  0.1191  0.5338
 3739TIP3    H132852   2.782   3.384   8.159  1.2376  0.7931  0.4028
 3739TIP3    H232853   2.809   3.345   8.303  1.1392  0.8883  0.4476
 3740TIP3   OH232854   4.776   4.091   0.965 -0.6182  0.4262 -0.2967
 3740TIP3    H132855   4.846   4.087   0.899 -1.3734 -0.7175 -1.0613
 3740TIP3    H232856   4.791   4.015   1.021 -1.6077 -0.2174 -0.8678
 3741TIP3   OH232857   5.116   6.097   2.339 -0.7141  0.0342  0.4626
 3741TIP3    H132858   5.202   6.129   2.365 -0.2705  1.5162 -2.5026
 3741TIP3    H232859   5.132   6.009   2.305 -0.5884 -0.1463  0.9757
 3742TIP3   OH232860   3.814   0.121   2.792 -0.1093  0.2515  0.7913
 3742TIP3    H132861   3.766   0.071   2.859 -0.2507 -1.9764 -0.8577
 3742TIP3    H232862   3.747   0.147   2.729  0.4945 -1.2589 -0.5564
 3743TIP3   OH232863   2.847   6.216   1.295  0.7599  0.4236 -0.8509
 3743TIP3    H132864   2.819   6.239   1.384 -1.5066 -0.9302 -1.1206
 3743TIP3    H232865   2.918   6.153   1.307  0.2744  0.0254  0.0186
 3744TIP3   OH232866   1.571   5.825   1.509  0.0898  0.1417 -1.0309
 3744TIP3    H132867   1.559   5.838   1.604 -0.2736 -1.0159 -0.9102
 3744TIP3    H232868   1.511   5.888   1.469  1.0227  1.4089 -0.5304
 3745TIP3   OH232869   0.293   4.027   0.140  0.0165 -0.0850  0.5022
 3745TIP3    H132870   0.199   4.039   0.157 -0.1826 -0.8870  0.0384
 3745TIP3    H232871   0.335   4.057   0.220 -0.8068 -2.1962  1.8303
 3746TIP3   OH232872   0.778   6.449   8.739  0.5706 -0.6920 -0.2728
 3746TIP3    H132873   0.791   6.536   8.778 -1.1571 -0.2419 -0.5819
 3746TIP3    H232874   0.821   6.454   8.654 -2.2686  1.1276 -1.7966
 3747TIP3   OH232875   6.598   0.564   1.425  0.2325 -0.1556  0.3810
 3747TIP3    H132876   6.588   0.571   1.330 -1.6320 -0.5554  0.5089
 3747TIP3    H232877   6.681   0.517   1.437  1.1818  1.0887 -0.9790
 3748TIP3   OH232878   3.751   0.103   4.295  0.1060  0.1022 -0.1739
 3748TIP3    H132879   3.704   0.033   4.248  1.6867 -1.3336  0.2824
 3748TIP3    H232880   3.841   0.098   4.261  0.8601  0.2048  1.6935
 3749TIP3   OH232881   0.883   3.886   1.799 -0.1753 -0.0950 -0.1622
 3749TIP3    H132882   0.923   3.824   1.738  0.7655 -0.5492  0.8699
 3749TIP3    H232883   0.800   3.910   1.758 -1.7969 -3.8896  0.4587
 3750TIP3   OH232884   2.132   2.506   0.423 -0.5999  0.0098  0.1997
 3750TIP3    H132885   2.155   2.575   0.485 -1.7223  0.0089  0.6528
 3750TIP3    H232886   2.145   2.424   0.471  0.7799 -0.1258 -0.3539
 3751TIP3   OH232887   0.463   2.591   2.689 -0.0867  0.6408 -1.4682
 3751TIP3    H132888   0.427   2.598   2.601 -0.3164  0.1256 -1.4181
 3751TIP3    H232889   0.397   2.632   2.745 -0.3853  0.1204 -1.4309
 3752TIP3   OH232890   5.218   5.932   1.618  0.1592  0.4422  0.6500
 3752TIP3    H132891   5.212   6.016   1.573  2.0044  0.3164  0.0721
 3752TIP3    H232892   5.243   5.955   1.707 -0.1049  0.5404  0.6993
 3753TIP3   OH232893   0.483   3.198   0.150  0.6015 -0.3860  0.1177
 3753TIP3    H132894   0.395   3.162   0.140  0.2324  0.5500 -0.0868
 3753TIP3    H232895   0.519   3.151   0.225  0.8423 -2.5104 -1.2241
 3754TIP3   OH232896   4.483   6.461   3.365 -0.3119 -0.2995 -0.6269
 3754TIP3    H132897   4.459   6.421   3.449 -0.0767 -0.8798 -0.8340
 3754TIP3    H232898   4.439   6.546   3.366 -0.4029 -0.3478  0.0376
 3755TIP3   OH232899   4.683   0.823   0.919 -0.4298 -0.1260 -0.3016
 3755TIP3    H132900   4.769   0.852   0.950 -0.7511 -1.1873  1.7708
 3755TIP3    H232901   4.625   0.896   0.939 -0.0389  0.6446 -1.8199
 3756TIP3   OH232902   2.584   2.201   2.612  0.0088 -0.0986 -0.7386
 3756TIP3    H132903   2.523   2.269   2.585  0.0175 -0.1080 -0.7830
 3756TIP3    H232904   2.662   2.217   2.559  0.5249  0.6985  0.2402
 3757TIP3   OH232905   4.004   0.966   3.123  0.0151 -0.1823 -0.6280
 3757TIP3    H132906   4.041   0.995   3.040 -3.3848  2.5218 -1.4436
 3757TIP3    H232907   4.018   1.040   3.183 -2.0611  0.1240 -0.4252
 3758TIP3   OH232908   1.114   4.486   2.363  0.0681  0.5040  0.1073
 3758TIP3    H132909   1.033   4.535   2.345 -0.8092 -1.0416 -0.2832
 3758TIP3    H232910   1.103   4.454   2.453 -0.3890 -0.8472 -0.4084
 3759TIP3   OH232911   3.826   6.267   1.459 -0.1267  0.6245  0.4975
 3759TIP3    H132912   3.803   6.359   1.447  1.5110  0.9555 -0.3801
 3759TIP3    H232913   3.808   6.250   1.551 -2.1797  1.2799  0.2804
 3760TIP3   OH232914   1.193   5.484   3.883  0.1244  0.1977  0.7823
 3760TIP3    H132915   1.215   5.391   3.886  0.9138  0.2630 -1.2190
 3760TIP3    H232916   1.272   5.527   3.851 -1.0324  1.1855 -0.9621
 3761TIP3   OH232917   5.651   0.506   2.409  0.4803 -0.3493 -0.4697
 3761TIP3    H132918   5.639   0.588   2.361  3.1721 -0.3359 -1.2973
 3761TIP3    H232919   5.584   0.508   2.477 -0.2652  1.9880 -1.1676
 3762TIP3   OH232920   4.395   5.740   2.695  0.6108  0.6524 -1.2196
 3762TIP3    H132921   4.377   5.646   2.702  0.5566  0.6386 -1.5307
 3762TIP3    H232922   4.365   5.764   2.607 -1.2238  1.3567 -0.4679
 3763TIP3   OH232923   3.710   3.049   2.702  0.2332  0.0681  0.0198
 3763TIP3    H132924   3.721   3.095   2.618  1.4256  0.9133  0.6084
 3763TIP3    H232925   3.659   2.971   2.680  0.7285  0.1483 -1.5366
 3764TIP3   OH232926   5.173   2.871   0.524 -0.4842  0.0273  0.0289
 3764TIP3    H132927   5.097   2.833   0.479 -0.1054  0.5779 -1.1270
 3764TIP3    H232928   5.135   2.930   0.590 -1.0711  0.1290 -0.3902
 3765TIP3   OH232929   0.920   4.034   0.972  0.0137  0.1981  0.2465
 3765TIP3    H132930   0.940   3.954   0.924  2.9184  0.8388  0.1617
 3765TIP3    H232931   0.922   4.009   1.064 -0.1574 -0.0456  0.1816
 3766TIP3   OH232932   6.815   5.118   0.990 -0.1244  0.1374  0.2149
 3766TIP3    H132933   6.753   5.174   0.941  0.1523  0.3339  0.0883
 3766TIP3    H232934   6.804   5.146   1.081  2.4894  2.8955 -0.1705
 3767TIP3   OH232935   4.103   5.976   2.513  0.0965  0.8515 -0.0013
 3767TIP3    H132936   4.121   6.062   2.477  0.5832  0.4700 -0.6913
 3767TIP3    H232937   4.169   5.919   2.474  1.9322  0.7208  2.9316
 3768TIP3   OH232938   2.242   0.765   1.513  0.4021  0.3331 -0.0488
 3768TIP3    H132939   2.306   0.777   1.442  0.0723 -0.6966 -0.5360
 3768TIP3    H232940   2.234   0.670   1.523 -2.1518  0.3633 -1.0386
 3769TIP3   OH232941   1.727   6.106   4.091 -0.7355 -0.1692 -0.5469
 3769TIP3    H132942   1.716   6.152   4.174 -1.3214 -1.2350 -0.0157
 3769TIP3    H232943   1.728   6.013   4.114  0.5847 -0.4382 -1.5832
 3770TIP3   OH232944   1.574   2.538   0.065 -0.2567  0.0052 -0.2456
 3770TIP3    H132945   1.561   2.485  -0.013 -3.0490 -1.3508  0.9885
 3770TIP3    H232946   1.585   2.627   0.031 -1.7805 -0.4708 -2.2153
 3771TIP3   OH232947   2.616   0.884   1.656 -0.6961  0.2970 -0.3719
 3771TIP3    H132948   2.652   0.811   1.606 -1.4697 -1.4811  1.5187
 3771TIP3    H232949   2.561   0.931   1.593  1.1553  0.3288 -2.0754
 3772TIP3   OH232950   3.789   4.204   2.385 -0.3305  0.0468  0.3809
 3772TIP3    H132951   3.787   4.245   2.299  1.2958 -0.2430  0.1717
 3772TIP3    H232952   3.789   4.277   2.446  0.2524  0.3078  0.0767
 3773TIP3   OH232953   5.163   2.492   3.746  0.0862  0.0926 -0.2032
 3773TIP3    H132954   5.076   2.492   3.786 -0.2589 -1.9124 -0.8178
 3773TIP3    H232955   5.206   2.570   3.781 -1.5876  0.5635  0.9209
 3774TIP3   OH232956   1.149   3.308   1.202  0.0108  0.1530  0.0416
 3774TIP3    H132957   1.119   3.333   1.290 -0.5832  0.4938 -0.2527
 3774TIP3    H232958   1.106   3.224   1.186 -0.7257  0.5919 -0.3385
 3775TIP3   OH232959   3.948   2.744   1.723 -0.0846  0.2040  0.5216
 3775TIP3    H132960   3.999   2.672   1.685 -0.9421  0.2622 -0.7983
 3775TIP3    H232961   4.005   2.820   1.716  0.6092 -0.2125  1.4010
 3776TIP3   OH232962   6.729   5.153   1.238 -0.3217 -0.2699 -0.1181
 3776TIP3    H132963   6.820   5.145   1.267 -0.4117 -0.2009  0.1864
 3776TIP3    H232964   6.677   5.133   1.316 -0.5675  2.2546  0.4484
 3777TIP3   OH232965   1.558   5.715   1.982  0.2070  0.2478 -0.6848
 3777TIP3    H132966   1.576   5.621   1.974 -0.8036  0.0132 -0.2558
 3777TIP3    H232967   1.577   5.736   2.073 -1.8286 -0.0690 -0.1299
 3778TIP3   OH232968   2.078   0.141   0.806  0.2585  0.5102  0.5159
 3778TIP3    H132969   2.038   0.112   0.888 -0.6322 -0.4803 -0.2412
 3778TIP3    H232970   2.045   0.079   0.740  0.6821  1.4841 -0.6449
 3779TIP3   OH232971   5.263   5.783   0.329  0.0003 -0.4166  0.8432
 3779TIP3    H132972   5.270   5.840   0.405 -0.4987 -1.1348  1.4429
 3779TIP3    H232973   5.353   5.777   0.295 -0.2338  2.4864 -0.5970
 3780TIP3   OH232974   1.300   6.808   2.340 -0.3162  0.4822 -0.0825
 3780TIP3    H132975   1.312   6.713   2.339  1.1211  0.6473 -0.5595
 3780TIP3    H232976   1.235   6.823   2.409  1.2590 -0.6464  1.7452
 3781TIP3   OH232977   2.157   3.166   2.750  0.1138 -0.7148  0.7923
 3781TIP3    H132978   2.209   3.116   2.688 -0.4830  1.2428 -1.4330
 3781TIP3    H232979   2.073   3.121   2.754  1.0165 -2.3771  2.3486
 3782TIP3   OH232980   3.020   4.719   3.818  0.5819 -0.0902  0.4948
 3782TIP3    H132981   2.963   4.776   3.868  1.2681  0.9908  0.0742
 3782TIP3    H232982   3.108   4.753   3.833  0.9539 -0.7077 -0.1883
 3783TIP3   OH232983   1.679   0.025   2.286 -0.2992 -0.2935  0.4401
 3783TIP3    H132984   1.599   0.061   2.249 -0.8378 -0.1790  1.6950
 3783TIP3    H232985   1.663  -0.069   2.292 -1.4413  0.0000  3.2055
 3784TIP3   OH232986   3.745   0.557   4.402 -0.1458  0.1341  0.1346
 3784TIP3    H132987   3.717   0.641   4.365 -0.2488  1.9292  3.8075
 3784TIP3    H232988   3.828   0.576   4.446 -0.4282 -1.5324  1.5152
 3785TIP3   OH232989   3.804   1.459   1.337 -0.1750 -0.2357  0.2896
 3785TIP3    H132990   3.885   1.462   1.389 -0.3901  2.7178  0.6790
 3785TIP3    H232991   3.746   1.402   1.387  0.6195  0.1739  1.7581
 3786TIP3   OH232992   1.809   0.752   0.656  0.0922  0.3883 -0.3242
 3786TIP3    H132993   1.784   0.693   0.585  2.0069 -0.2987 -0.4675
 3786TIP3    H232994   1.868   0.815   0.615 -2.6992  3.2379 -0.4545
 3787TIP3   OH232995   1.317   2.344   2.242 -0.1124  0.2675 -0.4203
 3787TIP3    H132996   1.231   2.386   2.236 -0.5583 -0.5687 -0.1370
 3787TIP3    H232997   1.377   2.404   2.198 -0.9824  0.4772 -1.3484
 3788TIP3   OH232998   1.705   6.130   0.657  0.3565  0.5961 -0.1082
 3788TIP3    H132999   1.764   6.166   0.591  0.4060 -0.9555 -0.9544
 3788TIP3    H233000   1.758   6.125   0.737  0.3103  2.4376  0.0754
 3789TIP3   OH233001   6.656   3.754   2.861 -0.6739  0.0516 -0.4865
 3789TIP3    H133002   6.599   3.824   2.830 -0.6803  0.1744 -0.2054
 3789TIP3    H233003   6.743   3.778   2.829 -0.6547  0.2553 -0.2797
 3790TIP3   OH233004   2.158   1.982   3.298 -0.1858 -0.2513  0.6394
 3790TIP3    H133005   2.100   1.963   3.224 -0.4698 -0.9383  1.0303
 3790TIP3    H233006   2.098   2.007   3.369 -0.0401 -1.2291  1.1249
 3791TIP3   OH233007   3.680   3.363   0.356 -0.4322  0.1764 -0.1673
 3791TIP3    H133008   3.586   3.363   0.374 -0.5898  1.3552 -0.8323
 3791TIP3    H233009   3.691   3.433   0.291  0.7611 -0.6414 -0.8701
 3792TIP3   OH233010   4.656   0.523   0.840 -0.3641  0.1942 -0.3206
 3792TIP3    H133011   4.715   0.549   0.769  0.2575 -1.6202 -0.5323
 3792TIP3    H233012   4.637   0.431   0.822  0.7582 -0.6869  2.5082
 3793TIP3   OH233013   2.155   1.154   4.244 -0.1827  0.2423  0.0383
 3793TIP3    H133014   2.215   1.108   4.186 -0.3451  0.4226 -0.2755
 3793TIP3    H233015   2.179   1.246   4.235  0.8451  0.1492  1.4597
 3794TIP3   OH233016   4.156   4.343   2.386  0.1147 -0.5267  0.1800
 3794TIP3    H133017   4.106   4.275   2.342  1.5193 -1.7486  0.3843
 3794TIP3    H233018   4.124   4.343   2.476 -0.3919 -0.4078 -0.0005
 3795TIP3   OH233019   2.087   4.883   3.802  0.1101 -0.2376  0.5820
 3795TIP3    H133020   2.051   4.837   3.726  2.6884 -0.9706 -0.3026
 3795TIP3    H233021   2.073   4.976   3.781 -0.7814 -0.4670  0.0752
 3796TIP3   OH233022   0.367   0.294   8.486 -0.3545 -0.6446  0.0034
 3796TIP3    H133023   0.376   0.386   8.461 -1.3972 -0.5498 -0.0523
 3796TIP3    H233024   0.424   0.247   8.424  1.0749  0.0343  0.7410
 3797TIP3   OH233025   4.730   0.832   2.760  0.3167 -0.0128 -0.2180
 3797TIP3    H133026   4.732   0.779   2.839  0.3681  1.4146  0.7779
 3797TIP3    H233027   4.695   0.774   2.693 -2.3261 -0.5254  1.4458
 3798TIP3   OH233028   4.759   5.957   2.851 -0.4613 -0.4159  0.3163
 3798TIP3    H133029   4.754   6.039   2.900  1.6547  0.2057 -0.4006
 3798TIP3    H233030   4.755   5.984   2.759  0.4620 -1.0876  0.0705
 3799TIP3   OH233031   6.140   6.372   3.070 -0.4266 -0.5222  0.4652
 3799TIP3    H133032   6.055   6.337   3.043 -1.2413  1.5806  0.1593
 3799TIP3    H233033   6.166   6.316   3.143 -2.0039 -1.3012  0.4821
 3800TIP3   OH233034   6.820   4.774   3.349  0.1434 -0.2713 -0.0240
 3800TIP3    H133035   6.837   4.682   3.327 -0.5949 -0.3185 -0.4446
 3800TIP3    H233036   6.860   4.786   3.435 -0.3744 -1.1972  0.3695
 3801TIP3   OH233037   2.173   6.071   1.788  0.2062  0.0480 -0.3713
 3801TIP3    H133038   2.168   6.120   1.705 -2.5191  2.5960  1.0832
 3801TIP3    H233039   2.258   6.095   1.825  0.0452  1.6279 -0.9478
 3802TIP3   OH233040   4.582   2.744   8.481 -0.5440  0.1837  0.6976
 3802TIP3    H133041   4.504   2.795   8.460 -1.8851 -1.9031  0.3027
 3802TIP3    H233042   4.627   2.733   8.397 -0.0409  1.0029  0.8491
 3803TIP3   OH233043   2.349   2.735   1.883  0.1331  0.2146  0.2727
 3803TIP3    H133044   2.302   2.668   1.833  1.7707 -1.4126  0.8334
 3803TIP3    H233045   2.378   2.797   1.816 -3.0510  1.5460 -0.0656
 3804TIP3   OH233046   6.613   0.508   2.591  0.4969 -0.0137  0.0250
 3804TIP3    H133047   6.686   0.546   2.639  2.3717  2.4856 -4.2348
 3804TIP3    H233048   6.554   0.582   2.575 -0.6957 -1.0290 -0.4233
 3805TIP3   OH233049   1.420   2.483   0.287 -0.4655  0.2390  0.1260
 3805TIP3    H133050   1.490   2.476   0.222  0.3021 -1.1628  1.0414
 3805TIP3    H233051   1.438   2.566   0.332  0.7975 -0.2219  0.5230
 3806TIP3   OH233052   5.582   6.800   0.033 -0.5006  0.5385  1.0007
 3806TIP3    H133053   5.569   6.802   0.128 -1.0549 -1.1500  0.9874
 3806TIP3    H233054   5.515   6.741   0.000  0.4620  0.1203 -0.3112
 3807TIP3   OH233055   3.532   5.210   8.580 -0.0579 -0.0491 -0.3324
 3807TIP3    H133056   3.553   5.274   8.512  0.6167  0.8586  0.6813
 3807TIP3    H233057   3.594   5.138   8.566 -0.5019 -0.2800 -1.1875
 3808TIP3   OH233058   0.117   4.501   0.214  0.2563  0.4158  0.0306
 3808TIP3    H133059   0.186   4.445   0.177  0.1098  0.3863 -0.2010
 3808TIP3    H233060   0.142   4.590   0.188  0.0310  0.3728 -0.3369
 3809TIP3   OH233061   6.616   2.359   1.203 -0.1692  0.1083  0.1668
 3809TIP3    H133062   6.534   2.368   1.153 -0.6867 -1.4193  0.6656
 3809TIP3    H233063   6.636   2.265   1.198  0.6289  0.1888  1.5049
 3810TIP3   OH233064   1.217   3.356   2.462 -0.1085 -0.1699 -0.6079
 3810TIP3    H133065   1.149   3.348   2.394  0.1611 -1.5461 -0.7437
 3810TIP3    H233066   1.174   3.326   2.542  0.0633 -0.1358 -0.5043
 3811TIP3   OH233067   4.643   4.269   2.682 -0.0772 -0.3935 -0.0906
 3811TIP3    H133068   4.647   4.268   2.586  0.0971  0.6047 -0.1115
 3811TIP3    H233069   4.711   4.207   2.709 -0.9763 -1.6410 -0.6072
 3812TIP3   OH233070   0.512   6.719   3.796  0.1341 -0.2460  0.2210
 3812TIP3    H133071   0.522   6.625   3.780 -0.6506 -0.4388  0.8532
 3812TIP3    H233072   0.450   6.726   3.868 -3.5697  0.8488 -2.7668
 3813TIP3   OH233073   2.882   3.896   3.110  0.1971 -0.6793 -0.3015
 3813TIP3    H133074   2.943   3.964   3.138  0.7038 -1.5788  0.8010
 3813TIP3    H233075   2.859   3.849   3.190 -1.6759 -0.5886 -0.7429
 3814TIP3   OH233076   5.363   4.114   0.496  0.7120  0.1775  0.2869
 3814TIP3    H133077   5.350   4.154   0.582 -0.1522 -1.2769  0.8581
 3814TIP3    H233078   5.455   4.131   0.475  1.1826 -0.2119  1.9100
 3815TIP3   OH233079   3.890   0.212   2.484  0.3596 -0.0287 -0.3705
 3815TIP3    H133080   3.929   0.205   2.396  0.5755 -2.3892 -0.1630
 3815TIP3    H233081   3.965   0.220   2.543  0.3087 -0.1065 -0.2948
 3816TIP3   OH233082   3.692   3.662   0.892 -0.5523  0.0920  0.0594
 3816TIP3    H133083   3.693   3.689   0.800  1.5670  0.7515  0.2254
 3816TIP3    H233084   3.606   3.690   0.923 -0.6396  1.4694 -1.2815
 3817TIP3   OH233085   2.684   2.112   2.856  0.4120 -0.5827 -0.2775
 3817TIP3    H133086   2.617   2.138   2.919  0.1521  0.7472 -1.0702
 3817TIP3    H233087   2.635   2.074   2.783  0.6324 -1.0253 -0.1991
 3818TIP3   OH233088   2.343   4.108   8.655 -0.1656 -0.0179 -0.4101
 3818TIP3    H133089   2.350   4.014   8.638 -0.0569  0.0711 -0.8784
 3818TIP3    H233090   2.379   4.149   8.576 -0.4744  0.4167 -0.3293
 3819TIP3   OH233091   5.252   1.216   0.212 -0.3711 -0.0561 -0.3491
 3819TIP3    H133092   5.170   1.218   0.162  0.0558 -0.4115 -1.0755
 3819TIP3    H233093   5.302   1.144   0.175  0.5768  0.6044 -0.3998
 3820TIP3   OH233094   4.625   0.837   1.851  0.2052  0.3250  0.1606
 3820TIP3    H133095   4.702   0.799   1.807  0.9340  1.0371  0.7919
 3820TIP3    H233096   4.560   0.767   1.850  1.3959 -0.8400  0.9785
 3821TIP3   OH233097   3.414   1.424   3.613 -0.4595 -0.1254  0.1272
 3821TIP3    H133098   3.408   1.446   3.520 -0.7512 -1.4317 -0.1869
 3821TIP3    H233099   3.493   1.370   3.620 -0.1031  0.4642  0.7538
 3822TIP3   OH233100   1.158   3.486   8.699  0.8588  0.1383  0.0227
 3822TIP3    H133101   1.184   3.440   8.619  0.9681  1.0087 -0.4549
 3822TIP3    H233102   1.083   3.539   8.672  0.3428 -0.2248  0.7167
 3823TIP3   OH233103   1.203   6.242   1.504 -0.5644  0.5833  0.1588
 3823TIP3    H133104   1.244   6.182   1.567 -1.6288 -1.4684 -0.9778
 3823TIP3    H233105   1.146   6.297   1.557  0.1013  0.3007  1.2086
 3824TIP3   OH233106   4.527   2.570   3.419 -0.9008  0.0969 -0.2301
 3824TIP3    H133107   4.472   2.640   3.454 -2.0273 -0.4418 -0.8548
 3824TIP3    H233108   4.516   2.498   3.482 -2.0357 -0.4829 -1.0492
 3825TIP3   OH233109   6.530   1.615   0.760  0.1419  0.6188 -0.0354
 3825TIP3    H133110   6.444   1.584   0.785 -1.3142  2.8636 -1.8160
 3825TIP3    H233111   6.562   1.664   0.836 -0.7219  0.7921  0.2222
 3826TIP3   OH233112   6.099   4.485   8.551  0.1593 -0.4288 -0.9837
 3826TIP3    H133113   6.157   4.456   8.480  0.9082 -1.2916 -0.0504
 3826TIP3    H233114   6.040   4.411   8.565  0.3133 -0.4473 -0.4070
 3827TIP3   OH233115   1.067   3.321   2.240 -0.6309 -0.0038  0.0165
 3827TIP3    H133116   0.974   3.326   2.258 -0.9550 -0.9940 -1.2327
 3827TIP3    H233117   1.074   3.264   2.163  0.9367  0.7411 -0.4418
 3828TIP3   OH233118   2.341   3.108   8.371 -0.3769 -0.6798  0.2842
 3828TIP3    H133119   2.369   3.060   8.449 -0.5222 -0.4942  0.4504
 3828TIP3    H233120   2.252   3.078   8.355 -0.0371 -1.3978 -0.3441
 3829TIP3   OH233121   4.490   5.370   1.482 -0.1132  0.3049 -0.0425
 3829TIP3    H133122   4.433   5.424   1.427  0.5421  0.9676 -0.0959
 3829TIP3    H233123   4.433   5.301   1.516 -1.0448  1.1752  0.2255
 3830TIP3   OH233124   5.511   1.239   8.688  0.0597 -0.3099  0.1327
 3830TIP3    H133125   5.507   1.280   8.775  1.1771 -1.5125  0.7785
 3830TIP3    H233126   5.451   1.292   8.634 -0.6178  0.4899  1.6072
 3831TIP3   OH233127   0.140   0.854   0.815  0.2704 -0.1794 -0.1717
 3831TIP3    H133128   0.052   0.818   0.813  0.5506 -0.8546 -0.6445
 3831TIP3    H233129   0.158   0.870   0.908  0.8349 -3.0489  0.3117
 3832TIP3   OH233130   1.034   6.109   2.506 -0.2629 -0.6528  0.1906
 3832TIP3    H133131   1.075   6.054   2.439 -1.4181  0.8619 -1.8963
 3832TIP3    H233132   0.948   6.069   2.520 -1.1054  0.5062 -1.3313
 3833TIP3   OH233133   1.883   3.433   3.539 -0.6182 -0.6017 -1.2048
 3833TIP3    H133134   1.901   3.361   3.479  0.0426 -1.0272 -0.5074
 3833TIP3    H233135   1.931   3.411   3.619 -0.0504  0.8063 -1.1180
 3834TIP3   OH233136   3.114   4.330   1.727 -0.2261  0.0341  0.4259
 3834TIP3    H133137   3.136   4.335   1.633 -0.5838  1.8566  0.4031
 3834TIP3    H233138   3.199   4.334   1.771 -0.1342  0.5941  0.2033
 3835TIP3   OH233139   4.019   3.585   2.527 -0.2163  0.2442 -0.1387
 3835TIP3    H133140   4.050   3.643   2.458  0.9876 -0.5535 -0.2841
 3835TIP3    H233141   4.098   3.546   2.564 -1.0263 -1.8613 -0.5201
 3836TIP3   OH233142   4.800   3.772   2.618 -0.0946 -0.1685  0.0842
 3836TIP3    H133143   4.865   3.800   2.553 -0.2321  1.1141  0.4659
 3836TIP3    H233144   4.719   3.765   2.568 -0.4042  1.7371  0.2515
 3837TIP3   OH233145   4.788   1.019   8.256 -0.2779  0.0636  0.5355
 3837TIP3    H133146   4.779   1.110   8.282  2.6080  0.5770  0.0958
 3837TIP3    H233147   4.774   1.019   8.161 -0.6653 -0.0229  0.5924
 3838TIP3   OH233148   5.294   6.327   0.036  0.0033  0.3342 -0.8471
 3838TIP3    H133149   5.213   6.276   0.037 -0.4765  1.0973 -0.2794
 3838TIP3    H233150   5.346   6.288  -0.035  0.0871 -1.6164  0.2140
 3839TIP3   OH233151   0.144   1.942   1.516 -0.0683 -0.0464  0.5372
 3839TIP3    H133152   0.175   2.028   1.485 -0.9569 -0.1643 -0.7442
 3839TIP3    H233153   0.153   1.885   1.440  0.4728 -1.0977  1.3694
 3840TIP3   OH233154   2.522   4.981   2.216 -0.3241  0.6092 -0.7239
 3840TIP3    H133155   2.502   5.074   2.209  1.1202  0.7993 -4.2107
 3840TIP3    H233156   2.617   4.977   2.217 -0.3405 -0.8355 -1.7148
 3841TIP3   OH233157   2.577   6.798   2.527 -0.1054  0.7446 -0.7062
 3841TIP3    H133158   2.658   6.767   2.486  0.8538  0.4723  1.2985
 3841TIP3    H233159   2.588   6.893   2.531  0.7767  0.6065  0.8049
 3842TIP3   OH233160   0.507   0.104   0.606 -0.1518  0.2659 -0.4763
 3842TIP3    H133161   0.569   0.048   0.559  0.3889 -0.5061  1.0730
 3842TIP3    H233162   0.492   0.178   0.548  1.6044  0.0709 -1.2249
 3843TIP3   OH233163   0.877   4.501   0.382  0.1575 -0.1837 -0.1446
 3843TIP3    H133164   0.967   4.471   0.393  0.3892  0.4026 -0.3820
 3843TIP3    H233165   0.868   4.516   0.287  0.6206  2.1546  0.1103
 3844TIP3   OH233166   1.195   1.644   8.192 -0.3292  0.5161 -0.1261
 3844TIP3    H133167   1.237   1.730   8.192  1.1016 -0.1493 -0.1424
 3844TIP3    H233168   1.138   1.645   8.115 -0.3785  1.4625 -0.0929
 3845TIP3   OH233169   2.152   3.257   3.488  0.8269 -0.4969  0.0183
 3845TIP3    H133170   2.161   3.347   3.457 -2.6031 -0.2720 -0.6913
 3845TIP3    H233171   2.170   3.263   3.582 -1.8672  1.5408  0.5135
 3846TIP3   OH233172   5.463   4.431   3.076  0.2714 -0.2841  0.6229
 3846TIP3    H133173   5.549   4.390   3.085 -0.3977 -1.4970  1.8600
 3846TIP3    H233174   5.481   4.517   3.038  2.1588  0.0496  2.1371
 3847TIP3   OH233175   0.251   2.852   3.562 -0.0115 -0.4031  0.6315
 3847TIP3    H133176   0.298   2.793   3.621 -1.0291 -1.1312  0.7434
 3847TIP3    H233177   0.319   2.911   3.528  0.6524 -0.1436  2.2905
 3848TIP3   OH233178   2.252   0.375   3.765 -0.5219  0.3718 -0.5478
 3848TIP3    H133179   2.220   0.347   3.679 -0.3708 -0.1225 -0.4419
 3848TIP3    H233180   2.298   0.457   3.747 -0.4899  0.2701 -0.9410
 3849TIP3   OH233181   2.110   0.614   0.889  0.4786 -0.0817 -0.2200
 3849TIP3    H133182   2.202   0.592   0.877  0.4467  0.7729 -2.5516
 3849TIP3    H233183   2.063   0.541   0.849  0.1383 -0.2611  0.4921
 3850TIP3   OH233184   6.809   3.658   1.129 -0.1030  0.3239 -0.0429
 3850TIP3    H133185   6.840   3.610   1.207  1.4395  0.9080 -0.2505
 3850TIP3    H233186   6.759   3.731   1.164 -0.3093 -0.0116  0.3680
 3851TIP3   OH233187   6.455   0.588   0.916 -0.2102 -0.2933  0.3585
 3851TIP3    H133188   6.414   0.624   0.837 -0.5615 -1.6378 -0.1011
 3851TIP3    H233189   6.381   0.570   0.975 -0.0376 -0.2099  0.6001
 3852TIP3   OH233190   1.716   3.932   1.821  0.8805  0.0776  0.0883
 3852TIP3    H133191   1.781   3.875   1.779  1.9041  1.0407  0.3292
 3852TIP3    H233192   1.716   3.903   1.912  0.6240 -0.2283 -0.0058
 3853TIP3   OH233193   5.156   5.091   3.462 -0.2102 -0.4132  0.4838
 3853TIP3    H133194   5.080   5.104   3.519  0.5971 -0.1091  1.5157
 3853TIP3    H233195   5.159   5.169   3.408  1.2649  1.2094  2.7286
 3854TIP3   OH233196   2.376   6.571   8.394  1.1342 -0.4716 -0.3674
 3854TIP3    H133197   2.327   6.491   8.411 -0.3401  0.1673 -1.4054
 3854TIP3    H233198   2.386   6.612   8.480  0.3471 -0.9138 -0.0620
 3855TIP3   OH233199   0.865   3.408   2.622 -0.6002 -0.0999  0.3617
 3855TIP3    H133200   0.893   3.350   2.693  2.8813  1.4189  0.4236
 3855TIP3    H233201   0.913   3.377   2.546 -2.7094 -0.4168 -0.9044
 3856TIP3   OH233202   6.797   2.605   4.089  0.2371 -0.0277 -0.1594
 3856TIP3    H133203   6.833   2.660   4.159 -0.1591  1.1302 -0.8220
 3856TIP3    H233204   6.823   2.650   4.009 -0.4662 -0.5957 -0.7104
 3857TIP3   OH233205   2.507   1.919   2.538  0.2655 -0.3114 -0.2502
 3857TIP3    H133206   2.483   1.881   2.622  0.9603 -1.6605 -0.6399
 3857TIP3    H233207   2.550   2.002   2.561 -1.5090  0.4107  0.5908
 3858TIP3   OH233208   4.763   6.759   1.574  0.0975  0.4650  0.5075
 3858TIP3    H133209   4.705   6.768   1.650  0.2323 -0.1109  0.6849
 3858TIP3    H233210   4.813   6.679   1.591  0.6892  0.7589  0.1842
 3859TIP3   OH233211   3.179   3.087   3.947  0.2110 -0.2379  0.8921
 3859TIP3    H133212   3.134   3.011   3.910 -0.9133  1.0510 -0.4956
 3859TIP3    H233213   3.271   3.060   3.949 -0.1291 -1.5888  0.2969
 3860TIP3   OH233214   3.996   5.293   3.945 -0.4375 -0.2554  0.1683
 3860TIP3    H133215   4.080   5.337   3.929 -0.3051 -0.2403  0.8617
 3860TIP3    H233216   3.983   5.237   3.869 -0.5481  0.8864 -0.6950
 3861TIP3   OH233217   0.006   3.221   2.378 -0.0956 -0.0853 -0.2408
 3861TIP3    H133218   0.077   3.195   2.321  0.5380  2.5448 -0.7609
 3861TIP3    H233219  -0.020   3.308   2.347 -2.2508 -0.1577  1.1342
 3862TIP3   OH233220   5.375   0.809   8.790 -0.0747  0.5666  0.3232
 3862TIP3    H133221   5.439   0.741   8.772  0.5906  1.2216  0.1559
 3862TIP3    H233222   5.394   0.877   8.725  0.2655  1.5672  1.4460
 3863TIP3   OH233223   3.531   6.110   3.666  0.1871 -0.4932 -0.3418
 3863TIP3    H133224   3.487   6.119   3.581 -1.7753  0.2511  0.6764
 3863TIP3    H233225   3.505   6.023   3.697 -0.5191 -0.0967  0.2124
 3864TIP3   OH233226   1.101   3.043   1.170  0.2322 -0.1960 -0.1024
 3864TIP3    H133227   1.135   2.983   1.236  3.1262  0.0146 -1.2504
 3864TIP3    H233228   1.018   3.005   1.143  0.5450 -2.0267  1.3242
 3865TIP3   OH233229   4.536   3.607   1.712  0.0390  0.1277  0.0270
 3865TIP3    H133230   4.545   3.586   1.805  0.1538  1.6170  0.3782
 3865TIP3    H233231   4.625   3.597   1.677  0.3955  1.3981  0.5094
 3866TIP3   OH233232   1.525   4.661   1.680  0.3213 -0.4510  0.2040
 3866TIP3    H133233   1.494   4.686   1.593 -4.5203 -0.0546  1.7356
 3866TIP3    H233234   1.612   4.700   1.687  0.1569  1.0484 -3.7572
 3867TIP3   OH233235   5.833   2.028   3.826  0.1668  0.1288  0.2649
 3867TIP3    H133236   5.759   2.076   3.863  0.4594  1.0099 -0.2481
 3867TIP3    H233237   5.872   1.981   3.900  0.8449  1.9737  1.1469
 3868TIP3   OH233238   5.491   4.395   2.061  0.2462 -0.1541  0.6144
 3868TIP3    H133239   5.464   4.454   1.990  0.0005 -0.1050  0.7458
 3868TIP3    H233240   5.575   4.359   2.032 -1.3247 -2.6536 -1.2407
 3869TIP3   OH233241   0.212   3.402   1.701 -0.2254 -0.8379 -0.7200
 3869TIP3    H133242   0.126   3.439   1.717  0.2148  0.6281 -1.5221
 3869TIP3    H233243   0.200   3.342   1.627 -0.1596  1.3268 -2.6095
 3870TIP3   OH233244   1.117   3.146   2.626 -0.0526  0.2355  0.0483
 3870TIP3    H133245   1.032   3.138   2.670 -0.4562  0.4938 -0.6606
 3870TIP3    H233246   1.096   3.142   2.532  0.5161  1.9008 -0.1907
 3871TIP3   OH233247   0.332   2.720   8.347 -0.5087  0.2208  0.1764
 3871TIP3    H133248   0.390   2.794   8.363 -0.0800  0.2771 -1.5029
 3871TIP3    H233249   0.290   2.704   8.432  1.8599  0.2494  1.4409
 3872TIP3   OH233250   4.203   2.776   3.059  0.8091 -0.0327 -0.8700
 3872TIP3    H133251   4.280   2.753   3.112  0.8368  1.2136 -0.3297
 3872TIP3    H233252   4.167   2.854   3.102 -0.9622 -0.7707 -0.9095
 3873TIP3   OH233253   6.532   3.715   8.792  0.1904  0.0215  0.2315
 3873TIP3    H133254   6.550   3.621   8.783  1.6699  0.4492 -2.0712
 3873TIP3    H233255   6.569   3.754   8.714 -1.6218  2.4105  0.4476
 3874TIP3   OH233256   3.146   5.951   3.579 -0.0830  0.3221 -0.4765
 3874TIP3    H133257   3.093   6.026   3.551 -0.3818  0.3682  0.1912
 3874TIP3    H233258   3.180   5.976   3.665  0.1386 -0.1508 -0.4209
 3875TIP3   OH233259   6.120   0.526   8.767 -0.2183  0.9313  0.2128
 3875TIP3    H133260   6.180   0.469   8.815 -0.9943 -0.1564 -0.0607
 3875TIP3    H233261   6.134   0.613   8.804 -0.0995  0.2970  1.7345
 3876TIP3   OH233262   4.588   1.613   3.342 -0.8245 -0.3561  0.2588
 3876TIP3    H133263   4.675   1.574   3.334 -1.9665 -3.2527  0.7628
 3876TIP3    H233264   4.604   1.697   3.386  1.7553 -0.3979 -0.4009
 3877TIP3   OH233265   4.021   0.114   1.883  0.0979 -0.3602 -0.0492
 3877TIP3    H133266   4.102   0.075   1.917 -0.2999 -0.4570  0.8128
 3877TIP3    H233267   4.032   0.208   1.898  0.5464 -0.2408 -1.0303
 3878TIP3   OH233268   5.746   0.476   8.499  0.0758 -0.3749 -0.2602
 3878TIP3    H133269   5.738   0.478   8.404 -0.1350 -0.8100 -0.2528
 3878TIP3    H233270   5.834   0.510   8.516 -0.3900  1.0440 -0.5299
 3879TIP3   OH233271   6.133   4.962   3.260  0.4384  0.0385  0.0308
 3879TIP3    H133272   6.176   4.891   3.211  0.6606  0.9393 -1.1367
 3879TIP3    H233273   6.067   4.918   3.313  1.9680 -1.2616  0.9606
 3880TIP3   OH233274   3.053   4.903   3.194 -0.2213 -0.4502 -0.2962
 3880TIP3    H133275   3.147   4.917   3.209 -0.1074 -0.7655 -0.7332
 3880TIP3    H233276   3.018   4.882   3.281 -0.5501  3.2224  0.6628
 3881TIP3   OH233277   4.439   6.707   3.490 -0.3437 -0.2620 -0.4721
 3881TIP3    H133278   4.442   6.762   3.568  0.6851 -0.6233 -0.2368
 3881TIP3    H233279   4.373   6.747   3.434  0.0846  0.9546 -0.1238
 3882TIP3   OH233280   3.721   5.444   2.376 -0.1504 -0.0520  0.0991
 3882TIP3    H133281   3.761   5.360   2.399  3.0211  0.8961 -1.4069
 3882TIP3    H233282   3.683   5.430   2.289 -1.5951 -0.4278  0.7474
 3883TIP3   OH233283   3.580   4.694   0.592 -0.1246 -0.3157  0.8183
 3883TIP3    H133284   3.613   4.754   0.658 -1.1082  0.5681  0.5263
 3883TIP3    H233285   3.576   4.609   0.636 -0.2067  0.1437  1.7044
 3884TIP3   OH233286   1.924   0.143   0.517  0.2985  0.4125  0.3860
 3884TIP3    H133287   1.928   0.066   0.573  5.0390 -0.9698 -1.4185
 3884TIP3    H233288   2.006   0.189   0.532  2.0260 -0.1000 -5.1527
 3885TIP3   OH233289   1.312   6.265   0.208 -0.0174 -0.2032  0.5228
 3885TIP3    H133290   1.403   6.281   0.233  0.4703  0.2429 -1.3474
 3885TIP3    H233291   1.318   6.230   0.119 -1.6555 -0.6965  0.5806
 3886TIP3   OH233292   1.404   3.023   3.014 -0.5441  0.8385 -0.2819
 3886TIP3    H133293   1.382   3.032   2.921  0.6454  2.6487 -0.4417
 3886TIP3    H233294   1.340   2.960   3.048  0.9900 -2.5119 -2.9831
 3887TIP3   OH233295   6.319   0.673   1.411  0.2319  0.0405 -0.8328
 3887TIP3    H133296   6.283   0.630   1.333  1.1115  0.2650 -1.3839
 3887TIP3    H233297   6.358   0.601   1.461  1.7628  0.1370 -1.7869
 3888TIP3   OH233298   3.546   1.183   2.940  0.1978  0.3017  0.5234
 3888TIP3    H133299   3.461   1.200   2.981  0.9388  0.0417  2.2240
 3888TIP3    H233300   3.586   1.116   2.995  0.7860 -0.9276 -1.2936
 3889TIP3   OH233301   2.106   2.649   2.404 -0.2029  0.3175  0.0835
 3889TIP3    H133302   2.186   2.631   2.453 -1.2941 -0.7424  1.5608
 3889TIP3    H233303   2.131   2.638   2.312  1.1382 -0.9168  0.5627
 3890TIP3   OH233304   2.753   2.056   3.266  0.3079  0.3205 -0.0219
 3890TIP3    H133305   2.658   2.063   3.256  0.3877 -0.4722 -1.5067
 3890TIP3    H233306   2.768   1.965   3.291  0.6076  0.7473  1.4499
 3891TIP3   OH233307   4.042   6.585   0.312 -0.1161 -0.1891 -0.3010
 3891TIP3    H133308   3.989   6.560   0.387 -0.7312 -0.6254 -0.8694
 3891TIP3    H233309   4.027   6.679   0.301  0.3340 -0.0320  0.3901
 3892TIP3   OH233310   1.338   2.456   3.565  0.4974  0.8689  0.1845
 3892TIP3    H133311   1.339   2.517   3.491 -0.5612  2.4136  1.3618
 3892TIP3    H233312   1.245   2.439   3.581  0.6285  1.4739  1.8179
 3893TIP3   OH233313   0.839   1.691   1.307 -0.0554  0.1662  0.0406
 3893TIP3    H133314   0.816   1.718   1.218 -0.1947 -2.3810 -0.7626
 3893TIP3    H233315   0.757   1.698   1.356 -0.7735 -1.4271 -0.8646
 3894TIP3   OH233316   3.091   4.505   0.511  0.3649  0.2334 -0.6817
 3894TIP3    H133317   3.133   4.582   0.473 -0.1872  0.5001 -0.7472
 3894TIP3    H233318   3.101   4.437   0.444  0.1487  0.4661 -0.9477
 3895TIP3   OH233319   6.199   1.570   2.554 -0.3865  0.1267  0.1848
 3895TIP3    H133320   6.109   1.596   2.532 -0.0840  0.7406 -0.3569
 3895TIP3    H233321   6.207   1.586   2.648 -0.6623  0.6088  0.1265
 3896TIP3   OH233322   2.949   5.197   1.656 -0.3333  0.8557  0.0322
 3896TIP3    H133323   2.859   5.196   1.688  0.1413  1.6659  1.4670
 3896TIP3    H233324   2.971   5.105   1.643 -1.0839  0.6031  0.5151
 3897TIP3   OH233325   1.088   3.868   2.769 -0.1477  0.1190 -0.4906
 3897TIP3    H133326   1.109   3.776   2.755 -0.6269  0.0271 -0.6119
 3897TIP3    H233327   1.032   3.891   2.696 -0.5581  0.3320 -0.1098
 3898TIP3   OH233328   1.982   6.202   8.757  0.1095  0.0885 -0.3860
 3898TIP3    H133329   2.028   6.141   8.815  0.7251 -0.7587 -1.7009
 3898TIP3    H233330   2.028   6.285   8.768  1.0243 -0.3813 -0.5731
 3899TIP3   OH233331   6.745   5.607   0.596  0.6764 -0.1516 -0.2652
 3899TIP3    H133332   6.789   5.639   0.675 -0.1449 -1.3576  0.7269
 3899TIP3    H233333   6.816   5.580   0.538  1.2868 -0.0145  0.3978
 3900TIP3   OH233334   4.765   2.633   1.049 -0.4831  0.4188  0.5814
 3900TIP3    H133335   4.779   2.550   1.005 -1.5913  0.7207 -0.4047
 3900TIP3    H233336   4.841   2.686   1.025 -0.3660  0.0937  0.2257
 3901TIP3   OH233337   4.701   2.069   3.672 -0.4006  0.0673 -0.2017
 3901TIP3    H133338   4.648   2.031   3.742 -0.8411  0.4919 -0.3040
 3901TIP3    H233339   4.771   2.005   3.658  0.3117  0.4718  1.3562
 3902TIP3   OH233340   1.909   1.384   2.423 -0.2096 -0.1588  0.1717
 3902TIP3    H133341   1.850   1.309   2.419  1.0851 -1.3500  1.9881
 3902TIP3    H233342   1.984   1.360   2.368 -0.7083  0.7355 -0.9464
 3903TIP3   OH233343   3.111   6.324   0.728  0.0390 -0.5329  0.9527
 3903TIP3    H133344   3.097   6.391   0.661 -0.3572 -1.4868  0.0452
 3903TIP3    H233345   3.171   6.365   0.791 -1.6570  1.3409  1.4624
 3904TIP3   OH233346   3.049   5.857   1.669  0.3878 -0.4725 -0.1462
 3904TIP3    H133347   2.993   5.786   1.702  2.6258 -2.2937  0.0109
 3904TIP3    H233348   3.052   5.842   1.574 -0.2886  0.3647 -0.3180
 3905TIP3   OH233349   3.291   4.782   2.731 -0.3781 -0.1682 -0.1206
 3905TIP3    H133350   3.360   4.839   2.763 -2.0389  2.0315 -0.2004
 3905TIP3    H233351   3.333   4.727   2.665  1.4601  0.4994  0.4541
 3906TIP3   OH233352   4.150   5.207   0.799 -0.1336 -0.1080  0.1366
 3906TIP3    H133353   4.143   5.264   0.875  0.9506 -0.2001  0.3326
 3906TIP3    H233354   4.065   5.163   0.793 -0.7563  1.0336  0.3657
 3907TIP3   OH233355   2.386   0.983   2.993  0.8239  0.3311 -0.4973
 3907TIP3    H133356   2.372   0.960   2.901  0.1458 -1.7415  0.0747
 3907TIP3    H233357   2.445   0.915   3.026 -0.4616 -0.0863  1.0685
 3908TIP3   OH233358   3.884   1.994   3.849 -0.0084 -0.4070 -0.8175
 3908TIP3    H133359   3.952   1.930   3.829  0.3727  0.0772 -1.1083
 3908TIP3    H233360   3.890   2.008   3.944 -0.8624 -1.6457 -0.5586
 3909TIP3   OH233361   1.870   3.828   0.718  0.1805  0.0516 -0.4475
 3909TIP3    H133362   1.776   3.814   0.718  0.1075  0.4654  0.5770
 3909TIP3    H233363   1.886   3.886   0.792  1.3632 -0.8930  0.0835
 3910TIP3   OH233364   6.730   6.710   2.784  0.7228 -0.3769  0.1977
 3910TIP3    H133365   6.694   6.628   2.750  1.4135 -0.2360 -0.9473
 3910TIP3    H233366   6.823   6.691   2.796  0.5450 -0.3588  1.9038
 3911TIP3   OH233367   1.306   3.162   3.552  0.2045  0.3684 -0.1855
 3911TIP3    H133368   1.269   3.233   3.499  0.5751  1.1829  0.6301
 3911TIP3    H233369   1.243   3.090   3.542 -0.9998  1.3281  0.2366
 3912TIP3   OH233370   4.958   1.251   1.418  0.5016 -0.5172  0.1580
 3912TIP3    H133371   4.868   1.284   1.419  0.2388 -1.1886 -0.6959
 3912TIP3    H233372   5.002   1.304   1.352  0.8892  0.1700  0.9442
 3913TIP3   OH233373   6.085   0.486   3.314 -0.2084  0.5821  0.6893
 3913TIP3    H133374   6.128   0.511   3.232  0.1061 -0.4789  0.5076
 3913TIP3    H233375   6.120   0.399   3.334 -2.3561 -0.4176  0.4546
 3914TIP3   OH233376   0.964   0.773   0.653  0.2904  0.2595  0.3219
 3914TIP3    H133377   0.948   0.833   0.580  0.4389  0.1815  0.2242
 3914TIP3    H233378   1.054   0.792   0.680  0.2536  0.2521  0.4511
 3915TIP3   OH233379   5.421   2.302   1.937  0.0993  0.2364  0.6057
 3915TIP3    H133380   5.448   2.389   1.907 -1.0402  0.0017 -1.2179
 3915TIP3    H233381   5.330   2.294   1.910 -0.7368 -0.4357  3.3376
 3916TIP3   OH233382   0.689   3.509   3.877  0.7974  0.1557  0.1280
 3916TIP3    H133383   0.662   3.507   3.969  0.7165  0.7788  0.1261
 3916TIP3    H233384   0.727   3.423   3.860  0.8277  0.0463  0.7507
 3917TIP3   OH233385   1.106   4.385   2.630  0.3664  0.0473  0.3429
 3917TIP3    H133386   1.065   4.455   2.680  0.2967 -0.8428  1.5834
 3917TIP3    H233387   1.120   4.315   2.694  0.8807 -0.8835 -0.7529
 3918TIP3   OH233388   3.669   5.714   0.858 -0.1727  0.3329  0.5329
 3918TIP3    H133389   3.590   5.673   0.894  0.9656 -0.5315  2.1731
 3918TIP3    H233390   3.725   5.640   0.834  0.6831  0.9363  0.6508
 3919TIP3   OH233391   4.283   0.976   0.415 -0.1464 -0.2367 -0.0531
 3919TIP3    H133392   4.190   0.997   0.423  0.3128  1.5165  1.2389
 3919TIP3    H233393   4.308   1.010   0.329 -0.1316  1.8884  0.7229
 3920TIP3   OH233394   0.837   2.878   1.962 -0.3332  0.0422  0.4376
 3920TIP3    H133395   0.924   2.840   1.951  0.5267  2.0851 -0.3514
 3920TIP3    H233396   0.805   2.891   1.873 -1.2049 -0.1396  0.7175
 3921TIP3   OH233397   1.064   3.826   8.363 -0.3216 -0.0501 -0.2336
 3921TIP3    H133398   1.095   3.877   8.438  1.0336 -2.8810  1.2811
 3921TIP3    H233399   0.993   3.773   8.398 -0.9582 -0.0693 -1.4878
 3922TIP3   OH233400   1.145   6.157   0.543  0.5125  0.2647  0.0621
 3922TIP3    H133401   1.230   6.112   0.542 -0.2649 -1.3075 -1.8259
 3922TIP3    H233402   1.091   6.105   0.603  0.5388  0.5693  0.3498
 3923TIP3   OH233403   4.180   5.174   8.061  0.5733  0.0802  0.1155
 3923TIP3    H133404   4.110   5.112   8.042  1.6215 -2.1355  2.7630
 3923TIP3    H233405   4.215   5.197   7.975 -0.9491 -1.7136 -1.0825
 3924TIP3   OH233406   2.836   4.230   3.700 -0.2994  0.7357 -0.1989
 3924TIP3    H133407   2.835   4.317   3.662 -1.0858  0.5047 -0.7325
 3924TIP3    H233408   2.781   4.236   3.778  0.7500  1.0399  0.5322
 3925TIP3   OH233409   2.367   4.212   2.594  0.3737  0.1980  0.4327
 3925TIP3    H133410   2.419   4.275   2.545  0.3139 -0.0963 -0.0181
 3925TIP3    H233411   2.427   4.174   2.658  0.4982  0.4512  0.4660
 3926TIP3   OH233412   3.796   3.088   1.953 -0.2837 -0.1862  0.0296
 3926TIP3    H133413   3.787   3.005   1.906  1.4256 -0.9774  1.0077
 3926TIP3    H233414   3.769   3.068   2.043  0.1088  0.3172  0.2636
 3927TIP3   OH233415   3.666   6.455   0.418 -0.0703 -0.8191  0.1785
 3927TIP3    H133416   3.702   6.444   0.329 -0.8010  1.3447 -0.4440
 3927TIP3    H233417   3.578   6.418   0.413  0.0379 -1.0677  0.1135
 3928TIP3   OH233418   5.268   2.024   8.044 -0.3079  0.3019  0.1860
 3928TIP3    H133419   5.297   1.980   7.964  1.5070  2.5627 -0.5108
 3928TIP3    H233420   5.243   1.953   8.104  0.5487 -1.5265 -1.5434
 3929TIP3   OH233421   0.911   0.121   3.224 -0.5783 -0.0685  0.1845
 3929TIP3    H133422   0.838   0.157   3.275  0.2899  1.3919  0.4577
 3929TIP3    H233423   0.955   0.198   3.188  1.2216 -0.8546  0.5739
 3930TIP3   OH233424   1.887   5.236   1.196 -0.4945 -0.5826 -0.1105
 3930TIP3    H133425   1.811   5.190   1.160  0.9497 -1.3621 -2.3459
 3930TIP3    H233426   1.911   5.299   1.128  0.4941  0.1113  0.8402
 3931TIP3   OH233427   2.915   5.967   2.902  0.4218  0.0665  0.6392
 3931TIP3    H133428   2.821   5.984   2.902  0.2468 -0.8540  0.7579
 3931TIP3    H233429   2.954   6.049   2.932 -0.1918  1.1864 -1.4607
 3932TIP3   OH233430   5.796   5.675   0.182 -0.1338 -0.0770 -0.5784
 3932TIP3    H133431   5.857   5.611   0.218 -0.3304  0.2905  0.4360
 3932TIP3    H233432   5.842   5.713   0.108 -0.2304 -1.7861 -1.5816
 3933TIP3   OH233433   1.072   0.208   0.875 -0.4176 -0.7309  0.0376
 3933TIP3    H133434   1.156   0.248   0.853 -0.2072 -0.6952  0.8532
 3933TIP3    H233435   1.066   0.131   0.818 -0.0727 -0.4463 -0.3888
 3934TIP3   OH233436   6.696   3.120   8.624 -0.0019  0.2812 -0.0024
 3934TIP3    H133437   6.749   3.194   8.595  0.1801 -0.5719 -2.0054
 3934TIP3    H233438   6.621   3.160   8.667  0.6569  1.5942 -0.0273
 3935TIP3   OH233439   1.799   4.939   8.696 -0.0269  0.4284  0.0797
 3935TIP3    H133440   1.836   4.891   8.622 -0.2620 -1.2486  1.0099
 3935TIP3    H233441   1.717   4.975   8.663 -1.1215 -1.9589  0.0231
 3936TIP3   OH233442   6.244   2.343   0.112 -0.2660  0.3987  0.1818
 3936TIP3    H133443   6.238   2.438   0.116 -0.3729  0.3608  1.0692
 3936TIP3    H233444   6.193   2.319   0.034  0.3399  1.1040 -0.4466
 3937TIP3   OH233445   0.866   2.008   1.829  0.5450  0.1363 -0.1516
 3937TIP3    H133446   0.806   1.936   1.850  0.8258 -0.1240 -0.2354
 3937TIP3    H233447   0.891   1.991   1.738  0.7655  0.2301 -0.1084
 3938TIP3   OH233448   0.069   6.097   2.243 -0.0577  0.5240 -1.0934
 3938TIP3    H133449   0.129   6.063   2.309 -0.4075  0.2046 -0.9340
 3938TIP3    H233450   0.109   6.179   2.213  1.6312 -0.7839 -2.6478
 3939TIP3   OH233451   2.159   0.338   0.174 -0.1057  0.4384  0.2532
 3939TIP3    H133452   2.158   0.392   0.095 -0.9813 -2.1107 -1.6432
 3939TIP3    H233453   2.070   0.303   0.180  0.3087 -0.4930  1.5940
 3940TIP3   OH233454   5.103   3.069   4.374  0.1762  0.0156  0.8758
 3940TIP3    H133455   5.080   3.046   4.284 -1.9906  1.5791  0.9568
 3940TIP3    H233456   5.084   2.989   4.425 -1.8313  0.1480  0.3936
 3941TIP3   OH233457   5.383   3.302   7.931 -0.1993  0.5935  0.5521
 3941TIP3    H133458   5.347   3.216   7.953 -2.3871  1.0315 -1.0166
 3941TIP3    H233459   5.441   3.286   7.856 -0.1403  0.4174  0.6346
 3942TIP3   OH233460   2.787   1.651   1.909  0.0218 -0.4709 -0.3363
 3942TIP3    H133461   2.877   1.620   1.908  0.3137  0.0662  2.4375
 3942TIP3    H233462   2.735   1.573   1.930  0.1775 -0.2669  0.9028
 3943TIP3   OH233463   5.736   2.564   2.793 -0.3601  0.1884  0.2393
 3943TIP3    H133464   5.713   2.568   2.700 -0.7204 -0.1759  0.3091
 3943TIP3    H233465   5.821   2.518   2.794  0.7020  2.0663 -0.0599
 3944TIP3   OH233466   3.323   6.514   3.821 -0.4832  0.0686 -0.3693
 3944TIP3    H133467   3.329   6.594   3.872 -2.9921  0.3889 -0.4859
 3944TIP3    H233468   3.324   6.444   3.886  0.5607  0.2340 -0.1939
 3945TIP3   OH233469   2.815   2.630   1.255  0.1652  0.2483  0.1595
 3945TIP3    H133470   2.860   2.550   1.225 -1.7898 -0.6656 -0.5079
 3945TIP3    H233471   2.886   2.687   1.285  1.5980 -2.0511  1.4682
 3946TIP3   OH233472   0.651   2.734   2.419 -0.1579  0.1979  0.0184
 3946TIP3    H133473   0.558   2.713   2.427 -0.0102 -1.7042 -2.2245
 3946TIP3    H233474   0.665   2.747   2.325  1.7514  1.0030  0.3599
 3947TIP3   OH233475   4.430   5.523   1.840  0.4026 -0.1648  0.4229
 3947TIP3    H133476   4.381   5.512   1.758  0.3515  0.0920  0.4169
 3947TIP3    H233477   4.375   5.581   1.893  1.0487  0.7539  0.1172
 3948TIP3   OH233478   4.410   4.655   3.191 -0.3097  0.5412  0.7521
 3948TIP3    H133479   4.493   4.702   3.177 -0.0935 -0.0251  0.1062
 3948TIP3    H233480   4.425   4.605   3.272  0.3778 -0.3961  0.0687
 3949TIP3   OH233481   4.273   5.583   3.005 -0.0348 -0.0818 -0.5122
 3949TIP3    H133482   4.361   5.551   2.983  0.9048  2.4362 -0.7433
 3949TIP3    H233483   4.227   5.586   2.921  0.1391 -0.0368 -0.6057
 3950TIP3   OH233484   6.347   1.620   0.513  0.0194  0.2779 -0.5999
 3950TIP3    H133485   6.364   1.686   0.446  2.0107  1.3449  0.8516
 3950TIP3    H233486   6.433   1.584   0.533 -0.5673 -0.2361  1.1293
 3951TIP3   OH233487   4.888   1.482   0.447  0.2121  0.2296 -0.1510
 3951TIP3    H133488   4.870   1.411   0.385 -0.0147  0.1326  0.0262
 3951TIP3    H233489   4.935   1.548   0.395  2.2636 -0.9045  0.1399
 3952TIP3   OH233490   2.692   5.076   2.600  0.6658 -0.3520  0.0663
 3952TIP3    H133491   2.597   5.074   2.603  0.5886  1.2657 -0.1993
 3952TIP3    H233492   2.712   5.150   2.543  2.0843 -0.0034  0.9700
 3953TIP3   OH233493   2.337   5.874   0.768  0.0775  0.3895  0.6908
 3953TIP3    H133494   2.352   5.967   0.785  0.1760  0.2168  1.6032
 3953TIP3    H233495   2.411   5.830   0.810  0.7797 -0.0293 -0.9205
 3954TIP3   OH233496   2.436   1.249   1.950 -0.1561 -0.0559 -1.3423
 3954TIP3    H133497   2.364   1.236   2.012  1.9633 -4.7343  0.6102
 3954TIP3    H233498   2.413   1.194   1.875  1.3763 -1.7649 -0.6068
 3955TIP3   OH233499   3.580   0.807   3.287 -0.2523 -0.0393 -0.0360
 3955TIP3    H133500   3.585   0.775   3.197 -2.5826  0.5983 -0.4728
 3955TIP3    H233501   3.663   0.853   3.301  0.3043 -0.4699 -1.7127
 3956TIP3   OH233502   6.774   3.924   8.076 -0.1166  0.2658  0.6559
 3956TIP3    H133503   6.824   3.910   7.996 -0.0556  3.2111  0.0663
 3956TIP3    H233504   6.711   3.993   8.054 -0.4701  0.7774  2.9754
 3957TIP3   OH233505   0.025   6.678   2.450 -0.3585  0.2714 -0.0151
 3957TIP3    H133506   0.051   6.746   2.388 -0.4320  0.9963  0.7376
 3957TIP3    H233507  -0.043   6.719   2.503  0.3269 -0.0412  1.1231
 3958TIP3   OH233508   4.965   0.089   1.465 -0.2596 -0.3687  0.1609
 3958TIP3    H133509   4.929   0.080   1.553 -1.3200  0.1586 -0.2053
 3958TIP3    H233510   4.931   0.013   1.417 -0.5382 -0.1033 -0.0675
 3959TIP3   OH233511   0.193   2.540   3.855 -0.0381 -0.2880  0.6001
 3959TIP3    H133512   0.106   2.576   3.838  1.4321  2.5554 -1.7181
 3959TIP3    H233513   0.228   2.521   3.768  2.3484  0.4529  1.3317
 3960TIP3   OH233514   0.751   1.745   1.928 -0.5245  0.1051 -0.5357
 3960TIP3    H133515   0.704   1.797   1.993 -0.4594 -0.5681  0.0621
 3960TIP3    H233516   0.683   1.713   1.869 -0.3683  2.4597 -2.0970
 3961TIP3   OH233517   5.001   2.530   1.843  0.3342  0.5627 -0.0027
 3961TIP3    H133518   4.940   2.478   1.895 -0.4136  0.9228 -0.5148
 3961TIP3    H233519   4.976   2.621   1.859  2.3035  0.8861  1.7386
 3962TIP3   OH233520   0.450   4.724   2.421  0.1717 -0.5135  0.5669
 3962TIP3    H133521   0.429   4.781   2.495 -0.6101  0.2294 -0.2030
 3962TIP3    H233522   0.465   4.783   2.348  0.2808 -1.2591 -0.0295
 3963TIP3   OH233523   2.834   4.348   2.452  0.3444 -0.1697 -0.0146
 3963TIP3    H133524   2.863   4.266   2.412 -0.1622 -0.2774 -0.1633
 3963TIP3    H233525   2.831   4.410   2.379  1.3210  0.1476  0.2012
 3964TIP3   OH233526   5.594   1.416   2.815  0.5317  0.6660  0.1429
 3964TIP3    H133527   5.634   1.331   2.830 -0.2724  0.4595  1.2831
 3964TIP3    H233528   5.582   1.452   2.903  0.8117  1.9456 -0.3136
 3965TIP3   OH233529   5.355   4.017   1.277 -0.6061 -0.7501  0.3148
 3965TIP3    H133530   5.403   4.098   1.262  1.2273 -1.8299 -0.0082
 3965TIP3    H233531   5.302   4.006   1.197 -0.3584 -0.2091  0.0695
 3966TIP3   OH233532   0.104   5.529   0.428 -0.1458 -0.3471 -0.5059
 3966TIP3    H133533   0.111   5.563   0.339  0.5504 -0.3561 -0.4619
 3966TIP3    H233534   0.163   5.454   0.430 -1.1582 -1.1688 -0.4084
 3967TIP3   OH233535   4.628   0.791   1.235  0.0115  0.1603  0.1276
 3967TIP3    H133536   4.585   0.871   1.204 -0.6176 -0.5909 -1.0380
 3967TIP3    H233537   4.672   0.817   1.316  0.1935  1.7863 -0.4461
 3968TIP3   OH233538   4.288   0.920   0.761  0.1275  0.1391 -0.2434
 3968TIP3    H133539   4.235   0.868   0.700 -2.2946  0.7473  1.2364
 3968TIP3    H233540   4.356   0.859   0.791 -0.2390 -0.9528 -1.5124
 3969TIP3   OH233541   3.604   3.466   3.422  0.3991 -0.4917  0.4814
 3969TIP3    H133542   3.585   3.558   3.441 -0.5846 -0.3423 -1.0538
 3969TIP3    H233543   3.531   3.418   3.460  1.2599 -0.7376  1.8934
 3970TIP3   OH233544   3.700   2.750   2.181 -0.1231  0.3455  0.6241
 3970TIP3    H133545   3.636   2.730   2.249 -1.0366  0.6681 -0.1278
 3970TIP3    H233546   3.785   2.732   2.223 -0.7162 -0.9240  1.3602
 3971TIP3   OH233547   5.711   2.058   1.301  0.5939  0.9407  0.2295
 3971TIP3    H133548   5.617   2.066   1.287  0.7438  1.7051 -0.3671
 3971TIP3    H233549   5.749   2.057   1.213  0.9691 -2.2246  0.2936
 3972TIP3   OH233550   4.375   3.215   0.836  0.1050  0.4687  0.2000
 3972TIP3    H133551   4.464   3.207   0.868  0.1694  0.9692  0.1528
 3972TIP3    H233552   4.326   3.146   0.883  0.4631  0.3464  0.3955
 3973TIP3   OH233553   1.378   5.977   0.451  0.0918  0.0449  0.1478
 3973TIP3    H133554   1.412   6.039   0.387  0.1621  2.2818  2.2134
 3973TIP3    H233555   1.451   5.962   0.511 -0.5707 -0.3758  0.8683
 3974TIP3   OH233556   4.006   1.552   3.070  0.0807 -0.2328  0.2065
 3974TIP3    H133557   4.059   1.497   3.012  0.3088  2.1489 -2.0314
 3974TIP3    H233558   3.918   1.515   3.064  0.8609 -2.6803  1.9672
 3975TIP3   OH233559   3.647   3.130   2.216  0.0133  0.8593  0.1194
 3975TIP3    H133560   3.610   3.166   2.135  2.3168  0.1257 -1.3312
 3975TIP3    H233561   3.584   3.062   2.242 -1.6797  2.2954  0.0055
 3976TIP3   OH233562   0.467   3.091   3.083  0.0921  0.1859 -0.8837
 3976TIP3    H133563   0.459   3.055   2.995  0.6351  0.9506 -1.2489
 3976TIP3    H233564   0.402   3.162   3.086  0.9949  1.0421 -1.1308
 3977TIP3   OH233565   6.569   1.347   8.825 -0.4695 -0.1872  0.3680
 3977TIP3    H133566   6.549   1.285   8.754  0.0392 -0.7700  0.7237
 3977TIP3    H233567   6.664   1.360   8.819 -0.4749  0.0137  0.7343
 3978TIP3   OH233568   1.795   5.469   2.253  0.3571  0.2877 -0.4861
 3978TIP3    H133569   1.884   5.455   2.219  1.4385  1.9106  1.4424
 3978TIP3    H233570   1.797   5.558   2.290 -2.1444  0.4458 -0.5573
 3979TIP3   OH233571   6.154   3.257   1.599  0.2301 -0.0266 -0.4815
 3979TIP3    H133572   6.136   3.272   1.506 -1.7603 -0.3042 -0.1849
 3979TIP3    H233573   6.106   3.327   1.644 -1.4002 -1.6488  0.4515
 3980TIP3   OH233574   5.499   1.435   0.617  0.2875  0.1459  0.6397
 3980TIP3    H133575   5.424   1.483   0.581  0.2328  0.1901  0.8085
 3980TIP3    H233576   5.564   1.503   0.635  0.9200 -0.0435 -0.8231
 3981TIP3   OH233577   2.377   4.448   8.534  0.9293  0.2233  0.0032
 3981TIP3    H133578   2.443   4.511   8.504  0.6613  0.4086 -0.1955
 3981TIP3    H233579   2.404   4.365   8.495  0.1559  0.6053 -1.4055
 3982TIP3   OH233580   3.978   5.175   1.486 -0.3076 -0.2573  0.6533
 3982TIP3    H133581   4.036   5.229   1.431 -0.3941  1.0166  1.7604
 3982TIP3    H233582   4.024   5.091   1.493  0.4253  0.0544 -0.1450
 3983TIP3   OH233583   4.185   4.562   1.520 -0.0318 -0.4518  0.0947
 3983TIP3    H133584   4.264   4.606   1.552  0.4116 -0.8746 -0.4094
 3983TIP3    H233585   4.149   4.622   1.454  0.3174 -0.6281 -0.2583
 3984TIP3   OH233586   3.391   5.865   3.762  0.1608  0.3279 -0.1054
 3984TIP3    H133587   3.439   5.854   3.845 -2.4699  0.1620  1.5154
 3984TIP3    H233588   3.354   5.779   3.744 -1.7613  1.0479  0.2305
 3985TIP3   OH233589   4.073   0.720   0.710  0.3340  0.3079  0.2633
 3985TIP3    H133590   4.113   0.714   0.623 -1.1932 -0.2353 -0.4481
 3985TIP3    H233591   3.982   0.746   0.692 -0.1192 -0.2329  1.6647
 3986TIP3   OH233592   0.340   4.012   3.704 -0.4427 -0.3853  0.0852
 3986TIP3    H133593   0.322   3.943   3.768  0.0635 -0.7361 -0.1431
 3986TIP3    H233594   0.372   4.085   3.757 -1.3853 -0.1699  0.3714
 3987TIP3   OH233595   1.103   2.495   1.852  0.3447 -0.1530 -0.2222
 3987TIP3    H133596   1.158   2.567   1.884  1.4037 -1.0652  0.0630
 3987TIP3    H233597   1.034   2.486   1.919  2.1265 -1.5804  1.5295
 3988TIP3   OH233598   0.979   6.422   3.714 -0.4781 -0.5474 -0.2578
 3988TIP3    H133599   0.933   6.365   3.653 -0.9702  0.4475 -0.8484
 3988TIP3    H233600   1.007   6.496   3.661  1.4935 -0.9322  0.1719
 3989TIP3   OH233601   4.960   0.824   3.172 -0.3244 -0.2622 -0.3840
 3989TIP3    H133602   4.960   0.909   3.217  1.9117 -1.2822  1.8134
 3989TIP3    H233603   5.033   0.829   3.111 -1.0498 -0.1598 -1.2580
 3990TIP3   OH233604   5.507   2.254   3.036  0.2300 -0.5038 -0.5382
 3990TIP3    H133605   5.546   2.227   3.119  1.7002  1.2721 -0.5874
 3990TIP3    H233606   5.465   2.338   3.055 -0.3326 -0.5853 -1.3602
 3991TIP3   OH233607   0.588   0.428   2.789 -0.0525  0.0983  0.2144
 3991TIP3    H133608   0.652   0.495   2.814  1.7907 -1.8536  1.0704
 3991TIP3    H233609   0.621   0.348   2.828 -1.5020 -1.5809 -1.7824
 3992TIP3   OH233610   0.438   3.349   1.520 -0.6808 -0.0454 -0.0434
 3992TIP3    H133611   0.525   3.390   1.520 -0.7550  0.1415 -1.0966
 3992TIP3    H233612   0.378   3.422   1.536 -0.6684 -0.1183  0.3406
 3993TIP3   OH233613   1.504   6.528   3.390  0.0005  0.3048  0.3372
 3993TIP3    H133614   1.577   6.494   3.441 -0.0466  0.2281  0.3535
 3993TIP3    H233615   1.544   6.567   3.312 -0.1126 -1.8954 -0.8788
 3994TIP3   OH233616   3.884   4.262   0.703 -0.2958 -0.2269  0.3283
 3994TIP3    H133617   3.859   4.191   0.644  0.0541  0.8868 -1.2313
 3994TIP3    H233618   3.948   4.223   0.762  1.7396 -0.6890 -2.0302
 3995TIP3   OH233619   0.274   6.455   0.567 -0.3936  0.3738  0.3551
 3995TIP3    H133620   0.181   6.439   0.553 -0.2674 -0.1198  0.0348
 3995TIP3    H233621   0.315   6.426   0.485  0.4758 -3.3802  1.9015
 3996TIP3   OH233622   0.606   5.665   1.869  0.1255  0.0054  0.4491
 3996TIP3    H133623   0.528   5.711   1.838 -0.1107 -0.7109 -0.0443
 3996TIP3    H233624   0.594   5.575   1.839  1.6196  0.1056 -0.5758
 3997TIP3   OH233625   4.867   3.199   0.587 -0.4099  0.2102  0.4550
 3997TIP3    H133626   4.928   3.273   0.597  0.0560 -0.2023  0.7199
 3997TIP3    H233627   4.917   3.123   0.617 -1.0889 -0.1241  0.7411
 3998TIP3   OH233628   2.031   5.644   8.123 -0.0034  0.4185 -0.2371
 3998TIP3    H133629   2.011   5.733   8.093 -0.4053  1.6866  3.3377
 3998TIP3    H233630   2.113   5.653   8.171  0.8906 -1.5840 -1.2809
 3999TIP3   OH233631   5.957   6.132   2.077 -0.2537  0.1694 -0.0900
 3999TIP3    H133632   6.046   6.101   2.090 -0.4245 -0.0398  0.6231
 3999TIP3    H233633   5.932   6.172   2.160 -0.2848  1.6349 -0.7755
 4000TIP3   OH233634   1.440   4.373   0.424 -0.4254 -0.5367  0.0322
 4000TIP3    H133635   1.368   4.366   0.360 -0.5927  0.9352  0.0234
 4000TIP3    H233636   1.416   4.448   0.478  0.4687 -0.8490  0.8789
 4001TIP3   OH233637   3.273   2.073   3.320  0.1308  0.1976  0.4814
 4001TIP3    H133638   3.352   2.021   3.336  0.9338  1.3191  0.2352
 4001TIP3    H233639   3.232   2.082   3.406  2.3558  2.9070  1.3847
 4002TIP3   OH233640   0.663   0.645   8.142  0.9913 -0.1488 -0.0423
 4002TIP3    H133641   0.646   0.737   8.121 -0.7342 -0.3307  0.3993
 4002TIP3    H233642   0.581   0.600   8.121  1.7836 -1.5815 -0.1743
 4003TIP3   OH233643   2.459   3.268   0.033  0.2156 -0.1958 -0.6356
 4003TIP3    H133644   2.371   3.245   0.005 -0.0818  0.1165  0.0206
 4003TIP3    H233645   2.497   3.186   0.064 -0.8235  0.1126  1.6567
 4004TIP3   OH233646   1.196   0.321   2.461 -0.5652 -0.0686  0.4352
 4004TIP3    H133647   1.135   0.342   2.391 -1.7676 -3.2495  0.3521
 4004TIP3    H233648   1.157   0.245   2.505  3.7720 -3.2255 -0.4206
 4005TIP3   OH233649   4.550   2.280   3.603 -0.2848  0.2377  0.2533
 4005TIP3    H133650   4.462   2.278   3.640 -0.3694 -1.0638  0.0160
 4005TIP3    H233651   4.587   2.195   3.625  1.7165  1.4909  2.2130
 4006TIP3   OH233652   5.716   2.855   0.840  0.6305  0.1959 -0.8284
 4006TIP3    H133653   5.699   2.884   0.930  2.7299 -0.5192 -0.1274
 4006TIP3    H233654   5.739   2.935   0.793 -0.8381  0.6267 -0.8477
 4007TIP3   OH233655   2.120   1.678   0.829  0.1413 -0.1105  0.4336
 4007TIP3    H133656   2.131   1.584   0.842 -1.8581 -0.5227 -0.6109
 4007TIP3    H233657   2.087   1.710   0.913 -0.4002 -0.5691  0.4001
 4008TIP3   OH233658   1.715   3.744   3.199  0.6540 -0.2574 -0.4920
 4008TIP3    H133659   1.657   3.785   3.135  0.4529 -0.5163 -0.4768
 4008TIP3    H233660   1.752   3.818   3.249 -0.1301 -0.1253 -0.1001
 4009TIP3   OH233661   4.231   0.066   0.205  0.5723  0.0930  0.4221
 4009TIP3    H133662   4.194   0.152   0.188  1.2731  0.3916  0.3962
 4009TIP3    H233663   4.216   0.051   0.298 -0.3057 -0.1249  0.2526
 4010TIP3   OH233664   4.075   0.359   2.645  0.0860  0.1250 -0.0621
 4010TIP3    H133665   4.036   0.365   2.732 -0.6135 -1.5825 -0.2083
 4010TIP3    H233666   4.164   0.392   2.655 -0.3346  0.9502  1.0475
 4011TIP3   OH233667   4.750   2.815   2.473 -0.5500 -0.2673 -0.0100
 4011TIP3    H133668   4.758   2.910   2.469 -0.1408 -0.0867  2.8940
 4011TIP3    H233669   4.829   2.783   2.429 -0.0828  0.7639  0.0336
 4012TIP3   OH233670   2.054   3.282   2.078 -0.0170 -0.2879 -0.1147
 4012TIP3    H133671   2.092   3.224   2.012 -2.0662 -1.2290 -0.5716
 4012TIP3    H233672   2.045   3.366   2.034  1.6838  0.0217  0.0861
 4013TIP3   OH233673   0.331   1.670   8.481 -0.1258  0.2903  0.8910
 4013TIP3    H133674   0.397   1.609   8.514 -1.2628 -0.6520  1.4873
 4013TIP3    H233675   0.330   1.741   8.546  1.5669  1.2702 -0.0731
 4014TIP3   OH233676   3.742   3.021   4.568  0.3755  0.4063  0.4870
 4014TIP3    H133677   3.740   3.097   4.627  0.2910  0.0197  0.9834
 4014TIP3    H233678   3.834   3.011   4.545  0.3236  0.9860 -0.0137
 4015TIP3   OH233679   2.436   1.417   2.679 -0.0666  0.1447 -0.7508
 4015TIP3    H133680   2.463   1.421   2.587 -0.7256  1.3514 -0.9061
 4015TIP3    H233681   2.499   1.472   2.725  0.9611 -1.3588 -0.2682
 4016TIP3   OH233682   3.850   3.429   3.271  0.9302  1.0362  0.5380
 4016TIP3    H133683   3.917   3.474   3.322  1.8123 -0.0726  0.4139
 4016TIP3    H233684   3.774   3.425   3.328  1.3214  1.3926  1.0880
 4017TIP3   OH233685   3.131   0.691   0.563 -0.0823 -0.0951  0.2588
 4017TIP3    H133686   3.103   0.699   0.472  0.0091  0.8053  0.3063
 4017TIP3    H233687   3.220   0.657   0.557  0.5144  1.4758 -0.0514
 4018TIP3   OH233688   3.778   1.786   0.536 -0.4443  0.5236  0.1035
 4018TIP3    H133689   3.836   1.718   0.569 -0.6246  0.1541 -0.3311
 4018TIP3    H233690   3.753   1.756   0.448 -0.3524  1.2507 -0.1769
 4019TIP3   OH233691   0.716   2.314   1.654  0.9886  0.5418 -0.3844
 4019TIP3    H133692   0.809   2.298   1.669  0.4926 -2.5458 -0.0619
 4019TIP3    H233693   0.714   2.378   1.583  3.3336  0.8812 -0.2228
 4020TIP3   OH233694   5.370   4.934   3.567  0.3382 -0.3021  0.0195
 4020TIP3    H133695   5.419   4.920   3.648  0.7110 -0.3742 -0.2155
 4020TIP3    H233696   5.287   4.973   3.596  0.6532  0.1002  0.3996
 4021TIP3   OH233697   0.440   4.584   1.940  0.0680  0.4343 -0.1540
 4021TIP3    H133698   0.364   4.536   1.907 -1.1648  1.6974  0.7613
 4021TIP3    H233699   0.460   4.647   1.871 -0.0398  0.4544 -0.1673
 4022TIP3   OH233700   5.042   2.644   3.481 -0.3244  0.1733  0.1344
 4022TIP3    H133701   4.980   2.571   3.481 -0.1267 -0.0800  2.6924
 4022TIP3    H233702   5.107   2.621   3.548  0.2792  2.2463  0.3366
 4023TIP3   OH233703   5.598   0.242   2.440  0.1323 -0.1582  0.1655
 4023TIP3    H133704   5.517   0.209   2.400 -0.5694  1.4710  0.1674
 4023TIP3    H233705   5.611   0.328   2.400  0.9555  0.3195  1.4046
 4024TIP3   OH233706   5.242   3.528   1.490 -0.0952  0.3601 -0.0740
 4024TIP3    H133707   5.173   3.595   1.488 -1.3197 -0.7604 -3.5174
 4024TIP3    H233708   5.310   3.566   1.546 -2.3858  2.6527  1.4044
 4025TIP3   OH233709   4.827   0.628   1.083 -0.1255  0.7541 -0.2460
 4025TIP3    H133710   4.765   0.608   1.013  0.0447  0.0504 -0.2064
 4025TIP3    H233711   4.780   0.688   1.141 -0.3260  1.2153 -0.8705
 4026TIP3   OH233712   5.943   4.290   1.171  0.0284  0.0362  0.4528
 4026TIP3    H133713   5.893   4.331   1.099  1.5196  1.2455  0.0536
 4026TIP3    H233714   5.898   4.319   1.250 -1.9141 -1.6719  0.0669
 4027TIP3   OH233715   4.408   1.309   3.668 -0.3256  0.5492  0.2726
 4027TIP3    H133716   4.493   1.352   3.661  0.0199  0.1156  1.4984
 4027TIP3    H233717   4.423   1.219   3.638 -0.3981  0.5185  0.3275
 4028TIP3   OH233718   3.076   0.475   2.495  0.0708  0.8758 -0.5728
 4028TIP3    H133719   3.081   0.384   2.466  0.3600  0.8944 -0.5837
 4028TIP3    H233720   3.087   0.470   2.590 -0.1662  0.8782 -0.5438
 4029TIP3   OH233721   1.297   3.289   3.131 -0.4425  0.4550  0.0469
 4029TIP3    H133722   1.347   3.366   3.105  0.8681 -0.2428  0.3744
 4029TIP3    H233723   1.361   3.217   3.126 -1.6626 -0.6285 -0.3966
 4030TIP3   OH233724   0.172   3.715   2.601  0.1849 -0.0336 -0.6186
 4030TIP3    H133725   0.265   3.697   2.605 -0.2465 -2.9132 -1.1551
 4030TIP3    H233726   0.145   3.720   2.693  0.7154 -0.2919 -0.4418
 4031TIP3   OH233727   0.801   5.876   2.453  0.0649  0.0492  0.0525
 4031TIP3    H133728   0.738   5.919   2.511  0.0916 -0.1685  0.2436
 4031TIP3    H233729   0.765   5.789   2.438  0.7746 -0.4021  0.9000
 4032TIP3   OH233730   2.581   3.760   4.307 -0.2508 -0.1517 -0.1711
 4032TIP3    H133731   2.511   3.825   4.314  1.4792  1.8602 -0.2294
 4032TIP3    H233732   2.596   3.752   4.213  0.0467 -0.0269 -0.1359
 4033TIP3   OH233733   4.238   4.992   1.771 -0.3526 -0.5840  0.2129
 4033TIP3    H133734   4.311   5.010   1.829 -0.8529 -2.9689  1.7018
 4033TIP3    H233735   4.174   4.947   1.826 -1.7830 -0.9895 -1.6855
 4034TIP3   OH233736   4.091   1.034   4.176 -0.2007 -0.2556 -1.1114
 4034TIP3    H133737   4.076   0.941   4.193 -1.0174 -0.5408 -3.0955
 4034TIP3    H233738   4.185   1.046   4.187 -0.1206 -1.2600 -0.6052
 4035TIP3   OH233739   6.730   4.395   2.430 -0.2518  0.3625 -0.4206
 4035TIP3    H133740   6.640   4.425   2.439 -0.3162 -0.1776  0.8896
 4035TIP3    H233741   6.783   4.475   2.437 -0.4066  0.2865  3.1462
 4036TIP3   OH233742   6.016   6.090   0.186  0.4403  0.1102  0.5225
 4036TIP3    H133743   6.032   6.067   0.095 -3.1205 -0.3669 -0.1199
 4036TIP3    H233744   5.975   6.176   0.183  0.8262  0.3711  1.7678
 4037TIP3   OH233745   5.791   4.349   2.780 -0.2481 -0.0931 -0.4574
 4037TIP3    H133746   5.712   4.310   2.741 -0.2216  0.1106 -0.7201
 4037TIP3    H233747   5.794   4.313   2.869 -0.1382 -0.8215 -0.7411
 4038TIP3   OH233748   6.121   2.987   1.388 -0.2466  0.9021 -0.5617
 4038TIP3    H133749   6.195   3.020   1.440 -0.2464  0.8428 -0.5252
 4038TIP3    H233750   6.079   3.066   1.354 -0.9624  0.9905  0.4995
 4039TIP3   OH233751   1.263   3.080   8.597 -0.3615  1.1745 -0.0366
 4039TIP3    H133752   1.213   3.089   8.516  0.5588 -2.3638 -1.1846
 4039TIP3    H233753   1.199   3.053   8.662 -0.5867  0.5055 -0.5223
 4040TIP3   OH233754   2.507   1.004   0.661  0.9297  0.3919  0.0414
 4040TIP3    H133755   2.425   1.022   0.615  1.1115 -0.5754 -0.7100
 4040TIP3    H233756   2.485   1.012   0.754  0.2092  1.0007 -0.1744
 4041TIP3   OH233757   1.402   4.920   1.528  0.3278 -0.0650 -0.3051
 4041TIP3    H133758   1.368   4.927   1.439  0.0217 -0.7737 -0.2449
 4041TIP3    H233759   1.328   4.891   1.581  0.7063 -0.4036  0.0485
 4042TIP3   OH233760   5.064   1.969   8.776  0.5334 -0.1138  0.1659
 4042TIP3    H133761   5.158   1.948   8.779  0.4031 -0.6514  0.7921
 4042TIP3    H233762   5.036   1.939   8.690  1.3250  1.8524 -0.8452
 4043TIP3   OH233763   0.270   6.057   1.821 -0.6339 -0.0283  0.5122
 4043TIP3    H133764   0.268   6.148   1.790  1.3401 -0.9969 -3.0679
 4043TIP3    H233765   0.309   6.062   1.908 -0.2036  2.5084  0.2552
 4044TIP3   OH233766   2.283   0.491   1.539 -0.0861  0.1383  0.2564
 4044TIP3    H133767   2.228   0.425   1.495 -0.5481  0.3134  0.5557
 4044TIP3    H233768   2.274   0.470   1.633  0.0228  0.4292  0.3305
 4045TIP3   OH233769   5.504   1.292   0.376 -0.8053  1.0914  0.5613
 4045TIP3    H133770   5.518   1.352   0.450 -0.2928  0.6576  0.8214
 4045TIP3    H233771   5.411   1.269   0.381 -0.0174 -2.3476  3.7534
 4046TIP3   OH233772   5.103   6.544   0.003 -0.2801 -0.5592  0.2713
 4046TIP3    H133773   5.048   6.480  -0.043 -0.3905  1.0929 -2.0509
 4046TIP3    H233774   5.190   6.505   0.002 -0.6016 -1.2932  0.1069
 4047TIP3   OH233775   6.249   4.862   8.619 -0.7249  0.0899  0.2443
 4047TIP3    H133776   6.170   4.865   8.566 -1.8916  0.7909  1.9452
 4047TIP3    H233777   6.320   4.849   8.555 -2.0767  0.5347 -1.4280
 4048TIP3   OH233778   0.998   4.984   2.375  0.3513 -0.5160 -0.5692
 4048TIP3    H133779   1.085   5.002   2.409 -0.8037  3.7369  0.8783
 4048TIP3    H233780   1.005   5.000   2.281  0.8731  1.6959 -0.2095
 4049TIP3   OH233781   0.819   0.288   1.867 -0.0849 -0.0033 -0.1571
 4049TIP3    H133782   0.865   0.370   1.884  0.4054 -0.3775  0.3356
 4049TIP3    H233783   0.745   0.314   1.812 -0.6432  0.9519  0.9988
 4050TIP3   OH233784   2.133   1.061   3.425  0.2191  0.0211 -0.3631
 4050TIP3    H133785   2.089   0.977   3.409  4.5223 -2.5143 -0.6186
 4050TIP3    H233786   2.163   1.089   3.339 -0.5868  1.5283 -0.1754
 4051TIP3   OH233787   4.771   0.828   1.466 -0.3730  0.1105 -0.4649
 4051TIP3    H133788   4.734   0.772   1.535 -0.6669  0.3347 -0.4405
 4051TIP3    H233789   4.863   0.837   1.490 -0.9493  2.1939  1.2852
 4052TIP3   OH233790   5.324   0.200   2.870 -0.1787  0.9337 -1.0286
 4052TIP3    H133791   5.234   0.174   2.890 -0.0854  2.0627  1.1391
 4052TIP3    H233792   5.377   0.157   2.936  0.6120  2.0033 -0.9377
 4053TIP3   OH233793   2.923   0.437   0.930 -0.0219  0.3132 -0.1068
 4053TIP3    H133794   2.848   0.486   0.966  0.5077  0.6835  0.5413
 4053TIP3    H233795   2.937   0.475   0.843  0.1164  1.0466  0.2217
 4054TIP3   OH233796   1.741   3.784   8.097  0.1048  0.4789  0.0963
 4054TIP3    H133797   1.727   3.690   8.088 -2.8957  1.0483 -3.7250
 4054TIP3    H233798   1.664   3.816   8.142 -0.4074  1.3448 -1.3151
 4055TIP3   OH233799   5.478   1.408   1.548 -0.5879 -0.0706  0.0115
 4055TIP3    H133800   5.506   1.341   1.485 -1.0776 -2.0716  1.8254
 4055TIP3    H233801   5.418   1.463   1.498  1.6357  0.5106 -2.1938
 4056TIP3   OH233802   0.193   1.960   0.379 -0.1688  0.0739  0.1135
 4056TIP3    H133803   0.145   1.959   0.462  0.9621 -2.8050  0.8369
 4056TIP3    H233804   0.281   1.990   0.404 -0.1955  0.5052 -0.3067
 4057TIP3   OH233805   6.442   5.370   8.625 -0.0532 -0.3283 -0.0698
 4057TIP3    H133806   6.405   5.439   8.570  1.1003 -0.3441 -0.8992
 4057TIP3    H233807   6.426   5.289   8.575  1.8976 -0.2355 -0.9147
 4058TIP3   OH233808   4.061   1.569   1.763 -0.5241  0.0161 -0.0588
 4058TIP3    H133809   4.039   1.661   1.746  0.6826  0.1999 -0.7763
 4058TIP3    H233810   4.151   1.561   1.732 -1.0765 -1.7588 -1.3275
 4059TIP3   OH233811   0.164   3.331   1.426  0.1036 -0.5364 -0.4791
 4059TIP3    H133812   0.139   3.246   1.391  0.4432  0.0159 -2.1382
 4059TIP3    H233813   0.256   3.343   1.400  0.1754  0.1849  0.0465
 4060TIP3   OH233814   6.633   5.861   8.526 -0.0982 -0.5957  0.2309
 4060TIP3    H133815   6.672   5.850   8.439 -1.5264  1.3017 -0.7161
 4060TIP3    H233816   6.648   5.777   8.569  1.5747 -1.2419 -1.4442
 4061TIP3   OH233817   5.886   6.120   3.693  0.3495  0.0526  0.6113
 4061TIP3    H133818   5.952   6.117   3.623  0.4533  0.1330  0.7067
 4061TIP3    H233819   5.860   6.028   3.704  2.6001 -0.4152  2.6225
 4062TIP3   OH233820   5.458   2.440   0.253  0.3519  0.0068  0.2821
 4062TIP3    H133821   5.510   2.435   0.333  2.9195  0.4941 -1.2578
 4062TIP3    H233822   5.516   2.482   0.189 -2.4418  1.9356 -1.1967
 4063TIP3   OH233823   3.045   2.153   3.545  0.3716 -0.0266  0.1125
 4063TIP3    H133824   2.986   2.212   3.497 -1.4257 -1.9626 -0.1842
 4063TIP3    H233825   3.057   2.196   3.630  1.2774  2.0392 -0.9954
 4064TIP3   OH233826   1.656   2.370   1.252 -0.0763  0.0424  0.1295
 4064TIP3    H133827   1.671   2.310   1.179 -1.5938 -0.7448  0.4181
 4064TIP3    H233828   1.743   2.388   1.287  0.7026  0.4676 -1.8785
 4065TIP3   OH233829   5.559   6.344   0.371  0.1678  0.7016  0.2119
 4065TIP3    H133830   5.536   6.283   0.301  0.2613  0.6540  0.2212
 4065TIP3    H233831   5.653   6.330   0.384  0.2904  1.2012 -0.1270
 4066TIP3   OH233832   4.659   4.758   4.126 -0.5664 -0.2218 -0.4188
 4066TIP3    H133833   4.705   4.841   4.107 -1.2642 -0.0242 -1.3131
 4066TIP3    H233834   4.592   4.752   4.058 -1.7320 -0.6136  0.7329
 4067TIP3   OH233835   0.014   5.473   3.324 -0.0571 -0.0095 -0.0021
 4067TIP3    H133836  -0.028   5.519   3.397  1.7009  0.1355  0.9821
 4067TIP3    H233837  -0.010   5.381   3.337 -1.1253  0.2211 -0.2392
 4068TIP3   OH233838   1.946   4.982   2.742  0.6237 -0.0395  0.3400
 4068TIP3    H133839   2.021   4.947   2.791 -0.7368 -4.7650 -0.4398
 4068TIP3    H233840   1.869   4.951   2.790 -0.8376  1.5364 -0.8689
 4069TIP3   OH233841   1.571   0.993   2.545  0.3432  0.4931  0.3238
 4069TIP3    H133842   1.609   1.000   2.632 -0.5631 -1.6422  0.9642
 4069TIP3    H233843   1.530   0.906   2.543 -0.5924  0.8966 -1.8598
 4070TIP3   OH233844   3.578   5.121   0.717  0.5760  0.1368  0.2528
 4070TIP3    H133845   3.654   5.177   0.704 -0.3795  1.3825 -0.1512
 4070TIP3    H233846   3.512   5.154   0.656 -0.5144 -0.4813  1.0403
 4071TIP3   OH233847   6.708   2.923   1.429  0.7280 -0.1006  0.2187
 4071TIP3    H133848   6.755   2.863   1.486  0.5455 -0.8456 -0.3924
 4071TIP3    H233849   6.709   2.880   1.343 -1.7910 -0.5659  0.3565
 4072TIP3   OH233850   2.165   2.989   2.044  0.7008  0.1229 -0.1428
 4072TIP3    H133851   2.254   2.976   2.078  0.5709 -0.7313 -0.1129
 4072TIP3    H233852   2.179   3.027   1.957  1.1361 -0.8468 -0.5165
 4073TIP3   OH233853   4.076   4.044   0.333 -0.7124 -0.7517 -0.3456
 4073TIP3    H133854   3.993   4.086   0.313 -0.7519 -0.5214  0.2638
 4073TIP3    H233855   4.088   4.059   0.427  0.1236 -0.5877 -0.4732
 4074TIP3   OH233856   1.312   1.193   1.565 -0.9531 -0.4862 -0.4614
 4074TIP3    H133857   1.271   1.135   1.629  0.9665 -0.7996  0.5328
 4074TIP3    H233858   1.258   1.272   1.567 -1.2761 -0.7205  1.1070
 4075TIP3   OH233859   4.831   2.150   0.817  0.9931 -0.0965  0.1202
 4075TIP3    H133860   4.829   2.058   0.789 -2.2213 -0.0748 -0.1528
 4075TIP3    H233861   4.788   2.198   0.746 -2.2466  0.7465  2.3860
 4076TIP3   OH233862   0.003   0.149   2.414 -0.2527  0.2100  0.1151
 4076TIP3    H133863  -0.071   0.139   2.474 -0.5095  1.1756 -0.0154
 4076TIP3    H233864  -0.029   0.211   2.348 -0.4555 -1.8008 -1.7784
 4077TIP3   OH233865   4.109   4.363   1.140  0.4961  0.3018 -0.3668
 4077TIP3    H133866   4.188   4.326   1.099 -0.2233  0.5617 -2.0418
 4077TIP3    H233867   4.110   4.455   1.114  0.8021  0.8599  1.4903
 4078TIP3   OH233868   5.761   2.699   2.420 -0.3496 -0.0111 -0.3006
 4078TIP3    H133869   5.757   2.792   2.443  0.9372 -0.1662  0.7260
 4078TIP3    H233870   5.717   2.693   2.336  1.0428  1.8432 -1.2533
 4079TIP3   OH233871   5.801   1.781   1.397 -0.4017  0.5050 -0.0011
 4079TIP3    H133872   5.791   1.851   1.462 -3.5856  1.6134 -1.4610
 4079TIP3    H233873   5.837   1.826   1.320  1.2352 -0.3290  0.2527
 4080TIP3   OH233874   5.656   5.771   0.544  0.0269  0.6905 -0.2408
 4080TIP3    H133875   5.660   5.853   0.595  0.8351  1.3227 -1.2827
 4080TIP3    H233876   5.718   5.713   0.588 -0.3364  0.7258  0.3354
 4081TIP3   OH233877   1.899   3.257   3.221  0.9263  0.1555 -0.1174
 4081TIP3    H133878   1.803   3.264   3.223  0.9448  0.2511  0.7341
 4081TIP3    H233879   1.915   3.172   3.179  0.5643  1.5544 -3.3307
 4082TIP3   OH233880   2.591   5.099   1.565  0.1618 -0.1015  0.0397
 4082TIP3    H133881   2.627   5.185   1.542  3.1172 -1.0878  0.4826
 4082TIP3    H233882   2.525   5.081   1.499  0.1926  2.0684 -0.6457
 4083TIP3   OH233883   0.487   5.097   0.142  0.3746 -0.5113  0.4509
 4083TIP3    H133884   0.395   5.079   0.119  0.2797 -0.8448  1.0581
 4083TIP3    H233885   0.489   5.088   0.237  0.7258  0.9424  0.5993
 4084TIP3   OH233886   2.657   4.329   2.156  0.0950  0.5108 -0.1279
 4084TIP3    H133887   2.585   4.340   2.218 -1.5793  1.3343 -2.0699
 4084TIP3    H233888   2.714   4.404   2.172 -0.4839  0.8910  0.2134
 4085TIP3   OH233889   3.220   5.957   3.210 -0.2514 -0.2230 -0.3569
 4085TIP3    H133890   3.147   5.896   3.219  0.1468 -0.4772  1.8334
 4085TIP3    H233891   3.286   5.924   3.271  1.1887  0.7138 -1.3461
 4086TIP3   OH233892   1.359   4.921   2.743  0.3211  0.0472 -0.1836
 4086TIP3    H133893   1.398   4.937   2.657 -0.7912 -1.6098 -1.0514
 4086TIP3    H233894   1.309   4.841   2.732  0.4000 -0.3871  2.1265
 4087TIP3   OH233895   6.310   0.443   3.584 -0.5412 -0.1150 -0.4111
 4087TIP3    H133896   6.354   0.392   3.652  0.2244 -0.1474 -0.9134
 4087TIP3    H233897   6.373   0.511   3.561 -0.6265 -0.3312 -1.3476
 4088TIP3   OH233898   4.401   3.367   8.576 -0.1383 -0.1806  0.8862
 4088TIP3    H133899   4.383   3.434   8.510  2.8263  0.2181  0.3473
 4088TIP3    H233900   4.363   3.286   8.540 -0.2963  0.4217 -0.3382
 4089TIP3   OH233901   3.176   5.853   3.999 -0.2552  0.0136  0.4281
 4089TIP3    H133902   3.168   5.927   3.939  2.5926  0.0364 -0.0216
 4089TIP3    H233903   3.183   5.894   4.086  1.1911  0.3192  0.1929
 4090TIP3   OH233904   1.355   2.032   0.698  0.3575  0.3030 -0.6476
 4090TIP3    H133905   1.278   2.088   0.697  0.6483  0.7497  0.3366
 4090TIP3    H233906   1.380   2.023   0.606  0.3904  1.9127 -0.8203
 4091TIP3   OH233907   1.303   5.950   0.779 -0.1692 -0.2182 -0.0649
 4091TIP3    H133908   1.258   5.995   0.851 -0.2232 -0.9786  0.3781
 4091TIP3    H233909   1.243   5.959   0.704 -0.4007  0.0173  0.1452
 4092TIP3   OH233910   0.135   4.049   0.438 -0.2162 -0.4784 -0.2500
 4092TIP3    H133911   0.116   4.139   0.411 -0.4871 -0.4824 -0.0743
 4092TIP3    H233912   0.169   4.058   0.527 -0.1999 -0.5449 -0.2496
 4093TIP3   OH233913   3.591   2.631   1.222 -0.0612  0.0399  0.1354
 4093TIP3    H133914   3.555   2.718   1.242 -0.6358 -0.2136  0.2556
 4093TIP3    H233915   3.550   2.607   1.139 -0.2560 -0.3019  0.3281
 4094TIP3   OH233916   6.557   4.929   0.564 -0.4811  0.2971 -1.0019
 4094TIP3    H133917   6.476   4.908   0.518 -0.8293 -0.4130 -0.0913
 4094TIP3    H233918   6.529   4.966   0.647  0.0148 -2.3825  0.4783
 4095TIP3   OH233919   4.267   2.819   8.466 -0.2036  0.2530  0.4914
 4095TIP3    H133920   4.187   2.795   8.419  1.1290 -1.2004 -1.2007
 4095TIP3    H233921   4.274   2.754   8.537 -0.5194  0.3862  0.6441
 4096TIP3   OH233922   2.503   1.769   1.350 -0.0799 -0.3015 -0.1284
 4096TIP3    H133923   2.567   1.743   1.282  1.7329  1.0158  0.9826
 4096TIP3    H233924   2.532   1.856   1.377 -1.6560 -0.1946  1.3161
 4097TIP3   OH233925   2.936   3.600   8.412 -0.7234  0.0501 -0.2806
 4097TIP3    H133926   2.876   3.591   8.338 -1.1326  0.0197  0.0473
 4097TIP3    H233927   2.907   3.533   8.475  1.5341 -2.0532 -1.3362
 4098TIP3   OH233928   0.992   0.115   8.405  0.1887 -0.0518  0.0364
 4098TIP3    H133929   0.901   0.145   8.398  0.5618  1.1194 -0.0264
 4098TIP3    H233930   0.988   0.040   8.464 -0.6082  1.0655  1.4950
 4099TIP3   OH233931   6.483   0.305   2.059 -0.0421 -0.2450  0.1311
 4099TIP3    H133932   6.538   0.227   2.049 -0.2504 -0.3976  0.1816
 4099TIP3    H233933   6.487   0.325   2.153  1.7384  1.0617 -0.1598
 4100TIP3   OH233934   5.860   1.448   3.102  0.3948  0.3178  1.2196
 4100TIP3    H133935   5.836   1.441   3.195 -1.5336  0.1865  0.7672
 4100TIP3    H233936   5.787   1.497   3.063  0.6925 -0.4676 -0.4005
 4101TIP3   OH233937   3.774   4.506   3.326  0.4286 -0.3348  0.4280
 4101TIP3    H133938   3.706   4.553   3.278 -1.2488 -2.6294  0.3917
 4101TIP3    H233939   3.795   4.431   3.270  4.4901  1.2125 -0.4956
 4102TIP3   OH233940   3.363   2.711   1.540 -0.1322 -0.4630 -0.2854
 4102TIP3    H133941   3.424   2.761   1.594 -0.6303 -0.2032  0.0387
 4102TIP3    H233942   3.405   2.625   1.530  0.0888 -0.4278  0.2972
 4103TIP3   OH233943   3.974   0.119   3.628  0.4339  0.2354  0.3047
 4103TIP3    H133944   3.879   0.124   3.618  0.4223  1.0392  0.7620
 4103TIP3    H233945   4.004   0.210   3.631  1.3759  0.0089 -1.1320
 4104TIP3   OH233946   6.751   3.866   0.623 -0.0791 -0.2545 -0.7936
 4104TIP3    H133947   6.770   3.960   0.621  0.7888 -0.4218 -0.7679
 4104TIP3    H233948   6.695   3.852   0.546 -3.4640  0.9071  1.2320
 4105TIP3   OH233949   2.844   5.937   3.258  0.3199 -0.1882 -0.0250
 4105TIP3    H133950   2.794   5.918   3.178  0.7911  0.3606 -0.4567
 4105TIP3    H233951   2.892   5.856   3.275  1.2018  0.1013 -1.0337
 4106TIP3   OH233952   0.155   0.687   1.478 -0.3297  0.0985 -0.2586
 4106TIP3    H133953   0.089   0.617   1.482  1.4524 -1.6363  0.6554
 4106TIP3    H233954   0.206   0.668   1.400 -0.0304  0.5670 -0.1824
 4107TIP3   OH233955   6.439   5.744   0.847  0.0408  0.0325  0.2806
 4107TIP3    H133956   6.418   5.834   0.820  0.4910 -0.3880 -1.6016
 4107TIP3    H233957   6.478   5.704   0.769 -1.4128 -2.2210  0.6036
 4108TIP3   OH233958   6.659   6.192   2.383 -0.4896 -0.3233  0.6127
 4108TIP3    H133959   6.665   6.276   2.339 -1.1427 -0.8029 -0.4164
 4108TIP3    H233960   6.717   6.135   2.333 -0.6558 -0.6810  0.8282
 4109TIP3   OH233961   5.014   4.344   0.167 -0.6689 -0.1424 -0.4166
 4109TIP3    H133962   5.041   4.267   0.217 -1.1032 -1.2570 -1.8297
 4109TIP3    H233963   5.074   4.346   0.092  1.1150  2.4917  0.9281
 4110TIP3   OH233964   0.394   0.129   3.279  0.1110  0.5688 -0.0376
 4110TIP3    H133965   0.392   0.175   3.195 -1.5625  1.3877  0.4082
 4110TIP3    H233966   0.319   0.070   3.276 -0.8762  1.6674  1.4071
 4111TIP3   OH233967   4.827   3.067   2.399  0.9637  0.1851 -0.3801
 4111TIP3    H133968   4.830   3.163   2.397  0.1212  0.2054 -0.9889
 4111TIP3    H233969   4.842   3.041   2.308  2.0991 -0.3022 -0.0664
 4112TIP3   OH233970   4.864   5.663   0.876  0.0558 -0.0313  0.3813
 4112TIP3    H133971   4.849   5.570   0.891  0.4312  0.1325  1.8150
 4112TIP3    H233972   4.914   5.666   0.795 -0.0937 -1.0579  0.2366
 4113TIP3   OH233973   1.580   3.872   8.563  0.3441  0.0276  0.1156
 4113TIP3    H133974   1.574   3.832   8.650 -0.7619 -1.2740 -0.5157
 4113TIP3    H233975   1.674   3.885   8.549  0.6104 -0.7028  1.0848
 4114TIP3   OH233976   5.639   5.854   1.424 -0.0563 -0.5025 -0.3836
 4114TIP3    H133977   5.619   5.787   1.489 -0.3306 -0.8086 -0.7832
 4114TIP3    H233978   5.734   5.848   1.411  0.0622 -0.1709  0.2777
 4115TIP3   OH233979   0.633   3.924   1.002  0.0866  0.1280 -0.0979
 4115TIP3    H133980   0.708   3.866   0.990 -1.0179 -1.7325  1.3514
 4115TIP3    H233981   0.580   3.913   0.924  0.5106  0.1862 -0.3938
 4116TIP3   OH233982   5.699   4.224   1.996  0.3832 -0.0051 -0.1995
 4116TIP3    H133983   5.754   4.282   2.050 -1.4992  3.6319 -1.8346
 4116TIP3    H233984   5.760   4.163   1.956  2.3298 -0.2445  2.7844
 4117TIP3   OH233985   4.421   5.541   0.795 -0.0065 -0.2948 -0.1804
 4117TIP3    H133986   4.330   5.554   0.767  0.2837 -0.3982 -1.2140
 4117TIP3    H233987   4.460   5.629   0.791 -0.3011 -0.0724  1.2275
 4118TIP3   OH233988   6.252   2.340   8.127  0.4162  0.6392  0.3139
 4118TIP3    H133989   6.171   2.292   8.108  0.3368  0.3273  1.4038
 4118TIP3    H233990   6.245   2.364   8.219  1.0110  1.7021  0.1051
 4119TIP3   OH233991   2.479   5.684   0.022  0.2963 -0.0379  0.0574
 4119TIP3    H133992   2.414   5.743  -0.017  0.1439 -0.0901  0.2326
 4119TIP3    H233993   2.439   5.597   0.015  1.6797 -0.5797 -2.7968
 4120TIP3   OH233994   1.816   5.031   2.212 -0.5918  0.4923 -0.6237
 4120TIP3    H133995   1.907   5.033   2.181 -0.4781 -0.1515 -0.3428
 4120TIP3    H233996   1.810   5.105   2.272  0.4143 -0.7782  1.1477
 4121TIP3   OH233997   5.855   6.752   1.660 -0.4499  0.0059 -0.0259
 4121TIP3    H133998   5.909   6.768   1.738  1.8876  1.3518 -1.7944
 4121TIP3    H233999   5.853   6.657   1.651 -1.2236 -0.2028  1.9381
 4122TIP3   OH234000   2.196   2.284   0.202  0.8156 -0.2331 -0.4237
 4122TIP3    H134001   2.248   2.298   0.123 -0.9306  0.9182 -1.4517
 4122TIP3    H234002   2.204   2.365   0.252 -1.7722  0.9730 -1.7627
 4123TIP3   OH234003   4.230   4.776   3.410  0.0335 -0.2286  0.3420
 4123TIP3    H134004   4.291   4.734   3.470  0.0620 -0.4400  0.1663
 4123TIP3    H234005   4.286   4.823   3.348 -0.0084  0.5895  0.9053
 4124TIP3   OH234006   4.224   2.918   0.133  0.0628 -0.1070  0.2256
 4124TIP3    H134007   4.248   2.999   0.179  2.1330 -0.3670 -0.3220
 4124TIP3    H234008   4.222   2.943   0.041 -4.2383  0.4571  0.2739
 4125TIP3   OH234009   6.322   2.750   1.766 -0.6724  0.0242 -0.3469
 4125TIP3    H134010   6.332   2.698   1.686  0.1324 -2.9007  1.5158
 4125TIP3    H234011   6.228   2.752   1.783 -0.8072  0.2911 -1.0948
 4126TIP3   OH234012   4.772   5.409   0.682  0.2425  0.3297  0.4726
 4126TIP3    H134013   4.684   5.372   0.676 -0.6476  2.0927  1.6575
 4126TIP3    H234014   4.826   5.338   0.716 -0.9532 -0.4921  0.7135
 4127TIP3   OH234015   5.085   4.991   1.938  0.5183  0.3383  0.2805
 4127TIP3    H134016   5.062   5.026   2.024  1.2354  0.1184  0.5694
 4127TIP3    H234017   5.112   4.901   1.955 -1.0707 -0.2999 -0.4274
 4128TIP3   OH234018   2.565   4.769   1.484 -0.3218 -0.1150  0.3240
 4128TIP3    H134019   2.522   4.766   1.569 -0.9876 -0.6176 -0.0170
 4128TIP3    H234020   2.608   4.855   1.481 -0.9513  0.2249  0.8481
 4129TIP3   OH234021   5.691   0.263   1.742  0.1661  0.0235 -0.1887
 4129TIP3    H134022   5.615   0.206   1.730  0.7169 -1.1546  1.5736
 4129TIP3    H234023   5.693   0.317   1.662 -1.2266 -1.3985 -1.2485
 4130TIP3   OH234024   0.397   5.629   2.799 -0.0407 -0.0200 -0.3890
 4130TIP3    H134025   0.340   5.701   2.827 -0.8784 -1.0830  0.7917
 4130TIP3    H234026   0.337   5.554   2.790  0.4173 -0.1411 -3.7020
 4131TIP3   OH234027   1.804   0.218   1.485 -0.4710  0.5076  0.1354
 4131TIP3    H134028   1.749   0.270   1.426  0.6221  0.4389 -0.9934
 4131TIP3    H234029   1.824   0.138   1.435  2.1791  1.3441 -0.2952
 4132TIP3   OH234030   2.339   4.612   2.747 -0.1389 -0.5609 -0.0313
 4132TIP3    H134031   2.434   4.614   2.763  0.0798  0.5446 -1.2808
 4132TIP3    H234032   2.330   4.587   2.655 -0.9195  1.4630 -0.5744
 4133TIP3   OH234033   1.953   4.418   2.032  0.1618  0.3162 -0.2584
 4133TIP3    H134034   1.939   4.324   2.047  0.0861  0.5417  1.1994
 4133TIP3    H234035   1.931   4.459   2.115 -2.0374  1.8854 -1.4998
 4134TIP3   OH234036   4.869   5.467   8.621  0.0021  0.0209  0.3197
 4134TIP3    H134037   4.929   5.458   8.547 -0.9019 -0.1477 -0.4059
 4134TIP3    H234038   4.782   5.475   8.581 -0.5557 -0.5640  1.3757
 4135TIP3   OH234039   6.217   4.621   3.423  0.1628  0.3073 -0.1780
 4135TIP3    H134040   6.159   4.547   3.444  0.0089  0.7145  0.9093
 4135TIP3    H234041   6.305   4.587   3.440  0.1685  0.0552 -0.6916
 4136TIP3   OH234042   5.910   5.920   3.295  0.4918  0.7886 -0.3533
 4136TIP3    H134043   5.917   5.826   3.311  0.3611  0.0637 -3.7585
 4136TIP3    H234044   5.996   5.955   3.320 -0.0804  0.2279  2.8281
 4137TIP3   OH234045   2.671   5.319   1.440 -0.0554  0.1104  0.2312
 4137TIP3    H134046   2.757   5.360   1.433  0.8278 -1.8020 -0.6710
 4137TIP3    H234047   2.617   5.385   1.485  1.8896  1.3026  0.9515
 4138TIP3   OH234048   3.998   1.071   0.752 -0.4572 -0.0355  0.0042
 4138TIP3    H134049   3.944   1.149   0.741  0.9973  1.0935  0.4686
 4138TIP3    H234050   4.021   1.071   0.845  2.3244  0.9715 -0.5710
 4139TIP3   OH234051   4.622   6.642   3.118 -0.1033 -0.2346 -0.2445
 4139TIP3    H134052   4.585   6.649   3.206 -1.8800  0.2902 -0.9834
 4139TIP3    H234053   4.597   6.554   3.088 -0.5542  0.0313 -0.6598
 4140TIP3   OH234054   2.842   0.321   3.974 -0.7128 -0.9097 -0.2092
 4140TIP3    H134055   2.855   0.273   4.055  1.1596  0.3244  0.2871
 4140TIP3    H234056   2.926   0.363   3.957 -2.0082  1.5792 -1.0101
 4141TIP3   OH234057   3.864   0.030   0.738  0.2604  0.3485 -0.0341
 4141TIP3    H134058   3.953   0.064   0.745  0.6772 -0.6092 -0.3986
 4141TIP3    H234059   3.846   0.028   0.644  1.4006 -3.1154 -0.3217
 4142TIP3   OH234060   1.998   0.624   1.406  0.6016 -0.2906 -0.6653
 4142TIP3    H134061   2.085   0.665   1.406  0.8452 -0.7291  0.6337
 4142TIP3    H234062   1.985   0.598   1.497 -1.1380  0.2432 -0.7280
 4143TIP3   OH234063   5.257   6.550   0.431 -0.0774  0.0409 -0.5538
 4143TIP3    H134064   5.174   6.581   0.467  0.0992  0.7683 -0.7542
 4143TIP3    H234065   5.305   6.518   0.507 -1.1292 -1.8441 -0.6191
 4144TIP3   OH234066   4.760   2.275   2.700 -0.1854  0.4125 -0.1262
 4144TIP3    H134067   4.714   2.354   2.727  1.2488  0.8353  1.2439
 4144TIP3    H234068   4.799   2.297   2.615  1.7457  1.8815  1.0787
 4145TIP3   OH234069   3.287   4.731   1.640 -0.0852  0.2236  0.5185
 4145TIP3    H134070   3.309   4.654   1.588  0.2797  1.5024 -1.3201
 4145TIP3    H234071   3.193   4.724   1.655  0.0926 -1.0237  1.1924
 4146TIP3   OH234072   5.538   3.616   0.162  0.0207 -0.5642  0.1816
 4146TIP3    H134073   5.446   3.593   0.159 -0.1840  0.3410 -1.2487
 4146TIP3    H234074   5.578   3.546   0.215 -1.2099 -1.8554 -0.5119
 4147TIP3   OH234075   2.712   3.810   2.194  0.2528 -0.2737 -0.2017
 4147TIP3    H134076   2.783   3.814   2.259  1.0295 -0.9133 -0.9821
 4147TIP3    H234077   2.650   3.747   2.231 -1.4281  2.3862  1.8863
 4148TIP3   OH234078   1.700   3.186   4.645  0.1638 -0.5944  0.3117
 4148TIP3    H134079   1.717   3.178   4.552  3.1569 -0.9987  0.7953
 4148TIP3    H234080   1.727   3.275   4.667 -0.2796 -0.5882  0.8680
 4149TIP3   OH234081   3.067   2.142   0.800  0.0225  0.0671  0.1460
 4149TIP3    H134082   3.078   2.113   0.709  1.4562  0.9008  0.0330
 4149TIP3    H234083   2.985   2.101   0.828 -0.2310 -0.5398 -1.3863
 4150TIP3   OH234084   6.629   1.571   0.294  0.2122  0.2676 -0.0136
 4150TIP3    H134085   6.556   1.631   0.307 -0.2682 -0.0778 -1.0004
 4150TIP3    H234086   6.683   1.612   0.227  0.4533  0.1045  0.0786
 4151TIP3   OH234087   4.542   1.539   2.732  0.6965  0.0887  0.7452
 4151TIP3    H134088   4.592   1.530   2.813 -1.2308  1.1035  2.1083
 4151TIP3    H234089   4.590   1.605   2.682  2.5271 -1.3501  0.5010
 4152TIP3   OH234090   0.822   5.578   0.425  0.1215  0.7542 -0.6161
 4152TIP3    H134091   0.892   5.641   0.404  2.1990 -1.6020 -1.2316
 4152TIP3    H234092   0.864   5.514   0.483 -1.3302 -1.0665 -1.4687
 4153TIP3   OH234093   5.035   3.791   0.799  0.4021 -0.4626  0.7751
 4153TIP3    H134094   4.979   3.715   0.814  1.4113 -1.1087  1.3382
 4153TIP3    H234095   5.114   3.774   0.850  0.5937  1.0297  1.0385
 4154TIP3   OH234096   1.502   2.870   0.696 -0.0859 -0.6263  0.1746
 4154TIP3    H134097   1.588   2.829   0.703  1.0551  1.4943 -0.7315
 4154TIP3    H234098   1.485   2.907   0.782  1.3421  1.5658 -0.4265
 4155TIP3   OH234099   2.292   1.313   3.330 -0.1585  0.1220  0.7558
 4155TIP3    H134100   2.260   1.273   3.411 -0.8160  0.2281  0.5519
 4155TIP3    H234101   2.384   1.285   3.324 -1.2486 -3.6864 -0.7729
 4156TIP3   OH234102   1.317   5.594   2.628  0.4765 -0.3687 -0.2007
 4156TIP3    H134103   1.412   5.606   2.621  0.1504  2.9955 -0.5290
 4156TIP3    H234104   1.286   5.599   2.537  0.0513 -3.6209 -0.3515
 4157TIP3   OH234105   4.129   4.566   3.270 -0.0526  0.1660 -0.2823
 4157TIP3    H134106   4.189   4.530   3.205 -1.5757  0.2624 -1.8161
 4157TIP3    H234107   4.162   4.655   3.285  1.7035 -0.6275  0.9398
 4158TIP3   OH234108   2.030   4.162   0.420 -0.1650 -0.3474 -0.2009
 4158TIP3    H134109   1.998   4.117   0.498  1.0732 -0.0368  0.5139
 4158TIP3    H234110   1.993   4.250   0.426  2.7100  0.8829  2.0111
 4159TIP3   OH234111   2.048   5.972   3.299  0.0741  0.0055  0.1712
 4159TIP3    H134112   1.992   5.911   3.348  1.9776  0.4368  3.1395
 4159TIP3    H234113   2.061   5.929   3.214 -0.8330 -2.4133  1.1611
 4160TIP3   OH234114   5.071   5.180   8.584 -0.5010  0.2058 -0.0800
 4160TIP3    H134115   5.000   5.166   8.522 -1.6367  1.1893  0.9481
 4160TIP3    H234116   5.136   5.230   8.535  1.0954 -3.3881 -2.0653
 4161TIP3   OH234117   0.032   2.092   3.181 -0.2217  0.4856 -0.2206
 4161TIP3    H134118  -0.026   2.098   3.258  0.2517  1.0590  0.0964
 4161TIP3    H234119   0.112   2.137   3.208  1.5556 -2.7072  0.3992
 4162TIP3   OH234120   3.553   3.580   2.461  0.1782 -0.0818 -0.3379
 4162TIP3    H134121   3.635   3.544   2.427  0.0093 -1.2036  0.3926
 4162TIP3    H234122   3.487   3.516   2.435 -0.2084 -0.0510  0.5374
 4163TIP3   OH234123   4.714   2.450   1.573  0.1178  0.2857 -0.1850
 4163TIP3    H134124   4.643   2.392   1.546 -0.4784  0.7403  0.3657
 4163TIP3    H234125   4.735   2.501   1.495 -2.6943  2.7382  0.4958
 4164TIP3   OH234126   4.964   5.829   0.494  0.0898  0.1198  0.2830
 4164TIP3    H134127   4.891   5.781   0.533 -0.6392  0.7302 -0.3029
 4164TIP3    H234128   5.014   5.763   0.447 -0.8847 -0.1027 -0.4849
 4165TIP3   OH234129   2.884   5.572   1.719 -0.1195  0.1829 -0.6393
 4165TIP3    H134130   2.790   5.559   1.716  0.0574 -0.9660 -1.8308
 4165TIP3    H234131   2.916   5.507   1.781 -0.1253  0.7588 -0.0208
 4166TIP3   OH234132   2.201   1.719   2.114  0.2570  0.7308  0.1405
 4166TIP3    H134133   2.275   1.695   2.057  0.8913  1.1830  0.7538
 4166TIP3    H234134   2.221   1.808   2.142 -0.6969  0.9780  0.0552
 4167TIP3   OH234135   1.015   0.499   0.731 -0.7065  0.5371 -0.1945
 4167TIP3    H134136   0.991   0.588   0.705 -2.4642 -0.0747 -0.8329
 4167TIP3    H234137   1.032   0.506   0.825  0.9437  1.8555 -0.5557
 4168TIP3   OH234138   5.029   2.564   1.336 -0.2067  0.1759  0.0276
 4168TIP3    H134139   5.061   2.515   1.412 -1.1263  1.2260  1.1374
 4168TIP3    H234140   5.108   2.601   1.296  0.4046 -1.4099 -0.2950
 4169TIP3   OH234141   1.442   4.828   0.603 -0.1736 -0.1361 -0.3009
 4169TIP3    H134142   1.419   4.820   0.510  0.7379  1.2742 -0.6837
 4169TIP3    H234143   1.534   4.801   0.608 -0.6099 -1.5535  0.4550
 4170TIP3   OH234144   3.162   2.184   1.575  0.4360  0.0471  0.6089
 4170TIP3    H134145   3.130   2.114   1.518 -2.3011  0.3415  1.6316
 4170TIP3    H234146   3.251   2.199   1.545 -0.3612 -0.7533 -2.6806
 4171TIP3   OH234147   5.820   3.445   1.139 -0.0609 -0.1868  0.2997
 4171TIP3    H134148   5.823   3.471   1.047 -1.5711 -0.9639 -0.0132
 4171TIP3    H234149   5.891   3.494   1.181 -0.4879  1.5848 -0.9205
 4172TIP3   OH234150   1.357   2.647   1.692 -0.3631 -0.3090  0.5745
 4172TIP3    H134151   1.305   2.722   1.722  1.0464  0.4575  1.2195
 4172TIP3    H234152   1.348   2.649   1.596 -0.3857  0.6752  0.5802
 4173TIP3   OH234153   3.319   4.512   1.447  0.1936  0.5913  0.1933
 4173TIP3    H134154   3.268   4.497   1.368  1.3214  0.2037 -0.4857
 4173TIP3    H234155   3.307   4.432   1.499  0.8213  0.1274 -0.3691
 4174TIP3   OH234156   2.536   2.269   1.953  0.1194  0.0062  0.0203
 4174TIP3    H134157   2.594   2.194   1.941  0.8037  0.6273 -0.6522
 4174TIP3    H234158   2.546   2.321   1.873 -0.1491  0.9477  0.5793
 4175TIP3   OH234159   0.906   4.493   8.253  0.7820 -0.1462  0.5864
 4175TIP3    H134160   0.947   4.407   8.242  2.1142  0.7314 -2.4721
 4175TIP3    H234161   0.818   4.482   8.218  1.8837  0.2767 -2.6782
 4176TIP3   OH234162   4.386   6.210   0.766  0.0636  0.0528 -0.2847
 4176TIP3    H134163   4.421   6.121   0.768 -0.1201 -0.0085  0.6391
 4176TIP3    H234164   4.306   6.203   0.715 -1.2347 -0.8257  1.7332
 4177TIP3   OH234165   1.332   3.663   8.399  0.2458 -0.0759  0.7361
 4177TIP3    H134166   1.259   3.656   8.338  1.4557  1.5784 -1.0136
 4177TIP3    H234167   1.295   3.707   8.476 -0.7555  0.1036  0.1683
 4178TIP3   OH234168   2.687   5.339   2.757 -0.4609  0.1484 -0.2266
 4178TIP3    H134169   2.772   5.351   2.713  0.0727 -0.4488  0.5953
 4178TIP3    H234170   2.622   5.357   2.690  0.3273 -0.0287 -1.0563
 4179TIP3   OH234171   2.993   4.185   0.769 -0.4355  0.5189 -0.1532
 4179TIP3    H134172   2.978   4.090   0.772 -1.0024  0.6304  0.6748
 4179TIP3    H234173   3.065   4.200   0.830 -1.5074  0.8232  1.0812
 4180TIP3   OH234174   1.381   2.247   2.484  0.7178  0.2829  0.1797
 4180TIP3    H134175   1.371   2.155   2.460 -1.2592  0.4560  0.1648
 4180TIP3    H234176   1.339   2.295   2.412  2.3868  1.2617 -0.1951
 4181TIP3   OH234177   1.632   0.222   1.701 -0.1515  0.2368 -0.3606
 4181TIP3    H134178   1.664   0.216   1.791 -0.5106 -0.6494 -0.2838
 4181TIP3    H234179   1.705   0.261   1.653  0.1867  0.3594  0.2360
 4182TIP3   OH234180   5.784   4.627   0.817 -0.0757  0.2949  0.6095
 4182TIP3    H134181   5.867   4.579   0.826 -1.3173 -2.4002 -1.0099
 4182TIP3    H234182   5.776   4.677   0.898  1.6700 -1.7532  2.1574
 4183TIP3   OH234183   5.530   3.074   2.005 -0.3623  0.0660 -0.4084
 4183TIP3    H134184   5.507   3.164   2.028  0.2540  0.3271 -0.7753
 4183TIP3    H234185   5.538   3.030   2.090 -1.1274  0.2316 -0.2426
 4184TIP3   OH234186   0.800   5.616   8.200  0.2158 -0.0047 -0.4290
 4184TIP3    H134187   0.877   5.561   8.215  0.5781  0.4278 -0.6483
 4184TIP3    H234188   0.733   5.556   8.167  0.8192 -0.2054 -1.3264
 4185TIP3   OH234189   1.268   5.578   2.367 -0.1194 -0.2152 -0.5532
 4185TIP3    H134190   1.275   5.613   2.277 -1.1669 -0.7219 -0.8366
 4185TIP3    H234191   1.320   5.498   2.365  0.4917  0.1687 -0.4879
 4186TIP3   OH234192   2.062   2.392   8.034 -0.3474  0.4367 -0.3666
 4186TIP3    H134193   2.046   2.473   8.082  1.9972 -0.1217  1.6237
 4186TIP3    H234194   2.130   2.347   8.086 -0.0927 -1.8421 -2.4756
 4187TIP3   OH234195   2.266   3.135   8.721 -0.2271  0.7408 -0.3874
 4187TIP3    H134196   2.173   3.114   8.714 -0.0041 -1.4234  1.8156
 4187TIP3    H234197   2.310   3.061   8.677  0.4700  1.1185 -0.3428
 4188TIP3   OH234198   2.374   4.997   1.416  0.3495  0.0088  0.1447
 4188TIP3    H134199   2.362   5.080   1.370  1.1747 -0.6427 -1.3097
 4188TIP3    H234200   2.302   4.995   1.480  1.2488  2.5604  1.3775
 4189TIP3   OH234201   5.333   4.260   3.237 -0.1285 -0.3140 -0.2695
 4189TIP3    H134202   5.379   4.289   3.158 -1.1443 -1.1050 -1.1819
 4189TIP3    H234203   5.401   4.254   3.304  0.5408  1.7204 -0.6893
 4190TIP3   OH234204   2.855   3.203   0.349  0.0126 -0.3708  0.0704
 4190TIP3    H134205   2.873   3.240   0.435 -0.3609 -3.6306  1.7144
 4190TIP3    H234206   2.941   3.199   0.306  0.1860  1.3599  0.2048
 4191TIP3   OH234207   3.335   4.708   0.428  0.0261 -0.0051 -0.0827
 4191TIP3    H134208   3.417   4.735   0.468 -0.7701  0.1400  1.5140
 4191TIP3    H234209   3.355   4.703   0.334  1.9519 -0.3738  0.3025
 4192TIP3   OH234210   3.121   4.645   2.887 -0.0747 -0.1094  0.3858
 4192TIP3    H134211   3.078   4.724   2.920  0.1159 -0.8572  2.6161
 4192TIP3    H234212   3.197   4.678   2.839  1.8677  1.1790  3.9189
 4193TIP3   OH234213   3.806   5.450   0.882 -0.4631 -0.0344 -0.5051
 4193TIP3    H134214   3.882   5.461   0.939 -2.4463  1.8591  1.9939
 4193TIP3    H234215   3.777   5.360   0.899  0.8691 -0.6211 -1.1455
 4194TIP3   OH234216   2.533   2.968   1.330  0.4723 -0.2059  0.0362
 4194TIP3    H134217   2.622   3.001   1.345  0.1935  0.7405 -0.3428
 4194TIP3    H234218   2.546   2.885   1.284  1.1487  0.4120 -0.9194
 4195TIP3   OH234219   1.020   0.960   3.239 -0.1083 -0.3952 -0.0532
 4195TIP3    H134220   1.032   0.973   3.333  1.3963 -0.8430 -0.1578
 4195TIP3    H234221   1.067   1.032   3.199  0.2669 -0.8704 -0.4761
 4196TIP3   OH234222   5.618   2.706   0.626 -0.3708 -0.7415 -0.0744
 4196TIP3    H134223   5.575   2.781   0.584  0.7879 -1.4970 -2.8158
 4196TIP3    H234224   5.670   2.744   0.696  0.0657  1.0227 -1.2927
 4197TIP3   OH234225   0.674   0.204   8.642  0.6108  0.6708 -0.2234
 4197TIP3    H134226   0.689   0.201   8.548  1.3145 -1.1184 -0.0971
 4197TIP3    H234227   0.594   0.256   8.652  0.0492  0.1967 -1.8664
 4198TIP3   OH234228   1.454   2.032   0.432 -0.7877  0.0907  0.0991
 4198TIP3    H134229   1.515   1.970   0.392 -1.4554  0.7821 -2.1349
 4198TIP3    H234230   1.432   2.093   0.362 -0.9745  2.2661  1.9226
 4199TIP3   OH234231   3.873   5.013   0.753  0.4651 -0.1734  0.1229
 4199TIP3    H134232   3.821   5.072   0.699 -0.8604 -0.6740  0.8127
 4199TIP3    H234233   3.879   4.932   0.702 -0.2557 -0.4335  0.4353
 4200TIP3   OH234234   0.764   3.795   2.238  0.4643 -0.2264 -0.2881
 4200TIP3    H134235   0.686   3.787   2.184 -0.3885  0.1580  0.8552
 4200TIP3    H234236   0.751   3.875   2.289  1.1705 -0.6459  0.5875
 4201TIP3   OH234237   1.906   2.712   0.983  0.0917 -0.6309 -0.3825
 4201TIP3    H134238   1.927   2.801   1.010  0.0287 -0.9119  0.6015
 4201TIP3    H234239   1.910   2.660   1.063  2.0032 -1.8863 -1.2085
 4202TIP3   OH234240   6.353   4.699   0.656  0.4714  0.4197  0.4788
 4202TIP3    H134241   6.355   4.757   0.580  0.6375 -0.2246 -0.0179
 4202TIP3    H234242   6.362   4.757   0.731  0.4480  1.0513 -0.0012
 4203TIP3   OH234243   1.047   0.768   1.276 -0.2265 -0.4615  0.1568
 4203TIP3    H134244   1.021   0.677   1.262 -0.0624 -0.5474  0.3839
 4203TIP3    H234245   1.107   0.763   1.351 -1.3258  0.0128  1.1028
 4204TIP3   OH234246   6.809   1.044   0.639  0.7008  0.7758 -0.5654
 4204TIP3    H134247   6.840   1.129   0.673  1.6635 -0.4467  1.8564
 4204TIP3    H234248   6.838   0.981   0.705  0.7233 -1.5640 -2.7082
 4205TIP3   OH234249   5.270   5.153   0.198  0.4106  0.0371  0.1184
 4205TIP3    H134250   5.238   5.213   0.130 -0.3922  0.5500  0.9270
 4205TIP3    H234251   5.231   5.068   0.175  1.1176 -0.0790 -0.7251
 4206TIP3   OH234252   3.313   2.583   3.604 -0.0424 -0.2026  0.1959
 4206TIP3    H134253   3.224   2.614   3.619 -0.2709 -0.9397  0.3787
 4206TIP3    H234254   3.368   2.659   3.622 -0.6725  0.4533 -0.5918
 4207TIP3   OH234255   5.891   3.528   3.226 -0.1353 -0.3941 -0.5683
 4207TIP3    H134256   5.884   3.466   3.154 -0.4193 -0.9185 -0.0983
 4207TIP3    H234257   5.809   3.517   3.275  0.8430 -1.4301  0.9294
 4208TIP3   OH234258   5.579   0.361   2.854  0.4905  0.0930  0.1956
 4208TIP3    H134259   5.540   0.419   2.788  2.0375  1.3131  0.2947
 4208TIP3    H234260   5.526   0.282   2.851  0.2436  0.2890 -2.1997
 4209TIP3   OH234261   5.981   3.502   1.660 -0.4295 -0.6482 -0.6934
 4209TIP3    H134262   6.051   3.548   1.614  1.0065  0.6892  2.4937
 4209TIP3    H234263   5.902   3.553   1.642  0.4645  0.9775 -0.1381
 4210TIP3   OH234264   5.947   3.006   8.654 -0.0453  0.1021 -0.3913
 4210TIP3    H134265   5.940   3.072   8.585 -1.0940 -2.1926 -2.6195
 4210TIP3    H234266   6.039   2.980   8.653  0.0047  0.2888 -0.7221
 4211TIP3   OH234267   2.354   6.273   1.151  0.7214 -0.3454  0.3691
 4211TIP3    H134268   2.372   6.185   1.117 -0.3666  0.1701 -1.7577
 4211TIP3    H234269   2.267   6.295   1.117  0.9369  1.5206  0.8939
 4212TIP3   OH234270   3.560   2.843   2.611  0.3177  0.4260  0.5914
 4212TIP3    H134271   3.613   2.793   2.548 -1.1032  0.8405 -1.0075
 4212TIP3    H234272   3.546   2.782   2.684  0.6298 -0.6701 -0.2320
 4213TIP3   OH234273   1.508   1.281   2.027 -0.1774  0.0952  0.1712
 4213TIP3    H134274   1.556   1.249   1.950  0.5304  0.9100  0.2515
 4213TIP3    H234275   1.420   1.300   1.994  0.0391  0.1781 -0.3747
 4214TIP3   OH234276   6.034   1.585   0.908  0.6000 -0.1607  0.3933
 4214TIP3    H134277   5.988   1.539   0.838 -0.8688  1.0974  0.4634
 4214TIP3    H234278   6.022   1.530   0.985  0.2901 -0.4662  0.1331
 4215TIP3   OH234279   4.585   5.881   1.840 -0.0540 -0.8168 -0.9486
 4215TIP3    H134280   4.662   5.824   1.832 -1.4317 -3.1358  0.8423
 4215TIP3    H234281   4.523   5.846   1.776 -0.5837 -0.7301 -0.4885
 4216TIP3   OH234282   4.212   6.539   3.121  0.3930 -0.2665  0.0089
 4216TIP3    H134283   4.271   6.589   3.177 -0.4714  1.0668 -0.2188
 4216TIP3    H234284   4.136   6.522   3.177  0.4029 -0.7516 -0.1256
 4217TIP3   OH234285   1.608   4.697   2.171 -0.3048  0.3194  0.2025
 4217TIP3    H134286   1.556   4.757   2.118  1.5609  1.1299 -0.8063
 4217TIP3    H234287   1.613   4.616   2.119  0.8758  0.8492 -0.5438
 4218TIP3   OH234288   6.333   1.565   8.787  0.0943  0.8918 -0.4699
 4218TIP3    H134289   6.372   1.652   8.798  0.5603  0.7451 -0.9453
 4218TIP3    H234290   6.397   1.515   8.737 -0.0381  0.1745  0.0517
 4219TIP3   OH234291   5.628   4.820   0.669 -0.0283 -0.1096 -0.7911
 4219TIP3    H134292   5.678   4.756   0.719  0.7607 -0.9241 -2.5526
 4219TIP3    H234293   5.609   4.889   0.732 -0.1815 -1.6545  0.9611
 4220TIP3   OH234294   1.524   3.000   0.383 -0.2608 -0.0769 -0.1013
 4220TIP3    H134295   1.496   3.070   0.325  0.7846  0.5547  0.1128
 4220TIP3    H234296   1.476   2.923   0.355 -0.6066  0.4836 -1.0628
 4221TIP3   OH234297   0.009   4.753   3.668 -0.1057  0.1673  0.2002
 4221TIP3    H134298  -0.001   4.769   3.762 -2.3672 -1.0154  0.2137
 4221TIP3    H234299   0.011   4.658   3.659 -1.5081  0.2106 -1.0419
 4222TIP3   OH234300   2.041   4.761   4.049 -0.0798 -0.7504 -0.2948
 4222TIP3    H134301   2.060   4.794   3.961  1.9464 -1.3259 -0.1285
 4222TIP3    H234302   2.001   4.676   4.034  0.0856 -0.7648 -0.6681
 4223TIP3   OH234303   6.102   1.913   3.238 -0.0965 -0.2437  0.1126
 4223TIP3    H134304   6.144   1.912   3.152 -0.7135  2.1244 -0.2773
 4223TIP3    H234305   6.012   1.885   3.220 -0.1427 -0.0420  0.0201
 4224TIP3   OH234306   3.243   1.236   0.469  0.3572 -0.1375  0.3362
 4224TIP3    H134307   3.160   1.266   0.508  0.9024  1.5680  0.3002
 4224TIP3    H234308   3.285   1.186   0.538  0.1783  0.7113  1.0861
 4225TIP3   OH234309   3.526   0.205   2.718  0.2179 -0.4395  0.6763
 4225TIP3    H134310   3.548   0.295   2.746 -0.0498  0.0581 -0.6573
 4225TIP3    H234311   3.454   0.216   2.656 -1.0907 -1.7381  1.8870
 4226TIP3   OH234312   0.574   1.345   3.734 -0.2350  0.6740 -0.9165
 4226TIP3    H134313   0.514   1.331   3.661  1.0465  0.3406 -1.9541
 4226TIP3    H234314   0.588   1.440   3.736  0.2407  0.6247 -1.5543
 4227TIP3   OH234315   2.737   5.987   0.087  0.1351  0.3824 -0.2762
 4227TIP3    H134316   2.731   5.979   0.183  0.5612  3.1046  0.0787
 4227TIP3    H234317   2.825   6.020   0.072 -0.6310  2.1185 -1.3470
 4228TIP3   OH234318   1.714   0.682   2.605 -0.0308 -0.6512 -0.0779
 4228TIP3    H134319   1.753   0.603   2.641  0.2939 -0.1447  0.7255
 4228TIP3    H234320   1.677   0.727   2.681  0.1744  0.1748 -0.4534
 4229TIP3   OH234321   0.724   0.817   1.148  0.4869  0.0926 -0.0184
 4229TIP3    H134322   0.700   0.895   1.098  0.2564 -0.3096 -0.5393
 4229TIP3    H234323   0.798   0.780   1.101 -1.7133 -2.1088 -2.0133
 4230TIP3   OH234324   4.180   6.256   1.975 -0.3236 -0.2731 -0.3713
 4230TIP3    H134325   4.217   6.230   1.891  0.2281  0.8164 -0.4817
 4230TIP3    H234326   4.215   6.193   2.038  0.8189  0.0473 -0.6652
 4231TIP3   OH234327   2.007   2.493   4.142  0.5124 -0.5553 -0.6856
 4231TIP3    H134328   2.051   2.510   4.225 -0.2902 -0.8963 -0.1776
 4231TIP3    H234329   2.052   2.417   4.105  1.2118 -0.0806 -0.8217
 4232TIP3   OH234330   0.736   1.927   4.331  0.1602 -0.3578 -0.4306
 4232TIP3    H134331   0.641   1.926   4.344  0.5088 -1.4679  2.8146
 4232TIP3    H234332   0.762   1.835   4.333  1.3245 -0.0887 -1.5057
 4233TIP3   OH234333   0.239   5.565   1.478 -0.1223 -0.3652 -0.0767
 4233TIP3    H134334   0.279   5.640   1.433  0.3304 -0.3508  0.3468
 4233TIP3    H234335   0.302   5.494   1.468 -0.6252 -0.7478 -0.6233
 4234TIP3   OH234336   4.255   6.547   0.471 -0.3840  0.0968  0.4897
 4234TIP3    H134337   4.238   6.558   0.564 -1.0490 -2.0956  0.6905
 4234TIP3    H234338   4.172   6.567   0.428 -0.3328  0.2308  0.4530
 4235TIP3   OH234339   6.296   0.019   2.637 -0.1757  0.2282 -0.4277
 4235TIP3    H134340   6.243  -0.047   2.680  0.8922 -1.5855 -1.7377
 4235TIP3    H234341   6.368   0.036   2.698 -0.7198  0.5871  0.1269
 4236TIP3   OH234342   6.495   1.928   3.751 -0.5744  0.7345  0.2036
 4236TIP3    H134343   6.421   1.989   3.745 -0.7730  0.4595 -0.2259
 4236TIP3    H234344   6.478   1.878   3.831 -0.1703  1.5389  0.8130
 4237TIP3   OH234345   2.977   4.798   2.081 -0.0458 -0.4256  0.3740
 4237TIP3    H134346   3.020   4.720   2.117  1.4947  0.3783  0.3528
 4237TIP3    H234347   2.983   4.787   1.986  0.6308 -0.0618  0.3670
 4238TIP3   OH234348   0.689   5.546   8.715  0.6893  0.6362 -0.7211
 4238TIP3    H134349   0.644   5.462   8.719  3.7575 -1.2346 -1.9135
 4238TIP3    H234350   0.705   5.570   8.806 -0.6160  0.1924 -0.3574
 4239TIP3   OH234351   1.468   6.804   0.045  0.2696 -0.2890 -0.1260
 4239TIP3    H134352   1.510   6.849  -0.029 -0.0514  0.5876  0.2041
 4239TIP3    H234353   1.409   6.870   0.082 -2.5697 -1.9032 -1.4872
 4240TIP3   OH234354   0.838   4.870   8.352  0.5127 -0.4115 -0.0684
 4240TIP3    H134355   0.901   4.801   8.370  0.8604  0.2304  1.2549
 4240TIP3    H234356   0.871   4.946   8.399 -1.5824 -0.2287  1.2427
 4241TIP3   OH234357   1.132   5.068   3.740 -0.0892  0.0922  0.0443
 4241TIP3    H134358   1.133   5.157   3.706 -0.7918 -0.3377 -1.1569
 4241TIP3    H234359   1.208   5.063   3.797  0.2830  1.2881 -0.3269
 4242TIP3   OH234360   0.873   5.235   8.292  0.9793  0.2479  0.1688
 4242TIP3    H134361   0.921   5.209   8.370  0.0068 -2.7426 -0.0970
 4242TIP3    H234362   0.782   5.242   8.320 -0.1327 -4.7207 -1.1281
 4243TIP3   OH234363   0.850   4.988   0.956 -0.3541 -0.7976 -0.0250
 4243TIP3    H134364   0.760   5.003   0.928 -0.4846 -5.2056 -2.7378
 4243TIP3    H234365   0.844   4.919   1.023  0.9887 -0.6180  0.3257
 4244TIP3   OH234366   6.441   3.632   2.219 -0.1871  0.1362 -0.6598
 4244TIP3    H134367   6.368   3.638   2.158 -0.9182 -0.6544  0.1070
 4244TIP3    H234368   6.408   3.673   2.300  0.6351  0.8388 -0.6567
 4245TIP3   OH234369   6.288   2.195   3.310  0.3439 -0.6689 -0.3221
 4245TIP3    H134370   6.287   2.107   3.348  1.3880  0.2653  2.1024
 4245TIP3    H234371   6.197   2.214   3.291 -0.1773 -1.4558  1.2259
 4246TIP3   OH234372   0.151   3.632   2.867  0.2603  0.0632  0.0740
 4246TIP3    H134373   0.090   3.634   2.941 -0.0920 -1.3474 -0.1430
 4246TIP3    H234374   0.180   3.541   2.864 -0.0429  0.0009 -1.7936
 4247TIP3   OH234375   5.811   6.287   0.481 -0.5393  0.1042  0.1272
 4247TIP3    H134376   5.771   6.313   0.564 -0.4399  0.7806 -0.0273
 4247TIP3    H234377   5.895   6.249   0.505 -0.9231 -0.5787  0.3978
 4248TIP3   OH234378   3.292   1.444   3.042  0.2662  0.6331  0.0710
 4248TIP3    H134379   3.255   1.533   3.042  1.5372  1.1815 -0.5127
 4248TIP3    H234380   3.303   1.423   2.949  1.7920  0.6526  0.2358
 4249TIP3   OH234381   6.647   1.428   2.367 -0.6632 -0.1433  0.2566
 4249TIP3    H134382   6.575   1.491   2.366  1.5056  2.5342  1.0831
 4249TIP3    H234383   6.669   1.416   2.274 -1.3302  0.0487  0.0669
 4250TIP3   OH234384   0.341   1.438   2.864  0.7614  0.2902  0.4690
 4250TIP3    H134385   0.248   1.449   2.846  0.3237 -1.3873  1.4853
 4250TIP3    H234386   0.375   1.395   2.786  1.4504  3.6941 -1.3220
 4251TIP3   OH234387   5.798   6.592   1.250 -0.6517 -0.7517 -0.3815
 4251TIP3    H134388   5.867   6.659   1.256 -0.1434 -0.9766 -2.5910
 4251TIP3    H234389   5.845   6.509   1.262 -0.5759 -0.8829 -1.4767
 4252TIP3   OH234390   4.794   2.366   1.968  0.1779 -0.8831  0.1149
 4252TIP3    H134391   4.746   2.351   2.049 -0.5567  0.7463  0.0269
 4252TIP3    H234392   4.799   2.280   1.927 -2.2666 -1.2229  0.3592
 4253TIP3   OH234393   4.140   4.786   0.699  0.4981 -0.2453 -0.1360
 4253TIP3    H134394   4.054   4.764   0.663  0.5638  1.7668 -1.7187
 4253TIP3    H234395   4.121   4.812   0.790 -0.6435  0.3919 -0.5238
 4254TIP3   OH234396   1.680   2.594   8.503 -0.1363 -0.6345  0.4281
 4254TIP3    H134397   1.771   2.623   8.502  0.2165 -1.7151 -0.4148
 4254TIP3    H234398   1.630   2.673   8.523  1.0711 -0.3036  2.3727
 4255TIP3   OH234399   2.563   0.749   3.063  0.1134 -0.3211  0.1100
 4255TIP3    H134400   2.638   0.792   3.104  0.2022 -0.8819  0.5309
 4255TIP3    H234401   2.594   0.727   2.975  0.3397 -0.2742  0.1769
 4256TIP3   OH234402   3.461   0.641   1.920  0.7799 -0.6144  0.5738
 4256TIP3    H134403   3.521   0.575   1.955  0.8671 -0.2652  1.0883
 4256TIP3    H234404   3.394   0.590   1.875  0.7476 -1.0667  1.1245
 4257TIP3   OH234405   1.578   4.032   0.686 -0.4547  0.1059  0.1548
 4257TIP3    H134406   1.608   4.116   0.721  1.6674  0.0854 -1.3782
 4257TIP3    H234407   1.544   3.985   0.761  1.7145  0.9382  1.7635
 4258TIP3   OH234408   4.264   4.503   4.528  0.1972  0.4400 -0.3212
 4258TIP3    H134409   4.183   4.541   4.563 -0.3706 -2.5469  1.9010
 4258TIP3    H234410   4.334   4.543   4.579 -0.1486  0.6020  0.0298
 4259TIP3   OH234411   2.352   0.923   0.873 -0.5581  0.3434 -0.1431
 4259TIP3    H134412   2.260   0.908   0.892 -0.0635 -1.0652  1.3885
 4259TIP3    H234413   2.397   0.907   0.956  1.1298  0.2661 -1.0220
 4260TIP3   OH234414   4.141   2.662   2.035 -0.7711  0.2591 -0.2155
 4260TIP3    H134415   4.146   2.650   2.130 -0.4340  0.6016 -0.1866
 4260TIP3    H234416   4.049   2.645   2.014 -0.6264 -0.8945  0.0100
 4261TIP3   OH234417   2.602   3.138   2.466  0.5503  0.2603 -0.5182
 4261TIP3    H134418   2.621   3.161   2.375  1.1652 -0.7231 -0.6589
 4261TIP3    H234419   2.651   3.057   2.480 -1.0532 -0.6406  0.1105
 4262TIP3   OH234420   0.142   5.659   3.834 -0.0800 -0.1247 -0.3774
 4262TIP3    H134421   0.233   5.630   3.837 -0.6453 -1.9738  1.7529
 4262TIP3    H234422   0.112   5.636   3.747  0.8948 -1.5775 -0.3565
 4263TIP3   OH234423   0.623   3.998   4.034  0.3884 -0.3189 -0.3265
 4263TIP3    H134424   0.688   4.016   3.966 -1.0934  0.6276 -1.5700
 4263TIP3    H234425   0.572   3.925   3.999  0.9644 -1.2698  0.7836
 4264TIP3   OH234426   0.519   1.669   1.696 -0.0218 -0.6596  0.7112
 4264TIP3    H134427   0.433   1.709   1.703  0.2070 -0.1517  0.6708
 4264TIP3    H234428   0.506   1.578   1.724 -0.3404 -0.2753  1.8688
 4265TIP3   OH234429   3.968   3.486   1.904  0.2334 -0.0153 -0.9851
 4265TIP3    H134430   3.927   3.569   1.880 -1.4307 -0.6440 -0.4296
 4265TIP3    H234431   3.908   3.446   1.967  1.0135 -1.6444 -1.2136
 4266TIP3   OH234432   2.045   0.784   3.771 -0.4629 -0.0543 -0.2845
 4266TIP3    H134433   2.088   0.778   3.686  0.1862 -0.4944  0.0726
 4266TIP3    H234434   1.990   0.705   3.776  0.1796 -0.4867  0.0715
 4267TIP3   OH234435   3.899   6.822   0.274  0.1078 -0.2113 -0.0979
 4267TIP3    H134436   3.921   6.899   0.221  1.6021 -0.4274  0.1387
 4267TIP3    H234437   3.861   6.760   0.212  0.3980  0.1196 -0.6128
 4268TIP3   OH234438   2.336   2.333   2.482 -0.2775  0.3050 -0.2609
 4268TIP3    H134439   2.312   2.331   2.389 -0.4948 -0.0564 -0.1988
 4268TIP3    H234440   2.342   2.426   2.503  1.8943  0.4280 -1.1710
 4269TIP3   OH234441   3.723   3.455   1.779 -0.3288 -0.4663 -0.0668
 4269TIP3    H134442   3.673   3.490   1.853 -1.0726 -0.2768 -0.6591
 4269TIP3    H234443   3.803   3.419   1.820 -0.2677  0.5203  0.7153
 4270TIP3   OH234444   2.683   1.273   2.227 -0.6428  0.5425  0.0045
 4270TIP3    H134445   2.734   1.279   2.146 -0.8294 -0.7752 -0.2343
 4270TIP3    H234446   2.748   1.277   2.297  0.1965 -3.4770 -0.3115
 4271TIP3   OH234447   5.572   3.168   2.463  0.0057  0.5008  0.2119
 4271TIP3    H134448   5.482   3.138   2.450  0.0055  0.7078 -0.2813
 4271TIP3    H234449   5.588   3.230   2.392  0.7307  0.0437 -0.0388
 4272TIP3   OH234450   1.164   4.780   2.164  0.0690 -0.2924  0.2886
 4272TIP3    H134451   1.091   4.770   2.103  0.6909 -1.3913 -0.2905
 4272TIP3    H234452   1.130   4.745   2.247  0.3509 -2.0962 -0.3138
 4273TIP3   OH234453   1.489   0.554   1.442  0.0972 -0.3053  0.2521
 4273TIP3    H134454   1.501   0.640   1.404  1.5391  0.5021  2.3405
 4273TIP3    H234455   1.480   0.570   1.536 -1.4559 -2.3020  0.5314
 4274TIP3   OH234456   1.883   4.193   1.739 -0.2055 -0.2766 -0.1120
 4274TIP3    H134457   1.908   4.285   1.731  0.3188 -0.3679  0.4111
 4274TIP3    H234458   1.801   4.195   1.790 -1.5392  0.0495 -2.1711
 4275TIP3   OH234459   5.057   6.500   2.246 -0.2276 -0.1723 -0.3919
 4275TIP3    H134460   5.035   6.588   2.278 -0.9279 -0.8495  1.1008
 4275TIP3    H234461   5.039   6.443   2.320  0.9177 -1.5099 -1.1011
 4276TIP3   OH234462   4.248   5.818   3.141 -0.8177 -0.1132 -0.4564
 4276TIP3    H134463   4.247   5.725   3.116  1.1388 -0.1431 -0.6307
 4276TIP3    H234464   4.162   5.851   3.116 -1.9156 -2.0965  0.4985
 4277TIP3   OH234465   3.412   2.597   3.267 -0.2811  0.2547 -0.1679
 4277TIP3    H134466   3.434   2.673   3.321  1.0851  0.3795 -0.8548
 4277TIP3    H234467   3.344   2.628   3.207  0.2609  0.9299 -0.4352
 4278TIP3   OH234468   5.328   4.093   1.787 -0.3922 -0.1445  0.1762
 4278TIP3    H134469   5.312   4.064   1.697 -0.1670  1.5748 -0.4535
 4278TIP3    H234470   5.254   4.150   1.807  0.3684  0.7416  0.4939
 4279TIP3   OH234471   0.753   3.128   1.815 -0.0322  0.2132  0.3669
 4279TIP3    H134472   0.711   3.115   1.900  0.0454  1.2334  0.5760
 4279TIP3    H234473   0.683   3.164   1.760 -0.4749 -1.7788 -0.4367
 4280TIP3   OH234474   0.638   0.988   3.766 -0.5090  0.1999  0.0548
 4280TIP3    H134475   0.625   1.000   3.860 -0.2039  1.8741 -0.0785
 4280TIP3    H234476   0.576   0.920   3.742 -0.2777 -0.5795  1.5378
 4281TIP3   OH234477   6.819   2.269   2.923  0.1784  0.3418  0.3109
 4281TIP3    H134478   6.869   2.213   2.983  0.1380 -1.9958 -1.7027
 4281TIP3    H234479   6.741   2.293   2.973  0.1303 -1.5458  1.2419
 4282TIP3   OH234480   5.622   3.365   8.481 -0.2003 -0.3670  0.0199
 4282TIP3    H134481   5.644   3.417   8.559 -1.2589 -0.4994  0.4227
 4282TIP3    H234482   5.701   3.370   8.426  1.2396 -1.7212  1.8608
 4283TIP3   OH234483   5.143   3.954   1.051  0.5081 -0.0815 -0.1233
 4283TIP3    H134484   5.071   4.017   1.053  0.5144 -0.0481 -0.8047
 4283TIP3    H234485   5.123   3.893   1.123 -0.4639 -0.3570 -0.6101
 4284TIP3   OH234486   2.935   2.053   3.029  0.2522  0.6633 -0.1167
 4284TIP3    H134487   2.907   2.060   3.120 -0.9937 -3.1820 -0.0339
 4284TIP3    H234488   2.856   2.029   2.981  1.4581 -0.5207 -1.6418
 4285TIP3   OH234489   6.224   2.640   0.969  0.2189  0.0395  0.1679
 4285TIP3    H134490   6.289   2.678   0.910 -1.2232  1.1118 -0.8136
 4285TIP3    H234491   6.193   2.714   1.021 -1.7386  0.0334 -0.8923
 4286TIP3   OH234492   3.437   5.157   3.428  0.3466 -0.3454  0.1283
 4286TIP3    H134493   3.531   5.156   3.449  0.2547 -0.9676  0.5358
 4286TIP3    H234494   3.395   5.127   3.508 -0.0754 -1.9988 -0.6671
 4287TIP3   OH234495   3.206   4.851   0.621 -0.1898 -0.3977 -0.4153
 4287TIP3    H134496   3.232   4.799   0.545  1.0112  0.1566 -0.3954
 4287TIP3    H234497   3.208   4.788   0.693 -2.3864 -1.1942 -0.9645
 4288TIP3   OH234498   0.847   6.307   1.141 -0.3985  0.4200 -0.1878
 4288TIP3    H134499   0.757   6.338   1.143 -0.6393  0.0898 -2.4887
 4288TIP3    H234500   0.853   6.243   1.212 -1.9886  0.4564  0.0068
 4289TIP3   OH234501   4.069   6.412   3.906  0.4242 -0.3206  0.1206
 4289TIP3    H134502   4.052   6.322   3.877 -2.0463  0.3970 -0.9683
 4289TIP3    H234503   4.038   6.414   3.997  0.6396 -0.6078  0.2009
 4290TIP3   OH234504   4.634   2.350   2.201 -0.3505  0.0106  0.1148
 4290TIP3    H134505   4.543   2.346   2.172  0.3325  0.0227 -2.1842
 4290TIP3    H234506   4.636   2.299   2.282 -1.5664 -3.9482 -2.1210
 4291TIP3   OH234507   5.773   4.790   3.020 -0.1967  0.2536 -0.3758
 4291TIP3    H134508   5.834   4.769   2.949  0.1254 -0.7686  0.1809
 4291TIP3    H234509   5.736   4.875   2.995 -0.1506 -0.1130 -1.7967
 4292TIP3   OH234510   0.705   2.688   4.324  0.0013 -0.1389 -0.0048
 4292TIP3    H134511   0.776   2.643   4.370  0.3029 -1.4708 -1.6704
 4292TIP3    H234512   0.632   2.626   4.325  0.6193 -1.0580 -2.8768
 4293TIP3   OH234513   6.609   2.502   2.619  0.0251  0.5340 -0.2528
 4293TIP3    H134514   6.596   2.592   2.649 -0.6090  0.7309 -1.0951
 4293TIP3    H234515   6.704   2.494   2.611  0.1803  0.6665  1.1844
 4294TIP3   OH234516   2.907   1.455   2.326 -0.4106  0.2223  0.3814
 4294TIP3    H134517   2.999   1.459   2.300 -0.5276 -0.0049 -0.0697
 4294TIP3    H234518   2.883   1.547   2.340 -0.2936  0.3412 -0.1493
 4295TIP3   OH234519   5.606   5.868   2.480 -0.3405 -0.2099  0.1604
 4295TIP3    H134520   5.683   5.845   2.428  1.2951  1.4384  1.7021
 4295TIP3    H234521   5.617   5.818   2.561 -0.6890  0.2987  0.5280
 4296TIP3   OH234522   0.539   2.016   0.179  0.0949 -0.3550  0.6756
 4296TIP3    H134523   0.597   2.089   0.203  0.7393 -0.5265 -0.3155
 4296TIP3    H234524   0.468   2.021   0.243  0.0352  1.2556  0.5471
 4297TIP3   OH234525   0.180   2.293   0.140 -0.0471 -0.1197  0.3488
 4297TIP3    H134526   0.150   2.299   0.231 -0.5032  1.8874  0.0929
 4297TIP3    H234527   0.105   2.257   0.093  0.5709 -2.2762  0.9008
 4298TIP3   OH234528   5.345   2.250   7.841 -0.4118 -0.2958 -0.4744
 4298TIP3    H134529   5.373   2.251   7.933  0.3171 -0.6830 -0.6821
 4298TIP3    H234530   5.415   2.203   7.795 -0.9169 -0.3787 -1.1820
 4299TIP3   OH234531   5.330   3.800   0.754 -0.1577 -0.1666 -0.7412
 4299TIP3    H134532   5.298   3.811   0.665  0.7553 -0.9629 -1.1911
 4299TIP3    H234533   5.324   3.887   0.793 -0.5726  0.1911 -1.5715
 4300TIP3   OH234534   3.213   2.265   0.401  0.1976 -0.2631 -0.3281
 4300TIP3    H134535   3.163   2.185   0.418  0.9855 -1.0475 -1.5599
 4300TIP3    H234536   3.208   2.278   0.307  1.2721  0.3294 -0.3284
 4301TIP3   OH234537   6.148   4.693   2.561 -0.1731  0.0390  0.3305
 4301TIP3    H134538   6.091   4.619   2.581  1.2070 -0.8028  1.3340
 4301TIP3    H234539   6.197   4.707   2.641 -0.3684  2.0485  0.1500
 4302TIP3   OH234540   0.513   5.441   3.494 -0.5990 -0.4132  0.0304
 4302TIP3    H134541   0.584   5.483   3.541 -1.4215  1.0398  0.0214
 4302TIP3    H234542   0.557   5.381   3.432  0.5099 -1.6769  1.9394
 4303TIP3   OH234543   6.007   5.358   0.941 -0.9386 -1.0042  0.7707
 4303TIP3    H134544   5.929   5.413   0.946  0.0279  0.4506  0.4044
 4303TIP3    H234545   5.999   5.313   0.858 -0.0268  1.3689 -0.7089
 4304TIP3   OH234546   0.859   3.686   1.558  0.0262 -0.2811 -0.6868
 4304TIP3    H134547   0.840   3.595   1.580  0.6089 -0.0121  1.1662
 4304TIP3    H234548   0.789   3.736   1.601  1.5466  0.3132  1.3032
 4305TIP3   OH234549   4.891   3.124   0.091  0.2185 -0.2404  0.3406
 4305TIP3    H134550   4.811   3.117   0.143  0.2704 -1.1163  0.3128
 4305TIP3    H234551   4.942   3.048   0.115  0.3481 -0.5362 -0.8182
 4306TIP3   OH234552   0.217   5.125   2.704 -0.5708 -0.3614 -0.0062
 4306TIP3    H134553   0.217   5.221   2.700  3.3392 -0.2157 -3.7020
 4306TIP3    H234554   0.288   5.103   2.765 -1.3162 -0.9779  0.6706
 4307TIP3   OH234555   6.529   4.804   2.100 -0.2389  0.0083 -0.3871
 4307TIP3    H134556   6.607   4.779   2.051 -0.4333  0.8124 -1.1329
 4307TIP3    H234557   6.465   4.826   2.033 -0.7061  0.5405  0.2259
 4308TIP3   OH234558   0.278   4.708   3.228 -0.6314 -0.0969  0.3984
 4308TIP3    H134559   0.210   4.644   3.208 -0.4211  0.1519 -1.2342
 4308TIP3    H234560   0.232   4.792   3.226 -0.4797 -0.0156  0.2977
 4309TIP3   OH234561   4.685   6.372   0.913 -0.5513 -0.2825  0.2922
 4309TIP3    H134562   4.700   6.464   0.889  1.3142 -0.1606  1.7429
 4309TIP3    H234563   4.592   6.358   0.893 -0.8940  1.9064  0.0218
 4310TIP3   OH234564   3.619   2.251   3.949  0.6769  0.4749  0.2066
 4310TIP3    H134565   3.664   2.275   3.868 -0.2164 -1.1003 -0.8016
 4310TIP3    H234566   3.682   2.196   3.996  0.4227 -0.4224 -0.4709
 4311TIP3   OH234567   0.804   3.618   2.801 -0.5472 -0.4057 -0.2827
 4311TIP3    H134568   0.869   3.577   2.744 -0.5988  0.0846 -0.7021
 4311TIP3    H234569   0.781   3.699   2.756 -1.5181 -0.6142 -0.1790
 4312TIP3   OH234570   4.970   5.585   3.287  0.3304  0.1484  0.4259
 4312TIP3    H134571   5.060   5.608   3.264  0.7674 -1.0543  0.8497
 4312TIP3    H234572   4.956   5.628   3.372 -0.1859  1.9395 -0.5264
 4313TIP3   OH234573   2.574   3.507   2.908 -0.1628  0.1304  0.1969
 4313TIP3    H134574   2.589   3.601   2.899 -0.1458  0.2464  1.2659
 4313TIP3    H234575   2.600   3.470   2.824 -0.3306  1.0988 -0.3003
 4314TIP3   OH234576   4.995   6.183   4.080  0.1460 -0.2710 -0.4354
 4314TIP3    H134577   4.975   6.137   3.998 -0.3191 -0.4152 -0.2401
 4314TIP3    H234578   4.921   6.242   4.093  0.0033 -0.5685  0.1127
 4315TIP3   OH234579   5.540   2.363   1.218  1.2169  0.4602 -0.0076
 4315TIP3    H134580   5.609   2.427   1.199  2.4865 -0.8993 -0.0999
 4315TIP3    H234581   5.467   2.389   1.162  1.0279  2.8650  1.2068
 4316TIP3   OH234582   2.378   5.822   1.751 -0.2965 -0.4792  0.2804
 4316TIP3    H134583   2.348   5.911   1.771  2.4698  0.4703  0.6366
 4316TIP3    H234584   2.395   5.783   1.837  2.6158  0.2671  0.1402
 4317TIP3   OH234585   1.775   1.773   0.957 -0.1578 -0.6045 -0.6969
 4317TIP3    H134586   1.818   1.783   0.872 -1.6553 -0.5626 -1.4772
 4317TIP3    H234587   1.833   1.819   1.018 -0.1348  1.3124 -2.0577
 4318TIP3   OH234588   6.543   5.369   2.835  0.4797 -0.6974 -0.4194
 4318TIP3    H134589   6.578   5.299   2.890 -1.5970 -0.8897  0.7544
 4318TIP3    H234590   6.588   5.448   2.866 -0.7492 -0.7727  1.7859
 4319TIP3   OH234591   6.234   1.776   8.413  0.2299 -0.0495  0.1247
 4319TIP3    H134592   6.277   1.691   8.422  0.1405 -0.1724 -0.5042
 4319TIP3    H234593   6.206   1.779   8.321 -0.0796  0.5117  0.2290
 4320TIP3   OH234594   6.480   1.114   2.347  0.0245 -0.1780 -0.1089
 4320TIP3    H134595   6.473   1.207   2.369  1.4996  0.1222 -0.7670
 4320TIP3    H234596   6.399   1.094   2.301 -1.0301  0.3544  1.4506
 4321TIP3   OH234597   1.225   5.951   2.355  0.0707  0.6769 -0.5436
 4321TIP3    H134598   1.167   5.884   2.392  3.2753 -2.9748 -1.4833
 4321TIP3    H234599   1.172   5.994   2.288 -2.7297  0.5176  1.3864
 4322TIP3   OH234600   1.924   0.953   2.603  0.3194 -0.4180 -0.4394
 4322TIP3    H134601   1.889   1.002   2.678  1.5849  0.6914 -0.5324
 4322TIP3    H234602   1.905   0.861   2.623  0.2219 -0.1056  1.0175
 4323TIP3   OH234603   5.050   0.144   2.972  0.0240  0.2375  0.1198
 4323TIP3    H134604   4.986   0.184   2.913  1.0963  1.1042 -0.4700
 4323TIP3    H234605   5.059   0.206   3.044  0.3457  0.2063  0.1080
 4324TIP3   OH234606   4.548   5.062   2.650  0.2148  0.4276 -0.0015
 4324TIP3    H134607   4.596   4.980   2.643  0.4178  0.5326  0.1427
 4324TIP3    H234608   4.588   5.107   2.725 -0.1628  0.4798  0.1742
 4325TIP3   OH234609   2.403   5.098   0.166 -0.3663  0.0182  0.1533
 4325TIP3    H134610   2.337   5.123   0.101 -1.6329 -1.5538  0.7891
 4325TIP3    H234611   2.354   5.068   0.241  1.0944 -0.1442  1.0917
 4326TIP3   OH234612   3.465   4.474   3.288  0.2770 -0.2314 -0.4640
 4326TIP3    H134613   3.456   4.392   3.240 -0.2900 -0.2280 -0.3775
 4326TIP3    H234614   3.514   4.531   3.230  0.8732 -0.7073 -0.4336
 4327TIP3   OH234615   6.647   3.825   1.249 -0.1394  0.0475 -0.9399
 4327TIP3    H134616   6.695   3.811   1.331 -2.4468 -4.2712 -0.0355
 4327TIP3    H234617   6.584   3.894   1.270  1.8266  1.8081 -0.4471
 4328TIP3   OH234618   0.806   4.213   2.907 -0.5691  0.0740  0.2781
 4328TIP3    H134619   0.796   4.143   2.971  1.4452 -1.4765 -0.9814
 4328TIP3    H234620   0.733   4.273   2.926 -1.4478 -1.5226  2.4147
 4329TIP3   OH234621   4.569   4.923   3.522  0.2725  0.6366  0.5842
 4329TIP3    H134622   4.521   4.912   3.604 -0.9880  0.7200 -0.1160
 4329TIP3    H234623   4.525   4.997   3.478 -0.5348 -0.7789 -1.1413
 4330TIP3   OH234624   4.392   1.308   3.239 -0.3580  0.0446  0.1284
 4330TIP3    H134625   4.424   1.338   3.154 -1.9605 -0.3744 -0.6617
 4330TIP3    H234626   4.471   1.291   3.290  0.6137  1.5966 -0.8042
 4331TIP3   OH234627   6.406   0.341   2.561 -0.2343 -0.1369 -0.0836
 4331TIP3    H134628   6.336   0.401   2.534 -1.2503 -1.1960  0.1159
 4331TIP3    H234629   6.483   0.397   2.571 -1.0525  1.0668 -0.2799
 4332TIP3   OH234630   2.377   2.809   0.531 -0.1220  0.6579 -0.0807
 4332TIP3    H134631   2.303   2.862   0.502 -0.1699 -0.1491 -1.5062
 4332TIP3    H234632   2.444   2.821   0.465  1.2269  1.6961  1.4063
 4333TIP3   OH234633   2.616   5.348   0.595 -0.0119 -0.2168 -0.0629
 4333TIP3    H134634   2.642   5.256   0.603  0.6715  0.0710  1.4583
 4333TIP3    H234635   2.574   5.368   0.679 -1.4771  0.4765 -0.9335
 4334TIP3   OH234636   0.716   1.506   2.512  0.0326  0.1653 -0.4705
 4334TIP3    H134637   0.711   1.594   2.550  1.5817  0.9395 -1.9408
 4334TIP3    H234638   0.647   1.504   2.445 -0.3909  0.0335 -0.0365
 4335TIP3   OH234639   4.020   6.123   3.883  0.2214  0.5172  0.3426
 4335TIP3    H134640   3.945   6.123   3.823 -0.0190 -0.2343  0.6250
 4335TIP3    H234641   3.991   6.070   3.957  0.5148  1.4306  1.1297
 4336TIP3   OH234642   1.461   4.438   3.149  0.8880  0.1992  0.5551
 4336TIP3    H134643   1.456   4.362   3.207 -0.6379  0.4091  0.7391
 4336TIP3    H234644   1.481   4.402   3.063  0.3397 -0.4044  0.6753
 4337TIP3   OH234645   6.633   6.339   0.701  0.1405  0.0057  0.0677
 4337TIP3    H134646   6.684   6.370   0.775 -0.2948 -3.1540  1.8787
 4337TIP3    H234647   6.542   6.358   0.724  0.0850  0.0869 -0.2149
 4338TIP3   OH234648   3.184   3.915   1.531  0.3994  0.4379  0.0691
 4338TIP3    H134649   3.095   3.948   1.531  0.4461  0.5781 -0.8249
 4338TIP3    H234650   3.174   3.820   1.521  0.3743  0.5655 -1.2594
 4339TIP3   OH234651   0.436   6.373   2.002  0.3921 -0.4684 -0.2413
 4339TIP3    H134652   0.502   6.412   2.060 -0.4662  0.1525  0.3521
 4339TIP3    H234653   0.460   6.281   1.997 -0.8651 -1.1457  3.1683
 4340TIP3   OH234654   4.859   0.077   0.854  0.1306 -0.2863 -0.2116
 4340TIP3    H134655   4.814  -0.007   0.865 -2.7369  1.2108  0.6558
 4340TIP3    H234656   4.927   0.077   0.921 -1.9566 -0.6907  2.0769
 4341TIP3   OH234657   2.632   0.159   1.793 -0.3170  0.3269  0.1589
 4341TIP3    H134658   2.617   0.133   1.884 -3.6589  1.6284  0.1278
 4341TIP3    H234659   2.663   0.249   1.800  1.8993 -0.3684 -0.0035
 4342TIP3   OH234660   1.144   6.655   1.855 -0.0778  0.4265  0.2397
 4342TIP3    H134661   1.212   6.679   1.792  0.5121  0.1387  0.7550
 4342TIP3    H234662   1.090   6.734   1.864 -1.0288  0.0609 -1.6694
 4343TIP3   OH234663   6.071   0.546   1.301 -0.3926  0.5399  0.1929
 4343TIP3    H134664   6.049   0.638   1.315  0.5161  0.5882  1.4839
 4343TIP3    H234665   6.081   0.510   1.389 -2.5280 -1.2777 -0.2275
 4344TIP3   OH234666   4.831   3.277   2.870 -0.2635  0.0909 -0.2749
 4344TIP3    H134667   4.869   3.357   2.833 -0.9627 -0.0614 -1.3674
 4344TIP3    H234668   4.770   3.246   2.803 -1.0092 -0.6248  0.7010
 4345TIP3   OH234669   1.227   3.691   3.622 -0.2640 -0.7801 -0.3093
 4345TIP3    H134670   1.135   3.668   3.607 -0.4053 -2.2334  2.1720
 4345TIP3    H234671   1.239   3.679   3.716  1.6606  2.5946  0.0276
 4346TIP3   OH234672   0.854   0.726   3.663  0.0653 -0.1891  0.1300
 4346TIP3    H134673   0.875   0.749   3.573  0.2616  0.9393  0.4468
 4346TIP3    H234674   0.938   0.724   3.708 -0.1688  1.1717  0.6952
 4347TIP3   OH234675   3.764   3.798   0.000  0.2036  0.2445  0.4361
 4347TIP3    H134676   3.848   3.757   0.022 -0.5103 -1.4132  0.2528
 4347TIP3    H234677   3.750   3.776  -0.092 -0.8659 -0.3427  0.7210
 4348TIP3   OH234678   6.572   5.452   1.589 -0.3870 -0.0244 -0.2784
 4348TIP3    H134679   6.583   5.466   1.495  0.9938  2.5582  0.1659
 4348TIP3    H234680   6.482   5.477   1.607 -1.0791 -1.7884 -1.0416
 4349TIP3   OH234681   3.653   0.617   1.327  0.0733 -0.3215 -0.3306
 4349TIP3    H134682   3.624   0.528   1.307  0.2801 -0.4573 -0.0419
 4349TIP3    H234683   3.581   0.673   1.298 -0.6171 -0.6714  0.6463
 4350TIP3   OH234684   1.126   5.090   3.062 -0.7377  0.4936 -0.4405
 4350TIP3    H134685   1.158   5.180   3.066 -0.1079  0.2658 -0.1480
 4350TIP3    H234686   1.106   5.068   3.153  0.4684 -0.1224 -0.2956
 4351TIP3   OH234687   6.210   2.495   2.918  0.0535  0.0699  0.1329
 4351TIP3    H134688   6.240   2.585   2.907 -3.1628  1.0976 -1.4960
 4351TIP3    H234689   6.218   2.478   3.012 -1.3195  2.8910  0.8540
 4352TIP3   OH234690   4.839   2.056   8.142 -0.2828  0.6398 -0.8363
 4352TIP3    H134691   4.906   2.103   8.190 -2.5665  2.7567  0.5590
 4352TIP3    H234692   4.812   2.117   8.073 -0.9798 -0.0146 -1.1594
 4353TIP3   OH234693   0.390   5.462   2.071  0.3785  0.6753 -0.1497
 4353TIP3    H134694   0.339   5.392   2.030  1.1766 -0.4012  0.6606
 4353TIP3    H234695   0.481   5.440   2.051  0.9592 -0.7725  3.3795
 4354TIP3   OH234696   4.204   0.777   2.913 -0.3310 -0.5099  0.1878
 4354TIP3    H134697   4.121   0.732   2.927  0.3130 -1.5779  0.7277
 4354TIP3    H234698   4.184   0.869   2.925 -1.6817 -0.6401 -0.8899
 4355TIP3   OH234699   5.473   0.786   0.679  0.3135 -0.6641  0.2326
 4355TIP3    H134700   5.553   0.760   0.632 -0.3881 -3.3893  0.3806
 4355TIP3    H234701   5.409   0.719   0.656 -1.6819  0.9234  0.8756
 4356TIP3   OH234702   0.959   1.815   3.819 -0.0309 -0.3246  0.3620
 4356TIP3    H134703   1.003   1.809   3.735 -2.7115 -1.3321 -1.0655
 4356TIP3    H234704   1.013   1.877   3.869  1.9420 -0.1063 -1.8413
 4357TIP3   OH234705   5.341   4.156   8.407 -0.1696  0.0853  0.0557
 4357TIP3    H134706   5.304   4.195   8.328 -0.2035 -0.6060 -0.2764
 4357TIP3    H234707   5.416   4.212   8.429  1.4127 -1.1089 -1.9285
 4358TIP3   OH234708   5.942   4.317   8.721 -0.6220 -0.3454  0.2170
 4358TIP3    H134709   5.887   4.396   8.725  0.6474  0.5403  0.9868
 4358TIP3    H234710   5.883   4.249   8.690 -2.0038  0.6961  0.4291
 4359TIP3   OH234711   2.374   6.775   0.762 -0.2823 -0.5818  0.5269
 4359TIP3    H134712   2.377   6.855   0.815 -1.0334 -0.9052  1.0782
 4359TIP3    H234713   2.328   6.800   0.682 -0.9964 -0.5821  0.9295
 4360TIP3   OH234714   6.653   0.356   3.234  0.2712  0.3006  0.4565
 4360TIP3    H134715   6.704   0.285   3.196  0.3440 -0.4711  1.9143
 4360TIP3    H234716   6.713   0.402   3.291 -0.3540  0.0882  1.3092
 4361TIP3   OH234717   5.869   3.971   3.853 -0.1217 -0.0217 -0.2716
 4361TIP3    H134718   5.781   3.933   3.852 -0.2346  0.2138  0.3238
 4361TIP3    H234719   5.926   3.899   3.880 -0.2126 -0.0133 -0.0560
 4362TIP3   OH234720   0.734   4.226   8.154 -0.3209  0.2582  0.3319
 4362TIP3    H134721   0.760   4.318   8.156  0.5041  0.0856 -1.0920
 4362TIP3    H234722   0.715   4.205   8.245  0.5361  1.5484  0.8459
 4363TIP3   OH234723   3.163   5.262   2.786  0.8429  0.3604 -0.4460
 4363TIP3    H134724   3.186   5.295   2.873  2.0021  0.4114 -0.7505
 4363TIP3    H234725   3.141   5.170   2.801  1.1912  0.3262 -0.1109
 4364TIP3   OH234726   2.755   2.790   1.615 -0.0126  0.4239 -0.3852
 4364TIP3    H134727   2.734   2.836   1.697 -2.3353  1.6436 -1.5601
 4364TIP3    H234728   2.704   2.709   1.620  0.5932  0.0433 -0.2415
 4365TIP3   OH234729   0.765   6.022   1.540  0.1884  0.3157 -0.4829
 4365TIP3    H134730   0.834   6.002   1.603 -0.1012 -1.8593 -0.7846
 4365TIP3    H234731   0.811   6.060   1.466  1.2711 -1.9548 -1.0692
 4366TIP3   OH234732   6.054   4.929   2.449  0.2927 -0.0123 -0.1863
 4366TIP3    H134733   6.083   4.841   2.473  1.2413  0.8375  2.1485
 4366TIP3    H234734   5.967   4.937   2.489  0.4792  0.3214  0.1536
 4367TIP3   OH234735   0.771   5.900   8.819 -0.2672  0.3935  0.4391
 4367TIP3    H134736   0.786   5.957   8.895 -0.4435  0.2562  0.5777
 4367TIP3    H234737   0.809   5.948   8.746  1.3725 -0.2066  0.8558
 4368TIP3   OH234738   4.927   3.268   1.213  0.3105 -0.1323  0.8055
 4368TIP3    H134739   4.920   3.359   1.185  0.8004 -0.4065 -0.2767
 4368TIP3    H234740   4.846   3.227   1.180 -0.5972  0.1836  2.5161
 4369TIP3   OH234741   5.543   2.010   8.825  0.1444 -0.2438  0.2330
 4369TIP3    H134742   5.477   1.979   8.764 -0.8774 -1.0456  1.6850
 4369TIP3    H234743   5.579   1.931   8.865 -1.3211  0.2589  2.7927
 4370TIP3   OH234744   1.120   3.039   4.261 -0.3968 -0.0872  0.1747
 4370TIP3    H134745   1.172   3.056   4.183 -1.0427 -0.6272 -0.3958
 4370TIP3    H234746   1.053   3.107   4.261 -0.5810 -0.2633  0.0761
 4371TIP3   OH234747   2.713   2.579   0.600 -0.4234 -0.0162 -0.2147
 4371TIP3    H134748   2.644   2.612   0.541  0.9272  0.1540 -1.7686
 4371TIP3    H234749   2.794   2.613   0.563  0.5791 -0.8206  1.1583
 4372TIP3   OH234750   2.042   4.701   3.600 -0.3562 -0.1271 -0.3671
 4372TIP3    H134751   2.020   4.617   3.640 -1.2773  0.8887  1.3691
 4372TIP3    H234752   2.052   4.682   3.506  0.1575 -2.2778  0.0911
 4373TIP3   OH234753   1.527   3.765   8.257  0.5046  0.5734 -0.0973
 4373TIP3    H134754   1.519   3.847   8.306 -0.1035  1.0235 -0.9243
 4373TIP3    H234755   1.468   3.704   8.302 -0.5583  1.1750 -0.6266
 4374TIP3   OH234756   5.533   0.386   2.131  0.2046 -0.4518 -0.1637
 4374TIP3    H134757   5.621   0.362   2.104  0.3829  0.0553 -0.0443
 4374TIP3    H234758   5.531   0.481   2.126 -0.5910 -0.4993 -0.9421
 4375TIP3   OH234759   4.007   3.040   4.498  0.2727  0.1976 -1.1488
 4375TIP3    H134760   4.086   3.092   4.508 -0.5948  1.6197 -1.3195
 4375TIP3    H234761   4.002   3.022   4.404  1.5329 -1.8401 -0.8801
 4376TIP3   OH234762   4.590   4.280   0.893 -0.4328 -0.0389  0.4333
 4376TIP3    H134763   4.604   4.270   0.799 -0.6619  0.1069  0.3840
 4376TIP3    H234764   4.662   4.230   0.933  1.1968  1.9809  0.1891
 4377TIP3   OH234765   1.579   5.667   2.675  0.1388  0.2578  0.3955
 4377TIP3    H134766   1.586   5.716   2.593 -0.1605  0.0848  0.2667
 4377TIP3    H234767   1.670   5.658   2.705  0.5052 -1.6345 -1.0807
 4378TIP3   OH234768   6.400   4.634   1.041  0.1486  0.7348  0.5656
 4378TIP3    H134769   6.473   4.604   1.094 -0.3194  0.5331  1.1128
 4378TIP3    H234770   6.409   4.729   1.039 -0.2698  0.8129  1.6858
 4379TIP3   OH234771   6.732   1.035   3.977 -0.1772 -0.2403 -0.0081
 4379TIP3    H134772   6.759   1.041   3.885  1.0337  0.0861  0.3502
 4379TIP3    H234773   6.639   1.058   3.976 -0.0814  0.1682 -1.0983
 4380TIP3   OH234774   4.050   5.347   0.567  0.9031 -0.5840  0.1227
 4380TIP3    H134775   4.088   5.431   0.539 -0.5384  0.0942  0.1471
 4380TIP3    H234776   4.069   5.342   0.660  0.3250  0.0856  0.2803
 4381TIP3   OH234777   1.505   0.706   1.698 -0.6384  0.3537 -0.0797
 4381TIP3    H134778   1.527   0.649   1.772  0.1182 -2.1789 -2.1389
 4381TIP3    H234779   1.570   0.777   1.703 -1.0356  0.6339  2.0343
 4382TIP3   OH234780   0.598   6.092   2.790 -0.1910  0.0436  0.0202
 4382TIP3    H134781   0.648   6.138   2.858  1.8995 -1.5238 -0.3682
 4382TIP3    H234782   0.587   6.004   2.825  2.1937 -1.2433 -2.1486
 4383TIP3   OH234783   1.387   0.946   3.134  0.4204  0.0882  0.6449
 4383TIP3    H134784   1.394   0.959   3.228 -1.0016  0.0865  0.7732
 4383TIP3    H234785   1.340   1.024   3.102 -0.0744 -0.4209  0.1029
 4384TIP3   OH234786   3.983   0.174   8.564 -0.7247 -0.3162 -0.9429
 4384TIP3    H134787   3.977   0.118   8.486  1.1998  1.1726 -2.2599
 4384TIP3    H234788   3.913   0.238   8.553  0.1508  0.4987 -2.0373
 4385TIP3   OH234789   6.329   4.745   3.170  0.3977  0.0917 -0.7505
 4385TIP3    H134790   6.401   4.702   3.122  1.3996  2.4625 -1.5010
 4385TIP3    H234791   6.372   4.794   3.239 -0.8252 -0.9431  0.8011
 4386TIP3   OH234792   1.712   3.589   1.913 -0.1080 -0.0930 -0.4920
 4386TIP3    H134793   1.677   3.651   1.977  1.5766  0.5210 -0.1179
 4386TIP3    H234794   1.637   3.536   1.887 -0.9889  0.1386  1.4379
 4387TIP3   OH234795   2.128   4.932   2.946  0.1678  0.0818 -0.0636
 4387TIP3    H134796   2.155   4.989   3.018  0.7316  0.3201 -0.4538
 4387TIP3    H234797   2.080   4.861   2.988  0.9846 -0.0858  0.6003
 4388TIP3   OH234798   1.602   3.198   3.325  0.4899  0.4903 -0.2532
 4388TIP3    H134799   1.513   3.198   3.359  0.3948 -0.0680 -0.4957
 4388TIP3    H234800   1.655   3.234   3.396 -0.1505  2.4867 -0.7097
 4389TIP3   OH234801   0.827   1.654   4.381 -0.3233 -0.5686 -0.2441
 4389TIP3    H134802   0.917   1.644   4.412  0.9911  2.5699 -2.6075
 4389TIP3    H234803   0.823   1.603   4.300  0.1361  1.2176 -1.4307
 4390TIP3   OH234804   5.637   0.354   4.118 -0.3631 -0.5702  0.2549
 4390TIP3    H134805   5.693   0.305   4.177  1.1958  1.4693  0.5848
 4390TIP3    H234806   5.603   0.426   4.171  1.6012  1.7137 -1.3475
 4391TIP3   OH234807   1.028   6.050   0.776 -0.6387  0.1509  0.2831
 4391TIP3    H134808   0.991   5.990   0.841 -0.8833  0.2307  0.2182
 4391TIP3    H234809   0.991   6.136   0.798  0.0362  0.3571  0.6315
 4392TIP3   OH234810   2.632   2.533   1.665  0.1249  0.7482  0.0437
 4392TIP3    H134811   2.559   2.477   1.691  0.8768 -0.1498  0.2783
 4392TIP3    H234812   2.666   2.494   1.585 -0.8014  2.2435 -1.1220
 4393TIP3   OH234813   4.137   1.381   4.117 -0.4778  0.1075 -0.3729
 4393TIP3    H134814   4.204   1.318   4.089 -0.6349 -0.7390  1.0523
 4393TIP3    H234815   4.066   1.327   4.150 -1.1417  1.0307 -0.2565
 4394TIP3   OH234816   1.013   6.342   3.968 -1.0676 -0.2388 -0.0775
 4394TIP3    H134817   0.919   6.360   3.975 -1.0388 -0.0369 -0.2252
 4394TIP3    H234818   1.035   6.364   3.878 -1.4261 -2.8588 -0.8801
 4395TIP3   OH234819   0.912   3.289   0.927  0.2163  0.1656  0.2185
 4395TIP3    H134820   0.888   3.223   0.991 -0.4116  1.4388  1.3507
 4395TIP3    H234821   0.873   3.370   0.960  1.0098  1.1234 -1.0809
 4396TIP3   OH234822   0.926   6.749   8.562  0.0314  0.0599 -0.2664
 4396TIP3    H134823   0.923   6.654   8.548 -1.3528  0.4021 -2.7800
 4396TIP3    H234824   0.852   6.766   8.621  0.6771 -0.4413  0.7281
 4397TIP3   OH234825   6.674   4.585   0.303 -0.1495  0.2424 -0.3286
 4397TIP3    H134826   6.760   4.546   0.287 -0.6425 -0.8146 -0.5073
 4397TIP3    H234827   6.623   4.514   0.343 -0.7306  1.0615  0.4168
 4398TIP3   OH234828   2.336   1.983   1.726  0.1224  0.1953 -0.5018
 4398TIP3    H134829   2.278   2.034   1.669  0.1964 -0.2687 -1.0031
 4398TIP3    H234830   2.422   1.990   1.685 -0.1207 -1.4775 -1.3842
 4399TIP3   OH234831   4.693   1.964   3.153 -0.1362  0.1807 -0.1250
 4399TIP3    H134832   4.762   1.948   3.217  1.2057  2.8273 -0.7656
 4399TIP3    H234833   4.615   1.982   3.205 -0.4315 -2.6743  0.6126
 4400TIP3   OH234834   0.700   0.588   0.972 -0.2362 -0.6969 -0.1282
 4400TIP3    H134835   0.739   0.501   0.977  2.8220  0.5935  1.1113
 4400TIP3    H234836   0.772   0.648   0.994 -1.3777  2.3742 -3.6445
 4401TIP3   OH234837   6.667   1.993   7.880 -0.4730  0.2177 -0.3400
 4401TIP3    H134838   6.605   2.037   7.938 -0.2895 -0.0002  0.0267
 4401TIP3    H234839   6.695   2.061   7.819  3.3169  2.0588  2.9512
 4402TIP3   OH234840   4.325   5.270   3.068 -0.0560 -0.1143 -0.3202
 4402TIP3    H134841   4.235   5.302   3.074 -0.5242 -1.0486 -1.8870
 4402TIP3    H234842   4.375   5.346   3.039 -0.2757  0.4629  0.7351
 4403TIP3   OH234843   4.642   6.138   8.210 -0.0755  0.0794 -0.1006
 4403TIP3    H134844   4.589   6.088   8.147 -0.6346  0.0025  0.4206
 4403TIP3    H234845   4.669   6.074   8.276  0.3406  0.2007 -0.1496
 4404TIP3   OH234846   0.928   0.200   8.766 -0.2472 -0.3927  0.9581
 4404TIP3    H134847   0.995   0.227   8.703 -0.4780  0.5162  1.0783
 4404TIP3    H234848   0.847   0.199   8.716 -0.3268 -0.3204  1.0844
 4405TIP3   OH234849   3.172   0.417   1.681  0.2183 -0.2658  0.4965
 4405TIP3    H134850   3.113   0.382   1.747 -0.5747  0.1980  0.0395
 4405TIP3    H234851   3.198   0.503   1.716  0.1477 -0.2094  0.4090
 4406TIP3   OH234852   2.219   2.613   2.152  0.1469  0.0720 -0.3236
 4406TIP3    H134853   2.290   2.550   2.162  0.5572  0.3564 -1.3089
 4406TIP3    H234854   2.258   2.685   2.103 -0.4140  0.9437  0.4796
 4407TIP3   OH234855   1.941   1.768   2.299  0.0140 -0.0950  0.0176
 4407TIP3    H134856   1.992   1.826   2.243 -0.3762 -0.0123 -0.2573
 4407TIP3    H234857   1.893   1.827   2.357  0.1682 -0.1675  0.2158
 4408TIP3   OH234858   0.652   4.422   1.351 -0.6700  0.2722 -0.3329
 4408TIP3    H134859   0.704   4.345   1.327  1.5156  1.7781 -0.7861
 4408TIP3    H234860   0.561   4.391   1.351  0.0110 -1.9767 -1.7635
 4409TIP3   OH234861   2.556   3.725   3.167  0.1722  0.2242 -0.3300
 4409TIP3    H134862   2.554   3.809   3.212 -1.8013 -0.1393  0.3652
 4409TIP3    H234863   2.561   3.747   3.074  1.1445  1.0506 -0.0999
 4410TIP3   OH234864   0.320   0.707   1.237  0.1186  0.3885 -0.5833
 4410TIP3    H134865   0.328   0.637   1.172 -0.3889  0.3279 -0.5833
 4410TIP3    H234866   0.409   0.720   1.269  0.0726 -0.9150  0.1254
 4411TIP3   OH234867   2.418   3.974   1.084 -0.1168  0.0819 -0.2185
 4411TIP3    H134868   2.496   3.953   1.134  1.0050  3.6761 -0.1856
 4411TIP3    H234869   2.345   3.941   1.137  1.2494 -2.0747  0.4413
 4412TIP3   OH234870   0.698   1.756   3.570  0.1833  0.0116  0.1976
 4412TIP3    H134871   0.608   1.731   3.594 -0.2006  0.2473 -0.9481
 4412TIP3    H234872   0.715   1.708   3.489  1.4022 -0.6601  0.8258
 4413TIP3   OH234873   5.961   0.877   2.784  0.0275 -0.0896  0.1323
 4413TIP3    H134874   6.010   0.949   2.822  0.8571 -1.0331  0.9138
 4413TIP3    H234875   5.935   0.823   2.859 -1.2066 -0.2396 -0.3679
 4414TIP3   OH234876   5.734   0.177   8.492 -0.2227 -0.1108 -0.1396
 4414TIP3    H134877   5.762   0.132   8.572  2.3108  1.2791 -0.1452
 4414TIP3    H234878   5.734   0.270   8.516 -2.0666  0.1768 -1.0567
 4415TIP3   OH234879   2.887   6.408   0.880 -0.3723 -0.5754  0.3634
 4415TIP3    H134880   2.946   6.367   0.817  0.4955  1.7967 -0.4944
 4415TIP3    H234881   2.937   6.411   0.962 -0.1258 -0.4961  0.2117
 4416TIP3   OH234882   5.161   0.951   1.922 -0.4223  0.5289  0.1616
 4416TIP3    H134883   5.144   1.031   1.873  0.5759  0.8382  0.2965
 4416TIP3    H234884   5.076   0.908   1.929 -0.4264 -0.2700 -3.1249
 4417TIP3   OH234885   1.455   1.553   2.315 -0.4203 -0.4941  0.5938
 4417TIP3    H134886   1.548   1.567   2.295 -0.3443  1.4967  2.0742
 4417TIP3    H234887   1.409   1.595   2.242 -0.2253 -2.2762 -0.6263
 4418TIP3   OH234888   6.316   0.760   3.406  0.0953  0.9029 -0.6504
 4418TIP3    H134889   6.386   0.695   3.412 -0.2802  0.6512  1.5194
 4418TIP3    H234890   6.308   0.796   3.494 -3.1338  0.2407 -0.5520
 4419TIP3   OH234891   2.050   6.111   1.202  0.0248 -0.0039  0.1361
 4419TIP3    H134892   2.041   6.205   1.187  1.6078  0.0484 -0.7322
 4419TIP3    H234893   1.988   6.092   1.272 -0.8244  1.5517 -0.1402
 4420TIP3   OH234894   2.507   2.817   2.895  0.5549  0.4751 -0.1773
 4420TIP3    H134895   2.416   2.803   2.869  0.5689 -0.0477  0.0622
 4420TIP3    H234896   2.553   2.739   2.865  0.4672 -0.4572  1.9387
 4421TIP3   OH234897   2.737   0.466   1.703  0.5658  0.6020  0.1618
 4421TIP3    H134898   2.714   0.559   1.707  1.3229  0.8211 -0.4662
 4421TIP3    H234899   2.751   0.441   1.794  2.3353  1.6112  0.2047
 4422TIP3   OH234900   1.632   2.476   3.120  0.2787  0.5329  0.1877
 4422TIP3    H134901   1.576   2.463   3.043 -3.5953  1.5039  2.5946
 4422TIP3    H234902   1.603   2.558   3.158  1.5811 -0.2075  3.0523
 4423TIP3   OH234903   6.048   0.633   2.666  0.2547  0.1103 -0.1489
 4423TIP3    H134904   6.083   0.575   2.733  1.7162  1.8406  0.6694
 4423TIP3    H234905   6.024   0.712   2.713 -1.8868  0.1540 -1.2009
 4424TIP3   OH234906   0.671   6.762   3.059  0.0877 -0.8376  0.2017
 4424TIP3    H134907   0.634   6.717   2.983  0.6901 -1.4090  0.2357
 4424TIP3    H234908   0.641   6.711   3.134 -0.8980 -0.0033  0.3975
 4425TIP3   OH234909   1.309   1.873   3.514  0.5004  0.4021 -0.3123
 4425TIP3    H134910   1.334   1.945   3.571  0.2289  0.3209 -0.0880
 4425TIP3    H234911   1.350   1.893   3.430 -0.6553  1.4993 -0.6480
 4426TIP3   OH234912   0.696   6.204   0.002  0.5191 -0.0197 -0.1954
 4426TIP3    H134913   0.730   6.290  -0.026 -2.9052  2.1910  1.6885
 4426TIP3    H234914   0.749   6.181   0.078  1.7199  0.2253 -0.9404
 4427TIP3   OH234915   1.041   2.653   3.702 -0.1758 -0.1567 -0.2500
 4427TIP3    H134916   1.015   2.689   3.787  2.4163 -0.6921  0.8584
 4427TIP3    H234917   0.959   2.619   3.665 -1.9643  2.9567  0.5107
 4428TIP3   OH234918   6.605   0.891   2.282  0.1769  0.1993  0.0504
 4428TIP3    H134919   6.551   0.960   2.319  0.5420  1.2940 -1.3711
 4428TIP3    H234920   6.661   0.863   2.355 -1.7165 -0.4300  1.3391
 4429TIP3   OH234921   0.534   0.748   0.833  0.5344  0.4824 -0.4235
 4429TIP3    H134922   0.589   0.673   0.858  0.1337  1.1645  3.0931
 4429TIP3    H234923   0.591   0.824   0.844  0.0557  0.9001 -0.8371
 4430TIP3   OH234924   4.643   4.095   3.870  0.7723  0.2252  0.0222
 4430TIP3    H134925   4.619   4.047   3.949  2.0950 -1.6305 -0.6376
 4430TIP3    H234926   4.670   4.182   3.901  1.2064 -0.4469  1.6035
 4431TIP3   OH234927   1.960   3.394   2.641 -0.6127  0.3732  0.5253
 4431TIP3    H134928   2.048   3.386   2.603  0.1934 -1.1650  2.5138
 4431TIP3    H234929   1.974   3.379   2.735 -2.8813  1.1498  1.0435
 4432TIP3   OH234930   3.057   1.371   4.290  0.2045  0.3798 -0.3639
 4432TIP3    H134931   3.069   1.403   4.379 -1.9996  1.3681 -0.3594
 4432TIP3    H234932   3.082   1.444   4.234  2.7271 -0.6328 -0.6540
 4433TIP3   OH234933   3.849   3.767   3.906  0.0829 -0.1618 -0.3558
 4433TIP3    H134934   3.835   3.733   3.818 -0.9962 -0.6019 -0.0369
 4433TIP3    H234935   3.924   3.719   3.939 -0.2487 -0.8704 -0.6062
 4434TIP3   OH234936   3.002   2.494   8.840  0.0451 -0.3645 -0.3336
 4434TIP3    H134937   3.024   2.404   8.815  0.4332  0.1178 -1.8221
 4434TIP3    H234938   2.926   2.516   8.786 -0.0806  0.1900  0.0568
 4435TIP3   OH234939   0.713   2.203   0.299  0.1594  0.7522  0.6205
 4435TIP3    H134940   0.773   2.268   0.264  1.4470  0.7547  2.6699
 4435TIP3    H234941   0.752   2.175   0.382 -0.8536 -1.9081  0.3288
 4436TIP3   OH234942   1.583   2.210   1.748  0.2120  0.3188 -0.3563
 4436TIP3    H134943   1.650   2.178   1.688  0.5401  0.5992 -0.1400
 4436TIP3    H234944   1.519   2.138   1.752 -0.2774  0.6335 -1.7307
 4437TIP3   OH234945   0.171   3.539   0.949  0.6570  0.2712 -0.3359
 4437TIP3    H134946   0.235   3.609   0.955  0.4753  0.4903 -0.9446
 4437TIP3    H234947   0.111   3.554   1.022  1.8603 -0.5187  0.8565
 4438TIP3   OH234948   6.194   5.191   3.610  0.4600 -0.3922 -0.2888
 4438TIP3    H134949   6.223   5.282   3.606 -0.2663 -0.0257  1.6556
 4438TIP3    H234950   6.225   5.160   3.695  0.1675 -1.7917 -0.6652
 4439TIP3   OH234951   3.288   6.696   3.623 -0.1518  0.4195  0.0292
 4439TIP3    H134952   3.311   6.658   3.708  0.5747  1.6972  0.4259
 4439TIP3    H234953   3.319   6.632   3.559 -3.1336 -1.8967  0.7071
 4440TIP3   OH234954   1.963   4.109   3.508  0.2911  0.3377  0.8026
 4440TIP3    H134955   2.047   4.136   3.546 -0.1453  1.5745  0.9629
 4440TIP3    H234956   1.899   4.133   3.575 -0.2760  0.3030  0.2740
 4441TIP3   OH234957   5.384   6.775   4.205 -0.0330  0.4910 -0.5144
 4441TIP3    H134958   5.351   6.865   4.215 -0.0091  0.3971  0.4473
 4441TIP3    H234959   5.420   6.773   4.116 -1.9723  0.8030 -1.3673
 4442TIP3   OH234960   5.548   1.852   8.567  0.7601  0.6306  0.2858
 4442TIP3    H134961   5.502   1.881   8.488 -2.0294 -1.0476  1.1461
 4442TIP3    H234962   5.638   1.838   8.538 -0.3865 -1.1131 -2.9758
 4443TIP3   OH234963   4.183   4.132   2.949 -0.4095 -0.1745  0.2698
 4443TIP3    H134964   4.141   4.148   2.865  0.0022  0.6552  0.2151
 4443TIP3    H234965   4.212   4.041   2.943 -0.7342 -0.2487 -0.3283
 4444TIP3   OH234966   0.458   3.636   2.923 -0.9755 -0.5585 -0.9266
 4444TIP3    H134967   0.404   3.618   3.001 -0.6273 -0.8338 -0.7432
 4444TIP3    H234968   0.541   3.668   2.959 -0.9830 -0.2294 -1.2036
 4445TIP3   OH234969   6.712   2.676   2.300 -0.0603 -0.4479  0.3299
 4445TIP3    H134970   6.719   2.583   2.277  1.5307 -0.6495  1.4905
 4445TIP3    H234971   6.771   2.687   2.374 -2.1849  0.9520  1.9368
 4446TIP3   OH234972   1.306   0.401   3.528 -0.4164 -0.2730  0.0750
 4446TIP3    H134973   1.220   0.443   3.526 -1.0250 -1.2630  2.5170
 4446TIP3    H234974   1.320   0.377   3.619  3.1189  1.1048  0.0723
 4447TIP3   OH234975   0.018   4.501   4.190  0.2069  0.4430 -0.1963
 4447TIP3    H134976   0.022   4.596   4.180  2.0334  0.7731  2.5453
 4447TIP3    H234977  -0.064   4.485   4.237  0.0333  0.6881 -0.4135
 4448TIP3   OH234978   1.285   1.243   3.665  0.9427  0.1111 -0.1643
 4448TIP3    H134979   1.295   1.181   3.737  1.9891 -0.7058 -0.9825
 4448TIP3    H234980   1.218   1.204   3.609  1.6698 -0.3458 -0.7291
 4449TIP3   OH234981   3.619   2.345   1.137  0.1091 -0.4157 -0.1279
 4449TIP3    H134982   3.547   2.376   1.192 -0.0410  0.5238 -0.8347
 4449TIP3    H234983   3.578   2.323   1.053  0.5222 -0.6965 -0.2642
 4450TIP3   OH234984   3.384   2.931   4.122 -0.2691  0.1643  0.0527
 4450TIP3    H134985   3.440   2.921   4.045  0.7085  1.7381  0.5268
 4450TIP3    H234986   3.424   3.001   4.173 -2.7772  1.5337  0.3207
 4451TIP3   OH234987   1.387   5.674   0.766 -0.3891 -0.0232  0.3035
 4451TIP3    H134988   1.362   5.761   0.796 -1.2025 -0.8601  2.2361
 4451TIP3    H234989   1.482   5.674   0.767 -0.3458  1.1974 -0.9157
 4452TIP3   OH234990   5.864   0.606   0.470 -0.1018 -0.4969 -0.5856
 4452TIP3    H134991   5.907   0.543   0.412 -0.2577 -0.9079 -0.2601
 4452TIP3    H234992   5.925   0.618   0.543 -1.0691 -2.1159  0.5701
 4453TIP3   OH234993   5.771   5.063   1.585  0.1534 -0.1654 -0.2162
 4453TIP3    H134994   5.719   5.126   1.635 -0.0140 -0.0357 -0.5541
 4453TIP3    H234995   5.854   5.058   1.633 -0.2539 -0.5623  0.4713
 4454TIP3   OH234996   0.651   6.069   1.145  0.1903 -0.0548 -0.2840
 4454TIP3    H134997   0.654   6.091   1.238  2.3977 -0.6551 -0.1654
 4454TIP3    H234998   0.625   6.151   1.101  2.5582  1.2466  0.5935
 4455TIP3   OH234999   1.083   0.911   2.041  0.1413  0.0115  0.1855
 4455TIP3    H135000   1.130   0.934   2.121 -1.4071  2.2304  0.5497
 4455TIP3    H235001   0.994   0.941   2.056  0.0555  1.7334 -2.8031
 4456TIP3   OH235002   1.341   1.512   0.426  0.4700  0.5020  0.5137
 4456TIP3    H135003   1.365   1.596   0.464  0.5814  0.6258  0.1681
 4456TIP3    H235004   1.349   1.524   0.332 -0.9140  0.5520  0.3722
 4457TIP3   OH235005   0.882   3.776   0.867  0.0791  0.3181 -0.9903
 4457TIP3    H135006   0.970   3.742   0.852  0.8547  1.7647  0.0997
 4457TIP3    H235007   0.838   3.708   0.918  0.8886  0.0274 -0.6717
 4458TIP3   OH235008   3.698   4.690   1.221  0.0901 -0.5471  0.1333
 4458TIP3    H135009   3.713   4.774   1.264 -0.2593 -1.1892  1.5798
 4458TIP3    H235010   3.770   4.635   1.251  1.2996 -0.3197 -2.1603
 4459TIP3   OH235011   1.873   1.219   0.690 -0.2628  0.2042  0.3355
 4459TIP3    H135012   1.860   1.288   0.755 -2.3920  0.4351 -0.2573
 4459TIP3    H235013   1.836   1.256   0.609 -1.1118 -1.4624 -0.0756
 4460TIP3   OH235014   3.021   4.505   2.633 -0.3431  0.3949 -0.1861
 4460TIP3    H135015   3.066   4.552   2.703 -1.3524  0.5010  0.4088
 4460TIP3    H235016   3.037   4.558   2.555 -0.2892  0.9745  0.2078
 4461TIP3   OH235017   2.442   2.959   3.618  0.0394 -0.2759 -0.7906
 4461TIP3    H135018   2.459   2.910   3.537  0.5320  0.4958 -1.1643
 4461TIP3    H235019   2.521   2.947   3.670  0.3167  0.4041 -1.0384
 4462TIP3   OH235020   1.744   4.795   8.119  0.5547  0.5702 -0.6615
 4462TIP3    H135021   1.833   4.759   8.115  0.4002  0.2585 -2.6356
 4462TIP3    H235022   1.758   4.890   8.113  0.7929  0.6300  0.5678
 4463TIP3   OH235023   0.795   1.378   3.248  0.6009 -0.5431 -0.2940
 4463TIP3    H135024   0.847   1.404   3.172 -0.4964 -0.7358 -1.1451
 4463TIP3    H235025   0.860   1.357   3.316  1.6092 -0.4921 -1.2124
 4464TIP3   OH235026   1.172   3.604   2.221 -0.0158 -0.0857  0.4428
 4464TIP3    H135027   1.117   3.629   2.295  1.2392 -0.4890  1.5530
 4464TIP3    H235028   1.132   3.523   2.188 -0.9455  0.4337  0.2545
 4465TIP3   OH235029   3.762   6.207   0.258  0.3450  0.7059 -0.6629
 4465TIP3    H135030   3.826   6.228   0.326  1.0173  1.1609 -1.4182
 4465TIP3    H235031   3.727   6.122   0.284  3.2791 -0.9516 -1.6523
 4466TIP3   OH235032   4.451   2.356   0.076 -0.3678  0.0881 -0.1274
 4466TIP3    H135033   4.398   2.277   0.082 -0.7144  0.3935  0.9818
 4466TIP3    H235034   4.394   2.426   0.108  0.9439  0.2857  1.9735
 4467TIP3   OH235035   1.312   5.215   1.333 -0.2455 -0.0519 -0.1827
 4467TIP3    H135036   1.359   5.132   1.343  1.1654  0.6811 -0.3849
 4467TIP3    H235037   1.325   5.260   1.416 -2.2321 -0.5891  0.4697
 4468TIP3   OH235038   1.241   5.281   4.307 -0.0107  0.2290  0.2817
 4468TIP3    H135039   1.263   5.193   4.276  0.2772  0.3584  0.1123
 4468TIP3    H235040   1.321   5.332   4.292 -0.7147  0.9379 -1.2111
 4469TIP3   OH235041   5.271   1.553   3.913  0.6543  0.0184  0.6891
 4469TIP3    H135042   5.327   1.503   3.853  2.1985  0.4594  1.7124
 4469TIP3    H235043   5.188   1.506   3.912  0.8124 -0.3435 -1.3149
 4470TIP3   OH235044   5.823   1.878   3.095  0.2896 -0.0784 -0.2446
 4470TIP3    H135045   5.854   1.819   3.026  0.7857  0.4248 -0.4620
 4470TIP3    H235046   5.729   1.885   3.080  0.0518 -1.5712  0.3816
 4471TIP3   OH235047   2.494   5.356   0.845  1.0244 -0.5292 -0.5424
 4471TIP3    H135048   2.497   5.436   0.897  1.5158 -1.2093  0.5100
 4471TIP3    H235049   2.401   5.344   0.824  0.5451 -1.1426  1.6678
 4472TIP3   OH235050   3.790   5.907   8.394  0.5638 -0.2536  0.2069
 4472TIP3    H135051   3.877   5.890   8.357 -0.3562 -0.7164 -1.8876
 4472TIP3    H235052   3.744   5.824   8.386 -0.1933  0.0754  1.0075
 4473TIP3   OH235053   6.502   3.980   2.837 -0.6755 -0.1082 -0.4021
 4473TIP3    H135054   6.448   4.007   2.763 -1.6873 -1.3056 -0.1300
 4473TIP3    H235055   6.486   4.047   2.904 -0.4468  0.4842 -0.9220
 4474TIP3   OH235056   4.694   2.582   0.588 -0.0246  0.1238 -0.7043
 4474TIP3    H135057   4.699   2.670   0.552  0.7721  0.1654 -0.5166
 4474TIP3    H235058   4.785   2.560   0.610  0.0674 -1.4020 -2.3494
 4475TIP3   OH235059   0.433   4.528   0.397 -0.6820  0.0257 -0.1321
 4475TIP3    H135060   0.488   4.483   0.332  0.0812 -0.6993  0.9812
 4475TIP3    H235061   0.492   4.545   0.471 -0.8883  3.0403 -0.5329
 4476TIP3   OH235062   0.062   2.556   2.496 -0.0602  0.1405  0.6236
 4476TIP3    H135063   0.088   2.469   2.527  0.6404  0.1030 -0.0295
 4476TIP3    H235064   0.119   2.572   2.421 -1.0624  0.6270 -0.0504
 4477TIP3   OH235065   1.522   5.295   1.804 -0.2121  0.1039 -0.6678
 4477TIP3    H135066   1.542   5.346   1.882 -0.1445 -0.2282 -0.4641
 4477TIP3    H235067   1.501   5.208   1.837 -0.2957 -0.0081 -1.0113
 4478TIP3   OH235068   4.056   2.626   3.828  0.5168  0.4951 -0.2504
 4478TIP3    H135069   3.983   2.657   3.882  1.3854 -1.3047  2.1084
 4478TIP3    H235070   4.108   2.704   3.811 -1.3685  1.6331 -1.1244
 4479TIP3   OH235071   2.402   1.514   1.824  0.0434 -0.4037  0.4936
 4479TIP3    H135072   2.412   1.505   1.729 -0.0710 -0.2092  0.4605
 4479TIP3    H235073   2.439   1.434   1.861 -0.6174 -0.8372  0.2408
 4480TIP3   OH235074   6.527   5.724   1.194 -0.1560 -0.5131 -0.3999
 4480TIP3    H135075   6.569   5.639   1.210 -1.8925 -1.3827 -0.2078
 4480TIP3    H235076   6.500   5.753   1.281  0.7175  0.4098 -0.4278
 4481TIP3   OH235077   3.563   1.072   0.065  0.2481  0.0224  0.3057
 4481TIP3    H135078   3.501   1.145   0.060  0.4710  0.2382  0.6334
 4481TIP3    H235079   3.582   1.051  -0.026  1.7525  1.7218  0.1647
 4482TIP3   OH235080   2.305   3.880   2.886 -0.3931  0.8108 -0.2630
 4482TIP3    H135081   2.245   3.920   2.823 -0.7844  0.4700 -0.1155
 4482TIP3    H235082   2.274   3.790   2.894  0.6031  0.4166 -0.7464
 4483TIP3   OH235083   0.541   3.427   0.416 -0.2511  0.3402  0.6113
 4483TIP3    H135084   0.452   3.392   0.411  0.6699 -2.1365 -0.4556
 4483TIP3    H235085   0.584   3.372   0.482  0.5050  1.4608  1.0716
 4484TIP3   OH235086   0.641   2.986   0.732  0.1876 -0.1069  0.0137
 4484TIP3    H135087   0.717   2.929   0.721  0.3618  0.3130 -1.1101
 4484TIP3    H235088   0.625   3.022   0.645 -0.8221  0.4257  0.3977
 4485TIP3   OH235089   6.265   5.241   1.620 -0.0260 -0.2603  0.4243
 4485TIP3    H135090   6.208   5.302   1.573  0.8176  0.1485 -0.0930
 4485TIP3    H235091   6.248   5.260   1.712  0.6302  1.1769  0.2822
 4486TIP3   OH235092   2.983   3.699   1.131 -0.4219  0.3310  0.5969
 4486TIP3    H135093   3.059   3.689   1.188  0.6258  1.4595 -0.5232
 4486TIP3    H235094   2.911   3.660   1.179  1.1617 -2.2474  1.0405
 4487TIP3   OH235095   3.290   0.857   3.076  0.0436  0.2393 -0.9127
 4487TIP3    H135096   3.309   0.939   3.122  1.6188 -0.3752 -0.4095
 4487TIP3    H235097   3.371   0.806   3.083 -0.6116 -1.0090 -1.9789
 4488TIP3   OH235098   3.685   6.086   2.785 -0.0723 -0.3209 -0.6297
 4488TIP3    H135099   3.779   6.071   2.783  0.1041  0.7832 -1.2538
 4488TIP3    H235100   3.653   6.049   2.703  0.1061  0.9629 -1.3077
 4489TIP3   OH235101   4.091   6.472   1.834 -0.1852 -0.3918  0.2117
 4489TIP3    H135102   4.121   6.419   1.907 -2.6210 -1.9458  0.1778
 4489TIP3    H235103   4.050   6.548   1.874  0.5291 -0.0778  0.3611
 4490TIP3   OH235104   0.301   2.749   2.889 -0.2291 -0.3390 -0.1607
 4490TIP3    H135105   0.278   2.780   2.977 -1.6385 -1.6051 -0.0430
 4490TIP3    H235106   0.226   2.774   2.835 -0.0511 -0.9131 -0.6771
 4491TIP3   OH235107   3.909   0.367   2.863  0.4968  0.1961  0.4735
 4491TIP3    H135108   3.937   0.363   2.954  0.0566 -0.5103  0.5918
 4491TIP3    H235109   3.881   0.277   2.843  1.0786  0.2292 -0.5156
 4492TIP3   OH235110   2.229   3.811   4.236 -0.3692  0.2961  0.2107
 4492TIP3    H135111   2.241   3.724   4.273 -1.1033 -0.3823 -1.0672
 4492TIP3    H235112   2.252   3.871   4.307 -1.5256 -0.9287  1.6918
 4493TIP3   OH235113   6.104   6.598   0.112  0.0667 -0.1609 -0.1550
 4493TIP3    H135114   6.060   6.571   0.193 -0.3245 -0.9108 -0.6075
 4493TIP3    H235115   6.062   6.545   0.043  2.0572 -1.3490 -0.5313
 4494TIP3   OH235116   6.706   6.720   1.103  0.0164  0.2342  0.2348
 4494TIP3    H135117   6.729   6.627   1.102 -2.0963 -0.3814  1.9943
 4494TIP3    H235118   6.703   6.744   1.010 -0.5603 -1.7790 -0.3329
 4495TIP3   OH235119   2.918   0.080   3.807  0.0742  0.5558 -0.0280
 4495TIP3    H135120   2.948   0.112   3.722 -0.7575  2.1140  0.2397
 4495TIP3    H235121   2.998   0.067   3.858  0.5456  0.0778 -0.8705
 4496TIP3   OH235122   2.018   1.904   3.102  0.5877  0.7129 -0.4066
 4496TIP3    H135123   1.926   1.903   3.077  0.0471  0.9713  1.4512
 4496TIP3    H235124   2.063   1.860   3.030 -0.9956  0.4595 -1.2752
 4497TIP3   OH235125   0.942   5.491   3.794 -0.2868  0.2359  0.3026
 4497TIP3    H135126   1.029   5.507   3.830  0.0308  1.0286 -0.7545
 4497TIP3    H235127   0.902   5.428   3.853  0.8487  0.1893  1.0401
 4498TIP3   OH235128   0.233   2.768   1.359 -0.4079 -0.3320 -0.0607
 4498TIP3    H135129   0.190   2.699   1.309 -0.8889  0.5852 -0.9377
 4498TIP3    H235130   0.309   2.793   1.307  1.2273 -1.8999  1.4501
 4499TIP3   OH235131   1.474   2.109   3.188 -0.1376  0.1220 -0.3583
 4499TIP3    H135132   1.435   2.033   3.231  0.4088  0.0798  0.0777
 4499TIP3    H235133   1.404   2.173   3.185  0.1372  0.5914  1.7709
 4500TIP3   OH235134   0.196   3.812   3.330  0.3314  0.0474  0.4347
 4500TIP3    H135135   0.266   3.870   3.361 -0.1588  1.6061 -1.2065
 4500TIP3    H235136   0.119   3.837   3.381 -0.0174  1.3078 -0.6468
 4501TIP3   OH235137   6.507   5.570   3.250  0.6250 -0.5021  0.4337
 4501TIP3    H135138   6.492   5.475   3.255  0.3036 -0.4062  1.5675
 4501TIP3    H235139   6.550   5.592   3.332 -1.9649  0.7666  1.5595
 4502TIP3   OH235140   5.403   1.646   3.307  0.2066  0.0628  0.6513
 4502TIP3    H135141   5.316   1.634   3.267  0.6879  0.2262 -0.4779
 4502TIP3    H235142   5.405   1.582   3.378 -0.1802 -1.2150 -0.4448
 4503TIP3   OH235143   3.890   2.672   2.347  0.4557 -0.0719  0.2069
 4503TIP3    H135144   3.973   2.627   2.334  0.4776 -0.1516  0.6062
 4503TIP3    H235145   3.875   2.668   2.442  1.9444  3.4154  0.7236
 4504TIP3   OH235146   2.894   3.227   2.485 -0.1194  0.1364  0.0825
 4504TIP3    H135147   2.876   3.135   2.502  1.3906 -0.5358 -1.5689
 4504TIP3    H235148   2.812   3.272   2.504 -1.8796 -1.9476 -1.9509
 4505TIP3   OH235149   4.827   5.910   3.446 -0.8862 -0.5683 -0.1551
 4505TIP3    H135150   4.747   5.865   3.420 -1.4635 -0.0749  0.7379
 4505TIP3    H235151   4.798   5.984   3.499  0.1210  0.0545 -0.4328
 4506TIP3   OH235152   1.070   0.147   2.873  0.0265  0.0998 -0.2916
 4506TIP3    H135153   1.148   0.196   2.902  0.2030  0.7104 -1.7090
 4506TIP3    H235154   1.023   0.208   2.816  1.9714 -2.2083 -5.0016
 4507TIP3   OH235155   0.742   0.869   8.494 -0.8088  0.5273 -0.0366
 4507TIP3    H135156   0.706   0.957   8.507  2.8149  2.2144 -0.2144
 4507TIP3    H235157   0.804   0.879   8.422  0.4202 -1.9808  0.5646
 4508TIP3   OH235158   2.862   5.322   0.320 -0.3582  0.5119 -0.1866
 4508TIP3    H135159   2.778   5.285   0.348  0.0970 -1.0583 -0.7983
 4508TIP3    H235160   2.878   5.393   0.382 -0.4514 -1.4142  2.2383
 4509TIP3   OH235161   1.118   1.967   2.287  0.0409  0.0966 -0.6476
 4509TIP3    H135162   1.046   2.003   2.234 -1.6055 -1.7380  0.2186
 4509TIP3    H235163   1.078   1.893   2.334  2.4330 -0.7594  0.1499
 4510TIP3   OH235164   6.404   0.233   0.680 -0.7990 -0.1955 -0.4957
 4510TIP3    H135165   6.372   0.228   0.771 -0.0306 -1.3284 -0.2647
 4510TIP3    H235166   6.328   0.209   0.627 -0.5110 -2.4867  0.0248
 4511TIP3   OH235167   3.545   3.250   4.146 -0.0525 -0.1437  0.8514
 4511TIP3    H135168   3.474   3.306   4.177  0.8551  1.0287  0.8592
 4511TIP3    H235169   3.624   3.303   4.156  1.1453 -2.1440  2.7931
 4512TIP3   OH235170   1.505   2.339   1.512  0.2690 -0.2422 -0.1975
 4512TIP3    H135171   1.546   2.304   1.591  0.2394  0.9038  0.3348
 4512TIP3    H235172   1.575   2.338   1.446  0.3098 -1.1423 -0.1538
 4513TIP3   OH235173   3.672   0.302   2.315  0.2066  0.0840  0.4407
 4513TIP3    H135174   3.724   0.294   2.394  1.5114 -1.3410 -0.5143
 4513TIP3    H235175   3.723   0.360   2.258 -1.3749  2.2384  1.0904
 4514TIP3   OH235176   6.735   5.218   3.355  0.1631 -0.6991  0.6540
 4514TIP3    H135177   6.743   5.127   3.385  0.4419 -0.2922  1.8405
 4514TIP3    H235178   6.640   5.233   3.351  0.1021 -0.4359  2.3988
 4515TIP3   OH235179   6.307   2.712   7.756 -0.2120 -0.0807  0.0622
 4515TIP3    H135180   6.281   2.722   7.664 -0.5202 -0.1789  0.1404
 4515TIP3    H235181   6.401   2.734   7.756 -0.1762 -0.2227 -0.2993
 4516TIP3   OH235182   2.131   5.829   3.087  0.1975 -0.6246  0.1612
 4516TIP3    H135183   2.158   5.743   3.120 -0.5575 -0.9117  0.0685
 4516TIP3    H235184   2.206   5.860   3.036  0.6702 -0.9972  0.6180
 4517TIP3   OH235185   1.411   2.727   2.548  0.4469 -0.3418  0.0822
 4517TIP3    H135186   1.355   2.651   2.566 -0.3107  0.0650 -0.4680
 4517TIP3    H235187   1.450   2.709   2.463 -0.8097  0.4590 -0.7109
 4518TIP3   OH235188   2.394   3.938   3.502  0.7040 -0.1576 -0.1995
 4518TIP3    H135189   2.434   3.963   3.419 -0.2578  0.3806 -0.5125
 4518TIP3    H235190   2.444   3.861   3.530  2.5532  1.0081 -0.1019
 4519TIP3   OH235191   2.823   6.713   0.254 -0.3055  0.3001  0.0907
 4519TIP3    H135192   2.766   6.787   0.235  0.1897  0.1354 -2.4176
 4519TIP3    H235193   2.894   6.720   0.189  0.4179 -1.6763  0.5788
 4520TIP3   OH235194   1.572   2.410   8.686  0.4862 -0.3892  0.3030
 4520TIP3    H135195   1.495   2.376   8.640  0.9671 -0.0074 -0.8092
 4520TIP3    H235196   1.614   2.468   8.623  0.9310  0.4990  1.3786
 4521TIP3   OH235197   1.244   6.718   3.197  0.2375 -0.0901  0.1009
 4521TIP3    H135198   1.237   6.707   3.102 -0.1237 -0.1375  0.1320
 4521TIP3    H235199   1.337   6.730   3.213  0.1993  0.8789 -0.3655
 4522TIP3   OH235200   5.474   0.979   2.367 -0.1121  0.4986 -0.3245
 4522TIP3    H135201   5.522   1.058   2.343  1.7759 -0.2632  0.7068
 4522TIP3    H235202   5.413   0.964   2.294 -0.1021  2.5430 -0.8012
 4523TIP3   OH235203   5.043   2.628   2.632  0.2302 -0.4572 -0.3401
 4523TIP3    H135204   5.061   2.549   2.581 -0.6636 -0.0887 -1.2770
 4523TIP3    H235205   5.066   2.604   2.722  1.7002 -1.1842 -0.8646
 4524TIP3   OH235206   2.723   2.655   2.738 -0.3097  0.1049 -0.3243
 4524TIP3    H135207   2.715   2.590   2.807 -0.4976 -0.1364 -0.5708
 4524TIP3    H235208   2.699   2.608   2.658 -1.9603  0.8656 -0.3115
 4525TIP3   OH235209   0.934   6.679   2.905 -0.0569 -0.2544 -0.8004
 4525TIP3    H135210   0.874   6.746   2.872 -0.7994 -1.6181 -2.3856
 4525TIP3    H235211   0.937   6.694   3.000 -1.7749  0.7620 -0.8633
 4526TIP3   OH235212   5.323   2.213   1.318  0.2506 -0.2490  0.2419
 4526TIP3    H135213   5.392   2.277   1.300 -0.2689 -0.0568 -1.2368
 4526TIP3    H235214   5.299   2.179   1.232 -3.3309  1.6248  0.3216
 4527TIP3   OH235215   5.691   3.800   0.650  0.0419 -0.1996  0.2937
 4527TIP3    H135216   5.653   3.757   0.727  0.4563 -0.1330  0.5343
 4527TIP3    H235217   5.784   3.805   0.668 -0.1752  2.6538  1.2192
 4528TIP3   OH235218   3.906   1.544   0.713 -0.3850 -0.3785 -0.5708
 4528TIP3    H135219   3.986   1.572   0.670  0.2730  0.0361  0.8760
 4528TIP3    H235220   3.903   1.593   0.795 -1.0487 -1.8834  0.3669
 4529TIP3   OH235221   3.254   6.004   0.289  0.0402  0.4667 -0.1421
 4529TIP3    H135222   3.264   5.913   0.319 -0.2131  0.8694  1.2229
 4529TIP3    H235223   3.160   6.017   0.281  0.1050  0.1897 -1.7830
 4530TIP3   OH235224   4.713   3.115   1.098 -0.1402  0.1835 -0.1180
 4530TIP3    H135225   4.712   3.048   1.029 -1.1698  0.5258 -0.4439
 4530TIP3    H235226   4.622   3.140   1.109  0.2306  1.5805 -0.0385
 4531TIP3   OH235227   1.882   5.360   1.635 -0.5673  0.1482 -0.1186
 4531TIP3    H135228   1.798   5.324   1.606 -1.4824  1.2542  1.0689
 4531TIP3    H235229   1.879   5.352   1.731  1.0246 -0.4984 -0.0946
 4532TIP3   OH235230   2.609   5.662   0.937  0.4508 -0.4638  0.4670
 4532TIP3    H135231   2.635   5.701   0.854 -1.3979 -1.2589 -0.5243
 4532TIP3    H235232   2.682   5.603   0.959  1.1814  0.1216 -0.3101
 4533TIP3   OH235233   4.476   2.623   1.476  0.5091 -0.2345  0.4143
 4533TIP3    H135234   4.430   2.577   1.406 -0.0521  1.6701 -0.5466
 4533TIP3    H235235   4.569   2.610   1.457  0.3636  0.4962 -0.8783
 4534TIP3   OH235236   3.854   0.823   3.818 -0.2107 -0.7160  0.0997
 4534TIP3    H135237   3.773   0.780   3.789 -1.4844  1.0289  0.8799
 4534TIP3    H235238   3.832   0.916   3.818  1.7669 -0.2122  0.5118
 4535TIP3   OH235239   0.226   0.952   1.065 -0.3457  0.4923 -0.2200
 4535TIP3    H135240   0.298   1.015   1.064 -0.2453  0.3739 -0.4093
 4535TIP3    H235241   0.262   0.876   1.112  0.5103 -0.5841 -2.4975
 4536TIP3   OH235242   4.821   0.627   0.422  0.1300  0.4082 -0.0226
 4536TIP3    H135243   4.779   0.545   0.397  1.6939 -0.1810 -0.8410
 4536TIP3    H235244   4.839   0.617   0.515 -1.0658  0.4785  0.2326
 4537TIP3   OH235245   4.841   4.964   4.041 -0.1072  0.3586 -0.2305
 4537TIP3    H135246   4.790   5.040   4.070 -0.8948  0.7058 -2.3781
 4537TIP3    H235247   4.862   4.982   3.950  0.9738 -1.3513 -0.3617
 4538TIP3   OH235248   5.078   3.820   3.645 -0.2577  0.2289  0.5189
 4538TIP3    H135249   5.055   3.731   3.671 -1.1426 -0.3426 -2.0202
 4538TIP3    H235250   5.013   3.876   3.688 -0.3329 -0.4270  1.2726
 4539TIP3   OH235251   1.413   0.974   0.115 -0.6257 -0.2477 -0.8725
 4539TIP3    H135252   1.496   0.982   0.068  0.0501 -0.1636  0.2884
 4539TIP3    H235253   1.350   1.019   0.059  0.4246  1.1078 -1.0456
 4540TIP3   OH235254   5.377   2.542   2.205  0.3065  0.2530  0.2437
 4540TIP3    H135255   5.308   2.501   2.152  0.4684  0.7169 -0.3419
 4540TIP3    H235256   5.347   2.632   2.216  1.4243  0.8347 -1.1354
 4541TIP3   OH235257   4.439   3.946   4.004  0.0340 -0.5597  0.5043
 4541TIP3    H135258   4.349   3.927   4.031 -1.3777  1.3724 -2.4439
 4541TIP3    H235259   4.471   4.008   4.070 -0.9167 -0.9454  1.3594
 4542TIP3   OH235260   3.824   6.291   1.744  0.0991 -0.1580 -0.1307
 4542TIP3    H135261   3.897   6.295   1.806 -1.8685  1.1774  2.3074
 4542TIP3    H235262   3.767   6.222   1.780 -0.7921  0.2080 -0.8140
 4543TIP3   OH235263   0.486   5.084   0.412  0.1996  0.1581 -0.7092
 4543TIP3    H135264   0.577   5.097   0.437 -0.1238 -0.2093  0.7112
 4543TIP3    H235265   0.445   5.041   0.487 -1.4836  1.6126 -0.7111
 4544TIP3   OH235266   5.377   5.481   1.971 -0.0028  0.2332  0.4917
 4544TIP3    H135267   5.325   5.550   1.929 -0.3117 -1.5115 -2.2377
 4544TIP3    H235268   5.330   5.462   2.052 -0.8241  2.0335  0.5046
 4545TIP3   OH235269   5.214   6.660   1.034 -0.2353 -0.3152  0.9252
 4545TIP3    H135270   5.137   6.715   1.048  0.7608  1.4593 -0.2756
 4545TIP3    H235271   5.231   6.621   1.119 -0.5281  1.8815  2.0657
 4546TIP3   OH235272   4.519   5.140   0.024 -0.2460 -0.3111 -0.1048
 4546TIP3    H135273   4.449   5.111   0.082 -2.5805 -0.1958 -2.6367
 4546TIP3    H235274   4.546   5.062  -0.024 -0.3194  0.0525 -0.7648
 4547TIP3   OH235275   3.717   0.821   4.303  0.4862  0.2693 -0.7238
 4547TIP3    H135276   3.741   0.811   4.211  1.6879  1.0105 -0.5219
 4547TIP3    H235277   3.799   0.803   4.350 -0.6788 -2.8513  0.4115
 4548TIP3   OH235278   0.388   6.169   3.625 -0.1343  0.6418  0.8158
 4548TIP3    H135279   0.383   6.084   3.669  0.9481  0.8782  1.4472
 4548TIP3    H235280   0.401   6.231   3.697 -0.6372  1.3135  0.3340
 4549TIP3   OH235281   0.439   3.042   2.016 -0.0227 -0.1206 -0.5087
 4549TIP3    H135282   0.447   3.120   1.962  1.1436  1.3999  1.6869
 4549TIP3    H235283   0.459   2.969   1.957  0.7810  1.3786 -2.1738
 4550TIP3   OH235284   0.068   1.105   2.382 -0.4455  0.0059  0.2481
 4550TIP3    H135285  -0.011   1.076   2.427 -0.5691  0.0059  0.0306
 4550TIP3    H235286   0.140   1.074   2.438 -0.5668 -0.9636 -0.1073
 4551TIP3   OH235287   4.841   5.163   2.020 -0.1200 -0.4018  0.6400
 4551TIP3    H135288   4.906   5.230   2.042 -0.1357 -0.1599 -0.0350
 4551TIP3    H235289   4.760   5.196   2.060 -0.3556  0.5043 -0.5067
 4552TIP3   OH235290   4.225   5.469   8.707 -0.2641  0.3429  0.2141
 4552TIP3    H135291   4.195   5.540   8.651 -0.2835  1.2630  1.3501
 4552TIP3    H235292   4.197   5.389   8.662  3.9924  0.6168 -3.7324
 4553TIP3   OH235293   1.810   0.945   2.263 -0.0748 -0.1925  0.6418
 4553TIP3    H135294   1.793   0.860   2.302 -0.4340 -0.6869 -0.5341
 4553TIP3    H235295   1.859   0.993   2.330  2.3971 -2.1941  0.4211
 4554TIP3   OH235296   1.586   5.351   2.528 -0.5880 -0.6226  0.3091
 4554TIP3    H135297   1.665   5.397   2.498 -0.2755 -0.6103  1.1239
 4554TIP3    H235298   1.619   5.277   2.579 -1.0409 -2.6939 -2.1914
 4555TIP3   OH235299   1.647   1.451   0.190  0.5021 -0.0044 -0.0651
 4555TIP3    H135300   1.738   1.431   0.172  1.6720  2.2101  2.6658
 4555TIP3    H235301   1.625   1.396   0.266  0.5886  1.6052  1.1799
 4556TIP3   OH235302   5.757   3.763   2.860 -0.8233  0.1588  0.3379
 4556TIP3    H135303   5.708   3.794   2.784 -0.1897 -2.8095 -1.4321
 4556TIP3    H235304   5.730   3.671   2.870  2.3231 -0.8259  0.9181
 4557TIP3   OH235305   1.759   0.679   2.328  0.3098 -0.0545  0.1353
 4557TIP3    H135306   1.754   0.654   2.420  0.4424 -1.5955 -0.2482
 4557TIP3    H235307   1.724   0.603   2.280  1.9658 -0.0702 -1.1730
 4558TIP3   OH235308   0.114   5.713   1.003 -0.4600 -0.3498 -0.7745
 4558TIP3    H135309   0.156   5.627   1.005  2.1975  0.8537 -0.0504
 4558TIP3    H235310   0.095   5.733   1.094  4.1494  2.0127 -0.0494
 4559TIP3   OH235311   3.605   3.136   1.119  0.8968  0.5644  0.2111
 4559TIP3    H135312   3.587   3.050   1.157 -0.7991  0.4501 -0.7690
 4559TIP3    H235313   3.699   3.134   1.099  1.0267 -0.7898  0.8162
 4560TIP3   OH235314   1.540   6.689   4.814  0.2361 -0.0415  0.3985
 4560TIP3    H135315   1.460   6.670   4.766  1.7857 -0.6550 -2.1174
 4560TIP3    H235316   1.560   6.609   4.862 -1.5766  0.7309  2.6498
 4561TIP3   OH235317   1.450   3.343   1.219  0.1065  0.4199 -0.0129
 4561TIP3    H135318   1.411   3.426   1.247 -0.2897 -0.0734  0.9172
 4561TIP3    H235319   1.378   3.295   1.178 -0.0935 -0.1855  1.0362
 4562TIP3   OH235320   2.688   1.404   1.950  0.1953 -0.3111  0.8602
 4562TIP3    H135321   2.611   1.367   1.994 -0.8797 -0.0652 -0.7552
 4562TIP3    H235322   2.750   1.332   1.947 -0.6936 -1.0772  0.5143
 4563TIP3   OH235323   6.780   4.801   1.049  0.2922 -0.3385 -0.2490
 4563TIP3    H135324   6.760   4.894   1.040 -1.5086 -0.7100 -0.4145
 4563TIP3    H235325   6.817   4.793   1.136 -0.8959  0.3372  0.3491
 4564TIP3   OH235326   5.004   0.284   0.700  0.0945  0.7312 -0.3319
 4564TIP3    H135327   4.919   0.252   0.728  1.3090 -0.1047  2.8339
 4564TIP3    H235328   5.036   0.336   0.774  2.4031  0.9046 -1.3497
 4565TIP3   OH235329   2.258   0.010   0.530  0.5105  0.0837 -0.6885
 4565TIP3    H135330   2.185  -0.018   0.474 -0.9965  0.4423  1.0239
 4565TIP3    H235331   2.246   0.104   0.540 -0.1630 -0.1878  1.4401
 4566TIP3   OH235332   2.257   0.475   1.808  0.0661 -0.2536  0.6771
 4566TIP3    H135333   2.186   0.417   1.837  0.6901 -1.2891  0.2196
 4566TIP3    H235334   2.309   0.491   1.887  0.1697 -0.7533  0.7179
 4567TIP3   OH235335   0.956   1.329   0.708  0.6769  0.1125  0.2558
 4567TIP3    H135336   1.000   1.309   0.626 -0.1045 -0.2098 -0.0962
 4567TIP3    H235337   0.961   1.249   0.759  0.1889 -0.0504  0.0611
 4568TIP3   OH235338   1.414   0.667   3.497 -0.1011  0.3043  0.1202
 4568TIP3    H135339   1.329   0.681   3.538 -1.1415 -1.3953 -1.2852
 4568TIP3    H235340   1.431   0.573   3.509  1.1824  0.4579 -0.3402
 4569TIP3   OH235341   3.027   1.923   3.266 -0.1536  0.2608  0.1221
 4569TIP3    H135342   3.118   1.941   3.241  0.1662 -0.7860  0.4908
 4569TIP3    H235343   2.998   1.857   3.202 -0.0730 -0.7189  1.0710
 4570TIP3   OH235344   6.630   0.656   1.153 -0.2523 -0.2144  0.1347
 4570TIP3    H135345   6.713   0.627   1.115 -0.8071 -1.6811 -0.0252
 4570TIP3    H235346   6.567   0.649   1.081 -0.5816  0.5789  0.3398
 4571TIP3   OH235347   3.860   4.330   2.835  0.4129  0.7353 -0.7231
 4571TIP3    H135348   3.948   4.351   2.806  1.4733  2.1589  2.8794
 4571TIP3    H235349   3.841   4.244   2.797  2.5595  1.1953 -3.0511
 4572TIP3   OH235350   6.116   5.360   0.049 -0.0382 -0.1117 -1.0815
 4572TIP3    H135351   6.055   5.363  -0.024 -3.2210  3.3394  1.3259
 4572TIP3    H235352   6.162   5.444   0.046  1.4290 -0.8477 -0.3461
 4573TIP3   OH235353   2.016   4.464   0.435 -0.0192  0.3240 -0.4497
 4573TIP3    H135354   2.050   4.552   0.451  2.0053 -0.6258  0.9848
 4573TIP3    H235355   1.925   4.467   0.466 -0.7244  2.4111 -2.4491
 4574TIP3   OH235356   0.170   5.893   8.675  1.2974  0.6532 -0.2197
 4574TIP3    H135357   0.204   5.966   8.725 -1.5336  0.9287  1.5431
 4574TIP3    H235358   0.197   5.815   8.724 -1.0161  0.9008  1.6118
 4575TIP3   OH235359   6.171   1.145   2.373  0.2338  0.0619  0.4465
 4575TIP3    H135360   6.081   1.149   2.404  0.2880 -0.4919  0.6704
 4575TIP3    H235361   6.188   1.234   2.339 -0.0974  0.4275  1.2174
 4576TIP3   OH235362   0.717   2.359   1.017  0.3849  0.0646 -0.1592
 4576TIP3    H135363   0.623   2.358   1.035  0.6366 -1.2220  1.2996
 4576TIP3    H235364   0.737   2.270   0.987  1.2943  0.0193  0.5374
 4577TIP3   OH235365   3.355   6.334   3.352 -0.2187 -0.1321 -0.2528
 4577TIP3    H135366   3.428   6.272   3.348 -0.3166 -0.1913 -2.0015
 4577TIP3    H235367   3.323   6.328   3.442  0.5062 -1.7774 -0.0728
 4578TIP3   OH235368   6.166   5.494   4.594 -0.0297  0.0778  0.2443
 4578TIP3    H135369   6.073   5.472   4.594 -0.3843  1.5190  1.0481
 4578TIP3    H235370   6.170   5.587   4.575  1.3222 -0.1415 -0.7592
 4579TIP3   OH235371   0.104   4.438   2.706 -0.7102  0.5245 -0.4087
 4579TIP3    H135372   0.166   4.426   2.778 -2.5079 -1.1121  0.9728
 4579TIP3    H235373   0.143   4.392   2.632 -0.8477 -1.7646  0.8476
 4580TIP3   OH235374   5.733   1.236   3.756 -0.0348  0.1612 -0.3036
 4580TIP3    H135375   5.644   1.235   3.793 -0.1671  0.7537 -0.5865
 4580TIP3    H235376   5.777   1.161   3.797 -1.0084 -0.8378 -1.0339
 4581TIP3   OH235377   4.803   2.925   8.771 -0.1173 -0.2071 -0.2916
 4581TIP3    H135378   4.798   3.010   8.815 -1.1980  0.1434 -1.0346
 4581TIP3    H235379   4.880   2.932   8.715  0.7562 -0.3376  0.8528
 4582TIP3   OH235380   3.552   6.103   3.021 -0.6268 -0.0664 -0.1430
 4582TIP3    H135381   3.464   6.124   2.989 -0.4781  0.7347 -0.0268
 4582TIP3    H235382   3.601   6.080   2.942 -1.5617 -2.9995 -0.0238
 4583TIP3   OH235383   1.553   5.774   2.939 -0.3198 -0.2413  0.1386
 4583TIP3    H135384   1.487   5.836   2.970  1.5852  2.2906 -0.5335
 4583TIP3    H235385   1.549   5.780   2.844  0.6558 -0.2763  0.0836
 4584TIP3   OH235386   4.593   1.091   0.820  0.3637 -0.1152  0.1943
 4584TIP3    H135387   4.672   1.143   0.836  1.4148 -1.4390 -0.4729
 4584TIP3    H235388   4.533   1.117   0.890  0.9841  1.6676  0.1261
 4585TIP3   OH235389   0.996   1.197   2.841  0.1830  0.3172  0.9804
 4585TIP3    H135390   1.069   1.170   2.785 -1.3382  0.5389 -1.2494
 4585TIP3    H235391   0.938   1.121   2.844 -0.6133  0.9074  0.7699
 4586TIP3   OH235392   5.572   5.385   2.525 -0.0134 -0.8454  0.2733
 4586TIP3    H135393   5.621   5.459   2.488 -0.4805 -0.7896 -0.2399
 4586TIP3    H235394   5.531   5.343   2.450  0.3067 -1.6855  0.5535
 4587TIP3   OH235395   0.322   4.910   1.040 -0.3226  0.0657 -0.4971
 4587TIP3    H135396   0.357   4.825   1.012 -0.9102  0.2030 -1.6753
 4587TIP3    H235397   0.253   4.888   1.103 -1.3424 -0.3926 -1.7564
 4588TIP3   OH235398   4.277   5.073   0.180  0.2465  0.5262 -0.3132
 4588TIP3    H135399   4.206   5.120   0.225  1.3113  1.9245 -0.0385
 4588TIP3    H235400   4.272   4.984   0.216 -1.9751  0.2926 -1.0271
 4589TIP3   OH235401   4.872   3.998   3.753 -0.3207 -0.0258  0.0550
 4589TIP3    H135402   4.914   4.082   3.768  0.0189  0.5584 -3.3897
 4589TIP3    H235403   4.785   4.007   3.792  0.6051  0.8894  2.0511
 4590TIP3   OH235404   6.592   1.040   8.104 -0.0760  0.3599 -0.0443
 4590TIP3    H135405   6.585   1.131   8.135 -0.2209  0.7912 -1.2968
 4590TIP3    H235406   6.566   1.044   8.012  0.2769 -0.8993 -0.2126
 4591TIP3   OH235407   5.498   6.017   1.260  0.6684 -0.2187  0.1355
 4591TIP3    H135408   5.556   5.958   1.309  1.0792 -1.3053 -1.5927
 4591TIP3    H235409   5.412   5.975   1.263  0.3974  0.3673  0.9762
 4592TIP3   OH235410   3.383   5.484   0.422 -0.2333 -0.1557  0.0911
 4592TIP3    H135411   3.455   5.520   0.370 -1.0255  0.3082 -0.7191
 4592TIP3    H235412   3.311   5.546   0.408 -0.0695  0.8416  2.9494
 4593TIP3   OH235413   3.315   1.782   0.409 -0.2068 -0.1816 -0.8994
 4593TIP3    H135414   3.359   1.709   0.365  0.5747 -0.2454 -0.0574
 4593TIP3    H235415   3.369   1.858   0.388 -0.2482 -0.0860 -0.6646
 4594TIP3   OH235416   6.301   3.279   2.407  0.2290 -0.4654  0.4918
 4594TIP3    H135417   6.381   3.307   2.452  1.0912  2.4701 -2.3983
 4594TIP3    H235418   6.279   3.195   2.446  3.5064 -0.4052  2.9001
 4595TIP3   OH235419   6.728   6.131   2.889 -0.4193  0.1921  0.1013
 4595TIP3    H135420   6.634   6.146   2.900 -0.2469  1.0680  0.4578
 4595TIP3    H235421   6.768   6.214   2.913  0.5162 -0.4591  0.8311
 4596TIP3   OH235422   2.802   3.972   0.537  0.4630 -0.3205  0.2508
 4596TIP3    H135423   2.896   3.984   0.549  0.2203  0.9854  1.0108
 4596TIP3    H235424   2.791   3.963   0.442  1.2431  0.5917  0.0600
 4597TIP3   OH235425   5.687   6.193   3.981  0.4435  0.3740  0.1822
 4597TIP3    H135426   5.721   6.247   3.910 -0.1949 -0.1809 -0.5637
 4597TIP3    H235427   5.616   6.245   4.019  0.6009  0.5503  0.2385
 4598TIP3   OH235428   3.741   2.832   1.882 -0.6349  0.4051 -0.4758
 4598TIP3    H135429   3.729   2.784   1.965 -0.6553 -1.2566 -1.3912
 4598TIP3    H235430   3.821   2.794   1.845 -1.5600 -0.1066 -2.0106
 4599TIP3   OH235431   2.801   5.674   2.756  0.3008 -0.5853 -0.2983
 4599TIP3    H135432   2.840   5.698   2.840 -0.4528 -1.7257  0.4022
 4599TIP3    H235433   2.813   5.579   2.750 -0.1012 -0.5847 -1.2471
 4600TIP3   OH235434   2.354   4.392   1.554  0.6063  0.2501  0.4681
 4600TIP3    H135435   2.344   4.303   1.587 -0.1412  1.1601  2.9787
 4600TIP3    H235436   2.310   4.391   1.469 -2.1327 -1.1243  1.7458
 4601TIP3   OH235437   3.195   5.632   0.884  0.2772  0.4611 -0.7521
 4601TIP3    H135438   3.190   5.689   0.960  2.1516  0.3058 -0.4479
 4601TIP3    H235439   3.128   5.664   0.824 -1.1732  0.6340  0.9144
 4602TIP3   OH235440   1.758   1.376   8.511 -0.0776 -0.3026  0.6869
 4602TIP3    H135441   1.785   1.402   8.599 -0.2386 -0.2678  0.7257
 4602TIP3    H235442   1.732   1.457   8.469  0.7071 -0.2150  0.3577
 4603TIP3   OH235443   5.362   6.075   3.385 -0.5176  0.2642  1.0218
 4603TIP3    H135444   5.328   5.988   3.404  0.1023 -0.2050  0.0802
 4603TIP3    H235445   5.393   6.069   3.295 -0.8522  1.5897  0.8001
 4604TIP3   OH235446   3.161   3.468   0.434  0.3139 -0.0170  0.5926
 4604TIP3    H135447   3.227   3.512   0.381 -1.0395  0.1171 -1.0443
 4604TIP3    H235448   3.162   3.378   0.403  0.0777 -0.1347  0.9270
 4605TIP3   OH235449   1.797   4.792   2.864 -0.6144 -0.2513 -0.3410
 4605TIP3    H135450   1.857   4.764   2.933  0.2563  0.5230 -0.7569
 4605TIP3    H235451   1.724   4.730   2.868 -1.2625  0.5726  2.1569
 4606TIP3   OH235452   6.763   2.052   3.694 -0.0512 -0.1026  0.0621
 4606TIP3    H135453   6.776   2.139   3.731 -0.1237 -0.7293  1.6614
 4606TIP3    H235454   6.681   2.022   3.732  0.5620 -1.3126  0.4817
 4607TIP3   OH235455   3.891   2.342   2.895  0.1260 -0.2759 -0.1127
 4607TIP3    H135456   3.902   2.419   2.951 -1.4135 -0.7650  0.9298
 4607TIP3    H235457   3.911   2.373   2.807 -1.4320  1.6055  0.1318
 4608TIP3   OH235458   2.521   4.454   1.901  0.1230  0.4211 -0.2604
 4608TIP3    H135459   2.589   4.420   1.959  1.8939  1.0525 -1.8698
 4608TIP3    H235460   2.457   4.382   1.895 -0.3969  0.5007  2.7487
 4609TIP3   OH235461   3.259   1.334   2.504  0.3771 -0.1834 -0.0863
 4609TIP3    H135462   3.333   1.391   2.482  0.1172  0.8189  1.5005
 4609TIP3    H235463   3.187   1.394   2.522  0.3226 -0.9148  2.4798
 4610TIP3   OH235464   3.101   1.118   2.369 -0.4026 -0.0154  0.3653
 4610TIP3    H135465   3.073   1.095   2.458  0.9527  2.0672  1.4067
 4610TIP3    H235466   3.114   1.212   2.372  1.9155 -0.2027 -1.3876
 4611TIP3   OH235467   4.333   0.535   3.773 -0.3311  0.1430  0.3170
 4611TIP3    H135468   4.259   0.536   3.834 -0.3954 -0.7499  0.2680
 4611TIP3    H235469   4.399   0.480   3.815 -1.2468 -2.4351 -1.3605
 4612TIP3   OH235470   1.835   5.232   2.397  0.1425 -0.3670 -0.6903
 4612TIP3    H135471   1.875   5.262   2.478 -1.2740  0.2133 -0.1826
 4612TIP3    H235472   1.800   5.312   2.356 -2.5078 -1.0647  0.0254
 4613TIP3   OH235473   4.451   4.754   2.238 -0.2123 -0.2450  0.3832
 4613TIP3    H135474   4.379   4.755   2.300 -0.7580  1.9246 -0.1955
 4613TIP3    H235475   4.514   4.818   2.272  0.2357 -0.2320 -0.4301
 4614TIP3   OH235476   5.291   5.490   2.234  0.7385 -0.3304  0.1879
 4614TIP3    H135477   5.322   5.409   2.274  1.0669  0.0601  0.7367
 4614TIP3    H235478   5.358   5.555   2.257  0.1886  0.2232  0.2464
 4615TIP3   OH235479   0.199   5.871   3.155 -0.8491  0.2668 -0.7858
 4615TIP3    H135480   0.134   5.865   3.226 -0.6854  1.7007 -0.4814
 4615TIP3    H235481   0.252   5.793   3.165 -1.6947 -0.2538 -0.1900
 4616TIP3   OH235482   5.069   2.478   0.055  0.7024 -0.1336  0.2025
 4616TIP3    H135483   5.037   2.389   0.041 -0.0696  0.0694  0.6636
 4616TIP3    H235484   5.024   2.531  -0.010  0.8809 -0.0140  0.1743
 4617TIP3   OH235485   0.416   4.143   8.586 -0.3046  0.6795 -0.3035
 4617TIP3    H135486   0.456   4.120   8.670 -0.6258  1.3209  0.0318
 4617TIP3    H235487   0.428   4.065   8.531  1.0124  0.6958 -0.0694
 4618TIP3   OH235488   3.218   1.892   2.640 -0.5936 -0.0120 -0.7606
 4618TIP3    H135489   3.205   1.807   2.682  1.5399 -0.4353 -0.8834
 4618TIP3    H235490   3.224   1.954   2.713 -0.5016 -0.2109 -0.5985
 4619TIP3   OH235491   0.114   2.915   8.578 -0.4875 -0.1881  0.1256
 4619TIP3    H135492   0.039   2.887   8.525 -1.4116 -0.3499  1.4966
 4619TIP3    H235493   0.174   2.841   8.576 -0.6302 -0.2928 -0.4680
 4620TIP3   OH235494   3.021   6.142   1.585  1.2442  0.3918  0.3058
 4620TIP3    H135495   3.061   6.073   1.638  0.7933 -0.2184 -0.1324
 4620TIP3    H235496   2.933   6.153   1.621  0.3322 -1.1644 -1.2635
 4621TIP3   OH235497   6.444   5.652   2.688  0.2302 -0.0271 -0.2258
 4621TIP3    H135498   6.433   5.576   2.631  0.4536 -1.3677  1.4258
 4621TIP3    H235499   6.460   5.614   2.775  0.0780  1.9224  0.6993
 4622TIP3   OH235500   0.694   4.971   4.217 -0.2945  0.3883  0.0068
 4622TIP3    H135501   0.642   5.013   4.148  0.8341 -0.2103 -1.2641
 4622TIP3    H235502   0.783   4.969   4.182  0.2146 -0.4265  1.2707
 4623TIP3   OH235503   0.040   4.953   0.674 -0.1854  0.2833 -0.0151
 4623TIP3    H135504  -0.055   4.964   0.667 -0.1938 -0.1833 -0.7861
 4623TIP3    H235505   0.074   5.041   0.689 -0.7839  0.3665  0.9396
 4624TIP3   OH235506   5.763   0.026   0.479  0.4930  0.5059  0.3696
 4624TIP3    H135507   5.755   0.050   0.572  0.4863 -1.7583  1.0141
 4624TIP3    H235508   5.768   0.110   0.433  2.0919  1.7095  2.5403
 4625TIP3   OH235509   4.464   5.448   1.066 -0.0580 -0.5194  1.0986
 4625TIP3    H135510   4.455   5.469   0.973 -0.0285 -1.4545  0.8748
 4625TIP3    H235511   4.550   5.483   1.090 -0.4718  0.5899  1.0309
 4626TIP3   OH235512   4.321   4.883   2.869 -0.9171  0.1247 -0.0767
 4626TIP3    H135513   4.251   4.852   2.926 -1.0307  1.0296  0.3013
 4626TIP3    H235514   4.345   4.807   2.816 -1.6646 -0.3951  0.3151
 4627TIP3   OH235515   4.636   2.529   0.141 -0.7075 -0.8305 -0.3659
 4627TIP3    H135516   4.668   2.582   0.068  1.4377  0.1973  1.1883
 4627TIP3    H235517   4.587   2.458   0.100 -0.0432 -0.0071 -2.7479
 4628TIP3   OH235518   5.708   3.233   3.265  0.7045  0.3717 -0.0288
 4628TIP3    H135519   5.700   3.324   3.296  1.3393  0.2247  0.5832
 4628TIP3    H235520   5.647   3.184   3.319  1.3830  0.2128  0.6128
 4629TIP3   OH235521   5.929   0.817   8.082  0.4666 -0.3102  0.3132
 4629TIP3    H135522   5.933   0.913   8.074 -2.4820 -0.1313 -0.0097
 4629TIP3    H235523   5.902   0.787   7.996 -1.9428 -1.0873  1.2662
 4630TIP3   OH235524   6.633   4.006   2.240  0.2192 -0.3814 -0.6253
 4630TIP3    H135525   6.689   4.078   2.211  1.3508 -0.0939  1.9419
 4630TIP3    H235526   6.553   4.049   2.270 -0.2970 -0.5242 -1.7444
 4631TIP3   OH235527   1.945   3.397   8.823 -0.8277 -0.3075  0.4726
 4631TIP3    H135528   1.902   3.474   8.859  0.9096  1.1324 -0.3481
 4631TIP3    H235529   2.037   3.422   8.818 -0.1193 -2.6653  0.6988
 4632TIP3   OH235530   1.760   3.157   4.313  0.0451  0.1789  0.6807
 4632TIP3    H135531   1.680   3.160   4.261  2.5219  1.1284 -3.6064
 4632TIP3    H235532   1.775   3.247   4.340 -1.5719 -0.4025  3.9800
 4633TIP3   OH235533   5.051   5.581   2.148  0.3870  0.4572  0.1261
 4633TIP3    H135534   5.075   5.656   2.093  0.0809  0.8040  0.4600
 4633TIP3    H235535   5.131   5.560   2.196  0.5798  0.3258 -0.2542
 4634TIP3   OH235536   4.791   2.130   0.322 -0.3550 -0.2902  0.6498
 4634TIP3    H135537   4.795   2.130   0.226 -0.0144 -1.7935  0.6327
 4634TIP3    H235538   4.699   2.149   0.342 -1.1826 -2.9787 -0.1079
 4635TIP3   OH235539   2.659   1.198   3.526 -0.2747  0.2669 -0.2928
 4635TIP3    H135540   2.740   1.152   3.549 -1.5152 -1.5052  0.7295
 4635TIP3    H235541   2.677   1.290   3.547  0.7426 -0.3922  2.0309
 4636TIP3   OH235542   1.316   4.139   8.109  0.0231  0.0380  0.0447
 4636TIP3    H135543   1.361   4.191   8.176 -2.4532  1.6480  0.5485
 4636TIP3    H235544   1.302   4.054   8.150  1.7958 -0.2343  0.1640
 4637TIP3   OH235545   0.066   3.919   2.372 -0.2748  0.2030  0.0098
 4637TIP3    H135546  -0.017   3.935   2.328  0.1978  1.5867 -0.4240
 4637TIP3    H235547   0.047   3.848   2.434 -1.7344  0.4224 -0.1493
 4638TIP3   OH235548   2.405   1.856   0.979  0.2059  0.4059 -0.0100
 4638TIP3    H135549   2.333   1.896   0.930 -0.3931 -0.8320 -0.1868
 4638TIP3    H235550   2.465   1.824   0.911  2.0872  3.2990  0.1141
 4639TIP3   OH235551   3.718   0.306   0.755  0.0870 -0.1696 -0.3307
 4639TIP3    H135552   3.776   0.367   0.711  0.9079 -0.4274  0.3510
 4639TIP3    H235553   3.774   0.231   0.776 -1.1963 -1.7704 -2.3441
 4640TIP3   OH235554   6.077   3.989   1.391  0.4885 -0.1389  0.1673
 4640TIP3    H135555   6.146   3.950   1.337 -1.4689 -0.7618 -2.0364
 4640TIP3    H235556   6.011   4.018   1.329 -0.4913  2.0567  2.0941
 4641TIP3   OH235557   4.293   0.734   3.598  0.8884  0.2668  0.7450
 4641TIP3    H135558   4.274   0.642   3.620  0.6894  0.2286  0.4282
 4641TIP3    H235559   4.265   0.783   3.675 -3.0400  0.4912 -0.5620
 4642TIP3   OH235560   0.497   5.107   3.263 -0.0112 -0.2332 -0.0100
 4642TIP3    H135561   0.514   5.047   3.190  0.9372 -1.4315  1.1544
 4642TIP3    H235562   0.582   5.148   3.279 -0.4050  0.6255 -0.0807
 4643TIP3   OH235563   1.209   4.291   8.735  0.0569  0.3274 -0.0491
 4643TIP3    H135564   1.208   4.291   8.640 -0.0827  0.0355 -0.0497
 4643TIP3    H235565   1.202   4.198   8.759  1.8942  0.2334  0.2296
 4644TIP3   OH235566   1.859   1.712   0.669 -0.1587 -0.0400 -0.1406
 4644TIP3    H135567   1.891   1.634   0.713 -1.5079 -1.2213 -1.1272
 4644TIP3    H235568   1.768   1.691   0.647 -0.6724  1.9620 -0.1217
 4645TIP3   OH235569   2.216   3.495   8.329 -0.3326  0.3140  0.4330
 4645TIP3    H135570   2.239   3.568   8.271 -1.1317 -1.5306 -2.3703
 4645TIP3    H235571   2.285   3.430   8.315 -0.0362  0.1461  2.3168
 4646TIP3   OH235572   3.453   5.642   0.978 -0.8458 -0.0876  0.4459
 4646TIP3    H135573   3.398   5.581   0.930  0.3903 -0.5084 -0.4839
 4646TIP3    H235574   3.393   5.713   1.003 -1.9984 -0.9752  0.3175
 4647TIP3   OH235575   0.654   6.191   2.006 -0.0130  0.0041  0.8063
 4647TIP3    H135576   0.642   6.119   1.945 -1.0542  0.2763  0.6568
 4647TIP3    H235577   0.712   6.252   1.961 -1.5219  0.6611 -0.3755
 4648TIP3   OH235578   3.433   4.389   0.512  0.0840 -0.0491 -0.7392
 4648TIP3    H135579   3.376   4.462   0.491 -1.9047 -1.0974  0.6797
 4648TIP3    H235580   3.474   4.365   0.429 -1.1071  1.1102 -1.6887
 4649TIP3   OH235581   1.598   6.381   1.383 -0.4351  0.3128  0.3677
 4649TIP3    H135582   1.598   6.289   1.412  1.7989  0.5946  1.4404
 4649TIP3    H235583   1.512   6.414   1.410 -0.3559 -0.8172  2.1884
 4650TIP3   OH235584   1.267   0.374   3.236 -0.0658 -0.0175  0.5218
 4650TIP3    H135585   1.320   0.451   3.217  1.6316 -1.3107 -0.1433
 4650TIP3    H235586   1.271   0.366   3.332  0.1336  0.4174  0.5545
 4651TIP3   OH235587   0.679   4.930   0.095 -0.0317  0.8302  0.5628
 4651TIP3    H135588   0.743   4.944   0.165 -0.7974  1.2053  1.2002
 4651TIP3    H235589   0.630   5.012   0.090 -0.3912  0.5871  0.0065
 4652TIP3   OH235590   1.408   6.160   2.920 -0.2972  0.1281 -0.1098
 4652TIP3    H135591   1.497   6.161   2.955  1.3827  0.3822 -3.8278
 4652TIP3    H235592   1.372   6.246   2.943  0.7220  0.3224  0.8246
 4653TIP3   OH235593   4.133   0.006   0.957 -0.2853 -0.0382  0.0118
 4653TIP3    H135594   4.090   0.075   1.008  2.3911 -0.6963  3.6227
 4653TIP3    H235595   4.098  -0.075   0.994 -0.0378 -0.5958 -0.9628
 4654TIP3   OH235596   6.814   0.500   3.010 -0.0347 -0.0928  0.2461
 4654TIP3    H135597   6.849   0.556   3.080  0.9724  1.0651 -1.1196
 4654TIP3    H235598   6.849   0.413   3.028  1.5513  0.5312  0.3106
 4655TIP3   OH235599   2.309   4.811   1.057  0.0614 -0.2906 -0.0095
 4655TIP3    H135600   2.309   4.900   1.020  1.1328  0.1849  1.0698
 4655TIP3    H235601   2.384   4.810   1.116 -0.5403 -1.6058  0.7588
 4656TIP3   OH235602   2.393   4.178   1.938 -0.1451  0.1373  0.1472
 4656TIP3    H135603   2.317   4.163   1.994 -1.3780 -3.6567 -2.1556
 4656TIP3    H235604   2.457   4.114   1.967 -0.4094 -1.1600 -1.9027
 4657TIP3   OH235605   1.673   4.632   0.392  0.1553  0.3090  0.6263
 4657TIP3    H135606   1.691   4.595   0.305  1.6075 -1.1128  1.4873
 4657TIP3    H235607   1.587   4.674   0.382  0.9026  1.4822 -1.8725
 4658TIP3   OH235608   0.419   3.779   2.697  0.5677 -0.1078 -0.2411
 4658TIP3    H135609   0.512   3.774   2.675  1.0143 -0.1101  1.5357
 4658TIP3    H235610   0.407   3.713   2.765 -0.9048 -0.6114 -0.9378
 4659TIP3   OH235611   4.869   3.003   1.313  0.0639  0.2828  0.9668
 4659TIP3    H135612   4.810   2.996   1.388 -0.2711 -1.9442  0.5599
 4659TIP3    H235613   4.821   3.060   1.251  0.1458  1.7523  2.1905
 4660TIP3   OH235614   4.378   3.617   3.271  0.5415  0.0819  0.5385
 4660TIP3    H135615   4.336   3.551   3.327  0.8715 -1.0373 -0.4829
 4660TIP3    H235616   4.464   3.581   3.252 -0.7452 -1.4226 -3.5371
 4661TIP3   OH235617   6.660   6.134   3.522 -0.5088 -0.0246 -0.0997
 4661TIP3    H135618   6.749   6.108   3.498 -0.2950 -0.9228  1.5652
 4661TIP3    H235619   6.659   6.229   3.506  1.1144  0.2078  0.8928
 4662TIP3   OH235620   4.812   3.388   2.034 -0.3154  0.6119  0.2863
 4662TIP3    H135621   4.830   3.470   1.988 -0.7453  0.4117 -0.2567
 4662TIP3    H235622   4.813   3.322   1.965 -0.2249  0.1977  0.6834
 4663TIP3   OH235623   3.260   3.686   2.635  0.4206 -0.4757 -0.1775
 4663TIP3    H135624   3.322   3.756   2.613  2.0275 -1.6972  0.3307
 4663TIP3    H235625   3.283   3.661   2.724 -3.2665  1.5323  1.5771
 4664TIP3   OH235626   0.635   4.127   8.403 -0.8621  0.0589 -0.0639
 4664TIP3    H135627   0.691   4.084   8.468 -0.8742 -0.7013 -0.5498
 4664TIP3    H235628   0.577   4.184   8.454  1.2564  1.9770  0.3993
 4665TIP3   OH235629   6.248   3.877   0.923  0.4024  0.2793  0.1222
 4665TIP3    H135630   6.180   3.945   0.923 -0.6195 -0.7038  0.1855
 4665TIP3    H235631   6.199   3.794   0.918  1.6336 -0.4360 -0.7344
 4666TIP3   OH235632   6.067   1.722   1.326 -0.2384  0.0473  0.4188
 4666TIP3    H135633   5.980   1.714   1.366  0.4356  0.9629  2.1603
 4666TIP3    H235634   6.124   1.751   1.397  2.1609 -3.3263  0.1370
 4667TIP3   OH235635   4.044   6.610   1.101 -0.4644  0.2826 -0.0312
 4667TIP3    H135636   4.019   6.637   1.189  1.3564 -0.4152  0.7403
 4667TIP3    H235637   4.033   6.514   1.101 -0.1272  0.2417 -0.4465
 4668TIP3   OH235638   0.120   6.601   1.768  0.5704  0.2285  0.0778
 4668TIP3    H135639   0.069   6.585   1.689  1.0855  1.4716 -0.5273
 4668TIP3    H235640   0.162   6.686   1.754  1.1482  0.2050  1.4356
 4669TIP3   OH235641   2.160   3.331   3.132 -0.2767 -0.1736  0.0607
 4669TIP3    H135642   2.102   3.285   3.193  2.1254 -0.4721  2.3049
 4669TIP3    H235643   2.223   3.264   3.104  0.2348  0.5899 -0.6463
 4670TIP3   OH235644   6.706   1.772   2.362 -0.2248 -0.3774  0.3080
 4670TIP3    H135645   6.788   1.758   2.314  0.3404  2.2966  0.3801
 4670TIP3    H235646   6.717   1.722   2.443  1.6066  0.4162  0.5952
 4671TIP3   OH235647   3.095   6.053   1.975 -0.1167 -0.1827 -0.3355
 4671TIP3    H135648   3.033   5.992   1.935 -0.0089 -0.4272 -0.1328
 4671TIP3    H235649   3.040   6.120   2.015 -0.2981 -0.8896  0.6445
 4672TIP3   OH235650   4.173   3.757   2.370 -0.3942  0.1673  0.2807
 4672TIP3    H135651   4.243   3.822   2.361 -0.3609  0.0048 -0.7447
 4672TIP3    H235652   4.152   3.731   2.280  0.5180 -2.2269  0.6713
 4673TIP3   OH235653   6.718   4.388   8.472 -0.0856  0.2517 -0.1174
 4673TIP3    H135654   6.656   4.370   8.542  0.2451  1.1534  0.4287
 4673TIP3    H235655   6.799   4.414   8.517  0.4819 -0.2538 -0.8200
 4674TIP3   OH235656   0.309   6.170   2.772 -0.0355 -0.4927 -0.7060
 4674TIP3    H135657   0.259   6.099   2.731  2.0491 -1.6681 -1.4061
 4674TIP3    H235658   0.401   6.144   2.759  0.7650  0.7784  1.8204
 4675TIP3   OH235659   0.007   1.101   2.848  0.1287 -0.2523  0.2033
 4675TIP3    H135660   0.083   1.050   2.820  2.5054  3.1551 -0.2645
 4675TIP3    H235661  -0.036   1.127   2.766  0.8050  1.0078  0.2272
 4676TIP3   OH235662   1.394   3.276   8.727  0.6929  0.0283  0.1533
 4676TIP3    H135663   1.346   3.202   8.689  1.0891 -0.3981  0.4647
 4676TIP3    H235664   1.457   3.235   8.786 -0.3459  0.6847  1.7960
 4677TIP3   OH235665   4.716   4.591   0.936 -0.2278  0.1528  0.3270
 4677TIP3    H135666   4.695   4.499   0.921 -0.0976  0.2627 -0.6127
 4677TIP3    H235667   4.631   4.635   0.943 -0.3267  0.2554 -1.2237
 4678TIP3   OH235668   4.728   0.124   1.992  0.1819  0.2475  0.4119
 4678TIP3    H135669   4.678   0.076   1.926  0.4256  0.1635  0.2869
 4678TIP3    H235670   4.673   0.120   2.071  0.3689 -0.5912  0.5188
 4679TIP3   OH235671   5.855   0.418   8.801  0.0067 -0.0031 -0.0790
 4679TIP3    H135672   5.947   0.441   8.800  0.3741 -1.2004  1.8071
 4679TIP3    H235673   5.812   0.492   8.843  0.4619 -0.4570  1.2238
 4680TIP3   OH235674   1.045   1.671   2.964  0.2496  0.2347 -0.4088
 4680TIP3    H135675   1.041   1.636   2.875  2.0682 -0.0651 -0.3936
 4680TIP3    H235676   1.123   1.632   3.002  0.7792  2.1296  0.5628
 4681TIP3   OH235677   4.882   5.111   3.175  0.0034  0.0370 -0.4802
 4681TIP3    H135678   4.798   5.087   3.215 -0.1047  1.7554  0.4034
 4681TIP3    H235679   4.860   5.135   3.085 -0.3621 -0.1084 -0.4301
 4682TIP3   OH235680   1.190   1.068   2.696  0.1124  0.1094 -0.3904
 4682TIP3    H135681   1.180   0.979   2.728 -1.9862  0.1289 -0.8459
 4682TIP3    H235682   1.167   1.064   2.604  1.6652  0.8530 -0.8511
 4683TIP3   OH235683   5.323   3.302   3.749  0.2256 -0.2366  0.2772
 4683TIP3    H135684   5.229   3.285   3.748 -0.0221  0.7941  2.0622
 4683TIP3    H235685   5.330   3.398   3.752  1.3154 -0.3112  0.4886
 4684TIP3   OH235686   3.917   1.591   8.429 -0.3189 -0.2203 -0.2190
 4684TIP3    H135687   3.825   1.563   8.422 -0.3010  0.1089 -3.0431
 4684TIP3    H235688   3.914   1.685   8.411  0.5077 -0.0368  0.5633
 4685TIP3   OH235689   1.158   0.951   2.299  0.1118  0.5834 -0.3370
 4685TIP3    H135690   1.115   1.035   2.279 -0.4286  0.4640  0.2617
 4685TIP3    H235691   1.236   0.975   2.349 -0.5511  0.6975  0.6731
 4686TIP3   OH235692   5.795   2.022   7.853 -0.5499 -0.5213 -0.1283
 4686TIP3    H135693   5.793   1.953   7.786  1.0596 -1.1834  0.4525
 4686TIP3    H235694   5.888   2.038   7.868 -0.8794  1.9384 -0.3635
 4687TIP3   OH235695   0.524   1.215   0.336  0.2084 -0.1623 -0.1133
 4687TIP3    H135696   0.610   1.188   0.368 -0.0981  0.2864  1.1073
 4687TIP3    H235697   0.462   1.188   0.404 -0.5692 -0.0129 -0.7351
 4688TIP3   OH235698   6.694   4.602   2.777 -0.0119 -0.1332 -0.4935
 4688TIP3    H135699   6.774   4.564   2.740  0.0333  0.0831 -0.6237
 4688TIP3    H235700   6.712   4.696   2.779  0.0628 -0.1568  0.2664
 4689TIP3   OH235701   4.811   5.097   2.888 -0.2568 -0.1674  0.4153
 4689TIP3    H135702   4.716   5.082   2.896  0.0054 -2.0440  0.4001
 4689TIP3    H235703   4.847   5.012   2.864  1.5794  0.2275  1.5672
 4690TIP3   OH235704   4.936   4.033   0.745  0.0239 -0.3970 -0.6685
 4690TIP3    H135705   4.957   4.034   0.651  3.8188  0.9022  0.0181
 4690TIP3    H235706   4.954   3.944   0.773  0.9954 -0.2624 -0.8333
 4691TIP3   OH235707   1.232   2.408   0.489 -0.9199  0.5137 -0.7948
 4691TIP3    H135708   1.220   2.450   0.575  0.3336 -1.0496  0.2124
 4691TIP3    H235709   1.314   2.445   0.457  0.6216 -1.5718  0.4603
 4692TIP3   OH235710   6.434   0.288   1.302 -0.3896 -0.1892  0.3368
 4692TIP3    H135711   6.421   0.320   1.391 -0.1672 -0.4414  0.4609
 4692TIP3    H235712   6.414   0.363   1.247 -0.8635 -0.1260  0.5830
 4693TIP3   OH235713   0.793   1.293   1.942 -0.2726  0.1598 -0.1349
 4693TIP3    H135714   0.715   1.316   1.892 -1.1310  0.6998  1.3685
 4693TIP3    H235715   0.865   1.299   1.880 -1.3961 -0.1230 -1.5097
 4694TIP3   OH235716   0.644   3.189   1.305  0.2920 -0.3150 -0.5857
 4694TIP3    H135717   0.580   3.249   1.267  0.5328  1.1935  1.2468
 4694TIP3    H235718   0.676   3.234   1.383  1.2251 -2.4252  0.3322
 4695TIP3   OH235719   0.355   5.450   0.738 -0.1425  0.4193  0.2283
 4695TIP3    H135720   0.448   5.471   0.753  0.0026  0.8071 -1.1344
 4695TIP3    H235721   0.337   5.480   0.649 -1.0201 -1.5358 -0.3026
 4696TIP3   OH235722   3.561   4.007   1.380  0.6348 -0.1359  0.3149
 4696TIP3    H135723   3.567   4.037   1.289  0.7345  2.0415  0.9918
 4696TIP3    H235724   3.475   3.964   1.385  1.0748 -1.2367 -1.0486
 4697TIP3   OH235725   5.527   3.275   8.186 -0.5640 -0.1557  0.1321
 4697TIP3    H135726   5.459   3.213   8.212 -0.8214  0.8411  2.1050
 4697TIP3    H235727   5.499   3.308   8.101 -1.6222 -1.0549  0.1143
 4698TIP3   OH235728   5.070   5.554   0.717  0.7707  0.2546  1.1168
 4698TIP3    H135729   5.024   5.513   0.790 -1.0295 -0.5816 -0.4098
 4698TIP3    H235730   5.107   5.480   0.668 -0.8832  0.5031 -0.6108
 4699TIP3   OH235731   3.238   2.578   8.475 -0.4776  0.3456  0.0839
 4699TIP3    H135732   3.328   2.564   8.505 -0.5119  1.7871  0.9933
 4699TIP3    H235733   3.191   2.501   8.507  0.0318  0.5736  1.4968
 4700TIP3   OH235734   4.333   4.818   1.566 -0.1840 -0.4822 -0.5503
 4700TIP3    H135735   4.264   4.854   1.509  0.6831 -0.1178 -1.4035
 4700TIP3    H235736   4.317   4.858   1.651 -1.1652 -0.5852 -0.6745
 4701TIP3   OH235737   3.308   5.788   0.436  0.8765 -0.1426  0.3175
 4701TIP3    H135738   3.348   5.819   0.517 -1.8778 -0.5719  1.9807
 4701TIP3    H235739   3.252   5.716   0.463  1.2277 -1.5098 -2.2911
 4702TIP3   OH235740   1.952   4.131   1.430 -0.2747 -0.2811  0.0989
 4702TIP3    H135741   1.981   4.160   1.517  0.9806 -2.1770  0.3756
 4702TIP3    H235742   2.010   4.176   1.369  0.2379 -0.5378  0.3891
 4703TIP3   OH235743   1.221   0.438   1.349 -0.6837 -0.3704  0.4439
 4703TIP3    H135744   1.198   0.466   1.437 -1.4580  0.4065  0.0152
 4703TIP3    H235745   1.314   0.457   1.341 -0.6074 -0.4567  1.0937
 4704TIP3   OH235746   5.795   5.267   2.859  0.2377  0.1186  0.0029
 4704TIP3    H135747   5.882   5.272   2.821  1.1947 -0.4744  1.9512
 4704TIP3    H235748   5.803   5.314   2.943 -1.3205  0.0787  0.2098
 4705TIP3   OH235749   1.117   0.103   2.587  0.3675  0.5534  0.4001
 4705TIP3    H135750   1.049   0.067   2.529  0.3770  1.4805 -0.2079
 4705TIP3    H235751   1.088   0.080   2.675 -1.0018  1.3242  0.1869
 4706TIP3   OH235752   4.641   5.536   1.643  0.1251 -0.1778  0.2598
 4706TIP3    H135753   4.596   5.538   1.727 -1.1503  1.4692 -0.4238
 4706TIP3    H235754   4.598   5.465   1.594  1.6320 -1.9285  1.3296
 4707TIP3   OH235755   2.635   5.938   1.314 -0.2330  0.3252 -0.3782
 4707TIP3    H135756   2.629   6.001   1.386  0.6017  0.6396 -0.5669
 4707TIP3    H235757   2.576   5.867   1.338  0.1068  0.3833  0.6643
 4708TIP3   OH235758   6.146   0.751   0.113  0.2699  0.1898 -0.3443
 4708TIP3    H135759   6.138   0.825   0.052 -0.3431 -0.3573 -0.9366
 4708TIP3    H235760   6.131   0.790   0.199 -1.7564  0.4961 -0.7797
 4709TIP3   OH235761   6.411   5.414   2.309 -0.4012 -0.2556 -0.1346
 4709TIP3    H135762   6.453   5.391   2.392  1.1438  0.9086 -0.5447
 4709TIP3    H235763   6.367   5.498   2.326  1.1312  0.7397 -0.8045
 4710TIP3   OH235764   4.276   1.485   1.622 -0.4013  0.9129  0.4267
 4710TIP3    H135765   4.369   1.495   1.644  0.2127 -0.3442 -1.4295
 4710TIP3    H235766   4.261   1.546   1.550 -0.8825  0.7239  0.3609
 4711TIP3   OH235767   0.894   0.615   2.583 -0.9101 -0.7186 -0.2893
 4711TIP3    H135768   0.869   0.615   2.675 -0.0017  1.8419  0.0271
 4711TIP3    H235769   0.815   0.643   2.537 -0.6624  0.4754 -0.0102
 4712TIP3   OH235770   5.082   2.221   3.586  0.1892  0.2277 -0.0802
 4712TIP3    H135771   5.003   2.268   3.612  0.2313  0.6187 -0.6335
 4712TIP3    H235772   5.087   2.233   3.491 -0.5261 -2.0166 -0.4672
 4713TIP3   OH235773   4.118   2.808   0.624 -0.4621 -0.2791 -0.5718
 4713TIP3    H135774   4.087   2.898   0.613 -1.1402 -0.4173  0.1527
 4713TIP3    H235775   4.056   2.768   0.684 -0.2666 -1.2882 -1.0138
 4714TIP3   OH235776   2.772   4.628   1.859  0.2769  0.4220  0.1740
 4714TIP3    H135777   2.692   4.590   1.895  0.5403  0.1511  0.4830
 4714TIP3    H235778   2.772   4.601   1.767  0.2494  0.0266  0.2895
 4715TIP3   OH235779   0.587   3.227   0.871 -0.5461 -0.0547 -0.3205
 4715TIP3    H135780   0.671   3.270   0.857 -1.2566  1.2758 -0.6385
 4715TIP3    H235781   0.595   3.144   0.824 -0.2047  1.0461 -2.3419
 4716TIP3   OH235782   2.811   1.152   4.337  0.2470  0.3227 -0.0172
 4716TIP3    H135783   2.752   1.227   4.339 -0.0857  0.0848 -0.6325
 4716TIP3    H235784   2.755   1.079   4.310  0.3023 -0.3857  1.6826
 4717TIP3   OH235785   4.530   1.191   2.253 -0.2167 -0.2800  0.4334
 4717TIP3    H135786   4.512   1.097   2.249  3.6594 -1.1600 -0.0086
 4717TIP3    H235787   4.578   1.210   2.172  1.7744  1.3342  1.8753
 4718TIP3   OH235788   5.650   6.587   2.506  0.3729 -0.3205  0.0955
 4718TIP3    H135789   5.671   6.524   2.575 -0.4175 -1.7306 -0.8728
 4718TIP3    H235790   5.735   6.616   2.473  0.8903 -2.9943 -1.2263
 4719TIP3   OH235791   2.184   6.217   1.543 -0.1784  0.0136  0.3257
 4719TIP3    H135792   2.142   6.293   1.504 -0.8637 -0.3041  0.4244
 4719TIP3    H235793   2.278   6.233   1.534 -0.3159  1.0240  0.6635
 4720TIP3   OH235794   3.189   0.833   2.365  0.4240 -0.5276 -0.3124
 4720TIP3    H135795   3.112   0.812   2.419 -0.9736  1.6695 -1.3165
 4720TIP3    H235796   3.259   0.849   2.429 -0.5236 -0.4559  0.7430
 4721TIP3   OH235797   6.606   5.467   1.317 -0.5116  0.8961  0.2385
 4721TIP3    H135798   6.686   5.414   1.314 -0.3446  1.1680 -0.1925
 4721TIP3    H235799   6.536   5.405   1.295 -0.2546  0.9588 -0.8028
 4722TIP3   OH235800   6.648   3.545   2.016 -0.4611  1.1647 -0.1793
 4722TIP3    H135801   6.622   3.480   2.081  0.9656  3.6593  3.1359
 4722TIP3    H235802   6.580   3.612   2.021  1.4698  3.1328  1.5940
 4723TIP3   OH235803   2.437   2.604   3.435 -0.0409  0.0950 -0.3489
 4723TIP3    H135804   2.444   2.695   3.408  0.0263 -0.1680 -1.2569
 4723TIP3    H235805   2.528   2.573   3.438  0.1577  0.6689  2.2687
 4724TIP3   OH235806   0.247   2.269   3.220  0.3054  0.4290  0.1504
 4724TIP3    H135807   0.274   2.296   3.307  4.2541 -1.5819 -0.1903
 4724TIP3    H235808   0.262   2.346   3.165  0.6077  0.8637  0.8290
 4725TIP3   OH235809   6.331   2.473   2.569 -0.8137  0.6537  0.2269
 4725TIP3    H135810   6.311   2.416   2.643 -1.2720  1.2729  0.5929
 4725TIP3    H235811   6.426   2.484   2.572 -0.7531  0.1340  0.3126
 4726TIP3   OH235812   6.656   5.564   8.598 -0.0989  0.8088 -0.7098
 4726TIP3    H135813   6.566   5.549   8.570 -0.5330  2.3468 -0.2541
 4726TIP3    H235814   6.706   5.570   8.516 -0.4994  0.5068 -0.9830
 4727TIP3   OH235815   1.600   4.592   2.490 -0.5236 -0.0765  0.3642
 4727TIP3    H135816   1.525   4.616   2.436 -0.3450 -0.3420 -0.0101
 4727TIP3    H235817   1.564   4.534   2.557 -0.4485 -1.3103 -0.6268
 4728TIP3   OH235818   2.146   6.512   1.768 -0.1767  0.7567  0.2693
 4728TIP3    H135819   2.184   6.560   1.842 -0.8582  1.0257  0.4573
 4728TIP3    H235820   2.101   6.438   1.809 -1.7748  1.6902  0.2795
 4729TIP3   OH235821   5.292   1.798   2.598 -0.7885 -0.3510  0.4506
 4729TIP3    H135822   5.291   1.890   2.623  0.3514 -0.3024  0.3919
 4729TIP3    H235823   5.201   1.778   2.575 -0.8876  1.0495 -0.5544
 4730TIP3   OH235824   1.330   5.564   8.284  0.8110 -0.6987  0.1765
 4730TIP3    H135825   1.358   5.584   8.195 -0.0668  1.4094  0.3096
 4730TIP3    H235826   1.237   5.544   8.276  0.6678 -0.2375  0.6460
 4731TIP3   OH235827   1.008   1.102   0.901 -0.2948 -0.0303 -0.2076
 4731TIP3    H135828   1.094   1.093   0.860 -0.9065 -2.3702 -1.2044
 4731TIP3    H235829   1.015   1.055   0.984  0.4028  3.1053  1.6500
 4732TIP3   OH235830   2.332   2.000   0.241 -0.5362 -0.3787 -0.5077
 4732TIP3    H135831   2.311   2.090   0.215 -0.2947  0.3066  1.5250
 4732TIP3    H235832   2.427   1.997   0.244 -0.5547 -0.2800  0.7178
 4733TIP3   OH235833   2.624   4.858   0.040 -0.3247  0.6021  0.2680
 4733TIP3    H135834   2.589   4.918  -0.026 -0.1632  0.6185  0.1938
 4733TIP3    H235835   2.667   4.789  -0.012  1.4127  1.5620  0.3276
 4734TIP3   OH235836   4.063   1.356   1.108 -0.1545 -0.0144  0.6861
 4734TIP3    H135837   4.007   1.389   1.179 -1.2181  1.3677 -0.7252
 4734TIP3    H235838   4.028   1.270   1.088 -0.6081  0.0813  1.0505
 4735TIP3   OH235839   3.840   4.292   3.162  0.1109 -0.0031 -0.1883
 4735TIP3    H135840   3.880   4.299   3.075 -1.6218  0.6364 -0.9672
 4735TIP3    H235841   3.796   4.207   3.161  0.6378 -0.2898  0.3254
 4736TIP3   OH235842   1.729   2.958   0.167  0.5184  0.8521  0.6233
 4736TIP3    H135843   1.819   2.929   0.179  0.0205 -0.2380  2.2087
 4736TIP3    H235844   1.702   2.987   0.254 -0.5411  1.5001  0.0926
 4737TIP3   OH235845   0.448   6.653   1.200  0.5013  0.2139  0.0523
 4737TIP3    H135846   0.531   6.698   1.185  1.1888 -0.7174  0.9869
 4737TIP3    H235847   0.429   6.609   1.117  0.3096  1.4083 -0.5550
 4738TIP3   OH235848   0.753   1.957   8.747 -0.2793 -0.3165  0.2263
 4738TIP3    H135849   0.803   1.993   8.821 -0.0037 -0.3833  0.0752
 4738TIP3    H235850   0.730   2.034   8.695 -1.1156 -0.1917  0.7684
 4739TIP3   OH235851   4.307   2.379   2.874  0.0914 -0.2899 -0.3341
 4739TIP3    H135852   4.237   2.320   2.902 -0.7154  0.9351  0.3431
 4739TIP3    H235853   4.388   2.333   2.897 -0.4996 -0.1169  2.5872
 4740TIP3   OH235854   2.975   3.843   3.359  0.4827  0.3492  0.0949
 4740TIP3    H135855   2.990   3.931   3.394  0.2981 -0.2637  1.8044
 4740TIP3    H235856   3.036   3.787   3.406 -0.3713 -0.6503  0.0615
 4741TIP3   OH235857   1.246   4.886   3.517  0.0817 -0.1351  0.3513
 4741TIP3    H135858   1.339   4.901   3.536  0.1217  2.2740 -1.3803
 4741TIP3    H235859   1.200   4.937   3.584  0.0459  0.2472  0.0359
 4742TIP3   OH235860   5.364   0.756   2.481  0.3475 -0.4482  0.2281
 4742TIP3    H135861   5.273   0.785   2.482 -0.5661 -2.9979  0.2461
 4742TIP3    H235862   5.412   0.828   2.441 -1.6368  1.0303  0.3407
 4743TIP3   OH235863   6.564   0.291   1.025  0.2457 -0.5398  0.6544
 4743TIP3    H135864   6.525   0.373   0.993  2.7644  1.2746  1.9403
 4743TIP3    H235865   6.489   0.240   1.055 -1.5499  0.5990 -1.5685
 4744TIP3   OH235866   5.111   5.267   0.566 -0.2005 -0.3018  0.1880
 4744TIP3    H135867   5.036   5.265   0.626 -1.0689  0.6855 -0.7970
 4744TIP3    H235868   5.071   5.275   0.479  1.0450 -0.2328 -0.4011
 4745TIP3   OH235869   2.356   3.013   1.616  0.7132  0.2134  0.2229
 4745TIP3    H135870   2.373   2.942   1.555 -1.3301 -0.0214 -0.1146
 4745TIP3    H235871   2.430   3.073   1.603  2.6366 -1.8988  0.7181
 4746TIP3   OH235872   0.607   5.379   0.188  0.3125  0.0574 -0.1220
 4746TIP3    H135873   0.696   5.343   0.179  0.9431  1.9744 -3.0301
 4746TIP3    H235874   0.550   5.310   0.158  0.9513 -0.6061  0.1506
 4747TIP3   OH235875   2.225   2.392   2.859  0.5282 -0.2069 -0.3481
 4747TIP3    H135876   2.185   2.307   2.838 -0.9706  0.2336  0.5712
 4747TIP3    H235877   2.239   2.390   2.953  0.4143  0.5971 -0.3062
 4748TIP3   OH235878   1.158   4.614   3.478 -0.1979  0.1339  0.4524
 4748TIP3    H135879   1.160   4.587   3.387 -0.2938 -0.1367  0.5284
 4748TIP3    H235880   1.180   4.707   3.477  1.0723 -0.1465  0.2674
 4749TIP3   OH235881   0.213   5.476   0.974  0.3606  0.1165 -0.1011
 4749TIP3    H135882   0.281   5.455   1.037  2.6704  1.2401 -2.0881
 4749TIP3    H235883   0.252   5.459   0.888 -1.5981  1.5053 -1.3706
 4750TIP3   OH235884   0.861   0.294   3.588 -0.0013  0.8399  1.2603
 4750TIP3    H135885   0.836   0.206   3.559  0.6518  1.3283 -0.9487
 4750TIP3    H235886   0.784   0.326   3.634 -1.3285  0.1578 -0.3872
 4751TIP3   OH235887   2.339   2.009   2.968  0.3648  0.4704 -0.1284
 4751TIP3    H135888   2.295   2.018   3.052  3.0916 -1.8917  1.7373
 4751TIP3    H235889   2.295   2.073   2.911 -1.8454  1.9115  2.9065
 4752TIP3   OH235890   6.469   5.914   2.779  0.1499 -0.2249 -0.5938
 4752TIP3    H135891   6.553   5.958   2.765  0.2697  0.5793  2.1160
 4752TIP3    H235892   6.485   5.823   2.753  1.2267  0.3553 -2.0681
 4753TIP3   OH235893   5.460   1.747   3.936 -0.3276 -0.2815  0.1726
 4753TIP3    H135894   5.540   1.712   3.899 -0.3884 -0.8435  0.5668
 4753TIP3    H235895   5.401   1.672   3.942 -0.0794 -0.3872  2.0620
 4754TIP3   OH235896   6.452   3.551   0.444 -0.9617 -0.1507  0.0627
 4754TIP3    H135897   6.393   3.564   0.369 -1.6856 -1.0273  0.4619
 4754TIP3    H235898   6.504   3.631   0.448  0.1229 -0.6373 -2.2925
 4755TIP3   OH235899   3.134   1.674   0.582 -0.4683 -0.0555 -0.1331
 4755TIP3    H135900   3.188   1.729   0.525 -1.1723  1.8260  0.9545
 4755TIP3    H235901   3.111   1.730   0.656 -2.2357 -1.4288  0.4341
 4756TIP3   OH235902   3.464   4.923   8.392  0.2742 -0.8050  0.3470
 4756TIP3    H135903   3.467   4.833   8.359  2.1894 -0.1758 -1.3672
 4756TIP3    H235904   3.534   4.927   8.458 -0.5925 -0.8473  1.3018
 4757TIP3   OH235905   0.642   5.517   0.726  0.2864  0.3998 -0.1342
 4757TIP3    H135906   0.695   5.597   0.727  0.0060  0.6297 -1.5175
 4757TIP3    H235907   0.706   5.446   0.715  0.3483  0.6577 -1.5466
 4758TIP3   OH235908   4.630   4.508   2.828 -0.3534  0.2586 -0.2623
 4758TIP3    H135909   4.655   4.459   2.750 -0.6338  1.1968 -0.9494
 4758TIP3    H235910   4.703   4.568   2.842  0.2774 -0.7264  0.9362
 4759TIP3   OH235911   2.060   1.842   1.815  0.6030 -0.2977  0.3274
 4759TIP3    H135912   2.086   1.750   1.812 -3.4360 -1.6019 -0.3367
 4759TIP3    H235913   2.100   1.881   1.737  1.5993 -1.6570  0.1207
 4760TIP3   OH235914   6.319   3.132   2.714 -0.1746  0.3274 -0.5432
 4760TIP3    H135915   6.384   3.073   2.751  0.4084  0.8470 -0.7237
 4760TIP3    H235916   6.286   3.087   2.637  0.6909  0.4735 -1.0145
 4761TIP3   OH235917   1.113   0.125   3.645  0.1059 -0.2329  0.3775
 4761TIP3    H135918   1.175   0.141   3.574 -0.0556  0.0385  0.2937
 4761TIP3    H235919   1.028   0.153   3.610 -0.0943 -0.7554  0.4323
 4762TIP3   OH235920   2.150   4.230   2.416 -0.8159 -0.1940  0.2985
 4762TIP3    H135921   2.217   4.239   2.484  0.5189  0.1749 -1.0206
 4762TIP3    H235922   2.119   4.140   2.424  0.6081 -0.7090  0.2437
 4763TIP3   OH235923   3.245   1.467   3.395 -0.7073 -0.3311 -0.4961
 4763TIP3    H135924   3.184   1.410   3.442  1.0597 -0.1954  2.2135
 4763TIP3    H235925   3.295   1.408   3.338 -0.1715 -1.2403  0.8717
 4764TIP3   OH235926   2.151   3.377   0.848  0.1639  0.0379 -0.2173
 4764TIP3    H135927   2.095   3.304   0.824  0.6169 -0.4961  0.3145
 4764TIP3    H235928   2.105   3.419   0.921 -0.3441  0.5950 -0.8508
 4765TIP3   OH235929   3.945   5.608   3.665 -0.0280 -0.8015  0.8644
 4765TIP3    H135930   4.004   5.623   3.739  0.0130  1.0924  0.4899
 4765TIP3    H235931   3.996   5.631   3.588 -0.2791 -2.1530  0.2639
 4766TIP3   OH235932   5.614   2.959   2.252  0.1946 -0.1691  0.2954
 4766TIP3    H135933   5.693   2.999   2.288  0.2086  2.3668 -2.2207
 4766TIP3    H235934   5.545   2.983   2.314  0.9163  0.0690  1.0341
 4767TIP3   OH235935   3.697   1.782   1.389  0.5377  0.7926  0.1337
 4767TIP3    H135936   3.749   1.860   1.372  1.5417 -0.0991 -1.0786
 4767TIP3    H235937   3.743   1.711   1.343 -1.6331 -0.0780 -0.8657
 4768TIP3   OH235938   6.217   6.690   8.134  0.6711 -0.7126  0.1066
 4768TIP3    H135939   6.299   6.698   8.086  0.7226  0.4283  0.3474
 4768TIP3    H235940   6.236   6.724   8.221 -0.3849  0.9288 -0.2526
 4769TIP3   OH235941   1.976   3.892   2.074  0.3435 -0.8377 -0.7789
 4769TIP3    H135942   1.927   3.855   2.148 -1.1151 -0.6846 -1.6196
 4769TIP3    H235943   2.055   3.930   2.113 -1.1636  0.7061  0.9512
 4770TIP3   OH235944   1.614   0.166   0.501 -0.3587 -0.1510 -0.2540
 4770TIP3    H135945   1.709   0.171   0.489 -0.3117  0.6664  0.3304
 4770TIP3    H235946   1.579   0.160   0.412  0.2890 -1.8720 -0.4165
 4771TIP3   OH235947   3.719   6.780   0.495  0.1931  0.2521  0.2376
 4771TIP3    H135948   3.652   6.736   0.443  1.1122  0.1789 -0.9246
 4771TIP3    H235949   3.793   6.790   0.435  1.5364 -0.4299  1.7088
 4772TIP3   OH235950   2.687   0.454   8.829 -0.5089  0.1418 -0.5106
 4772TIP3    H135951   2.631   0.529   8.814 -0.4070 -0.0912 -2.3317
 4772TIP3    H235952   2.747   0.482   8.898 -1.4642  1.1516 -0.0596
 4773TIP3   OH235953   1.147   4.746   0.411  0.4975 -0.1198 -0.1143
 4773TIP3    H135954   1.126   4.735   0.504  1.0142 -1.9447 -0.1744
 4773TIP3    H235955   1.163   4.840   0.401 -1.0433  0.3461  1.3120
 4774TIP3   OH235956   3.741   4.546   3.662  0.3082  0.1314  0.4184
 4774TIP3    H135957   3.748   4.556   3.757  1.6484  1.1473  0.2475
 4774TIP3    H235958   3.796   4.470   3.642 -1.4135 -1.2214  0.6082
 4775TIP3   OH235959   5.095   2.908   1.184  0.0329 -0.1409  0.0472
 4775TIP3    H135960   5.133   2.830   1.226  0.3938  0.2271  0.4153
 4775TIP3    H235961   5.022   2.932   1.242 -0.6552 -0.7357 -0.5573
 4776TIP3   OH235962   0.865   6.443   0.634  0.7503  0.9600 -0.1792
 4776TIP3    H135963   0.904   6.524   0.668  0.1749  0.2983  2.2831
 4776TIP3    H235964   0.896   6.375   0.694 -0.6904 -0.2472 -0.7473
 4777TIP3   OH235965   5.120   0.667   0.366 -0.1650 -0.5953  0.2594
 4777TIP3    H135966   5.155   0.745   0.322 -1.0960 -1.6879 -2.6810
 4777TIP3    H235967   5.038   0.696   0.404  0.7537  0.4423  1.5412
 4778TIP3   OH235968   3.749   1.325   2.009  0.0066  0.2987  0.1301
 4778TIP3    H135969   3.774   1.274   2.086 -1.9758 -0.1250  0.5348
 4778TIP3    H235970   3.734   1.260   1.940  0.2413  0.5575 -0.1694
 4779TIP3   OH235971   3.605   2.480   0.081 -0.5719  0.3492 -0.6681
 4779TIP3    H135972   3.671   2.421   0.045  0.7102  2.0106 -1.1230
 4779TIP3    H235973   3.522   2.445   0.048  0.2758 -0.2757 -2.2572
 4780TIP3   OH235974   4.294   5.743   8.847 -0.8167 -1.0691  0.4240
 4780TIP3    H135975   4.274   5.816   8.905 -0.4783 -1.2978  0.8336
 4780TIP3    H235976   4.298   5.781   8.759  0.0779 -0.4728  0.7223
 4781TIP3   OH235977   3.749   6.410   2.898 -0.0372 -0.0671 -0.2851
 4781TIP3    H135978   3.688   6.389   2.827  0.1088 -1.3244 -0.0463
 4781TIP3    H235979   3.824   6.449   2.854 -0.1009 -0.5023 -0.7927
 4782TIP3   OH235980   0.790   4.997   3.303 -0.1983 -0.2534  0.7832
 4782TIP3    H135981   0.755   4.909   3.318 -1.3954  0.3677  1.9104
 4782TIP3    H235982   0.795   5.035   3.391 -1.4008  1.3975  0.1750
 4783TIP3   OH235983   6.567   1.858   1.249  0.1327  0.2941  0.4330
 4783TIP3    H135984   6.522   1.813   1.320 -0.5205  1.5289  0.8223
 4783TIP3    H235985   6.627   1.792   1.213  0.4923 -0.3381  2.1259
 4784TIP3   OH235986   6.483   0.417   2.304  0.1128  0.0253 -0.1918
 4784TIP3    H135987   6.424   0.485   2.273  0.2291  1.2282  2.0728
 4784TIP3    H235988   6.462   0.406   2.396  1.6489 -1.4006  0.0413
 4785TIP3   OH235989   5.094   1.176   8.581  0.5247 -0.2034 -0.0711
 4785TIP3    H135990   4.999   1.186   8.571  0.1336 -2.6058  0.7974
 4785TIP3    H235991   5.130   1.247   8.528 -1.7163 -0.5792 -2.3015
 4786TIP3   OH235992   4.216   0.345   2.387 -0.6328 -0.1791  0.3921
 4786TIP3    H135993   4.159   0.379   2.456 -1.6915 -0.8431 -0.1404
 4786TIP3    H235994   4.274   0.283   2.433 -0.5641  0.2283  0.8691
 4787TIP3   OH235995   4.464   1.676   3.084 -0.4002  0.1146 -0.0263
 4787TIP3    H135996   4.486   1.674   3.178  0.6956  0.5929 -0.2635
 4787TIP3    H235997   4.465   1.584   3.058  0.0170  0.0300  0.2740
 4788TIP3   OH235998   5.132   0.702   1.040 -0.4472 -0.0929  0.1735
 4788TIP3    H135999   5.045   0.699   0.999  0.6663 -2.3174 -2.2749
 4788TIP3    H236000   5.121   0.656   1.123 -1.6625 -0.0366  0.0604
 4789TIP3   OH236001   1.174   1.140   3.066  0.6445  0.8429 -0.0085
 4789TIP3    H136002   1.202   1.231   3.060  1.6737  0.5940  0.6464
 4789TIP3    H236003   1.092   1.136   3.017  0.8324  2.0124 -0.4438
 4790TIP3   OH236004   2.430   6.672   2.703  0.2482  0.1220  0.4232
 4790TIP3    H136005   2.467   6.585   2.699  0.9801  0.3233  1.9409
 4790TIP3    H236006   2.468   6.719   2.629 -1.0149 -1.1316 -1.0697
 4791TIP3   OH236007   1.208   2.758   0.971 -0.1036  0.4796 -0.2202
 4791TIP3    H136008   1.193   2.841   0.927  0.4755 -0.5906 -2.6003
 4791TIP3    H236009   1.129   2.707   0.954 -0.3085  0.3923  0.9225
 4792TIP3   OH236010   2.369   4.786   2.077  0.2829 -0.5386 -0.2848
 4792TIP3    H136011   2.408   4.864   2.116  1.4505 -0.7309 -1.0467
 4792TIP3    H236012   2.436   4.750   2.020 -1.5731  0.1283 -3.1099
 4793TIP3   OH236013   0.056   6.036   3.435  0.2525  0.3545  0.2541
 4793TIP3    H136014   0.106   6.101   3.384 -0.7287  0.1392 -1.0415
 4793TIP3    H236015   0.123   5.986   3.482  1.3290 -0.1327 -1.6688
 4794TIP3   OH236016   0.732   2.842   8.346  0.2001 -0.3264 -0.0296
 4794TIP3    H136017   0.730   2.809   8.257 -0.8621 -1.2944  0.3302
 4794TIP3    H236018   0.646   2.884   8.358  0.8422  1.0088  0.1142
 4795TIP3   OH236019   4.968   2.814   3.778 -0.5832  0.7914  0.5291
 4795TIP3    H136020   5.058   2.846   3.768  0.1179 -1.4609 -1.4918
 4795TIP3    H236021   4.916   2.872   3.723  0.0703  0.6433 -0.2696
 4796TIP3   OH236022   5.144   6.715   3.694  0.5830  0.5905  0.3786
 4796TIP3    H136023   5.144   6.690   3.602 -0.9306  1.4208  0.1128
 4796TIP3    H236024   5.096   6.644   3.738 -1.8479  1.8363 -0.0624
 4797TIP3   OH236025   2.093   1.213   0.998  0.1890 -0.6559 -0.0766
 4797TIP3    H136026   2.098   1.204   1.093  1.2801 -1.1982 -0.1686
 4797TIP3    H236027   2.116   1.126   0.965 -0.5389 -0.5686 -0.8402
 4798TIP3   OH236028   0.339   4.756   8.532  0.1658 -0.1024 -0.1130
 4798TIP3    H136029   0.355   4.694   8.603  2.0509  0.3437 -0.0782
 4798TIP3    H236030   0.395   4.726   8.460 -0.0498  0.6857 -0.6341
 4799TIP3   OH236031   3.974   4.163   4.519  0.2093 -0.2958 -0.3441
 4799TIP3    H136032   3.891   4.210   4.521  0.4848  0.1596  0.9059
 4799TIP3    H236033   3.979   4.128   4.430 -1.1973 -0.1200 -0.5131
 4800TIP3   OH236034   2.993   0.657   1.799  0.0378 -0.0900 -0.2251
 4800TIP3    H136035   2.991   0.720   1.871  1.8875  1.0009 -1.0535
 4800TIP3    H236036   3.024   0.576   1.839  2.1497  0.7977  0.0778
 4801TIP3   OH236037   5.144   4.701   0.321  0.6293  0.1953 -0.1173
 4801TIP3    H136038   5.165   4.634   0.386 -0.8273 -0.7667 -0.5763
 4801TIP3    H236039   5.166   4.784   0.363  0.2286 -0.4328  1.3800
 4802TIP3   OH236040   2.171   1.329   1.531 -0.2012 -0.3440 -0.3853
 4802TIP3    H136041   2.095   1.371   1.491  0.3488  0.7446 -0.3162
 4802TIP3    H236042   2.134   1.256   1.582 -1.2107  0.2603 -0.2248
 4803TIP3   OH236043   2.350   0.055   3.312  0.3186  0.6325 -0.1978
 4803TIP3    H136044   2.394   0.128   3.270 -0.3092 -1.5649 -5.4778
 4803TIP3    H236045   2.411  -0.018   3.304 -1.0858 -0.6160 -0.0692
 4804TIP3   OH236046   0.324   4.344   0.114  0.0643  0.0019  0.2237
 4804TIP3    H136047   0.417   4.367   0.124  0.3401 -1.5335  1.5183
 4804TIP3    H236048   0.321   4.295   0.032  0.1977  0.8859 -0.3315
 4805TIP3   OH236049   4.827   0.751   0.049 -0.1797 -0.3302 -0.4948
 4805TIP3    H136050   4.812   0.799   0.130  0.8535  0.1132 -0.5406
 4805TIP3    H236051   4.887   0.807  -0.001  3.6420 -2.9113  0.7111
 4806TIP3   OH236052   0.125   0.183   2.092  0.2700 -0.2587  0.0997
 4806TIP3    H136053   0.191   0.149   2.153  1.2781  0.9067 -0.3067
 4806TIP3    H236054   0.054   0.213   2.148  1.8763  2.3326  0.9086
 4807TIP3   OH236055   2.379   0.632   3.620  0.5069  0.0452  0.3649
 4807TIP3    H136056   2.393   0.707   3.678 -0.0081 -0.5098  1.2272
 4807TIP3    H236057   2.286   0.637   3.598 -0.3693 -2.0984  3.0192
 4808TIP3   OH236058   4.000   3.332   2.235 -0.6470  0.5723 -0.0067
 4808TIP3    H136059   3.958   3.304   2.153  0.3722 -1.5862  0.1347
 4808TIP3    H236060   4.086   3.290   2.233  0.2759  2.3090  1.1677
 4809TIP3   OH236061   6.519   0.895   8.474 -0.4267 -0.3135 -0.3500
 4809TIP3    H136062   6.609   0.907   8.505 -0.1612 -2.1772 -0.2910
 4809TIP3    H236063   6.528   0.874   8.382 -0.8387 -0.2053 -0.4171
 4810TIP3   OH236064   3.808   3.658   4.592 -1.0159 -0.2237  0.0088
 4810TIP3    H136065   3.856   3.597   4.649 -0.2470 -0.5723 -0.9841
 4810TIP3    H236066   3.742   3.603   4.549  0.3189 -0.6098 -1.6362
 4811TIP3   OH236067   1.165   0.566   2.634 -0.0726 -0.7303 -0.3403
 4811TIP3    H136068   1.166   0.492   2.573 -0.1388 -0.4309 -0.7019
 4811TIP3    H236069   1.075   0.598   2.631  0.3752  0.4659 -1.5061
 4812TIP3   OH236070   4.198   3.841   3.393 -0.7550  0.2900  0.4911
 4812TIP3    H136071   4.251   3.780   3.342  2.0308  2.4561  0.5256
 4812TIP3    H236072   4.165   3.904   3.329  0.9992  1.8039  0.9808
 4813TIP3   OH236073   2.787   5.855   8.372  0.0412 -0.3447  0.2992
 4813TIP3    H136074   2.735   5.788   8.330 -2.0220  1.4571 -0.2118
 4813TIP3    H236075   2.731   5.889   8.442  0.7242  1.3343  0.0814
 4814TIP3   OH236076   6.262   2.458   3.190 -0.2243  0.2316 -0.1788
 4814TIP3    H136077   6.176   2.418   3.202 -0.5714  1.1045  0.3264
 4814TIP3    H236078   6.324   2.387   3.205 -0.7649  0.1871  2.4300
 4815TIP3   OH236079   5.080   5.263   1.376 -0.7140  0.1219  0.8085
 4815TIP3    H136080   5.128   5.306   1.447 -0.1467 -1.0663  1.1550
 4815TIP3    H236081   5.063   5.175   1.408 -1.3359 -0.1190 -0.1409
 4816TIP3   OH236082   3.969   2.362   2.159  0.1919 -0.2470  0.4198
 4816TIP3    H136083   4.024   2.408   2.223 -0.2540  0.7132  0.1403
 4816TIP3    H236084   3.931   2.432   2.106  1.1749 -1.0551 -1.4217
 4817TIP3   OH236085   1.120   0.599   2.993 -1.2081 -0.4696  0.0845
 4817TIP3    H136086   1.120   0.638   3.080  0.0084  1.5921 -0.7351
 4817TIP3    H236087   1.124   0.675   2.934 -1.9595 -1.8016 -1.7551
 4818TIP3   OH236088   2.755   3.573   8.158 -0.3090 -0.0537  0.3921
 4818TIP3    H136089   2.834   3.621   8.133 -0.1663  0.2118  1.2856
 4818TIP3    H236090   2.686   3.639   8.158 -0.4842 -0.2344 -0.1470
 4819TIP3   OH236091   5.288   5.649   2.818 -0.2111 -0.1780  0.2226
 4819TIP3    H136092   5.324   5.613   2.736 -0.7329  1.0678 -0.5796
 4819TIP3    H236093   5.199   5.615   2.822 -0.5953  0.7289 -0.3695
 4820TIP3   OH236094   2.814   1.103   0.405 -0.0591  0.6668 -0.0203
 4820TIP3    H136095   2.867   1.035   0.448 -1.7114 -1.3587 -0.9977
 4820TIP3    H236096   2.843   1.102   0.314 -1.1484  0.0985 -0.3846
 4821TIP3   OH236097   5.166   1.883   3.150 -0.6238 -0.4873 -0.2969
 4821TIP3    H136098   5.185   1.823   3.223 -1.6497 -1.0949 -0.5017
 4821TIP3    H236099   5.188   1.833   3.072 -2.1503 -0.8974 -0.4995
 4822TIP3   OH236100   0.374   2.129   4.116 -0.4512  0.6455 -0.1441
 4822TIP3    H136101   0.289   2.087   4.132  0.8610 -2.2870 -0.3292
 4822TIP3    H236102   0.414   2.135   4.203  0.1379 -0.3300 -0.3330
 4823TIP3   OH236103   6.004   5.949   1.135 -0.0610 -0.0413  0.1701
 4823TIP3    H136104   6.073   5.915   1.078  0.4447  1.5379 -0.2063
 4823TIP3    H236105   5.944   5.995   1.076  2.1622  4.5026  1.0117
 4824TIP3   OH236106   6.370   3.299   3.275 -0.4233 -0.5539  0.0257
 4824TIP3    H136107   6.395   3.360   3.344 -1.5672 -0.2975  0.2431
 4824TIP3    H236108   6.406   3.336   3.195 -1.1511  0.4522  0.1521
 4825TIP3   OH236109   3.757   5.881   2.250 -0.1921 -0.1973 -0.4766
 4825TIP3    H136110   3.713   5.899   2.333 -0.1216 -1.1865 -0.2022
 4825TIP3    H236111   3.821   5.951   2.240 -1.4809  0.9876 -0.6370
 4826TIP3   OH236112   2.074   1.707   0.419 -0.1429 -0.5443 -0.2906
 4826TIP3    H136113   1.981   1.723   0.436 -0.0379  1.2528 -1.2106
 4826TIP3    H236114   2.075   1.663   0.334 -0.2135 -2.1066  0.4856
 4827TIP3   OH236115   2.195   1.721   2.423 -0.0165 -0.1394  0.0996
 4827TIP3    H136116   2.269   1.716   2.363  0.5616  2.0884  0.5432
 4827TIP3    H236117   2.118   1.730   2.366  0.2040 -0.9271 -0.3304
 4828TIP3   OH236118   5.287   6.173   2.736  0.1602  0.5612 -0.3265
 4828TIP3    H136119   5.357   6.109   2.719 -0.5241 -0.3684  0.2307
 4828TIP3    H236120   5.209   6.120   2.747 -0.2764  1.4330  1.0294
 4829TIP3   OH236121   4.181   3.204   0.291  0.1472 -0.3492  0.2276
 4829TIP3    H136122   4.115   3.140   0.264  0.2024 -0.2971 -0.0384
 4829TIP3    H236123   4.218   3.168   0.371 -0.8463  0.0786  0.8907
 4830TIP3   OH236124   2.608   6.270   0.599 -0.0721  0.2563 -0.0728
 4830TIP3    H136125   2.616   6.364   0.612 -0.2073  0.4762 -1.5123
 4830TIP3    H236126   2.544   6.260   0.529 -1.0842 -0.9649  0.9606
 4831TIP3   OH236127   4.606   2.427   3.201 -1.2615  0.0708 -0.1258
 4831TIP3    H136128   4.610   2.354   3.263 -3.5054 -1.4288 -1.5982
 4831TIP3    H236129   4.561   2.496   3.249 -1.2012 -0.3581  0.5616
 4832TIP3   OH236130   1.030   0.011   0.694 -0.1575 -0.0517 -0.0846
 4832TIP3    H136131   0.963  -0.028   0.638 -1.4177  0.7253  0.8243
 4832TIP3    H236132   1.071   0.079   0.640 -2.5099  1.8650  0.3709
 4833TIP3   OH236133   2.524   2.719   1.192 -0.4368  0.3080 -0.2260
 4833TIP3    H136134   2.466   2.671   1.133  0.3195  0.7025 -1.3230
 4833TIP3    H236135   2.602   2.663   1.199 -0.1111  0.7330 -0.4215
 4834TIP3   OH236136   2.028   0.753   3.060 -0.7383 -0.2887 -0.6343
 4834TIP3    H136137   2.027   0.835   3.110 -0.0115 -0.0504 -0.9926
 4834TIP3    H236138   2.016   0.684   3.125 -0.8262  0.0781 -0.2626
 4835TIP3   OH236139   3.035   6.447   0.475  0.1285  0.8379 -0.1015
 4835TIP3    H136140   3.062   6.393   0.401  0.8172 -0.3808  0.9925
 4835TIP3    H236141   3.081   6.530   0.462 -0.8678  1.1718 -1.7598
 4836TIP3   OH236142   3.167   0.141   3.896  0.2240 -0.2492  0.0665
 4836TIP3    H136143   3.170   0.213   3.959 -1.0602 -0.6611  0.6569
 4836TIP3    H236144   3.224   0.074   3.934  0.0249 -0.2135  0.4416
 4837TIP3   OH236145   2.294   3.486   3.431 -0.2380  0.0895 -0.3726
 4837TIP3    H136146   2.326   3.420   3.370 -1.8823 -0.3501 -0.7859
 4837TIP3    H236147   2.359   3.486   3.502  0.7785 -0.6129 -1.2656
 4838TIP3   OH236148   5.976   1.580   8.410  0.1101  0.2725 -0.1706
 4838TIP3    H136149   5.921   1.524   8.357  1.9511 -0.2073 -1.6844
 4838TIP3    H236150   6.052   1.599   8.354  1.6732  0.5631  1.9238
 4839TIP3   OH236151   3.262   0.552   2.320 -0.6942 -0.2033 -0.3288
 4839TIP3    H136152   3.206   0.527   2.394  0.8929  0.7425  1.2809
 4839TIP3    H236153   3.231   0.639   2.295  2.9293  2.7823  3.9561
 4840TIP3   OH236154   5.048   4.013   0.095 -0.1797  0.0318  0.2402
 4840TIP3    H136155   5.095   4.057   0.166  2.1692 -0.7224 -0.7331
 4840TIP3    H236156   5.066   4.067   0.018  1.2373 -1.5731 -0.6217
 4841TIP3   OH236157   2.790   6.576   0.605  0.5290 -0.2872  0.3718
 4841TIP3    H136158   2.853   6.520   0.560  2.6212  0.3484  2.3504
 4841TIP3    H236159   2.797   6.552   0.697 -4.3720 -2.3106  0.5185
 4842TIP3   OH236160   5.113   4.110   2.181 -0.0902 -0.6203  0.0566
 4842TIP3    H136161   5.055   4.156   2.243  2.2826 -0.1941  2.1479
 4842TIP3    H236162   5.151   4.180   2.128  1.9666 -0.2342  1.8743
 4843TIP3   OH236163   6.302   1.615   1.202  0.5032 -0.4576 -0.5725
 4843TIP3    H136164   6.219   1.598   1.248  0.2960  1.7398 -0.0156
 4843TIP3    H236165   6.368   1.614   1.271  0.5100  0.5743 -0.5389
 4844TIP3   OH236166   2.922   1.206   3.170  0.4907  0.3398  0.4093
 4844TIP3    H136167   2.989   1.147   3.206  0.3385 -0.2056 -0.1865
 4844TIP3    H236168   2.897   1.261   3.243  0.7199 -0.2618  0.9468
 4845TIP3   OH236169   0.598   5.286   1.934 -0.0131 -0.6469  0.0216
 4845TIP3    H136170   0.627   5.262   1.846  1.1304 -0.7222  0.4016
 4845TIP3    H236171   0.580   5.203   1.978 -0.2283 -0.6255 -0.0267
 4846TIP3   OH236172   6.484   4.052   3.986 -0.6747  0.0977  0.4224
 4846TIP3    H136173   6.564   4.012   3.953 -0.4820  1.1074 -0.3512
 4846TIP3    H236174   6.463   4.000   4.065 -0.2936 -1.3353 -0.3762
 4847TIP3   OH236175   5.187   2.341   8.331  0.0582  0.3553  0.4390
 4847TIP3    H136176   5.101   2.315   8.297  0.9166 -1.0639 -0.7675
 4847TIP3    H236177   5.189   2.436   8.320 -0.0831  0.0844 -2.7115
 4848TIP3   OH236178   6.538   6.703   1.332  0.8608  0.0928  0.0983
 4848TIP3    H136179   6.614   6.738   1.285  0.8847  0.8302  0.6595
 4848TIP3    H236180   6.470   6.696   1.266  1.4358 -0.6591 -0.4297
 4849TIP3   OH236181   5.152   4.452   1.245 -0.7470 -0.0116  0.4067
 4849TIP3    H136182   5.083   4.506   1.207  0.8376  1.7281 -0.1237
 4849TIP3    H236183   5.219   4.514   1.273  1.4148 -1.6814 -0.7297
 4850TIP3   OH236184   1.347   1.272   2.776 -0.7861  0.1338 -0.0383
 4850TIP3    H136185   1.407   1.222   2.832 -3.0673 -0.7263  1.8289
 4850TIP3    H236186   1.295   1.206   2.731 -1.6622  0.8018 -0.0439
 4851TIP3   OH236187   5.206   4.038   3.056  0.2207  0.5149 -0.2210
 4851TIP3    H136188   5.228   4.034   3.149  1.7361  1.3818 -0.5098
 4851TIP3    H236189   5.123   3.991   3.049  1.2565 -1.6544  1.1888
 4852TIP3   OH236190   2.631   5.655   1.809  0.0223  0.1134 -0.6378
 4852TIP3    H136191   2.647   5.726   1.747 -0.8183 -0.9835 -2.1764
 4852TIP3    H236192   2.550   5.614   1.779 -0.8078 -0.0738  1.5940
 4853TIP3   OH236193   2.033   2.415   8.677  0.1408  0.7316  0.5039
 4853TIP3    H136194   1.960   2.463   8.717 -0.6837  1.4953 -1.7091
 4853TIP3    H236195   2.028   2.328   8.715 -0.7293  1.3237  1.8231
 4854TIP3   OH236196   3.592   6.002   2.546 -0.0717 -0.5339  0.3992
 4854TIP3    H136197   3.522   6.033   2.488 -0.2273  0.6605  1.1950
 4854TIP3    H236198   3.584   5.907   2.544 -1.2410 -0.4400 -0.1151
 4855TIP3   OH236199   0.724   6.141   2.539 -0.1874 -0.3260 -0.3727
 4855TIP3    H136200   0.683   6.121   2.623 -0.5149  0.5804 -0.3140
 4855TIP3    H236201   0.701   6.232   2.522 -1.1491 -0.8488 -2.0368
 4856TIP3   OH236202   1.236   5.675   8.631  1.0341 -0.1698 -0.3000
 4856TIP3    H136203   1.152   5.644   8.664  1.2210  0.4614  0.8323
 4856TIP3    H236204   1.293   5.598   8.634  1.4036  0.0944  2.1479
 4857TIP3   OH236205   2.433   2.308   0.505  0.7996 -0.1710 -0.6260
 4857TIP3    H136206   2.446   2.357   0.424 -2.2708  0.3057 -0.9600
 4857TIP3    H236207   2.341   2.283   0.503  0.5789 -0.1163  2.7236
 4858TIP3   OH236208   4.735   3.981   3.492  0.2103  0.1335  0.3422
 4858TIP3    H136209   4.811   3.974   3.434 -0.8101 -0.2845 -0.9920
 4858TIP3    H236210   4.738   3.903   3.546  0.7721  0.1551  0.3454
 4859TIP3   OH236211   2.281   2.143   1.961  0.0242 -0.3320  0.2904
 4859TIP3    H136212   2.351   2.207   1.975  0.6206 -0.7013 -0.9113
 4859TIP3    H236213   2.295   2.110   1.873 -2.5722  0.6878 -0.5999
 4860TIP3   OH236214   3.849   4.645   7.980 -0.5121  0.5539  0.1675
 4860TIP3    H136215   3.819   4.661   8.069  3.0092 -0.2443  1.6701
 4860TIP3    H236216   3.842   4.550   7.969  1.1897  0.3535  0.5346
 4861TIP3   OH236217   1.125   0.976   8.456  0.9503 -0.1022 -0.1092
 4861TIP3    H136218   1.054   0.945   8.399 -0.6475  1.5727  0.8507
 4861TIP3    H236219   1.188   1.014   8.395 -0.5042  1.2416 -0.8645
 4862TIP3   OH236220   1.792   4.209   2.714 -0.1131 -0.0277  0.8170
 4862TIP3    H136221   1.758   4.258   2.639  1.1775 -0.2430  0.0751
 4862TIP3    H236222   1.821   4.277   2.775 -1.5328  0.1561  1.3353
 4863TIP3   OH236223   6.725   2.776   1.196  0.5012 -0.3955  0.0936
 4863TIP3    H136224   6.798   2.768   1.135  1.1272  2.2201  0.4045
 4863TIP3    H236225   6.650   2.800   1.141  0.1319 -1.7915 -0.0584
 4864TIP3   OH236226   0.251   1.259   0.165  0.5357 -0.2985 -0.7072
 4864TIP3    H136227   0.230   1.352   0.162  0.4458 -0.3511 -2.8818
 4864TIP3    H236228   0.293   1.247   0.251 -1.7583  1.2008  0.7301
 4865TIP3   OH236229   3.920   4.620   0.823 -0.0932 -0.2254 -0.2596
 4865TIP3    H136230   3.842   4.675   0.833 -0.8211 -1.0195 -1.3458
 4865TIP3    H236231   3.907   4.575   0.740  0.9985 -1.2333  0.0943
 4866TIP3   OH236232   5.198   3.278   3.393  0.0072  0.1445  0.3132
 4866TIP3    H136233   5.132   3.347   3.380 -0.2908  0.0117  1.0943
 4866TIP3    H236234   5.274   3.324   3.428  0.6947  0.4504 -1.4658
 4867TIP3   OH236235   5.476   2.518   1.809 -0.9076 -0.6952  0.0235
 4867TIP3    H136236   5.494   2.598   1.857 -1.9601 -0.9971  0.9672
 4867TIP3    H236237   5.543   2.515   1.741  0.8041 -0.3737  1.6070
 4868TIP3   OH236238   5.295   1.170   1.736 -0.0757 -0.3923 -0.8050
 4868TIP3    H136239   5.369   1.110   1.730  0.5391  0.4184 -1.5755
 4868TIP3    H236240   5.329   1.246   1.783 -0.6897 -0.3983 -0.3379
 4869TIP3   OH236241   5.369   2.502   3.057  0.4608  0.0993  0.4289
 4869TIP3    H136242   5.296   2.445   3.081  0.5302 -0.1587  0.0336
 4869TIP3    H236243   5.350   2.584   3.101  0.7697 -0.4700  1.6604
 4870TIP3   OH236244   6.247   6.222   1.159 -0.4634 -0.2488  0.8702
 4870TIP3    H136245   6.341   6.241   1.166 -0.3186 -0.5494 -0.1378
 4870TIP3    H236246   6.243   6.128   1.139 -0.9389 -0.0581  0.0397
 4871TIP3   OH236247   1.884   2.388   2.252 -0.6260  0.2546 -0.1170
 4871TIP3    H136248   1.863   2.296   2.268 -0.1154  0.1697  0.0596
 4871TIP3    H236249   1.911   2.422   2.337 -0.1117  0.3824 -0.3309
 4872TIP3   OH236250   3.224   4.962   8.239 -0.2668  0.1190  0.1365
 4872TIP3    H136251   3.235   5.044   8.190  1.2900 -0.5100 -0.6462
 4872TIP3    H236252   3.295   4.963   8.303 -1.8955  0.6290  2.0565
 4873TIP3   OH236253   6.697   6.402   3.560  0.0832  0.2933  0.0042
 4873TIP3    H136254   6.714   6.490   3.592 -0.5922  0.0161  1.1815
 4873TIP3    H236255   6.684   6.350   3.639  2.7335 -1.3942 -0.5444
 4874TIP3   OH236256   1.468   3.239   3.739  0.0850 -0.3152 -0.2364
 4874TIP3    H136257   1.415   3.196   3.672  2.3049 -2.1301 -0.9460
 4874TIP3    H236258   1.496   3.168   3.797  0.4657  0.8129  1.0018
 4875TIP3   OH236259   2.592   4.149   1.377 -0.2904  0.3114  0.0966
 4875TIP3    H136260   2.534   4.185   1.310 -0.1624 -0.9849 -0.7383
 4875TIP3    H236261   2.590   4.214   1.447 -1.2653  1.1896 -0.7080
 4876TIP3   OH236262   6.405   2.162   2.603 -0.6565 -0.1682  0.0317
 4876TIP3    H136263   6.320   2.131   2.633  0.2626 -3.2037 -0.1280
 4876TIP3    H236264   6.421   2.112   2.523  0.2974  2.0985 -1.2889
 4877TIP3   OH236265   1.118   1.797   0.821 -0.0230  0.7825 -0.0879
 4877TIP3    H136266   1.108   1.842   0.905 -0.3455  1.5608 -0.5371
 4877TIP3    H236267   1.072   1.714   0.833  1.1355  0.2750  0.9592
 4878TIP3   OH236268   2.408   0.841   2.453 -0.1382 -0.1878 -0.0145
 4878TIP3    H136269   2.481   0.782   2.434  0.6203  0.8111 -0.2523
 4878TIP3    H236270   2.437   0.890   2.530 -0.9137 -0.3629  0.3976
 4879TIP3   OH236271   2.112   6.105   3.826  0.0673 -0.1925  0.2491
 4879TIP3    H136272   2.179   6.096   3.757  1.0107 -0.1709  1.1349
 4879TIP3    H236273   2.162   6.100   3.908 -1.1859 -1.7176  0.9800
 4880TIP3   OH236274   4.760   5.209   4.094  0.0683  0.3113  0.0148
 4880TIP3    H136275   4.716   5.220   4.178 -1.0810  0.0040 -0.5299
 4880TIP3    H236276   4.726   5.281   4.039 -1.7232 -1.3401 -1.1838
 4881TIP3   OH236277   5.837   4.964   3.334  0.4924 -0.3386  0.0358
 4881TIP3    H136278   5.852   5.033   3.269 -2.7188  1.1846  0.7041
 4881TIP3    H236279   5.753   4.926   3.310  0.9863 -2.3354  1.2015
 4882TIP3   OH236280   2.615   4.581   3.858  0.4660  0.3665  0.0107
 4882TIP3    H136281   2.652   4.657   3.812  0.1574 -0.6642 -2.0382
 4882TIP3    H236282   2.539   4.556   3.806 -1.0875  0.2736  2.1865
 4883TIP3   OH236283   4.067   5.864   8.283 -0.6558 -0.2180  0.1564
 4883TIP3    H136284   4.106   5.950   8.294  1.7458 -0.6460 -3.4149
 4883TIP3    H236285   4.136   5.803   8.311 -0.1090 -0.9499 -2.5384
 4884TIP3   OH236286   2.553   4.168   3.085 -0.7321 -0.5305 -1.1299
 4884TIP3    H136287   2.520   4.178   2.996 -1.0374  1.5877 -0.8413
 4884TIP3    H236288   2.613   4.242   3.097 -0.6314 -0.8147  0.4049
 4885TIP3   OH236289   0.009   6.181   0.579  0.4499  0.1671  0.3918
 4885TIP3    H136290  -0.046   6.255   0.554 -2.5421 -1.3044  2.0136
 4885TIP3    H236291  -0.026   6.152   0.664  1.3576 -3.1422 -0.2012
 4886TIP3   OH236292   1.712   6.659   0.796 -0.3731 -0.6370 -0.0245
 4886TIP3    H136293   1.699   6.710   0.876  1.5793 -0.4413  0.2111
 4886TIP3    H236294   1.717   6.568   0.826  1.2450 -0.4909  0.2294
 4887TIP3   OH236295   2.577   5.385   2.994 -0.2356 -0.6728  0.6087
 4887TIP3    H136296   2.492   5.407   2.956 -0.0557 -0.5939  0.2474
 4887TIP3    H236297   2.635   5.374   2.918  0.4223  0.6978  0.8719
 4888TIP3   OH236298   2.788   4.465   4.214  0.5476  0.5051  0.2539
 4888TIP3    H136299   2.868   4.436   4.171 -1.1285  0.2738 -3.1003
 4888TIP3    H236300   2.753   4.386   4.256  0.7560 -0.0967 -0.6576
 4889TIP3   OH236301   2.060   2.389   1.588 -0.2964 -0.3500  0.2718
 4889TIP3    H136302   2.009   2.419   1.663  0.6964  0.3506  0.6802
 4889TIP3    H236303   2.100   2.468   1.552 -0.8971 -0.6427 -1.1221
 4890TIP3   OH236304   0.369   5.167   1.421  0.4283  0.5031 -0.4425
 4890TIP3    H136305   0.459   5.142   1.403  0.2334 -1.2727  0.7726
 4890TIP3    H236306   0.354   5.140   1.512 -0.6931  2.7297  0.0973
 4891TIP3   OH236307   6.744   6.788   4.139  0.1888  0.6794  0.3976
 4891TIP3    H136308   6.692   6.775   4.218  0.9231 -1.7640  0.5692
 4891TIP3    H236309   6.811   6.719   4.142  1.0258  1.3018 -1.7210
 4892TIP3   OH236310   2.723   1.254   2.803 -0.4473 -0.2476  0.4378
 4892TIP3    H136311   2.744   1.164   2.780 -0.6447 -0.4400  0.9877
 4892TIP3    H236312   2.644   1.248   2.856 -1.1111  0.3506 -0.4422
 4893TIP3   OH236313   6.402   3.577   1.309 -0.4405  0.3126 -0.0768
 4893TIP3    H136314   6.496   3.588   1.326  0.2845 -2.6195 -1.5207
 4893TIP3    H236315   6.370   3.525   1.383 -0.3867 -0.6099 -0.6865
 4894TIP3   OH236316   0.519   6.523   4.254  0.1827  0.0461 -0.5424
 4894TIP3    H136317   0.425   6.528   4.268 -0.2639  1.6257 -3.4566
 4894TIP3    H236318   0.536   6.430   4.240 -0.7217 -0.3809  0.9277
 4895TIP3   OH236319   1.290   3.828   1.102  0.3692  0.0189 -0.3187
 4895TIP3    H136320   1.337   3.789   1.176  2.1474  0.8886 -0.9353
 4895TIP3    H236321   1.198   3.820   1.126  0.8729  1.0050  2.4128
 4896TIP3   OH236322   1.555   2.480   4.204  0.2304 -0.0406  0.1227
 4896TIP3    H136323   1.478   2.433   4.174  0.0979 -0.5077  1.1424
 4896TIP3    H236324   1.619   2.411   4.224  0.2750  0.2355  0.9832
 4897TIP3   OH236325   6.681   0.886   0.900  0.3419 -0.0294  0.1671
 4897TIP3    H136326   6.658   0.868   0.808 -0.0489  0.7894  0.0943
 4897TIP3    H236327   6.597   0.880   0.946  0.6857 -1.4820  0.6678
 4898TIP3   OH236328   1.532   1.576   1.924 -0.2478 -0.1011 -0.1192
 4898TIP3    H136329   1.462   1.636   1.898 -0.2439 -1.1166 -2.7427
 4898TIP3    H236330   1.613   1.624   1.905 -0.2478 -0.5740 -1.3717
 4899TIP3   OH236331   6.361   5.213   8.830 -0.2903 -0.0093 -0.1538
 4899TIP3    H136332   6.272   5.239   8.855 -0.5248 -0.0146 -0.9433
 4899TIP3    H236333   6.395   5.288   8.782  0.3445  0.2071  0.6235
 4900TIP3   OH236334   2.999   6.259   0.234 -0.0396 -0.3167 -0.2074
 4900TIP3    H136335   3.000   6.346   0.196  1.5749  0.0282  0.5718
 4900TIP3    H236336   3.046   6.204   0.172  0.8154 -0.1745  0.3002
 4901TIP3   OH236337   3.214   2.655   1.182  0.0787 -0.6116 -0.1746
 4901TIP3    H136338   3.254   2.736   1.151 -0.1961 -0.7745 -0.9776
 4901TIP3    H236339   3.150   2.633   1.114 -0.5318 -0.9825  0.5124
 4902TIP3   OH236340   6.684   0.525   0.760 -0.0350 -0.1068 -0.3212
 4902TIP3    H136341   6.715   0.609   0.726 -0.8852  0.0723 -0.6969
 4902TIP3    H236342   6.615   0.549   0.822 -0.4660 -0.5272 -0.6253
 4903TIP3   OH236343   6.259   2.591   1.547 -0.0188  1.0544 -0.3012
 4903TIP3    H136344   6.287   2.570   1.458  0.9039  0.0980  0.1935
 4903TIP3    H236345   6.286   2.515   1.599  0.2975  2.0086  0.9622
 4904TIP3   OH236346   3.047   1.524   1.871  0.2218 -0.7247  0.2613
 4904TIP3    H136347   2.984   1.460   1.838 -0.1329 -0.1438 -0.1868
 4904TIP3    H236348   3.121   1.518   1.811 -0.3093  0.1355 -0.4933
 4905TIP3   OH236349   1.426   0.829   2.886  0.5760 -0.0690 -0.1643
 4905TIP3    H136350   1.413   0.865   2.974 -1.5412  1.4959 -1.0178
 4905TIP3    H236351   1.455   0.739   2.900 -0.3256 -0.0560  2.1501
 4906TIP3   OH236352   0.602   5.880   8.173 -0.1867  0.6574 -0.2579
 4906TIP3    H136353   0.548   5.869   8.095  0.1959 -1.3879 -0.2791
 4906TIP3    H236354   0.674   5.818   8.161  0.0481  0.5278  1.5921
 4907TIP3   OH236355   3.894   3.029   2.887  0.8809  1.1106 -0.4308
 4907TIP3    H136356   3.819   3.043   2.830  0.6756  0.0422 -0.4520
 4907TIP3    H236357   3.940   2.955   2.848  0.7382  0.3572  0.7705
 4908TIP3   OH236358   5.790   4.103   4.284  0.5599 -1.1418 -0.2380
 4908TIP3    H136359   5.712   4.075   4.235 -2.7366  2.7117  2.1325
 4908TIP3    H236360   5.840   4.023   4.297 -1.9016 -3.5474 -3.6923
 4909TIP3   OH236361   1.405   2.544   2.071  0.6810  0.1575  0.2373
 4909TIP3    H136362   1.336   2.610   2.064 -0.4062 -0.8142  1.3525
 4909TIP3    H236363   1.447   2.543   1.985 -0.8374  0.6196 -0.5361
 4910TIP3   OH236364   0.800   2.145   0.592 -0.2849  0.1673  0.0531
 4910TIP3    H136365   0.796   2.050   0.604  1.5497  0.1320  0.6744
 4910TIP3    H236366   0.846   2.177   0.669  1.3984  1.2616 -1.3289
 4911TIP3   OH236367   3.645   6.042   0.486 -0.0322 -0.5680 -0.1577
 4911TIP3    H136368   3.583   6.106   0.452  0.5623 -0.0599 -0.2943
 4911TIP3    H236369   3.590   5.978   0.533 -0.7085 -0.4613 -0.7897
 4912TIP3   OH236370   0.573   6.288   0.287  0.3028  0.3976 -0.1950
 4912TIP3    H136371   0.665   6.315   0.288  0.8912 -1.3852 -0.7132
 4912TIP3    H236372   0.550   6.278   0.380 -0.0045  2.7002  0.0192
 4913TIP3   OH236373   2.435   2.516   0.331 -0.0258 -0.3061  0.0637
 4913TIP3    H136374   2.499   2.586   0.344  1.4247 -1.5710  0.0157
 4913TIP3    H236375   2.365   2.557   0.280  1.3156  0.8274 -0.9670
 4914TIP3   OH236376   5.342   6.380   3.186 -0.5954 -0.4209  0.4965
 4914TIP3    H136377   5.426   6.411   3.219  0.1853 -1.0259 -0.8614
 4914TIP3    H236378   5.353   6.285   3.179 -1.0633 -0.4133 -0.5350
 4915TIP3   OH236379   3.218   3.661   1.591 -0.4349  0.5840 -0.2877
 4915TIP3    H136380   3.247   3.670   1.681  0.7112  0.5342 -0.6376
 4915TIP3    H236381   3.174   3.576   1.588  1.0413 -0.2159 -0.1499
 4916TIP3   OH236382   2.786   4.690   8.727 -0.5074 -0.4455  0.0502
 4916TIP3    H136383   2.821   4.603   8.749 -0.5173 -0.7083 -0.9603
 4916TIP3    H236384   2.833   4.716   8.649 -1.8041 -0.3384 -0.7209
 4917TIP3   OH236385   0.547   3.553   2.467 -0.1286 -0.1903  0.4203
 4917TIP3    H136386   0.539   3.529   2.559 -0.7194 -1.0760  0.1494
 4917TIP3    H236387   0.637   3.583   2.458 -0.1334  0.1543  1.3328
 4918TIP3   OH236388   0.735   1.032   3.037  0.2424 -0.3983 -0.3724
 4918TIP3    H136389   0.694   1.073   3.113 -2.2463 -2.3894 -0.4909
 4918TIP3    H236390   0.780   0.956   3.073  0.1120 -0.6483 -0.7319
 4919TIP3   OH236391   3.724   6.647   8.725 -0.5096 -0.0208 -0.1281
 4919TIP3    H136392   3.770   6.657   8.642 -0.8470  2.3169 -0.1152
 4919TIP3    H236393   3.645   6.701   8.715 -0.5338  0.3484  1.6999
 4920TIP3   OH236394   0.618   5.799   8.467  0.0123 -0.5263 -0.1613
 4920TIP3    H136395   0.643   5.857   8.394 -1.8791 -0.1399 -0.5839
 4920TIP3    H236396   0.693   5.742   8.480  1.7856  1.6877 -0.0570
 4921TIP3   OH236397   4.799   4.674   0.311 -0.7875 -0.0142  0.6590
 4921TIP3    H136398   4.766   4.686   0.222  0.5751 -0.4699  0.0643
 4921TIP3    H236399   4.807   4.763   0.346 -1.3453  0.1667  0.3331
 4922TIP3   OH236400   3.016   2.774   0.986  0.0100  0.2053  0.2075
 4922TIP3    H136401   2.935   2.769   0.936  0.5779 -0.6157 -0.6690
 4922TIP3    H236402   2.999   2.840   1.054 -0.8510  1.2033 -0.9404
 4923TIP3   OH236403   1.142   2.148   0.591 -1.0665  0.6262  0.3572
 4923TIP3    H136404   1.161   2.235   0.555 -1.8876  0.8731  0.5112
 4923TIP3    H236405   1.087   2.165   0.667 -1.3758 -0.0391  0.2881
 4924TIP3   OH236406   4.972   4.600   1.460 -0.8991 -0.3269 -0.1322
 4924TIP3    H136407   4.900   4.575   1.518 -1.5260  0.6871 -0.4539
 4924TIP3    H236408   4.938   4.585   1.372  0.2009 -2.2693 -0.2733
 4925TIP3   OH236409   5.376   0.464   1.211  0.1182  0.1716 -0.0247
 4925TIP3    H136410   5.419   0.381   1.234 -0.8308 -0.7599 -1.4474
 4925TIP3    H236411   5.376   0.465   1.116  0.2637  1.9258 -0.0355
 4926TIP3   OH236412   0.231   3.476   7.957 -0.0892 -0.1138 -0.4793
 4926TIP3    H136413   0.174   3.541   7.998 -1.8252 -2.2463  0.6720
 4926TIP3    H236414   0.226   3.400   8.014  2.5670 -1.0286 -1.3106
 4927TIP3   OH236415   5.857   2.906   0.450  0.0436  0.1931 -0.3091
 4927TIP3    H136416   5.768   2.908   0.486 -0.6633  0.1291 -2.0062
 4927TIP3    H236417   5.893   2.991   0.474 -0.2733  0.0410  0.8118
 4928TIP3   OH236418   4.208   1.246   8.538 -0.6892 -0.3868 -0.0096
 4928TIP3    H136419   4.168   1.319   8.491 -0.0797  1.2736  1.9483
 4928TIP3    H236420   4.282   1.221   8.483 -0.5551  0.8672 -0.4306
 4929TIP3   OH236421   6.822   5.621   4.065  0.1167  0.3771  0.4217
 4929TIP3    H136422   6.738   5.583   4.038  0.6429 -1.0306  0.6543
 4929TIP3    H236423   6.883   5.596   3.995  0.1820  2.1732 -0.2116
 4930TIP3   OH236424   0.006   1.104   1.226  0.0403  0.0034 -0.4603
 4930TIP3    H136425  -0.004   1.057   1.308 -2.0988 -1.2195 -1.3402
 4930TIP3    H236426   0.069   1.052   1.176  0.7457  0.3257  0.0685
 4931TIP3   OH236427   0.411   1.428   1.528 -0.1070  0.5840  0.5020
 4931TIP3    H136428   0.355   1.370   1.476 -0.8792  0.8330  1.0349
 4931TIP3    H236429   0.497   1.422   1.486 -0.9696  1.7395 -1.6176
 4932TIP3   OH236430   6.221   6.453   2.518 -0.1647 -0.0635 -0.5000
 4932TIP3    H136431   6.158   6.521   2.539 -0.4633 -0.5818  0.3423
 4932TIP3    H236432   6.190   6.376   2.567 -0.4486 -1.1151 -2.2424
 4933TIP3   OH236433   1.328   5.034   4.218  0.2936 -0.0437 -0.0282
 4933TIP3    H136434   1.253   4.976   4.203  1.1454 -0.9176 -1.0394
 4933TIP3    H236435   1.402   4.988   4.180  0.9655  1.8621 -1.1591
 4934TIP3   OH236436   5.408   4.916   1.250  0.6212 -0.3379  0.2977
 4934TIP3    H136437   5.410   4.996   1.302 -0.9246 -0.6779  0.9426
 4934TIP3    H236438   5.499   4.898   1.230  1.0040  1.5995  0.1008
 4935TIP3   OH236439   6.703   5.806   3.362  0.5735  0.4972 -0.5438
 4935TIP3    H136440   6.698   5.736   3.427 -1.1431  0.1397 -1.0055
 4935TIP3    H236441   6.774   5.863   3.393  0.3026 -0.0680  1.2235
 4936TIP3   OH236442   5.249   2.704   0.146 -0.2179  0.6888  0.2787
 4936TIP3    H136443   5.316   2.655   0.193  0.6689  0.6892 -0.9242
 4936TIP3    H236444   5.189   2.637   0.114  1.3378  0.2127 -1.9124
 4937TIP3   OH236445   5.032   5.326   2.102 -0.6330 -0.1749 -0.7041
 4937TIP3    H136446   5.060   5.310   2.192 -0.8544  0.4992 -0.5138
 4937TIP3    H236447   5.032   5.422   2.093 -0.6509 -0.2325 -1.4071
 4938TIP3   OH236448   4.986   4.146   0.443  0.9516  0.3526 -0.5802
 4938TIP3    H136449   5.066   4.178   0.400  0.7887  1.2782 -0.2107
 4938TIP3    H236450   4.929   4.222   0.448  0.5213 -0.0140  0.2667
 4939TIP3   OH236451   3.270   4.577   0.742  0.1525 -0.2650  0.3505
 4939TIP3    H136452   3.347   4.526   0.720  0.6452 -0.0815  1.5333
 4939TIP3    H236453   3.196   4.523   0.715  0.6768 -1.2231  0.7874
 4940TIP3   OH236454   6.328   3.066   8.570  0.5119 -0.2630 -0.4920
 4940TIP3    H136455   6.343   3.083   8.478 -0.6331  0.7850 -0.5072
 4940TIP3    H236456   6.288   2.979   8.572  1.9835 -0.9688 -0.8298
 4941TIP3   OH236457   5.883   3.141   0.888  0.4047 -0.2760  0.1911
 4941TIP3    H136458   5.893   3.127   0.982 -3.2837  0.7677  0.9050
 4941TIP3    H236459   5.837   3.225   0.880  1.3592  0.0978 -2.6201
 4942TIP3   OH236460   0.307   6.142   8.066  0.6663 -0.4581 -0.0219
 4942TIP3    H136461   0.224   6.094   8.058  1.2995 -1.6119  0.1774
 4942TIP3    H236462   0.280   6.230   8.092 -0.4589 -1.0486  0.9245
 4943TIP3   OH236463   3.848   4.248   1.138  0.2522 -0.5077 -0.1316
 4943TIP3    H136464   3.938   4.279   1.128  0.9848 -2.9267 -1.7737
 4943TIP3    H236465   3.856   4.153   1.148 -2.0729 -0.6609  0.8681
 4944TIP3   OH236466   6.577   1.818   0.930  0.2019 -0.1556  0.1615
 4944TIP3    H136467   6.581   1.905   0.891 -0.3016 -0.2684 -0.1533
 4944TIP3    H236468   6.504   1.822   0.992 -0.2814 -0.5494 -0.3687
 4945TIP3   OH236469   5.783   3.786   2.079  0.1523 -0.3367  0.0803
 4945TIP3    H136470   5.837   3.741   2.144  0.5151 -1.3349 -0.8712
 4945TIP3    H236471   5.808   3.745   1.995  0.1888  1.3633 -0.7762
 4946TIP3   OH236472   6.681   6.548   8.845  0.5291  0.0762 -0.5187
 4946TIP3    H136473   6.724   6.610   8.786  0.3513  0.3549 -0.3554
 4946TIP3    H236474   6.753   6.511   8.896  0.6363  0.1401 -0.6216
 4947TIP3   OH236475   5.979   4.700   1.670  0.1920  0.9323  0.4876
 4947TIP3    H136476   6.021   4.786   1.677  1.7286  0.2140  0.3563
 4947TIP3    H236477   5.944   4.683   1.757  2.6071  0.3672  1.4183
 4948TIP3   OH236478   0.597   5.886   2.938 -0.0230 -0.2486 -0.4609
 4948TIP3    H136479   0.606   5.797   2.973 -0.9208 -0.8331 -1.6281
 4948TIP3    H236480   0.542   5.931   3.002 -0.9764 -1.0496 -0.6908
 4949TIP3   OH236481   2.544   4.548   3.399  0.0895  0.3692  0.1522
 4949TIP3    H136482   2.608   4.477   3.397  0.0064  0.3060 -0.3226
 4949TIP3    H236483   2.566   4.603   3.324  0.9229  1.5346  1.2113
 4950TIP3   OH236484   1.286   6.509   4.005 -0.3849  0.0288  0.2317
 4950TIP3    H136485   1.371   6.497   3.961  0.4023  0.8613  1.4504
 4950TIP3    H236486   1.308   6.552   4.087 -1.6544 -2.3846  1.9704
 4951TIP3   OH236487   0.591   2.674   8.167  0.1337 -0.5908  0.2365
 4951TIP3    H136488   0.537   2.684   8.088 -0.9011 -0.0334  0.9774
 4951TIP3    H236489   0.530   2.690   8.239  1.4582  0.9158  1.0969
 4952TIP3   OH236490   1.529   6.808   1.562 -0.2604  0.3092 -0.0093
 4952TIP3    H136491   1.585   6.790   1.637  2.4000  0.5467 -1.7847
 4952TIP3    H236492   1.537   6.902   1.548 -0.3338  0.1987 -0.8548
 4953TIP3   OH236493   4.997   6.463   2.536 -0.1063  0.0843 -0.2025
 4953TIP3    H136494   4.951   6.479   2.619  0.1416 -0.9122  0.1494
 4953TIP3    H236495   5.090   6.462   2.559 -0.0402 -0.3056 -0.4714
 4954TIP3   OH236496   4.643   1.797   1.705  0.2704  0.5004  0.2015
 4954TIP3    H136497   4.724   1.843   1.680  2.4350 -2.6808  0.7557
 4954TIP3    H236498   4.657   1.772   1.796 -1.2923 -0.3116  0.2480
 4955TIP3   OH236499   5.355   3.618   2.973 -0.3178  0.8402  0.0919
 4955TIP3    H136500   5.412   3.542   2.987 -0.4933 -0.2749 -3.9109
 4955TIP3    H236501   5.363   3.670   3.053  3.4051 -1.0973  1.1847
 4956TIP3   OH236502   3.099   2.139   2.174 -0.1708 -0.0297  0.9027
 4956TIP3    H136503   3.128   2.094   2.253 -0.7440  1.5330  2.0567
 4956TIP3    H236504   3.060   2.071   2.120 -0.2888 -1.0473  2.2188
 4957TIP3   OH236505   3.163   2.831   8.485  0.3253  0.4003 -0.2487
 4957TIP3    H136506   3.205   2.745   8.497 -0.6763  0.0711  1.1364
 4957TIP3    H236507   3.084   2.812   8.434 -1.2676  0.0022  2.1627
 4958TIP3   OH236508   6.729   2.347   3.804  0.4242 -0.4163  0.7307
 4958TIP3    H136509   6.659   2.358   3.869 -1.0954 -1.9358 -0.5326
 4958TIP3    H236510   6.732   2.430   3.757 -1.1131 -0.5622  0.3077
 4959TIP3   OH236511   2.198   2.931   1.022  0.1520 -0.1554  0.0143
 4959TIP3    H136512   2.240   2.986   0.956 -0.3847  0.6847  0.3560
 4959TIP3    H236513   2.230   2.965   1.105 -0.4158 -0.1580  0.2390
 4960TIP3   OH236514   0.508   5.562   2.308 -0.3598 -0.2157  0.0258
 4960TIP3    H136515   0.461   5.552   2.391 -1.6293 -0.5823 -0.7013
 4960TIP3    H236516   0.456   5.511   2.246  2.0006 -2.1579 -0.4741
 4961TIP3   OH236517   5.722   0.907   2.588  0.9660  0.1825 -0.3092
 4961TIP3    H136518   5.783   0.907   2.662 -0.6657 -0.5394  1.1037
 4961TIP3    H236519   5.641   0.945   2.622 -0.3255 -1.5446 -1.2527
 4962TIP3   OH236520   2.652   5.826   0.664  0.1192 -0.5491 -0.5412
 4962TIP3    H136521   2.647   5.922   0.666 -0.3454 -0.5439 -1.4089
 4962TIP3    H236522   2.734   5.807   0.618  0.4649 -0.5717  0.0819
 4963TIP3   OH236523   3.766   5.561   2.619  0.2884  0.8228 -0.9696
 4963TIP3    H136524   3.853   5.555   2.657  0.5597  2.5642 -1.2128
 4963TIP3    H236525   3.774   5.517   2.535  0.1783 -1.3994  0.1281
 4964TIP3   OH236526   0.007   5.901   3.948  0.0088 -0.1033  0.1028
 4964TIP3    H136527  -0.088   5.886   3.947  0.0197 -0.3219 -2.0082
 4964TIP3    H236528   0.042   5.830   4.001 -0.9916 -0.1463  0.7262
 4965TIP3   OH236529   0.608   2.160   3.979 -0.3150 -0.0986  0.3092
 4965TIP3    H136530   0.647   2.073   3.975 -1.5195 -0.6559  0.4259
 4965TIP3    H236531   0.519   2.146   4.010  0.2445  1.4300  2.9139
 4966TIP3   OH236532   4.254   0.423   1.250 -0.4973  0.0397 -0.3421
 4966TIP3    H136533   4.267   0.330   1.272 -2.7318 -0.3547 -0.4480
 4966TIP3    H236534   4.229   0.464   1.332  0.0002  0.4497 -0.3951
 4967TIP3   OH236535   0.826   3.413   2.299 -0.0063 -0.0956  0.4369
 4967TIP3    H136536   0.791   3.339   2.348 -3.7011  1.3205  0.2851
 4967TIP3    H236537   0.765   3.424   2.226  1.5362  1.9373 -0.6449
 4968TIP3   OH236538   1.862   5.311   0.091 -0.1971 -0.4306  0.2175
 4968TIP3    H136539   1.870   5.404   0.112 -3.3227 -0.2471  1.0154
 4968TIP3    H236540   1.785   5.305   0.035  2.1173 -2.1708 -3.1713
 4969TIP3   OH236541   0.417   6.323   1.528 -0.2799  0.1236  0.1392
 4969TIP3    H136542   0.388   6.408   1.494 -1.0790  0.4519  1.5523
 4969TIP3    H236543   0.376   6.316   1.614  1.7111 -0.6046  1.1061
 4970TIP3   OH236544   0.518   4.027   8.106 -0.3605 -0.3981 -0.1594
 4970TIP3    H136545   0.587   4.081   8.144  0.5674  0.7151 -3.1569
 4970TIP3    H236546   0.550   3.937   8.115  2.5880  0.1515 -3.1250
 4971TIP3   OH236547   3.909   5.824   1.568 -0.4565 -0.1029  0.4854
 4971TIP3    H136548   3.866   5.740   1.549 -1.0245  0.1310  0.7106
 4971TIP3    H236549   3.886   5.880   1.495  1.4755 -0.6779 -0.6450
 4972TIP3   OH236550   5.779   4.847   2.314 -0.2462 -0.1360 -0.5498
 4972TIP3    H136551   5.747   4.790   2.384  1.4557 -1.9771 -1.1523
 4972TIP3    H236552   5.706   4.853   2.253 -0.6528 -1.3202 -0.2117
 4973TIP3   OH236553   6.346   2.054   1.871  0.3861 -0.0280  0.5109
 4973TIP3    H136554   6.368   2.037   1.779  0.0681 -0.6310  0.5433
 4973TIP3    H236555   6.317   2.145   1.872  2.2895  0.6400  0.3649
 4974TIP3   OH236556   6.362   6.182   1.487  0.1821  0.2393 -0.1721
 4974TIP3    H136557   6.380   6.254   1.548 -0.5137 -1.5546  2.3122
 4974TIP3    H236558   6.272   6.156   1.506  0.6228 -1.7027 -0.4994
 4975TIP3   OH236559   0.535   5.783   0.411  0.7412 -0.2155 -0.3463
 4975TIP3    H136560   0.510   5.855   0.354  0.2181 -1.1032 -1.2554
 4975TIP3    H236561   0.473   5.788   0.484 -1.2351 -1.4487 -1.8177
 4976TIP3   OH236562   1.317   0.283   0.006  0.1194  0.1286  0.0969
 4976TIP3    H136563   1.382   0.301  -0.061 -0.2846  0.1563 -0.2926
 4976TIP3    H236564   1.237   0.324  -0.026 -0.2240 -0.3533  0.3140
 4977TIP3   OH236565   5.215   6.696   2.741 -0.2902  0.4346  0.4625
 4977TIP3    H136566   5.282   6.631   2.764  0.7060  0.6807 -1.4942
 4977TIP3    H236567   5.155   6.697   2.816 -0.0169 -2.2985  0.8079
 4978TIP3   OH236568   5.232   5.872   3.029 -0.8889 -0.4513  0.1946
 4978TIP3    H136569   5.246   5.815   2.954 -0.8976 -0.0136 -0.1440
 4978TIP3    H236570   5.137   5.874   3.040 -0.9065 -0.2500  0.0078
 4979TIP3   OH236571   0.548   4.735   4.198  0.1087  0.6203  0.3997
 4979TIP3    H136572   0.592   4.811   4.236  1.3370  0.0655  0.1349
 4979TIP3    H236573   0.618   4.684   4.158 -0.8849  0.0961 -0.7344
 4980TIP3   OH236574   2.492   5.368   2.512 -0.4378 -0.3492 -0.2328
 4980TIP3    H136575   2.459   5.278   2.521 -1.6193  0.1890  1.2871
 4980TIP3    H236576   2.420   5.415   2.470 -0.3416  0.1548  0.1595
 4981TIP3   OH236577   5.604   6.690   1.823 -0.1759 -0.3318  0.0877
 4981TIP3    H136578   5.552   6.755   1.777  1.2167 -0.6426 -2.0811
 4981TIP3    H236579   5.692   6.729   1.829  0.0387 -0.9348  1.1383
 4982TIP3   OH236580   4.244   2.944   8.699 -0.1057  0.2759  0.0999
 4982TIP3    H136581   4.313   3.005   8.676 -0.0771 -0.4266 -1.8236
 4982TIP3    H236582   4.225   2.896   8.618 -1.8727 -0.5159  0.9148
 4983TIP3   OH236583   0.619   2.365   2.956 -0.8373  0.8034 -0.1892
 4983TIP3    H136584   0.599   2.340   2.866 -1.7653  2.6722 -0.5511
 4983TIP3    H236585   0.536   2.398   2.991 -0.6708 -0.5422  1.6079
 4984TIP3   OH236586   1.949   6.671   8.067 -0.2302 -0.2055  0.2706
 4984TIP3    H136587   1.946   6.765   8.086 -0.5589 -0.3870  1.1510
 4984TIP3    H236588   2.041   6.647   8.075 -0.3390 -0.2630  1.6653
 4985TIP3   OH236589   1.967   0.745   0.337 -0.5432  0.2949 -0.3319
 4985TIP3    H136590   1.969   0.733   0.242 -0.1478  0.4209 -0.3429
 4985TIP3    H236591   1.886   0.792   0.354 -0.7772 -0.0203 -0.5722
 4986TIP3   OH236592   0.416   0.584   0.481 -0.1132  0.0123  0.1702
 4986TIP3    H136593   0.489   0.640   0.506  0.9175 -1.4750  0.6089
 4986TIP3    H236594   0.359   0.582   0.558 -0.0085  0.2107  0.2538
 4987TIP3   OH236595   6.643   3.440   2.280 -0.0461  0.0774  0.0232
 4987TIP3    H136596   6.710   3.480   2.335  0.6106  0.6416 -1.1316
 4987TIP3    H236597   6.568   3.499   2.288 -0.1832 -0.2066  0.8265
 4988TIP3   OH236598   2.370   6.786   8.610 -0.0555 -0.3724 -0.5411
 4988TIP3    H136599   2.371   6.861   8.669  0.1568 -2.1294  1.8020
 4988TIP3    H236600   2.331   6.715   8.661  0.7852 -2.1733 -2.2613
 4989TIP3   OH236601   3.246   0.058   2.632 -0.0427 -0.2988 -0.0900
 4989TIP3    H136602   3.160   0.064   2.675 -0.1733 -0.3539 -0.3441
 4989TIP3    H236603   3.258   0.144   2.592  1.3054  0.7600  2.3521
 4990TIP3   OH236604   6.659   3.823   2.541 -0.2466  0.0194  0.4489
 4990TIP3    H136605   6.564   3.824   2.532 -0.5454 -3.6121  1.6433
 4990TIP3    H236606   6.686   3.739   2.505  2.3046  0.1422  1.8216
 4991TIP3   OH236607   4.061   1.928   0.356 -0.2776  0.5086 -0.5154
 4991TIP3    H136608   4.038   1.896   0.268  1.2970  1.3923 -1.2936
 4991TIP3    H236609   4.049   2.023   0.351  0.4223  0.6322  0.0252
 4992TIP3   OH236610   4.607   3.603   2.498  0.0727  0.1165  0.6329
 4992TIP3    H136611   4.622   3.640   2.411  0.3871  0.5369  0.8627
 4992TIP3    H236612   4.621   3.509   2.486  0.9366  0.2624  0.3953
 4993TIP3   OH236613   0.690   3.756   3.039 -0.4946 -0.6447  0.3455
 4993TIP3    H136614   0.708   3.850   3.038 -0.7047 -0.5652  1.7859
 4993TIP3    H236615   0.772   3.715   3.014 -0.1767 -0.0983  0.4794
 4994TIP3   OH236616   2.662   3.313   0.918 -0.0746  0.2478  0.1598
 4994TIP3    H136617   2.684   3.332   0.826 -0.7716  0.1428 -0.0352
 4994TIP3    H236618   2.705   3.229   0.936 -3.0328 -1.7621 -1.2938
 4995TIP3   OH236619   0.171   5.856   0.456  1.2666  0.1878  0.3664
 4995TIP3    H136620   0.218   5.918   0.512 -2.3870  2.9754  0.7426
 4995TIP3    H236621   0.143   5.787   0.516  0.8347  1.0483  1.1935
 4996TIP3   OH236622   3.161   3.668   2.971 -0.3048 -0.0746  0.1781
 4996TIP3    H136623   3.178   3.758   2.998 -0.5449  0.0712 -0.1507
 4996TIP3    H236624   3.126   3.625   3.050  1.1959 -0.2861  0.7660
 4997TIP3   OH236625   6.468   1.185   2.930 -0.0368  0.5972  0.7237
 4997TIP3    H136626   6.431   1.225   2.852  0.6518 -0.5845 -0.2540
 4997TIP3    H236627   6.470   1.091   2.910  1.8039  0.4416  1.4085
 4998TIP3   OH236628   3.925   4.302   4.255 -0.4044 -0.8128  0.1756
 4998TIP3    H136629   4.000   4.246   4.234  0.2594 -0.9946  2.7605
 4998TIP3    H236630   3.938   4.380   4.201 -1.0946 -2.7817 -3.1783
 4999TIP3   OH236631   1.068   1.425   1.983  0.1212 -0.2761  0.1151
 4999TIP3    H136632   1.144   1.482   1.986  1.7808 -2.3904  1.6262
 4999TIP3    H236633   1.082   1.370   1.906 -0.8523  0.5269 -0.6557
 5000TIP3   OH236634   3.801   2.369   1.357  0.6929  0.0905 -0.2982
 5000TIP3    H136635   3.879   2.321   1.328  0.6346  0.3705 -0.9448
 5000TIP3    H236636   3.758   2.396   1.275  0.6620  1.1246  0.0464
 5001TIP3   OH236637   0.975   3.230   0.281  0.2262 -0.1630 -0.1614
 5001TIP3    H136638   0.915   3.234   0.207 -1.2276  0.8652  1.0265
 5001TIP3    H236639   0.978   3.320   0.314  1.8845 -0.3339  0.2447
 5002TIP3   OH236640   0.222   4.589   4.451 -0.0569  0.1200  0.4042
 5002TIP3    H136641   0.214   4.641   4.371 -0.6904 -1.0747 -0.3243
 5002TIP3    H236642   0.303   4.539   4.439 -0.6466 -0.7688  0.0808
 5003TIP3   OH236643   1.295   0.764   8.609 -0.3461 -0.0702 -0.2802
 5003TIP3    H136644   1.270   0.687   8.558  0.3003 -1.1885  1.0363
 5003TIP3    H236645   1.240   0.834   8.574 -0.8584 -1.0776 -1.6018
 5004TIP3   OH236646   3.079   5.416   1.017 -0.3211  0.2589 -0.2373
 5004TIP3    H136647   3.130   5.485   0.977  0.4890 -0.1343  0.0940
 5004TIP3    H236648   3.099   5.338   0.965 -1.5480  0.3437 -0.8671
 5005TIP3   OH236649   6.495   5.481   0.036 -0.2501  0.4150  0.3550
 5005TIP3    H136650   6.416   5.535   0.042 -0.0911  0.9060 -1.3429
 5005TIP3    H236651   6.520   5.486  -0.056  1.2137 -0.5290  0.6689
 5006TIP3   OH236652   0.258   1.704   0.309 -0.1320  0.4188 -0.5519
 5006TIP3    H136653   0.240   1.797   0.319  0.4165  0.5330 -0.5913
 5006TIP3    H236654   0.338   1.701   0.257 -0.9283 -0.0953 -1.7989
 5007TIP3   OH236655   3.444   6.775   0.145  0.3572  0.0852 -0.2239
 5007TIP3    H136656   3.413   6.856   0.105  0.3866  1.2313  1.9105
 5007TIP3    H236657   3.379   6.755   0.212  1.1720 -0.7877  0.3263
 5008TIP3   OH236658   0.936   2.830   3.201  0.1211  0.0628 -0.2197
 5008TIP3    H136659   1.019   2.850   3.159  0.3084  0.2368  0.2367
 5008TIP3    H236660   0.940   2.736   3.219  0.5879  0.2269  0.5976
 5009TIP3   OH236661   3.519   2.093   1.753 -0.3140  0.9279  0.4968
 5009TIP3    H136662   3.482   2.089   1.841 -0.1349 -0.5186  0.5285
 5009TIP3    H236663   3.481   2.172   1.714 -1.3235  0.9289  1.4596
 5010TIP3   OH236664   0.755   3.187   4.137  0.1934 -0.3086  0.2625
 5010TIP3    H136665   0.756   3.212   4.044 -0.5164  1.6882  0.7355
 5010TIP3    H236666   0.681   3.126   4.144 -0.7753  0.7621 -0.2420
 5011TIP3   OH236667   4.014   5.528   8.513  0.0347 -0.1070 -0.6399
 5011TIP3    H136668   4.015   5.568   8.427 -0.0578  1.0384 -0.1300
 5011TIP3    H236669   3.922   5.504   8.527 -0.0901  0.3826 -0.5767
 5012TIP3   OH236670   3.339   5.513   2.243  0.1364  0.1068 -0.2491
 5012TIP3    H136671   3.375   5.448   2.303  0.4252 -0.0185 -0.5533
 5012TIP3    H236672   3.388   5.593   2.262  0.5097 -0.0341 -0.5829
 5013TIP3   OH236673   5.012   0.927   8.719 -0.6748  0.0883  0.4164
 5013TIP3    H136674   5.029   1.019   8.699 -0.7287 -0.0138 -0.1057
 5013TIP3    H236675   4.996   0.886   8.634 -0.4195 -0.4534  0.6248
 5014TIP3   OH236676   1.003   3.547   4.334 -0.4156 -0.3932  0.0005
 5014TIP3    H136677   1.043   3.573   4.417  0.6812 -1.7137 -0.0846
 5014TIP3    H236678   1.042   3.605   4.269 -0.1682 -0.3418  0.1955
 5015TIP3   OH236679   6.213   1.165   3.750  0.0121 -0.2052 -0.3347
 5015TIP3    H136680   6.306   1.144   3.752  0.3213  1.1055 -0.1125
 5015TIP3    H236681   6.178   1.130   3.832  0.0185 -1.8789 -1.0153
 5016TIP3   OH236682   4.962   2.550   0.623  0.0940 -0.3978 -1.3791
 5016TIP3    H136683   5.006   2.479   0.575  1.7236  0.0005 -0.5604
 5016TIP3    H236684   5.019   2.567   0.698 -0.3178  1.6925 -1.4771
 5017TIP3   OH236685   4.530   2.773   0.309 -0.1548 -0.1589 -0.1035
 5017TIP3    H136686   4.587   2.840   0.347 -0.4178 -0.1428  0.2751
 5017TIP3    H236687   4.548   2.775   0.215 -0.5577  0.8303 -0.1687
 5018TIP3   OH236688   3.681   1.315   3.369 -0.4659 -0.7604  0.8422
 5018TIP3    H136689   3.632   1.296   3.448 -0.7248  3.3288  1.9141
 5018TIP3    H236690   3.615   1.342   3.306  0.0219  0.0017  0.6428
 5019TIP3   OH236691   0.630   3.320   2.044 -0.5359 -0.1029  0.2799
 5019TIP3    H136692   0.660   3.238   2.081 -0.7315  0.0148  0.7103
 5019TIP3    H236693   0.571   3.356   2.111 -2.6935 -0.9623 -1.0540
 5020TIP3   OH236694   2.562   0.681   1.830 -0.1173 -0.1435  0.7369
 5020TIP3    H136695   2.588   0.761   1.784  0.2156 -0.3341  0.5929
 5020TIP3    H236696   2.474   0.700   1.863 -1.4844 -0.9283 -2.1862
 5021TIP3   OH236697   1.591   5.698   3.530 -0.0187  0.2266 -0.9531
 5021TIP3    H136698   1.564   5.656   3.612  0.8972 -0.9272 -1.2165
 5021TIP3    H236699   1.519   5.681   3.469 -0.7267  1.1293 -0.4128
 5022TIP3   OH236700   5.199   1.107   1.472 -0.1595  0.4928  0.3919
 5022TIP3    H136701   5.264   1.127   1.539 -1.1443 -2.1056  2.2988
 5022TIP3    H236702   5.124   1.161   1.495 -0.1013  0.4291  0.7446
 5023TIP3   OH236703   1.531   3.655   4.147 -0.3006  0.4340 -0.1303
 5023TIP3    H136704   1.447   3.701   4.145  0.1025  1.1495 -0.5793
 5023TIP3    H236705   1.596   3.723   4.162  0.3945  0.1468 -1.6753
 5024TIP3   OH236706   1.939   5.011   1.562  0.1708 -0.6504 -0.8887
 5024TIP3    H136707   1.997   4.939   1.535  1.0411 -0.7351  0.9888
 5024TIP3    H236708   1.855   4.991   1.521  1.0916 -1.2806 -2.5684
 5025TIP3   OH236709   6.657   2.945   3.389  0.0863  0.5049  0.1955
 5025TIP3    H136710   6.608   2.868   3.362  0.0776  0.9299 -1.0704
 5025TIP3    H236711   6.735   2.911   3.432 -0.6091 -0.1861  0.9209
 5026TIP3   OH236712   6.615   5.304   1.014 -0.8053 -0.3774  0.7726
 5026TIP3    H136713   6.601   5.265   1.101 -1.2591 -1.3690  0.2783
 5026TIP3    H236714   6.576   5.391   1.020 -0.1726 -0.1441  1.7833
 5027TIP3   OH236715   4.178   5.535   2.496  0.0427 -0.1428  0.1445
 5027TIP3    H136716   4.157   5.485   2.417  1.1333 -0.3553 -0.0294
 5027TIP3    H236717   4.231   5.609   2.464  0.5197 -0.2498  0.6736
 5028TIP3   OH236718   3.282   3.073   0.045  0.1362  0.4089  0.4732
 5028TIP3    H136719   3.264   3.161   0.010 -2.0929 -1.0479 -2.5240
 5028TIP3    H236720   3.377   3.073   0.060  1.1160  2.0002 -3.9879
 5029TIP3   OH236721   5.201   3.254   0.122 -0.1028  0.7619 -0.0998
 5029TIP3    H136722   5.129   3.296   0.168  0.9984  1.1579  1.3508
 5029TIP3    H236723   5.206   3.166   0.160 -0.7656  0.1921 -1.2833
 5030TIP3   OH236724   1.884   2.994   4.094 -0.0156  0.2530 -0.0712
 5030TIP3    H136725   1.887   3.058   4.165  1.1871  0.8509 -0.6270
 5030TIP3    H236726   1.843   2.917   4.133  0.5528  0.5914  1.2579
 5031TIP3   OH236727   4.502   4.120   1.960 -0.4201  0.0184 -0.5304
 5031TIP3    H136728   4.411   4.098   1.981 -0.8446  1.1531 -1.1097
 5031TIP3    H236729   4.543   4.137   2.045 -0.5924 -1.0171 -0.2255
 5032TIP3   OH236730   0.313   1.302   2.067 -0.2182  0.4017  0.4898
 5032TIP3    H136731   0.226   1.262   2.074  0.3805 -0.9859  0.4039
 5032TIP3    H236732   0.374   1.228   2.070  1.0503  1.4112  2.0189
 5033TIP3   OH236733   5.030   6.204   0.751 -0.1930  0.2721 -0.1547
 5033TIP3    H136734   5.075   6.132   0.796 -1.5134  0.1649  1.0936
 5033TIP3    H236735   5.094   6.275   0.749 -0.5838  0.9619  3.7280
 5034TIP3   OH236736   0.993   5.642   0.691  0.2647  0.5496  0.4630
 5034TIP3    H136737   1.034   5.559   0.715 -3.1426 -1.4054  0.2119
 5034TIP3    H236738   1.054   5.682   0.629  1.5159 -2.3885 -0.3922
 5035TIP3   OH236739   3.292   2.233   3.089 -0.5220 -0.4848  0.3952
 5035TIP3    H136740   3.234   2.308   3.078  1.1273  0.9274  0.9648
 5035TIP3    H236741   3.271   2.199   3.176 -1.8926 -1.2757 -0.2180
 5036TIP3   OH236742   3.545   5.688   1.925  0.2149 -0.2799  0.5697
 5036TIP3    H136743   3.506   5.709   1.840 -1.2500 -0.1923  1.2292
 5036TIP3    H236744   3.638   5.708   1.915 -0.1766  1.1291 -0.5593
 5037TIP3   OH236745   3.788   3.345   2.045  0.0593 -0.1659 -0.1555
 5037TIP3    H136746   3.698   3.363   2.075  0.3786 -2.0646  2.1582
 5037TIP3    H236747   3.783   3.258   2.005  1.0618 -0.7469  0.9553
 5038TIP3   OH236748   2.027   3.708   1.196 -0.1982  0.2450  0.0807
 5038TIP3    H136749   2.075   3.639   1.242  1.1096  1.2752  0.3131
 5038TIP3    H236750   1.953   3.728   1.253 -0.6825 -1.0468 -0.0598
 5039TIP3   OH236751   2.891   4.614   3.126 -0.0805 -0.2273  0.8171
 5039TIP3    H136752   2.913   4.645   3.038 -1.4552  1.9285  1.1444
 5039TIP3    H236753   2.975   4.601   3.169  0.6014 -0.2987 -0.4965
 5040TIP3   OH236754   3.505   1.620   0.047 -0.2458  0.4060  0.2366
 5040TIP3    H136755   3.482   1.636  -0.044 -1.4858  0.7904  0.5960
 5040TIP3    H236756   3.548   1.535   0.047  0.1904  0.6121 -0.7571
 5041TIP3   OH236757   0.325   5.477   2.509  0.2186  0.1488 -0.3517
 5041TIP3    H136758   0.244   5.508   2.550 -0.2113 -0.9902 -0.2888
 5041TIP3    H236759   0.372   5.432   2.579 -0.2472 -1.2967 -0.9196
 5042TIP3   OH236760   3.954   6.477   0.822 -0.3092 -0.2780  0.0066
 5042TIP3    H136761   3.946   6.527   0.903 -2.9285  0.7838 -0.7956
 5042TIP3    H236762   4.044   6.491   0.793  0.9721 -1.3519  3.0727
 5043TIP3   OH236763   0.207   2.175   3.724 -1.1879  0.4887  0.3023
 5043TIP3    H136764   0.153   2.224   3.663 -0.1979 -1.8265 -2.6784
 5043TIP3    H236765   0.285   2.151   3.674  0.0695 -0.9788  2.7186
 5044TIP3   OH236766   0.115   6.635   1.225  1.0579  0.2620  0.0486
 5044TIP3    H136767   0.186   6.634   1.161  0.1709  0.5508 -0.9917
 5044TIP3    H236768   0.073   6.721   1.212 -0.9729 -0.8137 -1.1237
 5045TIP3   OH236769   6.070   0.964   1.073 -0.3132 -0.0504 -0.0821
 5045TIP3    H136770   6.000   0.963   1.009  1.3813 -2.8851 -2.1159
 5045TIP3    H236771   6.125   1.038   1.048 -0.2222 -0.5126 -1.2996
 5046TIP3   OH236772   5.191   2.257   2.358  0.4803  0.1810  0.2655
 5046TIP3    H136773   5.236   2.210   2.429  1.1480  0.2829 -0.0774
 5046TIP3    H236774   5.262   2.286   2.300  0.0003  0.8081 -0.0138
 5047TIP3   OH236775   6.099   1.490   0.537 -0.5852 -0.0340  0.3008
 5047TIP3    H136776   6.053   1.557   0.487  0.1329  0.0987 -0.1896
 5047TIP3    H236777   6.190   1.519   0.538 -0.3492 -0.7682  0.4721
 5048TIP3   OH236778   3.974   3.261   2.660 -0.4831  0.4691  0.1769
 5048TIP3    H136779   3.943   3.334   2.714 -0.1218  0.1543  0.8090
 5048TIP3    H236780   3.899   3.238   2.605 -0.7144  1.0718  0.2333
 5049TIP3   OH236781   0.165   2.892   2.381  0.5082  0.0679  0.2050
 5049TIP3    H136782   0.141   2.961   2.319 -1.1203 -0.1575  0.5374
 5049TIP3    H236783   0.127   2.920   2.464  0.8216 -0.6858  0.6153
 5050TIP3   OH236784   0.971   4.967   1.275  0.0491  0.5888  0.2202
 5050TIP3    H136785   0.939   4.901   1.213  2.1128 -0.3264  0.0431
 5050TIP3    H236786   0.939   5.050   1.240  0.0767 -0.0313 -1.3582
 5051TIP3   OH236787   5.498   6.358   0.983 -0.2510 -0.3308  0.7100
 5051TIP3    H136788   5.554   6.363   1.060  0.4721  1.4049  0.1260
 5051TIP3    H236789   5.486   6.449   0.956 -2.2869 -0.7400  0.0263
 5052TIP3   OH236790   3.243   3.198   2.278  0.1946 -0.0949  0.4122
 5052TIP3    H136791   3.156   3.239   2.278  0.2610  0.0436  0.4907
 5052TIP3    H236792   3.231   3.118   2.226 -0.2133 -0.5734  1.2216
 5053TIP3   OH236793   2.971   0.067   1.840 -0.1080 -0.2218  0.2524
 5053TIP3    H136794   2.907  -0.003   1.849  0.5904 -0.6906  1.8781
 5053TIP3    H236795   2.968   0.115   1.923  1.9606 -0.5708  0.5962
 5054TIP3   OH236796   4.684   6.375   2.989 -0.1471  0.0530  0.0374
 5054TIP3    H136797   4.618   6.307   2.975 -0.2843  0.5147 -1.8344
 5054TIP3    H236798   4.767   6.332   2.965 -0.2547  0.5470 -1.3211
 5055TIP3   OH236799   0.468   3.209   1.768 -0.4850  0.1922  0.3200
 5055TIP3    H136800   0.460   3.248   1.681 -1.2471 -0.5635  0.0448
 5055TIP3    H236801   0.461   3.283   1.828 -1.7499  0.5175 -0.1985
 5056TIP3   OH236802   4.913   5.133   8.374 -0.2727 -0.1206  0.1398
 5056TIP3    H136803   4.845   5.189   8.336 -0.0585 -0.1323 -0.2577
 5056TIP3    H236804   4.894   5.046   8.340  0.2985 -0.0167 -0.4505
 5057TIP3   OH236805   2.188   3.549   0.481 -0.1795 -0.0928 -0.1508
 5057TIP3    H136806   2.188   3.479   0.416  0.0466 -0.4227  0.2019
 5057TIP3    H236807   2.106   3.538   0.529 -1.5120  1.5810 -1.8866
 5058TIP3   OH236808   3.702   3.599   8.647  0.1977  0.1120  0.1343
 5058TIP3    H136809   3.682   3.549   8.727 -1.4882 -0.2338 -0.4411
 5058TIP3    H236810   3.769   3.548   8.603 -0.8627 -1.2383  0.0004
 5059TIP3   OH236811   5.323   3.822   8.320  0.2313 -0.0131 -0.7558
 5059TIP3    H136812   5.306   3.909   8.285 -0.5822  0.4609  0.7436
 5059TIP3    H236813   5.283   3.762   8.257  0.8434  0.6750 -1.8214
 5060TIP3   OH236814   3.575   4.317   0.023 -0.3256  0.2393 -0.2162
 5060TIP3    H136815   3.531   4.359  -0.051 -1.9431 -0.3915  0.3384
 5060TIP3    H236816   3.625   4.246  -0.016  0.9756  1.5142 -0.9615
 5061TIP3   OH236817   2.759   3.497   3.370 -0.0648  0.1865 -0.4905
 5061TIP3    H136818   2.729   3.587   3.370  0.3335  0.3225 -0.3630
 5061TIP3    H236819   2.821   3.492   3.297 -0.7038 -0.1981 -1.0138
 5062TIP3   OH236820   2.505   4.237   3.900 -0.2189  0.5509 -0.1183
 5062TIP3    H136821   2.458   4.234   3.983 -1.3072  2.2209 -0.6082
 5062TIP3    H236822   2.597   4.246   3.925 -0.5853  1.6974  0.9493
 5063TIP3   OH236823   1.257   4.949   1.293 -0.5605 -0.0994  0.2202
 5063TIP3    H136824   1.163   4.949   1.277 -0.5550 -2.1206 -0.0489
 5063TIP3    H236825   1.295   4.918   1.210  0.2799 -0.1607  0.6186
 5064TIP3   OH236826   3.926   1.926   2.989  0.1996 -0.2420 -0.1275
 5064TIP3    H136827   3.956   1.855   2.932 -0.8668  0.3789 -1.5092
 5064TIP3    H236828   3.849   1.891   3.033  0.3209 -0.3021  0.0420
 5065TIP3   OH236829   0.868   0.195   2.292  0.6866  0.0773 -0.2294
 5065TIP3    H136830   0.878   0.121   2.352 -0.1678  0.3737  0.3019
 5065TIP3    H236831   0.825   0.158   2.215  1.3494 -0.2114 -0.4629
 5066TIP3   OH236832   0.000   6.495   0.483  0.7358  0.7606 -0.2717
 5066TIP3    H136833   0.036   6.584   0.487  0.5226  0.8056  2.0158
 5066TIP3    H236834  -0.047   6.484   0.566  1.4630 -1.7689 -0.1000
 5067TIP3   OH236835   0.241   4.660   8.796  0.2041  0.2224 -0.1781
 5067TIP3    H136836   0.326   4.618   8.783 -0.5095 -0.8418 -1.6743
 5067TIP3    H236837   0.248   4.703   8.881  1.6564 -1.2807  0.5177
 5068TIP3   OH236838   6.211   0.911   2.203  0.5711  0.6267 -0.6271
 5068TIP3    H136839   6.179   0.965   2.275  3.1412  0.3529  0.8629
 5068TIP3    H236840   6.193   0.821   2.230  0.2664  0.5685 -1.0116
 5069TIP3   OH236841   4.337   5.983   1.978  0.3284  0.2663  0.2482
 5069TIP3    H136842   4.365   6.022   1.895 -0.2088  0.4485  0.1441
 5069TIP3    H236843   4.406   5.920   2.000 -0.3205 -1.0250 -1.1933
 5070TIP3   OH236844   0.138   1.700   2.216  0.1144 -0.1250 -0.3009
 5070TIP3    H136845   0.112   1.613   2.186 -0.3272  0.2613 -1.0691
 5070TIP3    H236846   0.204   1.684   2.283 -0.9221 -1.0811  0.5095
 5071TIP3   OH236847   3.773   6.503   2.120  0.1005 -0.2313  0.6028
 5071TIP3    H136848   3.765   6.550   2.203  0.7804 -0.6831  0.9320
 5071TIP3    H236849   3.836   6.433   2.138  0.2067 -0.3735 -0.2780
 5072TIP3   OH236850   0.844   3.170   3.120  0.3620 -0.0742  0.0324
 5072TIP3    H136851   0.799   3.255   3.119  2.1980  0.9655  0.9209
 5072TIP3    H236852   0.827   3.133   3.033 -3.2100 -0.3619  0.7214
 5073TIP3   OH236853   5.986   1.268   2.936  0.3808  0.2666  0.4541
 5073TIP3    H136854   5.962   1.337   2.998  0.3460  1.5232 -0.9002
 5073TIP3    H236855   5.936   1.192   2.965  0.9399  0.5675  2.4030
 5074TIP3   OH236856   0.697   0.424   8.441  0.2105 -0.2456  0.1744
 5074TIP3    H136857   0.730   0.342   8.406  1.4727 -0.6259  2.1380
 5074TIP3    H236858   0.728   0.491   8.380 -1.2654 -1.1926 -1.7292
 5075TIP3   OH236859   5.775   1.448   0.244  0.0116 -0.5131 -0.3284
 5075TIP3    H136860   5.852   1.505   0.240  0.3147 -0.5936  2.4545
 5075TIP3    H236861   5.799   1.373   0.191  1.0830  0.3247 -1.0765
 5076TIP3   OH236862   1.148   2.118   2.590 -0.2669 -0.3234  0.4309
 5076TIP3    H136863   1.099   2.194   2.559 -0.3898 -0.7520 -0.4423
 5076TIP3    H236864   1.177   2.144   2.677 -1.5761  0.1571  0.7618
 5077TIP3   OH236865   4.693   1.178   1.208 -1.2547 -0.0989  0.2854
 5077TIP3    H136866   4.662   1.213   1.125  0.4146  2.0923  0.4764
 5077TIP3    H236867   4.751   1.106   1.185  1.2465  2.0818 -0.7401
 5078TIP3   OH236868   1.179   6.355   2.024  0.6201  0.0140  0.4315
 5078TIP3    H136869   1.264   6.394   2.004  0.5858  1.3596  2.5880
 5078TIP3    H236870   1.121   6.430   2.037 -0.8150 -0.8860 -0.5573
 5079TIP3   OH236871   4.023   5.723   2.888 -0.1907 -0.4800 -0.2626
 5079TIP3    H136872   4.011   5.810   2.849  1.1998 -0.3489 -0.4617
 5079TIP3    H236873   3.951   5.714   2.951  0.6427  1.5736  1.0882
 5080TIP3   OH236874   1.414   0.392   1.743 -0.1451 -0.2211 -0.1398
 5080TIP3    H136875   1.483   0.435   1.794  0.3454 -1.7993  0.6093
 5080TIP3    H236876   1.457   0.316   1.704 -1.3843 -1.0701  0.0808
 5081TIP3   OH236877   1.352   5.515   2.940  0.0834  0.5827  0.2597
 5081TIP3    H136878   1.281   5.578   2.949 -0.7820 -0.6296  3.4895
 5081TIP3    H236879   1.410   5.552   2.874 -2.6383  2.4715 -1.2466
 5082TIP3   OH236880   3.007   3.544   2.735 -0.7622  0.1081 -0.0592
 5082TIP3    H136881   3.091   3.538   2.690 -0.5532 -1.1998  0.4391
 5082TIP3    H236882   3.030   3.571   2.824 -0.9293  0.3181 -0.0803
 5083TIP3   OH236883   0.962   6.525   2.101 -0.1975  0.0529 -0.1277
 5083TIP3    H136884   0.926   6.508   2.188 -0.2586 -1.5842 -0.4379
 5083TIP3    H236885   0.988   6.617   2.103 -1.2358  0.3476  1.2383
 5084TIP3   OH236886   0.206   3.990   2.882  0.2925 -0.1313 -0.1061
 5084TIP3    H136887   0.116   4.014   2.902  0.2166 -0.9961  0.6635
 5084TIP3    H236888   0.202   3.947   2.797  0.1558  0.8410 -0.6005
 5085TIP3   OH236889   0.337   1.983   1.871  0.2606  0.3524 -0.0344
 5085TIP3    H136890   0.366   2.066   1.834  0.1778  0.3845 -0.0277
 5085TIP3    H236891   0.313   1.930   1.795 -0.7019  0.7131  0.0075
 5086TIP3   OH236892   2.272   5.277   0.388  1.0455 -0.6343  0.2258
 5086TIP3    H136893   2.178   5.275   0.368  1.4524 -0.0662 -2.0426
 5086TIP3    H236894   2.295   5.186   0.405  0.1996 -0.8566  0.2465
 5087TIP3   OH236895   3.816   4.532   8.837  0.1705 -1.1038  0.0924
 5087TIP3    H136896   3.899   4.527   8.789  1.1190 -3.3183  1.8180
 5087TIP3    H236897   3.765   4.458   8.805 -1.3802  0.4203 -1.1943
 5088TIP3   OH236898   2.200   5.313   8.708 -0.0278 -0.2481 -0.2147
 5088TIP3    H136899   2.213   5.347   8.619 -1.6593  0.9672 -0.0307
 5088TIP3    H236900   2.154   5.230   8.694 -1.4180  0.5330 -0.5175
 5089TIP3   OH236901   0.056   4.372   0.768 -0.1767 -0.7129  0.1323
 5089TIP3    H136902   0.108   4.407   0.696 -0.1784 -1.1365 -0.0781
 5089TIP3    H236903   0.001   4.445   0.796 -1.3594 -0.9777 -1.3675
 5090TIP3   OH236904   5.985   5.023   1.008 -0.0368 -0.6088 -0.0767
 5090TIP3    H136905   6.013   5.064   0.926 -1.7258 -1.7112 -1.2968
 5090TIP3    H236906   5.899   5.062   1.026 -0.4635 -1.6352  0.1861
 5091TIP3   OH236907   2.095   5.808   2.044  0.3920 -0.3378  0.2517
 5091TIP3    H136908   2.059   5.896   2.042 -1.1185 -0.9079  0.9815
 5091TIP3    H236909   2.188   5.819   2.023  1.1484  1.8657  3.9549
 5092TIP3   OH236910   6.091   5.663   8.078  0.3771 -0.1011  0.3936
 5092TIP3    H136911   6.053   5.575   8.076  0.0658  0.0215  0.8864
 5092TIP3    H236912   6.024   5.718   8.037 -0.3938  0.2674  2.0905
 5093TIP3   OH236913   2.011   0.021   1.062  0.0617  0.2542 -0.8105
 5093TIP3    H136914   1.934   0.054   1.107  0.6291 -0.4693  0.7325
 5093TIP3    H236915   2.084   0.072   1.098  0.3731  0.7067 -2.0124
 5094TIP3   OH236916   5.329   3.296   2.328  0.2673 -0.0245 -0.0234
 5094TIP3    H136917   5.236   3.300   2.307  0.4954 -1.3514 -1.4725
 5094TIP3    H236918   5.332   3.301   2.424 -1.2724  0.1961  0.0432
 5095TIP3   OH236919   1.191   0.117   8.215  0.6335 -0.3672  0.0705
 5095TIP3    H136920   1.187   0.132   8.121  0.7526 -0.9670 -0.0368
 5095TIP3    H236921   1.121   0.171   8.252  3.1289  3.2084  0.0967
 5096TIP3   OH236922   2.873   4.493   3.639  0.6654  0.0704  0.0060
 5096TIP3    H136923   2.807   4.562   3.638  2.5733  1.9735 -0.1452
 5096TIP3    H236924   2.936   4.520   3.706  1.5569 -1.4674 -0.1507
 5097TIP3   OH236925   3.526   0.686   4.098 -0.2444 -0.4465  0.0139
 5097TIP3    H136926   3.593   0.644   4.043 -1.2531 -0.9472 -0.8611
 5097TIP3    H236927   3.443   0.651   4.065 -1.0546  1.4416 -0.0541
 5098TIP3   OH236928   0.261   1.522   0.043 -1.0257  0.3046  0.6348
 5098TIP3    H136929   0.268   1.606   0.089  0.9047  1.2595 -1.2415
 5098TIP3    H236930   0.348   1.507   0.007 -1.4324 -2.3693  0.5971
 5099TIP3   OH236931   2.118   0.728   8.638 -0.1276  0.1041  0.0361
 5099TIP3    H136932   2.062   0.650   8.637 -0.1793  0.1414  0.0036
 5099TIP3    H236933   2.171   0.721   8.559 -0.2362  0.1777 -0.0418
 5100TIP3   OH236934   6.824   2.818   3.041 -0.5613 -0.2361 -0.0622
 5100TIP3    H136935   6.754   2.772   3.087  0.0948 -0.5373  0.6413
 5100TIP3    H236936   6.820   2.907   3.075  0.1682 -0.5509  0.8769
 5101TIP3   OH236937   5.656   1.671   0.674  0.4729 -0.7247 -0.9667
 5101TIP3    H136938   5.589   1.716   0.725 -0.1952 -2.7140 -0.0204
 5101TIP3    H236939   5.638   1.695   0.583  0.3392  1.1094 -0.4972
 5102TIP3   OH236940   1.101   2.791   4.133  0.5073  0.1327 -0.2068
 5102TIP3    H136941   1.180   2.754   4.173 -0.3205 -1.6069 -0.0846
 5102TIP3    H236942   1.089   2.875   4.177  2.8905  0.9685 -1.0183
 5103TIP3   OH236943   5.645   6.069   1.751  0.4091  0.0957 -0.3052
 5103TIP3    H136944   5.653   6.164   1.752  0.4883  0.0921 -0.4876
 5103TIP3    H236945   5.551   6.052   1.761  0.6266  0.1262  2.7012
 5104TIP3   OH236946   4.588   2.993   1.822 -0.4020 -0.5233 -0.2116
 5104TIP3    H136947   4.566   2.903   1.796  0.9915 -1.3894  1.3308
 5104TIP3    H236948   4.541   3.005   1.905  1.0222 -0.6304  0.6428
 5105TIP3   OH236949   5.438   6.427   0.607 -0.3523 -0.5307  0.3260
 5105TIP3    H136950   5.522   6.441   0.649 -0.3022 -2.6280  1.0207
 5105TIP3    H236951   5.454   6.359   0.542 -1.7462 -2.0709  1.4986
 5106TIP3   OH236952   6.342   1.570   7.762 -0.5273 -0.8452 -0.2024
 5106TIP3    H136953   6.322   1.510   7.690  1.9730 -2.0325 -0.0144
 5106TIP3    H236954   6.286   1.542   7.834 -0.5347 -1.9306 -0.6260
 5107TIP3   OH236955   2.841   0.147   0.584 -0.0655  0.0151  0.2956
 5107TIP3    H136956   2.898   0.094   0.639  0.4285  0.1930 -0.0371
 5107TIP3    H236957   2.892   0.163   0.504 -1.5847 -2.1714 -1.2576
 5108TIP3   OH236958   5.998   5.255   0.656 -0.6066  0.0402  0.5859
 5108TIP3    H136959   6.093   5.258   0.646 -0.4798 -2.7566  0.3599
 5108TIP3    H236960   5.963   5.253   0.567 -0.7674 -0.6061  0.6562
 5109TIP3   OH236961   0.257   3.063   0.068 -0.1545 -0.0767 -0.1085
 5109TIP3    H136962   0.182   3.112   0.102  0.4490  0.3183  0.6724
 5109TIP3    H236963   0.259   3.087  -0.025 -0.7516  0.2259 -0.0532
 5110TIP3   OH236964   4.776   6.683   2.525  0.0107  0.4153 -0.4752
 5110TIP3    H136965   4.804   6.632   2.600 -0.0018 -0.7586 -1.2338
 5110TIP3    H236966   4.856   6.721   2.490 -0.0954  1.7168  0.6375
 5111TIP3   OH236967   3.542   3.592   1.971  0.2134 -0.5049  0.3628
 5111TIP3    H136968   3.507   3.622   2.054  1.0635  0.8184  0.2732
 5111TIP3    H236969   3.490   3.638   1.905  0.5903 -0.3041  0.2005
 5112TIP3   OH236970   1.967   3.812   8.263  0.2432  0.6812  0.0472
 5112TIP3    H136971   1.926   3.841   8.345 -0.6594  1.1641 -0.5634
 5112TIP3    H236972   1.901   3.828   8.196 -0.0657 -2.1844 -0.4418
 5113TIP3   OH236973   5.990   6.772   2.968 -0.1668  0.1869  0.4938
 5113TIP3    H136974   5.918   6.761   3.030  0.4640 -1.2374  1.0337
 5113TIP3    H236975   6.065   6.731   3.013  0.7190  0.7121 -0.4817
 5114TIP3   OH236976   5.228   3.691   3.256  0.1847 -0.0981  0.3123
 5114TIP3    H136977   5.324   3.692   3.256  0.2018 -0.7113  1.2351
 5114TIP3    H236978   5.205   3.620   3.316 -0.8518 -0.5137 -0.5426
 5115TIP3   OH236979   0.994   1.477   1.415  0.6711  0.1190 -0.2433
 5115TIP3    H136980   0.934   1.479   1.489  3.2999  1.6337  2.0764
 5115TIP3    H236981   0.969   1.552   1.361 -0.6413 -0.3855 -0.3583
 5116TIP3   OH236982   2.425   0.137   2.165 -0.6448 -0.2344 -0.1609
 5116TIP3    H136983   2.504   0.115   2.116 -0.7146  2.1878 -1.5166
 5116TIP3    H236984   2.451   0.211   2.220 -0.9416 -2.0208  2.5797
 5117TIP3   OH236985   1.650   5.157   3.676  0.6243 -0.1669 -0.0376
 5117TIP3    H136986   1.693   5.178   3.593  1.2902 -1.2878  0.0110
 5117TIP3    H236987   1.711   5.187   3.743  0.4938 -0.0766  0.0410
 5118TIP3   OH236988   2.697   0.917   0.848 -0.0508  0.1045 -0.5325
 5118TIP3    H136989   2.775   0.972   0.845  0.8815 -1.1105  0.1272
 5118TIP3    H236990   2.679   0.896   0.756  0.7983 -0.1161 -0.6602
 5119TIP3   OH236991   6.805   4.688   2.474  0.6123  0.0105 -0.0694
 5119TIP3    H136992   6.881   4.710   2.529  2.8374 -0.5259 -2.7071
 5119TIP3    H236993   6.788   4.768   2.424  0.0398 -0.1766 -0.1751
 5120TIP3   OH236994   0.194   0.685   3.521 -0.7559 -0.1193  0.1144
 5120TIP3    H136995   0.240   0.609   3.556  1.2467  0.4431 -1.0937
 5120TIP3    H236996   0.244   0.760   3.555 -0.8990  0.5253 -1.0543
 5121TIP3   OH236997   3.409   0.768   0.489  0.3302 -1.0576 -0.3353
 5121TIP3    H136998   3.415   0.843   0.548  0.5105 -1.4752  0.1950
 5121TIP3    H236999   3.421   0.804   0.402  1.0133 -0.5540 -0.0391
 5122TIP3   OH237000   6.008   5.469   0.286 -0.2171 -0.7224  0.2981
 5122TIP3    H137001   6.053   5.452   0.204  2.4287 -1.9131  1.8451
 5122TIP3    H237002   6.050   5.547   0.321 -2.0127  0.3780  0.1165
 5123TIP3   OH237003   5.646   1.165   2.923 -0.5705  0.1025 -0.2231
 5123TIP3    H137004   5.579   1.193   2.986  0.1186  2.1391 -0.3285
 5123TIP3    H237005   5.710   1.117   2.975 -2.5419 -2.8064 -0.2813
 5124TIP3   OH237006   5.405   6.100   3.105 -0.3816 -0.1356  0.1452
 5124TIP3    H137007   5.356   6.019   3.091 -2.1604  0.6049  1.6419
 5124TIP3    H237008   5.454   6.113   3.024  0.0514 -2.7502 -0.0878
 5125TIP3   OH237009   2.750   5.038   1.302 -0.5643  0.2630 -0.4008
 5125TIP3    H137010   2.729   5.129   1.325 -0.3249  0.0751  0.5989
 5125TIP3    H237011   2.798   5.005   1.378  1.3463 -0.0059 -1.6491
 5126TIP3   OH237012   3.950   4.650   3.474  0.2049 -0.1559  0.2675
 5126TIP3    H137013   3.879   4.599   3.436  0.9695 -1.8157  0.9949
 5126TIP3    H237014   4.016   4.655   3.404 -1.5244  3.6668 -1.4275
 5127TIP3   OH237015   1.494   5.188   8.802 -0.3598  0.2574 -0.2639
 5127TIP3    H137016   1.549   5.262   8.777 -0.3655  0.8324  1.2815
 5127TIP3    H237017   1.502   5.125   8.730  0.6386  1.2269 -1.0182
 5128TIP3   OH237018   5.855   6.275   2.606 -0.0434 -0.1110 -0.0239
 5128TIP3    H137019   5.767   6.240   2.596  0.3764 -1.8173  1.6303
 5128TIP3    H237020   5.912   6.209   2.567  0.6611 -0.5098  1.5886
 5129TIP3   OH237021   4.121   2.220   1.644 -0.5664  0.1156 -0.0478
 5129TIP3    H137022   4.099   2.253   1.731  2.4562 -1.6361  1.5651
 5129TIP3    H237023   4.155   2.297   1.597  1.2157  0.4765  1.6865
 5130TIP3   OH237024   2.359   0.461   0.988 -0.1074 -0.5036 -0.4588
 5130TIP3    H137025   2.408   0.456   1.070 -1.5514  0.1155  0.4794
 5130TIP3    H237026   2.396   0.536   0.942  0.5310 -0.6888 -0.2620
 5131TIP3   OH237027   5.821   1.803   8.418  0.3828 -0.6170 -0.1125
 5131TIP3    H137028   5.898   1.748   8.406 -1.2173 -2.8291 -0.9959
 5131TIP3    H237029   5.748   1.750   8.385 -1.6674  0.9696  1.5543
 5132TIP3   OH237030   1.073   6.636   0.356 -0.0097  0.1818  0.2280
 5132TIP3    H137031   1.026   6.629   0.273  0.0013  1.4826  0.1051
 5132TIP3    H237032   1.004   6.650   0.421  0.0742  0.2590  0.2986
 5133TIP3   OH237033   6.169   1.815   2.001  0.5430  0.7259  0.2764
 5133TIP3    H137034   6.256   1.821   1.962 -0.1831 -0.9633 -1.8356
 5133TIP3    H237035   6.132   1.903   1.992  0.7287  0.6106 -2.2443
 5134TIP3   OH237036   4.946   2.016   1.010  0.0747  0.0774 -0.0339
 5134TIP3    H137037   4.896   2.042   1.087  2.2044  1.5839  0.9624
 5134TIP3    H237038   4.913   2.072   0.940 -0.2589  0.3957  0.3745
 5135TIP3   OH237039   2.996   5.839   2.205  0.3483 -0.4715  0.2966
 5135TIP3    H137040   2.945   5.849   2.125  0.1326 -2.4497  0.1397
 5135TIP3    H237041   3.003   5.927   2.240 -0.6430  0.2532 -1.2293
 5136TIP3   OH237042   3.614   4.682   3.182  0.4335 -0.7908 -0.8240
 5136TIP3    H137043   3.566   4.765   3.181 -0.4395 -1.2436  0.7775
 5136TIP3    H237044   3.661   4.681   3.098  0.3334  1.2262 -0.9572
 5137TIP3   OH237045   5.001   2.382   1.610 -0.8643 -0.4091  0.9049
 5137TIP3    H137046   4.997   2.437   1.689  0.8952 -1.4441  1.7885
 5137TIP3    H237047   4.916   2.338   1.607 -0.6984 -0.9136  2.6695
 5138TIP3   OH237048   1.000   2.797   2.814 -0.3267 -0.3836 -0.4088
 5138TIP3    H137049   0.971   2.731   2.750 -0.5579 -1.2621  0.5855
 5138TIP3    H237050   0.936   2.867   2.806 -1.4841 -1.3392  0.2064
 5139TIP3   OH237051   0.208   3.349   0.167  0.2516 -0.4504 -0.1162
 5139TIP3    H137052   0.262   3.355   0.246 -0.5073 -1.1608  0.4736
 5139TIP3    H237053   0.119   3.361   0.198  0.1045  1.5903 -1.2019
 5140TIP3   OH237054   3.111   4.761   3.490 -0.1857 -0.1782  0.0201
 5140TIP3    H137055   3.171   4.690   3.466 -0.6777 -1.5352  2.4329
 5140TIP3    H237056   3.141   4.789   3.577 -1.5938  0.7568  0.2423
 5141TIP3   OH237057   2.033   5.044   3.503 -0.0795  0.3727 -0.1794
 5141TIP3    H137058   2.021   5.094   3.584 -1.7446  1.0124 -0.7771
 5141TIP3    H237059   2.024   5.109   3.433  1.0038 -0.2297 -0.9013
 5142TIP3   OH237060   1.643   1.357   0.539 -0.1597  0.3884 -0.5467
 5142TIP3    H137061   1.675   1.443   0.514  1.3301 -0.4084 -1.5079
 5142TIP3    H237062   1.567   1.375   0.594 -0.2872  2.2933 -1.2760
 5143TIP3   OH237063   6.724   1.095   0.310  0.2057  0.3660  0.1484
 5143TIP3    H137064   6.791   1.164   0.316  1.0698 -0.2357 -1.7214
 5143TIP3    H237065   6.641   1.142   0.307  0.5698  1.1725  1.6093
 5144TIP3   OH237066   0.247   6.348   2.434  0.5233 -0.2559  0.3823
 5144TIP3    H137067   0.171   6.323   2.488  0.9758 -0.3855  0.9648
 5144TIP3    H237068   0.217   6.335   2.344 -0.9220  1.8128  0.4877
 5145TIP3   OH237069   0.852   1.440   1.642 -0.5386 -0.0459 -0.0178
 5145TIP3    H137070   0.776   1.387   1.622 -1.3918  0.6755  1.1947
 5145TIP3    H237071   0.922   1.376   1.658 -1.1038 -0.7378 -0.2617
 5146TIP3   OH237072   6.603   1.720   2.836 -0.0459 -0.5093  0.0841
 5146TIP3    H137073   6.587   1.651   2.901 -0.5685  0.7631  1.3634
 5146TIP3    H237074   6.642   1.792   2.886  0.3153  0.2089 -1.1770
 5147TIP3   OH237075   1.892   5.423   0.977  0.0965 -0.4180 -0.4989
 5147TIP3    H137076   1.896   5.461   0.890 -4.3951 -3.0445 -2.1910
 5147TIP3    H237077   1.822   5.471   1.021  2.2279  0.8086  1.8100
 5148TIP3   OH237078   0.908   4.301   3.346  0.0032  0.3053  0.3059
 5148TIP3    H137079   0.872   4.318   3.434  1.4416 -1.1175  1.2166
 5148TIP3    H237080   0.885   4.211   3.327 -0.5366  0.6844 -0.9349
 5149TIP3   OH237081   0.965   1.313   3.439  0.5244 -0.4913 -0.2073
 5149TIP3    H137082   1.018   1.234   3.446  2.4303  0.8343  2.1325
 5149TIP3    H237083   0.936   1.330   3.529 -2.3017 -0.0607 -1.1052
 5150TIP3   OH237084   0.972   5.561   1.687  0.1303  0.4238 -0.0866
 5150TIP3    H137085   1.056   5.585   1.650  0.6737  2.3340  2.1686
 5150TIP3    H237086   0.911   5.626   1.652  0.0661  0.4731  0.1175
 5151TIP3   OH237087   3.175   3.168   1.104  0.4844 -0.0274 -0.2719
 5151TIP3    H137088   3.140   3.215   1.180  0.4449  0.8329 -0.7969
 5151TIP3    H237089   3.232   3.232   1.061 -1.9225  0.6876 -2.7339
 5152TIP3   OH237090   5.707   2.438   8.471 -0.3388  0.4042 -0.3497
 5152TIP3    H137091   5.697   2.527   8.437 -0.2545  0.4007 -0.3817
 5152TIP3    H237092   5.667   2.383   8.404  0.2905  0.3525 -0.6922
 5153TIP3   OH237093   4.469   1.047   3.538 -0.0915  0.0681 -0.5854
 5153TIP3    H137094   4.505   1.122   3.491  0.9170  0.1160  0.2178
 5153TIP3    H237095   4.506   0.970   3.494  0.9778  0.1153  0.1761
 5154TIP3   OH237096   3.327   4.850   2.150 -0.3004 -0.0071 -0.5715
 5154TIP3    H137097   3.289   4.767   2.120 -0.9996  0.0806  0.0436
 5154TIP3    H237098   3.270   4.917   2.114 -0.6948  0.1316  0.3044
 5155TIP3   OH237099   6.255   1.933   3.468  0.2042  0.3778  0.2158
 5155TIP3    H137100   6.185   1.948   3.532  0.9455  0.6504  0.9701
 5155TIP3    H237101   6.208   1.913   3.386 -0.7509  0.1162  0.8119
 5156TIP3   OH237102   4.868   1.942   3.369  0.2395  0.6435  0.6680
 5156TIP3    H137103   4.866   1.848   3.355 -0.5008  0.6975  0.3167
 5156TIP3    H237104   4.856   1.953   3.464  0.4039  0.3858  0.7174
 5157TIP3   OH237105   0.739   0.051   2.684  0.2305  0.5150  0.4211
 5157TIP3    H137106   0.645   0.033   2.679 -0.1326  2.2218  0.6346
 5157TIP3    H237107   0.747   0.126   2.742  1.9086 -0.6638  1.8245
 5158TIP3   OH237108   2.991   5.437   3.494 -0.2741 -0.1451 -0.1938
 5158TIP3    H137109   2.962   5.528   3.504  2.0522  0.6638 -0.2422
 5158TIP3    H237110   2.910   5.386   3.501 -1.7257  1.9355 -0.7044
 5159TIP3   OH237111   1.598   2.856   1.823  0.3178  0.0680 -0.2750
 5159TIP3    H137112   1.677   2.813   1.854  0.3633  1.2064  1.2849
 5159TIP3    H237113   1.545   2.870   1.901 -1.1101 -0.0172 -1.1898
 5160TIP3   OH237114   4.353   5.547   1.296  0.2423  0.0025 -0.2191
 5160TIP3    H137115   4.393   5.523   1.213  0.9733  0.5077 -0.0245
 5160TIP3    H237116   4.372   5.640   1.306 -0.5543  0.1410  0.1259
 5161TIP3   OH237117   4.127   2.067   2.183  0.2307  0.1844 -0.3324
 5161TIP3    H137118   4.091   1.995   2.130  1.5933 -0.9177  0.1680
 5161TIP3    H237119   4.065   2.139   2.171 -0.2484 -0.4940 -2.2526
 5162TIP3   OH237120   6.460   1.781   0.320  0.5879 -0.4068  0.0723
 5162TIP3    H137121   6.444   1.813   0.231 -0.5620  1.0392  0.7581
 5162TIP3    H237122   6.521   1.844   0.358  0.2176 -0.3918  0.6596
 5163TIP3   OH237123   1.510   0.917   8.558 -0.0757 -0.6629 -0.0264
 5163TIP3    H137124   1.440   0.853   8.571 -0.0780 -1.0345 -1.6590
 5163TIP3    H237125   1.479   0.974   8.488 -0.7329  2.1665  2.3487
 5164TIP3   OH237126   4.771   4.371   0.649  0.0651 -0.1394 -0.7526
 5164TIP3    H137127   4.826   4.393   0.574  0.7286  0.3736 -0.1189
 5164TIP3    H237128   4.829   4.375   0.725 -0.8685  0.5856 -0.0422
 5165TIP3   OH237129   1.529   4.911   4.083 -0.5246 -0.2157 -0.0827
 5165TIP3    H137130   1.615   4.916   4.042 -0.7580  0.9541 -0.4638
 5165TIP3    H237131   1.532   4.830   4.134  0.7432 -0.2754 -0.2089
 5166TIP3   OH237132   1.027   2.976   0.110  0.5285  0.5329 -0.1378
 5166TIP3    H137133   1.003   2.883   0.106  0.5790  0.4245  1.5937
 5166TIP3    H237134   0.953   3.018   0.152  0.8116  1.1821 -0.2815
 5167TIP3   OH237135   6.714   4.125   0.844 -0.2237 -0.4620  0.0361
 5167TIP3    H137136   6.621   4.103   0.846 -0.0012 -1.4564  0.4982
 5167TIP3    H237137   6.717   4.217   0.817 -1.3102 -0.5354 -0.3853
 5168TIP3   OH237138   4.242   5.151   2.769 -0.8384  0.2379 -0.5052
 5168TIP3    H137139   4.254   5.063   2.805 -0.7306  0.5444  0.2387
 5168TIP3    H237140   4.227   5.206   2.846 -1.3924  0.7932 -0.9999
 5169TIP3   OH237141   4.238   4.571   0.371  0.3198 -0.2954 -0.0791
 5169TIP3    H137142   4.160   4.579   0.316  1.0035 -0.7289 -1.1433
 5169TIP3    H237143   4.218   4.499   0.431  0.5740 -1.6008 -1.5245
 5170TIP3   OH237144   4.499   6.674   8.750 -0.0987 -0.5768 -0.1551
 5170TIP3    H137145   4.591   6.688   8.773 -0.0537 -0.5754 -0.3339
 5170TIP3    H237146   4.487   6.725   8.669 -0.0613 -1.1785 -0.5437
 5171TIP3   OH237147   4.579   0.488   2.772 -0.2232  0.0252 -0.3088
 5171TIP3    H137148   4.619   0.480   2.858 -0.3501 -1.3158 -0.3539
 5171TIP3    H237149   4.548   0.400   2.751 -0.5374  0.4053 -1.5634
 5172TIP3   OH237150   1.075   4.044   0.193 -0.2163  0.3999 -0.5630
 5172TIP3    H137151   1.154   4.047   0.247 -1.3481 -0.4250  1.2640
 5172TIP3    H237152   1.030   3.964   0.222 -2.2826  1.4683 -0.6468
 5173TIP3   OH237153   3.729   2.049   1.280 -0.2678  0.0136  0.2251
 5173TIP3    H137154   3.695   2.137   1.266  3.4075  1.4300 -0.7680
 5173TIP3    H237155   3.743   2.043   1.374 -0.4300  0.5462  0.2869
 5174TIP3   OH237156   6.230   5.166   2.486  0.4362  0.0615  0.0346
 5174TIP3    H137157   6.183   5.098   2.436 -0.1010  0.7310 -0.3933
 5174TIP3    H237158   6.313   5.125   2.510 -0.7595 -1.5431  1.7372
 5175TIP3   OH237159   6.808   0.933   1.451  0.0074 -0.2137 -0.1888
 5175TIP3    H137160   6.841   0.866   1.510 -0.9600  0.9759  1.7966
 5175TIP3    H237161   6.720   0.904   1.428  0.6434 -1.0657 -1.7889
 5176TIP3   OH237162   6.125   5.098   2.993  0.0266  0.3519  0.2332
 5176TIP3    H137163   6.130   5.009   2.959  0.6834  0.0658  1.0598
 5176TIP3    H237164   6.130   5.089   3.088 -1.7510  1.1521  0.4460
 5177TIP3   OH237165   3.660   5.460   2.071  0.1257  0.3564  0.0653
 5177TIP3    H137166   3.628   5.550   2.079  1.9685  0.9918  0.8690
 5177TIP3    H237167   3.703   5.458   1.985 -1.0316 -0.1740 -0.5284
 5178TIP3   OH237168   1.963   6.079   2.036 -0.0351  0.0686 -0.0760
 5178TIP3    H137169   1.878   6.122   2.029 -0.1325 -0.2660 -1.2481
 5178TIP3    H237170   2.019   6.127   1.974 -0.5252 -2.2752 -2.5460
 5179TIP3   OH237171   1.988   6.033   0.369  0.5497 -0.0801  0.0105
 5179TIP3    H137172   1.947   5.964   0.317  2.9152 -1.5949 -0.0494
 5179TIP3    H237173   2.070   6.052   0.323  1.1971  0.8638  1.4635
 5180TIP3   OH237174   2.424   3.585   0.294 -0.3398  0.1094 -0.0482
 5180TIP3    H137175   2.396   3.578   0.203  1.6714  1.7241 -0.8658
 5180TIP3    H237176   2.502   3.530   0.300 -0.6684 -0.2823  0.8206
 5181TIP3   OH237177   1.226   2.604   8.759 -0.7240 -0.3152 -0.0663
 5181TIP3    H137178   1.254   2.682   8.710 -0.2914  0.0020  0.6721
 5181TIP3    H237179   1.159   2.564   8.703 -0.1658 -0.0256 -0.9693
 5182TIP3   OH237180   0.170   2.300   1.786 -0.0287 -0.1545  0.0430
 5182TIP3    H137181   0.161   2.228   1.849 -2.3167 -0.2321 -0.2862
 5182TIP3    H237182   0.113   2.274   1.713 -0.3151  1.6416 -0.4094
 5183TIP3   OH237183   1.416   0.066   0.655 -0.7876  0.1919  0.0099
 5183TIP3    H137184   1.383   0.156   0.653  0.2082  0.6420  1.5635
 5183TIP3    H237185   1.508   0.074   0.629 -0.9359 -0.5406 -0.8030
 5184TIP3   OH237186   5.538   5.074   3.398 -0.2863 -0.2356 -0.2094
 5184TIP3    H137187   5.476   5.026   3.453 -0.8600 -0.4465 -1.0048
 5184TIP3    H237188   5.549   5.018   3.321  0.1690  0.2448 -0.5012
 5185TIP3   OH237189   1.416   2.714   2.816  0.7483 -0.3873 -0.2877
 5185TIP3    H137190   1.398   2.620   2.810  1.7329 -0.5633 -0.5011
 5185TIP3    H237191   1.433   2.741   2.726 -1.4799  0.4241 -0.5470
 5186TIP3   OH237192   5.068   3.189   2.513  0.1005  0.0385  0.0654
 5186TIP3    H137193   5.065   3.237   2.596  0.9797 -0.7094  0.5416
 5186TIP3    H237194   5.063   3.097   2.537  1.7798 -0.2676 -0.5831
 5187TIP3   OH237195   0.600   5.658   3.096  0.2067 -1.1212 -0.1990
 5187TIP3    H137196   0.536   5.689   3.161 -0.1361 -2.5326  0.1652
 5187TIP3    H237197   0.685   5.679   3.134 -0.0026 -1.2571  0.3523
 5188TIP3   OH237198   0.569   2.835   2.797  0.0860  0.2154  0.1095
 5188TIP3    H137199   0.493   2.839   2.855  1.6314 -1.3225  2.4065
 5188TIP3    H237200   0.580   2.742   2.776  0.5544  0.5616 -1.3135
 5189TIP3   OH237201   5.864   5.284   0.427  0.1476 -0.2136  0.0801
 5189TIP3    H137202   5.935   5.307   0.367  0.6902  1.8015  1.3878
 5189TIP3    H237203   5.791   5.340   0.401  0.2650  0.4024  1.0338
 5190TIP3   OH237204   5.252   6.031   1.884  0.2063  0.2806 -0.1306
 5190TIP3    H137205   5.266   6.119   1.920  0.8061 -0.4061  1.4129
 5190TIP3    H237206   5.318   5.977   1.927 -0.5186 -1.0451 -0.6306
 5191TIP3   OH237207   1.248   4.029   2.289 -0.2983 -0.0216 -0.2466
 5191TIP3    H137208   1.177   4.062   2.235 -1.0463 -1.4062 -0.1661
 5191TIP3    H237209   1.326   4.077   2.259 -1.3547  2.0860  0.1957
 5192TIP3   OH237210   1.942   0.150   3.630 -0.1226 -0.2088 -0.1231
 5192TIP3    H137211   1.847   0.147   3.643 -0.0180 -0.7818  0.6022
 5192TIP3    H237212   1.958   0.233   3.586 -0.8156  0.5377  0.9977
 5193TIP3   OH237213   4.968   3.782   2.119 -0.4421  0.1277 -0.2933
 5193TIP3    H137214   5.027   3.852   2.092  0.6940 -0.4481  0.5584
 5193TIP3    H237215   5.027   3.712   2.149 -1.5550 -0.8357 -0.2906
 5194TIP3   OH237216   4.955   5.698   3.549 -0.2644  0.6952 -0.1584
 5194TIP3    H137217   4.927   5.787   3.528  0.1955  0.9294  0.2057
 5194TIP3    H237218   5.008   5.708   3.628 -0.6526  0.0292  0.1907
 5195TIP3   OH237219   2.056   1.609   3.888  0.0948  0.5689 -0.0102
 5195TIP3    H137220   2.003   1.680   3.853  0.3608  1.3774  1.1666
 5195TIP3    H237221   2.014   1.585   3.971  0.6085  0.0709  0.1190
 5196TIP3   OH237222   2.008   0.763   1.843 -1.1602  0.0020  0.2631
 5196TIP3    H137223   1.953   0.734   1.917 -0.5914  0.9167  1.0709
 5196TIP3    H237224   2.039   0.681   1.803 -2.5760 -0.5264  0.1791
 5197TIP3   OH237225   6.795   1.534   3.210  0.2314 -0.3084  0.3833
 5197TIP3    H137226   6.779   1.479   3.133 -1.6352  0.5970  0.0511
 5197TIP3    H237227   6.888   1.525   3.227  0.2622 -2.4051 -0.5321
 5198TIP3   OH237228   1.091   2.506   2.221 -0.6195 -0.0954  0.0337
 5198TIP3    H137229   1.026   2.452   2.177 -0.8277  0.6595 -0.6108
 5198TIP3    H237230   1.096   2.586   2.168  0.5197  0.0391  0.3001
 5199TIP3   OH237231   3.822   0.446   1.753  0.0393 -0.4688  0.5046
 5199TIP3    H137232   3.754   0.405   1.806 -0.3616  0.1124  0.4490
 5199TIP3    H237233   3.780   0.524   1.715  0.9544  0.3366  1.0980
 5200TIP3   OH237234   5.870   3.762   8.712 -0.0011 -0.4208 -0.2148
 5200TIP3    H137235   5.926   3.839   8.722  1.2329 -1.0337 -1.8981
 5200TIP3    H237236   5.782   3.797   8.705  0.5149  0.8258 -0.7236
 5201TIP3   OH237237   5.608   2.828   3.225 -0.5048  0.1860  0.4205
 5201TIP3    H137238   5.591   2.747   3.274  1.4157 -0.1446  0.6421
 5201TIP3    H237239   5.681   2.805   3.168  0.5975  1.9523  1.0392
 5202TIP3   OH237240   1.007   4.663   8.818 -0.6193  0.0664  0.4004
 5202TIP3    H137241   0.914   4.681   8.832 -0.6115  1.5828 -1.1682
 5202TIP3    H237242   1.034   4.726   8.750  1.1894 -1.3417 -0.2692
 5203TIP3   OH237243   2.347   4.323   0.605 -0.0878  0.3063  0.3378
 5203TIP3    H137244   2.380   4.243   0.645 -2.3011 -0.3584  0.9731
 5203TIP3    H237245   2.268   4.344   0.655 -0.5895  1.8347 -1.0191
 5204TIP3   OH237246   4.623   4.200   1.536  0.0451 -0.1359  0.2246
 5204TIP3    H137247   4.654   4.129   1.481 -1.2336  0.6384 -1.6036
 5204TIP3    H237248   4.675   4.193   1.616  1.3196 -1.8850 -0.6883
 5205TIP3   OH237249   1.169   5.801   3.914 -0.7538 -0.2922 -0.5722
 5205TIP3    H137250   1.259   5.833   3.918 -0.3077 -1.4891 -0.6763
 5205TIP3    H237251   1.145   5.784   4.005 -0.6990 -0.4436 -0.5860
 5206TIP3   OH237252   3.141   5.896   1.355  0.4773  0.2067 -0.4206
 5206TIP3    H137253   3.049   5.911   1.374  0.8017  0.9941  0.6811
 5206TIP3    H237254   3.165   5.820   1.407  0.3663 -0.2197 -0.9888
 5207TIP3   OH237255   3.752   3.005   3.130 -0.4726  0.1097  0.2905
 5207TIP3    H137256   3.692   2.934   3.106  1.0190 -1.0342 -0.1599
 5207TIP3    H237257   3.788   3.035   3.047 -0.6866  1.0706  0.5269
 5208TIP3   OH237258   6.101   3.311   8.247  0.5702  0.2873 -0.0224
 5208TIP3    H137259   6.038   3.361   8.194  0.0868  0.1956  0.4566
 5208TIP3    H237260   6.171   3.289   8.187 -0.3798 -0.5645 -0.8424
 5209TIP3   OH237261   3.082   2.902   4.144  0.7884 -0.0312 -0.1257
 5209TIP3    H137262   3.158   2.959   4.155  0.8862 -0.0807 -0.5143
 5209TIP3    H237263   3.053   2.918   4.054  2.2979 -2.3609 -1.1247
 5210TIP3   OH237264   2.593   3.819   0.417  0.9865  0.0293  0.6131
 5210TIP3    H137265   2.637   3.810   0.502 -0.3841  2.3958  1.6691
 5210TIP3    H237266   2.508   3.778   0.430  1.9871 -2.7131 -0.7894
 5211TIP3   OH237267   2.901   1.648   4.418 -0.1475  0.1195 -0.1579
 5211TIP3    H137268   2.871   1.590   4.489  1.6710 -1.5612 -0.6663
 5211TIP3    H237269   2.981   1.687   4.452  1.2073 -1.3370 -1.4956
 5212TIP3   OH237270   5.800   1.729   8.059 -0.4059  0.1119 -0.1079
 5212TIP3    H137271   5.877   1.785   8.061 -1.0626  1.0470  0.0063
 5212TIP3    H237272   5.834   1.640   8.064  0.5636  0.5530  1.9846
 5213TIP3   OH237273   0.510   1.183   4.303 -0.1042 -0.7542  0.1055
 5213TIP3    H137274   0.591   1.133   4.315 -0.2351 -1.4769 -1.7208
 5213TIP3    H237275   0.471   1.147   4.224 -3.9123 -2.6707  2.5686
 5214TIP3   OH237276   2.828   6.429   3.032  0.2530 -0.1214 -0.5095
 5214TIP3    H137277   2.858   6.500   3.088  1.2078  1.7706 -3.2117
 5214TIP3    H237278   2.806   6.358   3.092  5.1443  0.1570  2.1462
 5215TIP3   OH237279   0.900   5.836   2.821 -0.4649 -0.9420 -0.3213
 5215TIP3    H137280   0.809   5.849   2.796 -0.5464 -1.3014 -0.2107
 5215TIP3    H237281   0.900   5.836   2.917 -0.0717  1.0128 -0.2760
 5216TIP3   OH237282   4.228   4.373   3.099 -0.3972 -0.2731  0.3149
 5216TIP3    H137283   4.208   4.292   3.052 -3.8600 -0.3647  1.6876
 5216TIP3    H237284   4.321   4.388   3.080  0.1641 -3.9734 -0.8271
 5217TIP3   OH237285   1.131   1.889   0.567  0.2043 -0.0962 -0.0441
 5217TIP3    H137286   1.140   1.984   0.576  2.5654 -0.2121 -0.5291
 5217TIP3    H237287   1.136   1.856   0.657 -1.5514  0.2529  0.2138
 5218TIP3   OH237288   4.432   2.584   2.722 -0.4290  0.4242  0.3881
 5218TIP3    H137289   4.522   2.615   2.714 -0.5155  0.5415 -0.1787
 5218TIP3    H237290   4.436   2.511   2.783 -0.0534  0.8578  0.8935
 5219TIP3   OH237291   5.171   0.043   3.931 -0.1787 -0.0139 -0.5024
 5219TIP3    H137292   5.075   0.044   3.928 -0.1550 -0.2000 -1.6977
 5219TIP3    H237293   5.197  -0.011   3.857  0.8376 -1.1086  0.6055
 5220TIP3   OH237294   5.561   0.902   3.361 -0.0895 -0.0501  0.2957
 5220TIP3    H137295   5.541   0.810   3.349 -3.3180  0.6274 -0.5790
 5220TIP3    H237296   5.478   0.947   3.343  1.3035  3.0122  0.8612
 5221TIP3   OH237297   5.331   4.739   2.252 -0.2722  0.0571  0.2509
 5221TIP3    H137298   5.341   4.733   2.347 -0.6174  0.0808  0.2916
 5221TIP3    H237299   5.411   4.782   2.221  2.1714 -4.0639  0.0263
 5222TIP3   OH237300   0.534   1.964   1.061 -0.4784 -0.1228  0.3713
 5222TIP3    H137301   0.473   1.980   1.133  0.3969 -2.0028  1.5940
 5222TIP3    H237302   0.481   1.918   0.995 -1.3817  1.9498 -0.4601
 5223TIP3   OH237303   1.871   5.256   0.756 -0.8226 -0.3242 -0.7086
 5223TIP3    H137304   1.832   5.302   0.829 -1.8770 -0.2222 -1.3137
 5223TIP3    H237305   1.823   5.288   0.679  0.0091 -0.6949 -1.3982
 5224TIP3   OH237306   4.954   2.739   0.426 -0.3888 -0.1281 -0.3942
 5224TIP3    H137307   4.957   2.682   0.503 -1.0211  0.2761 -0.0661
 5224TIP3    H237308   4.901   2.691   0.362  0.1164 -0.4526 -0.5770
 5225TIP3   OH237309   2.495   2.115   1.104  0.1338  0.4691 -0.1882
 5225TIP3    H137310   2.407   2.154   1.098 -0.0633 -0.1361 -2.1214
 5225TIP3    H237311   2.487   2.032   1.057  1.3850 -0.3154  0.9395
 5226TIP3   OH237312   0.170   2.946   3.804 -0.5297 -0.0839  0.1994
 5226TIP3    H137313   0.175   2.912   3.714  1.4122 -0.1625  0.3018
 5226TIP3    H237314   0.191   3.039   3.796  0.6253 -0.2936  0.6708
 5227TIP3   OH237315   3.100   3.793   3.638 -0.1456  0.2420 -0.5190
 5227TIP3    H137316   3.165   3.731   3.604 -0.3683 -0.9277  1.0322
 5227TIP3    H237317   3.142   3.832   3.715 -0.5742  0.9194 -0.6185
 5228TIP3   OH237318   2.322   4.124   1.671  0.2092 -0.0615  0.3631
 5228TIP3    H137319   2.369   4.138   1.752  1.0351  1.1103 -0.2854
 5228TIP3    H237320   2.357   4.041   1.636  0.5675 -0.0575  0.7112
 5229TIP3   OH237321   5.337   1.514   2.753 -0.4013 -0.7689  0.8007
 5229TIP3    H137322   5.335   1.600   2.711 -0.8709 -1.0699  0.1927
 5229TIP3    H237323   5.425   1.481   2.736 -0.1048 -0.2658  1.3372
 5230TIP3   OH237324   6.066   0.245   2.836  0.0423 -0.7369 -0.0726
 5230TIP3    H137325   6.014   0.173   2.871 -0.3531 -1.0195 -1.2044
 5230TIP3    H237326   6.064   0.232   2.741 -1.1880  1.5116 -0.4312
 5231TIP3   OH237327   5.576   1.491   3.076  0.1913 -0.6921 -0.3836
 5231TIP3    H137328   5.622   1.438   3.142  1.0512 -0.8898 -1.1136
 5231TIP3    H237329   5.483   1.472   3.091  0.3771 -0.8549  0.6604
 5232TIP3   OH237330   1.953   5.258   2.795 -0.1859  0.1087  0.3083
 5232TIP3    H137331   1.971   5.240   2.887  1.7559  0.1253 -0.0275
 5232TIP3    H237332   1.981   5.179   2.749  0.0834  0.5897 -0.3775
 5233TIP3   OH237333   1.044   6.246   0.318  0.4569  0.0259  0.2139
 5233TIP3    H137334   1.109   6.251   0.247  0.1106 -0.3624 -0.1374
 5233TIP3    H237335   1.096   6.236   0.397  0.8455  0.2133 -0.0137
 5234TIP3   OH237336   2.066   1.931   1.535  0.4515  0.2032  0.5252
 5234TIP3    H137337   2.068   1.840   1.506 -2.2142  0.8656 -2.2343
 5234TIP3    H237338   1.984   1.939   1.585  0.9386  0.9771  1.2351
 5235TIP3   OH237339   6.725   6.804   3.067 -0.3808 -0.1177  0.0655
 5235TIP3    H137340   6.664   6.749   3.116 -0.1213  0.1466  0.7029
 5235TIP3    H237341   6.706   6.786   2.975 -1.7672  0.3406  0.2434
 5236TIP3   OH237342   3.928   3.801   3.154 -0.5178 -0.4054  0.2122
 5236TIP3    H137343   3.867   3.835   3.088  0.2839 -0.7043 -0.6998
 5236TIP3    H237344   3.944   3.710   3.128 -0.4899 -0.6422  1.0440
 5237TIP3   OH237345   4.159   0.342   0.202 -0.0292  0.0594  0.8377
 5237TIP3    H137346   4.067   0.326   0.181 -0.2873 -0.1141  2.0209
 5237TIP3    H237347   4.179   0.425   0.158 -0.4638 -0.3796 -0.2260
 5238TIP3   OH237348   1.936   2.677   8.494  0.7927 -0.3277 -0.4001
 5238TIP3    H137349   1.979   2.763   8.492  2.1850 -1.0099 -1.6149
 5238TIP3    H237350   1.991   2.625   8.553 -0.5606 -0.1647  1.0668
 5239TIP3   OH237351   1.027   6.636   1.277  0.6410  0.7333 -0.3187
 5239TIP3    H137352   1.023   6.572   1.206 -0.3684  0.8940 -0.4128
 5239TIP3    H237353   1.120   6.638   1.302  0.2881 -3.3325  2.0814
 5240TIP3   OH237354   5.363   0.108   2.331  0.1476  0.2842  0.1572
 5240TIP3    H137355   5.317   0.186   2.301 -0.2554 -0.8422 -2.4494
 5240TIP3    H237356   5.294   0.052   2.367 -0.0729 -0.0920 -0.8132
 5241TIP3   OH237357   3.964   2.654   0.900 -0.8924  0.4842 -0.8354
 5241TIP3    H137358   3.899   2.677   0.967 -0.9011 -1.0740 -0.2636
 5241TIP3    H237359   4.048   2.667   0.943 -0.8832  0.0505 -0.7234
 5242TIP3   OH237360   4.811   5.831   3.867  0.4308 -0.6494  0.4032
 5242TIP3    H137361   4.881   5.789   3.817  0.9355 -0.4191  0.9044
 5242TIP3    H237362   4.824   5.924   3.854  0.0341 -0.6116  0.2640
 5243TIP3   OH237363   6.615   6.223   4.185 -0.0398  0.7839  0.4002
 5243TIP3    H137364   6.633   6.297   4.127 -1.1879  1.6098  1.0602
 5243TIP3    H237365   6.555   6.258   4.251 -1.6030 -1.0391  0.0301
 5244TIP3   OH237366   4.951   5.765   8.732 -0.3045  0.4086 -0.1804
 5244TIP3    H137367   5.015   5.747   8.663 -1.2033  1.1599 -1.2276
 5244TIP3    H237368   4.884   5.697   8.721  1.0337 -1.4332  1.9582
 5245TIP3   OH237369   5.324   5.515   3.492 -0.3339 -0.1138  0.0925
 5245TIP3    H137370   5.328   5.555   3.578  1.2290 -1.1844  0.5642
 5245TIP3    H237371   5.384   5.567   3.438 -1.0280  0.3304 -0.2668
 5246TIP3   OH237372   5.322   5.932   0.550 -0.1620 -0.1614 -0.0315
 5246TIP3    H137373   5.400   5.984   0.569  0.8849 -1.6263 -0.1658
 5246TIP3    H237374   5.292   5.902   0.636  1.0382 -1.8068 -0.1390
 5247TIP3   OH237375   4.673   5.676   2.761 -0.2237  0.2070 -0.0322
 5247TIP3    H137376   4.580   5.700   2.756 -0.0384  0.7257 -1.5082
 5247TIP3    H237377   4.718   5.758   2.784 -0.2515 -0.4072  2.4611
 5248TIP3   OH237378   6.158   1.257   1.778  0.2997 -0.7047 -0.1289
 5248TIP3    H137379   6.140   1.203   1.701  1.4798 -1.5412  0.1675
 5248TIP3    H237380   6.093   1.230   1.842 -0.7697  0.0782 -0.8358
 5249TIP3   OH237381   4.536   1.422   3.016  0.1605  0.5001  0.2345
 5249TIP3    H137382   4.523   1.349   2.956 -0.4424 -1.1431  2.2313
 5249TIP3    H237383   4.629   1.417   3.040 -0.1793 -0.5951  1.4664
 5250TIP3   OH237384   2.309   6.779   2.421  0.2622  0.0515  0.4801
 5250TIP3    H137385   2.263   6.773   2.505  0.3253 -0.5612  0.4722
 5250TIP3    H237386   2.401   6.767   2.443  0.1299 -1.7757  0.1348
 5251TIP3   OH237387   3.612   5.127   1.459  0.0809 -0.1609 -0.0686
 5251TIP3    H137388   3.668   5.174   1.398 -0.7113  1.5892  0.4797
 5251TIP3    H237389   3.523   5.146   1.429 -0.2874 -0.2136  0.9391
 5252TIP3   OH237390   5.130   4.289   1.875 -0.0228  0.4017  0.1845
 5252TIP3    H137391   5.097   4.351   1.939  1.0028  0.1163  1.0228
 5252TIP3    H237392   5.142   4.341   1.795 -1.1755  0.7845  0.2437
 5253TIP3   OH237393   4.613   1.236   3.386  0.2795 -0.1927 -0.0533
 5253TIP3    H137394   4.660   1.318   3.404 -2.1389  1.9971 -2.7112
 5253TIP3    H237395   4.660   1.198   3.311 -1.5101  1.5844 -2.1948
 5254TIP3   OH237396   0.661   4.768   3.399  0.0100 -0.8373  0.4585
 5254TIP3    H137397   0.573   4.749   3.432  0.1830 -1.6875  0.4522
 5254TIP3    H237398   0.720   4.733   3.466  0.3448 -0.7124  0.2310
 5255TIP3   OH237399   1.100   6.675   3.666 -0.1451 -0.5107 -0.0159
 5255TIP3    H137400   1.149   6.660   3.585  1.3665 -0.3343  0.8342
 5255TIP3    H237401   1.114   6.768   3.685  0.0338 -0.6972  0.7781
 5256TIP3   OH237402   3.729   5.075   2.252  0.2590 -0.2726  0.0468
 5256TIP3    H137403   3.674   5.100   2.327  0.5622  0.8828 -0.0933
 5256TIP3    H237404   3.668   5.037   2.190  0.0647 -1.6752  1.0508
 5257TIP3   OH237405   2.213   6.725   8.216  0.5360 -0.4956 -0.4752
 5257TIP3    H137406   2.269   6.665   8.264  1.2795 -0.4686 -1.2884
 5257TIP3    H237407   2.185   6.789   8.282 -0.7546 -2.0230  0.5459
 5258TIP3   OH237408   3.148   2.692   4.299 -0.4676 -0.0640 -0.3382
 5258TIP3    H137409   3.232   2.725   4.330 -0.3424 -0.2969 -0.4273
 5258TIP3    H237410   3.115   2.760   4.240 -1.1452  0.8286  1.0128
 5259TIP3   OH237411   1.368   4.108   2.751 -0.3834  0.1361 -0.6067
 5259TIP3    H137412   1.302   4.087   2.685 -1.2148  2.0429 -0.4352
 5259TIP3    H237413   1.339   4.061   2.829 -0.2929 -0.8062 -1.1189
 5260TIP3   OH237414   1.520   1.927   2.047 -0.1467 -0.4855  0.6033
 5260TIP3    H137415   1.448   1.990   2.037  0.6612  0.1275 -2.3227
 5260TIP3    H237416   1.481   1.854   2.095 -1.9848  0.8981  1.3640
 5261TIP3   OH237417   0.893   6.087   8.214  0.2223 -0.1561  1.0457
 5261TIP3    H137418   0.880   6.171   8.171 -1.1800 -0.2156  1.2937
 5261TIP3    H237419   0.986   6.085   8.235  0.2084  1.5342  1.4375
 5262TIP3   OH237420   2.667   2.015   1.939  0.1979 -0.4661 -0.1565
 5262TIP3    H137421   2.690   1.974   1.856 -1.6596 -1.4494 -0.2224
 5262TIP3    H237422   2.646   1.942   1.997  0.6142  0.2524  0.9294
 5263TIP3   OH237423   0.284   3.977   2.556 -0.1062 -0.1301 -0.6359
 5263TIP3    H137424   0.347   3.909   2.582  1.0453 -0.0457 -2.9206
 5263TIP3    H237425   0.206   3.929   2.530 -1.1292 -0.2359  2.2623
 5264TIP3   OH237426   3.234   3.459   2.121  0.1053 -0.3711  0.2369
 5264TIP3    H137427   3.175   3.435   2.193 -2.9808  0.7639 -1.7113
 5264TIP3    H237428   3.231   3.385   2.061  1.5537 -0.7301  0.5721
 5265TIP3   OH237429   1.297   6.608   2.673 -0.0180 -0.2779 -0.0879
 5265TIP3    H137430   1.216   6.558   2.672  0.4358 -1.0160 -1.3342
 5265TIP3    H237431   1.331   6.601   2.584 -0.3407  2.9250 -0.6008
 5266TIP3   OH237432   5.043   0.476   1.145 -0.0152 -0.3464  0.5847
 5266TIP3    H137433   4.956   0.498   1.111  0.3481 -0.3684 -0.3848
 5266TIP3    H237434   5.026   0.439   1.232 -0.9610 -0.2220  0.4640
 5267TIP3   OH237435   4.280   2.338   0.448  0.1045  0.2039  0.3176
 5267TIP3    H137436   4.345   2.408   0.448  0.4166 -0.0856 -0.0539
 5267TIP3    H237437   4.203   2.376   0.406 -0.3485  0.8931  1.7102
 5268TIP3   OH237438   5.963   4.208   0.737  0.1360  0.3051 -0.2590
 5268TIP3    H137439   5.994   4.186   0.649 -0.6209 -1.4436 -0.1324
 5268TIP3    H237440   5.869   4.225   0.726 -0.2533 -1.2527  0.3725
 5269TIP3   OH237441   4.238   6.776   3.312 -0.0128 -0.1301 -0.8619
 5269TIP3    H137442   4.160   6.771   3.368  0.0127  0.1701 -0.8003
 5269TIP3    H237443   4.210   6.823   3.234 -0.0712 -0.6287 -1.1462
 5270TIP3   OH237444   0.944   2.518   1.395 -0.1371 -1.1200  0.2049
 5270TIP3    H137445   1.031   2.513   1.356 -0.5575 -2.9884 -0.6157
 5270TIP3    H237446   0.885   2.528   1.320 -0.6495  0.2073  0.7554
 5271TIP3   OH237447   2.260   0.101   1.158 -0.3419 -0.5759 -0.7138
 5271TIP3    H137448   2.349   0.067   1.146  0.4544  1.2783 -0.4785
 5271TIP3    H237449   2.231   0.064   1.242  0.1601 -1.2835 -0.8457
 5272TIP3   OH237450   4.633   6.035   1.023  0.3189 -0.4642  1.1526
 5272TIP3    H137451   4.718   6.065   0.989 -0.6434 -0.1477 -1.1590
 5272TIP3    H237452   4.637   5.940   1.017  0.7014 -0.4853  1.6224
 5273TIP3   OH237453   2.572   3.989   3.293  0.4714 -0.3371 -0.1617
 5273TIP3    H137454   2.642   4.008   3.356 -0.9266  0.4914  1.1846
 5273TIP3    H237455   2.566   4.069   3.240 -0.5639  0.2877  0.8424
 5274TIP3   OH237456   6.270   2.403   8.389 -0.4927 -0.0400 -0.9498
 5274TIP3    H137457   6.282   2.459   8.466 -2.4160 -3.2704  1.9810
 5274TIP3    H237458   6.358   2.375   8.366  0.0609 -0.6678  1.5813
 5275TIP3   OH237459   2.595   1.438   3.160 -0.8741  0.1993  0.1227
 5275TIP3    H137460   2.566   1.359   3.114 -1.2837  1.0398 -1.0910
 5275TIP3    H237461   2.660   1.406   3.223 -0.2899 -0.9847 -1.0419
 5276TIP3   OH237462   2.027   6.065   2.317 -0.8178  0.3818 -0.2776
 5276TIP3    H137463   2.074   6.148   2.311  3.5327 -1.8769 -2.6093
 5276TIP3    H237464   2.006   6.044   2.226  0.1404 -1.9210 -0.0341
 5277TIP3   OH237465   1.568   5.464   1.373  0.3264  0.3486  0.2117
 5277TIP3    H137466   1.662   5.476   1.361 -0.1366  1.7770 -2.8101
 5277TIP3    H237467   1.561   5.383   1.424  3.1569  0.7663  1.4585
 5278TIP3   OH237468   5.703   6.377   3.782  0.2444 -0.1170  0.6102
 5278TIP3    H137469   5.779   6.426   3.750  0.4177  0.3132  1.6220
 5278TIP3    H237470   5.635   6.443   3.793 -0.3199 -0.5113 -0.3585
 5279TIP3   OH237471   1.344   1.090   2.438 -0.3196  0.3076  0.0162
 5279TIP3    H137472   1.417   1.051   2.485  0.1480  0.0049 -0.9384
 5279TIP3    H237473   1.383   1.160   2.385 -0.8236  0.6012  0.0216
 5280TIP3   OH237474   3.971   5.787   3.952  0.2041 -0.1138 -0.4717
 5280TIP3    H137475   4.018   5.712   3.989  0.6650  1.2785  1.9711
 5280TIP3    H237476   3.880   5.759   3.948  0.0755 -0.2879  2.1071
 5281TIP3   OH237477   4.730   1.462   1.105  0.2421 -0.4275  0.5399
 5281TIP3    H137478   4.636   1.447   1.110  0.1477  0.4833  1.7629
 5281TIP3    H237479   4.738   1.556   1.088  0.9256 -0.7769 -1.4260
 5282TIP3   OH237480   1.946   4.893   0.496  0.0594 -0.1948  0.2618
 5282TIP3    H137481   1.901   4.959   0.443  1.6123  0.2212 -0.5916
 5282TIP3    H237482   1.895   4.888   0.577 -1.4062  0.3672 -0.5808
 5283TIP3   OH237483   4.206   3.415   1.669  0.2493  0.1495 -0.0640
 5283TIP3    H137484   4.176   3.493   1.623 -0.8570 -0.0332  0.2989
 5283TIP3    H237485   4.292   3.396   1.632  1.2866  2.4680  0.9879
 5284TIP3   OH237486   5.808   1.469   3.592 -0.4396 -0.1099  0.2550
 5284TIP3    H137487   5.861   1.456   3.513 -1.9128  0.8914 -0.9560
 5284TIP3    H237488   5.826   1.392   3.646  0.2625 -1.0507 -1.2505
 5285TIP3   OH237489   0.631   4.518   3.879 -0.0382  0.4000 -0.3197
 5285TIP3    H137490   0.607   4.611   3.874  0.3467  0.5145 -0.0370
 5285TIP3    H237491   0.666   4.507   3.968 -1.1843 -0.2791  0.0811
 5286TIP3   OH237492   0.997   3.071   2.401 -0.3582 -0.1682  0.2722
 5286TIP3    H137493   0.904   3.091   2.397 -0.1582  0.6774 -0.2594
 5286TIP3    H237494   1.003   2.979   2.376 -1.0762 -0.3340  0.6654
 5287TIP3   OH237495   2.620   2.746   0.360  0.4724  0.1060  0.1208
 5287TIP3    H137496   2.611   2.737   0.265  2.2764 -3.3452  0.1059
 5287TIP3    H237497   2.697   2.802   0.372  1.1895 -0.7043 -0.5457
 5288TIP3   OH237498   5.395   5.239   2.302 -0.3151 -0.0108  0.1277
 5288TIP3    H137499   5.380   5.164   2.361  1.5389  0.7491  1.6986
 5288TIP3    H237500   5.437   5.201   2.225 -1.1648 -0.8165  0.0490
 5289TIP3   OH237501   3.711   4.854   1.826  0.2891 -0.1109  0.2800
 5289TIP3    H137502   3.670   4.913   1.889 -1.6891 -0.5491 -0.5509
 5289TIP3    H237503   3.793   4.899   1.803 -0.6365  1.8002  0.4768
 5290TIP3   OH237504   1.300   2.025   2.810  0.1268 -0.1861  0.5796
 5290TIP3    H137505   1.255   1.940   2.807 -0.7238  0.2132  1.5216
 5290TIP3    H237506   1.391   2.004   2.789  0.0099 -1.3997  1.1806
 5291TIP3   OH237507   2.520   3.322   3.369  0.2808 -0.3411 -0.5515
 5291TIP3    H137508   2.585   3.383   3.334 -1.3225  3.2057  1.9723
 5291TIP3    H237509   2.536   3.322   3.464 -0.8304 -2.6645 -0.3102
 5292TIP3   OH237510   5.095   4.980   3.038 -0.2022 -0.1253  0.3946
 5292TIP3    H137511   5.056   4.906   2.991  0.0005  1.0737 -1.8099
 5292TIP3    H237512   5.022   5.021   3.083 -0.4181 -1.2814  1.1454
 5293TIP3   OH237513   1.679   1.248   8.808 -0.4640 -0.1734 -0.1166
 5293TIP3    H137514   1.625   1.326   8.801 -1.0543 -0.4216  1.2945
 5293TIP3    H237515   1.740   1.267   8.880  1.4070  0.1243 -1.6965
 5294TIP3   OH237516   4.415   1.526   0.462  0.0651  0.1954 -0.3659
 5294TIP3    H137517   4.389   1.618   0.456  0.8438  0.3326 -2.2469
 5294TIP3    H237518   4.342   1.478   0.425  0.1534  0.1464 -0.4768
 5295TIP3   OH237519   6.327   3.559   1.688 -0.0609  0.0040 -0.0770
 5295TIP3    H137520   6.320   3.592   1.777 -1.0563  0.4238 -0.2960
 5295TIP3    H237521   6.341   3.465   1.698  1.1775  0.2351  0.5261
 5296TIP3   OH237522   2.209   1.944   0.491 -0.2208  0.0183  0.2169
 5296TIP3    H137523   2.254   1.967   0.409 -0.6196  0.3591  0.0948
 5296TIP3    H237524   2.159   1.865   0.470  1.2391 -1.0728  0.6668
 5297TIP3   OH237525   6.584   2.136   1.672  0.4560  0.0067 -0.2440
 5297TIP3    H137526   6.633   2.054   1.687  0.8059  0.1726 -0.4584
 5297TIP3    H237527   6.608   2.192   1.745 -1.1629 -0.6961  0.8899
 5298TIP3   OH237528   3.007   0.804   2.022 -0.2947 -0.1830  0.3236
 5298TIP3    H137529   3.014   0.738   2.090 -0.4000  1.4633  2.0329
 5298TIP3    H237530   2.970   0.880   2.067 -0.4453  0.9526 -1.6094
 5299TIP3   OH237531   3.376   2.439   1.262  0.3900 -0.4353  1.0121
 5299TIP3    H137532   3.428   2.469   1.337  1.0906 -0.2757  0.4745
 5299TIP3    H237533   3.313   2.509   1.246  0.4604 -0.3201  1.2387
 5300TIP3   OH237534   4.495   0.090   2.200  0.8646 -0.1454 -0.5004
 5300TIP3    H137535   4.481   0.121   2.289 -0.0329  1.8932 -1.2861
 5300TIP3    H237536   4.484  -0.005   2.206 -3.0811  0.1944  0.9367
 5301TIP3   OH237537   2.551   6.766   1.521  0.0777  0.1870  0.1180
 5301TIP3    H137538   2.575   6.791   1.611  1.2177  0.4566 -0.2406
 5301TIP3    H237539   2.626   6.794   1.468 -0.3723 -0.4029 -0.8553
 5302TIP3   OH237540   3.129   6.721   0.539 -0.1034  0.0101 -0.7278
 5302TIP3    H137541   3.087   6.736   0.624 -0.6022  0.3171 -1.0232
 5302TIP3    H237542   3.148   6.809   0.506  1.1412 -0.1178 -0.4316
 5303TIP3   OH237543   5.270   2.096   1.051  0.1653  0.3024  0.2014
 5303TIP3    H137544   5.324   2.035   1.001 -0.4270  2.8944 -4.1951
 5303TIP3    H237545   5.181   2.082   1.019 -0.2098  2.3055  0.2159
 5304TIP3   OH237546   5.955   3.789   1.113  0.0220  0.3633  0.1788
 5304TIP3    H137547   6.041   3.782   1.153 -0.2937  2.2434  1.3164
 5304TIP3    H237548   5.953   3.878   1.077 -2.0027  0.9421  1.5868
 5305TIP3   OH237549   3.966   1.911   0.104 -0.4445 -0.0604  0.5231
 5305TIP3    H137550   3.907   1.987   0.104  0.2019  0.4682 -0.8146
 5305TIP3    H237551   3.911   1.839   0.074 -0.3208  0.5620 -1.3738
 5306TIP3   OH237552   0.204   4.207   1.942  0.3947 -0.3344  0.1242
 5306TIP3    H137553   0.213   4.114   1.925 -0.3746 -0.4148  0.1117
 5306TIP3    H237554   0.246   4.220   2.027 -0.1171 -0.8168  0.4524
 5307TIP3   OH237555   0.915   0.881   8.244  0.1442  0.1767 -0.4814
 5307TIP3    H137556   0.974   0.916   8.176  1.9574 -3.4166 -0.9801
 5307TIP3    H237557   0.829   0.917   8.222  1.1470  1.2249 -3.0852
 5308TIP3   OH237558   6.013   3.692   0.314  0.0653  0.2342 -0.3247
 5308TIP3    H137559   6.082   3.671   0.252  0.0979  0.4582 -0.3641
 5308TIP3    H237560   5.935   3.707   0.260 -0.1330 -0.4855 -0.2512
 5309TIP3   OH237561   0.942   3.090   0.682  0.0299  0.4708  0.1785
 5309TIP3    H137562   1.028   3.131   0.680  0.2264  0.1621  1.6247
 5309TIP3    H237563   0.895   3.134   0.753 -1.2033  0.9725 -0.8952
 5310TIP3   OH237564   4.438   0.753   2.196 -0.3997 -0.0564  0.7491
 5310TIP3    H137565   4.463   0.695   2.268  1.7179 -0.6551 -0.3584
 5310TIP3    H237566   4.516   0.806   2.180  0.2348 -1.6971 -2.6684
 5311TIP3   OH237567   1.102   2.826   4.428  0.1950 -0.3832 -0.4691
 5311TIP3    H137568   1.113   2.903   4.371 -0.5856 -1.4667 -2.1672
 5311TIP3    H237569   1.191   2.808   4.460  0.8916 -0.3971 -2.2753
 5312TIP3   OH237570   2.062   2.074   1.301 -0.0826  0.1381 -0.1948
 5312TIP3    H137571   2.148   2.063   1.260  0.4402 -1.2759  1.1986
 5312TIP3    H237572   2.068   2.025   1.383 -2.1558  0.2148  0.0436
 5313TIP3   OH237573   3.476   5.870   0.657  0.0040  0.2521 -0.2402
 5313TIP3    H137574   3.514   5.802   0.711 -1.5007 -1.4895 -1.2620
 5313TIP3    H237575   3.421   5.920   0.717  0.6611  0.2199  0.4036
 5314TIP3   OH237576   5.865   5.852   3.711 -0.5472 -0.2228 -0.0430
 5314TIP3    H137577   5.847   5.791   3.782  1.3038 -1.4700 -0.5725
 5314TIP3    H237578   5.851   5.801   3.631 -1.7862  0.9243 -0.6042
 5315TIP3   OH237579   1.864   5.646   2.774  0.0130 -0.8910  0.0286
 5315TIP3    H137580   1.846   5.714   2.838 -0.4722  0.2172 -1.2210
 5315TIP3    H237581   1.958   5.632   2.778  0.1979  0.2523 -0.0529
 5316TIP3   OH237582   5.650   5.124   8.266 -0.4094  0.1998 -0.8517
 5316TIP3    H137583   5.614   5.201   8.311  2.1897 -0.2920  2.4430
 5316TIP3    H237584   5.730   5.157   8.225  0.0341 -0.4517 -0.5211
 5317TIP3   OH237585   6.802   4.121   8.457  0.0104 -0.3511  0.1207
 5317TIP3    H137586   6.720   4.074   8.467 -0.4329  0.3361 -0.2240
 5317TIP3    H237587   6.777   4.209   8.430  0.8933 -0.5570 -1.5258
 5318TIP3   OH237588   3.972   0.752   4.401 -0.0024  0.6452  0.3105
 5318TIP3    H137589   4.041   0.743   4.467  0.2774 -1.0194 -0.1611
 5318TIP3    H237590   4.018   0.754   4.317 -0.4989 -0.9717 -0.0451
 5319TIP3   OH237591   2.445   6.513   0.631  0.1786 -0.2617  0.0509
 5319TIP3    H137592   2.404   6.524   0.717 -0.9718 -2.7272 -0.0894
 5319TIP3    H237593   2.375   6.477   0.575  1.0887  0.5857 -1.7315
 5320TIP3   OH237594   5.385   3.405   1.832 -0.0009 -0.2084  0.1240
 5320TIP3    H137595   5.465   3.422   1.782 -0.5719 -0.5828 -0.9462
 5320TIP3    H237596   5.416   3.366   1.913  0.9048 -0.4832 -0.3356
 5321TIP3   OH237597   1.171   0.079   8.655  0.0279 -0.7708 -0.1710
 5321TIP3    H137598   1.091   0.034   8.629 -0.9871  0.8344 -0.0182
 5321TIP3    H237599   1.173   0.071   8.751 -0.7167  0.3315 -0.0422
 5322TIP3   OH237600   2.782   1.471   0.540 -0.0164  0.1820  0.1074
 5322TIP3    H137601   2.749   1.529   0.471  1.2699 -2.8884 -3.4750
 5322TIP3    H237602   2.724   1.395   0.538  2.0959 -1.5269 -0.2298
 5323TIP3   OH237603   5.759   5.573   4.414  0.1826 -0.2068  1.1438
 5323TIP3    H137604   5.666   5.581   4.394  0.3402  0.3515  0.6187
 5323TIP3    H237605   5.804   5.600   4.334  0.8180  0.8185  1.8155
 5324TIP3   OH237606   5.300   3.369   1.079  0.0154  0.2883  0.0679
 5324TIP3    H137607   5.256   3.350   1.162  1.3600 -4.4082 -0.0196
 5324TIP3    H237608   5.236   3.345   1.012  0.6831 -1.0667 -0.1158
 5325TIP3   OH237609   0.454   3.700   0.717 -0.0932  0.2203 -0.2694
 5325TIP3    H137610   0.492   3.661   0.638 -1.7566  1.1877 -1.6206
 5325TIP3    H237611   0.365   3.725   0.691 -0.3239  1.5797  1.6084
 5326TIP3   OH237612   1.226   5.888   8.438 -0.0169 -0.2195  0.3690
 5326TIP3    H137613   1.231   5.821   8.507 -0.9448  1.4646  2.1631
 5326TIP3    H237614   1.158   5.855   8.378 -2.3445  0.2103  2.6076
 5327TIP3   OH237615   3.558   1.860   2.824 -0.0152 -0.0598 -0.0355
 5327TIP3    H137616   3.551   1.897   2.912 -1.0258 -0.1146 -0.0781
 5327TIP3    H237617   3.541   1.934   2.765  0.0868 -0.1444 -0.1721
 5328TIP3   OH237618   5.882   4.206   1.567 -0.5955 -0.2408 -0.1099
 5328TIP3    H137619   5.938   4.130   1.554 -0.4108 -0.2895  0.8795
 5328TIP3    H237620   5.940   4.274   1.601 -1.0041 -0.0713  0.2677
 5329TIP3   OH237621   5.340   4.133   8.691  0.5941 -0.4641  0.5973
 5329TIP3    H137622   5.374   4.175   8.770  0.5410 -0.9355  0.8788
 5329TIP3    H237623   5.370   4.188   8.619  0.8163 -0.1419  0.9325
 5330TIP3   OH237624   2.983   3.804   0.299 -0.0294 -0.3182  0.6894
 5330TIP3    H137625   2.930   3.823   0.222 -0.0446 -0.1183  0.7497
 5330TIP3    H237626   3.061   3.760   0.264  0.5650  0.9074  0.4293
 5331TIP3   OH237627   4.921   4.071   1.542  0.1960  0.0348 -0.4211
 5331TIP3    H137628   4.989   4.115   1.490 -1.0899  3.8716  0.8163
 5331TIP3    H237629   4.851   4.053   1.480  0.6813 -0.0641 -0.9452
 5332TIP3   OH237630   3.264   6.133   2.978  0.3126 -0.5616  0.0068
 5332TIP3    H137631   3.175   6.126   2.945 -0.5097  1.4383  1.5677
 5332TIP3    H237632   3.270   6.068   3.048 -0.0501 -0.4896  0.1058
 5333TIP3   OH237633   6.097   5.712   0.332  0.1928  0.5956  0.4504
 5333TIP3    H137634   6.032   5.772   0.368  0.2862  2.2340 -1.9167
 5333TIP3    H237635   6.151   5.766   0.275  1.4539 -1.4124 -0.3688
 5334TIP3   OH237636   4.398   0.253   3.143  0.1833  0.3490  0.4413
 5334TIP3    H137637   4.433   0.223   3.226  0.4898 -4.1562 -1.0520
 5334TIP3    H237638   4.306   0.229   3.145  0.7754 -2.5714 -1.4148
 5335TIP3   OH237639   3.280   5.256   1.957 -0.2327  0.0291 -0.7252
 5335TIP3    H137640   3.237   5.171   1.953  0.4322 -0.3076 -0.9767
 5335TIP3    H237641   3.289   5.283   1.866 -0.0335  0.1509 -0.6720
 5336TIP3   OH237642   5.522   5.754   3.619  0.8404 -0.1561 -0.1918
 5336TIP3    H137643   5.579   5.701   3.675  0.7651  1.0764  1.1065
 5336TIP3    H237644   5.435   5.743   3.655  0.8300  0.8593  0.1436
 5337TIP3   OH237645   2.124   6.465   1.483  0.8213 -0.5154 -0.1835
 5337TIP3    H137646   2.186   6.510   1.425 -0.9438  0.7156 -1.1852
 5337TIP3    H237647   2.149   6.493   1.571  1.0610  0.7523 -0.6444
 5338TIP3   OH237648   5.322   5.024   1.506 -0.1627  0.3346  0.5951
 5338TIP3    H137649   5.283   5.109   1.524 -1.4350  0.1585 -1.0238
 5338TIP3    H237650   5.247   4.964   1.498  0.5954 -0.5762  0.0096
 5339TIP3   OH237651   6.377   6.237   3.679 -0.2453 -0.2342  0.5487
 5339TIP3    H137652   6.450   6.232   3.741 -0.8291 -2.4102  1.1364
 5339TIP3    H237653   6.385   6.158   3.626 -1.0360  0.5040 -0.7389
 5340TIP3   OH237654   3.790   4.508   4.601 -0.3178 -0.3045  0.8391
 5340TIP3    H137655   3.728   4.570   4.564  0.0489 -1.5168 -2.1207
 5340TIP3    H237656   3.740   4.426   4.610  0.0875 -0.5034  1.3375
 5341TIP3   OH237657   0.678   4.351   0.511  0.2037 -0.3870 -0.7215
 5341TIP3    H137658   0.744   4.407   0.471 -0.2219  0.2809 -0.5035
 5341TIP3    H237659   0.711   4.262   0.499  1.5864 -0.0228  0.1629
 5342TIP3   OH237660   1.141   3.981   8.743  0.2956  0.5640 -0.0742
 5342TIP3    H137661   1.176   3.896   8.716  0.4956  0.5085  0.3400
 5342TIP3    H237662   1.079   3.960   8.814 -0.7512  0.6419 -0.9454
 5343TIP3   OH237663   3.360   6.778   1.806 -0.4467  0.5232  0.2535
 5343TIP3    H137664   3.321   6.818   1.728  0.3838  1.2330  0.1821
 5343TIP3    H237665   3.394   6.852   1.856  1.6289 -0.0793 -0.1391
 5344TIP3   OH237666   2.950   2.593   0.471  0.0514  0.0591  0.1092
 5344TIP3    H137667   2.940   2.561   0.381 -0.8513  0.5101  0.0368
 5344TIP3    H237668   2.971   2.515   0.522  1.2472 -0.1094 -0.5820
 5345TIP3   OH237669   5.399   2.956   8.689 -0.0129  0.2436 -0.6403
 5345TIP3    H137670   5.482   2.999   8.666  1.0770 -2.5202 -2.3615
 5345TIP3    H237671   5.353   2.948   8.606 -0.8379 -0.5959 -0.1115
 5346TIP3   OH237672   1.271   4.501   0.656  0.3072  1.1495 -0.2446
 5346TIP3    H137673   1.338   4.533   0.717  0.1507  0.6413  0.2027
 5346TIP3    H237674   1.205   4.570   0.655 -0.1111  0.7955  0.8490
 5347TIP3   OH237675   5.031   1.746   2.541  0.1677  0.0041 -0.7685
 5347TIP3    H137676   4.972   1.675   2.517 -1.2671  0.4483  1.1898
 5347TIP3    H237677   5.004   1.819   2.485 -1.2592  0.2215  0.1408
 5348TIP3   OH237678   1.049   3.435   3.214  0.1105 -0.1585 -0.0462
 5348TIP3    H137679   1.123   3.396   3.261  1.5138 -1.1721 -2.8916
 5348TIP3    H237680   1.009   3.363   3.167  0.1896  1.0968 -2.1649
 5349TIP3   OH237681   3.598   4.965   1.139 -0.5947  0.7844  0.2278
 5349TIP3    H137682   3.526   4.981   1.077 -1.7490 -0.4975  1.1721
 5349TIP3    H237683   3.561   4.906   1.204  0.9698  1.0826  1.4582
 5350TIP3   OH237684   0.572   4.988   0.837 -0.6681 -0.0785  0.6995
 5350TIP3    H137685   0.531   4.953   0.759 -1.4167 -1.6071  1.7157
 5350TIP3    H237686   0.510   5.052   0.872 -0.2013  0.8201 -0.0901
 5351TIP3   OH237687   0.273   0.858   2.148 -0.7865 -0.4078  0.1968
 5351TIP3    H137688   0.187   0.898   2.141 -0.2923  0.5352 -0.6843
 5351TIP3    H237689   0.269   0.807   2.229 -2.8608 -2.1098 -0.8504
 5352TIP3   OH237690   0.254   3.172   8.632 -0.3044  0.7362 -0.4023
 5352TIP3    H137691   0.203   3.093   8.612 -0.8909  1.0122 -0.0187
 5352TIP3    H237692   0.328   3.168   8.572 -0.9633  0.5054 -1.2333
 5353TIP3   OH237693   1.535   1.298   3.200 -0.2184 -0.4928  0.2494
 5353TIP3    H137694   1.552   1.387   3.232  0.5082 -0.3228 -0.5839
 5353TIP3    H237695   1.486   1.257   3.271  0.1554  0.3107  1.0004
 5354TIP3   OH237696   0.605   3.036   0.363 -0.0519  0.3230 -0.1333
 5354TIP3    H137697   0.698   3.025   0.379  0.0185 -0.8628 -1.1923
 5354TIP3    H237698   0.580   2.960   0.311 -1.2586  1.4539 -1.3070
 5355TIP3   OH237699   6.783   4.603   0.887  0.2514  0.1403 -0.0322
 5355TIP3    H137700   6.771   4.686   0.933  0.6472 -0.5988  1.4480
 5355TIP3    H237701   6.697   4.585   0.849  0.1617  1.2242 -0.3969
 5356TIP3   OH237702   3.671   6.404   2.573 -0.3680 -0.6727 -0.4167
 5356TIP3    H137703   3.742   6.353   2.534  1.7829  1.7644 -0.0321
 5356TIP3    H237704   3.684   6.493   2.538 -2.4508  0.1491  0.7186
 5357TIP3   OH237705   5.858   3.274   1.576 -0.4157  0.0358  0.3407
 5357TIP3    H137706   5.765   3.296   1.566 -0.2681  0.1373 -1.0094
 5357TIP3    H237707   5.899   3.356   1.602 -0.5408  0.2867 -0.2308
 5358TIP3   OH237708   5.309   4.825   3.040  0.5045  0.1426  0.2446
 5358TIP3    H137709   5.267   4.886   2.980 -2.0324 -1.0224  0.7202
 5358TIP3    H237710   5.277   4.849   3.127  1.5875 -0.2011  0.7572
 5359TIP3   OH237711   0.235   4.353   1.396  0.1062 -0.1121 -0.1936
 5359TIP3    H137712   0.154   4.305   1.381 -0.0741  0.0059  0.3653
 5359TIP3    H237713   0.298   4.315   1.335 -0.2071 -0.6142 -0.2057
 5360TIP3   OH237714   0.888   3.849   0.223 -0.1754 -0.0596 -0.2011
 5360TIP3    H137715   0.871   3.781   0.288 -0.1302  0.2948  0.1905
 5360TIP3    H237716   0.824   3.917   0.243  0.9229  0.7987  0.5677
 5361TIP3   OH237717   4.751   4.530   1.614  0.1241  0.0208  0.0029
 5361TIP3    H137718   4.740   4.574   1.698  0.0891 -1.0239  0.5576
 5361TIP3    H237719   4.677   4.561   1.561  0.1623  0.7045  0.3308
 5362TIP3   OH237720   1.430   2.877   2.037 -0.0771 -0.2019  0.4062
 5362TIP3    H137721   1.346   2.845   2.005 -0.5918  2.1878 -0.8406
 5362TIP3    H237722   1.417   2.885   2.132 -0.4508 -1.9482  0.5456
 5363TIP3   OH237723   5.788   6.319   1.492 -0.2402  0.0702  0.1575
 5363TIP3    H137724   5.769   6.248   1.430  0.0730 -1.4665  1.7456
 5363TIP3    H237725   5.704   6.364   1.505 -0.5479 -0.3054 -0.4999
 5364TIP3   OH237726   1.530   0.956   2.228 -0.3851  0.3114  0.1389
 5364TIP3    H137727   1.617   0.997   2.223 -0.7068  0.8374 -1.8152
 5364TIP3    H237728   1.510   0.956   2.322  1.0713  1.5535  0.5009
 5365TIP3   OH237729   1.144   3.282   0.638  0.0087 -0.0266  0.2479
 5365TIP3    H137730   1.203   3.210   0.614 -1.2372 -2.1734  3.0745
 5365TIP3    H237731   1.195   3.333   0.701 -0.2601 -0.4789  0.8472
 5366TIP3   OH237732   5.909   0.682   2.950 -0.2089  0.0209 -0.2943
 5366TIP3    H137733   5.850   0.695   3.025 -0.3098 -1.0548 -0.1827
 5366TIP3    H237734   5.907   0.588   2.934  1.7863 -0.1040 -0.0376
 5367TIP3   OH237735   5.933   3.168   0.500 -0.2928  0.3368  0.3710
 5367TIP3    H137736   5.857   3.190   0.554  0.5554  0.7230  1.4611
 5367TIP3    H237737   5.950   3.248   0.450 -1.8781 -0.4331 -1.5505
 5368TIP3   OH237738   0.230   4.242   2.524 -0.5250 -0.5965 -0.2344
 5368TIP3    H137739   0.274   4.159   2.509  0.4083 -0.0891 -0.3717
 5368TIP3    H237740   0.254   4.296   2.448  0.2145  0.3447  0.6447
 5369TIP3   OH237741   5.404   0.443   8.364 -0.0979  0.6695  0.3338
 5369TIP3    H137742   5.422   0.350   8.368  1.1639  0.9164  1.1147
 5369TIP3    H237743   5.472   0.478   8.306 -0.0272  1.2037  0.7268
 5370TIP3   OH237744   1.430   1.049   8.297 -0.4682 -0.0668 -0.4297
 5370TIP3    H137745   1.507   1.076   8.247 -0.0224  0.3130  0.4324
 5370TIP3    H237746   1.371   1.125   8.294 -0.0984  0.2601  0.2692
 5371TIP3   OH237747   4.589   0.008   1.758 -0.2119  0.6346 -0.2109
 5371TIP3    H137748   4.571   0.100   1.781 -0.2533  0.3074  1.1718
 5371TIP3    H237749   4.510  -0.021   1.713 -0.3265  1.1901 -0.3837
 5372TIP3   OH237750   1.283   1.737   1.848 -0.3240  0.2114  0.3964
 5372TIP3    H137751   1.278   1.827   1.882 -0.6440  0.5255 -0.4683
 5372TIP3    H237752   1.192   1.716   1.825 -0.1742 -0.1717  0.1612
 5373TIP3   OH237753   4.079   2.820   2.813  0.4464  0.0766  0.5736
 5373TIP3    H137754   4.130   2.782   2.741 -0.6654  0.0345 -0.2149
 5373TIP3    H237755   4.133   2.806   2.890  1.6565  0.0971 -0.2423
 5374TIP3   OH237756   2.648   4.637   2.475  0.0780 -0.5523  0.6157
 5374TIP3    H137757   2.718   4.686   2.432  0.3261 -0.9673  0.5442
 5374TIP3    H237758   2.573   4.696   2.472  0.3280 -0.2423  0.3762
 5375TIP3   OH237759   4.073   6.225   2.858  0.8103  0.4504  0.6133
 5375TIP3    H137760   4.031   6.310   2.850  0.6894  0.2291 -2.7172
 5375TIP3    H237761   4.161   6.238   2.822  1.1157 -0.6284  0.9363
 5376TIP3   OH237762   0.340   1.249   1.323 -0.2210  0.0895  0.4080
 5376TIP3    H137763   0.387   1.168   1.340  2.1681  1.3185  0.1127
 5376TIP3    H237764   0.341   1.258   1.227 -1.9419 -0.3153  0.3233
 5377TIP3   OH237765   2.236   0.823   0.323 -0.2807  0.1824  0.0471
 5377TIP3    H137766   2.143   0.800   0.333 -0.9302  2.8951  1.0010
 5377TIP3    H237767   2.254   0.807   0.230 -1.1053 -2.2301  0.2400
 5378TIP3   OH237768   5.679   1.835   1.798  0.5060 -0.0473 -0.3998
 5378TIP3    H137769   5.637   1.793   1.873  0.7369 -0.8115 -0.6976
 5378TIP3    H237770   5.706   1.763   1.742 -1.2744  0.5254 -2.1242
 5379TIP3   OH237771   3.144   1.776   1.021  0.3056  0.3467 -0.1502
 5379TIP3    H137772   3.106   1.844   1.076 -0.1934 -1.8393  2.4377
 5379TIP3    H237773   3.165   1.705   1.082  1.4488 -1.5651 -2.5805
 5380TIP3   OH237774   1.441   2.711   3.105  0.8220  0.4397  0.3257
 5380TIP3    H137775   1.503   2.784   3.112 -0.6309  1.8107 -0.3347
 5380TIP3    H237776   1.426   2.702   3.010  1.4664 -1.1826  0.3494
 5381TIP3   OH237777   1.140   5.801   1.463  0.1663  0.4114 -0.0136
 5381TIP3    H137778   1.207   5.856   1.421 -0.4348  0.6394 -0.6823
 5381TIP3    H237779   1.090   5.862   1.517  0.1455  0.3398  0.0468
 5382TIP3   OH237780   2.935   0.760   4.234 -0.6064 -0.3482  0.2130
 5382TIP3    H137781   2.998   0.690   4.251  0.7658  0.7330 -0.3231
 5382TIP3    H237782   2.868   0.749   4.303  0.8282 -0.7220  1.6069
 5383TIP3   OH237783   2.490   1.818   2.798 -0.3346  0.0783 -0.0338
 5383TIP3    H137784   2.414   1.863   2.833 -0.8394 -0.1920 -0.7635
 5383TIP3    H237785   2.494   1.735   2.847 -0.9000 -0.1963 -0.4460
 5384TIP3   OH237786   4.647   3.229   0.819 -0.5145  0.1670  0.3036
 5384TIP3    H137787   4.676   3.238   0.729 -0.6055 -0.2789  0.2280
 5384TIP3    H237788   4.692   3.299   0.866  0.3239 -0.2257  0.1035
 5385TIP3   OH237789   6.068   2.445   0.801 -0.6769  0.3990 -0.1099
 5385TIP3    H137790   6.141   2.489   0.846  0.3327 -1.0583 -0.2774
 5385TIP3    H237791   5.997   2.509   0.804  0.7862  2.1333 -0.5131
 5386TIP3   OH237792   0.285   4.529   1.082 -0.1231  0.4430 -0.5078
 5386TIP3    H137793   0.298   4.575   1.165  1.0460 -0.6989 -0.0106
 5386TIP3    H237794   0.349   4.568   1.023 -0.5342  0.8376 -0.6952
 5387TIP3   OH237795   3.864   1.124   2.815 -0.1990  0.0947 -0.1754
 5387TIP3    H137796   3.878   1.134   2.909  1.3820 -0.2534 -0.3518
 5387TIP3    H237797   3.822   1.038   2.806  1.8023 -0.9619  0.0755
 5388TIP3   OH237798   6.634   6.464   4.051 -0.3913 -0.2273  0.3001
 5388TIP3    H137799   6.707   6.511   4.091 -0.2833  0.2218 -0.4135
 5388TIP3    H237800   6.570   6.531   4.031  0.1938 -0.2041 -1.6836
 5389TIP3   OH237801   5.360   6.636   0.133  0.1405 -0.4769  0.1515
 5389TIP3    H137802   5.415   6.688   0.191  0.4481 -1.7634  1.0592
 5389TIP3    H237803   5.297   6.593   0.191 -0.4756 -0.6470 -0.6316
 5390TIP3   OH237804   5.701   2.595   1.171 -0.3471 -0.0817 -0.2030
 5390TIP3    H137805   5.780   2.575   1.220 -0.2947 -0.4757 -0.4458
 5390TIP3    H237806   5.700   2.691   1.164 -1.1642  0.1241  1.9034
 5391TIP3   OH237807   3.165   5.557   4.181 -0.2420 -0.4461 -0.4069
 5391TIP3    H137808   3.156   5.473   4.225 -1.4391 -0.5131 -0.7540
 5391TIP3    H237809   3.241   5.545   4.123  1.8668 -0.1104  2.0880
 5392TIP3   OH237810   1.200   1.873   1.298  0.2451  0.0309  0.1158
 5392TIP3    H137811   1.212   1.813   1.372 -0.4378  1.7723  1.7314
 5392TIP3    H237812   1.235   1.956   1.330 -0.6042  0.9670 -1.3191
 5393TIP3   OH237813   3.950   3.071   0.286  0.0055  0.5049  0.8557
 5393TIP3    H137814   3.965   2.980   0.261 -0.9957  1.1323 -2.4595
 5393TIP3    H237815   3.874   3.067   0.345 -0.9473 -0.7552 -0.3801
 5394TIP3   OH237816   0.248   0.066   2.336 -0.1969 -0.3456  0.2724
 5394TIP3    H137817   0.300   0.139   2.369 -0.9715 -0.0369  0.8259
 5394TIP3    H237818   0.167   0.068   2.387 -0.8271 -0.7267 -0.6834
 5395TIP3   OH237819   6.357   1.069   1.999  0.2306  0.3451 -0.2540
 5395TIP3    H137820   6.301   1.062   2.076 -0.3417  3.0822 -0.3383
 5395TIP3    H237821   6.295   1.072   1.925  0.2556  4.0553 -0.3079
 5396TIP3   OH237822   6.577   0.626   1.688 -0.1369 -0.1207  0.0315
 5396TIP3    H137823   6.569   0.598   1.597 -2.2554  1.2138 -0.2798
 5396TIP3    H237824   6.520   0.703   1.695  1.0977  0.7115  2.1455
 5397TIP3   OH237825   1.569   6.601   2.205 -0.5193  0.3627 -0.3621
 5397TIP3    H137826   1.512   6.622   2.132 -0.1813 -1.0722 -1.0680
 5397TIP3    H237827   1.565   6.506   2.213 -2.3247  0.5521  2.9399
 5398TIP3   OH237828   5.959   3.365   3.010  0.3087  0.1882 -0.4372
 5398TIP3    H137829   5.961   3.273   3.037  0.2412 -0.2518 -1.8536
 5398TIP3    H237830   5.926   3.363   2.920  1.0899  1.5349 -0.7805
 5399TIP3   OH237831   2.745   6.146   0.319  0.1644  0.3937 -0.5457
 5399TIP3    H137832   2.840   6.138   0.317  0.1259  0.1240 -1.1390
 5399TIP3    H237833   2.730   6.238   0.344  0.5718  0.0683  0.9969
 5400TIP3   OH237834   5.830   6.609   8.526  0.5564  0.0794 -0.4105
 5400TIP3    H137835   5.756   6.549   8.532  0.4866  0.3483  2.6569
 5400TIP3    H237836   5.890   6.566   8.465 -0.9394 -1.4371 -0.9044
 5401TIP3   OH237837   5.976   0.667   8.516 -0.0888 -0.1397  0.2227
 5401TIP3    H137838   6.065   0.696   8.535  0.5064 -1.0472 -1.0282
 5401TIP3    H237839   5.949   0.718   8.439 -0.9674  0.6863  1.0484
 5402TIP3   OH237840   6.286   0.393   1.839 -0.0252  0.3996 -0.3066
 5402TIP3    H137841   6.318   0.453   1.906 -0.7095 -0.6962  1.0769
 5402TIP3    H237842   6.203   0.431   1.810  0.3746  0.9857 -0.7043
 5403TIP3   OH237843   4.831   2.514   8.100 -0.1901 -0.4963  0.1447
 5403TIP3    H137844   4.844   2.512   8.005 -0.3568 -0.1747  0.1123
 5403TIP3    H237845   4.891   2.582   8.131 -1.3290  0.5887  0.0621
 5404TIP3   OH237846   0.713   6.507   2.625  0.4996  0.1107  0.0153
 5404TIP3    H137847   0.638   6.474   2.575 -0.1578  2.8244 -0.9944
 5404TIP3    H237848   0.674   6.555   2.698  1.2522  0.7767 -0.0036
 5405TIP3   OH237849   3.789   0.564   0.863 -0.8938 -0.2452  0.1804
 5405TIP3    H137850   3.835   0.622   0.802  0.1099 -1.8883 -0.7469
 5405TIP3    H237851   3.857   0.537   0.926 -1.3671 -0.2809  0.6770
 5406TIP3   OH237852   5.578   1.765   3.028  0.0757  0.2006 -0.3100
 5406TIP3    H137853   5.539   1.781   2.942 -0.9270 -0.7613 -0.0582
 5406TIP3    H237854   5.557   1.673   3.047  0.8563  0.2120  0.6669
 5407TIP3   OH237855   2.214   6.459   3.045  0.2982 -0.5942 -0.1406
 5407TIP3    H137856   2.163   6.506   2.979  2.1806  0.6184 -0.8083
 5407TIP3    H237857   2.163   6.469   3.126 -0.9305 -0.1570 -0.9430
 5408TIP3   OH237858   4.637   3.132   3.027 -0.2027  1.0603 -0.1915
 5408TIP3    H137859   4.580   3.200   3.063 -1.3262  1.8707 -3.2270
 5408TIP3    H237860   4.719   3.177   3.007 -0.2815  1.0753 -0.4782
 5409TIP3   OH237861   3.913   6.570   0.565  0.1518  0.6177 -0.1662
 5409TIP3    H137862   3.918   6.570   0.661 -0.1051  0.9372 -0.1473
 5409TIP3    H237863   3.822   6.544   0.547  1.1436 -3.1680 -0.4221
 5410TIP3   OH237864   1.230   4.537   3.234  0.2588  0.0812 -0.6428
 5410TIP3    H137865   1.160   4.498   3.181 -0.8688  0.9728  0.1348
 5410TIP3    H237866   1.311   4.498   3.200 -0.3121  1.1480 -3.5042
 5411TIP3   OH237867   0.591   4.392   2.074 -0.5400  0.4175 -0.2238
 5411TIP3    H137868   0.657   4.373   2.007 -0.6878 -2.4878  0.3260
 5411TIP3    H237869   0.535   4.458   2.034  0.6063  0.3330 -2.1080
 5412TIP3   OH237870   3.597   0.203   8.780 -0.2017 -0.1856 -0.1055
 5412TIP3    H137871   3.514   0.201   8.827 -0.3402  1.5768 -0.2164
 5412TIP3    H237872   3.611   0.112   8.751 -1.2008 -0.8501  1.4040
 5413TIP3   OH237873   0.803   6.065   0.217  0.4609 -0.2921 -0.8889
 5413TIP3    H137874   0.780   6.000   0.283  0.9848 -2.2364 -2.5234
 5413TIP3    H237875   0.874   6.116   0.257 -1.1169  0.4831  1.0815
 5414TIP3   OH237876   1.155   3.946   3.419 -0.5521  0.0370  0.0315
 5414TIP3    H137877   1.232   3.907   3.377 -0.3714  0.1524  0.2535
 5414TIP3    H237878   1.189   3.985   3.499 -0.6389  1.0210 -0.3911
 5415TIP3   OH237879   5.493   6.373   2.694 -0.5131 -0.5412 -0.6046
 5415TIP3    H137880   5.492   6.299   2.755  0.4098 -0.3402 -0.3306
 5415TIP3    H237881   5.401   6.386   2.671 -0.8187 -0.9859  0.2976
 5416TIP3   OH237882   3.947   1.458   0.197 -0.2952 -0.4877  0.2390
 5416TIP3    H137883   3.867   1.406   0.197 -1.5648  1.2571  2.5093
 5416TIP3    H237884   4.006   1.412   0.256 -1.0410  0.0778  1.4600
 5417TIP3   OH237885   5.895   5.962   1.632 -0.2255  0.7774  0.1555
 5417TIP3    H137886   5.813   6.000   1.663 -0.7783 -0.5504  0.3893
 5417TIP3    H237887   5.960   6.030   1.647 -1.5652  2.6483 -1.8857
 5418TIP3   OH237888   2.867   1.020   1.695 -0.3901 -0.4088 -0.1623
 5418TIP3    H137889   2.804   0.948   1.697 -0.3847 -0.4329 -0.5970
 5418TIP3    H237890   2.855   1.059   1.608 -1.3487  0.9825  0.5705
 5419TIP3   OH237891   6.747   2.817   2.082  0.2547 -0.2708 -0.0508
 5419TIP3    H137892   6.779   2.879   2.147 -1.1934 -0.2061  0.6411
 5419TIP3    H237893   6.719   2.741   2.133 -2.1232  0.2867 -0.3943
 5420TIP3   OH237894   4.422   0.188   1.036  0.2708 -0.2546 -0.2095
 5420TIP3    H137895   4.387   0.163   1.122  0.7285 -0.1636  0.0006
 5420TIP3    H237896   4.516   0.172   1.042  0.2920 -0.3359 -0.7251
 5421TIP3   OH237897   4.560   1.481   1.646 -0.3650  0.1679  0.1335
 5421TIP3    H137898   4.605   1.425   1.582 -1.4982 -0.0774 -0.4685
 5421TIP3    H237899   4.617   1.557   1.654 -0.3696  0.3773 -1.4529
 5422TIP3   OH237900   5.447   3.603   4.543 -0.0540  0.2916 -0.3120
 5422TIP3    H137901   5.425   3.685   4.499 -0.7896 -0.2267 -0.9443
 5422TIP3    H237902   5.541   3.594   4.532  0.0295  1.0481 -0.2376
 5423TIP3   OH237903   1.918   4.157   3.967 -0.6505 -0.0739  0.0971
 5423TIP3    H137904   1.998   4.177   4.016 -0.6535 -1.0361  0.5162
 5423TIP3    H237905   1.937   4.076   3.921 -1.8352 -1.0719  1.2863
 5424TIP3   OH237906   4.858   2.653   8.754  0.1837 -0.5224  0.2777
 5424TIP3    H137907   4.831   2.744   8.756  1.1718 -0.2043 -0.0806
 5424TIP3    H237908   4.788   2.608   8.706  0.2810  0.2715 -0.6322
 5425TIP3   OH237909   1.130   0.407   3.767 -0.4603  0.0433 -0.2748
 5425TIP3    H137910   1.062   0.368   3.713  1.5852  0.2959 -3.2518
 5425TIP3    H237911   1.121   0.501   3.752 -0.9574  0.2719  1.2965
 5426TIP3   OH237912   1.540   5.758   0.297  0.5431 -0.1253 -0.0492
 5426TIP3    H137913   1.490   5.737   0.376 -0.1052  1.3021 -0.0551
 5426TIP3    H237914   1.530   5.852   0.286  2.3859  0.0366 -0.6556
 5427TIP3   OH237915   0.121   0.550   8.378 -0.5728 -0.3284 -0.0975
 5427TIP3    H137916   0.102   0.604   8.454  1.0052  0.0704  0.0343
 5427TIP3    H237917   0.060   0.477   8.385 -0.3864 -0.3553  1.5999
 5428TIP3   OH237918   3.036   1.635   3.307  0.2936 -0.6803  0.3648
 5428TIP3    H137919   3.098   1.562   3.319 -0.4733 -1.4485 -0.2425
 5428TIP3    H237920   3.050   1.662   3.217  0.7284  0.0917  0.6534
 5429TIP3   OH237921   2.901   4.585   1.476 -0.9375  0.1949 -0.2883
 5429TIP3    H137922   2.821   4.553   1.518 -1.1639  1.0901 -0.0100
 5429TIP3    H237923   2.904   4.678   1.498 -0.4767  0.4455 -1.3427
 5430TIP3   OH237924   6.773   0.786   2.474  0.4748 -0.3373  0.2800
 5430TIP3    H137925   6.813   0.860   2.520  0.4084 -1.0902  1.6211
 5430TIP3    H237926   6.702   0.757   2.532  0.7775 -1.7070  0.0098
 5431TIP3   OH237927   4.252   4.224   4.568  0.0015 -0.5248 -0.0694
 5431TIP3    H137928   4.252   4.314   4.536 -1.9210 -1.1974 -2.2691
 5431TIP3    H237929   4.160   4.200   4.574  0.4657 -2.5799 -0.3088
 5432TIP3   OH237930   3.947   4.147   8.707  0.4503  0.3619 -0.1879
 5432TIP3    H137931   4.024   4.202   8.724  0.5307 -0.1389  1.2169
 5432TIP3    H237932   3.983   4.064   8.677  0.3550  0.8090 -1.6042
 5433TIP3   OH237933   1.867   4.526   1.784  0.3724  0.1937  0.0376
 5433TIP3    H137934   1.835   4.611   1.816  0.2836  0.0354  0.3743
 5433TIP3    H237935   1.903   4.484   1.862 -0.6074 -0.5446  0.1114
 5434TIP3   OH237936   6.041   3.559   1.352  0.3698  0.2912  0.2450
 5434TIP3    H137937   6.048   3.638   1.406 -0.5989  1.2044 -0.9124
 5434TIP3    H237938   6.084   3.582   1.270 -0.2487 -0.2554 -0.2416
 5435TIP3   OH237939   2.798   2.068   2.199 -0.3116  0.1183  0.8370
 5435TIP3    H137940   2.815   1.992   2.256  1.1922  0.3414  0.7199
 5435TIP3    H237941   2.805   2.032   2.110 -0.3595  0.2331  0.7880
 5436TIP3   OH237942   5.388   4.330   2.476 -0.0172 -0.0519 -0.0677
 5436TIP3    H137943   5.329   4.261   2.505  0.9660 -0.8972  0.0089
 5436TIP3    H237944   5.396   4.388   2.551  0.4298 -0.7739  0.4648
 5437TIP3   OH237945   3.559   3.328   0.623  0.4115 -0.5149 -0.4199
 5437TIP3    H137946   3.464   3.334   0.616  0.4087 -1.2951 -1.1856
 5437TIP3    H237947   3.576   3.238   0.653  0.9635 -0.9098 -1.8510
 5438TIP3   OH237948   2.537   4.868   1.185  0.1264  0.2098  0.3786
 5438TIP3    H137949   2.621   4.914   1.189  1.0252 -1.3450  0.0098
 5438TIP3    H237950   2.483   4.912   1.252  1.1336  1.3743  0.4662
 5439TIP3   OH237951   4.205   2.135   2.966  0.8494  0.1575  0.6324
 5439TIP3    H137952   4.143   2.075   3.008  0.3255 -0.7469 -1.2686
 5439TIP3    H237953   4.238   2.086   2.891  0.6023  2.1432 -0.8708
 5440TIP3   OH237954   5.273   3.352   3.001 -0.4258 -0.2883 -0.5384
 5440TIP3    H137955   5.261   3.447   2.998  0.0303 -0.1879  0.3757
 5440TIP3    H237956   5.334   3.338   3.073 -0.8896 -1.3157 -0.3233
 5441TIP3   OH237957   4.985   3.776   8.746 -0.3498 -0.5515 -0.7436
 5441TIP3    H137958   5.058   3.797   8.687  0.8492 -0.0357  0.8377
 5441TIP3    H237959   4.984   3.849   8.809 -0.5596 -1.8483  0.8096
 5442TIP3   OH237960   1.411   0.990   1.962 -0.0739 -0.0003 -0.1881
 5442TIP3    H137961   1.366   0.917   1.921  1.1828 -1.0610  0.2723
 5442TIP3    H237962   1.430   0.961   2.051 -0.0640  1.1097  0.1955
 5443TIP3   OH237963   4.712   6.518   2.260 -0.3521  0.0907  0.0367
 5443TIP3    H137964   4.767   6.443   2.284 -0.2535  0.0816 -0.2137
 5443TIP3    H237965   4.747   6.590   2.312  1.6740  0.7410 -2.0659
 5444TIP3   OH237966   1.774   6.417   0.901 -0.7763 -0.1118 -0.4756
 5444TIP3    H137967   1.861   6.439   0.867 -0.4319  1.6599  1.3599
 5444TIP3    H237968   1.790   6.349   0.965 -1.0875 -1.4790 -1.7937
 5445TIP3   OH237969   6.467   0.773   2.106  0.6508 -0.0422  0.2014
 5445TIP3    H137970   6.391   0.831   2.109  0.9857  0.4273 -0.2591
 5445TIP3    H237971   6.534   0.817   2.159  0.0357 -1.3327  2.2087
 5446TIP3   OH237972   5.254   6.142   1.235  0.3503  0.4169 -0.2822
 5446TIP3    H137973   5.339   6.108   1.207  0.4281  0.9208 -0.6739
 5446TIP3    H237974   5.230   6.206   1.167  0.2331  1.1829  0.4568
 5447TIP3   OH237975   4.272   3.445   3.484 -0.2855  0.3612 -0.3207
 5447TIP3    H137976   4.356   3.404   3.467 -0.5388  0.2855 -1.5087
 5447TIP3    H237977   4.215   3.374   3.512  0.1778  0.5092  1.0871
 5448TIP3   OH237978   2.801   1.430   4.288 -0.2646  0.2141  0.1364
 5448TIP3    H137979   2.873   1.370   4.271 -0.0745  0.5388 -0.2073
 5448TIP3    H237980   2.843   1.511   4.318 -0.4852  0.3845 -0.0088
 5449TIP3   OH237981   6.159   1.769   0.725 -0.1491 -0.4026  0.2184
 5449TIP3    H137982   6.119   1.721   0.797 -1.6991 -2.1389 -1.6773
 5449TIP3    H237983   6.208   1.702   0.676 -0.0303  0.5023 -0.9414
 5450TIP3   OH237984   1.414   4.038   3.965  0.3229 -0.8635  0.6855
 5450TIP3    H137985   1.464   3.958   3.981  0.7049 -0.4541  1.6542
 5450TIP3    H237986   1.468   4.108   4.002  1.6125  0.3471 -2.9789
 5451TIP3   OH237987   0.863   5.928   0.947 -0.1470  0.3589  0.2760
 5451TIP3    H137988   0.837   5.892   1.032  1.2942 -0.2531  0.4815
 5451TIP3    H237989   0.822   6.015   0.945 -1.2142 -0.0984  1.0505
 5452TIP3   OH237990   2.058   4.513   0.150  0.3350  0.1086  0.2225
 5452TIP3    H137991   2.034   4.464   0.229  0.3558 -0.5157 -0.1573
 5452TIP3    H237992   2.052   4.605   0.177  0.7394 -0.1002  1.0737
 5453TIP3   OH237993   5.670   6.593   0.987 -0.8100 -0.1800 -0.1232
 5453TIP3    H137994   5.743   6.537   0.960 -0.6325  0.6441 -1.5023
 5453TIP3    H237995   5.693   6.624   1.074  0.1071 -0.5803 -0.2189
 5454TIP3   OH237996   0.905   1.361   2.343  0.2623  0.3257 -0.2615
 5454TIP3    H137997   0.967   1.382   2.412 -0.3487 -0.8551  0.6783
 5454TIP3    H237998   0.825   1.410   2.365 -0.4928 -1.3135  0.8353
 5455TIP3   OH237999   5.276   3.556   0.206 -0.0017  0.3208  0.0993
 5455TIP3    H138000   5.226   3.636   0.221 -0.8099 -0.1706  0.1122
 5455TIP3    H238001   5.224   3.487   0.248  1.3536 -0.0307  1.2747
 5456TIP3   OH238002   4.456   2.364   0.998 -0.1835  0.0776 -0.0764
 5456TIP3    H138003   4.439   2.272   1.016 -2.7086  0.2370 -1.2417
 5456TIP3    H238004   4.480   2.366   0.905 -2.9201  0.8009 -0.8426
 5457TIP3   OH238005   2.016   0.257   2.716  0.3712 -0.5563  0.5300
 5457TIP3    H138006   1.926   0.253   2.750  0.8863 -0.0060  2.0442
 5457TIP3    H238007   2.035   0.350   2.708  0.6276 -0.6760 -0.3085
 5458TIP3   OH238008   2.182   2.915   2.369 -0.4424  0.3348 -0.0773
 5458TIP3    H138009   2.143   2.831   2.393 -3.0551  1.1252 -1.1961
 5458TIP3    H238010   2.237   2.896   2.294 -0.1026 -0.5486  0.3875
 5459TIP3   OH238011   3.406   3.695   2.200  0.0155 -0.0091 -0.3546
 5459TIP3    H138012   3.335   3.632   2.212  0.0407 -0.2356 -1.3696
 5459TIP3    H238013   3.399   3.753   2.277 -0.8664 -0.4053 -0.1182
 5460TIP3   OH238014   3.945   1.388   8.683  0.0998 -0.2822 -0.2012
 5460TIP3    H138015   4.016   1.334   8.647  0.3122 -0.5753  0.6345
 5460TIP3    H238016   3.870   1.368   8.627  0.6224 -0.0990 -0.9948
 5461TIP3   OH238017   2.233   0.290   3.481 -0.2078  0.1568 -0.0381
 5461TIP3    H138018   2.173   0.362   3.460 -1.2373 -0.6803 -0.0682
 5461TIP3    H238019   2.295   0.289   3.409  0.1076  1.2971  0.1942
 5462TIP3   OH238020   0.219   3.553   1.280 -0.6774 -0.2600  0.5324
 5462TIP3    H138021   0.308   3.563   1.316 -0.9854 -1.9277  1.8788
 5462TIP3    H238022   0.166   3.528   1.356 -2.3732  0.9599 -0.2038
 5463TIP3   OH238023   0.262   4.680   2.148  0.7481  0.0007  0.2384
 5463TIP3    H138024   0.241   4.753   2.090 -0.0861 -1.2286 -1.0827
 5463TIP3    H238025   0.356   4.669   2.139  1.1429  1.8455  1.6426
 5464TIP3   OH238026   3.726   1.564   0.353  1.0791 -0.0918  0.3510
 5464TIP3    H138027   3.779   1.541   0.276 -0.6499 -0.2483 -0.8544
 5464TIP3    H238028   3.734   1.488   0.411  0.5564 -1.0159 -0.7424
 5465TIP3   OH238029   4.867   6.076   1.620 -0.1765 -0.3604  0.5309
 5465TIP3    H138030   4.871   6.044   1.710 -0.4329 -1.1384  0.2749
 5465TIP3    H238031   4.857   5.997   1.567 -0.1415  0.0996 -0.1715
 5466TIP3   OH238032   3.981   5.774   8.632 -0.3672 -0.0173 -0.2536
 5466TIP3    H138033   4.072   5.791   8.655 -0.1899  0.8116 -1.4680
 5466TIP3    H238034   3.972   5.679   8.637  0.5101 -0.0885  0.0641
 5467TIP3   OH238035   0.755   3.501   8.291 -0.1212  0.1640  0.2422
 5467TIP3    H138036   0.791   3.580   8.251  1.0276 -0.5626 -0.2155
 5467TIP3    H238037   0.832   3.449   8.315 -0.8438 -1.0794 -0.0160
 5468TIP3   OH238038   1.158   2.832   3.046 -0.2132  0.2311 -0.6096
 5468TIP3    H138039   1.110   2.824   2.963 -0.6954  0.5193 -0.3627
 5468TIP3    H238040   1.232   2.773   3.036  0.3149  1.0399 -1.6534
 5469TIP3   OH238041   0.873   0.585   8.292 -0.0076  0.2018  0.3782
 5469TIP3    H138042   0.917   0.670   8.305 -0.4657  0.6191 -0.6435
 5469TIP3    H238043   0.797   0.606   8.237 -1.2057 -0.5890  1.6736
 5470TIP3   OH238044   5.265   1.099   1.216 -0.1114 -0.6116  0.8055
 5470TIP3    H138045   5.240   1.127   1.304  1.2655 -2.5327  1.8873
 5470TIP3    H238046   5.231   1.010   1.208 -1.0681 -0.1433 -1.0337
 5471TIP3   OH238047   4.475   2.134   1.960  0.1229 -0.3072  0.4095
 5471TIP3    H138048   4.447   2.224   1.975  1.0915 -0.4323  3.6470
 5471TIP3    H238049   4.423   2.105   1.884 -0.0413  2.9738 -0.8836
 5472TIP3   OH238050   6.702   1.178   0.988 -0.0258  0.0808  0.2126
 5472TIP3    H138051   6.736   1.127   0.915  1.8853  0.0121  1.0993
 5472TIP3    H238052   6.757   1.154   1.062  0.0447  2.3835  0.9908
 5473TIP3   OH238053   1.612   6.008   3.362 -0.5072  0.1477 -0.1499
 5473TIP3    H138054   1.654   6.089   3.332 -0.9742  0.7026  0.6545
 5473TIP3    H238055   1.651   5.991   3.448 -0.0808 -0.7431 -0.5058
 5474TIP3   OH238056   3.163   6.154   1.210  0.8823 -0.8131  0.4590
 5474TIP3    H138057   3.201   6.084   1.262  2.8825  1.7281  2.7174
 5474TIP3    H238058   3.228   6.171   1.141  2.3281  1.1486  2.1703
 5475TIP3   OH238059   4.928   6.403   0.540 -0.3635 -0.0606  0.3147
 5475TIP3    H138060   4.939   6.334   0.605  0.3607  0.8028  1.1172
 5475TIP3    H238061   4.960   6.482   0.582 -2.3379  1.0445 -0.1348
 5476TIP3   OH238062   0.684   1.906   3.798 -0.0782 -0.3152 -0.1190
 5476TIP3    H138063   0.773   1.907   3.832 -0.0627 -0.3001 -0.1595
 5476TIP3    H238064   0.688   1.848   3.722 -0.6565 -2.4097  1.3743
 5477TIP3   OH238065   2.640   1.783   1.116  0.1493 -0.1923 -0.2163
 5477TIP3    H138066   2.660   1.705   1.065 -0.8832 -1.0648  0.6938
 5477TIP3    H238067   2.672   1.855   1.062  3.5948 -1.3187  0.0660
 5478TIP3   OH238068   2.946   5.232   3.817  0.0203  0.0051 -0.1581
 5478TIP3    H138069   2.874   5.254   3.757 -0.0174  2.3827  0.6523
 5478TIP3    H238070   2.979   5.148   3.785 -1.9633 -0.2929 -1.6316
 5479TIP3   OH238071   5.803   6.204   2.297  0.4981 -0.1132  0.0285
 5479TIP3    H138072   5.759   6.285   2.270 -0.6414 -1.0173 -0.9633
 5479TIP3    H238073   5.892   6.231   2.318  0.1537  1.3937 -0.3297
 5480TIP3   OH238074   4.960   4.391   0.843  0.3413 -0.2760  0.3459
 5480TIP3    H138075   5.026   4.335   0.884  0.6370 -0.2092 -0.0258
 5480TIP3    H238076   5.012   4.452   0.790  0.0364  0.4466  0.8661
 5481TIP3   OH238077   1.352   3.202   2.214  0.0800  0.4566 -0.0963
 5481TIP3    H138078   1.275   3.170   2.168  0.2120 -0.8266  0.5253
 5481TIP3    H238079   1.318   3.236   2.297  0.1610  0.0506  0.1040
 5482TIP3   OH238080   5.609   2.047   2.783  0.5633  0.4816  0.8552
 5482TIP3    H138081   5.518   2.036   2.809  0.8635 -2.0027  1.0380
 5482TIP3    H238082   5.606   2.118   2.719 -1.4892  0.4804  0.8735
 5483TIP3   OH238083   2.888   5.051   0.706  0.1751  0.3197 -0.4432
 5483TIP3    H138084   2.797   5.078   0.718  0.1078 -0.6088  1.4224
 5483TIP3    H238085   2.884   4.991   0.631 -0.9286 -0.5064  0.2444
 5484TIP3   OH238086   2.551   3.741   8.190  0.1995  0.2625  0.2128
 5484TIP3    H138087   2.560   3.711   8.281  0.0759  0.7158  0.3743
 5484TIP3    H238088   2.457   3.758   8.180  0.1115 -0.3987 -0.1972
 5485TIP3   OH238089   1.443   5.946   3.753 -0.2027 -0.5779  0.6316
 5485TIP3    H138090   1.523   5.966   3.704 -1.1957  0.2595 -0.7442
 5485TIP3    H238091   1.448   5.852   3.770 -0.1154 -1.0769 -1.7525
 5486TIP3   OH238092   6.290   0.820   3.142 -0.5737 -0.3513 -0.0523
 5486TIP3    H138093   6.363   0.821   3.081 -0.7730  0.3096 -0.2899
 5486TIP3    H238094   6.330   0.811   3.228 -0.0174  2.2487  0.0446
 5487TIP3   OH238095   1.428   5.168   3.236 -0.2284  0.0832 -0.0334
 5487TIP3    H138096   1.335   5.166   3.259 -0.1221  0.9192  0.5017
 5487TIP3    H238097   1.429   5.158   3.141 -0.8124 -0.7836  0.0450
 5488TIP3   OH238098   6.332   1.217   3.161 -0.5658  0.3046 -0.2340
 5488TIP3    H138099   6.392   1.279   3.202 -2.3911  2.3189 -0.4279
 5488TIP3    H238100   6.361   1.211   3.070  0.1260  0.2082 -0.0111
 5489TIP3   OH238101   1.898   3.998   0.971  0.3870  0.3125 -0.5623
 5489TIP3    H138102   1.981   4.009   1.017 -0.1426 -0.7878  0.7397
 5489TIP3    H238103   1.839   4.061   1.012  0.0354 -0.3644  0.0102
 5490TIP3   OH238104   2.693   2.938   0.675  0.3110  0.1886  0.7076
 5490TIP3    H138105   2.702   2.998   0.749  2.7215  0.2538  0.4313
 5490TIP3    H238106   2.756   2.868   0.693  1.0408  0.2605 -1.3067
 5491TIP3   OH238107   1.441   6.150   1.143 -0.1082  0.2806 -0.0588
 5491TIP3    H138108   1.455   6.142   1.049 -0.5803  2.1426 -0.3189
 5491TIP3    H238109   1.530   6.144   1.180  0.2041  0.6504 -0.7225
 5492TIP3   OH238110   2.115   1.350   0.338 -0.2602 -0.8448  0.0399
 5492TIP3    H138111   2.203   1.377   0.312 -0.7808  0.7971 -0.0776
 5492TIP3    H238112   2.112   1.367   0.432 -1.0074  0.7373 -0.2524
 5493TIP3   OH238113   4.859   4.773   2.378  0.0645  0.2174 -0.6960
 5493TIP3    H138114   4.804   4.764   2.301 -0.0902 -0.4516 -0.5082
 5493TIP3    H238115   4.928   4.708   2.367  0.0174  0.0875 -0.2481
 5494TIP3   OH238116   2.446   4.428   0.358 -0.2887 -0.2068  0.4412
 5494TIP3    H138117   2.378   4.488   0.325 -2.1485 -2.4718 -0.1185
 5494TIP3    H238118   2.404   4.382   0.431  1.0031 -0.9980  0.7186
 5495TIP3   OH238119   6.746   2.543   3.471  0.2469  0.1039  0.6344
 5495TIP3    H138120   6.662   2.589   3.468  0.3862  0.4194  1.3377
 5495TIP3    H238121   6.803   2.595   3.414 -0.1681 -0.4174 -0.2836
 5496TIP3   OH238122   0.736   4.973   1.613  0.1263 -0.3090 -0.3820
 5496TIP3    H138123   0.701   5.015   1.534  0.6108  1.5387  0.3346
 5496TIP3    H238124   0.658   4.945   1.661 -0.1746 -1.5144 -1.4942
 5497TIP3   OH238125   0.779   4.265   0.859 -0.1949  0.0403  0.8884
 5497TIP3    H138126   0.828   4.269   0.777 -3.2398  0.0885 -1.1103
 5497TIP3    H238127   0.788   4.174   0.887  1.7040  0.2643  1.1033
 5498TIP3   OH238128   1.555   3.921   2.486 -0.5304  0.3941 -0.6576
 5498TIP3    H138129   1.485   3.881   2.537 -0.1181  0.7487  0.2217
 5498TIP3    H238130   1.631   3.918   2.544 -0.4277  2.2224 -0.6543
 5499TIP3   OH238131   4.849   5.017   1.787 -0.1785 -0.0722  0.1993
 5499TIP3    H138132   4.938   4.991   1.808 -0.6890 -1.7431  0.4334
 5499TIP3    H238133   4.829   5.087   1.849  0.5556 -0.4996  0.9420
 5500TIP3   OH238134   0.517   3.626   1.026  0.0197  0.6400  0.3891
 5500TIP3    H138135   0.468   3.695   1.071 -0.4028 -0.7220  2.1433
 5500TIP3    H238136   0.495   3.638   0.934 -2.6431  0.8880  0.9570
 5501TIP3   OH238137   5.993   2.848   0.080 -0.1783  0.2382  0.1467
 5501TIP3    H138138   6.048   2.836   0.003  0.6719  0.3831  0.7204
 5501TIP3    H238139   5.983   2.943   0.088 -0.0841  0.2330  0.3349
 5502TIP3   OH238140   1.663   1.622   2.627  0.4446  0.3841 -0.0691
 5502TIP3    H138141   1.697   1.634   2.539  1.5290 -1.8455 -0.0243
 5502TIP3    H238142   1.739   1.631   2.684 -0.3945  2.7842  0.8149
 5503TIP3   OH238143   2.530   6.066   1.592  0.3939 -0.5582  0.7723
 5503TIP3    H138144   2.492   6.142   1.547  0.6247 -1.2892 -0.7208
 5503TIP3    H238145   2.502   6.076   1.683  0.6974  1.4940  0.6943
 5504TIP3   OH238146   0.130   2.516   1.979 -0.1355  0.2244 -0.1773
 5504TIP3    H138147   0.142   2.477   1.893 -1.7289  0.9975 -0.7950
 5504TIP3    H238148   0.095   2.446   2.033 -0.3811  0.0690 -0.5345
 5505TIP3   OH238149   1.011   0.507   8.845 -0.2113 -0.1612 -0.8030
 5505TIP3    H138150   0.974   0.425   8.878 -0.9931  0.3109 -0.4766
 5505TIP3    H238151   0.960   0.575   8.888  0.2231  0.4958 -1.3120
 5506TIP3   OH238152   0.088   1.541   8.627  0.2204 -0.2875  0.3545
 5506TIP3    H138153   0.172   1.536   8.580 -0.3984 -0.9407 -0.7351
 5506TIP3    H238154   0.112   1.567   8.716  1.3352  2.3258 -0.6115
 5507TIP3   OH238155   4.486   3.475   2.034 -0.1061 -0.2250  0.0735
 5507TIP3    H138156   4.476   3.402   2.096  2.2541 -0.3313  0.4046
 5507TIP3    H238157   4.397   3.490   2.001 -0.7697 -2.8254  0.4630
 5508TIP3   OH238158   1.728   0.177   1.958  0.0682  0.4126 -0.2366
 5508TIP3    H138159   1.655   0.133   2.002 -1.1366 -1.0258 -3.3262
 5508TIP3    H238160   1.806   0.138   1.994 -0.7838 -0.0284  1.2033
 5509TIP3   OH238161   5.339   0.703   2.099 -0.0272  0.5156 -0.1778
 5509TIP3    H138162   5.328   0.796   2.117  0.4875  0.7983 -1.2571
 5509TIP3    H238163   5.252   0.673   2.074 -0.0117  0.9179 -0.7251
 5510TIP3   OH238164   5.167   5.349   3.342  0.5502  0.6293 -0.2141
 5510TIP3    H138165   5.229   5.411   3.380  0.9108  0.1764 -0.0657
 5510TIP3    H238166   5.109   5.403   3.288  0.2495  1.2347  0.6942
 5511TIP3   OH238167   6.466   6.652   3.007 -0.5309  0.2790 -0.4024
 5511TIP3    H138168   6.476   6.715   2.935 -1.5483  1.2702  0.2996
 5511TIP3    H238169   6.411   6.697   3.071  1.2036 -0.1778  1.5032
 5512TIP3   OH238170   3.517   0.872   3.843 -0.0628  0.6595 -0.8104
 5512TIP3    H138171   3.552   0.911   3.923 -0.5313 -0.1733 -0.1751
 5512TIP3    H238172   3.527   0.778   3.856  2.0538  0.5492 -2.7834
 5513TIP3   OH238173   5.130   4.166   1.437  0.1199 -0.3722  0.3129
 5513TIP3    H138174   5.182   4.088   1.454 -0.0029 -0.4773  0.2102
 5513TIP3    H238175   5.194   4.233   1.414  0.2006 -0.5355  0.0564
 5514TIP3   OH238176   0.713   0.380   3.118  0.3370 -0.2610 -0.0846
 5514TIP3    H138177   0.664   0.364   3.198  0.9672 -0.5511  0.2483
 5514TIP3    H238178   0.702   0.474   3.101  0.1038 -0.2239  0.2691
 5515TIP3   OH238179   3.170   2.970   2.141  0.2733  0.4924 -0.2349
 5515TIP3    H138180   3.147   2.920   2.062 -2.0259 -1.0593  1.2493
 5515TIP3    H238181   3.145   2.912   2.213  1.8396  2.0313  1.6666
 5516TIP3   OH238182   0.864   2.797   0.713 -0.0778 -0.6910 -0.3225
 5516TIP3    H138183   0.869   2.794   0.808  0.3285 -1.8001 -0.3615
 5516TIP3    H238184   0.806   2.724   0.690  1.7028 -1.9739 -1.0128
 5517TIP3   OH238185   5.916   3.507   8.616 -0.1888 -0.3311  0.3733
 5517TIP3    H138186   5.914   3.454   8.696 -1.2761  1.5102  1.6425
 5517TIP3    H238187   5.862   3.583   8.637  1.7889  1.5846 -1.1545
 5518TIP3   OH238188   4.045   5.907   3.642 -0.3796  0.3311  0.7462
 5518TIP3    H138189   3.975   5.923   3.705 -1.7123 -0.6753 -0.4175
 5518TIP3    H238190   4.003   5.859   3.571  1.2552  0.7278 -0.5469
 5519TIP3   OH238191   0.977   4.724   2.351 -0.0511  0.0681 -0.0382
 5519TIP3    H138192   0.960   4.803   2.401 -1.9757 -0.3502  0.0376
 5519TIP3    H238193   0.895   4.706   2.305  0.9280 -0.8493 -1.5292
 5520TIP3   OH238194   4.253   4.191   2.042  0.2530 -0.1341 -0.2616
 5520TIP3    H138195   4.266   4.279   2.006  0.7945 -0.2609 -0.3887
 5520TIP3    H238196   4.164   4.168   2.016  0.2976  0.1608 -0.7013
 5521TIP3   OH238197   4.316   1.607   3.503 -0.5494  0.1499  0.3237
 5521TIP3    H138198   4.388   1.561   3.460 -0.7505 -1.5715  1.7056
 5521TIP3    H238199   4.257   1.631   3.432  0.8760  0.7144 -0.7259
 5522TIP3   OH238200   2.910   5.449   1.307  0.7561 -0.1673 -0.4799
 5522TIP3    H138201   2.988   5.437   1.252  1.9591 -0.9769  1.2878
 5522TIP3    H238202   2.884   5.539   1.291  0.2128 -0.7280 -3.3459
 5523TIP3   OH238203   2.070   2.786   0.720  0.3154  0.3281  0.2498
 5523TIP3    H138204   2.098   2.866   0.677 -1.8464  0.8967 -0.2508
 5523TIP3    H238205   2.084   2.801   0.813  1.7782  0.4731  0.0211
 5524TIP3   OH238206   3.720   1.205   0.790 -0.6807 -0.1813  0.1730
 5524TIP3    H138207   3.633   1.178   0.820 -1.6886  1.6933 -0.8878
 5524TIP3    H238208   3.756   1.254   0.864 -0.1503 -1.6158  0.9111
 5525TIP3   OH238209   5.922   0.528   2.364 -0.0784 -0.0564 -0.5249
 5525TIP3    H138210   5.967   0.613   2.364 -0.4957  0.1673 -1.0039
 5525TIP3    H238211   5.829   0.550   2.362 -0.1826 -0.5272 -1.2058
 5526TIP3   OH238212   1.912   6.159   8.185 -0.0602 -0.1703  0.3250
 5526TIP3    H138213   1.904   6.254   8.170 -3.0337 -0.3267  0.3548
 5526TIP3    H238214   1.852   6.142   8.257 -0.9979 -2.3529 -0.9040
 5527TIP3   OH238215   3.903   0.599   8.797  0.1092 -0.3402 -0.3844
 5527TIP3    H138216   3.975   0.570   8.741 -0.5541 -1.3684 -0.7412
 5527TIP3    H238217   3.857   0.664   8.744  1.0312  0.6526  0.0238
 5528TIP3   OH238218   2.619   3.985   2.461  0.1605 -0.0543 -0.1994
 5528TIP3    H138219   2.617   4.070   2.504  2.1617 -0.0273 -0.0516
 5528TIP3    H238220   2.702   3.984   2.413 -0.5013 -1.3584 -1.3944
 5529TIP3   OH238221   1.943   2.928   2.212 -0.0270 -0.5544  0.4902
 5529TIP3    H138222   1.988   2.975   2.142  0.6534 -0.2512  1.1080
 5529TIP3    H238223   2.010   2.916   2.279 -0.4454 -1.5887  0.7347
 5530TIP3   OH238224   4.404   3.744   2.613 -0.0878  0.1278 -0.0011
 5530TIP3    H138225   4.488   3.714   2.579 -0.6711 -0.1909 -1.2489
 5530TIP3    H238226   4.353   3.664   2.626 -0.3168  0.3380  0.4257
 5531TIP3   OH238227   3.503   4.080   1.083 -0.1452 -0.8044 -0.3220
 5531TIP3    H138228   3.564   4.122   1.022  0.4478 -0.8803  0.2174
 5531TIP3    H238229   3.490   3.992   1.047 -1.6515 -0.0966 -1.6444
 5532TIP3   OH238230   5.639   4.337   1.737 -0.1732  0.5830  0.7506
 5532TIP3    H138231   5.731   4.356   1.718 -0.3548 -0.6576 -1.7266
 5532TIP3    H238232   5.639   4.306   1.827  1.9590 -0.0797  0.5757
 5533TIP3   OH238233   6.212   4.622   1.326 -0.2507 -0.0482 -0.1607
 5533TIP3    H138234   6.295   4.667   1.310 -0.6585  0.6432 -0.3556
 5533TIP3    H238235   6.145   4.686   1.302 -0.8476 -0.4192  0.4964
 5534TIP3   OH238236   1.384   2.919   1.336  0.5193 -0.5006 -0.1751
 5534TIP3    H138237   1.466   2.915   1.385 -0.6467  0.3118  1.9295
 5534TIP3    H238238   1.344   3.002   1.361 -0.6043 -0.5205 -1.7595
 5535TIP3   OH238239   4.582   6.657   1.149  0.1781 -0.0206  0.4939
 5535TIP3    H138240   4.499   6.656   1.197  0.7079  2.2840  1.6010
 5535TIP3    H238241   4.612   6.748   1.154  3.0366 -0.8606  0.5709
 5536TIP3   OH238242   2.865   5.674   3.480 -0.0163 -0.2257 -0.1543
 5536TIP3    H138243   2.856   5.746   3.543 -1.2780 -1.3228  0.9891
 5536TIP3    H238244   2.775   5.648   3.462  0.3948 -0.7926 -1.4264
 5537TIP3   OH238245   6.735   1.938   2.979 -0.4439 -0.2402 -0.7825
 5537TIP3    H138246   6.750   1.990   3.057  3.0751  0.1870 -1.5614
 5537TIP3    H238247   6.646   1.960   2.952 -0.5386  2.2446  1.1691
 5538TIP3   OH238248   3.450   1.701   3.314  0.0358 -0.0552  0.0093
 5538TIP3    H138249   3.519   1.642   3.285  1.3523  0.5792  1.7281
 5538TIP3    H238250   3.378   1.643   3.339  0.1010 -0.7434 -1.2953
 5539TIP3   OH238251   6.556   5.895   3.101 -0.0118  0.4276  0.2710
 5539TIP3    H138252   6.537   5.832   3.170  0.1015  0.7419  0.5946
 5539TIP3    H238253   6.640   5.934   3.127  1.2623 -1.1471 -1.2709
 5540TIP3   OH238254   1.940   5.866   0.155 -0.3180 -0.3049 -0.4500
 5540TIP3    H138255   2.002   5.930   0.120  0.7448 -1.6433 -1.1714
 5540TIP3    H238256   1.864   5.872   0.098  0.4135 -0.7404 -1.5221
 5541TIP3   OH238257   5.325   0.376   2.365 -0.4362  0.2418 -0.2294
 5541TIP3    H138258   5.384   0.433   2.315 -2.0399  1.0993 -1.2405
 5541TIP3    H238259   5.353   0.385   2.456  0.1986  1.6021 -0.5373
 5542TIP3   OH238260   0.429   1.685   2.194  0.2588 -0.3072 -0.2836
 5542TIP3    H138261   0.509   1.721   2.231 -0.1326  0.5809 -0.2783
 5542TIP3    H238262   0.375   1.761   2.173 -0.9103 -0.8949  0.4375
 5543TIP3   OH238263   6.368   4.399   2.608 -0.2524  0.0551  0.1298
 5543TIP3    H138264   6.279   4.387   2.641 -0.5711  0.6645 -0.4856
 5543TIP3    H238265   6.420   4.335   2.656 -0.8011  0.5282  1.4081
 5544TIP3   OH238266   5.745   1.399   2.584  0.3015  0.1411 -0.0251
 5544TIP3    H138267   5.694   1.405   2.503  0.7396  0.2116 -0.3009
 5544TIP3    H238268   5.680   1.402   2.654 -0.2035 -1.4067 -0.3919
 5545TIP3   OH238269   1.173   3.952   0.849  0.0693 -0.0670 -0.4241
 5545TIP3    H138270   1.131   4.022   0.799 -0.6397  0.1344  0.4218
 5545TIP3    H238271   1.202   3.995   0.930  1.4607 -0.3194 -0.7682
 5546TIP3   OH238272   6.078   5.932   1.882 -0.0793  0.1701 -0.3320
 5546TIP3    H138273   6.128   5.850   1.883 -0.1557  0.1036 -1.2398
 5546TIP3    H238274   5.991   5.907   1.912 -0.6033 -0.4498 -2.2134
 5547TIP3   OH238275   5.972   0.754   3.785 -0.2437 -0.2923  0.1211
 5547TIP3    H138276   5.982   0.660   3.767 -0.1537 -0.4562  0.9990
 5547TIP3    H238277   6.051   0.794   3.748 -0.8518 -0.3900 -1.3614
 5548TIP3   OH238278   5.663   6.333   1.836  0.7668 -0.1658 -0.1282
 5548TIP3    H138279   5.732   6.371   1.890  0.0867 -0.8770  1.3194
 5548TIP3    H238280   5.626   6.407   1.787 -0.5848  1.1651  2.6575
 5549TIP3   OH238281   6.140   0.997   4.018 -0.0696  1.0522 -0.0115
 5549TIP3    H138282   6.224   0.975   4.057  0.3681  0.7404 -1.1054
 5549TIP3    H238283   6.092   0.914   4.016 -0.6554  1.3380  1.1591
 5550TIP3   OH238284   1.686   6.034   1.262 -0.4440 -0.0490  0.3835
 5550TIP3    H138285   1.737   5.981   1.202  1.2481  1.7660  0.1524
 5550TIP3    H238286   1.696   5.990   1.347  0.1129 -0.6432  0.0174
 5551TIP3   OH238287   3.492   1.550   1.226 -0.1363 -0.1347  0.2345
 5551TIP3    H138288   3.527   1.604   1.155  1.1612 -0.0187  0.9368
 5551TIP3    H238289   3.484   1.610   1.300  2.1106 -1.0148  1.2763
 5552TIP3   OH238290   1.851   3.955   2.595 -0.1401 -0.5749 -0.0547
 5552TIP3    H138291   1.849   4.029   2.656  1.1487  0.2013 -0.8952
 5552TIP3    H238292   1.851   3.877   2.652  2.7645  0.1141  1.1020
 5553TIP3   OH238293   0.264   2.885   3.180 -0.4563  0.0869 -0.0360
 5553TIP3    H138294   0.189   2.943   3.168 -0.6986 -0.7185 -3.2337
 5553TIP3    H238295   0.340   2.943   3.183 -0.7930  0.7095 -2.0902
 5554TIP3   OH238296   5.911   0.941   3.562 -0.1213 -0.0318  0.8042
 5554TIP3    H138297   5.938   0.869   3.505  0.7057  0.6330  0.3380
 5554TIP3    H238298   5.903   0.901   3.649  0.8550 -0.5802  0.6544
 5555TIP3   OH238299   0.728   1.403   0.313 -0.6313 -0.6438 -0.4154
 5555TIP3    H138300   0.698   1.318   0.346  0.5681 -1.4378 -1.2683
 5555TIP3    H238301   0.762   1.383   0.226 -0.3546  0.7344 -0.6366
 5556TIP3   OH238302   6.539   0.767   2.598  0.4118 -0.4349  0.3992
 5556TIP3    H138303   6.525   0.785   2.691 -0.5633  0.5113  0.0951
 5556TIP3    H238304   6.453   0.779   2.558  0.9425 -0.2112 -0.7235
 5557TIP3   OH238305   1.000   5.749   0.198 -0.1148  0.6820  0.1942
 5557TIP3    H138306   1.071   5.762   0.262  0.0866 -1.0520  0.3685
 5557TIP3    H238307   1.029   5.797   0.121  0.1150  1.9773  1.0543
 5558TIP3   OH238308   2.269   4.017   8.295 -0.4503  0.3492 -0.3810
 5558TIP3    H138309   2.354   4.059   8.303 -0.2782 -0.3296  3.2438
 5558TIP3    H238310   2.207   4.081   8.329 -0.7579 -0.6279  1.0073
 5559TIP3   OH238311   1.084   4.806   8.602 -0.4194  0.3300 -0.2194
 5559TIP3    H138312   1.161   4.862   8.609 -0.9798  1.1090 -0.1351
 5559TIP3    H238313   1.076   4.787   8.509 -1.3575  2.0585 -0.5403
 5560TIP3   OH238314   6.465   4.132   3.590 -0.6750 -0.3225  0.0806
 5560TIP3    H138315   6.507   4.148   3.505 -1.5949 -0.4817 -0.4252
 5560TIP3    H238316   6.376   4.105   3.567 -1.2143  0.5136  1.1244
 5561TIP3   OH238317   3.840   3.934   0.885  0.3969 -0.1286  0.4477
 5561TIP3    H138318   3.841   3.839   0.899  2.8237 -0.9089 -3.4007
 5561TIP3    H238319   3.790   3.945   0.804  1.5414  1.6200 -0.0713
 5562TIP3   OH238320   5.896   3.801   3.122 -0.0031  0.1950 -0.1402
 5562TIP3    H138321   5.845   3.778   3.045  3.3307 -0.6019 -2.3413
 5562TIP3    H238322   5.921   3.716   3.160  0.9397  0.4747 -0.0905
 5563TIP3   OH238323   3.364   6.273   4.213 -0.1448  0.3922  0.4363
 5563TIP3    H138324   3.351   6.206   4.146  0.0407 -0.0139  0.8025
 5563TIP3    H238325   3.434   6.239   4.268  0.0176  0.9326  0.5716
 5564TIP3   OH238326   5.884   5.310   2.060 -0.5693  0.3807  0.2323
 5564TIP3    H138327   5.934   5.373   2.007  2.2325 -2.0367 -0.2802
 5564TIP3    H238328   5.919   5.320   2.148 -2.2331  1.4839  0.8159
 5565TIP3   OH238329   6.520   1.908   2.017 -0.5179  0.1337 -0.2120
 5565TIP3    H138330   6.447   1.956   1.977 -0.4423 -0.6360 -1.3193
 5565TIP3    H238331   6.514   1.820   1.980 -0.3255 -0.5797  1.3634
 5566TIP3   OH238332   3.586   6.521   1.898  0.1095  0.2514 -0.5173
 5566TIP3    H138333   3.655   6.509   1.963 -0.5547  1.6868  0.4863
 5566TIP3    H238334   3.545   6.604   1.920 -1.4857 -0.2094 -1.5337
 5567TIP3   OH238335   2.572   4.199   2.757  0.1635  0.2545  0.4040
 5567TIP3    H138336   2.621   4.127   2.797 -0.1458 -0.7633 -0.9813
 5567TIP3    H238337   2.639   4.258   2.723  0.5240 -1.1386 -1.5047
 5568TIP3   OH238338   1.299   0.157   1.606 -0.4090  0.6762  0.1536
 5568TIP3    H138339   1.242   0.215   1.657 -0.4437 -0.7367  1.7866
 5568TIP3    H238340   1.328   0.090   1.668  0.0291 -0.7805 -1.5403
 5569TIP3   OH238341   1.349   6.741   3.550 -0.2390  0.0386  0.8856
 5569TIP3    H138342   1.330   6.788   3.469 -0.5896  1.2767  1.6696
 5569TIP3    H238343   1.419   6.680   3.526  0.0246  0.7494 -0.2178
 5570TIP3   OH238344   4.605   5.762   3.367 -0.1584  0.7143 -0.2636
 5570TIP3    H138345   4.617   5.683   3.314 -1.1836  0.9579 -0.9126
 5570TIP3    H238346   4.562   5.824   3.307  2.4513  2.5257 -0.4137
 5571TIP3   OH238347   5.458   0.546   2.617 -1.6437  0.4699  0.9056
 5571TIP3    H138348   5.420   0.621   2.573 -1.3848 -0.2103 -0.5213
 5571TIP3    H238349   5.539   0.579   2.656 -1.1919  0.7990 -0.2751
 5572TIP3   OH238350   6.173   6.629   3.149  0.9172 -0.4182 -0.0438
 5572TIP3    H138351   6.178   6.536   3.128  1.0571 -0.2360 -0.8466
 5572TIP3    H238352   6.125   6.632   3.232 -0.2435 -1.1300 -0.6506
 5573TIP3   OH238353   6.756   1.363   2.999 -0.3236 -0.0480 -0.3127
 5573TIP3    H138354   6.816   1.417   2.948 -0.2545  0.4385  0.2638
 5573TIP3    H238355   6.767   1.274   2.964  1.1034 -0.0677  0.1073
 5574TIP3   OH238356   3.045   2.368   0.612 -0.3186 -0.0111 -0.2284
 5574TIP3    H138357   3.106   2.383   0.684 -1.3903 -0.0583  0.7271
 5574TIP3    H238358   3.099   2.334   0.541  1.0756  1.8398 -0.1326
 5575TIP3   OH238359   2.517   6.612   3.500 -0.1955 -0.3704  0.2025
 5575TIP3    H138360   2.540   6.566   3.420 -0.3234 -1.4994  0.8011
 5575TIP3    H238361   2.512   6.544   3.567  0.3388  0.6016  1.2710
 5576TIP3   OH238362   5.149   0.073   2.101 -0.5565 -0.0800 -0.4405
 5576TIP3    H138363   5.222   0.133   2.090 -1.1357  0.9021  0.8232
 5576TIP3    H238364   5.186  -0.014   2.087  0.6778  0.4452 -0.5202
 5577TIP3   OH238365   5.350   3.259   0.578 -0.6096  0.0441  0.4688
 5577TIP3    H138366   5.349   3.179   0.525  1.4679  0.9664 -1.1237
 5577TIP3    H238367   5.382   3.231   0.664 -1.2486 -1.0297  0.3740
 5578TIP3   OH238368   2.662   6.370   2.592 -0.4260  0.2228 -0.2155
 5578TIP3    H138369   2.619   6.285   2.584 -1.5264  0.6780  0.6357
 5578TIP3    H238370   2.662   6.389   2.686 -0.6694  1.3843 -0.4311
 5579TIP3   OH238371   1.884   5.646   8.755 -0.2444  0.3138 -0.9989
 5579TIP3    H138372   1.952   5.593   8.796  1.1226  2.9133  0.4001
 5579TIP3    H238373   1.858   5.597   8.677  1.7719 -1.7363 -0.4925
 5580TIP3   OH238374   5.091   3.359   0.589 -0.1201  0.7903  0.4145
 5580TIP3    H138375   5.173   3.338   0.543 -0.2541  1.4046 -0.1249
 5580TIP3    H238376   5.094   3.454   0.601 -0.8109  0.8347  0.2755
 5581TIP3   OH238377   1.136   5.293   2.608 -0.2839  0.0780 -0.7038
 5581TIP3    H138378   1.215   5.262   2.654 -0.0575 -1.4178 -2.0200
 5581TIP3    H238379   1.067   5.234   2.638 -0.2249 -0.6265 -1.8895
 5582TIP3   OH238380   3.439   6.237   0.654  0.5059 -0.0556 -0.0035
 5582TIP3    H138381   3.368   6.196   0.705 -0.2597  2.5164  1.1676
 5582TIP3    H238382   3.519   6.213   0.701 -0.0843  1.1573  1.7267
 5583TIP3   OH238383   3.796   3.152   8.622  0.4797 -0.4115 -0.2532
 5583TIP3    H138384   3.751   3.181   8.702  0.4245  1.5444 -0.9497
 5583TIP3    H238385   3.888   3.174   8.636  0.6545 -1.0914 -0.2929
 5584TIP3   OH238386   4.970   2.232   8.832  0.4704 -0.2580  0.6420
 5584TIP3    H138387   4.883   2.195   8.845  0.3502 -0.5427 -0.8466
 5584TIP3    H238388   5.030   2.158   8.835  0.4522 -0.3201 -0.1755
 5585TIP3   OH238389   1.723   0.189   4.238 -0.2030  0.2410  0.2536
 5585TIP3    H138390   1.647   0.192   4.180 -0.0097  0.8683  0.0339
 5585TIP3    H238391   1.745   0.095   4.243  0.3246  0.2446 -1.4012
 5586TIP3   OH238392   3.480   2.067   2.622 -0.0214 -0.0363  0.5777
 5586TIP3    H138393   3.396   2.102   2.592 -1.2037 -1.1040  2.4058
 5586TIP3    H238394   3.512   2.132   2.684 -0.0226 -0.1241  0.6701
 5587TIP3   OH238395   5.448   3.658   1.629 -0.3492  0.0534 -0.3248
 5587TIP3    H138396   5.498   3.660   1.711  0.3419 -0.0138 -0.7344
 5587TIP3    H238397   5.466   3.743   1.588 -0.8255  0.1542 -0.3319
 5588TIP3   OH238398   0.207   4.414   1.767  0.5012 -0.3963 -0.7103
 5588TIP3    H138399   0.205   4.359   1.846  1.1937  1.3902  0.6201
 5588TIP3    H238400   0.143   4.374   1.708 -0.9822 -1.1003  1.2627
 5589TIP3   OH238401   6.488   5.239   2.101  0.2577  0.1808 -0.1619
 5589TIP3    H138402   6.516   5.156   2.138 -0.8082  0.5021  1.4890
 5589TIP3    H238403   6.468   5.294   2.177  1.0653  2.0077 -1.1977
 5590TIP3   OH238404   4.419   4.454   0.597 -0.3056 -0.5005 -0.6334
 5590TIP3    H138405   4.324   4.446   0.593 -0.4139 -0.0425  0.8520
 5590TIP3    H238406   4.451   4.365   0.580 -0.9440 -0.5195 -1.8700
 5591TIP3   OH238407   0.800   5.301   0.690 -0.7030  0.0137 -0.2142
 5591TIP3    H138408   0.784   5.210   0.667 -1.9541  0.4210 -1.0596
 5591TIP3    H238409   0.874   5.327   0.634  0.6062 -0.8472  1.0462
 5592TIP3   OH238410   6.452   3.125   8.794 -0.2658  0.0035 -0.5658
 5592TIP3    H138411   6.400   3.111   8.715  0.3961 -0.8678 -0.8653
 5592TIP3    H238412   6.397   3.091   8.865  0.2244 -1.7703 -0.9869
 5593TIP3   OH238413   1.847   0.670   0.900  0.0416 -0.6810 -0.5835
 5593TIP3    H138414   1.847   0.713   0.815  0.8671 -0.4488 -0.4791
 5593TIP3    H238415   1.937   0.639   0.911 -0.2582 -1.4300 -0.1538
 5594TIP3   OH238416   1.362   1.993   2.420  0.4357 -0.3501  0.2269
 5594TIP3    H138417   1.282   1.990   2.368  0.5152  0.5432  0.0269
 5594TIP3    H238418   1.338   1.953   2.503  0.1348 -1.2238 -0.2627
 5595TIP3   OH238419   6.063   1.014   8.806 -0.1351  0.2227  0.3926
 5595TIP3    H138420   6.125   1.063   8.859  0.5721 -1.4048  1.1263
 5595TIP3    H238421   6.039   1.074   8.735 -0.1412  1.9955  1.8221
 5596TIP3   OH238422   0.257   1.883   8.652  0.2458 -0.2818 -0.2734
 5596TIP3    H138423   0.328   1.923   8.702  0.5210 -0.3432 -0.6150
 5596TIP3    H238424   0.244   1.941   8.577  1.9711 -1.7885 -1.8460
 5597TIP3   OH238425   4.487   6.513   2.713 -0.3903  0.1004  0.4315
 5597TIP3    H138426   4.547   6.551   2.777 -1.4445  0.0202  1.5104
 5597TIP3    H238427   4.401   6.546   2.740 -1.1392 -1.7966  0.4609
 5598TIP3   OH238428   1.417   6.702   2.003  0.1035 -0.1950 -0.5753
 5598TIP3    H138429   1.433   6.796   2.000  0.8961 -0.3176 -0.3440
 5598TIP3    H238430   1.324   6.693   1.980 -0.2129  0.7113  0.2325
 5599TIP3   OH238431   6.000   1.285   2.607  0.3611 -0.1655  0.1657
 5599TIP3    H138432   5.923   1.341   2.613  0.6805  0.3893 -0.6097
 5599TIP3    H238433   6.022   1.263   2.697 -0.1989  0.3776  0.4372
 5600TIP3   OH238434   0.686   1.459   0.685  0.2308  0.1404  0.2286
 5600TIP3    H138435   0.780   1.461   0.666 -0.2272  0.8776 -2.2844
 5600TIP3    H238436   0.668   1.366   0.701  1.2256 -0.1402 -0.1628
 5601TIP3   OH238437   5.119   4.714   2.020  0.0095 -0.2751 -0.6473
 5601TIP3    H138438   5.181   4.753   2.081  0.6235  0.3576 -1.6592
 5601TIP3    H238439   5.103   4.626   2.055  0.5222 -0.0048  0.2894
 5602TIP3   OH238440   0.419   3.691   4.106 -0.4781 -0.0650 -0.1429
 5602TIP3    H138441   0.420   3.607   4.152  1.6731 -0.6068 -1.0547
 5602TIP3    H238442   0.509   3.723   4.112 -0.7285  1.0888 -1.7222
 5603TIP3   OH238443   2.410   2.096   4.269 -0.1984  0.5709  0.6625
 5603TIP3    H138444   2.385   2.176   4.314  1.4398  0.6149  1.5702
 5603TIP3    H238445   2.401   2.027   4.336  0.1605  0.3000  0.4376
 5604TIP3   OH238446   4.426   0.726   2.765 -0.2790 -0.3963 -0.3620
 5604TIP3    H138447   4.343   0.709   2.809 -0.3060 -0.3314 -0.3874
 5604TIP3    H238448   4.478   0.647   2.780  0.4527  0.3888  1.4830
 5605TIP3   OH238449   4.098   4.428   1.860  0.1197 -0.6675  0.3651
 5605TIP3    H138450   4.134   4.501   1.911 -0.3135 -0.0412 -0.2069
 5605TIP3    H238451   4.134   4.439   1.773  0.2710 -1.3068  0.3402
 5606TIP3   OH238452   6.231   3.109   0.240 -0.3402  0.2658  0.2132
 5606TIP3    H138453   6.235   3.031   0.184 -0.3020  0.0407  0.5219
 5606TIP3    H238454   6.216   3.074   0.328 -2.2287  0.7211  0.1024
 5607TIP3   OH238455   4.196   4.093   0.620  0.5507  0.6299 -0.2844
 5607TIP3    H138456   4.291   4.096   0.631  0.5571 -1.0083  0.4079
 5607TIP3    H238457   4.163   4.067   0.706 -0.2840 -1.5326 -1.1973
 5608TIP3   OH238458   3.258   4.050   3.329  0.1935  0.3373 -0.0594
 5608TIP3    H138459   3.227   4.069   3.417 -1.2677  1.8059 -0.8411
 5608TIP3    H238460   3.352   4.033   3.340  0.2294  1.4051  1.6359
 5609TIP3   OH238461   2.263   3.197   1.444 -0.0743 -0.1424  0.2142
 5609TIP3    H138462   2.274   3.181   1.351 -1.5454  0.3261 -0.0617
 5609TIP3    H238463   2.303   3.121   1.486  1.6473  0.1913 -0.7305
 5610TIP3   OH238464   6.354   0.395   1.559 -0.5919 -0.0960 -0.1022
 5610TIP3    H138465   6.383   0.393   1.650 -1.4106  0.3673  0.1859
 5610TIP3    H238466   6.259   0.387   1.565 -0.5907 -0.7621 -0.9599
 5611TIP3   OH238467   6.144   5.684   1.314  0.0406 -0.4054 -0.0465
 5611TIP3    H138468   6.051   5.665   1.320 -0.7769  1.5800 -3.6040
 5611TIP3    H238469   6.179   5.615   1.256  0.6683 -0.7220  0.6855
 5612TIP3   OH238470   4.162   1.985   1.514  0.6406 -0.0110  0.3924
 5612TIP3    H138471   4.139   1.983   1.421 -0.2213 -1.3253  0.6047
 5612TIP3    H238472   4.114   2.061   1.548 -1.3099 -1.1180  0.2706
 5613TIP3   OH238473   2.373   3.866   0.788  0.7559 -0.4722  0.7944
 5613TIP3    H138474   2.361   3.774   0.808 -0.5608 -0.3380  0.6926
 5613TIP3    H238475   2.332   3.913   0.861  2.2658  0.0600  1.3446
 5614TIP3   OH238476   3.767   0.032   1.820  0.2125 -0.1986  0.8019
 5614TIP3    H138477   3.745   0.065   1.908  1.7951 -0.2794  1.2516
 5614TIP3    H238478   3.853   0.070   1.801 -0.1694 -0.0815 -0.7841
 5615TIP3   OH238479   3.673   0.930   2.488 -0.1284 -0.6133  0.3703
 5615TIP3    H138480   3.584   0.943   2.457 -0.0256  0.4077  0.4616
 5615TIP3    H238481   3.667   0.854   2.547 -0.6782 -1.3555 -0.6222
 5616TIP3   OH238482   3.348   5.466   2.712  0.0001 -0.6032  0.4563
 5616TIP3    H138483   3.330   5.523   2.787 -0.4745  0.1975 -0.2471
 5616TIP3    H238484   3.288   5.393   2.722  0.8326 -1.1698  1.5396
 5617TIP3   OH238485   1.921   6.189   3.400  0.0793 -0.1806 -0.1375
 5617TIP3    H138486   1.949   6.118   3.343 -1.0849 -1.1310  0.4290
 5617TIP3    H238487   2.000   6.211   3.451  0.2107 -1.8058  0.4242
 5618TIP3   OH238488   1.306   6.743   0.974 -0.3963 -0.2795  0.2456
 5618TIP3    H138489   1.302   6.699   0.889 -0.7725  0.4413 -0.1209
 5618TIP3    H238490   1.340   6.830   0.954 -0.4623 -0.1122  0.8412
 5619TIP3   OH238491   1.645   6.125   3.061  0.4831 -0.3499 -0.8353
 5619TIP3    H138492   1.700   6.049   3.082  0.0017 -0.4860 -0.0143
 5619TIP3    H238493   1.704   6.187   3.020  0.7294 -1.4783 -2.2689
 5620TIP3   OH238494   5.292   0.643   8.477 -0.4954  0.2028 -0.7242
 5620TIP3    H138495   5.306   0.559   8.434  2.1870  0.2617 -0.1516
 5620TIP3    H238496   5.237   0.622   8.553  1.9498 -1.5554  0.7192
 5621TIP3   OH238497   0.112   2.369   1.008  0.4038 -0.2442 -0.5196
 5621TIP3    H138498   0.071   2.317   0.938  0.0000 -0.1027 -0.3945
 5621TIP3    H238499   0.091   2.322   1.088  0.6985 -0.2994 -0.4738
 5622TIP3   OH238500   2.131   1.045   2.403 -0.1525  0.0141  0.0339
 5622TIP3    H138501   2.068   1.028   2.473 -0.0288  1.9156  0.6808
 5622TIP3    H238502   2.153   1.138   2.413  1.2107 -0.1030 -1.4482
 5623TIP3   OH238503   0.711   4.150   1.719 -0.2205 -0.2315  0.1257
 5623TIP3    H138504   0.662   4.227   1.748 -0.3422 -1.0318  2.2170
 5623TIP3    H238505   0.790   4.186   1.678 -0.2464  1.0319  1.1265
 5624TIP3   OH238506   1.897   3.005   2.766 -0.1078  0.3501 -0.2247
 5624TIP3    H138507   1.848   3.014   2.684 -1.7306 -1.0227  0.5461
 5624TIP3    H238508   1.848   2.940   2.816  1.0648  0.8895  1.7005
 5625TIP3   OH238509   3.541   3.832   2.729  0.3698  0.0155 -0.7424
 5625TIP3    H138510   3.514   3.766   2.793 -2.4055  0.2038 -1.6061
 5625TIP3    H238511   3.626   3.862   2.761 -0.1566 -1.0557  1.9538
 5626TIP3   OH238512   4.818   4.802   2.092  0.0819 -0.5032 -0.3291
 5626TIP3    H138513   4.874   4.871   2.057 -0.6919 -1.3281 -3.5029
 5626TIP3    H238514   4.876   4.727   2.102  0.4897 -0.0332  1.1911
 5627TIP3   OH238515   0.736   4.858   2.403  0.3594  0.3287  0.0250
 5627TIP3    H138516   0.784   4.940   2.415  0.7298  0.2628 -0.9124
 5627TIP3    H238517   0.664   4.880   2.344  0.8306 -0.1409 -0.7434
 5628TIP3   OH238518   2.659   6.393   1.900  0.4399  0.1391 -0.3615
 5628TIP3    H138519   2.589   6.328   1.888  1.2196 -0.6004 -1.0955
 5628TIP3    H238520   2.708   6.362   1.976  0.7596 -0.1003 -0.6591
 5629TIP3   OH238521   1.438   3.288   0.321  0.2932  0.0248 -0.1395
 5629TIP3    H138522   1.383   3.326   0.253  0.7121 -1.9392 -1.6969
 5629TIP3    H238523   1.376   3.258   0.388 -0.3952 -0.3991 -0.9409
 5630TIP3   OH238524   5.218   6.725   2.452  0.0281  0.6053 -0.0624
 5630TIP3    H138525   5.285   6.665   2.422 -2.3203 -1.7046 -1.0781
 5630TIP3    H238526   5.204   6.702   2.544  0.5902  1.0909  0.1509
 5631TIP3   OH238527   2.493   5.900   0.369 -0.1017 -0.2048  0.2849
 5631TIP3    H138528   2.570   5.926   0.419  0.8104 -0.2386 -1.0489
 5631TIP3    H238529   2.441   5.848   0.430  0.3393  0.8012  1.5680
 5632TIP3   OH238530   3.848   0.302   1.513 -0.1753  0.1115  0.6688
 5632TIP3    H138531   3.869   0.348   1.594 -3.1730  2.7606  0.1409
 5632TIP3    H238532   3.794   0.228   1.540  0.7058 -0.3463  1.2070
 5633TIP3   OH238533   4.126   0.144   0.693 -0.7993  0.5283  0.3173
 5633TIP3    H138534   4.170   0.129   0.777  1.5683 -0.3154 -0.9822
 5633TIP3    H238535   4.154   0.231   0.667 -1.7133  0.8793  0.4800
 5634TIP3   OH238536   4.130   4.714   2.977 -0.1619  0.0048  0.3126
 5634TIP3    H138537   4.214   4.669   2.979  0.9731  1.9855 -0.3027
 5634TIP3    H238538   4.093   4.692   2.892  0.2432 -0.0227  0.1410
 5635TIP3   OH238539   1.970   3.970   2.926 -0.4130  0.1654 -0.1179
 5635TIP3    H138540   2.030   4.028   2.878  1.5770 -1.1920  0.5918
 5635TIP3    H238541   1.936   4.025   2.997  0.8781  0.6771  0.1267
 5636TIP3   OH238542   0.441   2.107   8.770 -0.2627 -0.2320  0.0827
 5636TIP3    H138543   0.478   2.074   8.852 -1.8687  1.8863  1.8074
 5636TIP3    H238544   0.511   2.099   8.706  1.5618 -0.6361  2.0468
 5637TIP3   OH238545   0.215   3.947   1.454  0.2031 -0.5103  0.0936
 5637TIP3    H138546   0.256   3.896   1.384  2.1084  0.3029  0.5611
 5637TIP3    H238547   0.177   4.023   1.409  0.0411 -0.7732 -0.2213
 5638TIP3   OH238548   0.962   2.271   1.503  0.7263  0.0545  0.1895
 5638TIP3    H138549   0.957   2.360   1.469  0.7863 -1.7268 -5.3755
 5638TIP3    H238550   1.056   2.251   1.504  0.5807 -0.8252 -1.5363
 5639TIP3   OH238551   1.296   0.920   1.026 -0.4809  0.6755 -0.4173
 5639TIP3    H138552   1.384   0.934   0.993  0.3249 -1.0893  0.7797
 5639TIP3    H238553   1.276   0.999   1.075  0.1369  1.3956 -1.2980
 5640TIP3   OH238554   2.429   1.981   3.481  0.4501 -0.1717  0.5156
 5640TIP3    H138555   2.391   1.894   3.492 -0.8225  0.4518  1.3070
 5640TIP3    H238556   2.522   1.969   3.501 -0.0853 -0.9622  2.8862
 5641TIP3   OH238557   0.634   4.801   0.541 -0.7277  0.4660  0.1670
 5641TIP3    H138558   0.540   4.807   0.558 -0.4523  0.3968  1.8320
 5641TIP3    H238559   0.639   4.767   0.451 -2.2715  2.3716 -0.7157
 5642TIP3   OH238560   1.012   3.518   3.594  0.0291 -0.1007  0.6104
 5642TIP3    H138561   1.036   3.457   3.525 -0.1220 -0.9471  1.2882
 5642TIP3    H238562   0.989   3.462   3.669 -0.5558  0.7688  1.1004
 5643TIP3   OH238563   5.348   0.813   1.755  0.2703 -0.1510  0.1721
 5643TIP3    H138564   5.393   0.893   1.729 -0.3749  0.0184 -0.4643
 5643TIP3    H238565   5.276   0.842   1.810  0.8027 -0.4044  1.0199
 5644TIP3   OH238566   0.051   2.765   3.388  0.1793 -0.9505 -0.0648
 5644TIP3    H138567   0.090   2.770   3.301 -1.2118  3.4379 -0.6826
 5644TIP3    H238568   0.123   2.790   3.447  0.0272  0.8428 -0.5575
 5645TIP3   OH238569   3.165   1.003   0.353  0.2051 -0.0521 -0.6931
 5645TIP3    H138570   3.212   1.081   0.383  0.5898 -1.0570  1.5234
 5645TIP3    H238571   3.220   0.968   0.282  1.8924 -0.1956  0.6219
 5646TIP3   OH238572   2.253   6.337   2.579  0.7971  0.3493 -0.1977
 5646TIP3    H138573   2.235   6.244   2.577  1.2382  0.2597 -0.1504
 5646TIP3    H238574   2.278   6.355   2.670  2.1160  0.2300 -0.5059
 5647TIP3   OH238575   1.005   5.366   0.497  0.6419  0.6899  0.0401
 5647TIP3    H138576   1.031   5.368   0.406  1.5546  0.2475  0.2835
 5647TIP3    H238577   1.087   5.360   0.546  0.2031  1.5520  0.9158
 5648TIP3   OH238578   0.666   0.525   8.688 -0.1105 -0.1519  0.2407
 5648TIP3    H138579   0.743   0.582   8.696  0.5784 -1.1560  1.2055
 5648TIP3    H238580   0.682   0.474   8.609  1.1696 -1.6494  1.4035
 5649TIP3   OH238581   0.707   1.726   2.274  0.1738  0.3432 -0.2022
 5649TIP3    H138582   0.732   1.778   2.351 -0.6870  0.9953 -0.3487
 5649TIP3    H238583   0.790   1.701   2.235  0.6435  2.0238 -0.3940
 5650TIP3   OH238584   0.147   3.961   8.592 -0.1745  0.0662 -0.0085
 5650TIP3    H138585   0.109   4.020   8.528  0.2426 -0.2753 -0.5819
 5650TIP3    H238586   0.211   4.014   8.639 -2.5705  1.1834  2.2483
 5651TIP3   OH238587   2.738   5.267   2.410  0.1039 -0.0917 -0.0180
 5651TIP3    H138588   2.793   5.344   2.426  1.0675 -0.8792  0.5872
 5651TIP3    H238589   2.653   5.304   2.387  0.0996  1.1815  1.7661
 5652TIP3   OH238590   5.847   0.438   2.867 -0.1729  0.1034 -0.5331
 5652TIP3    H138591   5.754   0.423   2.848 -0.4648 -0.8794  1.4510
 5652TIP3    H238592   5.892   0.411   2.787 -1.4562 -1.6928 -0.7134
 5653TIP3   OH238593   6.381   1.998   1.601 -0.3067  1.1180  0.4289
 5653TIP3    H138594   6.464   2.044   1.615  0.5949 -0.0108 -0.9464
 5653TIP3    H238595   6.379   1.980   1.507  0.1355 -2.8982  1.0161
 5654TIP3   OH238596   4.151   0.502   1.489  1.1637 -0.6376 -0.6021
 5654TIP3    H138597   4.064   0.541   1.481  1.5432 -0.0904 -2.6578
 5654TIP3    H238598   4.169   0.503   1.583 -0.0242  1.5992 -0.3201
 5655TIP3   OH238599   0.449   2.201   2.318  0.2622  0.0621  0.5090
 5655TIP3    H138600   0.445   2.267   2.249  0.5980  1.9553  2.2338
 5655TIP3    H238601   0.531   2.218   2.364  0.3510 -1.5616  1.0313
 5656TIP3   OH238602   3.558   2.911   1.319  0.3978  0.1328 -0.2206
 5656TIP3    H138603   3.463   2.903   1.326  0.3188  1.6275  0.7118
 5656TIP3    H238604   3.581   2.983   1.377  2.0752  0.0342 -0.7012
 5657TIP3   OH238605   2.958   6.626   1.304 -0.3604 -0.4953  0.1227
 5657TIP3    H138606   2.880   6.612   1.251 -0.3893 -3.1492  0.7160
 5657TIP3    H238607   3.023   6.661   1.243 -1.7023  0.9059 -0.5675
 5658TIP3   OH238608   5.081   0.027   3.387 -0.5882  0.0530  0.2361
 5658TIP3    H138609   5.074   0.088   3.460  1.7009 -0.9527  1.3933
 5658TIP3    H238610   5.169  -0.011   3.395 -0.9292 -1.4274 -1.9936
 5659TIP3   OH238611   1.763   5.559   8.237 -0.4613 -0.3387  0.0926
 5659TIP3    H138612   1.687   5.601   8.196 -0.8045 -0.6711  0.3915
 5659TIP3    H238613   1.834   5.571   8.173 -0.5863  0.5643  0.1042
 5660TIP3   OH238614   5.738   2.822   8.833  0.0067  0.5341  0.1341
 5660TIP3    H138615   5.834   2.826   8.841 -0.0706  1.5155  0.6006
 5660TIP3    H238616   5.715   2.898   8.780 -0.3808 -0.6243 -1.4280
 5661TIP3   OH238617   2.301   3.061   3.071  0.1399 -0.4199  0.3569
 5661TIP3    H138618   2.321   3.007   2.995 -1.0125  0.3931 -0.5466
 5661TIP3    H238619   2.348   3.143   3.055 -2.6876  1.0363 -1.1836
 5662TIP3   OH238620   0.970   6.681   3.214  0.2250 -0.1996 -0.4711
 5662TIP3    H138621   1.064   6.696   3.204  0.2190 -0.6488 -1.2432
 5662TIP3    H238622   0.932   6.769   3.208  0.5864 -0.0169 -0.1939
 5663TIP3   OH238623   0.978   4.966   8.029  0.0254 -0.6384 -0.8837
 5663TIP3    H138624   1.071   4.975   8.007  0.0655  0.8701 -0.2431
 5663TIP3    H238625   0.964   4.872   8.039  1.9414 -0.8132  0.8772
 5664TIP3   OH238626   1.966   4.593   4.397  0.4038 -0.2215 -0.4575
 5664TIP3    H138627   1.900   4.659   4.375  1.6092  0.8489 -0.9215
 5664TIP3    H238628   1.932   4.512   4.358 -1.1404  0.0595  0.2151
 5665TIP3   OH238629   3.623   2.203   2.885  0.3663  0.7212  0.0576
 5665TIP3    H138630   3.712   2.231   2.908  0.7015  0.0918 -0.4375
 5665TIP3    H238631   3.568   2.278   2.909  0.8056  0.5028  1.9521
 5666TIP3   OH238632   0.285   4.699   0.212 -0.8742 -0.1177  0.2836
 5666TIP3    H138633   0.365   4.668   0.256 -0.3710  0.9372  0.1486
 5666TIP3    H238634   0.242   4.754   0.277 -0.3392  1.1207 -0.3882
 5667TIP3   OH238635   3.311   5.464   3.981 -0.0456  0.4773  0.0378
 5667TIP3    H138636   3.311   5.369   3.992  0.0852  0.6330  1.6124
 5667TIP3    H238637   3.391   5.493   4.024 -1.6206  1.5615  2.4536
 5668TIP3   OH238638   5.660   3.972   8.447  0.3070 -0.0100  0.1080
 5668TIP3    H138639   5.596   4.041   8.431  0.1995  0.2356  1.4121
 5668TIP3    H238640   5.641   3.905   8.382 -2.0533 -0.4631  1.1414
 5669TIP3   OH238641   1.351   1.191   8.787 -0.5303 -0.3949 -0.1660
 5669TIP3    H138642   1.440   1.225   8.775 -0.0864 -0.3054  2.7337
 5669TIP3    H238643   1.305   1.215   8.706  1.8861  0.0951 -1.4900
 5670TIP3   OH238644   2.245   5.354   8.439  0.4488 -0.0288 -0.5846
 5670TIP3    H138645   2.267   5.443   8.466 -1.3995  0.7487 -1.4962
 5670TIP3    H238646   2.243   5.357   8.344 -1.7342 -0.4597 -0.6065
 5671TIP3   OH238647   0.914   2.264   3.253 -0.5229  0.0648 -0.2442
 5671TIP3    H138648   0.901   2.217   3.170 -2.8741 -0.8578  0.5548
 5671TIP3    H238649   0.974   2.209   3.303 -1.0293 -0.6543 -0.4097
 5672TIP3   OH238650   4.892   3.402   0.027  0.4527 -0.5319 -0.1811
 5672TIP3    H138651   4.855   3.420  -0.060 -0.4888 -1.5805 -0.0217
 5672TIP3    H238652   4.892   3.306   0.033  0.2699 -0.4680  1.0734
 5673TIP3   OH238653   6.353   2.576   0.509 -0.0751 -0.1691 -0.2591
 5673TIP3    H138654   6.260   2.551   0.505 -0.0917 -0.1028 -0.2756
 5673TIP3    H238655   6.399   2.503   0.466 -0.1452 -0.0588 -0.5201
 5674TIP3   OH238656   6.611   5.377   0.564 -0.1864 -0.2168 -0.7351
 5674TIP3    H138657   6.592   5.401   0.473 -1.2633  0.4751 -0.3537
 5674TIP3    H238658   6.672   5.444   0.594  0.0788 -0.3791 -0.8975
 5675TIP3   OH238659   3.821   4.090   2.708  0.1770  0.4479 -0.1070
 5675TIP3    H138660   3.731   4.109   2.681 -0.0950 -0.1934  0.3217
 5675TIP3    H238661   3.863   4.058   2.628  0.5734  2.4932 -0.7814
 5676TIP3   OH238662   1.640   0.796   3.158  0.0518 -0.4624 -0.1903
 5676TIP3    H138663   1.702   0.864   3.135 -1.6367  0.9072 -0.9098
 5676TIP3    H238664   1.554   0.839   3.157 -0.9315 -2.2399  0.8412
 5677TIP3   OH238665   6.405   4.296   1.081 -0.1503 -0.3519  0.0545
 5677TIP3    H138666   6.346   4.314   1.008 -1.0085  2.6050  1.3218
 5677TIP3    H238667   6.435   4.382   1.110  1.5199 -1.5158  2.1136
 5678TIP3   OH238668   4.624   2.006   1.163  0.1023  0.2209  0.2893
 5678TIP3    H138669   4.613   2.069   1.235 -1.9576  0.3269 -0.0674
 5678TIP3    H238670   4.555   2.029   1.101  0.5722 -1.1618 -0.7715
 5679TIP3   OH238671   6.476   0.537   2.877  0.2311 -0.1191  0.3290
 5679TIP3    H138672   6.484   0.627   2.908 -0.1892 -0.1994  0.6969
 5679TIP3    H238673   6.381   0.524   2.867  0.3051 -0.4434  0.0578
 5680TIP3   OH238674   1.005   2.579   0.948  0.2662  0.1102  0.1807
 5680TIP3    H138675   0.952   2.586   0.868  0.7957  0.6391 -0.1279
 5680TIP3    H238676   0.943   2.594   1.019 -0.4311 -1.4102 -0.0581
 5681TIP3   OH238677   5.755   0.556   0.752 -0.1999  0.2746 -0.3760
 5681TIP3    H138678   5.748   0.640   0.705 -0.2901 -1.0417 -2.9011
 5681TIP3    H238679   5.835   0.564   0.803  0.6862  1.3441 -1.8524
 5682TIP3   OH238680   4.956   3.724   3.194 -0.3790  0.0161  0.7056
 5682TIP3    H138681   5.051   3.727   3.198 -0.3731 -1.0402  1.8709
 5682TIP3    H238682   4.930   3.672   3.270 -1.9382  0.9921  0.8807
 5683TIP3   OH238683   4.479   1.355   1.014 -0.5665  0.1481  0.1416
 5683TIP3    H138684   4.511   1.408   0.941  0.6636 -0.3550  0.2989
 5683TIP3    H238685   4.399   1.314   0.980  1.2464 -2.0154 -1.8223
 5684TIP3   OH238686   6.040   0.511   3.662 -0.6905 -0.1430  0.0492
 5684TIP3    H138687   6.131   0.484   3.647 -0.4703  0.0425  0.9957
 5684TIP3    H238688   5.991   0.466   3.594  0.3547  1.4253 -1.8203
 5685TIP3   OH238689   1.912   0.470   2.129 -0.1879 -0.8331 -0.1895
 5685TIP3    H138690   1.847   0.426   2.183 -2.5015 -0.3027 -2.3345
 5685TIP3    H238691   1.894   0.563   2.142  2.4836 -0.4890  1.7811
 5686TIP3   OH238692   5.784   3.991   1.275  0.2324 -0.6483 -0.3466
 5686TIP3    H138693   5.716   4.018   1.213 -0.7780  0.5952  1.2171
 5686TIP3    H238694   5.765   3.899   1.292 -0.1115 -0.7264 -1.0856
 5687TIP3   OH238695   5.086   0.691   0.083 -0.1821 -0.1394 -0.8976
 5687TIP3    H138696   5.113   0.600   0.096  1.1022  0.2211 -0.9846
 5687TIP3    H238697   4.991   0.689   0.096 -0.0205 -1.2639  0.3575
 5688TIP3   OH238698   3.843   0.651   0.388 -0.0697  0.1090  0.1111
 5688TIP3    H138699   3.922   0.683   0.344 -1.1815  0.8222 -1.4684
 5688TIP3    H238700   3.782   0.725   0.385 -0.6379 -0.2377  1.8082
 5689TIP3   OH238701   1.110   2.766   3.455 -0.4990  0.3578 -0.2775
 5689TIP3    H138702   1.096   2.746   3.547  0.9742 -0.4695 -0.2090
 5689TIP3    H238703   1.103   2.861   3.450 -1.2492  0.3562  0.5603
 5690TIP3   OH238704   5.591   0.047   2.953 -0.0025  0.0495  0.0897
 5690TIP3    H138705   5.643   0.115   2.997  1.8643 -0.6862 -0.8795
 5690TIP3    H238706   5.606   0.062   2.860 -1.5366 -0.2323 -0.2282
 5691TIP3   OH238707   5.977   0.223   2.272  0.3605  0.0039  0.0052
 5691TIP3    H138708   6.052   0.252   2.220  0.6180  0.3368  0.5522
 5691TIP3    H238709   5.924   0.302   2.284  1.3410  0.4385  1.9666
 5692TIP3   OH238710   6.233   0.565   2.488  0.6317 -0.1225  0.4919
 5692TIP3    H138711   6.254   0.658   2.479  1.0348 -0.3404 -1.1148
 5692TIP3    H238712   6.161   0.563   2.550  0.5060  1.2772  0.4337
 5693TIP3   OH238713   3.819   0.125   3.272  0.0125 -0.3479 -0.1389
 5693TIP3    H138714   3.897   0.143   3.220  0.3322 -1.9978 -0.2923
 5693TIP3    H238715   3.830   0.177   3.351  0.9054  0.0041 -0.4812
 5694TIP3   OH238716   5.138   6.163   1.484  0.2380  0.5628  0.2712
 5694TIP3    H138717   5.166   6.124   1.401 -1.5983 -0.1140 -0.0753
 5694TIP3    H238718   5.042   6.165   1.479  0.0524  0.2646  2.4589
 5695TIP3   OH238719   2.945   5.514   0.147  0.2034 -0.1561  0.3225
 5695TIP3    H138720   2.876   5.580   0.158 -0.1595 -0.7585  2.0686
 5695TIP3    H238721   2.910   5.436   0.189  1.8743 -0.5408  1.0909
 5696TIP3   OH238722   6.560   5.034   8.750 -0.4253 -0.1095  0.0974
 5696TIP3    H138723   6.493   5.096   8.781  0.9488  0.8329  1.2738
 5696TIP3    H238724   6.537   5.020   8.658 -2.4037 -0.0459  0.5229
 5697TIP3   OH238725   1.581   6.365   0.292  0.4551  0.2605  0.4528
 5697TIP3    H138726   1.592   6.396   0.202 -1.1270  2.4454  0.9222
 5697TIP3    H238727   1.653   6.303   0.305  0.5576 -0.3478 -2.3769
 5698TIP3   OH238728   6.742   2.224   3.451 -0.4812  0.0433 -0.5183
 5698TIP3    H138729   6.685   2.181   3.515 -1.0372 -1.2095 -1.7965
 5698TIP3    H238730   6.827   2.227   3.494 -0.9712 -0.1832  0.5247
 5699TIP3   OH238731   6.258   0.750   1.038  0.0715  0.1385  0.2421
 5699TIP3    H138732   6.168   0.775   1.058  0.5453  0.9185  1.4529
 5699TIP3    H238733   6.299   0.829   1.004  0.1663 -0.3580 -0.8520
 5700TIP3   OH238734   1.805   1.139   1.054 -0.0878 -0.5060  0.2767
 5700TIP3    H138735   1.868   1.119   0.985  2.2078 -1.0124  2.3489
 5700TIP3    H238736   1.838   1.218   1.096 -1.0719 -0.5277  1.1664
 5701TIP3   OH238737   6.655   1.052   2.586  0.1023 -0.4660 -0.2195
 5701TIP3    H138738   6.595   1.078   2.516  0.6541  0.0402 -0.5078
 5701TIP3    H238739   6.599   1.007   2.650 -0.6230  0.1889 -0.3830
 5702TIP3   OH238740   2.697   4.121   4.499  0.5530 -0.0084 -0.3782
 5702TIP3    H138741   2.688   4.143   4.406  2.2756  0.0276 -0.5678
 5702TIP3    H238742   2.712   4.205   4.542  1.2494 -0.1803 -0.2818
 5703TIP3   OH238743   4.202   3.128   2.666  0.6182  0.1157  0.2167
 5703TIP3    H138744   4.216   3.119   2.760  1.8707  0.3955  0.0614
 5703TIP3    H238745   4.110   3.154   2.659  0.1374 -1.1191  1.2828
 5704TIP3   OH238746   0.642   0.892   2.817 -0.0989 -0.2687 -0.2146
 5704TIP3    H138747   0.727   0.883   2.774  0.1811  0.8146  0.0786
 5704TIP3    H238748   0.657   0.958   2.885 -0.9795 -0.6426  0.3547
 5705TIP3   OH238749   6.188   5.136   0.313 -0.0153 -0.3015  0.0125
 5705TIP3    H138750   6.131   5.179   0.250 -3.1739 -3.7066  0.2454
 5705TIP3    H238751   6.197   5.200   0.384 -1.2111  1.4083 -1.3012
 5706TIP3   OH238752   4.201   0.278   3.488  0.5535 -0.7355 -0.1881
 5706TIP3    H138753   4.132   0.337   3.518  1.7714  1.4872 -1.4670
 5706TIP3    H238754   4.160   0.225   3.420  0.2326  1.0448 -1.4377
 5707TIP3   OH238755   5.712   5.318   1.772  0.1067  0.7087  0.2939
 5707TIP3    H138756   5.691   5.399   1.818 -1.4670  0.2382  0.4718
 5707TIP3    H238757   5.631   5.267   1.775  0.7489 -0.4346 -0.7339
 5708TIP3   OH238758   5.345   0.976   0.507 -0.0548 -0.2293  0.1807
 5708TIP3    H138759   5.350   0.903   0.569  0.1633  1.0618  1.7520
 5708TIP3    H238760   5.405   1.042   0.543 -0.5857  0.9047 -0.9473
 5709TIP3   OH238761   5.424   1.807   0.195  0.1711 -0.5046 -0.1799
 5709TIP3    H138762   5.406   1.900   0.182  1.7591 -0.2920 -1.1378
 5709TIP3    H238763   5.339   1.764   0.186 -0.4914  0.7906 -0.3210
 5710TIP3   OH238764   0.287   0.201   8.802 -0.6492 -0.5386  0.6884
 5710TIP3    H138765   0.239   0.118   8.801  0.3952 -1.1628 -1.0209
 5710TIP3    H238766   0.275   0.236   8.714  0.8175 -0.0013  0.6905
 5711TIP3   OH238767   0.725   4.025   3.093  0.4677 -0.4579 -0.2630
 5711TIP3    H138768   0.740   4.047   3.185  2.1375  1.2672 -0.8695
 5711TIP3    H238769   0.630   4.030   3.082  0.0752 -2.3033  1.6896
 5712TIP3   OH238770   6.040   4.641   3.123  0.5699 -0.5943  1.0180
 5712TIP3    H138771   6.124   4.631   3.168  0.1679  2.1633  2.6444
 5712TIP3    H238772   5.979   4.670   3.192 -2.0385 -3.3618  0.0952
 5713TIP3   OH238773   2.405   1.768   1.909 -0.0854  0.6282  0.3900
 5713TIP3    H138774   2.361   1.833   1.854 -3.2931 -1.1348  0.6376
 5713TIP3    H238775   2.416   1.692   1.852 -0.9287 -0.2645  1.3616
 5714TIP3   OH238776   3.823   4.493   1.912 -0.0949  0.0425  0.5768
 5714TIP3    H138777   3.837   4.456   1.999  1.0342  0.7872  0.7350
 5714TIP3    H238778   3.911   4.501   1.875 -0.5987 -0.7966 -0.8703
 5715TIP3   OH238779   2.402   0.400   2.980 -0.2658 -0.2982  0.0769
 5715TIP3    H138780   2.404   0.496   2.974  1.1801 -0.0624  2.7225
 5715TIP3    H238781   2.322   0.381   3.030 -1.0659 -0.5942 -1.2674
 5716TIP3   OH238782   5.357   2.360   3.379 -0.5680  0.7033  0.2051
 5716TIP3    H138783   5.334   2.278   3.335 -0.3251 -0.3987  2.0558
 5716TIP3    H238784   5.329   2.348   3.469  3.1504  1.0034  1.5736
 5717TIP3   OH238785   4.629   1.295   1.448 -0.6590  0.0784  0.0577
 5717TIP3    H138786   4.644   1.279   1.354 -0.1909  0.5107  0.0556
 5717TIP3    H238787   4.663   1.216   1.491 -1.0174 -0.1910 -0.1376
 5718TIP3   OH238788   2.659   3.541   1.858 -0.2286 -0.1439  0.1939
 5718TIP3    H138789   2.591   3.591   1.905 -0.6480 -1.5235  1.1124
 5718TIP3    H238790   2.624   3.452   1.853  0.9256 -0.5743 -0.5608
 5719TIP3   OH238791   0.578   0.562   3.930 -0.5674  0.4001 -0.1327
 5719TIP3    H138792   0.615   0.538   4.015 -0.4899 -0.1478 -0.3156
 5719TIP3    H238793   0.484   0.558   3.943 -0.5704  1.1432  0.1513
 5720TIP3   OH238794   3.863   5.237   4.177  0.0972  0.1906 -0.2619
 5720TIP3    H138795   3.844   5.146   4.155  1.5624 -0.6973  1.8187
 5720TIP3    H238796   3.924   5.266   4.108 -0.4537 -0.3611 -0.9923
 5721TIP3   OH238797   2.720   1.423   3.990  0.2694 -0.1695 -0.7818
 5721TIP3    H138798   2.692   1.477   3.917  1.4751  0.7905 -0.5830
 5721TIP3    H238799   2.788   1.476   4.033  0.4768 -1.2542  0.2634
 5722TIP3   OH238800   5.291   3.813   2.042  0.2107  0.3218  0.2908
 5722TIP3    H138801   5.258   3.888   2.091  2.3496  1.8140 -0.3795
 5722TIP3    H238802   5.282   3.839   1.950 -1.1376 -1.2535 -0.0697
 5723TIP3   OH238803   1.019   4.518   1.887 -0.0592  0.1927 -0.7490
 5723TIP3    H138804   1.084   4.495   1.953 -0.0022  0.0462 -0.8547
 5723TIP3    H238805   1.040   4.461   1.812  0.6755  1.2510 -1.3641
 5724TIP3   OH238806   2.936   3.857   0.911 -0.2731 -0.2951 -0.4508
 5724TIP3    H138807   2.854   3.902   0.930 -0.0493 -0.8856  2.3822
 5724TIP3    H238808   2.949   3.799   0.986  4.0401  1.6904  0.6173
 5725TIP3   OH238809   0.475   1.473   1.151 -0.3659  0.5164 -0.0997
 5725TIP3    H138810   0.518   1.529   1.086 -0.8912 -0.5070 -1.3861
 5725TIP3    H238811   0.425   1.533   1.206  0.4325  1.4481 -0.3685
 5726TIP3   OH238812   1.387   3.796   3.395 -0.1000  0.0704 -0.1109
 5726TIP3    H138813   1.379   3.730   3.327 -1.1904  1.3401 -1.2803
 5726TIP3    H238814   1.457   3.854   3.365 -0.7885  0.8070 -0.3229
 5727TIP3   OH238815   0.768   3.457   3.040  0.2831  0.3224  0.4164
 5727TIP3    H138816   0.774   3.482   2.948 -0.0053 -2.1311 -0.3562
 5727TIP3    H238817   0.843   3.498   3.082  0.2653  1.7100 -0.8363
 5728TIP3   OH238818   5.269   6.408   2.883  0.3619 -0.2095 -0.8546
 5728TIP3    H138819   5.300   6.421   2.973 -2.2173 -1.3581  0.3085
 5728TIP3    H238820   5.299   6.320   2.860 -0.2362 -0.5142 -0.5053
 5729TIP3   OH238821   4.087   0.513   0.884 -0.6496  0.7459 -0.0828
 5729TIP3    H138822   4.180   0.490   0.881 -0.5138  0.6420  2.6736
 5729TIP3    H238823   4.078   0.587   0.824  1.1207  0.5076 -0.6778
 5730TIP3   OH238824   4.353   2.131   3.764 -0.0632 -0.2549  0.1859
 5730TIP3    H138825   4.346   2.223   3.788  1.3650 -0.1585  0.3299
 5730TIP3    H238826   4.408   2.093   3.833  0.8830 -0.8094 -0.8379
 5731TIP3   OH238827   5.460   2.271   2.197 -0.5936 -0.6194 -0.2344
 5731TIP3    H138828   5.483   2.357   2.232  0.0807 -0.3220 -1.3394
 5731TIP3    H238829   5.452   2.285   2.103  1.9008 -2.1982 -0.7903
 5732TIP3   OH238830   4.590   2.195   0.616  0.0395  0.1900  0.1843
 5732TIP3    H138831   4.590   2.170   0.524 -0.0638  1.2765 -0.1319
 5732TIP3    H238832   4.516   2.148   0.653 -0.0129 -0.1384 -0.3242
 5733TIP3   OH238833   6.054   4.611   2.847 -0.0864  0.6295 -0.5296
 5733TIP3    H138834   5.964   4.599   2.817 -0.3955  1.7347 -0.0982
 5733TIP3    H238835   6.049   4.605   2.943  0.5638 -0.8351 -0.5524
 5734TIP3   OH238836   0.800   1.676   3.335 -0.1571  0.0287 -0.2763
 5734TIP3    H138837   0.776   1.584   3.322  1.9950 -0.4729 -1.0453
 5734TIP3    H238838   0.886   1.685   3.294  0.4568  1.9895  1.2723
 5735TIP3   OH238839   1.162   3.423   0.916  0.1724 -0.1312 -0.4099
 5735TIP3    H138840   1.157   3.516   0.938  0.3709 -0.4149  0.8968
 5735TIP3    H238841   1.079   3.387   0.945  0.4446 -0.5204 -0.1031
 5736TIP3   OH238842   5.315   1.010   3.265 -0.1356  0.3852 -0.1942
 5736TIP3    H138843   5.325   0.997   3.171  0.1254  0.6049 -0.1980
 5736TIP3    H238844   5.220   1.014   3.278 -0.1656  1.6852 -0.6397
 5737TIP3   OH238845   3.214   6.697   0.273  0.4648 -0.2388 -0.0699
 5737TIP3    H138846   3.167   6.705   0.190 -0.6603 -1.6082  0.4073
 5737TIP3    H238847   3.146   6.693   0.340  1.2787 -0.9648  0.7554
 5738TIP3   OH238848   0.458   2.067   3.611 -0.2673  0.3351 -0.0045
 5738TIP3    H138849   0.505   2.012   3.548 -1.1732 -1.9278  1.1935
 5738TIP3    H238850   0.526   2.106   3.665  0.5869  2.8354 -2.6304
 5739TIP3   OH238851   1.617   6.541   3.027 -0.0961  0.2659  0.3477
 5739TIP3    H138852   1.601   6.603   2.956  0.1700  0.0353  0.0805
 5739TIP3    H238853   1.660   6.467   2.985  0.1293  0.1542  0.7590
 5740TIP3   OH238854   5.957   4.376   0.344 -0.0819  0.0806  0.6712
 5740TIP3    H138855   5.917   4.434   0.409  0.8710 -1.0215  2.2874
 5740TIP3    H238856   5.952   4.289   0.382  0.0298 -0.6951 -0.9895
 5741TIP3   OH238857   0.045   5.887   1.217 -0.0901  0.2865 -0.1080
 5741TIP3    H138858   0.035   5.981   1.227 -1.8727  0.1476 -0.2766
 5741TIP3    H238859  -0.010   5.849   1.286 -2.0134 -0.6040 -2.0021
 5742TIP3   OH238860   1.423   4.719   0.287  0.7151 -0.1863  0.8304
 5742TIP3    H138861   1.328   4.722   0.297  0.7545  1.1354  0.9602
 5742TIP3    H238862   1.437   4.713   0.193  0.5118 -0.3772  0.8101
 5743TIP3   OH238863   0.341   3.728   8.840 -0.8636 -0.1941  0.0606
 5743TIP3    H138864   0.415   3.782   8.813 -0.0591 -0.1753  2.1614
 5743TIP3    H238865   0.334   3.742   8.934 -2.1020 -1.9827  0.2758
 5744TIP3   OH238866   2.024   3.033   0.152 -0.1513 -0.3553 -0.0626
 5744TIP3    H138867   2.011   3.061   0.062  1.8001  0.0221 -0.2623
 5744TIP3    H238868   1.995   3.107   0.205  1.9802  0.8459 -0.5021
 5745TIP3   OH238869   3.768   1.205   1.529  0.0007 -0.0553 -0.0553
 5745TIP3    H138870   3.814   1.247   1.601  0.5878  0.6958 -0.8397
 5745TIP3    H238871   3.754   1.115   1.558  2.1167 -0.3597  0.1817
 5746TIP3   OH238872   1.136   3.594   2.677 -0.1704 -0.3722 -0.6198
 5746TIP3    H138873   1.215   3.548   2.706  0.7849  1.2243 -0.6155
 5746TIP3    H238874   1.148   3.606   2.583 -0.0167  0.5974 -0.4812
 5747TIP3   OH238875   5.341   5.740   1.905  0.5765  0.7463 -0.2048
 5747TIP3    H138876   5.392   5.792   1.967 -1.0510  0.7772  1.1791
 5747TIP3    H238877   5.252   5.774   1.912 -0.5171 -1.9915  0.5720
 5748TIP3   OH238878   3.234   2.176   1.156  1.1408  0.2098  0.1166
 5748TIP3    H138879   3.208   2.256   1.111  3.2159 -0.0221 -1.6141
 5748TIP3    H238880   3.310   2.201   1.208  1.5328 -0.5238 -0.0920
 5749TIP3   OH238881   0.814   3.004   3.349  0.2329 -0.1709  0.1758
 5749TIP3    H138882   0.781   3.068   3.286  0.4596  0.2199  0.4503
 5749TIP3    H238883   0.850   2.933   3.295  0.7186  0.3096 -0.1352
 5750TIP3   OH238884   0.986   5.536   2.676  0.4925  0.0578 -0.2783
 5750TIP3    H138885   0.900   5.514   2.712  0.1900 -0.0811 -1.0711
 5750TIP3    H238886   1.030   5.452   2.665  0.2719  0.0251 -0.9856
 5751TIP3   OH238887   0.065   1.953   0.618  0.3367  0.1499  0.6640
 5751TIP3    H138888   0.078   2.036   0.665  1.3216 -1.1882  2.9323
 5751TIP3    H238889  -0.009   1.912   0.663 -0.4023 -0.0548 -0.6949
 5752TIP3   OH238890   4.573   4.560   4.326 -0.3249  0.4082  0.2720
 5752TIP3    H138891   4.601   4.612   4.250  0.7935  0.9921  1.0670
 5752TIP3    H238892   4.515   4.619   4.374 -0.9309  0.0807 -0.0385
 5753TIP3   OH238893   3.406   5.429   1.147  0.1797  0.2153  0.3836
 5753TIP3    H138894   3.373   5.387   1.068 -0.2225  0.1733  0.5719
 5753TIP3    H238895   3.431   5.517   1.119 -1.3533  0.7062  0.5129
 5754TIP3   OH238896   1.781   1.608   1.702  0.5030  0.0235 -0.1130
 5754TIP3    H138897   1.794   1.691   1.749 -2.5344 -0.0317  1.0646
 5754TIP3    H238898   1.812   1.541   1.763 -1.4348  0.0917  1.0410
 5755TIP3   OH238899   4.724   1.695   1.934  0.2205 -0.0718 -0.6842
 5755TIP3    H138900   4.767   1.653   1.860 -1.1696 -0.4198 -1.3257
 5755TIP3    H238901   4.795   1.739   1.981  1.5078 -1.9446 -0.7834
 5756TIP3   OH238902   1.054   0.617   1.831  0.1966 -0.4293  0.2808
 5756TIP3    H138903   1.072   0.695   1.883  0.2184 -1.7087  2.3000
 5756TIP3    H238904   0.961   0.598   1.846  0.5387 -1.6225  1.0725
 5757TIP3   OH238905   6.576   0.875   1.316 -0.2321  0.1166 -0.1678
 5757TIP3    H138906   6.515   0.830   1.374  0.0451 -0.7600 -0.5475
 5757TIP3    H238907   6.612   0.806   1.260  0.2423  0.7989 -0.7205
 5758TIP3   OH238908   2.606   0.689   2.356  0.2322  0.3721 -0.3399
 5758TIP3    H138909   2.615   0.718   2.265  0.6036  0.6537 -0.2159
 5758TIP3    H238910   2.695   0.665   2.382  0.1096  0.1920 -0.0823
 5759TIP3   OH238911   4.712   4.010   1.357  0.2128  0.6294 -0.0515
 5759TIP3    H138912   4.730   3.927   1.402  1.4734  0.2796 -1.1350
 5759TIP3    H238913   4.676   3.984   1.272  0.9662  1.1729 -0.5466
 5760TIP3   OH238914   5.609   5.450   4.135  0.3050  0.0332 -0.4056
 5760TIP3    H138915   5.624   5.358   4.115 -0.2162 -0.4888  1.4581
 5760TIP3    H238916   5.695   5.484   4.159  0.7804  0.4555 -2.4941
 5761TIP3   OH238917   5.835   3.124   2.318  0.1127  0.0671  0.3965
 5761TIP3    H138918   5.886   3.196   2.280 -1.8381  0.7580 -1.0637
 5761TIP3    H238919   5.828   3.145   2.411 -0.0122  1.5288  0.0709
 5762TIP3   OH238920   5.865   5.835   2.386  0.4392 -0.2800 -0.4797
 5762TIP3    H138921   5.870   5.867   2.296  0.6259 -1.5692 -0.9451
 5762TIP3    H238922   5.914   5.899   2.437  0.8595  0.1430 -1.3870
 5763TIP3   OH238923   3.589   1.370   2.286  0.3847  0.2266  0.0813
 5763TIP3    H138924   3.540   1.366   2.204  2.2251  0.9479 -1.1252
 5763TIP3    H238925   3.637   1.287   2.289 -1.8142 -1.0628  1.9185
 5764TIP3   OH238926   4.047   6.092   1.364  0.5626  0.0141 -0.1985
 5764TIP3    H138927   3.997   6.067   1.287  1.7512  1.4514 -1.4969
 5764TIP3    H238928   3.996   6.162   1.405  0.3207 -0.2054 -0.1218
 5765TIP3   OH238929   5.511   4.853   2.676  0.1336 -0.1167  0.2259
 5765TIP3    H138930   5.428   4.892   2.704  0.1138  1.9023 -2.2363
 5765TIP3    H238931   5.576   4.888   2.736 -0.2946  1.6206 -0.2528
 5766TIP3   OH238932   3.152   1.642   1.269 -0.0763  0.2277  0.8138
 5766TIP3    H138933   3.225   1.666   1.325  1.8565 -3.1095  0.0270
 5766TIP3    H238934   3.076   1.641   1.327  0.6770  2.4132  1.9691
 5767TIP3   OH238935   6.784   0.641   3.843  0.1098 -0.1016  0.3748
 5767TIP3    H138936   6.856   0.704   3.840 -0.5197  0.5919 -1.5946
 5767TIP3    H238937   6.705   0.694   3.840 -0.4324 -0.9369 -0.7920
 5768TIP3   OH238938   6.288   3.865   8.724  0.2229  0.4518 -0.2140
 5768TIP3    H138939   6.315   3.947   8.681  0.7578  1.6212  2.2110
 5768TIP3    H238940   6.371   3.821   8.744  0.1994  1.4240  2.3184
 5769TIP3   OH238941   3.321   1.233   1.823  0.0904  0.4093 -0.2550
 5769TIP3    H138942   3.256   1.233   1.894  1.0403  0.3148  0.6425
 5769TIP3    H238943   3.377   1.158   1.842  0.5578  0.5774 -0.9323
 5770TIP3   OH238944   5.230   6.563   8.562 -0.2037 -0.2968 -0.1389
 5770TIP3    H138945   5.247   6.503   8.490  0.1560 -0.6993  0.2694
 5770TIP3    H238946   5.141   6.595   8.547 -0.8584 -1.8427  0.2605
 5771TIP3   OH238947   0.304   4.434   8.484  0.0524 -0.2813 -0.1204
 5771TIP3    H138948   0.273   4.510   8.436 -2.2542  0.5308  2.4131
 5771TIP3    H238949   0.280   4.359   8.430 -0.7230  0.6330 -1.0771
 5772TIP3   OH238950   1.907   3.001   0.514 -0.9211 -0.1541 -0.2115
 5772TIP3    H138951   1.872   2.915   0.488  0.2552 -1.2148  1.5596
 5772TIP3    H238952   1.835   3.043   0.559 -1.0990 -0.7887  0.1148
 5773TIP3   OH238953   1.828   1.661   2.942 -0.6285 -0.3857  0.0441
 5773TIP3    H138954   1.792   1.575   2.924  0.4736 -1.4004  2.3280
 5773TIP3    H238955   1.894   1.675   2.874 -0.0776 -1.8132  0.2658
 5774TIP3   OH238956   3.367   3.222   1.614  0.3775 -0.1957  0.9264
 5774TIP3    H138957   3.274   3.239   1.600 -0.1861 -2.2601  1.7867
 5774TIP3    H238958   3.409   3.308   1.606 -1.3436  0.5357 -1.2875
 5775TIP3   OH238959   5.779   2.819   1.708  0.1796  0.0459 -0.1017
 5775TIP3    H138960   5.843   2.891   1.712 -0.3842  0.6348 -1.2448
 5775TIP3    H238961   5.714   2.842   1.775  0.9314 -0.3506  0.7887
 5776TIP3   OH238962   1.568   3.826   3.002  0.1762  0.2570  0.2095
 5776TIP3    H138963   1.476   3.855   3.004  0.3958  0.9234  1.0691
 5776TIP3    H238964   1.601   3.861   2.919 -0.3789 -0.1177 -0.1813
 5777TIP3   OH238965   0.014   2.881   1.839 -0.1584  0.0322  0.1510
 5777TIP3    H138966  -0.033   2.828   1.775 -0.7687  1.3786 -0.5495
 5777TIP3    H238967  -0.015   2.848   1.924 -2.8381  1.1519 -0.2367
 5778TIP3   OH238968   3.051   2.657   2.061  0.1917  0.6359 -0.2891
 5778TIP3    H138969   3.128   2.685   2.011  1.1409  1.1258  1.3609
 5778TIP3    H238970   2.982   2.645   1.995  1.9293 -0.8674 -1.9629
 5779TIP3   OH238971   2.275   4.616   1.755  0.2208  0.2231  0.4050
 5779TIP3    H138972   2.286   4.575   1.841 -1.0752 -1.3178 -0.1217
 5779TIP3    H238973   2.287   4.544   1.692 -3.2914  0.3055 -0.5344
 5780TIP3   OH238974   0.055   5.926   1.528  0.4478 -0.3038  0.8074
 5780TIP3    H138975   0.054   5.832   1.509  0.4894 -0.3332  0.9481
 5780TIP3    H238976   0.147   5.952   1.516 -0.0840  0.5194 -3.0952
 5781TIP3   OH238977   6.777   0.345   1.205  0.0790 -0.1925 -0.3908
 5781TIP3    H138978   6.822   0.414   1.155  1.6110 -1.5458 -0.9805
 5781TIP3    H238979   6.690   0.339   1.165  0.8961 -0.4791 -2.2336
 5782TIP3   OH238980   3.446   0.985   0.305  0.8447 -0.1080  0.2146
 5782TIP3    H138981   3.498   1.011   0.229 -0.5020 -2.3111 -1.6022
 5782TIP3    H238982   3.463   1.052   0.371  2.3840  1.6885 -1.8891
 5783TIP3   OH238983   2.578   3.077   2.872 -0.4447  0.1250  0.4119
 5783TIP3    H138984   2.547   3.118   2.953  0.7698 -1.3781  1.7011
 5783TIP3    H238985   2.556   2.984   2.882  1.5682 -0.4513  0.0073
 5784TIP3   OH238986   2.128   1.874   4.440  0.2380  0.3183  0.0033
 5784TIP3    H138987   2.062   1.833   4.384  0.4398 -1.3115  0.9169
 5784TIP3    H238988   2.124   1.826   4.522  0.4151  2.2298  1.2071
 5785TIP3   OH238989   1.497   5.651   0.047  0.0969  0.0694 -0.2648
 5785TIP3    H138990   1.521   5.728  -0.006  1.1769  0.2182  0.4127
 5785TIP3    H238991   1.512   5.678   0.137 -2.2408 -0.0027  0.2156
 5786TIP3   OH238992   5.402   0.506   0.797 -0.4631 -0.3670 -0.1283
 5786TIP3    H138993   5.421   0.509   0.703  2.4597  0.5815  0.3936
 5786TIP3    H238994   5.432   0.419   0.824 -0.0282 -0.1359  0.1408
 5787TIP3   OH238995   0.417   4.157   2.153 -0.0958 -0.3440  0.1656
 5787TIP3    H138996   0.443   4.166   2.244  0.6758 -1.1001  0.0323
 5787TIP3    H238997   0.459   4.231   2.108 -0.5315  0.0653  0.4240
 5788TIP3   OH238998   3.655   4.720   0.950  0.4385  0.0093 -0.2572
 5788TIP3    H138999   3.585   4.785   0.948  0.3861 -0.0537 -0.6628
 5788TIP3    H239000   3.687   4.721   1.040  0.7114  0.8814 -0.3534
 5789TIP3   OH239001   4.816   4.844   1.164 -0.7255  0.1345  0.0150
 5789TIP3    H139002   4.736   4.839   1.217  0.1063  1.8071  1.5210
 5789TIP3    H239003   4.785   4.869   1.077 -2.0367 -1.7753 -0.1320
 5790TIP3   OH239004   4.470   0.664   2.477  0.3755  0.0705 -0.3079
 5790TIP3    H139005   4.439   0.698   2.560 -0.4444  1.5407 -1.1736
 5790TIP3    H239006   4.565   0.658   2.486  0.1879 -1.2772  1.2260
 5791TIP3   OH239007   1.062   3.083   2.037  0.2021  0.7283 -0.2912
 5791TIP3    H139008   0.967   3.088   2.044  0.1756 -1.0422  2.0463
 5791TIP3    H239009   1.083   2.992   2.060  2.3848  0.5788 -2.4168
 5792TIP3   OH239010   5.840   3.915   1.605 -0.2375 -0.0798 -0.6528
 5792TIP3    H139011   5.881   3.895   1.521 -1.3637  0.9605 -1.4874
 5792TIP3    H239012   5.831   4.011   1.605 -1.9670 -0.2211 -0.1818
 5793TIP3   OH239013   3.852   3.761   0.312 -0.2430 -0.2726  0.1095
 5793TIP3    H139014   3.918   3.719   0.368  0.0062 -1.7556 -1.2368
 5793TIP3    H239015   3.884   3.747   0.223 -2.6346 -1.5727 -0.6269
 5794TIP3   OH239016   0.131   5.915   0.180  0.1151  0.1204  0.2868
 5794TIP3    H139017   0.155   5.884   0.268 -0.4259  2.3380  1.2728
 5794TIP3    H239018   0.123   6.010   0.189 -1.1538  0.2874 -1.8895
 5795TIP3   OH239019   0.800   3.968   8.747 -0.1386  0.1850 -0.2563
 5795TIP3    H139020   0.832   4.024   8.676 -0.9968  0.5162 -0.3927
 5795TIP3    H239021   0.863   3.896   8.750 -0.5370 -0.2703 -1.9103
 5796TIP3   OH239022   1.856   0.478   0.014  0.2676 -0.0294 -0.6808
 5796TIP3    H139023   1.855   0.430  -0.069  1.4020  0.7097 -1.1452
 5796TIP3    H239024   1.875   0.412   0.080  0.5158 -0.4287 -1.1435
 5797TIP3   OH239025   4.787   1.817   0.766  0.1676  0.3284  0.5542
 5797TIP3    H139026   4.753   1.767   0.841 -1.4440  0.6183  0.0488
 5797TIP3    H239027   4.727   1.797   0.695  0.4314  1.7359 -0.0909
 5798TIP3   OH239028   5.368   2.047   2.895 -0.5235  0.8588 -0.4746
 5798TIP3    H139029   5.340   1.967   2.939 -0.3202  0.8020 -0.4462
 5798TIP3    H239030   5.419   2.093   2.960  1.4234 -0.1312 -1.2159
 5799TIP3   OH239031   2.304   6.661   1.372 -0.1411  0.4879  0.3143
 5799TIP3    H139032   2.353   6.653   1.291 -1.7394  0.5197 -0.7029
 5799TIP3    H239033   2.363   6.707   1.432  1.1347  0.2913 -0.7639
 5800TIP3   OH239034   5.358   0.348   3.197  0.5110 -0.1157 -0.5281
 5800TIP3    H139035   5.437   0.385   3.236  0.4051 -0.7075  0.2863
 5800TIP3    H239036   5.386   0.263   3.163  0.0355 -0.7787  0.6599
 5801TIP3   OH239037   2.710   4.386   3.147 -0.1349 -0.2143 -0.1411
 5801TIP3    H139038   2.738   4.377   3.238  0.2275  0.6620 -0.1582
 5801TIP3    H239039   2.753   4.465   3.116 -1.8561  0.6519 -0.4646
 5802TIP3   OH239040   1.733   6.371   3.477  0.1549  0.1144  0.7829
 5802TIP3    H139041   1.799   6.439   3.488 -0.9040  1.3194  0.0708
 5802TIP3    H239042   1.778   6.300   3.431  0.6131  1.5615 -1.1378
 5803TIP3   OH239043   5.439   0.919   2.997  0.1379 -0.0501 -0.3948
 5803TIP3    H139044   5.429   0.854   2.927  2.5424 -0.3151 -0.5894
 5803TIP3    H239045   5.401   0.999   2.961 -1.3177 -0.8870 -0.8244
 5804TIP3   OH239046   3.862   2.689   1.169  0.1364  0.1639  0.2168
 5804TIP3    H139047   3.791   2.628   1.192 -1.4779  1.4538 -1.0894
 5804TIP3    H239048   3.874   2.743   1.247 -0.5426  0.1172  0.3602
 5805TIP3   OH239049   5.809   1.943   3.448 -0.4928 -0.0550 -0.5080
 5805TIP3    H139050   5.769   1.860   3.424 -1.9838  0.2765  0.6766
 5805TIP3    H239051   5.836   1.982   3.364  1.2494 -2.1566 -1.0070
 5806TIP3   OH239052   2.710   0.736   8.664 -0.2369 -0.0536 -0.0344
 5806TIP3    H139053   2.749   0.779   8.587 -0.3972 -0.7249 -0.5025
 5806TIP3    H239054   2.636   0.687   8.629 -0.9518  0.4694  0.7176
 5807TIP3   OH239055   5.752   3.053   2.891 -0.2289  0.2417  1.2730
 5807TIP3    H139056   5.809   3.075   2.965  0.2745  0.8363  0.7229
 5807TIP3    H239057   5.754   2.958   2.888  0.1721  0.2271  1.7004
 5808TIP3   OH239058   1.812   0.720   2.036 -0.0217  0.0769 -0.1423
 5808TIP3    H139059   1.794   0.785   2.103 -0.1207  0.8158 -0.8684
 5808TIP3    H239060   1.726   0.692   2.005 -0.0366 -1.6169  1.2729
 5809TIP3   OH239061   2.224   5.963   1.408  0.4053 -0.3995  0.2099
 5809TIP3    H139062   2.144   5.978   1.358 -0.4574 -1.9956  1.0546
 5809TIP3    H239063   2.239   6.045   1.455 -1.3723 -0.4269  0.8932
 5810TIP3   OH239064   2.317   1.727   4.299 -0.2735  0.6873  0.1435
 5810TIP3    H139065   2.258   1.789   4.340  1.0796  1.9453  0.2683
 5810TIP3    H239066   2.339   1.665   4.368  0.1475  1.4263  0.6872
 5811TIP3   OH239067   1.332   2.598   3.334 -0.4386 -0.3076  0.6916
 5811TIP3    H139068   1.372   2.618   3.250  0.8113  0.4141  1.4246
 5811TIP3    H239069   1.253   2.651   3.337 -1.2415 -1.3531 -0.5597
 5812TIP3   OH239070   0.329   5.334   1.215 -0.3136  0.7300 -0.0089
 5812TIP3    H139071   0.300   5.272   1.282 -2.5085  0.1713 -1.3457
 5812TIP3    H239072   0.387   5.395   1.261 -1.3028  0.0713  2.2520
 5813TIP3   OH239073   0.722   2.310   3.768  0.4275 -0.5094  0.5976
 5813TIP3    H139074   0.791   2.245   3.755  2.0525  1.1567  0.5837
 5813TIP3    H239075   0.663   2.269   3.831  0.9978 -2.2725  0.0554
 5814TIP3   OH239076   5.406   2.397   0.793  0.5364 -0.0051  0.0072
 5814TIP3    H139077   5.457   2.416   0.715  0.6861 -0.4898 -0.0137
 5814TIP3    H239078   5.453   2.326   0.836  0.1383 -0.1365  0.2305
 5815TIP3   OH239079   3.468   1.348   8.684  0.7227  0.2897 -0.0684
 5815TIP3    H139080   3.471   1.393   8.599  0.0434  0.3872 -0.0406
 5815TIP3    H239081   3.546   1.293   8.683 -1.0546 -2.4452 -2.2848
 5816TIP3   OH239082   6.136   4.490   1.545  0.0091  0.0387 -0.0145
 5816TIP3    H139083   6.069   4.547   1.584 -0.8692 -0.9589 -0.0106
 5816TIP3    H239084   6.163   4.535   1.465 -0.0364  0.8671  0.4285
 5817TIP3   OH239085   6.747   5.579   2.297  0.1481  0.9053  0.6225
 5817TIP3    H139086   6.785   5.577   2.210  1.6241 -1.8996  1.2500
 5817TIP3    H239087   6.779   5.661   2.335  2.9354  0.2254 -0.0533
 5818TIP3   OH239088   0.207   3.256   8.132  0.1523  0.7169 -0.2162
 5818TIP3    H139089   0.274   3.211   8.183 -0.7897  1.1743  1.4956
 5818TIP3    H239090   0.125   3.239   8.178 -0.7273  1.2853 -1.5018
 5819TIP3   OH239091   2.489   3.637   2.183 -0.3603 -0.4050 -0.1714
 5819TIP3    H139092   2.404   3.614   2.223 -1.1394  1.2860 -0.7643
 5819TIP3    H239093   2.470   3.644   2.090  0.8007 -1.4651 -0.5116
 5820TIP3   OH239094   2.050   5.687   1.790 -0.0351  0.5870 -0.3046
 5820TIP3    H139095   1.960   5.655   1.783  0.6630 -1.5512  0.0445
 5820TIP3    H239096   2.055   5.725   1.877 -0.7936  1.4436 -0.6158
 5821TIP3   OH239097   6.734   2.056   2.132  0.7501 -0.3415  0.7246
 5821TIP3    H139098   6.723   2.090   2.221 -0.2921  2.2432 -0.3092
 5821TIP3    H239099   6.649   2.016   2.112  0.7073 -0.1780  0.5847
 5822TIP3   OH239100   4.014   5.065   1.986  0.5313  0.5223  0.0363
 5822TIP3    H139101   3.978   5.084   1.899  0.4687  2.2278  0.3985
 5822TIP3    H239102   3.970   5.127   2.044  0.6848 -0.5037  1.2652
 5823TIP3   OH239103   0.800   4.621   0.628  0.1583 -0.0657  0.3721
 5823TIP3    H139104   0.743   4.694   0.605 -0.0961 -0.4705 -0.3447
 5823TIP3    H239105   0.814   4.575   0.545  1.8917  0.2723  0.4404
 5824TIP3   OH239106   6.765   6.690   8.623 -0.0316  0.1168 -0.5301
 5824TIP3    H139107   6.795   6.607   8.586  1.8890  0.5216 -0.0221
 5824TIP3    H239108   6.691   6.715   8.569  0.3648 -1.1281 -1.7188
 5825TIP3   OH239109   5.140   1.941   1.963 -0.1472 -0.2920  0.5868
 5825TIP3    H139110   5.123   1.926   1.870 -1.5333  0.1296  0.7517
 5825TIP3    H239111   5.075   1.887   2.008  1.6287 -1.8764  1.3784
 5826TIP3   OH239112   5.261   0.362   2.661  0.1412 -0.2420  0.0616
 5826TIP3    H139113   5.296   0.451   2.664  1.6222 -0.7239 -1.3618
 5826TIP3    H239114   5.286   0.324   2.745 -0.6974  0.7380  0.7703
 5827TIP3   OH239115   4.415   3.130   1.698  0.0522 -0.5539  0.0707
 5827TIP3    H139116   4.497   3.081   1.700  0.7267  0.5495  0.3715
 5827TIP3    H239117   4.440   3.217   1.667 -0.8530  0.0698  1.0391
 5828TIP3   OH239118   5.248   0.419   1.447  0.0524 -0.7367  0.6760
 5828TIP3    H139119   5.162   0.379   1.445 -1.7134  2.6666  0.7474
 5828TIP3    H239120   5.263   0.450   1.358  1.8527 -2.3360  0.3495
 5829TIP3   OH239121   4.017   1.019   0.483 -0.0700 -0.2161  0.5530
 5829TIP3    H139122   4.039   1.011   0.576  1.0621 -1.7978  0.1836
 5829TIP3    H239123   3.927   0.986   0.477 -0.5039  0.7864  1.1985
 5830TIP3   OH239124   0.003   3.201   2.006 -0.1040  0.4087 -0.2489
 5830TIP3    H139125  -0.018   3.129   1.947 -1.3727  0.6579 -0.1332
 5830TIP3    H239126  -0.078   3.252   2.011  0.7589  1.8462 -0.3316
 5831TIP3   OH239127   0.507   6.635   2.855  0.4284  0.4949  0.1165
 5831TIP3    H139128   0.471   6.698   2.792 -0.7296 -0.2827 -0.0387
 5831TIP3    H239129   0.433   6.616   2.913  0.9756 -0.1692  0.5981
 5832TIP3   OH239130   2.100   1.900   8.733  0.1949 -0.6889  0.1991
 5832TIP3    H139131   2.111   1.805   8.730  1.6989 -0.5227 -1.5640
 5832TIP3    H239132   2.075   1.925   8.643 -1.2195  0.4932  0.8755
 5833TIP3   OH239133   2.802   3.549   8.736 -0.0299 -0.3255 -0.1128
 5833TIP3    H139134   2.706   3.541   8.741 -0.0561 -0.0356 -0.1580
 5833TIP3    H239135   2.828   3.481   8.674 -0.1710 -0.6403  0.1637
 5834TIP3   OH239136   4.063   4.890   2.503 -0.6782  0.0538 -0.0656
 5834TIP3    H139137   4.155   4.910   2.517 -1.1234  1.8816  0.5014
 5834TIP3    H239138   4.039   4.939   2.425 -0.8578 -1.5500 -1.0697
 5835TIP3   OH239139   4.413   2.224   2.628  0.4657  0.3023  0.7612
 5835TIP3    H139140   4.484   2.283   2.651  0.3165  0.4545  0.8324
 5835TIP3    H239141   4.363   2.214   2.710 -0.3050  1.1666  0.4008
 5836TIP3   OH239142   1.062   4.386   1.356 -0.3766 -0.0349  0.1062
 5836TIP3    H139143   1.048   4.351   1.268  0.3196 -0.0621 -0.0023
 5836TIP3    H239144   1.153   4.365   1.376 -0.7123 -0.5930  1.0943
 5837TIP3   OH239145   5.578   3.254   2.838 -0.1639  0.0956 -0.5607
 5837TIP3    H139146   5.510   3.204   2.793 -0.4259 -0.5345  0.5239
 5837TIP3    H239147   5.647   3.190   2.856 -0.2551  0.2471  0.3308
 5838TIP3   OH239148   3.951   0.592   2.515  0.4235  0.0557 -0.1196
 5838TIP3    H139149   4.029   0.639   2.543  0.7876 -0.0179 -0.9683
 5838TIP3    H239150   3.954   0.509   2.563  0.0937  0.6277  0.9296
 5839TIP3   OH239151   4.377   2.341   1.791  0.6755  0.2672 -0.4907
 5839TIP3    H139152   4.283   2.344   1.813  1.1923 -0.3523  2.1906
 5839TIP3    H239153   4.410   2.427   1.817  0.8266  0.6117 -1.7603
 5840TIP3   OH239154   2.570   1.641   4.102  0.3612 -0.1869 -0.3820
 5840TIP3    H139155   2.585   1.546   4.100  1.2909 -0.0498 -0.0633
 5840TIP3    H239156   2.657   1.680   4.095  0.2252  0.6187  1.5404
 5841TIP3   OH239157   4.204   2.357   1.373  0.0125 -0.0592 -0.1251
 5841TIP3    H139158   4.135   2.317   1.320  0.6571 -0.2092 -0.8862
 5841TIP3    H239159   4.261   2.399   1.308 -0.5859  2.0280  0.6374
 5842TIP3   OH239160   4.219   4.274   3.590  0.0212  0.8874  0.8540
 5842TIP3    H139161   4.134   4.305   3.558  0.9670  1.9292 -0.7963
 5842TIP3    H239162   4.251   4.215   3.522  1.2871  1.7199  0.6841
 5843TIP3   OH239163   5.671   2.882   1.140  0.1108 -0.2695 -0.6508
 5843TIP3    H139164   5.674   2.977   1.129  0.7351 -0.3304 -1.0064
 5843TIP3    H239165   5.597   2.868   1.199 -0.1853  0.4143 -0.8411
 5844TIP3   OH239166   4.513   3.966   3.312  0.0149 -0.1589  0.0477
 5844TIP3    H139167   4.558   3.892   3.271 -0.6905  0.6213 -2.2862
 5844TIP3    H239168   4.576   4.000   3.376  1.4431 -1.0818 -0.8015
 5845TIP3   OH239169   6.172   6.279   2.782 -0.4777  0.0222  0.1206
 5845TIP3    H139170   6.126   6.197   2.801  0.1449 -0.3292  0.1394
 5845TIP3    H239171   6.153   6.335   2.857 -2.2112  0.4891 -0.6181
 5846TIP3   OH239172   6.533   6.738   3.299  0.5198 -0.5385 -0.5859
 5846TIP3    H139173   6.483   6.658   3.316 -1.0620  0.6302  0.4980
 5846TIP3    H239174   6.472   6.809   3.318  1.7303  0.9557 -1.9845
 5847TIP3   OH239175   6.155   4.038   2.150  0.2525  0.2387 -0.2443
 5847TIP3    H139176   6.068   4.064   2.180 -0.1836 -0.3019 -0.9888
 5847TIP3    H239177   6.189   4.114   2.104 -0.1369  0.1973 -0.5993
 5848TIP3   OH239178   5.187   1.148   2.434 -0.2145  0.2892  0.2937
 5848TIP3    H139179   5.253   1.078   2.431 -0.5931 -0.1987  2.2832
 5848TIP3    H239180   5.104   1.102   2.443 -0.9682  0.8829 -2.5280
 5849TIP3   OH239181   4.505   6.756   2.474 -0.2173 -0.3229 -0.4899
 5849TIP3    H139182   4.430   6.713   2.516 -0.1999  1.0742  1.0879
 5849TIP3    H239183   4.579   6.699   2.495 -0.2550  0.1961  1.2481
 5850TIP3   OH239184   2.185   2.995   0.482 -0.1185 -0.4869 -0.9526
 5850TIP3    H139185   2.096   3.009   0.451  0.1496  0.0280 -1.5104
 5850TIP3    H239186   2.203   3.071   0.538  0.8600  0.7944 -2.8957
 5851TIP3   OH239187   3.632   6.324   8.667 -0.2375 -0.0094 -0.4351
 5851TIP3    H139188   3.558   6.359   8.617 -1.7582 -0.7450  1.2132
 5851TIP3    H239189   3.665   6.251   8.614  0.3041  1.2321 -1.8830
 5852TIP3   OH239190   0.601   3.712   0.163 -0.1520  0.2836  0.1479
 5852TIP3    H139191   0.667   3.735   0.098  0.4105  0.8393  0.8828
 5852TIP3    H239192   0.604   3.617   0.168  1.3743  0.3368  0.9152
 5853TIP3   OH239193   6.378   6.352   0.782  0.2106  0.2075 -0.1002
 5853TIP3    H139194   6.284   6.361   0.767  0.1770  0.2549  0.1304
 5853TIP3    H239195   6.395   6.407   0.859  0.3726 -0.0439  0.0446
 5854TIP3   OH239196   2.418   4.245   1.190  0.0242  0.5044  0.2105
 5854TIP3    H139197   2.371   4.325   1.168  0.2622  0.7717  0.6501
 5854TIP3    H239198   2.505   4.257   1.152 -0.9034 -1.0072 -2.7477
 5855TIP3   OH239199   3.480   2.043   0.598 -0.2249  0.0503 -0.3744
 5855TIP3    H139200   3.440   2.045   0.685 -1.4187 -1.1222 -0.8781
 5855TIP3    H239201   3.529   2.125   0.593 -0.9681  0.6091  1.0122
 5856TIP3   OH239202   1.906   1.019   3.733  0.0267  0.3054  0.3070
 5856TIP3    H139203   1.940   0.934   3.758 -1.5050  0.2555  2.4408
 5856TIP3    H239204   1.823   1.000   3.689 -0.3350  0.6919  0.8148
 5857TIP3   OH239205   5.488   3.125   8.445 -0.1592 -0.2292  0.5673
 5857TIP3    H139206   5.553   3.191   8.470  1.0147 -1.4545  0.8859
 5857TIP3    H239207   5.538   3.057   8.399 -1.2946 -0.9825  0.3757
 5858TIP3   OH239208   0.184   1.295   4.025 -0.2103 -0.1330 -0.4048
 5858TIP3    H139209   0.159   1.332   3.941  0.8032 -0.6755 -0.9684
 5858TIP3    H239210   0.153   1.358   4.090 -2.8806 -0.6905 -1.0244
 5859TIP3   OH239211   5.043   3.751   1.467 -0.1330 -0.1233  0.1407
 5859TIP3    H139212   4.948   3.743   1.467 -0.0416 -1.8484  1.9204
 5859TIP3    H239213   5.067   3.749   1.374 -1.8161  0.6065 -0.3527
 5860TIP3   OH239214   4.380   4.600   2.906 -0.2874 -0.2026 -0.3599
 5860TIP3    H139215   4.454   4.546   2.879 -1.3117 -1.6515 -0.3934
 5860TIP3    H239216   4.386   4.605   3.001 -0.5592 -0.9275 -0.3065
 5861TIP3   OH239217   0.540   1.126   2.018 -0.3878  0.3374  0.6234
 5861TIP3    H139218   0.606   1.153   2.082 -0.0482  0.7521  0.1074
 5861TIP3    H239219   0.555   1.182   1.942 -0.1580 -0.7833 -0.1992
 5862TIP3   OH239220   5.594   3.605   2.171  0.4625  0.2396  0.2268
 5862TIP3    H139221   5.649   3.541   2.216  0.7220 -0.0606 -0.5012
 5862TIP3    H239222   5.655   3.653   2.115  0.4824  1.9435  1.6307
 5863TIP3   OH239223   3.442   2.312   1.619 -0.1326  0.4028  0.0149
 5863TIP3    H139224   3.505   2.371   1.579  1.5777 -0.8932  0.6812
 5863TIP3    H239225   3.400   2.364   1.687 -1.7454  2.0591 -2.0970
 5864TIP3   OH239226   6.478   5.083   1.671  0.4330  0.4270  0.3372
 5864TIP3    H139227   6.514   5.119   1.752 -2.8501  0.0917  2.1005
 5864TIP3    H239228   6.407   5.143   1.648  2.3615  1.5962 -3.4745
 5865TIP3   OH239229   0.172   6.332   3.619  0.1284 -0.0569  0.6566
 5865TIP3    H139230   0.253   6.281   3.616  0.0243 -0.1982 -0.0336
 5865TIP3    H239231   0.103   6.266   3.627  0.0289  0.0129  0.3681
 5866TIP3   OH239232   5.171   3.285   0.837 -0.4650 -0.3578  0.6973
 5866TIP3    H139233   5.159   3.301   0.744  2.2546 -0.1240  0.2985
 5866TIP3    H239234   5.179   3.190   0.844 -1.5336 -0.4425  0.8322
 5867TIP3   OH239235   4.376   1.865   2.594  0.4103 -0.1308 -0.3755
 5867TIP3    H139236   4.362   1.894   2.504 -0.5502 -0.6112 -0.3893
 5867TIP3    H239237   4.311   1.913   2.645  1.1331  0.3553  0.1241
 5868TIP3   OH239238   2.232   1.399   0.870  0.3258 -0.5127 -0.4126
 5868TIP3    H139239   2.302   1.408   0.935 -0.3806  5.2530  0.0488
 5868TIP3    H239240   2.173   1.333   0.908  2.5447 -1.2379  2.0885
 5869TIP3   OH239241   1.961   3.301   2.917  0.9013 -0.7565  0.6816
 5869TIP3    H139242   1.994   3.213   2.899 -1.2233 -1.4088 -0.3515
 5869TIP3    H239243   1.895   3.288   2.985 -0.2468 -0.1700 -0.2836
 5870TIP3   OH239244   2.043   0.504   2.908 -0.2228  0.2941 -0.9485
 5870TIP3    H139245   2.025   0.585   2.956 -1.4109  1.0013 -2.5129
 5870TIP3    H239246   2.071   0.442   2.976 -3.6527  0.6610  0.9989
 5871TIP3   OH239247   5.254   2.965   8.457 -0.0953  0.2627 -0.1891
 5871TIP3    H139248   5.197   2.950   8.381 -0.2683 -0.0745  0.0073
 5871TIP3    H239249   5.338   2.992   8.419 -0.5902  1.4785 -0.4703
 5872TIP3   OH239250   6.170   4.873   3.538  0.1476 -0.1848  0.0252
 5872TIP3    H139251   6.176   4.784   3.504  1.2986 -0.5847  1.2187
 5872TIP3    H239252   6.227   4.874   3.614  1.1569  1.9109 -0.6847
 5873TIP3   OH239253   5.779   3.347   8.268 -0.0818  0.5001  0.0170
 5873TIP3    H139254   5.687   3.328   8.250  0.2644 -2.9123  1.2143
 5873TIP3    H239255   5.812   3.386   8.186 -2.2660  0.6600 -0.8490
 5874TIP3   OH239256   1.044   0.422   2.247 -0.0204  0.5478 -0.0428
 5874TIP3    H139257   0.983   0.348   2.241  0.5993 -0.0603  0.7914
 5874TIP3    H239258   1.009   0.487   2.187 -0.0630 -0.8104 -1.5531
 5875TIP3   OH239259   1.746   5.622   0.446 -0.0017 -0.2191 -0.1781
 5875TIP3    H139260   1.746   5.651   0.355  1.6438 -2.0556 -0.8298
 5875TIP3    H239261   1.800   5.686   0.492 -0.7191  0.6346 -0.4958
 5876TIP3   OH239262   5.814   2.660   3.169  0.0844  0.2323  0.5127
 5876TIP3    H139263   5.766   2.582   3.197  0.3169  0.5105  1.7274
 5876TIP3    H239264   5.900   2.651   3.209  1.0058 -0.1206 -1.4155
 5877TIP3   OH239265   3.489   5.768   1.300  0.1890  0.1573 -0.1277
 5877TIP3    H139266   3.534   5.832   1.355 -0.0864  0.4499 -0.2410
 5877TIP3    H239267   3.398   5.798   1.297  0.4790  1.0186 -1.9916
 5878TIP3   OH239268   2.961   3.514   1.817  0.4618 -0.5248  0.4498
 5878TIP3    H139269   2.871   3.547   1.818  0.8891  0.8728 -1.0066
 5878TIP3    H239270   2.962   3.449   1.747  0.4180 -1.0652  0.9521
 5879TIP3   OH239271   5.322   0.749   7.818  0.0762  0.4104 -0.0009
 5879TIP3    H139272   5.323   0.824   7.760  1.2495  1.1676  0.9333
 5879TIP3    H239273   5.401   0.700   7.795 -0.3942 -0.2396 -0.2388
 5880TIP3   OH239274   5.760   2.494   8.736 -0.2245  0.3464 -0.2226
 5880TIP3    H139275   5.719   2.470   8.653 -1.6816  2.1656 -0.0949
 5880TIP3    H239276   5.843   2.534   8.711  0.0882 -0.5527 -0.6793
 5881TIP3   OH239277   4.322   5.012   3.180 -0.2293 -0.3098 -0.3056
 5881TIP3    H139278   4.307   5.089   3.125  0.4661 -0.6304 -0.9604
 5881TIP3    H239279   4.338   5.047   3.267  2.7138  0.4979 -1.0784
 5882TIP3   OH239280   5.667   0.797   3.039 -0.5985  0.0722 -0.1333
 5882TIP3    H139281   5.585   0.844   3.026 -1.8851 -1.6326  1.4791
 5882TIP3    H239282   5.690   0.812   3.130  0.5939  0.0481 -0.4103
 5883TIP3   OH239283   1.920   1.534   1.466 -0.4279 -0.4285  0.1228
 5883TIP3    H139284   1.894   1.499   1.381  0.7218 -1.2661  0.0888
 5883TIP3    H239285   1.838   1.552   1.512 -1.0710  0.5793 -1.3664
 5884TIP3   OH239286   0.608   2.045   2.514  0.3783  0.3718  0.2361
 5884TIP3    H139287   0.603   2.102   2.591  1.5648  0.3090  0.3768
 5884TIP3    H239288   0.517   2.021   2.497  0.0061  1.1057  1.0767
 5885TIP3   OH239289   1.290   1.766   4.290  0.0108  0.2145 -0.5576
 5885TIP3    H139290   1.220   1.718   4.336 -0.6184 -0.6910 -2.3880
 5885TIP3    H239291   1.347   1.698   4.255  0.6838  0.8977 -0.8028
 5886TIP3   OH239292   4.005   5.808   0.329  0.0237  0.1063 -0.3388
 5886TIP3    H139293   3.915   5.831   0.351  0.2862  1.1387 -0.2840
 5886TIP3    H239294   4.022   5.729   0.380 -0.6411  0.2777  0.1714
 5887TIP3   OH239295   5.936   5.068   1.788 -0.1182 -0.0375  0.6176
 5887TIP3    H139296   5.872   5.050   1.856 -0.9075  0.4583  0.0147
 5887TIP3    H239297   5.955   5.161   1.795  0.4260 -0.1480  0.6937
 5888TIP3   OH239298   2.107   3.954   2.445  0.2736  0.3318 -0.3753
 5888TIP3    H139299   2.051   3.893   2.397 -1.1988  3.0976 -2.4393
 5888TIP3    H239300   2.193   3.911   2.446 -0.9476 -2.3359 -0.4573
 5889TIP3   OH239301   0.390   1.659   1.329  0.1764 -0.2322 -0.5506
 5889TIP3    H139302   0.473   1.697   1.360  0.6850  0.4645 -2.6314
 5889TIP3    H239303   0.359   1.608   1.403  1.4941  1.0377  0.9702
 5890TIP3   OH239304   1.301   5.192   2.135 -0.3816  0.8987 -0.1034
 5890TIP3    H139305   1.215   5.232   2.147 -0.2983  0.6616  1.4551
 5890TIP3    H239306   1.350   5.217   2.213  0.7304  0.4071 -0.6241
 5891TIP3   OH239307   1.435   0.751   2.549  0.5360  0.4938  0.2650
 5891TIP3    H139308   1.481   0.673   2.580  0.2505  0.1917 -0.0518
 5891TIP3    H239309   1.352   0.717   2.515  0.4409  0.9292  0.0560
 5892TIP3   OH239310   5.028   3.737   8.433 -0.3662 -0.1095 -0.4642
 5892TIP3    H139311   5.050   3.830   8.442  1.0177 -0.4047 -0.5364
 5892TIP3    H239312   4.941   3.729   8.470 -0.0101  1.0080  0.6646
 5893TIP3   OH239313   0.763   6.252   2.267  0.2581  0.1693  0.3842
 5893TIP3    H139314   0.710   6.215   2.196 -1.2055  1.0152  0.9934
 5893TIP3    H239315   0.810   6.177   2.303  1.0965 -0.2686 -1.5008
 5894TIP3   OH239316   6.717   4.476   1.749 -0.5497  0.1770 -0.4981
 5894TIP3    H139317   6.733   4.383   1.764  0.3450  0.6804  2.0968
 5894TIP3    H239318   6.628   4.479   1.713 -1.7926 -1.5407  2.1257
 5895TIP3   OH239319   3.826   0.430   2.109  0.4218  0.0107 -0.0536
 5895TIP3    H139320   3.916   0.398   2.107  0.4689  0.1503 -0.2248
 5895TIP3    H239321   3.833   0.523   2.086  0.3741  0.3450  1.2180
 5896TIP3   OH239322   6.769   3.900   3.161  0.5992 -0.1937  0.5392
 5896TIP3    H139323   6.831   3.971   3.145  0.4363  0.2609  1.7809
 5896TIP3    H239324   6.813   3.844   3.225  0.1971 -0.4899  0.5588
 5897TIP3   OH239325   4.922   4.657   8.530  0.1638  0.5128  0.3949
 5897TIP3    H139326   4.951   4.582   8.583 -0.4994 -0.1093 -0.0960
 5897TIP3    H239327   4.985   4.662   8.459 -0.0899  0.0753  0.1330
 5898TIP3   OH239328   5.769   5.951   1.985  0.7204 -0.2092 -0.6762
 5898TIP3    H139329   5.828   6.020   2.016  1.2174 -0.5935 -0.7522
 5898TIP3    H239330   5.738   5.982   1.900  2.4383 -0.9375 -1.5957
 5899TIP3   OH239331   1.501   4.940   3.537  0.1489 -0.1532  0.1064
 5899TIP3    H139332   1.569   4.884   3.501 -0.9869 -0.8144 -1.1028
 5899TIP3    H239333   1.548   5.014   3.574  1.5237 -0.6167 -0.6328
 5900TIP3   OH239334   5.893   1.205   1.533  0.4173  0.5952 -0.3945
 5900TIP3    H139335   5.951   1.147   1.483  0.1857 -1.5993  1.6651
 5900TIP3    H239336   5.867   1.152   1.609 -2.9038  2.1052 -0.3261
 5901TIP3   OH239337   6.808   3.492   0.268  0.5483  0.1810  0.0594
 5901TIP3    H139338   6.813   3.587   0.254  3.1902  0.0474 -0.3920
 5901TIP3    H239339   6.851   3.478   0.352  0.0105 -0.6293  0.2140
 5902TIP3   OH239340   6.193   5.843   2.815 -0.0692 -0.5887  0.0274
 5902TIP3    H139341   6.198   5.748   2.827 -1.6509 -0.6709  0.2300
 5902TIP3    H239342   6.285   5.871   2.808  0.4061 -2.2556 -1.0607
 5903TIP3   OH239343   5.413   2.245   8.775 -0.4617  0.3049  0.3733
 5903TIP3    H139344   5.361   2.274   8.850 -0.1219  1.3508  0.2149
 5903TIP3    H239345   5.465   2.172   8.809 -0.3048  0.7723  1.1572
 5904TIP3   OH239346   6.682   1.382   0.668  0.2414 -0.2381 -0.3344
 5904TIP3    H139347   6.624   1.317   0.709 -0.3082 -0.6289 -1.6902
 5904TIP3    H239348   6.659   1.464   0.712 -0.6208 -0.5715 -0.1305
 5905TIP3   OH239349   0.435   5.342   2.990 -0.0546 -0.3288  0.5043
 5905TIP3    H139350   0.456   5.421   3.040 -1.3993  1.1891 -1.2063
 5905TIP3    H239351   0.361   5.303   3.037 -0.8608  0.6974  0.1030
 5906TIP3   OH239352   4.509   5.815   1.316 -0.5716  0.3951  0.4334
 5906TIP3    H139353   4.476   5.894   1.358 -3.5445 -1.4252  1.8963
 5906TIP3    H239354   4.583   5.788   1.370 -0.5591  1.3130  0.8898
 5907TIP3   OH239355   3.660   3.510   4.406 -0.6230  0.1622  0.2498
 5907TIP3    H139356   3.584   3.456   4.430  0.5325 -0.7305  2.1333
 5907TIP3    H239357   3.715   3.452   4.353  0.8543 -0.7854  2.6806
 5908TIP3   OH239358   5.505   6.623   3.185 -0.0318 -0.7167 -0.0823
 5908TIP3    H139359   5.579   6.640   3.126  0.0372  0.0206  0.2071
 5908TIP3    H239360   5.546   6.614   3.271 -0.1888 -1.2245 -0.0612
 5909TIP3   OH239361   0.283   0.732   0.284 -0.3730  0.2009  0.2931
 5909TIP3    H139362   0.306   0.822   0.305  0.4569  1.0042 -3.3292
 5909TIP3    H239363   0.339   0.678   0.340 -0.2730  1.8881  1.9061
 5910TIP3   OH239364   1.667   1.020   4.968 -0.0884  0.2236  0.1170
 5910TIP3    H139365   1.683   0.928   4.989 -0.9751 -0.5070 -2.1169
 5910TIP3    H239366   1.754   1.057   4.954  0.1921 -0.7728 -0.8266
 5911TIP3   OH239367   4.769   3.574   1.619 -0.2386  0.8188  0.5569
 5911TIP3    H139368   4.770   3.568   1.524 -0.9027  2.3839  0.4318
 5911TIP3    H239369   4.837   3.512   1.647 -0.2464  0.1049 -0.8965
 5912TIP3   OH239370   2.917   1.879   2.426  0.2868 -0.2822  0.1407
 5912TIP3    H139371   2.991   1.928   2.390  1.3135 -2.2126 -0.4830
 5912TIP3    H239372   2.938   1.869   2.519  0.5211 -0.3342  0.0822
 5913TIP3   OH239373   4.416   6.380   0.310  0.3811  0.0258 -0.4875
 5913TIP3    H139374   4.507   6.382   0.339  0.8818 -0.9817 -1.9068
 5913TIP3    H239375   4.376   6.457   0.352  1.8607  0.4783  0.1588
 5914TIP3   OH239376   0.990   0.402   3.167  0.1136  0.0931 -0.0750
 5914TIP3    H139377   0.896   0.394   3.150  0.2307 -0.7161 -0.4215
 5914TIP3    H239378   1.020   0.467   3.104  0.3638 -2.1585 -2.4451
 5915TIP3   OH239379   5.504   5.196   2.931  0.5005 -0.5910  0.1058
 5915TIP3    H139380   5.411   5.187   2.948  0.2222 -1.1274 -1.4886
 5915TIP3    H239381   5.510   5.271   2.871  1.3664  0.9123  1.9433
 5916TIP3   OH239382   5.162   0.402   3.446 -0.0561  0.1647 -0.1271
 5916TIP3    H139383   5.172   0.336   3.515 -1.2699 -0.6794 -0.7372
 5916TIP3    H239384   5.251   0.413   3.411  0.9089  1.7218  2.5140
 5917TIP3   OH239385   1.864   2.553   2.486  0.6005  0.5187  0.6461
 5917TIP3    H139386   1.935   2.598   2.440 -0.2031  1.1492  0.0138
 5917TIP3    H239387   1.798   2.620   2.502 -0.4335 -0.3243  0.0538
 5918TIP3   OH239388   2.918   0.985   3.574 -0.0980  0.2712  0.2803
 5918TIP3    H139389   2.955   0.955   3.658 -1.1676  0.7515  0.9501
 5918TIP3    H239390   2.870   0.909   3.541 -0.1672  0.2611  0.4022
 5919TIP3   OH239391   4.576   1.944   2.160 -0.1498  1.1061  0.2098
 5919TIP3    H139392   4.514   1.960   2.232  1.1083  3.2738  0.9146
 5919TIP3    H239393   4.540   1.994   2.087 -0.3573  0.5735 -0.0555
 5920TIP3   OH239394   1.645   1.687   0.057  0.1924 -0.0232 -1.0002
 5920TIP3    H139395   1.580   1.687  -0.013  0.1707  0.1800 -0.9808
 5920TIP3    H239396   1.642   1.598   0.093 -1.3183  0.4345  0.1382
 5921TIP3   OH239397   1.599   5.429   2.045  0.0816 -0.3891 -0.3468
 5921TIP3    H139398   1.560   5.363   2.102  1.9400  0.7452  2.5092
 5921TIP3    H239399   1.690   5.436   2.077  0.4558  2.1955 -1.7583
 5922TIP3   OH239400   6.206   4.400   3.154  0.0239  0.2423  0.4265
 5922TIP3    H139401   6.260   4.428   3.080  0.0697 -0.3923  0.2092
 5922TIP3    H239402   6.117   4.397   3.118  0.0086  0.1972  0.4682
 5923TIP3   OH239403   1.624   0.672   8.786 -0.3561 -0.0785  0.3801
 5923TIP3    H139404   1.676   0.749   8.765  0.2591 -0.3187  0.9620
 5923TIP3    H239405   1.614   0.675   8.881 -1.2961 -0.1138  0.2919
 5924TIP3   OH239406   3.978   6.753   1.340  0.0366  0.2719 -0.5267
 5924TIP3    H139407   4.010   6.737   1.428 -0.8136  1.0337 -0.0673
 5924TIP3    H239408   3.984   6.848   1.329 -1.0365  0.3163 -0.8157
 5925TIP3   OH239409   0.418   2.551   1.957  0.0550  0.3305 -0.3387
 5925TIP3    H139410   0.446   2.607   1.884 -1.3810  0.3639 -0.9061
 5925TIP3    H239411   0.322   2.554   1.953 -0.0390 -0.7987  0.6908
 5926TIP3   OH239412   5.535   3.430   3.067  0.5918 -0.0865  0.0692
 5926TIP3    H139413   5.590   3.396   2.996  1.9279 -0.7304  1.3729
 5926TIP3    H239414   5.511   3.352   3.118 -1.6793  0.1554 -0.5221
 5927TIP3   OH239415   2.978   1.915   3.632 -0.4191 -0.3663 -0.0883
 5927TIP3    H139416   2.983   2.002   3.593 -1.0235 -1.1645 -2.0651
 5927TIP3    H239417   3.070   1.890   3.645 -0.2369  0.4100  0.1870
 5928TIP3   OH239418   1.900   2.442   1.823  0.2149 -0.4377  0.0848
 5928TIP3    H139419   1.826   2.387   1.848  0.4960 -0.6570  0.4342
 5928TIP3    H239420   1.933   2.477   1.906 -0.9296  1.5359 -0.2087
 5929TIP3   OH239421   3.190   5.689   3.493  0.2893 -0.2789 -0.3550
 5929TIP3    H139422   3.148   5.774   3.507 -1.8286 -1.0792 -1.3818
 5929TIP3    H239423   3.209   5.656   3.581 -1.5651  0.0213  0.1940
 5930TIP3   OH239424   5.156   4.456   1.655 -0.3706 -0.0659 -0.0279
 5930TIP3    H139425   5.136   4.442   1.562  1.7308  1.8673 -0.8512
 5930TIP3    H239426   5.106   4.534   1.679 -0.1991 -0.0285  0.2139
 5931TIP3   OH239427   2.288   0.088   4.288  0.4273 -0.3872 -0.0864
 5931TIP3    H139428   2.370   0.067   4.333  1.1780  0.4504 -1.0302
 5931TIP3    H239429   2.289   0.034   4.209 -0.1985 -0.7625  0.1485
 5932TIP3   OH239430   3.763   6.492   1.159 -0.0713  0.1938  0.1491
 5932TIP3    H139431   3.767   6.525   1.249 -1.8600 -0.7899  0.6329
 5932TIP3    H239432   3.775   6.570   1.105  2.5709  0.6082  1.1568
 5933TIP3   OH239433   1.679   0.577   3.907  0.0375 -0.5580 -0.2330
 5933TIP3    H139434   1.611   0.528   3.954 -1.5735 -0.7009 -2.5489
 5933TIP3    H239435   1.648   0.668   3.908  0.3555 -0.4459 -0.4328
 5934TIP3   OH239436   1.146   3.692   0.820 -0.3561 -0.4488 -0.3157
 5934TIP3    H139437   1.147   3.679   0.725 -1.9234 -0.1259 -0.4150
 5934TIP3    H239438   1.189   3.776   0.833  0.0910 -0.6102 -0.7183
 5935TIP3   OH239439   0.349   3.239   0.754 -0.2628 -0.0158  0.0687
 5935TIP3    H139440   0.437   3.266   0.781 -0.1716 -0.0889 -0.1565
 5935TIP3    H239441   0.296   3.251   0.832 -0.1832  0.6400  0.0265
 5936TIP3   OH239442   3.530   1.442   3.182 -0.0289  0.5975  0.3021
 5936TIP3    H139443   3.603   1.490   3.143  1.1623  2.0337  3.9509
 5936TIP3    H239444   3.458   1.453   3.119  1.3619  3.7005 -0.9381
 5937TIP3   OH239445   3.068   4.034   2.864 -0.1727 -0.3842  0.0695
 5937TIP3    H139446   3.106   3.992   2.941 -0.0084  0.5757  0.5189
 5937TIP3    H239447   3.039   4.119   2.895  1.2436  0.6274 -1.2543
 5938TIP3   OH239448   0.259   6.050   0.819 -0.0960  0.0798 -0.2897
 5938TIP3    H139449   0.167   6.067   0.840  0.6234  0.5009  3.2169
 5938TIP3    H239450   0.272   5.958   0.845  0.4144 -0.1143 -1.1830
 5939TIP3   OH239451   5.590   2.991   0.526  0.0690 -0.1934 -0.1135
 5939TIP3    H139452   5.621   3.079   0.545  0.2457 -0.3856  0.5286
 5939TIP3    H239453   5.505   3.004   0.484 -0.2190  0.2752  0.5849
 5940TIP3   OH239454   3.295   1.525   1.727 -0.2582 -0.3955  0.1227
 5940TIP3    H139455   3.383   1.537   1.691 -0.1699  0.0194  0.4682
 5940TIP3    H239456   3.296   1.438   1.765  0.2078 -0.1427  0.6941
 5941TIP3   OH239457   6.406   4.560   3.727  0.2170  0.1326  0.0893
 5941TIP3    H139458   6.468   4.590   3.793 -0.0470 -1.9331  1.3831
 5941TIP3    H239459   6.326   4.541   3.777  0.1242 -1.8240 -0.7302
 5942TIP3   OH239460   1.969   0.727   0.068  0.6133 -0.6471 -0.0309
 5942TIP3    H139461   1.933   0.645   0.033 -1.2985  0.5649 -1.0907
 5942TIP3    H239462   2.051   0.740   0.021 -0.0061 -1.0176 -1.2430
 5943TIP3   OH239463   4.993   1.949   2.337 -0.3273  0.3911  0.1020
 5943TIP3    H139464   4.916   2.006   2.330  1.0829  2.3875  0.0569
 5943TIP3    H239465   5.062   2.006   2.371  1.0676 -1.4162  0.4209
 5944TIP3   OH239466   1.568   6.557   0.601  0.4038 -0.0724 -0.2766
 5944TIP3    H139467   1.592   6.620   0.670  0.4040 -0.3084 -0.0597
 5944TIP3    H239468   1.652   6.523   0.570  0.3923 -0.1691 -0.2022
 5945TIP3   OH239469   1.390   3.532   2.776  0.0236  0.2556  0.2609
 5945TIP3    H139470   1.416   3.521   2.867  0.7205  1.7301  0.2693
 5945TIP3    H239471   1.451   3.478   2.727 -1.4900 -2.0406  0.7219
 5946TIP3   OH239472   6.529   2.757   2.715 -0.2026  0.0350 -0.3926
 5946TIP3    H139473   6.575   2.841   2.709 -0.0260  0.0193  0.5803
 5946TIP3    H239474   6.442   2.780   2.748  0.3793 -0.3045  1.4664
 5947TIP3   OH239475   1.319   2.919   2.295  0.4003  0.5337  0.3363
 5947TIP3    H139476   1.337   2.893   2.385  2.8809 -1.2159 -0.5653
 5947TIP3    H239477   1.225   2.904   2.284  0.6034 -2.4659  1.7028
 5948TIP3   OH239478   5.892   4.427   1.771 -0.2171 -0.0504 -0.4091
 5948TIP3    H139479   5.946   4.361   1.815 -0.6493 -0.8196 -0.9965
 5948TIP3    H239480   5.889   4.500   1.833 -1.2570 -1.3047  1.1054
 5949TIP3   OH239481   6.466   4.060   0.923  0.1369  0.5603  0.4172
 5949TIP3    H139482   6.437   4.152   0.927  1.0257  0.8409  0.8129
 5949TIP3    H239483   6.386   4.010   0.910 -0.1668  1.5375 -1.9624
 5950TIP3   OH239484   3.145   4.660   0.111  0.5277  0.0267  0.0311
 5950TIP3    H139485   3.154   4.637   0.018  0.8646  0.3852 -0.0317
 5950TIP3    H239486   3.216   4.722   0.126  0.2345  0.2639  0.4358
 5951TIP3   OH239487   1.358   4.165   3.240 -0.2818 -0.2520  0.0875
 5951TIP3    H139488   1.311   4.195   3.317 -0.7306 -1.0492  0.1313
 5951TIP3    H239489   1.421   4.101   3.273  1.2118  1.1715  0.0981
 5952TIP3   OH239490   5.519   0.025   0.307 -0.1359  0.7132  0.6806
 5952TIP3    H139491   5.551   0.016   0.397 -0.2918 -0.3975  0.6341
 5952TIP3    H239492   5.481   0.113   0.304 -3.0776 -0.3073  2.6731
 5953TIP3   OH239493   1.719   4.812   3.135 -0.0518 -0.2278  0.6042
 5953TIP3    H139494   1.689   4.727   3.167 -0.5275 -0.6411 -0.8954
 5953TIP3    H239495   1.659   4.834   3.064  1.8329 -0.0547 -1.0266
 5954TIP3   OH239496   3.010   5.786   0.229 -0.3405 -0.4548  0.0249
 5954TIP3    H139497   2.987   5.727   0.158  0.3362 -0.6689 -0.0255
 5954TIP3    H239498   3.008   5.873   0.189  0.9952 -0.6520 -0.5365
 5955TIP3   OH239499   3.285   6.561   1.146 -0.7184  0.2990  0.8329
 5955TIP3    H139500   3.364   6.574   1.094 -1.0440  1.6447  0.6574
 5955TIP3    H239501   3.318   6.535   1.233  0.1839  4.1739  1.8631
 5956TIP3   OH239502   0.325   0.139   0.888  0.5881  0.2732  0.2418
 5956TIP3    H139503   0.364   0.216   0.846 -1.2608  1.0914 -0.0644
 5956TIP3    H239504   0.364   0.137   0.975  0.4581  1.7443  0.3594
 5957TIP3   OH239505   1.306   6.546   1.162 -1.1120  0.2111  0.4661
 5957TIP3    H139506   1.260   6.486   1.103  1.8108 -0.2527 -1.6018
 5957TIP3    H239507   1.309   6.629   1.114  1.2401 -0.1529 -0.1456
 5958TIP3   OH239508   0.044   3.183   3.553  0.1460 -0.1109 -0.0621
 5958TIP3    H139509  -0.017   3.115   3.582 -0.0637  0.0921 -0.0230
 5958TIP3    H239510   0.084   3.215   3.634 -0.0797  0.1159 -0.0374
 5959TIP3   OH239511   2.276   3.815   0.510 -0.0174 -0.0162 -0.1673
 5959TIP3    H139512   2.317   3.801   0.595  1.8413 -1.3523 -1.2059
 5959TIP3    H239513   2.237   3.731   0.488 -0.1023  0.1918 -0.8382
 5960TIP3   OH239514   4.300   1.126   0.952 -0.0930 -0.2721  0.1736
 5960TIP3    H139515   4.223   1.179   0.973 -0.6420 -1.4483  1.2447
 5960TIP3    H239516   4.278   1.081   0.871  1.3177  2.8726 -2.1987
 5961TIP3   OH239517   6.336   1.181   8.809 -0.1808  0.6851  0.4960
 5961TIP3    H139518   6.329   1.276   8.820  0.1254  0.6787  0.7616
 5961TIP3    H239519   6.357   1.170   8.716  0.5364  0.9223  0.6198
 5962TIP3   OH239520   2.227   0.380   4.199 -0.1652 -0.3026  0.5858
 5962TIP3    H139521   2.231   0.453   4.261 -0.6562 -1.8063  2.4794
 5962TIP3    H239522   2.184   0.310   4.248  1.0365 -2.1449 -0.8824
 5963TIP3   OH239523   1.431   3.521   2.144  0.4502 -0.6035 -0.2198
 5963TIP3    H139524   1.489   3.566   2.206 -0.4947 -1.7216  1.5718
 5963TIP3    H239525   1.343   3.554   2.164 -0.1102 -2.2937  0.3294
 5964TIP3   OH239526   0.691   0.824   0.138  0.0247  0.0955 -0.2512
 5964TIP3    H139527   0.661   0.737   0.163  0.2995 -0.5667 -2.0696
 5964TIP3    H239528   0.767   0.840   0.194  1.9126 -2.2192 -1.9552
 5965TIP3   OH239529   3.384   6.635   0.577 -0.4294  0.9339  0.6149
 5965TIP3    H139530   3.389   6.560   0.517 -1.3953  1.8511 -0.6749
 5965TIP3    H239531   3.291   6.661   0.575 -0.4190  1.1816  2.2931
 5966TIP3   OH239532   5.797   3.701   0.126 -0.0614 -0.0106  0.2901
 5966TIP3    H139533   5.818   3.690   0.033  0.1126 -1.0996  0.4450
 5966TIP3    H239534   5.704   3.680   0.131 -0.6214  2.1308  0.0473
 5967TIP3   OH239535   1.781   0.484   0.513 -0.6746 -0.2965 -1.0265
 5967TIP3    H139536   1.866   0.456   0.479 -0.7168 -0.4195 -1.0299
 5967TIP3    H239537   1.764   0.425   0.587 -2.2888 -2.4850 -3.0047
 5968TIP3   OH239538   2.046   3.119   8.397 -0.3539  0.1721 -0.3343
 5968TIP3    H139539   2.040   3.214   8.387 -1.4966  0.1032 -0.4383
 5968TIP3    H239540   1.955   3.089   8.399 -0.0194 -0.8655  0.2398
 5969TIP3   OH239541   2.303   1.232   1.273  0.7605  0.8314  0.1575
 5969TIP3    H139542   2.292   1.317   1.231  0.5294  1.8002  2.1015
 5969TIP3    H239543   2.298   1.250   1.367  1.4041 -1.2282  0.6415
 5970TIP3   OH239544   2.976   2.966   1.197 -0.0866  0.6770  0.6179
 5970TIP3    H139545   3.033   2.922   1.261  0.7041  0.7152 -0.0352
 5970TIP3    H239546   3.035   3.025   1.149 -0.9906  1.9151  0.9876
 5971TIP3   OH239547   2.168   0.266   0.510 -0.1599 -0.0869  0.4050
 5971TIP3    H139548   2.215   0.317   0.576 -1.1483  0.9866  0.3078
 5971TIP3    H239549   2.162   0.324   0.434  0.0071 -0.9089 -0.2502
 5972TIP3   OH239550   2.069   0.498   0.389 -0.3763  0.1256 -0.5543
 5972TIP3    H139551   2.094   0.454   0.308 -0.5875  3.1545 -2.3892
 5972TIP3    H239552   2.034   0.582   0.362  0.4251  1.7033  2.7492
 5973TIP3   OH239553   2.785   0.574   1.291  0.3616  1.0547  0.1262
 5973TIP3    H139554   2.866   0.619   1.268  1.7957 -2.0412 -1.3207
 5973TIP3    H239555   2.727   0.590   1.217  1.3432 -0.4524 -1.0219
 5974TIP3   OH239556   0.976   1.615   8.016  0.2185 -0.7114  0.2029
 5974TIP3    H139557   0.908   1.549   8.027 -1.0418  0.5392  0.2175
 5974TIP3    H239558   0.928   1.697   8.004  1.7206  0.0040 -1.2021
 5975TIP3   OH239559   0.232   4.998   0.076  0.1954 -0.2019  0.4723
 5975TIP3    H139560   0.257   4.954   0.157  2.2016 -2.8751 -1.4027
 5975TIP3    H239561   0.137   4.994   0.074  0.1831 -1.3033  2.0517
 5976TIP3   OH239562   4.334   1.529   2.557  0.2241  0.1241  0.3194
 5976TIP3    H139563   4.396   1.537   2.630  1.1609  0.3931 -0.4809
 5976TIP3    H239564   4.341   1.613   2.511  1.4692 -0.8911 -1.4551
 5977TIP3   OH239565   4.754   5.506   0.268  0.0697  0.1112 -0.6318
 5977TIP3    H139566   4.844   5.530   0.248 -0.0377  1.2360  0.0862
 5977TIP3    H239567   4.735   5.431   0.212  1.2252  0.2846 -1.2815
 5978TIP3   OH239568   6.034   6.653   0.996  0.4326  0.9279  0.2231
 5978TIP3    H139569   6.017   6.744   1.022  1.3431  1.4086 -0.7514
 5978TIP3    H239570   6.037   6.604   1.078 -0.4610  1.7071  0.7371
 5979TIP3   OH239571   1.714   4.807   0.978  0.4559 -0.3165  0.1369
 5979TIP3    H139572   1.749   4.844   0.896  1.3010  0.5942  0.8797
 5979TIP3    H239573   1.697   4.715   0.957  0.7299 -0.1194 -1.0400
 5980TIP3   OH239574   4.273   0.505   3.249  0.1660  0.2035  0.7063
 5980TIP3    H139575   4.268   0.413   3.224 -0.6487  0.4432 -0.0692
 5980TIP3    H239576   4.337   0.543   3.189  0.2040  0.2302  0.7631
 5981TIP3   OH239577   5.793   5.052   2.056 -0.5136 -0.0789  0.5239
 5981TIP3    H139578   5.840   5.133   2.035  0.5735 -0.8996 -0.3474
 5981TIP3    H239579   5.847   5.010   2.124  0.8684 -1.6628 -1.3967
 5982TIP3   OH239580   6.340   6.754   1.162  0.0788  0.0657  0.5176
 5982TIP3    H139581   6.258   6.752   1.212 -1.2456 -0.5866 -1.5207
 5982TIP3    H239582   6.335   6.836   1.113 -0.0965 -0.6702 -0.7322
 5983TIP3   OH239583   5.204   5.743   1.080  0.4361  0.3394 -0.3053
 5983TIP3    H139584   5.184   5.739   0.987  1.2439 -1.0555 -0.4395
 5983TIP3    H239585   5.297   5.766   1.084  0.0337  2.0039  0.2116
 5984TIP3   OH239586   2.292   0.649   2.798 -0.0188  0.2454  0.2431
 5984TIP3    H139587   2.246   0.654   2.714  0.9198 -1.7955 -0.4557
 5984TIP3    H239588   2.224   0.629   2.862 -0.3087 -1.8792 -0.6427
 5985TIP3   OH239589   2.288   2.604   1.626  0.1737  0.2252 -0.0751
 5985TIP3    H139590   2.206   2.645   1.599  0.9887  2.0046  0.0318
 5985TIP3    H239591   2.337   2.590   1.545  0.4991  0.8359  0.0098
 5986TIP3   OH239592   2.285   6.479   0.412 -0.7797 -0.3772 -0.0538
 5986TIP3    H139593   2.222   6.462   0.342  0.0938 -0.9573 -0.7231
 5986TIP3    H239594   2.303   6.572   0.407  0.9014 -0.7342 -2.0644
 5987TIP3   OH239595   3.913   4.729   3.184 -0.5185  0.1946  0.2885
 5987TIP3    H139596   3.958   4.645   3.183 -0.2681  0.3005  1.3323
 5987TIP3    H239597   3.882   4.741   3.094 -0.1708 -0.7967  0.0237
 5988TIP3   OH239598   4.281   0.092   1.272 -0.4670  0.2039 -0.4979
 5988TIP3    H139599   4.189   0.087   1.300 -0.7062  0.0813 -1.2768
 5988TIP3    H239600   4.301   0.003   1.243  0.4763 -0.2396  1.3851
 5989TIP3   OH239601   1.686   0.718   3.441  0.0248  0.9390  0.5475
 5989TIP3    H139602   1.593   0.697   3.449  0.1565  0.2497  0.3678
 5989TIP3    H239603   1.725   0.679   3.519  0.4010 -0.2566 -0.2166
 5990TIP3   OH239604   1.799   4.983   0.717  0.2959 -0.0787 -0.2257
 5990TIP3    H139605   1.842   5.060   0.754  2.4004 -1.2825  0.0288
 5990TIP3    H239606   1.706   5.002   0.722  0.7343  2.7940 -0.9734
 5991TIP3   OH239607   6.679   2.293   1.909 -0.0549  0.2236  0.3256
 5991TIP3    H139608   6.594   2.330   1.934 -0.4339 -0.5134  0.1782
 5991TIP3    H239609   6.719   2.268   1.992 -0.5670 -0.6378  0.3327
 5992TIP3   OH239610   6.665   5.845   0.975 -0.1961 -0.4522 -0.1532
 5992TIP3    H139611   6.612   5.817   1.049 -2.1386 -1.5725 -1.8393
 5992TIP3    H239612   6.751   5.806   0.991 -0.7852 -1.2989  1.1321
 5993TIP3   OH239613   6.017   0.692   7.861  0.2168  0.3377  0.6784
 5993TIP3    H139614   6.080   0.671   7.792 -1.0879  1.3524 -0.9131
 5993TIP3    H239615   5.992   0.607   7.897  0.1048 -0.3562 -0.9247
 5994TIP3   OH239616   6.042   0.053   0.306 -0.3526  0.2397  0.2627
 5994TIP3    H139617   5.957   0.064   0.262 -0.3872  1.3093  0.5706
 5994TIP3    H239618   6.023  -0.000   0.383 -1.2591  2.5845  1.7514
 5995TIP3   OH239619   1.676   1.536   1.046 -0.3652  0.0010  0.4354
 5995TIP3    H139620   1.589   1.512   1.014  0.3434  0.3202 -1.9353
 5995TIP3    H239621   1.685   1.628   1.023  0.6746 -0.0783  0.4984
 5996TIP3   OH239622   1.412   1.754   0.556  0.0197  0.2967  0.3364
 5996TIP3    H139623   1.366   1.761   0.640  0.0857 -0.9055  0.5012
 5996TIP3    H239624   1.446   1.841   0.539 -0.6143  0.7288  1.2064
 5997TIP3   OH239625   6.762   3.834   3.480  0.1225  0.5506 -0.4612
 5997TIP3    H139626   6.683   3.787   3.453 -0.3363  1.8537 -1.5164
 5997TIP3    H239627   6.773   3.812   3.573 -1.2774  0.0802 -0.3904
 5998TIP3   OH239628   4.435   2.736   8.809  0.6988  0.2324 -0.0371
 5998TIP3    H139629   4.347   2.705   8.788 -1.2342  3.3818  2.4581
 5998TIP3    H239630   4.462   2.789   8.734 -1.0208  1.8906  0.4610
 5999TIP3   OH239631   4.071   1.950   1.238  0.5209 -0.0577 -0.7253
 5999TIP3    H139632   4.141   1.886   1.226  0.7845  0.0679  0.0927
 5999TIP3    H239633   3.990   1.899   1.231  0.7368 -0.6651  0.8454
 6000TIP3   OH239634   6.801   3.039   0.879 -0.1175  0.4041  0.7264
 6000TIP3    H139635   6.781   3.073   0.792  1.1876 -0.2695  0.1384
 6000TIP3    H239636   6.828   3.115   0.930  0.7985  0.5513  0.0277
 6001TIP3   OH239637   0.780   2.382   2.632  0.2099  0.0779  0.0362
 6001TIP3    H139638   0.695   2.359   2.668 -0.1353  1.8380  0.4585
 6001TIP3    H239639   0.763   2.398   2.539  0.3799 -0.9337 -0.1803
 6002TIP3   OH239640   4.775   6.754   8.778 -0.2906  0.3101  0.3417
 6002TIP3    H139641   4.773   6.829   8.718  0.7652  0.8173  0.9117
 6002TIP3    H239642   4.860   6.760   8.822 -0.5163 -0.7741  0.9772
 6003TIP3   OH239643   4.421   6.603   1.817  0.2732  0.2841 -0.0296
 6003TIP3    H139644   4.497   6.553   1.847  0.3256  0.2292 -0.2522
 6003TIP3    H239645   4.386   6.552   1.744  0.0573  0.3388  0.0341
 6004TIP3   OH239646   5.845   5.589   2.466  0.4562 -0.4044 -0.0472
 6004TIP3    H139647   5.848   5.659   2.400  2.4472 -1.3828 -1.0686
 6004TIP3    H239648   5.855   5.634   2.549  2.2043  0.5474 -0.7167
 6005TIP3   OH239649   5.349   2.058   0.241  0.1952  0.0176 -0.1161
 6005TIP3    H139650   5.319   2.140   0.201  1.9055  0.1007 -1.3160
 6005TIP3    H239651   5.290   2.046   0.315 -0.2704  2.2044 -0.0397
 6006TIP3   OH239652   5.448   6.565   8.734  0.1107 -0.4653  0.5520
 6006TIP3    H139653   5.362   6.566   8.693  0.3039 -0.6668  0.1312
 6006TIP3    H239654   5.430   6.568   8.828 -0.4298 -2.1768  0.5491
 6007TIP3   OH239655   2.184   4.526   1.058  0.4725  0.7676  0.6466
 6007TIP3    H139656   2.224   4.499   0.976 -0.1416  0.5261  0.4275
 6007TIP3    H239657   2.215   4.616   1.071 -0.6452  1.3589 -0.6206
 6008TIP3   OH239658   1.301   5.584   0.496 -0.3936  0.3624  0.0529
 6008TIP3    H139659   1.295   5.490   0.511 -0.0238  0.2594 -0.4270
 6008TIP3    H239660   1.328   5.620   0.580  0.5393 -0.0855 -0.0410
 6009TIP3   OH239661   5.809   0.232   3.028 -0.1224 -0.0388  0.0198
 6009TIP3    H139662   5.888   0.213   3.078  0.4501  2.0318 -0.0422
 6009TIP3    H239663   5.827   0.314   2.983 -1.5816 -0.5223 -1.5886
 6010TIP3   OH239664   6.480   4.345   1.675 -0.1236  0.2637 -0.0159
 6010TIP3    H139665   6.476   4.333   1.770  0.3942 -0.9282 -0.1205
 6010TIP3    H239666   6.432   4.270   1.640  0.5754  0.1290 -0.7069
 6011TIP3   OH239667   1.194   5.898   3.463  0.4698  0.6372  0.3817
 6011TIP3    H139668   1.188   5.829   3.529  0.2664  1.3524  1.1336
 6011TIP3    H239669   1.269   5.873   3.408 -0.5904 -1.0048 -0.3690
 6012TIP3   OH239670   1.674   0.345   3.260 -0.1278 -0.5275  0.4942
 6012TIP3    H139671   1.723   0.358   3.179 -0.4692 -3.3871 -0.2771
 6012TIP3    H239672   1.591   0.390   3.246  0.4399  0.3884 -0.0478
 6013TIP3   OH239673   0.232   4.123   8.060 -0.1288 -0.0949 -0.3021
 6013TIP3    H139674   0.315   4.077   8.053 -0.1593 -0.3317  0.7111
 6013TIP3    H239675   0.171   4.072   8.007  0.5825  0.6622 -1.9270
 6014TIP3   OH239676   2.938   4.043   1.464  0.0834 -0.1611 -0.3549
 6014TIP3    H139677   2.962   4.005   1.379  1.2781 -1.1502  0.3956
 6014TIP3    H239678   2.939   4.137   1.449  0.9815 -0.2978 -1.2702
 6015TIP3   OH239679   1.332   2.650   1.394 -0.1314  0.0824  0.6225
 6015TIP3    H139680   1.370   2.589   1.331 -1.5935 -0.3296  0.0913
 6015TIP3    H239681   1.339   2.736   1.352 -0.5463 -0.1110  0.1438
 6016TIP3   OH239682   4.498   4.926   0.617  0.0362 -0.2567  0.3414
 6016TIP3    H139683   4.549   4.942   0.538  0.1803 -0.3311  0.4193
 6016TIP3    H239684   4.511   4.833   0.636  0.8784 -0.0097  1.0608
 6017TIP3   OH239685   5.350   3.393   2.580 -0.5151  0.4541 -0.1221
 6017TIP3    H139686   5.288   3.462   2.602 -0.6731  0.8069 -1.5658
 6017TIP3    H239687   5.434   3.438   2.570  0.1405 -0.0866  2.3098
 6018TIP3   OH239688   6.384   2.009   2.385  0.1236 -0.2153  0.0067
 6018TIP3    H139689   6.293   1.986   2.403  0.4726 -0.6043  1.3716
 6018TIP3    H239690   6.418   1.935   2.335 -0.5580  0.3875 -1.4309
 6019TIP3   OH239691   2.550   1.205   3.015 -0.0356  0.5161  0.1819
 6019TIP3    H139692   2.483   1.138   2.998 -0.0430  0.8097 -1.0184
 6019TIP3    H239693   2.580   1.187   3.104 -0.9119 -0.3223  0.3193
 6020TIP3   OH239694   5.610   6.697   1.413  0.9149 -0.1480  0.3994
 6020TIP3    H139695   5.677   6.753   1.451  0.8562  0.9027 -0.9489
 6020TIP3    H239696   5.649   6.667   1.330 -0.3921  0.8106 -0.6039
 6021TIP3   OH239697   5.355   0.788   2.791  0.5760  0.0916  0.1527
 6021TIP3    H139698   5.349   0.837   2.709  2.1195  0.4003  0.1879
 6021TIP3    H239699   5.287   0.721   2.784 -0.5508  1.2848 -0.5510
 6022TIP3   OH239700   1.049   6.433   1.646 -0.1412 -0.1237 -0.2790
 6022TIP3    H139701   0.959   6.413   1.624  0.5095 -1.9654 -1.4846
 6022TIP3    H239702   1.044   6.512   1.700 -2.4905 -0.5688  0.2361
 6023TIP3   OH239703   4.286   5.412   0.141  0.2700 -0.6052 -0.3703
 6023TIP3    H139704   4.240   5.397   0.059 -0.2012  0.8585 -0.4065
 6023TIP3    H239705   4.257   5.341   0.199 -1.6415 -0.0476 -0.5655
 6024TIP3   OH239706   3.650   0.028   2.427 -0.6620  0.8725 -0.2222
 6024TIP3    H139707   3.626  -0.013   2.510  1.6327 -1.3327 -0.5299
 6024TIP3    H239708   3.679   0.116   2.451 -0.2611  0.3487  1.3157
 6025TIP3   OH239709   0.898   1.610   2.127 -0.4894  0.3133  0.0608
 6025TIP3    H139710   0.841   1.651   2.062  0.0140  1.1709  0.1490
 6025TIP3    H239711   0.934   1.533   2.083 -2.3049 -0.6972  0.2556
 6026TIP3   OH239712   1.440   5.458   4.194  0.0810  1.1235 -0.2921
 6026TIP3    H139713   1.481   5.428   4.113  1.5017 -1.5676  1.2600
 6026TIP3    H239714   1.506   5.511   4.237  2.9143 -4.0338  2.6894
 6027TIP3   OH239715   0.758   1.143   0.404  0.1537  0.4617 -0.3739
 6027TIP3    H139716   0.781   1.080   0.473  0.2109  0.3832 -0.4644
 6027TIP3    H239717   0.827   1.134   0.339  0.2060  0.6759 -0.3508
 6028TIP3   OH239718   5.205   4.679   3.888  0.0534  0.3252  0.0502
 6028TIP3    H139719   5.167   4.712   3.970  0.4675  0.8612  0.0290
 6028TIP3    H239720   5.147   4.607   3.863 -3.0370  3.1230 -1.7306
 6029TIP3   OH239721   1.634   5.220   1.534 -0.5075 -0.2998  0.4953
 6029TIP3    H139722   1.600   5.157   1.598  0.3071 -2.2103 -0.8518
 6029TIP3    H239723   1.615   5.180   1.449  1.8592  0.2540 -0.3727
 6030TIP3   OH239724   3.149   0.033   1.638 -0.1916  0.4461 -0.1836
 6030TIP3    H139725   3.085   0.030   1.708 -1.0566 -0.8516 -0.9941
 6030TIP3    H239726   3.105   0.079   1.567  0.8329  2.1511  0.2133
 6031TIP3   OH239727   4.578   2.257   1.274 -0.2080  0.2445  0.1806
 6031TIP3    H139728   4.527   2.328   1.235 -0.6718  0.1832  0.6577
 6031TIP3    H239729   4.546   2.251   1.364  0.9367  0.4685  0.6173
 6032TIP3   OH239730   5.465   5.568   1.271  0.1460  0.0088  0.1340
 6032TIP3    H139731   5.556   5.593   1.257  0.2873  0.2124  1.2700
 6032TIP3    H239732   5.418   5.606   1.197  1.0046 -0.2272 -0.5414
 6033TIP3   OH239733   2.574   2.334   3.508 -0.3851 -0.2783  0.5729
 6033TIP3    H139734   2.643   2.296   3.562 -1.0428 -2.3454  0.0423
 6033TIP3    H239735   2.493   2.300   3.545 -0.9340 -0.3970 -0.7048
 6034TIP3   OH239736   3.854   1.532   4.240  0.4262  0.5849 -0.3386
 6034TIP3    H139737   3.859   1.439   4.216  2.4423  0.5377  0.0902
 6034TIP3    H239738   3.845   1.531   4.335 -3.0950  0.8452 -0.5340
 6035TIP3   OH239739   5.948   1.222   8.665 -0.1860 -0.4131 -0.8477
 6035TIP3    H139740   6.005   1.298   8.672 -1.0610  0.1352  0.9634
 6035TIP3    H239741   5.928   1.216   8.572  1.4953  0.3396 -1.3018
 6036TIP3   OH239742   1.761   0.439   3.006  0.2853 -0.0295 -0.2342
 6036TIP3    H139743   1.685   0.452   2.949  0.4646  0.3615 -0.3902
 6036TIP3    H239744   1.834   0.424   2.946  0.0898 -1.8634 -0.0584
 6037TIP3   OH239745   2.131   4.136   1.206 -0.3910  0.4113  0.3136
 6037TIP3    H139746   2.202   4.199   1.195  0.5996 -0.9751 -2.1637
 6037TIP3    H239747   2.172   4.061   1.251 -0.4464 -0.1172 -0.4988
 6038TIP3   OH239748   0.853   6.385   3.278 -0.1542 -0.4267  0.3961
 6038TIP3    H139749   0.930   6.437   3.299  1.6672 -2.0289 -1.8602
 6038TIP3    H239750   0.811   6.431   3.205  0.0818 -0.8411 -0.0041
 6039TIP3   OH239751   3.138   6.396   2.737 -0.0776  0.0106  0.4236
 6039TIP3    H139752   3.234   6.396   2.736 -0.0687 -0.9226 -0.6585
 6039TIP3    H239753   3.113   6.444   2.658 -0.4828 -0.9466 -0.0418
 6040TIP3   OH239754   1.832   1.447   0.822 -0.6154  0.2479 -0.5037
 6040TIP3    H139755   1.814   1.510   0.891 -1.0977  0.4394 -0.7962
 6040TIP3    H239756   1.749   1.439   0.774 -0.7095 -0.9723 -0.1762
 6041TIP3   OH239757   2.025   6.805   1.747 -0.2606  0.6422  0.3391
 6041TIP3    H139758   1.941   6.815   1.790  0.9300  1.7650  2.5469
 6041TIP3    H239759   2.043   6.711   1.751 -1.6568  0.2922 -0.7710
 6042TIP3   OH239760   5.420   3.431   3.451  0.0880 -0.1635 -0.3036
 6042TIP3    H139761   5.490   3.385   3.499 -0.4170  0.4349  1.0488
 6042TIP3    H239762   5.463   3.508   3.415  0.3373 -0.2996 -0.3043
 6043TIP3   OH239763   2.169   2.449   1.327 -0.1791 -0.1090  0.4194
 6043TIP3    H139764   2.256   2.477   1.353 -0.9185  3.2922 -0.2553
 6043TIP3    H239765   2.184   2.379   1.263  1.9216 -0.7403  1.5066
 6044TIP3   OH239766   4.664   3.692   0.886 -0.1410 -0.4428 -0.1804
 6044TIP3    H139767   4.622   3.618   0.842 -0.7277 -0.4543  0.3780
 6044TIP3    H239768   4.741   3.655   0.928 -0.2354 -0.6682 -0.2045
 6045TIP3   OH239769   1.947   3.242   0.300 -0.1939 -0.2605 -0.4913
 6045TIP3    H139770   2.039   3.263   0.316 -0.0190 -2.1414  1.4662
 6045TIP3    H239771   1.902   3.327   0.301  1.3077  0.5561  0.2231
 6046TIP3   OH239772   2.140   4.347   2.847  0.2856  0.2716 -0.1680
 6046TIP3    H139773   2.127   4.421   2.788  0.4796  0.9434  0.6273
 6046TIP3    H239774   2.109   4.271   2.797 -2.8374  1.2443  0.1050
 6047TIP3   OH239775   1.224   1.231   8.308 -0.2452 -0.1778  0.3613
 6047TIP3    H139776   1.156   1.262   8.248 -1.9888 -2.6927  0.8268
 6047TIP3    H239777   1.197   1.264   8.393  1.7800  2.7031  0.0022
 6048TIP3   OH239778   6.762   2.629   3.783  0.0678 -0.3260  0.1265
 6048TIP3    H139779   6.771   2.646   3.689 -1.6022 -1.4202 -0.2579
 6048TIP3    H239780   6.755   2.716   3.822 -0.0723  0.1155 -0.8522
 6049TIP3   OH239781   5.283   1.555   0.533 -0.5902 -0.0921  0.1166
 6049TIP3    H139782   5.339   1.622   0.493  2.3939 -2.2698  0.3526
 6049TIP3    H239783   5.240   1.601   0.605  0.9358  1.7295 -0.0445
 6050TIP3   OH239784   2.218   5.483   0.995 -0.0758 -0.3274  0.5303
 6050TIP3    H139785   2.191   5.526   0.914 -0.5721  1.8780  1.7789
 6050TIP3    H239786   2.142   5.431   1.021 -0.4219  0.0379  0.2678
 6051TIP3   OH239787   4.586   5.656   0.105  0.5741  0.6727 -0.1727
 6051TIP3    H139788   4.539   5.738   0.122 -0.7367 -0.3573  1.4481
 6051TIP3    H239789   4.626   5.634   0.189 -0.2613 -1.0589 -0.1913
 6052TIP3   OH239790   6.184   0.488   2.862 -0.0415  0.3300  0.2423
 6052TIP3    H139791   6.171   0.511   2.954 -0.4180 -1.0274  0.5450
 6052TIP3    H239792   6.146   0.401   2.853 -0.6196  0.7076 -1.3697
 6053TIP3   OH239793   3.094   4.209   1.198  0.0606  0.3621 -0.3560
 6053TIP3    H139794   3.166   4.269   1.216 -1.0368  1.7257 -0.3680
 6053TIP3    H239795   3.024   4.237   1.258 -0.7222 -0.4567 -0.8601
 6054TIP3   OH239796   3.083   6.443   1.708  0.1065 -0.5466 -0.4354
 6054TIP3    H139797   3.024   6.513   1.682  0.7777  1.3410  2.5528
 6054TIP3    H239798   3.117   6.406   1.626  0.2233  3.0787 -2.1798
 6055TIP3   OH239799   4.324   3.454   2.610  0.0617  0.5159  0.6828
 6055TIP3    H139800   4.351   3.383   2.551  2.0972  1.8894 -0.1215
 6055TIP3    H239801   4.356   3.428   2.696 -0.3701 -0.1354  0.6550
 6056TIP3   OH239802   6.044   2.613   2.370  0.3059  0.1568  0.5187
 6056TIP3    H139803   6.101   2.688   2.353 -0.6196  1.1549  1.6316
 6056TIP3    H239804   5.961   2.652   2.397 -0.3057 -1.2814  0.7998
 6057TIP3   OH239805   4.399   6.755   0.916  0.4835 -0.0206  0.2922
 6057TIP3    H139806   4.320   6.797   0.950 -0.2633 -1.6353  0.6275
 6057TIP3    H239807   4.435   6.707   0.990  0.3189 -1.3991 -0.4867
 6058TIP3   OH239808   4.829   2.974   2.154 -0.4519 -0.5007  0.0189
 6058TIP3    H139809   4.831   3.013   2.066  0.8003 -1.2161 -0.2990
 6058TIP3    H239810   4.776   2.895   2.144 -1.1433 -0.0598  0.1487
 6059TIP3   OH239811   3.852   5.004   1.256  0.4191  0.2730 -0.1964
 6059TIP3    H139812   3.868   5.007   1.351  0.0167 -0.9477 -0.0734
 6059TIP3    H239813   3.757   4.997   1.248  0.5154 -0.5544 -0.6597
 6060TIP3   OH239814   1.769   3.358   1.589  0.0738 -0.2145 -0.1687
 6060TIP3    H139815   1.679   3.326   1.584 -0.1686  0.4698 -0.2188
 6060TIP3    H239816   1.823   3.280   1.573 -0.5263 -0.2373 -2.2594
 6061TIP3   OH239817   4.823   3.629   1.900  0.0678  0.1553  0.4160
 6061TIP3    H139818   4.798   3.656   1.812  0.0945  0.2805  0.4453
 6061TIP3    H239819   4.889   3.694   1.926  1.3734 -0.8992 -0.1488
 6062TIP3   OH239820   1.394   0.005   3.807 -0.1121  0.0500  0.4653
 6062TIP3    H139821   1.440  -0.048   3.872 -0.0348  0.8853  1.1107
 6062TIP3    H239822   1.394  -0.048   3.728  2.7314  0.3299  0.1720
 6063TIP3   OH239823   4.349   3.438   2.916  0.3951  0.3429  0.6286
 6063TIP3    H139824   4.384   3.349   2.903 -0.5663  0.1762 -1.0849
 6063TIP3    H239825   4.269   3.440   2.863 -1.0765  1.3912  2.7624
 6064TIP3   OH239826   2.742   3.408   0.575  0.3599  0.1362 -0.1191
 6064TIP3    H139827   2.832   3.384   0.599  0.4802 -1.1372 -1.6630
 6064TIP3    H239828   2.727   3.492   0.619  1.3582 -0.8575  2.3286
 6065TIP3   OH239829   5.881   3.060   1.770  0.6234  0.2861  0.0218
 6065TIP3    H139830   5.903   3.120   1.699  1.1853 -0.1899 -0.2119
 6065TIP3    H239831   5.787   3.073   1.784 -0.0788 -1.3526 -2.4959
 6066TIP3   OH239832   1.132   5.820   0.502 -0.2669  0.3294 -0.2990
 6066TIP3    H139833   1.199   5.882   0.471 -0.2918  0.1665 -0.6779
 6066TIP3    H239834   1.167   5.734   0.480 -1.1654  0.2832 -1.6416
 6067TIP3   OH239835   0.509   6.068   8.369 -0.3319  0.3195  0.0282
 6067TIP3    H139836   0.422   6.033   8.389 -0.1486 -0.1677 -0.0071
 6067TIP3    H239837   0.522   6.047   8.277  0.1620 -0.3643  0.2422
 6068TIP3   OH239838   0.767   0.949   0.806  0.0869 -0.3248  0.2276
 6068TIP3    H139839   0.861   0.963   0.794  0.2156 -0.6486  0.8381
 6068TIP3    H239840   0.747   0.988   0.891  0.0213 -1.8242  0.9288
 6069TIP3   OH239841   2.105   3.869   3.253  0.1683  0.9035 -0.6283
 6069TIP3    H139842   2.187   3.908   3.223  0.5436  0.0427 -0.7313
 6069TIP3    H239843   2.131   3.799   3.312 -0.5230  1.3279  0.2193
 6070TIP3   OH239844   4.548   1.470   0.790 -0.5811  0.0337  0.4548
 6070TIP3    H139845   4.581   1.557   0.810 -0.5615  0.1072  0.1016
 6070TIP3    H239846   4.480   1.484   0.724 -1.3561 -0.1110  1.2146
 6071TIP3   OH239847   4.896   1.023   2.679 -0.6089  0.5627 -0.7658
 6071TIP3    H139848   4.851   0.945   2.712  1.8733 -0.4500  0.5643
 6071TIP3    H239849   4.839   1.057   2.610 -2.0021 -2.1747 -1.1032
 6072TIP3   OH239850   3.228   0.818   3.905  0.2694 -0.4637  0.0673
 6072TIP3    H139851   3.310   0.867   3.908  0.1391 -0.2174 -0.2543
 6072TIP3    H239852   3.254   0.727   3.921  0.8503 -0.6529 -1.6602
 6073TIP3   OH239853   6.513   5.079   3.669  0.4744  0.6944  0.2159
 6073TIP3    H139854   6.493   4.998   3.621  0.9156  0.1963  0.8532
 6073TIP3    H239855   6.498   5.056   3.761  0.6681  1.3225  0.4054
 6074TIP3   OH239856   3.599   5.249   1.702  0.0912 -0.3191  0.5196
 6074TIP3    H139857   3.566   5.181   1.761 -0.5890 -0.8483 -0.4585
 6074TIP3    H239858   3.599   5.209   1.616  4.4390 -0.7995  0.5307
 6075TIP3   OH239859   2.991   0.898   3.803  0.1716  0.0451 -0.2841
 6075TIP3    H139860   3.083   0.883   3.827 -0.2093 -1.3694  0.3479
 6075TIP3    H239861   2.941   0.843   3.863 -1.0479 -0.0239 -1.3371
 6076TIP3   OH239862   6.319   1.162   0.477  0.0320 -0.3261  0.5274
 6076TIP3    H139863   6.271   1.229   0.525 -0.1618 -1.0568  1.3852
 6076TIP3    H239864   6.394   1.208   0.438  0.2397  0.2631  1.6070
 6077TIP3   OH239865   2.128   1.780   2.897  0.5231 -0.5489  0.0527
 6077TIP3    H139866   2.209   1.732   2.911  0.3309 -1.2570 -1.1377
 6077TIP3    H239867   2.138   1.821   2.811  0.3612  0.9223  0.6966
 6078TIP3   OH239868   3.348   6.599   2.302 -0.0970  0.7803  0.8092
 6078TIP3    H139869   3.306   6.627   2.221  0.7482  0.7130  0.3366
 6078TIP3    H239870   3.323   6.666   2.366  0.3496  1.6015  0.1516
 6079TIP3   OH239871   3.518   6.322   1.180  0.1840 -0.2526 -0.3126
 6079TIP3    H139872   3.485   6.384   1.245 -2.1881 -0.8296 -0.8962
 6079TIP3    H239873   3.607   6.353   1.161  0.1609  1.1704  1.6081
 6080TIP3   OH239874   1.353   3.588   3.228 -1.0875  0.3228  0.0624
 6080TIP3    H139875   1.422   3.528   3.199 -0.8790  0.6914 -0.2213
 6080TIP3    H239876   1.299   3.601   3.151 -0.5395  1.2950 -0.1784
 6081TIP3   OH239877   5.539   4.713   1.824 -0.5056  0.4941 -0.2206
 6081TIP3    H139878   5.466   4.654   1.808 -0.1246 -0.2064  0.5360
 6081TIP3    H239879   5.553   4.758   1.741 -1.1338 -0.1127 -0.6587
 6082TIP3   OH239880   3.510   0.548   2.442  0.2209 -0.2451 -0.4060
 6082TIP3    H139881   3.435   0.577   2.391 -0.1694 -1.3235 -0.4525
 6082TIP3    H239882   3.583   0.600   2.409  0.0645 -1.2007 -2.3486
 6083TIP3   OH239883   1.470   4.841   2.987  0.3205  0.7836  0.4748
 6083TIP3    H139884   1.447   4.915   2.931  2.9046  1.6266  0.4095
 6083TIP3    H239885   1.412   4.851   3.063  0.4588  2.7897  0.3779
 6084TIP3   OH239886   2.681   2.277   3.780 -0.5252 -0.1620 -0.0668
 6084TIP3    H139887   2.743   2.212   3.813  1.6501  1.4203 -0.7779
 6084TIP3    H239888   2.643   2.317   3.858 -1.3964 -1.7884  0.3691
 6085TIP3   OH239889   1.387   5.801   1.776 -0.2605 -0.0234 -0.1374
 6085TIP3    H139890   1.328   5.822   1.848  1.4047  0.4773  1.1575
 6085TIP3    H239891   1.461   5.756   1.817  1.2497  1.2186 -1.3530
 6086TIP3   OH239892   2.270   1.268   3.777  0.5697  0.1343 -0.5601
 6086TIP3    H139893   2.350   1.228   3.742  0.0616 -1.0452 -0.4227
 6086TIP3    H239894   2.217   1.287   3.699  0.8676  0.6724 -0.6341
 6087TIP3   OH239895   6.197   3.271   8.732 -0.0937 -0.1046  0.5753
 6087TIP3    H139896   6.152   3.337   8.679 -0.9882  0.1290  1.5936
 6087TIP3    H239897   6.236   3.212   8.668 -0.2700  0.7512 -0.3504
 6088TIP3   OH239898   5.609   0.405   0.928  0.2589  0.3968  0.0402
 6088TIP3    H139899   5.643   0.458   0.856  0.1288  0.2463 -0.1307
 6088TIP3    H239900   5.645   0.447   1.007 -0.3587  1.1195 -0.0498
 6089TIP3   OH239901   6.121   5.931   3.634  0.1433 -0.0090 -0.5491
 6089TIP3    H139902   6.152   5.849   3.595  1.8076 -0.8759  2.3306
 6089TIP3    H239903   6.037   5.908   3.674  0.6661 -0.3595  0.3596
 6090TIP3   OH239904   4.969   1.517   2.068  0.2799 -0.0724 -0.1637
 6090TIP3    H139905   4.891   1.469   2.096  0.7042 -0.6890 -0.0252
 6090TIP3    H239906   5.040   1.481   2.121  0.7507  0.1067 -0.6655
 6091TIP3   OH239907   6.379   5.963   1.097  0.2944  0.4087  0.4911
 6091TIP3    H139908   6.473   5.983   1.102  0.5955 -0.1045 -1.9353
 6091TIP3    H239909   6.373   5.871   1.123  0.2777  0.7331  1.7100
 6092TIP3   OH239910   1.785   0.138   2.869 -0.7905 -0.2507  0.1956
 6092TIP3    H139911   1.747   0.059   2.832  1.5781 -1.2945 -0.1862
 6092TIP3    H239912   1.830   0.108   2.948 -1.2851  1.0456  1.0142
 6093TIP3   OH239913   2.170   2.299   1.099 -0.0033  0.5107 -0.1847
 6093TIP3    H139914   2.094   2.242   1.091 -1.7990  2.4369  1.7659
 6093TIP3    H239915   2.150   2.374   1.043  0.1362  1.3325  0.8453
 6094TIP3   OH239916   6.536   5.758   1.868  0.3784  0.6189 -0.1823
 6094TIP3    H139917   6.604   5.823   1.848  0.2597  0.5578 -0.8064
 6094TIP3    H239918   6.497   5.788   1.950  0.2377  1.4051 -0.5336
 6095TIP3   OH239919   4.947   3.598   2.328  0.1657  0.0410 -0.3233
 6095TIP3    H139920   5.023   3.592   2.270 -1.6202  1.8908 -3.1112
 6095TIP3    H239921   4.915   3.687   2.316 -2.1006 -0.4713  1.2353
 6096TIP3   OH239922   1.744   1.822   3.163  0.4658 -0.3922 -0.1958
 6096TIP3    H139923   1.760   1.785   3.076  0.8789  1.3569 -0.9019
 6096TIP3    H239924   1.681   1.892   3.148  1.0589  0.3842  0.7974
 6097TIP3   OH239925   3.042   0.805   2.965 -0.0407 -0.2231 -0.5709
 6097TIP3    H139926   3.136   0.824   2.968  0.0276 -0.5908 -0.1700
 6097TIP3    H239927   3.000   0.889   2.983  0.2546 -0.3984  1.0908
 6098TIP3   OH239928   0.772   1.805   1.057  0.1402  0.0817 -0.3994
 6098TIP3    H139929   0.701   1.868   1.068  0.7738  0.6484  0.5294
 6098TIP3    H239930   0.848   1.859   1.034  1.4880  0.1011  3.5067
 6099TIP3   OH239931   1.994   1.566   3.188 -0.2231  0.3566  0.4466
 6099TIP3    H139932   1.974   1.649   3.144  0.1228  0.1246 -0.1555
 6099TIP3    H239933   1.916   1.512   3.174  0.1568  0.0351 -0.4952
 6100TIP3   OH239934   1.566   4.611   2.881  0.0541 -0.1729  0.3294
 6100TIP3    H139935   1.517   4.670   2.939 -0.6103 -0.4775  0.0863
 6100TIP3    H239936   1.505   4.593   2.809  0.7402 -0.0969 -0.2745
 6101TIP3   OH239937   5.693   1.473   2.171 -0.9853  0.0152 -0.2524
 6101TIP3    H139938   5.755   1.404   2.192 -2.0741 -1.0323 -0.3705
 6101TIP3    H239939   5.688   1.473   2.075  1.3027  2.3794 -0.4768
 6102TIP3   OH239940   0.907   2.431   2.019 -0.2970  0.2470 -0.6732
 6102TIP3    H139941   0.824   2.472   1.994 -1.0610 -1.3985 -0.9220
 6102TIP3    H239942   0.888   2.338   2.022  1.5463 -0.1650 -0.6902
 6103TIP3   OH239943   3.836   2.341   1.613  0.4544  0.2508  0.1111
 6103TIP3    H139944   3.925   2.309   1.626  0.2937 -0.9064 -1.3545
 6103TIP3    H239945   3.828   2.352   1.518 -1.0493  0.0491  0.1868
 6104TIP3   OH239946   4.744   1.442   2.292 -0.3378  0.1101 -0.4609
 6104TIP3    H139947   4.722   1.535   2.291 -0.0714  0.1699 -0.8685
 6104TIP3    H239948   4.663   1.398   2.267 -0.8726  0.1364  1.1101
 6105TIP3   OH239949   0.493   1.349   2.628  0.0584 -0.3109  0.4205
 6105TIP3    H139950   0.536   1.282   2.575  1.9987  0.5320  0.8532
 6105TIP3    H239951   0.561   1.415   2.644 -1.1768  0.6940  1.8370
 6106TIP3   OH239952   6.460   6.587   1.596  0.1272  0.0153 -0.1821
 6106TIP3    H139953   6.365   6.581   1.591  0.2029 -1.7107 -0.3214
 6106TIP3    H239954   6.485   6.646   1.524 -0.7951 -0.0165 -0.5356
 6107TIP3   OH239955   2.214   3.377   1.639  0.0630 -0.0262 -0.0443
 6107TIP3    H139956   2.290   3.432   1.653  1.2107 -1.6588  0.4312
 6107TIP3    H239957   2.233   3.331   1.557 -1.1612  0.7044 -0.7708
 6108TIP3   OH239958   3.747   5.309   1.272  0.1088  0.3276  0.4736
 6108TIP3    H139959   3.842   5.307   1.262 -0.0687 -0.5160 -1.3438
 6108TIP3    H239960   3.726   5.402   1.275  1.0555  0.5370  2.0654
 6109TIP3   OH239961   2.999   4.364   4.065 -0.4715 -0.0381  0.1584
 6109TIP3    H139962   3.064   4.430   4.043 -0.8095 -0.0357 -0.9286
 6109TIP3    H239963   3.031   4.284   4.024  0.1264 -0.6735  1.7849
 6110TIP3   OH239964   6.244   1.390   2.202 -0.2135  0.0602 -0.3827
 6110TIP3    H139965   6.168   1.430   2.162  0.2011  2.9567  1.4253
 6110TIP3    H239966   6.318   1.445   2.175  0.8304 -1.0534  0.0935
 6111TIP3   OH239967   0.944   4.592   1.481  0.1745  0.7349  0.7049
 6111TIP3    H139968   0.980   4.512   1.442 -1.5431 -1.3310  3.0299
 6111TIP3    H239969   1.016   4.655   1.478  2.2467 -1.5089  0.4566
 6112TIP3   OH239970   5.549   3.497   1.252  0.3633  0.7036 -0.1497
 6112TIP3    H139971   5.642   3.489   1.230  0.3283  1.2379 -0.4882
 6112TIP3    H239972   5.538   3.588   1.279 -0.1538  0.7522 -0.5206
 6113TIP3   OH239973   4.986   5.728   2.598  0.4792 -0.0183  0.2825
 6113TIP3    H139974   4.948   5.664   2.537 -0.7816  0.0237  0.9876
 6113TIP3    H239975   4.939   5.809   2.579  1.6163  0.5557 -0.1589
 6114TIP3   OH239976   1.509   4.541   4.010  0.8782 -0.1617  0.7201
 6114TIP3    H139977   1.519   4.477   3.939  0.2009  0.2822  0.2059
 6114TIP3    H239978   1.484   4.488   4.086 -0.6895 -0.4417  0.0594
 6115TIP3   OH239979   2.222   1.125   2.119  0.1807 -0.4727 -0.5692
 6115TIP3    H139980   2.183   1.212   2.132 -0.1672 -0.7243  0.1238
 6115TIP3    H239981   2.184   1.095   2.037 -0.5652 -0.4203 -0.2544
 6116TIP3   OH239982   1.478   0.402   4.093 -0.4435  0.0844  0.3847
 6116TIP3    H139983   1.504   0.310   4.103 -1.2020 -0.1468  0.3161
 6116TIP3    H239984   1.383   0.398   4.081 -0.2906  0.7237 -1.4116
 6117TIP3   OH239985   3.645   0.776   3.625  0.6758 -0.6061  0.4490
 6117TIP3    H139986   3.583   0.839   3.661 -0.0539 -1.8878  1.5371
 6117TIP3    H239987   3.670   0.813   3.540  0.3637  1.1708  1.0894
 6118TIP3   OH239988   3.938   6.112   1.094 -0.4583 -0.6625 -0.2789
 6118TIP3    H139989   3.865   6.066   1.135  1.0289 -2.0317  0.9701
 6118TIP3    H239990   3.931   6.091   1.001 -0.1278 -3.1121  0.1775
 6119TIP3   OH239991   4.437   3.382   1.554 -0.0309  0.1663 -0.0901
 6119TIP3    H139992   4.462   3.405   1.465 -1.3645  0.0025 -0.5229
 6119TIP3    H239993   4.499   3.429   1.610 -0.1574  1.5077 -1.0610
 6120TIP3   OH239994   5.404   3.671   2.349 -0.4699 -0.5728  0.0019
 6120TIP3    H139995   5.482   3.673   2.293 -0.6430  3.5591 -0.3997
 6120TIP3    H239996   5.345   3.610   2.306  1.1691 -1.0429 -1.7084
 6121TIP3   OH239997   3.909   6.104   2.041 -0.7875  0.6621  0.3432
 6121TIP3    H139998   3.995   6.069   2.064 -0.8577 -0.3637 -0.8352
 6121TIP3    H239999   3.873   6.137   2.123  0.8883  1.4786  0.7807
 6122TIP3   OH240000   0.572   6.736   0.432  0.2390 -0.3413  0.0882
 6122TIP3    H140001   0.494   6.784   0.404  0.6113 -0.0332 -0.4351
 6122TIP3    H240002   0.598   6.685   0.355  3.0082  2.7537 -1.2546
 6123TIP3   OH240003   5.604   2.476   3.291 -0.3180  0.3872  0.0523
 6123TIP3    H140004   5.651   2.485   3.373  0.9561 -0.5049 -0.5332
 6123TIP3    H240005   5.517   2.443   3.316 -0.8034  2.3632  1.1782
 6124TIP3   OH240006   1.602   6.307   2.605  0.3032  0.0828 -0.8662
 6124TIP3    H140007   1.668   6.250   2.565  0.3580 -0.0051 -0.6542
 6124TIP3    H240008   1.528   6.249   2.623  0.4113  0.0437 -0.5222
 6125TIP3   OH240009   6.174   3.465   1.031 -0.0259 -0.0742 -0.1902
 6125TIP3    H140010   6.267   3.454   1.012  0.0616  1.8582 -1.1358
 6125TIP3    H240011   6.129   3.425   0.957  0.1179  0.5253 -0.6103
 6126TIP3   OH240012   5.875   4.586   3.603 -0.0582  0.0349  0.6630
 6126TIP3    H140013   5.894   4.493   3.602  1.8899  0.3421  2.1690
 6126TIP3    H240014   5.932   4.621   3.672 -0.1677  2.4432 -0.3645
 6127TIP3   OH240015   6.342   3.661   1.942 -0.7460 -0.5868 -0.4295
 6127TIP3    H140016   6.423   3.707   1.967 -0.7239 -2.2082  3.0558
 6127TIP3    H240017   6.272   3.711   1.982 -1.2797 -0.4999 -1.4383
 6128TIP3   OH240018   2.816   3.630   0.795 -0.7901 -0.5209 -0.1936
 6128TIP3    H140019   2.871   3.620   0.718  1.1458 -0.5035  1.1091
 6128TIP3    H240020   2.833   3.719   0.825 -0.0500 -1.1132  1.2666
 6129TIP3   OH240021   5.668   1.637   1.595  0.1099  0.2830  0.5274
 6129TIP3    H140022   5.635   1.548   1.582  0.8800  0.1863 -0.9603
 6129TIP3    H240023   5.720   1.655   1.517  1.0195  1.5732  1.3972
 6130TIP3   OH240024   0.048   3.089   3.113  0.1376 -0.3323 -0.3717
 6130TIP3    H140025  -0.038   3.119   3.145  1.0450  1.5691  0.4235
 6130TIP3    H240026   0.080   3.161   3.059  2.7297  0.6733  2.2172
 6131TIP3   OH240027   4.290   3.485   1.141  0.1908  0.0288  0.0529
 6131TIP3    H140028   4.294   3.523   1.053 -0.8857 -1.0711 -0.5039
 6131TIP3    H240029   4.217   3.424   1.137 -1.3703  1.5953  2.3944
 6132TIP3   OH240030   0.153   5.390   2.751 -0.2022 -0.2442 -0.4372
 6132TIP3    H140031   0.167   5.355   2.839  2.6948  1.6707 -0.0066
 6132TIP3    H240032   0.074   5.444   2.759 -1.5252 -2.1468  0.2264
 6133TIP3   OH240033   3.168   3.193   8.392  0.2875  0.3118 -0.0544
 6133TIP3    H140034   3.117   3.175   8.313  0.3902 -1.8738  0.3054
 6133TIP3    H240035   3.255   3.157   8.373 -0.2919 -2.3483  1.7681
 6134TIP3   OH240036   4.180   1.721   0.834 -0.1657  0.3000  0.0381
 6134TIP3    H140037   4.170   1.683   0.746 -1.6285 -0.0319  0.3271
 6134TIP3    H240038   4.109   1.784   0.841  1.0812  1.7305  0.3081
 6135TIP3   OH240039   2.112   4.722   0.374  0.0291  0.2793  0.4306
 6135TIP3    H140040   2.058   4.788   0.418  2.3305  2.6951 -0.0795
 6135TIP3    H240041   2.099   4.739   0.281  0.3547 -0.2425  0.2884
 6136TIP3   OH240042   0.851   2.889   1.250 -0.1577  0.4530 -0.1974
 6136TIP3    H140043   0.912   2.944   1.300 -1.9720  0.2402  2.4387
 6136TIP3    H240044   0.841   2.810   1.302 -3.0086  0.6833 -0.2273
 6137TIP3   OH240045   1.038   6.107   8.690 -0.2497 -0.6193  0.3551
 6137TIP3    H140046   0.955   6.072   8.657  0.4327 -1.4370 -0.5343
 6137TIP3    H240047   1.073   6.159   8.618 -0.2994  0.2971  0.9717
 6138TIP3   OH240048   4.367   2.544   1.985 -0.2381  0.0158 -0.2136
 6138TIP3    H140049   4.289   2.597   2.004 -0.8484 -1.0236  0.2685
 6138TIP3    H240050   4.350   2.461   2.029  1.2115 -0.1845  0.0030
 6139TIP3   OH240051   2.847   6.741   2.428  0.3303  0.1859 -0.2410
 6139TIP3    H140052   2.898   6.728   2.348  0.9683  1.2672 -0.0288
 6139TIP3    H240053   2.876   6.670   2.486  1.4524  0.6391 -0.2094
 6140TIP3   OH240054   5.003   3.970   3.369 -0.4032  0.2802 -0.0601
 6140TIP3    H140055   4.973   3.903   3.308  0.1487  0.3393 -0.3995
 6140TIP3    H240056   4.978   4.052   3.328 -0.1406  0.3158 -0.1495
 6141TIP3   OH240057   4.718   2.244   7.992 -0.4716  0.0179  0.1618
 6141TIP3    H140058   4.630   2.241   7.955 -0.9972  2.1340  1.0901
 6141TIP3    H240059   4.753   2.328   7.963  0.5970 -0.0405  1.2068
 6142TIP3   OH240060   1.860   3.619   2.536  0.4188 -0.7066 -0.1678
 6142TIP3    H140061   1.883   3.531   2.567  1.7787 -0.0726  0.7322
 6142TIP3    H240062   1.865   3.674   2.615 -2.0881 -0.0844 -0.3618
 6143TIP3   OH240063   4.915   4.215   2.377  0.2844 -0.7252 -0.6074
 6143TIP3    H140064   4.883   4.297   2.339  1.7473  0.3457  0.3488
 6143TIP3    H240065   4.893   4.222   2.470 -0.1613 -1.7401 -0.6251
 6144TIP3   OH240066   5.771   5.156   1.128 -0.0398 -0.2050 -0.4009
 6144TIP3    H140067   5.830   5.227   1.154 -0.4112 -0.0162 -0.0636
 6144TIP3    H240068   5.720   5.138   1.207  0.3276 -1.1240 -0.3558
 6145TIP3   OH240069   6.693   4.022   8.752 -0.2341 -0.1039  0.0295
 6145TIP3    H140070   6.645   4.038   8.670 -1.9082 -0.6490  0.8526
 6145TIP3    H240071   6.737   3.939   8.738 -1.2252 -0.6363 -0.0415
 6146TIP3   OH240072   5.239   6.435   1.561  0.0814 -0.4150 -0.4377
 6146TIP3    H140073   5.176   6.441   1.633 -0.0117  0.1454 -0.5623
 6146TIP3    H240074   5.201   6.371   1.501 -0.7463  0.4949 -0.8894
 6147TIP3   OH240075   5.082   4.334   3.182 -0.1871  0.3714  0.6670
 6147TIP3    H140076   5.174   4.318   3.202  0.4702  2.0845 -0.7092
 6147TIP3    H240077   5.079   4.338   3.086 -1.4715  1.4780  0.7237
 6148TIP3   OH240078   2.318   3.580   3.128 -0.6825 -0.0381  0.3799
 6148TIP3    H140079   2.322   3.608   3.220 -0.6904 -0.4413  0.5027
 6148TIP3    H240080   2.392   3.624   3.087  0.5426 -1.4138  1.0016
 6149TIP3   OH240081   0.047   2.213   1.555 -0.8349 -0.3378 -0.3467
 6149TIP3    H140082  -0.026   2.156   1.530 -1.5324  0.8774 -1.1922
 6149TIP3    H240083   0.071   2.258   1.474 -0.2681  0.5304  0.2902
 6150TIP3   OH240084   6.102   4.123   1.842 -0.1751 -0.3699  0.3380
 6150TIP3    H140085   6.186   4.112   1.888 -0.0265 -2.7582 -0.3622
 6150TIP3    H240086   6.125   4.131   1.750 -0.7055 -1.8944  0.0422
 6151TIP3   OH240087   6.149   4.643   2.272  0.0750  0.1696  0.3359
 6151TIP3    H140088   6.164   4.721   2.218 -1.5240  2.2643  2.6778
 6151TIP3    H240089   6.217   4.647   2.339 -0.6160  0.1751  1.0569
 6152TIP3   OH240090   4.651   6.261   1.968 -0.2430 -0.0963 -0.0909
 6152TIP3    H140091   4.669   6.355   1.965  1.2397 -0.3534 -0.1006
 6152TIP3    H240092   4.584   6.247   1.901 -0.9683  1.0412  0.3706
 6153TIP3   OH240093   2.617   2.672   1.958 -0.3542 -0.4543  0.1642
 6153TIP3    H140094   2.529   2.636   1.942  0.2916 -2.2124  0.3192
 6153TIP3    H240095   2.638   2.643   2.047 -0.3534  1.5936  0.8685
 6154TIP3   OH240096   1.911   4.389   4.178  0.2883  0.1469  0.6339
 6154TIP3    H140097   1.946   4.301   4.189 -0.7500 -0.3591  0.0564
 6154TIP3    H240098   1.961   4.425   4.105  0.3742 -0.1426  0.5472
 6155TIP3   OH240099   6.005   2.766   0.633  0.2085  0.0062 -0.2094
 6155TIP3    H140100   5.945   2.818   0.580  0.3220  0.7031  0.3357
 6155TIP3    H240101   6.041   2.827   0.696 -0.1196 -0.8654  0.8507
 6156TIP3   OH240102   3.260   6.324   3.595  0.7820  0.2221 -0.3812
 6156TIP3    H140103   3.271   6.382   3.671 -1.0540 -0.4927  0.5054
 6156TIP3    H240104   3.189   6.265   3.621  1.0668 -0.9496 -2.1403
 6157TIP3   OH240105   1.585   0.032   4.604 -0.0379 -0.6450  0.0437
 6157TIP3    H140106   1.537  -0.032   4.551 -2.0798  0.3011  0.6611
 6157TIP3    H240107   1.562   0.009   4.694  0.0511  0.2971  0.3154
 6158TIP3   OH240108   4.324   4.228   2.696 -0.1728  0.4716 -0.2976
 6158TIP3    H140109   4.323   4.147   2.646  0.5889  1.0216 -1.2465
 6158TIP3    H240110   4.415   4.257   2.693  0.3863 -0.4472  3.0933
 6159TIP3   OH240111   6.599   6.435   1.268  0.4181 -0.2788  0.1184
 6159TIP3    H140112   6.598   6.370   1.338 -1.4778 -0.2155  0.2148
 6159TIP3    H240113   6.601   6.519   1.313 -2.1236 -0.1964  0.2394
 6160TIP3   OH240114   1.770   0.185   0.960  0.2714 -0.4459  0.0238
 6160TIP3    H140115   1.692   0.145   0.997 -0.1426 -0.4221 -0.7833
 6160TIP3    H240116   1.781   0.267   1.008  0.8098 -1.2378  1.3073
 6161TIP3   OH240117   0.717   4.673   1.334 -0.6582  0.0868  0.2000
 6161TIP3    H140118   0.794   4.662   1.389 -0.6484  1.2071  0.4387
 6161TIP3    H240119   0.681   4.585   1.324 -0.2957 -0.2259  1.4764
 6162TIP3   OH240120   2.257   2.798   8.726 -0.2925 -0.6421  0.6357
 6162TIP3    H140121   2.325   2.850   8.682  0.4406 -1.0317  1.2908
 6162TIP3    H240122   2.176   2.847   8.709  0.2405  0.2015  0.4308
 6163TIP3   OH240123   6.455   0.007   2.390  0.2671  0.4695  0.6397
 6163TIP3    H140124   6.388   0.007   2.459 -1.4501  1.1253 -0.9356
 6163TIP3    H240125   6.492  -0.081   2.394 -0.0888  0.3443  2.0909
 6164TIP3   OH240126   0.657   5.185   1.349 -0.3790 -0.0259 -0.0807
 6164TIP3    H140127   0.636   5.124   1.278  0.5823 -1.1851  0.5880
 6164TIP3    H240128   0.734   5.233   1.318  0.3621 -0.9013  0.3604
 6165TIP3   OH240129   0.880   0.788   8.718  0.1924  0.1651  0.1285
 6165TIP3    H140130   0.845   0.810   8.632 -0.3774 -0.7732  0.1041
 6165TIP3    H240131   0.810   0.811   8.780  0.8308  1.4077  0.4139
 6166TIP3   OH240132   4.605   4.211   3.597 -0.0152  0.4257  0.2097
 6166TIP3    H140133   4.585   4.195   3.689  0.1210 -0.9794  0.0167
 6166TIP3    H240134   4.651   4.132   3.568 -1.5605  0.0654 -1.4897
 6167TIP3   OH240135   2.904   1.148   0.776 -0.0857 -0.1337  0.0629
 6167TIP3    H140136   2.896   1.094   0.697 -2.1035  0.1315  0.0306
 6167TIP3    H240137   2.960   1.221   0.749  2.1592 -1.8108 -0.0697
 6168TIP3   OH240138   3.981   0.648   2.226  0.0821  0.2892  0.3649
 6168TIP3    H140139   4.041   0.586   2.185 -0.8067 -0.8752  0.7831
 6168TIP3    H240140   3.999   0.641   2.320  1.5429  2.3583  0.3142
 6169TIP3   OH240141   5.088   6.149   3.075  0.3891 -0.4046 -0.0666
 6169TIP3    H140142   5.152   6.093   3.032  1.8427 -0.0560  1.5339
 6169TIP3    H240143   5.070   6.106   3.158  0.2946  0.6541  0.4840
 6170TIP3   OH240144   0.325   1.117   3.007  0.0620  0.5845 -0.5787
 6170TIP3    H140145   0.284   1.031   3.014 -0.2268  0.5552 -2.3537
 6170TIP3    H240146   0.364   1.119   2.920  0.0724  2.2505 -0.5663
 6171TIP3   OH240147   2.012   4.523   2.623 -0.4020  0.0988 -0.4607
 6171TIP3    H140148   1.964   4.601   2.650 -0.9641  0.1238 -1.4882
 6171TIP3    H240149   2.060   4.550   2.545  0.4469 -0.2338 -0.0770
 6172TIP3   OH240150   0.658   0.199   3.368 -0.0904  0.1544  0.4738
 6172TIP3    H140151   0.582   0.162   3.322  0.3256 -0.3678  0.1964
 6172TIP3    H240152   0.659   0.155   3.453 -0.4791  0.6405  0.7299
 6173TIP3   OH240153   5.394   3.868   0.073  0.0414  0.2945 -0.0535
 6173TIP3    H140154   5.305   3.873   0.107  1.3293  2.8586  3.5616
 6173TIP3    H240155   5.430   3.788   0.112 -0.1302  0.1960 -0.0946
 6174TIP3   OH240156   0.862   3.532   1.293 -0.2398  0.0395  0.3389
 6174TIP3    H140157   0.950   3.559   1.318 -0.1820  0.1643  0.0146
 6174TIP3    H240158   0.811   3.536   1.374 -0.4170  1.8746  0.1859
 6175TIP3   OH240159   0.311   5.709   2.146  0.6105 -0.7428 -0.4345
 6175TIP3    H140160   0.340   5.622   2.120 -0.4373 -0.9192 -1.1123
 6175TIP3    H240161   0.277   5.748   2.065 -2.1855 -1.0733  0.4404
 6176TIP3   OH240162   3.607   4.228   3.472  0.2411 -0.3709 -0.3520
 6176TIP3    H140163   3.633   4.243   3.563 -1.1493 -0.1777  0.0448
 6176TIP3    H240164   3.555   4.305   3.449  1.5967  0.1685 -1.7489
 6177TIP3   OH240165   3.192   6.363   1.937  0.0335  0.6062  0.3086
 6177TIP3    H140166   3.222   6.448   1.969  0.4097  1.1611 -1.3765
 6177TIP3    H240167   3.160   6.381   1.848  0.4951 -1.0689 -0.2370
 6178TIP3   OH240168   3.024   3.375   3.344 -0.2188  0.1165 -0.5219
 6178TIP3    H140169   3.062   3.445   3.291  1.2272 -0.2586 -0.0267
 6178TIP3    H240170   3.050   3.395   3.433 -1.9607  0.3037 -0.0232
 6179TIP3   OH240171   4.604   6.063   2.175 -0.4619  0.2254  0.1329
 6179TIP3    H140172   4.695   6.063   2.203 -0.4128 -1.0551  0.0247
 6179TIP3    H240173   4.599   6.133   2.110  1.6035 -2.4800 -3.3500
 6180TIP3   OH240174   4.079   1.409   3.457  0.0628  0.1410 -0.5792
 6180TIP3    H140175   4.024   1.377   3.386  0.1601 -0.4025 -0.4114
 6180TIP3    H240176   4.165   1.371   3.440 -0.0804 -0.5558  0.2036
 6181TIP3   OH240177   4.536   4.472   2.211 -0.2922 -0.0385 -0.2905
 6181TIP3    H140178   4.514   4.556   2.169 -1.0371 -0.0940 -0.0102
 6181TIP3    H240179   4.493   4.475   2.296 -1.3124 -1.1890 -0.7354
 6182TIP3   OH240180   2.346   6.599   1.933 -0.1737  0.1374  0.3705
 6182TIP3    H140181   2.328   6.690   1.957  2.5772  0.5311  1.2757
 6182TIP3    H240182   2.428   6.603   1.883  0.4159 -1.9086  1.0724
 6183TIP3   OH240183   2.074   0.014   3.353 -0.2493 -0.2821  0.5414
 6183TIP3    H140184   2.045   0.055   3.434  2.7290  1.6302  0.7996
 6183TIP3    H240185   2.161   0.052   3.337  0.2383 -2.3048 -2.3383
 6184TIP3   OH240186   2.773   2.698   0.868 -0.4031 -0.1137  0.2285
 6184TIP3    H140187   2.754   2.659   0.782  0.0776 -0.4581  0.2697
 6184TIP3    H240188   2.694   2.682   0.919 -0.8995  0.5621 -0.3053
 6185TIP3   OH240189   1.893   4.422   1.040 -0.0319  0.5346 -0.0288
 6185TIP3    H140190   1.968   4.363   1.034  0.1221  0.8331 -1.6277
 6185TIP3    H240191   1.921   4.489   1.102  0.7090  0.2027  0.0159
 6186TIP3   OH240192   1.202   0.580   8.416  0.0997  0.0096  0.1891
 6186TIP3    H140193   1.112   0.559   8.389 -0.0431  0.9973 -0.1439
 6186TIP3    H240194   1.246   0.495   8.422 -1.0407 -0.5439  1.0435
 6187TIP3   OH240195   6.726   6.552   3.308  0.1523  0.3917 -0.4345
 6187TIP3    H140196   6.676   6.498   3.370  0.0072 -2.1718 -2.5836
 6187TIP3    H240197   6.674   6.632   3.299 -1.7198 -0.7010  0.0703
 6188TIP3   OH240198   3.722   0.910   0.232 -0.4461  0.1545  0.4726
 6188TIP3    H140199   3.683   0.988   0.192  0.8919 -0.4672 -2.3398
 6188TIP3    H240200   3.684   0.837   0.184  0.3823 -0.7443  1.1497
 6189TIP3   OH240201   6.228   1.974   3.816  0.2958 -0.0324 -0.2687
 6189TIP3    H140202   6.176   1.948   3.893 -0.7922 -1.3248 -1.4001
 6189TIP3    H240203   6.170   1.960   3.742  2.3545 -1.8533 -1.6495
 6190TIP3   OH240204   5.183   0.214   1.106  0.0081  0.1512 -0.5058
 6190TIP3    H140205   5.257   0.214   1.167  0.3116  0.7439 -0.8708
 6190TIP3    H240206   5.183   0.302   1.068  0.0895 -0.3540 -1.7001
 6191TIP3   OH240207   1.978   6.127   0.615  0.2175 -0.1852 -0.3704
 6191TIP3    H140208   2.058   6.160   0.656  0.1777  1.2245 -1.3650
 6191TIP3    H240209   2.008   6.083   0.536  0.0967 -0.8085 -0.0791
 6192TIP3   OH240210   5.913   6.424   8.107 -0.2356 -0.2348  0.7115
 6192TIP3    H140211   5.830   6.466   8.087 -0.7910 -1.8909 -0.7825
 6192TIP3    H240212   5.958   6.418   8.022  0.5921 -0.9797  1.1825
 6193TIP3   OH240213   2.289   1.792   3.785 -0.3594  0.1977 -0.4845
 6193TIP3    H140214   2.211   1.736   3.785  0.4819 -1.1825 -3.3978
 6193TIP3    H240215   2.257   1.878   3.810 -2.1790 -0.9655  1.6416
 6194TIP3   OH240216   1.839   5.432   1.366 -0.1653 -0.0654  0.2684
 6194TIP3    H140217   1.872   5.394   1.447  1.8541  0.5378 -0.2042
 6194TIP3    H240218   1.859   5.368   1.298 -3.6630 -1.5096  0.3786
 6195TIP3   OH240219   4.155   5.205   8.564  0.5091 -0.3660 -0.0122
 6195TIP3    H140220   4.139   5.253   8.483  1.2883  0.3330  0.2323
 6195TIP3    H240221   4.069   5.177   8.593 -0.0499  1.3873  0.1422
 6196TIP3   OH240222   5.362   1.388   8.525  0.3117  0.0939 -0.3921
 6196TIP3    H140223   5.317   1.315   8.482 -0.1952  1.2821 -1.9425
 6196TIP3    H240224   5.346   1.463   8.469 -0.5993  1.8270  1.9898
 6197TIP3   OH240225   6.380   0.751   7.875  0.0676 -0.3932 -0.1788
 6197TIP3    H140226   6.329   0.689   7.821  3.0817 -1.4661 -2.0659
 6197TIP3    H240227   6.437   0.695   7.927 -0.2564  0.7785  1.5029
 6198TIP3   OH240228   3.769   1.351   3.002 -0.7723  0.3264 -0.1395
 6198TIP3    H140229   3.697   1.299   2.967 -0.8204 -0.9670  1.7291
 6198TIP3    H240230   3.785   1.315   3.090  0.7325  1.9824  0.3399
 6199TIP3   OH240231   4.867   5.369   2.792 -0.0392 -0.2943  0.0412
 6199TIP3    H140232   4.782   5.404   2.767  0.0364 -0.8668 -1.0552
 6199TIP3    H240233   4.851   5.278   2.815  0.3143 -0.4781 -0.4250
 6200TIP3   OH240234   5.654   4.059   0.642  0.0205 -0.3344 -0.2232
 6200TIP3    H140235   5.723   4.088   0.582  1.3677  0.5461  1.6266
 6200TIP3    H240236   5.684   3.974   0.674  1.4209  0.9460  2.1462
 6201TIP3   OH240237   0.585   1.993   2.052 -0.0999 -0.3429  0.5664
 6201TIP3    H140238   0.582   2.067   1.992  2.4101 -1.6845 -1.4033
 6201TIP3    H240239   0.498   1.954   2.047 -0.0304 -0.3430 -2.2313
 6202TIP3   OH240240   1.539   6.339   2.331 -0.0616  0.2185 -0.1752
 6202TIP3    H140241   1.619   6.305   2.372 -0.1538 -1.2837 -1.1733
 6202TIP3    H240242   1.480   6.265   2.329 -1.3409  1.1915  0.1013
 6203TIP3   OH240243   2.208   3.186   2.307 -0.3132 -0.1715  0.4743
 6203TIP3    H140244   2.154   3.181   2.228 -0.2505 -0.3743  0.4426
 6203TIP3    H240245   2.238   3.096   2.321  1.0225  0.1369 -0.2078
 6204TIP3   OH240246   0.421   4.465   2.390  0.1372 -0.1538 -0.2424
 6204TIP3    H140247   0.515   4.474   2.378  0.8520 -1.7293  3.1175
 6204TIP3    H240248   0.393   4.548   2.429  1.2106 -1.3522  3.4340
 6205TIP3   OH240249   2.347   2.185   3.280 -0.7302 -0.0520 -1.0422
 6205TIP3    H140250   2.411   2.192   3.351 -0.4506 -0.1600 -1.2844
 6205TIP3    H240251   2.303   2.101   3.296 -1.7777  0.6394 -0.0771
 6206TIP3   OH240252   5.530   1.070   2.694 -0.4928  0.2466 -0.2595
 6206TIP3    H140253   5.578   1.107   2.768  1.0789 -1.0251 -0.5942
 6206TIP3    H240254   5.462   1.134   2.675 -0.6592  0.8272  1.9895
 6207TIP3   OH240255   0.863   1.973   3.507 -0.0411  0.9789 -0.2422
 6207TIP3    H140256   0.784   1.981   3.453 -1.0098 -0.3811  0.8806
 6207TIP3    H240257   0.861   1.883   3.538  1.6234  1.1256  0.3527
 6208TIP3   OH240258   6.045   1.090   0.561  0.3183  0.5975  0.8158
 6208TIP3    H140259   6.086   1.010   0.591 -1.2296 -0.3400  0.5544
 6208TIP3    H240260   6.035   1.079   0.466  2.0981  2.0800  0.3994
 6209TIP3   OH240261   3.479   0.860   0.793 -0.4036  0.3737 -0.3199
 6209TIP3    H140262   3.472   0.765   0.786 -1.6634  0.4482 -0.3403
 6209TIP3    H240263   3.558   0.875   0.844  0.7828 -0.6107 -1.8144
 6210TIP3   OH240264   6.687   1.813   1.561 -0.0691  1.1730  0.0819
 6210TIP3    H140265   6.757   1.872   1.535 -0.0193  1.1421  0.1456
 6210TIP3    H240266   6.681   1.823   1.656  2.1255 -1.2682  0.6083
 6211TIP3   OH240267   5.591   3.406   1.622 -0.2891  0.5469 -0.4146
 6211TIP3    H140268   5.614   3.497   1.604  1.1450 -0.0238 -1.6680
 6211TIP3    H240269   5.540   3.379   1.546  0.8883 -0.2070 -0.9709
 6212TIP3   OH240270   2.498   1.106   3.731  0.0390  0.1722 -0.0441
 6212TIP3    H140271   2.577   1.141   3.773  0.9894 -1.4873 -0.3326
 6212TIP3    H240272   2.520   1.103   3.638 -0.7305  0.5836 -0.2415
 6213TIP3   OH240273   3.642   5.315   2.731 -0.2521 -0.2085 -0.2524
 6213TIP3    H140274   3.607   5.310   2.820 -0.3922  0.8021 -0.2353
 6213TIP3    H240275   3.659   5.408   2.718  0.5972 -0.4489 -0.9718
 6214TIP3   OH240276   0.283   5.301   3.228  0.1799  0.1375  0.2838
 6214TIP3    H140277   0.345   5.230   3.247 -0.7061 -0.7003  0.0786
 6214TIP3    H240278   0.241   5.319   3.312  0.4553  0.4876  0.3520
 6215TIP3   OH240279   3.480   2.596   2.073 -0.8816  0.4096  0.2719
 6215TIP3    H140280   3.492   2.506   2.044 -2.2559  0.9692 -2.2840
 6215TIP3    H240281   3.569   2.631   2.078 -0.4067 -0.7282  0.0917
 6216TIP3   OH240282   2.148   1.637   1.545 -0.3341 -0.1784  0.3716
 6216TIP3    H140283   2.059   1.606   1.532  0.4289 -2.0835 -0.6646
 6216TIP3    H240284   2.170   1.610   1.634 -1.5953  2.5794  1.6333
 6217TIP3   OH240285   2.331   0.193   0.882  0.0904  0.2918 -0.1735
 6217TIP3    H140286   2.237   0.177   0.868 -0.1962  1.6371  0.0796
 6217TIP3    H240287   2.338   0.288   0.891  1.2465  0.0881  1.5818
 6218TIP3   OH240288   2.662   1.427   1.257 -0.0620  0.0727 -0.1021
 6218TIP3    H140289   2.629   1.342   1.228 -0.0490  0.3492 -0.9808
 6218TIP3    H240290   2.684   1.473   1.176  0.4790  0.6973  0.3831
 6219TIP3   OH240291   2.871   3.968   0.028  0.7475  0.0623 -0.0182
 6219TIP3    H140292   2.824   4.023  -0.035  0.1155 -0.8334 -0.3599
 6219TIP3    H240293   2.827   3.984   0.111  0.1323 -0.3965 -0.2425
 6220TIP3   OH240294   5.544   3.609   0.797  0.3256  1.0065 -0.0163
 6220TIP3    H140295   5.460   3.644   0.766  0.4600  1.1865 -0.1760
 6220TIP3    H240296   5.562   3.534   0.740 -1.4971 -1.3337  2.2237
 6221TIP3   OH240297   4.104   5.746   1.062  0.2416 -0.0502 -0.3472
 6221TIP3    H140298   4.056   5.804   1.002 -0.5369  2.2350  2.2666
 6221TIP3    H240299   4.178   5.800   1.091  0.1582 -0.7981  1.3110
 6222TIP3   OH240300   1.472   3.200   8.057  0.1467 -0.1713  0.4565
 6222TIP3    H140301   1.380   3.179   8.041  0.6218 -0.4963 -2.3424
 6222TIP3    H240302   1.521   3.138   8.003  1.9211  1.6127 -0.1219
 6223TIP3   OH240303   2.820   0.436   2.355 -0.2479  0.1069 -0.6186
 6223TIP3    H140304   2.885   0.384   2.402 -1.0764  0.3176  0.8225
 6223TIP3    H240305   2.770   0.373   2.304  1.6264  0.0371 -2.4969
 6224TIP3   OH240306   1.467   3.540   0.590 -0.1680  0.0202 -0.1665
 6224TIP3    H140307   1.405   3.555   0.519 -0.6573  0.2315  0.2977
 6224TIP3    H240308   1.541   3.498   0.548  0.4270  1.9562 -1.1674
 6225TIP3   OH240309   1.050   1.819   4.145 -0.3070 -0.4705  0.3706
 6225TIP3    H140310   1.054   1.730   4.110  0.2024 -0.0611 -0.6604
 6225TIP3    H240311   1.120   1.823   4.210 -1.0396 -1.1420  1.2172
 6226TIP3   OH240312   4.167   5.620   1.573 -0.3417 -0.0799  0.5219
 6226TIP3    H140313   4.075   5.646   1.567 -0.3070 -0.1871 -0.6603
 6226TIP3    H240314   4.166   5.526   1.559 -0.0402 -0.0757  0.4770
 6227TIP3   OH240315   1.251   6.741   2.904  0.5768  0.1546  0.4291
 6227TIP3    H140316   1.180   6.801   2.883  1.9743  2.1680  1.1426
 6227TIP3    H240317   1.273   6.699   2.821  1.6074  3.0136 -0.8782
 6228TIP3   OH240318   3.333   2.984   8.325  0.0789 -0.5825  0.2342
 6228TIP3    H140319   3.352   2.933   8.246  0.4736 -0.6889  0.3923
 6228TIP3    H240320   3.272   2.929   8.374 -0.7539 -0.1794 -0.3440
 6229TIP3   OH240321   3.070   3.064   1.464  0.1479 -0.2803 -0.2127
 6229TIP3    H140322   3.091   3.144   1.512 -1.7552 -0.9027  1.8456
 6229TIP3    H240323   2.994   3.089   1.410  1.3302  0.0061 -1.8053
 6230TIP3   OH240324   1.502   3.599   3.530 -0.4039 -0.6758 -0.2888
 6230TIP3    H140325   1.448   3.668   3.491 -2.0416 -0.5665  1.9629
 6230TIP3    H240326   1.575   3.588   3.468 -1.3806  1.3247 -1.9381
 6231TIP3   OH240327   2.225   3.012   3.348  0.3725  0.3990 -0.2183
 6231TIP3    H140328   2.214   3.027   3.254  0.2648  1.9249  0.0129
 6231TIP3    H240329   2.222   3.099   3.386 -1.6182 -0.3251  1.4349
 6232TIP3   OH240330   4.672   5.333   3.457 -0.0041 -0.5574  0.2913
 6232TIP3    H140331   4.687   5.395   3.527 -0.2615 -0.0440 -0.1038
 6232TIP3    H240332   4.670   5.247   3.500 -0.5177 -0.2141  0.9554
 6233TIP3   OH240333   3.632   0.068   3.578 -0.0003  0.8286 -0.8193
 6233TIP3    H140334   3.542   0.076   3.547 -0.6483 -0.1129  0.6891
 6233TIP3    H240335   3.646   0.146   3.631 -0.0671  0.7996 -0.7581
 6234TIP3   OH240336   5.296   3.847   0.496  0.0947  0.0685 -0.1468
 6234TIP3    H140337   5.367   3.823   0.436  0.1853 -0.7600  0.2801
 6234TIP3    H240338   5.310   3.940   0.514  1.0097 -0.0601 -0.1490
 6235TIP3   OH240339   4.870   2.618   0.215  0.1537 -0.6434 -0.8542
 6235TIP3    H140340   4.786   2.572   0.216 -0.3766  0.3040 -0.1379
 6235TIP3    H240341   4.920   2.576   0.145 -1.0837 -0.9119 -1.6018
 6236TIP3   OH240342   2.336   6.238   3.562 -0.2453 -0.4818  0.3765
 6236TIP3    H140343   2.321   6.154   3.605  1.8999 -2.3052 -2.0862
 6236TIP3    H240344   2.326   6.219   3.469  0.6205  1.9277 -0.2829
 6237TIP3   OH240345   4.842   4.901   3.564 -0.8998 -0.1115  0.0493
 6237TIP3    H140346   4.749   4.918   3.549 -0.7846  0.4367 -0.0669
 6237TIP3    H240347   4.872   4.856   3.484 -0.8851  0.4305 -0.2535
 6238TIP3   OH240348   3.942   0.229   0.090  0.0813  0.0625 -0.0936
 6238TIP3    H140349   3.881   0.294   0.054  0.7779  0.4388 -0.6181
 6238TIP3    H240350   3.946   0.160   0.024 -1.0795 -0.8127  0.7049
 6239TIP3   OH240351   3.218   0.309   0.612  1.0810  0.7372  0.7978
 6239TIP3    H140352   3.307   0.274   0.622  0.8055  0.1238  1.1359
 6239TIP3    H240353   3.184   0.313   0.702  0.8229  1.1387  0.6855
 6240TIP3   OH240354   6.652   5.987   0.402 -0.2871  0.4367  0.4926
 6240TIP3    H140355   6.723   6.000   0.464 -0.2116  2.7604  0.0203
 6240TIP3    H240356   6.619   6.075   0.385 -1.2149 -0.2613 -1.6808
 6241TIP3   OH240357   0.965   4.611   2.689  0.5808 -0.3243  0.0590
 6241TIP3    H140358   0.890   4.608   2.630 -0.1110 -1.7245  0.9443
 6241TIP3    H240359   0.927   4.628   2.775  1.0536 -2.5928  0.7747
 6242TIP3   OH240360   6.434   3.961   0.541 -0.0776  0.2888  0.5555
 6242TIP3    H140361   6.430   3.894   0.610 -0.4295 -0.6981 -0.3984
 6242TIP3    H240362   6.445   3.911   0.460  1.4114  1.4698 -0.0148
 6243TIP3   OH240363   0.820   1.778   0.502 -0.1132 -0.2191 -0.4244
 6243TIP3    H140364   0.857   1.690   0.509  1.4881  0.4905  0.5700
 6243TIP3    H240365   0.834   1.804   0.411 -1.1820 -1.2185 -0.8908
 6244TIP3   OH240366   3.839   2.851   0.713  0.0636 -0.0572  0.2727
 6244TIP3    H140367   3.839   2.804   0.796  0.7477  0.4799  0.5813
 6244TIP3    H240368   3.811   2.940   0.735 -1.5503 -0.3609 -0.3599
 6245TIP3   OH240369   3.101   1.522   3.695 -0.5685 -0.7648 -0.7939
 6245TIP3    H140370   3.170   1.584   3.718 -0.6599  0.3770 -3.2760
 6245TIP3    H240371   3.021   1.559   3.732 -0.4856  0.1311 -1.5084
 6246TIP3   OH240372   3.670   4.021   0.108 -0.3068 -0.0933  0.3229
 6246TIP3    H140373   3.710   3.962   0.045 -1.3802  0.6871 -1.1466
 6246TIP3    H240374   3.658   3.968   0.187  0.2675 -1.3430 -0.3981
 6247TIP3   OH240375   0.827   2.144   1.282 -0.0658 -0.3215 -0.3563
 6247TIP3    H140376   0.897   2.147   1.216  0.1013 -1.7059 -0.2679
 6247TIP3    H240377   0.865   2.187   1.359 -0.3022  1.4166 -1.1415
 6248TIP3   OH240378   2.159   2.640   3.335  0.1341 -0.1629 -0.1260
 6248TIP3    H140379   2.158   2.545   3.347  0.6497 -0.2554 -0.7858
 6248TIP3    H240380   2.248   2.667   3.358 -0.2034  0.2595  0.7383
 6249TIP3   OH240381   5.245   4.421   2.255 -0.1169 -0.1874  0.5665
 6249TIP3    H140382   5.318   4.426   2.192 -0.3952  1.1057  0.3258
 6249TIP3    H240383   5.283   4.378   2.331  1.5037  2.2093  1.2130
 6250TIP3   OH240384   2.659   1.506   0.992  0.0268 -0.4839 -0.7344
 6250TIP3    H140385   2.748   1.472   0.992  0.9199  1.6839 -0.5692
 6250TIP3    H240386   2.644   1.535   0.902  0.2234  0.8459 -0.3657
 6251TIP3   OH240387   3.610   1.227   3.605  0.1178  0.8892 -0.1174
 6251TIP3    H140388   3.670   1.231   3.680  0.9881 -1.2622 -0.6409
 6251TIP3    H240389   3.566   1.143   3.614  0.1668  0.6349 -1.9521
 6252TIP3   OH240390   3.575   2.616   0.948  0.5796 -0.0078  0.4661
 6252TIP3    H140391   3.564   2.522   0.942  0.6949 -0.0297  0.5838
 6252TIP3    H240392   3.542   2.650   0.865  0.4088 -0.1401  0.4794
 6253TIP3   OH240393   4.816   6.054   1.885  0.1898  0.3203 -0.1056
 6253TIP3    H140394   4.779   5.980   1.934 -1.1028  1.8537  1.3728
 6253TIP3    H240395   4.776   6.131   1.925  0.4070  1.7745 -2.4990
 6254TIP3   OH240396   3.229   1.189   0.940  0.2292 -0.4218  0.3856
 6254TIP3    H140397   3.219   1.245   1.017  1.0794  0.0148  0.1950
 6254TIP3    H240398   3.182   1.109   0.962  0.5591 -0.3483  1.4047
 6255TIP3   OH240399   4.674   0.260   0.791  0.3074 -0.2404  0.2759
 6255TIP3    H140400   4.605   0.204   0.755  0.2920  0.3692 -0.6769
 6255TIP3    H240401   4.742   0.198   0.818 -0.0510 -0.7704  0.0004
 6256TIP3   OH240402   4.139   2.033   8.551  0.3077  0.1054  0.4597
 6256TIP3    H140403   4.062   1.983   8.578 -0.4647  0.6854 -0.6215
 6256TIP3    H240404   4.206   2.009   8.615 -0.3241 -1.5504  0.5532
 6257TIP3   OH240405   3.329   6.219   0.995 -0.1731  0.2864 -0.6320
 6257TIP3    H140406   3.315   6.286   0.929  2.1631 -0.1780 -1.6959
 6257TIP3    H240407   3.399   6.254   1.050 -0.9646 -0.0498  0.6341
 6258TIP3   OH240408   4.109   6.383   1.426  0.0666  0.1942  0.1569
 6258TIP3    H140409   4.100   6.367   1.332 -0.5841  3.5861 -0.4869
 6258TIP3    H240410   4.020   6.402   1.456  0.4578  0.5721  1.1379
 6259TIP3   OH240411   2.485   3.247   2.698 -0.2422  0.1693  0.3033
 6259TIP3    H140412   2.516   3.190   2.768 -0.6181  0.8589  1.0516
 6259TIP3    H240413   2.502   3.198   2.617  0.0528 -0.7041  0.8825
 6260TIP3   OH240414   2.905   1.366   1.013 -0.4719  0.5882 -0.3687
 6260TIP3    H140415   2.886   1.276   0.984 -0.4571 -0.2396  1.9532
 6260TIP3    H240416   2.987   1.358   1.061 -0.8571  1.6860  0.4993
 6261TIP3   OH240417   4.007   4.699   1.367  0.3095 -0.2437 -0.6945
 6261TIP3    H140418   3.953   4.621   1.377 -0.0233  0.1089  0.3551
 6261TIP3    H240419   3.995   4.724   1.275 -1.5117 -0.0468 -0.4425
 6262TIP3   OH240420   0.157   4.004   0.849 -0.1468  0.4013 -0.1090
 6262TIP3    H140421   0.212   4.082   0.860  0.3220 -0.2726  3.2112
 6262TIP3    H240422   0.068   4.040   0.840  0.0160  1.4049  1.7125
 6263TIP3   OH240423   0.985   4.074   4.179 -0.1203  0.0814 -0.2576
 6263TIP3    H140424   1.041   4.108   4.109  1.3971  0.2819  0.9929
 6263TIP3    H240425   0.926   4.012   4.135  1.4004 -0.4926 -1.5812
 6264TIP3   OH240426   5.083   1.172   0.859  0.6207 -0.1231  0.2381
 6264TIP3    H140427   5.175   1.178   0.886  0.5384 -1.2016  0.8089
 6264TIP3    H240428   5.069   1.249   0.803  2.1388 -0.4744 -0.6708
 6265TIP3   OH240429   1.742   1.193   2.441 -0.2267  0.1110 -0.5522
 6265TIP3    H140430   1.656   1.221   2.409 -0.1593  1.8880  0.7156
 6265TIP3    H240431   1.723   1.116   2.495 -0.9194  0.0264 -0.9059
 6266TIP3   OH240432   4.132   3.256   1.111  0.0263  0.2387  0.1533
 6266TIP3    H140433   4.092   3.210   1.184 -0.5453  1.4380  0.6243
 6266TIP3    H240434   4.099   3.211   1.033 -1.7076  0.7336  0.5475
 6267TIP3   OH240435   6.144   3.532   8.475  0.1237 -1.1904  0.2635
 6267TIP3    H140436   6.141   3.604   8.412  2.8126 -1.1665  0.0417
 6267TIP3    H240437   6.057   3.531   8.515 -0.4204  1.2925 -0.6883
 6268TIP3   OH240438   3.411   5.352   0.877  0.2156  0.3226 -0.0142
 6268TIP3    H140439   3.469   5.276   0.884 -1.0498 -0.6864 -0.1231
 6268TIP3    H240440   3.382   5.352   0.786  0.8070  1.4217 -0.2216
 6269TIP3   OH240441   2.111   0.305   1.098  0.4233 -0.0193  0.1916
 6269TIP3    H140442   2.173   0.233   1.107  0.3541  0.0075  0.9736
 6269TIP3    H240443   2.160   0.375   1.056  1.0720  0.1664  1.2165
 6270TIP3   OH240444   5.492   5.317   0.890 -0.4208 -0.4701 -0.3370
 6270TIP3    H140445   5.428   5.281   0.828 -1.6378 -1.3262  1.3315
 6270TIP3    H240446   5.441   5.332   0.970  0.8077  1.8146  0.0870
 6271TIP3   OH240447   2.411   2.613   2.507  0.6467  0.0088 -0.4626
 6271TIP3    H140448   2.399   2.624   2.601  2.2774 -1.7619  0.0368
 6271TIP3    H240449   2.486   2.669   2.485  0.9923 -0.4336 -0.4444
 6272TIP3   OH240450   2.612   2.202   8.825 -1.1860 -0.2042 -0.4835
 6272TIP3    H140451   2.701   2.185   8.856 -1.2565  0.9320  0.3947
 6272TIP3    H240452   2.623   2.225   8.732 -0.4394  0.7807 -0.1710
 6273TIP3   OH240453   6.505   3.417   8.626  0.3795  0.2592  0.2981
 6273TIP3    H140454   6.598   3.403   8.609  0.3074  0.5806 -0.4152
 6273TIP3    H240455   6.499   3.430   8.721  1.1951  1.2260  0.2310
 6274TIP3   OH240456   5.809   1.184   0.720 -0.0337  0.0906 -0.8391
 6274TIP3    H140457   5.868   1.146   0.655 -2.4043 -2.2916 -1.8018
 6274TIP3    H240458   5.789   1.271   0.688  1.9777  0.5019 -1.0926
 6275TIP3   OH240459   2.249   5.785   3.421  0.0070  0.3845  0.1785
 6275TIP3    H140460   2.323   5.760   3.477 -0.1409  2.8399  1.5801
 6275TIP3    H240461   2.288   5.840   3.353 -0.3100  0.2402 -0.1227
 6276TIP3   OH240462   3.346   5.279   0.207 -0.0342  0.3227  0.2327
 6276TIP3    H140463   3.407   5.329   0.261 -0.2297 -0.2078  0.9676
 6276TIP3    H240464   3.267   5.272   0.262 -1.1148  1.7602 -1.0315
 6277TIP3   OH240465   3.654   4.273   1.507 -0.3793 -0.0515 -0.6846
 6277TIP3    H140466   3.606   4.212   1.564 -1.3567  1.7752  0.5394
 6277TIP3    H240467   3.586   4.312   1.452 -0.2140  1.7536  0.3108
 6278TIP3   OH240468   0.203   1.463   0.431 -0.4571  0.2378  0.2965
 6278TIP3    H140469   0.261   1.438   0.503  0.4828  2.1009  0.2627
 6278TIP3    H240470   0.244   1.541   0.394 -1.5510  0.0019 -1.5245
 6279TIP3   OH240471   2.399   1.412   0.434  0.0186  0.6793  1.1403
 6279TIP3    H140472   2.332   1.448   0.493 -0.7146  3.6242 -1.2384
 6279TIP3    H240473   2.475   1.398   0.490 -1.5961  0.1963  3.3584
 6280TIP3   OH240474   1.463   3.330   2.598 -0.3836  0.0823 -0.0343
 6280TIP3    H140475   1.375   3.335   2.562 -0.5093 -1.1884  0.0523
 6280TIP3    H240476   1.471   3.240   2.629  0.3741  0.6264  1.4451
 6281TIP3   OH240477   4.826   3.860   1.086  0.0849 -0.1655  0.1142
 6281TIP3    H140478   4.784   3.780   1.118  1.1012 -0.4111  0.8560
 6281TIP3    H240479   4.889   3.829   1.020  0.3868  0.0378  0.3080
 6282TIP3   OH240480   5.521   4.691   2.941 -0.5709  0.5670 -0.2391
 6282TIP3    H140481   5.598   4.746   2.959 -1.3376  1.8432 -0.7333
 6282TIP3    H240482   5.447   4.744   2.969 -1.3033 -0.5545 -0.0020
 6283TIP3   OH240483   5.394   6.312   2.259  0.3168 -0.2685 -0.0944
 6283TIP3    H140484   5.373   6.294   2.167  0.3078  0.1797 -0.1810
 6283TIP3    H240485   5.416   6.226   2.295  1.4981 -0.3047 -0.8146
 6284TIP3   OH240486   0.438   0.673   8.570  0.0775  0.3899  0.6257
 6284TIP3    H140487   0.407   0.640   8.486 -0.7826  0.3146  0.9621
 6284TIP3    H240488   0.519   0.625   8.587 -0.2921 -0.3409  0.3359
 6285TIP3   OH240489   5.864   0.607   8.245  0.0767 -0.6289  0.1744
 6285TIP3    H140490   5.939   0.547   8.242  0.2590 -0.3975 -2.0284
 6285TIP3    H240491   5.878   0.666   8.170 -3.2954 -1.8261 -1.6187
 6286TIP3   OH240492   5.802   1.223   0.087  0.1640 -0.0147 -0.3289
 6286TIP3    H140493   5.818   1.142   0.136 -1.9028 -0.9639 -1.0859
 6286TIP3    H240494   5.854   1.214   0.007 -0.7759 -1.1019 -0.8540
 6287TIP3   OH240495   1.273   0.624   0.018  0.2319 -0.1093  0.5083
 6287TIP3    H140496   1.282   0.675  -0.063  1.2212 -1.5003 -0.3029
 6287TIP3    H240497   1.184   0.588   0.014  0.1778  0.0568  0.1790
 6288TIP3   OH240498   3.930   3.875   2.116  0.1576 -0.3008  0.6219
 6288TIP3    H140499   3.905   3.846   2.028  0.2635 -1.3650  0.9333
 6288TIP3    H240500   3.942   3.794   2.166  0.0851  0.2928  1.6261
 6289TIP3   OH240501   2.098   4.475   2.306  0.5769  0.5263 -0.1344
 6289TIP3    H140502   2.174   4.489   2.249  1.0342 -0.6335  0.1729
 6289TIP3    H240503   2.130   4.418   2.376 -0.6973 -0.3835 -0.2569
 6290TIP3   OH240504   3.595   5.364   3.015 -0.4037 -0.1982  0.3673
 6290TIP3    H140505   3.600   5.452   3.052  2.0686 -0.6809  1.4472
 6290TIP3    H240506   3.670   5.318   3.054 -2.9136 -3.5488  1.8472
 6291TIP3   OH240507   0.288   3.365   1.952 -0.3261  0.3964 -0.2114
 6291TIP3    H140508   0.260   3.339   1.864  0.3177 -0.0406 -0.2980
 6291TIP3    H240509   0.288   3.284   2.002 -2.5311  0.9231  0.7404
 6292TIP3   OH240510   0.329   3.928   2.244  0.3857  0.4092 -0.5243
 6292TIP3    H140511   0.345   4.020   2.222  0.0883  1.0389  1.6409
 6292TIP3    H240512   0.250   3.930   2.297  1.0775 -0.9408  0.6218
 6293TIP3   OH240513   6.496   0.990   0.574 -0.3106 -0.3648  0.0842
 6293TIP3    H140514   6.433   1.059   0.550 -0.6728 -0.4829  0.6583
 6293TIP3    H240515   6.578   1.036   0.587 -0.5745 -0.0160  0.5607
 6294TIP3   OH240516   5.004   5.979   3.277  0.6632 -0.4644  0.0695
 6294TIP3    H140517   4.978   5.898   3.232 -3.1245  1.4765 -1.6196
 6294TIP3    H240518   4.940   5.989   3.347 -0.0132  1.8540 -0.7977
 6295TIP3   OH240519   1.259   3.404   1.840 -0.2257 -0.1658 -0.8204
 6295TIP3    H140520   1.175   3.449   1.842 -1.1711 -1.7876 -1.9441
 6295TIP3    H240521   1.246   3.331   1.780  2.5160  0.5628 -2.5223
 6296TIP3   OH240522   5.091   0.248   1.892 -0.4948 -0.2572  0.4258
 6296TIP3    H140523   5.132   0.301   1.824 -0.0681 -0.5944  0.4119
 6296TIP3    H240524   5.162   0.229   1.954 -1.0527  0.7212  1.3995
 6297TIP3   OH240525   6.414   4.067   1.648  0.4734 -0.3545 -0.2656
 6297TIP3    H140526   6.499   4.081   1.607  0.8071 -1.6399 -0.0664
 6297TIP3    H240527   6.397   3.974   1.635  0.7527 -0.9319  2.7246
 6298TIP3   OH240528   2.090   0.330   1.388  0.7498  0.4509 -0.5753
 6298TIP3    H140529   2.095   0.235   1.405 -1.6557  0.1823 -1.0470
 6298TIP3    H240530   2.079   0.336   1.293 -2.8354  0.8941 -0.2574
 6299TIP3   OH240531   2.927   1.349   1.679  0.4286 -0.2382 -0.0525
 6299TIP3    H140532   2.928   1.289   1.605  1.9571 -0.4042  0.0713
 6299TIP3    H240533   2.853   1.321   1.733 -2.2799  1.3612 -2.6436
 6300TIP3   OH240534   2.528   2.116   2.190 -0.4232 -0.4884  0.0375
 6300TIP3    H140535   2.619   2.088   2.203 -0.3406 -0.5786 -0.6774
 6300TIP3    H240536   2.535   2.196   2.138 -0.7227  0.0104  0.7561
 6301TIP3   OH240537   2.353   1.735   3.525  0.1449 -0.5837  0.1544
 6301TIP3    H140538   2.325   1.644   3.528  1.8875 -1.1665  0.4017
 6301TIP3    H240539   2.328   1.771   3.610  2.5855 -1.9165  1.5598
 6302TIP3   OH240540   1.617   1.024   3.624  0.2408  0.2356  0.5043
 6302TIP3    H140541   1.589   1.022   3.533  1.7584  0.0903  0.0179
 6302TIP3    H240542   1.535   1.023   3.674 -0.6099 -0.1404 -0.8350
 6303TIP3   OH240543   0.726   0.423   2.167  0.3080  0.0126  0.2916
 6303TIP3    H140544   0.739   0.484   2.240  0.1774 -0.5104  0.7641
 6303TIP3    H240545   0.724   0.337   2.209  1.4503 -0.4053 -0.4564
 6304TIP3   OH240546   2.461   1.533   4.445  0.3550  0.0613 -0.7248
 6304TIP3    H140547   2.538   1.532   4.502  0.9656  1.7327 -1.4452
 6304TIP3    H240548   2.481   1.470   4.376  0.3209 -0.7586 -0.0050
 6305TIP3   OH240549   4.090   5.974   4.103  0.0952  0.1986 -0.7431
 6305TIP3    H140550   4.051   5.941   4.184  1.3364 -0.3524 -0.3361
 6305TIP3    H240551   4.081   5.903   4.041 -1.3438  0.8182 -1.2849
 6306TIP3   OH240552   1.002   5.868   8.294  0.0949 -0.4389  0.3651
 6306TIP3    H140553   0.979   5.777   8.279 -1.6518  0.0346 -0.0906
 6306TIP3    H240554   0.934   5.918   8.247 -0.5610  1.0960  2.7579
 6307TIP3   OH240555   0.689   5.744   2.134  0.1904 -0.3643  0.7047
 6307TIP3    H140556   0.617   5.724   2.193  0.9531  0.8178  2.0853
 6307TIP3    H240557   0.647   5.753   2.048 -1.1102 -0.9010  1.2530
 6308TIP3   OH240558   0.957   1.330   8.378  0.0650 -0.0948  0.1349
 6308TIP3    H140559   0.963   1.303   8.469 -1.1583  1.4696  0.7302
 6308TIP3    H240560   0.865   1.315   8.355  0.3359 -0.3551 -0.8071
 6309TIP3   OH240561   5.566   3.765   8.717  0.3289  0.1005 -0.2060
 6309TIP3    H140562   5.530   3.722   8.639  0.3081 -1.0340  0.4095
 6309TIP3    H240563   5.492   3.815   8.753  0.4193  0.8862 -1.0627
 6310TIP3   OH240564   0.279   0.631   0.039  0.1849  0.2387  0.1600
 6310TIP3    H140565   0.356   0.580   0.017 -0.3817  0.2495 -2.0753
 6310TIP3    H240566   0.285   0.645   0.134  2.5384 -0.3386  0.1416
 6311TIP3   OH240567   3.345   1.373   2.782 -0.3596  0.2203  0.0398
 6311TIP3    H140568   3.440   1.380   2.772 -0.3082 -0.0918  0.3199
 6311TIP3    H240569   3.314   1.340   2.697 -0.1286 -0.4889  0.2249
 6312TIP3   OH240570   5.596   4.034   0.169  0.5660  0.3368  0.1683
 6312TIP3    H140571   5.530   3.991   0.114  2.2100  0.7725 -2.3320
 6312TIP3    H240572   5.610   3.974   0.242 -1.0422 -0.7432 -0.3631
 6313TIP3   OH240573   3.711   1.356   8.494 -0.2363  0.4190  0.1331
 6313TIP3    H140574   3.643   1.424   8.497 -0.1746  0.5419 -0.8186
 6313TIP3    H240575   3.745   1.360   8.404  0.6063 -0.0586  0.4204
 6314TIP3   OH240576   6.248   3.346   8.010 -0.2330 -0.3800 -0.0295
 6314TIP3    H140577   6.215   3.431   8.036  3.2366  0.8039  1.0342
 6314TIP3    H240578   6.284   3.360   7.922 -2.0266 -1.5249 -1.0066
 6315TIP3   OH240579   3.644   3.926   0.353 -0.1246 -0.3001  1.1954
 6315TIP3    H140580   3.689   4.004   0.386  0.2393  0.9352 -1.9280
 6315TIP3    H240581   3.713   3.861   0.345  0.0626 -0.1324  1.4257
 6316TIP3   OH240582   6.821   4.226   2.222 -0.0945  0.0572 -0.4206
 6316TIP3    H140583   6.796   4.228   2.314  0.2801 -0.2497 -0.3135
 6316TIP3    H240584   6.889   4.294   2.214 -0.4630  0.4168 -0.5726
 6317TIP3   OH240585   6.358   2.118   0.228 -0.2626  0.3251  0.0153
 6317TIP3    H140586   6.309   2.196   0.202 -0.7682 -0.6544 -2.1692
 6317TIP3    H240587   6.449   2.139   0.208 -0.2741  0.6834  0.3223
 6318TIP3   OH240588   0.763   6.232   8.432 -0.2256 -0.3158  0.7763
 6318TIP3    H140589   0.750   6.167   8.362 -2.3203  0.3807  0.4314
 6318TIP3    H240590   0.808   6.184   8.501 -0.8380 -1.8838  0.1510
 6319TIP3   OH240591   1.037   0.445   3.440  0.0325 -0.6249  0.7572
 6319TIP3    H140592   0.982   0.374   3.474  0.2902 -1.4555 -0.4924
 6319TIP3    H240593   1.031   0.436   3.345 -0.3847  1.4058  0.5567
 6320TIP3   OH240594   3.712   6.638   0.169  0.7995 -1.0071  0.7269
 6320TIP3    H140595   3.703   6.602   0.081  0.0993 -0.1120  0.4164
 6320TIP3    H240596   3.622   6.651   0.199  0.9589 -3.0810  2.3492
 6321TIP3   OH240597   5.791   2.412   2.235 -0.2159  0.3007  0.0307
 6321TIP3    H140598   5.807   2.399   2.141  2.8727  0.4815  0.4134
 6321TIP3    H240599   5.746   2.496   2.240 -0.3438  0.3411 -1.2770
 6322TIP3   OH240600   6.505   2.647   4.022 -0.1462  0.6602 -0.4913
 6322TIP3    H140601   6.493   2.557   3.993  0.7086  0.5779 -0.6247
 6322TIP3    H240602   6.598   2.652   4.046 -0.2659  1.4080 -0.1444
 6323TIP3   OH240603   1.686   2.066   2.976 -0.2155 -0.4976  0.1142
 6323TIP3    H140604   1.650   2.106   3.055 -1.1153  0.3396 -0.6962
 6323TIP3    H240605   1.628   2.094   2.906  1.6402  0.3785 -1.1602
 6324TIP3   OH240606   6.015   1.762   0.468 -0.5127 -0.1645  0.4753
 6324TIP3    H140607   6.067   1.825   0.417 -0.0054 -1.5374 -0.7736
 6324TIP3    H240608   6.060   1.756   0.552 -1.7743  2.6892  1.4738
 6325TIP3   OH240609   3.492   4.492   1.259  0.2503  0.0445  0.3550
 6325TIP3    H140610   3.531   4.574   1.230  0.7762 -0.1224  0.5850
 6325TIP3    H240611   3.435   4.517   1.332  1.0067  0.1169  0.9409
 6326TIP3   OH240612   5.808   4.670   1.923  0.1208  0.2154  0.1147
 6326TIP3    H140613   5.727   4.701   1.882  0.3960  1.4945  0.5022
 6326TIP3    H240614   5.786   4.661   2.016  0.2613 -0.0371  0.1243
 6327TIP3   OH240615   2.260   1.370   3.063 -0.4983  0.5896  0.3953
 6327TIP3    H140616   2.291   1.366   3.154 -0.0920  2.0268  0.3378
 6327TIP3    H240617   2.169   1.399   3.070 -0.7505 -0.1512  0.3655
 6328TIP3   OH240618   3.716   6.632   1.664  0.0580  0.1854 -0.4571
 6328TIP3    H140619   3.649   6.574   1.698  1.4523 -2.4436 -1.8892
 6328TIP3    H240620   3.719   6.705   1.726 -3.2720 -0.1143  0.2458
 6329TIP3   OH240621   4.166   3.223   8.491  0.2852  0.2405 -0.0410
 6329TIP3    H140622   4.206   3.166   8.425 -0.3706 -0.6970  0.3500
 6329TIP3    H240623   4.135   3.299   8.442 -0.5791 -0.6401 -0.9005
 6330TIP3   OH240624   0.165   6.791   8.767  0.0518  0.6738  0.1999
 6330TIP3    H140625   0.200   6.706   8.795  0.8084  1.0605  0.4672
 6330TIP3    H240626   0.076   6.772   8.738  0.5032 -0.3664 -0.5706
 6331TIP3   OH240627   6.518   2.240   2.322  0.0564  0.1671 -0.5393
 6331TIP3    H140628   6.461   2.165   2.340  0.0583 -0.3568 -2.5083
 6331TIP3    H240629   6.600   2.218   2.366 -0.2083 -0.6042 -0.4098
 6332TIP3   OH240630   4.199   3.175   3.799  0.1755  0.0494 -0.1434
 6332TIP3    H140631   4.235   3.212   3.880 -0.5160  2.3224 -0.7958
 6332TIP3    H240632   4.265   3.113   3.769  0.8222 -0.2332  1.7124
 6333TIP3   OH240633   2.839   3.273   3.173 -0.1378 -0.5670  0.4218
 6333TIP3    H140634   2.858   3.340   3.108 -0.4724 -1.6426 -0.8322
 6333TIP3    H240635   2.885   3.302   3.251 -2.5516  2.6016  0.8811
 6334TIP3   OH240636   3.865   6.625   3.090 -0.1117 -0.0310 -0.0439
 6334TIP3    H140637   3.807   6.566   3.041 -2.7836  1.5455  0.9833
 6334TIP3    H240638   3.820   6.710   3.088  1.2144  0.8422  2.4968
 6335TIP3   OH240639   3.412   4.363   3.664  0.8434 -0.5787 -0.0588
 6335TIP3    H140640   3.474   4.363   3.737  0.3930  1.7891  0.4194
 6335TIP3    H240641   3.337   4.313   3.697  1.3768 -1.0687  0.4203
 6336TIP3   OH240642   2.319   0.600   4.657  0.5890  0.2306 -0.5141
 6336TIP3    H140643   2.253   0.629   4.720  0.9530  0.7057 -0.3515
 6336TIP3    H240644   2.318   0.504   4.664  0.7895  0.2847  0.3751
 6337TIP3   OH240645   6.105   5.549   2.851  0.0174  0.6481 -0.8428
 6337TIP3    H140646   6.154   5.502   2.919  0.7156  2.2986 -0.1629
 6337TIP3    H240647   6.082   5.481   2.787  0.2904 -0.7518  0.4867
 6338TIP3   OH240648   1.530   4.425   2.055 -0.1114 -0.3619  0.2503
 6338TIP3    H140649   1.566   4.344   2.018 -2.4973 -1.7701  0.8164
 6338TIP3    H240650   1.486   4.397   2.136 -0.3636  1.6434  0.8604
 6339TIP3   OH240651   0.839   1.339   3.701 -0.9323  0.3454  0.7266
 6339TIP3    H140652   0.863   1.386   3.781  0.6798 -1.1689  1.2003
 6339TIP3    H240653   0.744   1.328   3.707 -1.5788  4.0840  0.2058
 6340TIP3   OH240654   3.725   2.241   2.209  0.0483 -0.8080 -0.0621
 6340TIP3    H140655   3.710   2.206   2.297 -0.6055  0.2635  0.2807
 6340TIP3    H240656   3.819   2.257   2.206  0.3096 -2.2660 -0.1230
 6341TIP3   OH240657   6.192   3.604   8.787  1.0759 -0.0143  0.0515
 6341TIP3    H140658   6.199   3.698   8.772  2.0249 -0.2912 -1.4975
 6341TIP3    H240659   6.207   3.564   8.701 -1.5769 -1.5399  0.1727
 6342TIP3   OH240660   6.145   3.838   1.800 -0.5256  0.1001 -0.4178
 6342TIP3    H140661   6.124   3.928   1.822 -1.6099  0.5671 -2.9961
 6342TIP3    H240662   6.241   3.835   1.799 -0.4591  1.5806 -1.4610
 6343TIP3   OH240663   3.282   3.020   1.847 -0.4309  0.2563 -0.5771
 6343TIP3    H140664   3.317   3.058   1.928 -1.7821  1.5445 -0.5511
 6343TIP3    H240665   3.340   3.053   1.778  0.2144 -0.1463 -0.2380
 6344TIP3   OH240666   6.783   5.283   0.149  0.0693 -0.0682 -0.2656
 6344TIP3    H140667   6.752   5.194   0.135 -1.7455  0.7155 -1.6573
 6344TIP3    H240668   6.710   5.327   0.193  0.7452  0.8524 -0.0446
 6345TIP3   OH240669   6.624   2.679   3.201 -0.6520  0.0884 -0.4017
 6345TIP3    H140670   6.572   2.661   3.279  1.9267 -1.6197  1.0742
 6345TIP3    H240671   6.622   2.597   3.151  0.5061  0.0143 -0.3541
 6346TIP3   OH240672   0.800   6.384   4.375 -0.4086  0.2328 -0.0296
 6346TIP3    H140673   0.739   6.338   4.318  0.8292 -1.7279  0.1166
 6346TIP3    H240674   0.845   6.314   4.423  1.2896  1.6177  0.5059
 6347TIP3   OH240675   5.777   5.781   0.994  0.2302 -0.3545 -0.0334
 6347TIP3    H140676   5.768   5.874   1.013 -0.1147 -0.1084 -1.2979
 6347TIP3    H240677   5.834   5.778   0.916  2.8283 -1.3719  1.7601
 6348TIP3   OH240678   2.232   5.517   1.373 -0.4064  0.6221 -0.0983
 6348TIP3    H140679   2.187   5.438   1.405 -1.1008  1.4737  1.1128
 6348TIP3    H240680   2.187   5.589   1.417  0.7614  1.6470 -0.5460
 6349TIP3   OH240681   3.445   0.948   1.846 -0.0874 -0.4053  0.1273
 6349TIP3    H140682   3.478   0.861   1.868  0.2546 -0.7579 -1.6275
 6349TIP3    H240683   3.351   0.936   1.836 -0.5528  0.1330  2.9124
 6350TIP3   OH240684   1.866   6.456   0.176  0.0602 -0.1478 -0.0251
 6350TIP3    H140685   1.954   6.441   0.212  1.9000  3.5487 -2.2885
 6350TIP3    H240686   1.829   6.525   0.231 -1.0081 -0.8941  0.2259
 6351TIP3   OH240687   6.786   4.053   1.113  0.2488  0.2707  0.0936
 6351TIP3    H140688   6.734   3.974   1.131 -0.1215  0.9283  2.2036
 6351TIP3    H240689   6.747   4.089   1.033 -1.0950 -0.4655  0.3748
 6352TIP3   OH240690   4.873   4.735   0.758  0.5287 -0.3951  0.2171
 6352TIP3    H140691   4.944   4.671   0.764  1.5845  0.8157  1.2068
 6352TIP3    H240692   4.809   4.705   0.823  0.4063 -1.1349 -0.2281
 6353TIP3   OH240693   1.983   6.014   2.591 -0.4023 -0.0712 -0.8447
 6353TIP3    H140694   1.960   5.922   2.585 -0.9144  0.1151 -1.8248
 6353TIP3    H240695   1.983   6.046   2.501  1.2242  0.5476 -0.6719
 6354TIP3   OH240696   4.675   0.627   1.639  0.2617  0.2022 -0.0560
 6354TIP3    H140697   4.740   0.564   1.609  0.9684  1.5538 -1.5064
 6354TIP3    H240698   4.594   0.577   1.646  1.0258 -1.0727 -0.1214
 6355TIP3   OH240699   0.847   3.708   8.146 -0.0899  0.0388 -0.6207
 6355TIP3    H140700   0.811   3.797   8.148 -2.2984 -0.7832 -0.7110
 6355TIP3    H240701   0.907   3.707   8.071  1.6549  2.0001  0.6540
 6356TIP3   OH240702   4.961   3.873   2.430  0.4326 -0.6073  0.0944
 6356TIP3    H140703   4.904   3.925   2.373  0.6123 -1.5690 -0.9884
 6356TIP3    H240704   5.049   3.908   2.414  0.3574 -0.2018  0.5517
 6357TIP3   OH240705   5.929   2.020   2.685 -0.3867 -0.0271 -0.4485
 6357TIP3    H140706   5.911   1.933   2.721  1.0736 -0.3797 -0.5240
 6357TIP3    H240707   5.844   2.065   2.688 -1.1309 -1.3898 -0.2602
 6358TIP3   OH240708   5.115   5.076   2.261 -0.2657  0.7098 -0.2343
 6358TIP3    H140709   5.110   5.154   2.316  0.8093  0.6199  0.0050
 6358TIP3    H240710   5.205   5.045   2.270 -0.5875 -0.3913 -0.5629
 6359TIP3   OH240711   2.947   6.114   2.613 -0.1214  0.2453  0.1439
 6359TIP3    H140712   2.912   6.151   2.693 -1.3536  0.2073 -0.3627
 6359TIP3    H240713   2.901   6.031   2.601  0.1438  0.1825 -0.5347
 6360TIP3   OH240714   0.004   3.551   3.610 -0.5780 -0.0008  0.1008
 6360TIP3    H140715   0.003   3.483   3.677  1.1960 -1.2084 -1.0044
 6360TIP3    H240716  -0.019   3.631   3.656 -0.1118 -0.9086  2.0002
 6361TIP3   OH240717   6.216   6.235   3.324 -0.2368 -0.5309  0.1388
 6361TIP3    H140718   6.216   6.139   3.328 -0.2285 -0.6259 -1.4013
 6361TIP3    H240719   6.308   6.259   3.341 -0.8169 -0.5086  4.1273
 6362TIP3   OH240720   5.799   1.464   8.256 -0.5521  0.2452 -0.4335
 6362TIP3    H140721   5.823   1.455   8.164 -1.6880  1.4212 -0.8888
 6362TIP3    H240722   5.738   1.392   8.272 -2.6771  1.6593 -1.5140
 6363TIP3   OH240723   5.542   5.084   0.538 -0.3892 -0.6632 -0.3310
 6363TIP3    H140724   5.540   5.084   0.443 -1.1559 -2.2534 -0.3442
 6363TIP3    H240725   5.599   5.011   0.561  0.5869  0.3169  0.4416
 6364TIP3   OH240726   4.253   4.240   0.241 -0.1454 -0.2061 -0.1852
 6364TIP3    H140727   4.250   4.145   0.252 -2.3296  0.0246  2.4943
 6364TIP3    H240728   4.196   4.256   0.165 -0.5719 -0.9816 -0.0469
 6365TIP3   OH240729   6.615   3.438   3.950  0.6105 -0.0646 -0.4582
 6365TIP3    H140730   6.704   3.420   3.918  0.5634 -0.1693 -0.5280
 6365TIP3    H240731   6.611   3.533   3.957  0.5601 -0.0301 -0.9309
 6366TIP3   OH240732   5.906   0.986   1.715 -0.1836  0.4050  1.0909
 6366TIP3    H140733   5.981   0.999   1.774  1.6620 -1.9981 -0.5036
 6366TIP3    H240734   5.831   0.973   1.773  1.4114 -1.1910  2.9345
 6367TIP3   OH240735   2.998   2.830   0.622 -0.2773 -0.3713 -0.0705
 6367TIP3    H140736   2.960   2.874   0.546 -0.2920 -1.2183 -0.5571
 6367TIP3    H240737   3.006   2.739   0.596 -1.0971 -0.8529  1.2638
 6368TIP3   OH240738   2.541   0.234   1.455  0.3982  0.4912 -0.0356
 6368TIP3    H140739   2.552   0.284   1.536  0.7429  1.0694 -0.4348
 6368TIP3    H240740   2.463   0.180   1.470  0.5552  0.4745  0.7387
 6369TIP3   OH240741   2.187   4.398   1.329 -0.0395  0.1366  0.1874
 6369TIP3    H140742   2.115   4.435   1.381 -1.3024 -1.3106 -0.4739
 6369TIP3    H240743   2.199   4.461   1.258  0.7151  1.3796  1.3576
 6370TIP3   OH240744   5.897   4.724   1.029  0.1497 -0.4469  0.2283
 6370TIP3    H140745   5.930   4.814   1.025 -1.5345  0.1888 -0.4678
 6370TIP3    H240746   5.972   4.672   1.056  0.6296  1.4404  2.9711
 6371TIP3   OH240747   6.518   4.229   0.652  0.1436 -0.1157 -0.0700
 6371TIP3    H140748   6.502   4.154   0.595  1.2131  0.1517 -0.7636
 6371TIP3    H240749   6.433   4.271   0.661  0.0304  0.2279 -2.1029
 6372TIP3   OH240750   1.073   1.506   2.508 -0.0700 -0.2217  0.2813
 6372TIP3    H140751   1.167   1.490   2.502  0.4472  2.3328  0.6811
 6372TIP3    H240752   1.054   1.504   2.602 -0.3272 -0.1760  0.2325
 6373TIP3   OH240753   6.017   6.203   1.804 -0.7191 -0.3738 -0.3066
 6373TIP3    H140754   5.999   6.196   1.897 -1.6329 -0.9142 -0.5101
 6373TIP3    H240755   6.056   6.119   1.780 -1.9002 -0.8326 -0.6941
 6374TIP3   OH240756   2.107   1.550   1.814  0.4012 -0.2280  0.5029
 6374TIP3    H140757   2.199   1.524   1.819  0.7213  0.4257 -1.1895
 6374TIP3    H240758   2.060   1.467   1.807  0.6974 -0.6408  2.7226
 6375TIP3   OH240759   0.676   3.222   0.550  0.3198  0.7339  0.0916
 6375TIP3    H140760   0.770   3.222   0.533  0.1033  0.9773 -1.2947
 6375TIP3    H240761   0.640   3.162   0.484 -0.2813 -1.3787  2.2085
 6376TIP3   OH240762   5.890   0.895   8.347  0.4394 -0.1051  0.0147
 6376TIP3    H140763   5.894   0.991   8.346  0.7484 -0.1167 -0.3405
 6376TIP3    H240764   5.872   0.871   8.256  0.9954 -0.4072 -0.0201
 6377TIP3   OH240765   0.076   4.477   8.261  0.2277 -0.1964  0.6804
 6377TIP3    H140766   0.009   4.455   8.326 -1.7202  1.7466 -0.5346
 6377TIP3    H240767   0.115   4.393   8.237 -2.9711 -1.6783  0.2065
 6378TIP3   OH240768   3.544   6.762   0.739  0.5446 -0.0497  0.0932
 6378TIP3    H140769   3.633   6.769   0.703 -0.0754  0.5694 -1.3527
 6378TIP3    H240770   3.499   6.702   0.680 -0.1819  0.1034  0.4856
 6379TIP3   OH240771   5.039   0.611   1.780  0.5402  0.4076  0.0867
 6379TIP3    H140772   5.040   0.641   1.871  0.9168  0.9296 -0.0852
 6379TIP3    H240773   5.128   0.581   1.763  0.6366  0.8916 -0.2925
 6380TIP3   OH240774   0.448   0.757   2.625  0.5471  0.1870  0.1908
 6380TIP3    H140775   0.510   0.797   2.687  0.6780 -0.3209  0.3949
 6380TIP3    H240776   0.379   0.720   2.681 -0.1224  1.0337 -0.0513
 6381TIP3   OH240777   0.347   1.820   3.281 -0.5952 -0.2266 -0.0659
 6381TIP3    H140778   0.274   1.758   3.275 -1.1219  0.4142 -0.3403
 6381TIP3    H240779   0.327   1.888   3.217 -2.2670  2.5398  3.1177
 6382TIP3   OH240780   3.039   2.067   0.432  0.8642 -0.7117 -0.5232
 6382TIP3    H140781   2.948   2.085   0.410  0.1857 -1.3224  1.5220
 6382TIP3    H240782   3.036   1.981   0.474  1.9796  0.2436  1.6906
 6383TIP3   OH240783   0.718   4.639   0.916 -0.4927  0.5376 -0.0870
 6383TIP3    H140784   0.624   4.650   0.924 -0.5539  0.2142 -0.3446
 6383TIP3    H240785   0.734   4.635   0.822 -0.2460  0.4165 -0.0411
 6384TIP3   OH240786   2.937   0.540   0.690 -0.5787  0.0311 -0.1919
 6384TIP3    H140787   2.887   0.487   0.628 -1.1944 -1.4824  1.5137
 6384TIP3    H240788   3.015   0.567   0.641  0.7764 -4.0959 -0.7117
 6385TIP3   OH240789   1.624   5.422   8.763  0.4523 -0.1100  0.3942
 6385TIP3    H140790   1.600   5.504   8.807  0.2661 -0.2470  0.5536
 6385TIP3    H240791   1.666   5.450   8.681 -2.3012  0.1896 -1.0479
 6386TIP3   OH240792   2.449   6.496   2.470 -0.3159 -0.6061 -0.0238
 6386TIP3    H140793   2.380   6.435   2.496  0.6899 -1.6467  0.2895
 6386TIP3    H240794   2.531   6.451   2.492  0.5020  1.7656  2.4447
 6387TIP3   OH240795   3.326   2.836   0.576 -0.3660 -0.4215 -0.0405
 6387TIP3    H140796   3.395   2.770   0.585 -0.8767 -1.0086 -0.3094
 6387TIP3    H240797   3.247   2.792   0.609 -1.0033 -0.4441 -1.5192
 6388TIP3   OH240798   4.596   3.678   8.363  0.2916 -0.2953  0.1896
 6388TIP3    H140799   4.649   3.686   8.442  1.3494  0.2645 -0.5436
 6388TIP3    H240800   4.618   3.592   8.328 -0.4798 -0.7131  0.6905
 6389TIP3   OH240801   5.449   2.687   1.528  0.0736  0.2342 -0.6098
 6389TIP3    H140802   5.528   2.633   1.528 -0.0183  0.0818  0.2331
 6389TIP3    H240803   5.388   2.641   1.585  0.2243  1.5166  0.6734
 6390TIP3   OH240804   0.585   4.998   1.165 -0.2843  0.0217  0.2015
 6390TIP3    H140805   0.566   4.925   1.225 -0.2538 -0.5223 -0.4394
 6390TIP3    H240806   0.505   5.008   1.114 -0.3658  0.5892  0.4343
 6391TIP3   OH240807   4.009   6.472   2.741  0.2517 -0.7479  0.5893
 6391TIP3    H140808   3.957   6.538   2.694  1.3591  1.0811  1.8241
 6391TIP3    H240809   4.087   6.519   2.771  0.5532 -2.3359  2.5072
 6392TIP3   OH240810   5.888   1.084   2.463 -0.7806  0.4880 -0.1281
 6392TIP3    H140811   5.915   1.154   2.523  1.2659  0.3693 -0.8169
 6392TIP3    H240812   5.846   1.019   2.519  1.1791  0.3199  1.2581
 6393TIP3   OH240813   3.373   0.084   3.493  0.3575 -0.0481 -0.1756
 6393TIP3    H140814   3.326   0.061   3.413  1.4515 -0.4854 -0.7032
 6393TIP3    H240815   3.347   0.016   3.556  2.2175 -1.8224 -1.2210
 6394TIP3   OH240816   0.641   0.027   1.119  0.4313  0.1630  0.1821
 6394TIP3    H140817   0.652  -0.017   1.035 -0.5134  0.3287 -0.0414
 6394TIP3    H240818   0.728   0.062   1.140  0.7231 -0.0735 -0.6133
 6395TIP3   OH240819   6.139   4.341   2.741  0.2679  0.9085  0.0598
 6395TIP3    H140820   6.120   4.423   2.789 -0.9315 -0.4607  2.1069
 6395TIP3    H240821   6.055   4.315   2.705 -0.0199 -0.7576  1.7617
 6396TIP3   OH240822   2.702   5.310   1.023  0.0173  0.5800  0.1711
 6396TIP3    H140823   2.614   5.312   0.984 -0.1198  0.0632  0.4383
 6396TIP3    H240824   2.699   5.237   1.084  0.1868  1.4505  1.2574
 6397TIP3   OH240825   5.281   1.204   8.365 -0.3168 -0.0852  0.4122
 6397TIP3    H140826   5.198   1.156   8.356  0.1262 -0.7644 -0.1541
 6397TIP3    H240827   5.338   1.166   8.298 -0.5217  2.4786 -1.3563
 6398TIP3   OH240828   0.722   5.263   2.373 -0.4989  0.2640  0.1526
 6398TIP3    H140829   0.812   5.296   2.369 -0.5220  0.3042 -0.0358
 6398TIP3    H240830   0.710   5.213   2.292 -0.5106 -0.0923  0.3728
 6399TIP3   OH240831   5.898   5.959   2.731  0.3307  0.5459 -0.3850
 6399TIP3    H140832   5.898   5.867   2.756  0.1574  0.5933 -0.2040
 6399TIP3    H240833   5.881   6.006   2.813  1.2718  0.7820 -0.3109
 6400TIP3   OH240834   0.067   4.556   8.604 -0.8178 -0.2413  0.0838
 6400TIP3    H140835   0.002   4.618   8.572  0.9544  1.4592 -0.4066
 6400TIP3    H240836   0.124   4.608   8.660  1.7096 -0.9458 -1.6413
 6401TIP3   OH240837   2.328   1.579   8.584 -0.2934  0.3045  0.3669
 6401TIP3    H140838   2.391   1.635   8.540  1.7615 -1.2264  1.2226
 6401TIP3    H240839   2.302   1.514   8.517 -0.3671  0.4644  0.2407
 6402TIP3   OH240840   0.610   6.371   1.237  0.1053  0.6633  0.4268
 6402TIP3    H140841   0.593   6.318   1.315  0.9822 -0.9181 -0.3932
 6402TIP3    H240842   0.529   6.366   1.186  0.5262 -0.8745 -0.1524
 6403TIP3   OH240843   6.157   4.528   1.056 -0.2995  0.5889  0.3930
 6403TIP3    H140844   6.250   4.545   1.043 -0.4037  0.1006 -1.3406
 6403TIP3    H240845   6.143   4.537   1.150  1.5977  0.1319  0.7551
 6404TIP3   OH240846   0.391   6.679   4.039 -0.1878  0.2982  0.1484
 6404TIP3    H140847   0.413   6.684   4.132  0.2523  0.6713  0.0279
 6404TIP3    H240848   0.368   6.587   4.024  3.6211 -0.7581 -0.2131
 6405TIP3   OH240849   3.676   5.582   1.174 -0.2609  0.5743  0.1231
 6405TIP3    H140850   3.633   5.573   1.089 -1.6256  0.9354  0.7571
 6405TIP3    H240851   3.607   5.608   1.234  0.7710  0.7757  1.2711
 6406TIP3   OH240852   0.337   3.651   1.732  0.1240 -0.4963 -0.3024
 6406TIP3    H140853   0.420   3.640   1.778 -0.7415 -0.1193  1.4186
 6406TIP3    H240854   0.296   3.564   1.736  0.0159 -0.4466 -0.3288
 6407TIP3   OH240855   1.283   6.481   8.795  0.4834  0.2434  0.4016
 6407TIP3    H140856   1.242   6.476   8.708  2.7806 -1.6194 -0.7058
 6407TIP3    H240857   1.216   6.450   8.855 -1.6643  2.8760 -0.4238
 6408TIP3   OH240858   5.582   4.310   0.224  0.1799 -0.5548  0.1579
 6408TIP3    H140859   5.627   4.359   0.155  0.3801 -0.3992  0.3937
 6408TIP3    H240860   5.594   4.218   0.200  0.8781 -0.5275  0.3686
 6409TIP3   OH240861   2.124   5.072   0.106 -0.3209  0.1096  0.2003
 6409TIP3    H140862   2.096   5.088   0.016 -2.4021 -0.5236  0.6877
 6409TIP3    H240863   2.073   5.133   0.159  0.3459 -0.0290  1.0361
 6410TIP3   OH240864   6.106   6.633   1.333 -0.5094  0.5223 -0.5072
 6410TIP3    H140865   6.054   6.714   1.337 -4.2644 -1.6761  1.1596
 6410TIP3    H240866   6.107   6.601   1.423  1.1985 -1.1502 -1.0594
 6411TIP3   OH240867   2.894   6.551   2.603 -0.2202 -0.1203 -0.6228
 6411TIP3    H140868   2.830   6.484   2.578 -0.2523  0.4458 -2.1518
 6411TIP3    H240869   2.911   6.534   2.695 -1.0915 -1.5168 -0.6862
 6412TIP3   OH240870   5.226   5.214   2.954  0.0178  0.3663  0.0408
 6412TIP3    H140871   5.168   5.152   2.997  0.7302  0.0485  0.5768
 6412TIP3    H240872   5.200   5.300   2.990  0.1445  0.1815  0.5895
 6413TIP3   OH240873   2.696   1.635   0.316  0.3219  0.4762 -0.1298
 6413TIP3    H140874   2.636   1.692   0.365 -2.4138 -2.1467 -0.1949
 6413TIP3    H240875   2.700   1.674   0.229  1.0053  2.2190  0.6222
 6414TIP3   OH240876   1.278   3.157   0.968 -0.0092  0.7525 -0.3956
 6414TIP3    H140877   1.250   3.233   0.917 -0.0646  0.5059 -0.7416
 6414TIP3    H240878   1.211   3.147   1.036 -1.0107 -0.0720 -1.4542
 6415TIP3   OH240879   5.836   0.882   0.023 -0.0355  0.0422  0.2772
 6415TIP3    H140880   5.793   0.894  -0.062 -2.2707  1.2330  1.4784
 6415TIP3    H240881   5.919   0.928   0.014 -0.6338  0.9478 -1.0045
 6416TIP3   OH240882   6.322   3.753   2.453  0.3462 -0.3941  0.1707
 6416TIP3    H140883   6.238   3.797   2.437  0.6783  0.4759  0.7481
 6416TIP3    H240884   6.302   3.689   2.522 -0.2171 -1.4254 -0.9186
 6417TIP3   OH240885   0.985   0.501   1.229 -0.1180  0.5307  0.1679
 6417TIP3    H140886   0.918   0.488   1.296  0.2859 -2.5494  0.0980
 6417TIP3    H240887   1.066   0.469   1.270  0.5150  0.4725 -1.1011
 6418TIP3   OH240888   5.412   6.115   3.658 -0.6078 -0.2295 -0.7744
 6418TIP3    H140889   5.413   6.120   3.563 -1.0312 -2.2561 -0.9172
 6418TIP3    H240890   5.330   6.069   3.680 -0.7113  0.5332  0.5924
 6419TIP3   OH240891   4.959   5.818   3.025  0.2107 -0.6325 -0.2785
 6419TIP3    H140892   4.994   5.743   2.977  1.0879 -0.2590 -0.2419
 6419TIP3    H240893   4.912   5.869   2.960  0.3206 -0.7832 -0.4760
 6420TIP3   OH240894   2.994   0.057   2.783  0.4860  0.7383 -0.6095
 6420TIP3    H140895   2.923  -0.006   2.789 -0.0145  1.3729  0.6999
 6420TIP3    H240896   3.057   0.030   2.851  0.7129  1.1019 -0.6678
 6421TIP3   OH240897   2.649   0.532   3.672  0.7444 -0.7262  0.2581
 6421TIP3    H140898   2.623   0.483   3.750  1.9260 -0.5344  0.7935
 6421TIP3    H240899   2.572   0.584   3.650  0.5246 -0.4580  1.5560
 6422TIP3   OH240900   5.961   4.153   3.628  0.2417 -0.4361 -0.0196
 6422TIP3    H140901   5.908   4.172   3.705 -0.6106 -1.8159 -0.2272
 6422TIP3    H240902   5.897   4.132   3.559  1.0191 -0.6266 -0.7023
 6423TIP3   OH240903   0.418   2.596   2.430 -0.5630 -0.2249 -0.3274
 6423TIP3    H140904   0.427   2.503   2.408  0.2151 -0.7782  1.9879
 6423TIP3    H240905   0.344   2.626   2.379  0.4163 -1.5660 -2.6958
 6424TIP3   OH240906   6.138   4.326   3.887 -0.9294 -0.2350 -0.4915
 6424TIP3    H140907   6.095   4.366   3.811 -2.3447  2.2800  1.4982
 6424TIP3    H240908   6.075   4.261   3.918 -0.6024 -0.8478 -1.0768
 6425TIP3   OH240909   6.075   2.350   8.757 -0.0482 -0.5458  0.3815
 6425TIP3    H140910   5.995   2.315   8.795  0.3034  0.0938  1.7630
 6425TIP3    H240911   6.062   2.445   8.754 -0.3590 -0.5980 -1.8472
 6426TIP3   OH240912   5.778   4.061   2.927  0.1775 -0.0471  0.2601
 6426TIP3    H140913   5.797   3.967   2.935  0.1403 -0.1552 -0.7251
 6426TIP3    H240914   5.723   4.068   2.849  0.3393  0.8132  0.2095
 6427TIP3   OH240915   1.955   2.188   0.883 -0.1323  0.3469  0.0810
 6427TIP3    H140916   2.038   2.143   0.865 -0.6959 -0.3118 -0.9597
 6427TIP3    H240917   1.972   2.279   0.860  0.5867  0.4085  0.8036
 6428TIP3   OH240918   4.503   6.690   0.461  0.2683 -0.6643  0.7060
 6428TIP3    H140919   4.409   6.671   0.470  0.4768 -1.6540  0.8422
 6428TIP3    H240920   4.515   6.709   0.368 -0.3466  1.1101  0.9434
 6429TIP3   OH240921   6.705   0.879   8.814  0.6472 -0.1225  0.1387
 6429TIP3    H140922   6.668   0.943   8.753  0.9984 -0.5148 -0.4946
 6429TIP3    H240923   6.665   0.796   8.789  1.0916 -0.3561  0.1903
 6430TIP3   OH240924   4.218   4.960   8.258 -0.3510  0.4714  0.1498
 6430TIP3    H140925   4.190   5.038   8.210 -1.7040 -0.2271 -0.2573
 6430TIP3    H240926   4.207   4.888   8.195 -0.3125 -0.2068  0.8995
 6431TIP3   OH240927   2.252   0.656   4.262 -0.0180 -0.1357 -0.2967
 6431TIP3    H140928   2.178   0.708   4.232  0.0026  0.1672  0.1662
 6431TIP3    H240929   2.328   0.714   4.255 -0.1088  0.1650  0.9180
 6432TIP3   OH240930   3.784   1.957   1.022 -0.5092  0.3225 -0.0082
 6432TIP3    H140931   3.773   2.049   0.997  0.8164  0.1746 -1.2543
 6432TIP3    H240932   3.745   1.951   1.109 -0.9115  1.9891 -0.0469
 6433TIP3   OH240933   2.006   2.711   1.568 -0.0100  0.6370 -0.2006
 6433TIP3    H140934   1.919   2.676   1.548  0.5118 -1.0967  0.3816
 6433TIP3    H240935   1.993   2.762   1.648 -0.8156  1.9307 -1.1287
 6434TIP3   OH240936   3.185   6.764   0.984  0.5514 -0.2393  0.1784
 6434TIP3    H140937   3.229   6.827   1.041  0.6160 -0.3643  0.2667
 6434TIP3    H240938   3.201   6.679   1.025 -0.9184 -0.1772  0.9814
 6435TIP3   OH240939   1.521   3.985   2.214  0.5350  0.2816 -0.4253
 6435TIP3    H140940   1.512   3.933   2.295  4.4109 -2.8855 -1.7065
 6435TIP3    H240941   1.574   4.060   2.240  0.9107 -0.1895  0.2141
 6436TIP3   OH240942   0.386   0.526   8.348  0.1977 -0.1649 -0.1615
 6436TIP3    H140943   0.293   0.546   8.342  0.5632  1.5546 -0.3579
 6436TIP3    H240944   0.422   0.551   8.263  0.9887 -0.0190  0.2072
 6437TIP3   OH240945   3.713   5.126   3.526 -0.5622 -0.0661 -0.2620
 6437TIP3    H140946   3.753   5.113   3.612 -1.7089 -1.4908  0.1071
 6437TIP3    H240947   3.725   5.042   3.481  0.5602  0.8544 -1.7522
 6438TIP3   OH240948   3.893   5.507   3.273 -0.2776 -0.3855  0.0023
 6438TIP3    H140949   3.798   5.516   3.263 -0.6868 -2.0493  1.7925
 6438TIP3    H240950   3.906   5.414   3.290  1.4116  0.1354  1.9960
 6439TIP3   OH240951   5.173   0.764   0.655 -0.6645  0.0586 -0.2495
 6439TIP3    H140952   5.203   0.694   0.598 -2.1749 -0.6582 -0.1909
 6439TIP3    H240953   5.220   0.749   0.738  1.3017  0.9285 -1.1401
 6440TIP3   OH240954   1.937   0.108   4.587  0.6381 -0.1812  0.8360
 6440TIP3    H140955   1.879   0.036   4.615 -2.1653  1.7592  0.4423
 6440TIP3    H240956   1.974   0.141   4.669 -0.5804 -0.1213  1.3983
 6441TIP3   OH240957   4.764   5.664   0.571 -0.3909  0.1708  0.2699
 6441TIP3    H140958   4.766   5.568   0.564 -1.4496  0.1704 -0.2862
 6441TIP3    H240959   4.682   5.682   0.617 -0.7681  0.8524 -0.6474
 6442TIP3   OH240960   5.537   0.475   0.101  0.0495 -0.3701  0.0851
 6442TIP3    H140961   5.520   0.506   0.012  1.5594  1.6682  0.4364
 6442TIP3    H240962   5.610   0.529   0.131 -1.4355  0.1298  3.1301
 6443TIP3   OH240963   1.653   3.022   3.118  0.2274 -0.0018 -0.2548
 6443TIP3    H140964   1.564   3.023   3.084  0.5397 -1.1460 -1.1965
 6443TIP3    H240965   1.646   3.058   3.206 -1.0326  0.6417 -0.6007
 6444TIP3   OH240966   4.171   3.417   0.639  0.3630  0.3664  0.6084
 6444TIP3    H140967   4.111   3.414   0.564  2.6923 -0.7653 -1.3242
 6444TIP3    H240968   4.201   3.327   0.649 -1.2681  0.0546  4.2133
 6445TIP3   OH240969   3.074   4.252   2.137  0.7249  0.0674 -0.0145
 6445TIP3    H140970   3.097   4.343   2.121 -0.2024  0.0792 -1.3808
 6445TIP3    H240971   3.084   4.209   2.052 -0.6671 -0.6917  0.1740
 6446TIP3   OH240972   0.098   6.146   1.339 -0.3098  0.3882 -0.1346
 6446TIP3    H140973   0.092   6.175   1.248  0.1183  2.1864  0.3734
 6446TIP3    H240974   0.032   6.197   1.385 -1.2322 -1.2426  0.4329
 6447TIP3   OH240975   2.491   0.694   0.338 -0.4155  0.8205 -0.4020
 6447TIP3    H140976   2.401   0.724   0.347 -0.7251  0.1067 -0.9587
 6447TIP3    H240977   2.483   0.605   0.302  0.4139 -0.2919  1.9387
 6448TIP3   OH240978   1.198   0.522   1.607  0.4538 -0.3819  0.3713
 6448TIP3    H140979   1.117   0.506   1.655 -0.4301  0.3391 -0.8157
 6448TIP3    H240980   1.264   0.470   1.653 -0.3633  0.1451  2.2447
 6449TIP3   OH240981   5.453   4.019   2.908  0.0026 -0.0870  0.1151
 6449TIP3    H140982   5.362   4.017   2.938 -0.4786  0.3673 -1.1942
 6449TIP3    H240983   5.469   3.932   2.873 -0.5907  0.3666 -1.3764
 6450TIP3   OH240984   1.288   1.497   2.971  0.5878 -0.8136 -0.3817
 6450TIP3    H140985   1.348   1.436   2.927 -0.3512 -2.0722  0.0012
 6450TIP3    H240986   1.261   1.450   3.050 -0.2024  0.0993 -0.0974
 6451TIP3   OH240987   4.701   6.588   3.550  0.2366 -0.2909 -0.5021
 6451TIP3    H140988   4.612   6.608   3.523  1.2026  2.5466 -1.9759
 6451TIP3    H240989   4.730   6.666   3.597  2.2787 -0.6804 -1.0112
 6452TIP3   OH240990   4.646   2.533   1.817  0.3018  0.0383 -0.0674
 6452TIP3    H140991   4.662   2.501   1.729  1.2606  0.8537 -0.2199
 6452TIP3    H240992   4.700   2.477   1.873  1.1570  0.6919 -0.2181
 6453TIP3   OH240993   3.350   3.319   3.139 -0.1636  0.3531 -0.0481
 6453TIP3    H140994   3.330   3.281   3.054  1.5255  0.0883 -0.3579
 6453TIP3    H240995   3.299   3.267   3.201 -1.4842  0.6051 -0.8588
 6454TIP3   OH240996   0.912   5.147   4.383 -0.5571 -0.0704  0.0748
 6454TIP3    H140997   0.912   5.160   4.478  0.4406 -0.6400  0.1636
 6454TIP3    H240998   0.882   5.057   4.372  3.3420 -1.5764  0.1553
 6455TIP3   OH240999   1.343   6.054   1.686 -0.8075 -0.3049  0.1274
 6455TIP3    H141000   1.432   6.085   1.698 -1.4259  0.7922  2.3181
 6455TIP3    H241001   1.340   5.970   1.731 -0.6958 -0.7545 -0.6766
 6456TIP3   OH241002   5.560   4.870   1.593  0.4326  0.0657  0.3696
 6456TIP3    H141003   5.478   4.906   1.558  0.5363 -1.4246 -1.6344
 6456TIP3    H241004   5.621   4.943   1.591 -0.5941  0.9725  1.0110
 6457TIP3   OH241005   1.150   4.126   3.972 -0.3054  0.5783 -0.2595
 6457TIP3    H141006   1.241   4.099   3.982 -1.1128 -1.8894  1.3863
 6457TIP3    H241007   1.128   4.107   3.881 -0.1073 -2.2846  0.1968
 6458TIP3   OH241008   5.902   5.788   8.800 -0.1985 -0.3523 -0.0598
 6458TIP3    H141009   5.938   5.874   8.776 -0.2415 -0.5741 -0.9616
 6458TIP3    H241010   5.897   5.740   8.717 -0.2562 -1.2004  0.4232
 6459TIP3   OH241011   6.370   1.465   1.712 -0.1641 -0.1067  0.3416
 6459TIP3    H141012   6.305   1.397   1.729  0.7129 -0.8403  0.9355
 6459TIP3    H241013   6.412   1.437   1.630  0.5941 -0.6392  0.8875
 6460TIP3   OH241014   6.591   0.048   0.050  0.2446 -0.1477  0.2305
 6460TIP3    H141015   6.604   0.092   0.134 -0.8527  0.7349 -0.0459
 6460TIP3    H241016   6.512  -0.005   0.063 -0.4589  0.7073 -0.5231
 6461TIP3   OH241017   2.245   5.626   0.750  0.3446 -0.1009 -0.7372
 6461TIP3    H141018   2.287   5.712   0.753  0.9686 -0.4029 -0.7500
 6461TIP3    H241019   2.276   5.587   0.668 -0.1165 -0.2502 -0.8435
 6462TIP3   OH241020   2.530   3.520   8.762 -0.5400 -0.0390 -0.0819
 6462TIP3    H141021   2.507   3.430   8.786 -1.9766  0.4088  0.3593
 6462TIP3    H241022   2.495   3.574   8.834 -0.9085  0.9666 -0.9825
 6463TIP3   OH241023   6.823   5.777   2.613  0.1912 -0.3896  0.0728
 6463TIP3    H141024   6.747   5.721   2.603 -0.1951  0.4107 -1.8716
 6463TIP3    H241025   6.876   5.762   2.535  1.4442 -0.0502  0.8166
 6464TIP3   OH241026   1.946   3.446   3.996  0.2966 -0.1387  0.6379
 6464TIP3    H141027   1.908   3.533   4.007 -0.2250 -0.4525  1.3785
 6464TIP3    H241028   1.896   3.390   4.055  2.0823 -0.5241  1.8690
 6465TIP3   OH241029   5.631   1.201   1.422 -0.3138 -0.0735 -0.1467
 6465TIP3    H141030   5.718   1.211   1.460  0.3051 -0.8109 -1.3269
 6465TIP3    H241031   5.615   1.107   1.423 -0.2220 -0.1294 -1.7934
 6466TIP3   OH241032   4.504   2.803   0.740  0.2001 -0.4538  0.0371
 6466TIP3    H141033   4.448   2.729   0.717 -0.3861  0.4054 -1.3474
 6466TIP3    H241034   4.543   2.831   0.658 -0.7237  1.7102  0.2944
 6467TIP3   OH241035   4.143   2.304   1.929  0.5039  0.3614  0.1939
 6467TIP3    H141036   4.179   2.230   1.978 -1.2378 -1.0401 -0.4870
 6467TIP3    H241037   4.079   2.344   1.988  0.2025  0.2241 -0.0324
 6468TIP3   OH241038   1.449   3.416   4.060 -0.3736  0.0531 -0.4122
 6468TIP3    H141039   1.497   3.491   4.096 -1.5827 -0.1952  1.8837
 6468TIP3    H241040   1.500   3.340   4.089  0.2893 -0.1010 -1.8766
 6469TIP3   OH241041   5.525   1.288   1.973 -0.1579  0.4038  0.0442
 6469TIP3    H141042   5.441   1.279   2.019  0.8927  0.6029  2.1154
 6469TIP3    H241043   5.528   1.381   1.949 -0.6173  0.3517 -0.2263
 6470TIP3   OH241044   4.212   2.952   1.586 -0.9531  0.1538  0.1532
 6470TIP3    H141045   4.206   2.891   1.660  1.5833 -2.5717 -1.6726
 6470TIP3    H241046   4.288   3.005   1.605 -2.1219  1.6459  0.8821
 6471TIP3   OH241047   0.240   4.030   1.186  0.0489  0.3819 -0.3508
 6471TIP3    H141048   0.271   4.104   1.134 -1.1921  0.9127 -0.3569
 6471TIP3    H241049   0.145   4.031   1.177 -0.0546 -0.6933  0.3570
 6472TIP3   OH241050   3.363   3.657   0.442 -0.4281 -0.2488 -0.2239
 6472TIP3    H141051   3.373   3.702   0.526 -0.2375  0.6105 -0.6880
 6472TIP3    H241052   3.326   3.724   0.384  1.8905  0.0006 -1.5375
 6473TIP3   OH241053   0.402   3.240   1.085 -0.4786  0.5096 -0.4679
 6473TIP3    H141054   0.474   3.232   1.021  0.7177  0.1648  0.8658
 6473TIP3    H241055   0.423   3.319   1.135 -0.3025 -0.2897  0.7650
 6474TIP3   OH241056   3.161   0.050   4.329  0.3002 -0.4450  0.1454
 6474TIP3    H141057   3.218   0.054   4.406 -1.1523  0.5246  1.2386
 6474TIP3    H241058   3.166  -0.041   4.299 -0.3608 -1.2955  2.4150
 6475TIP3   OH241059   6.210   0.868   3.650  0.9327  0.0681  0.3283
 6475TIP3    H141060   6.154   0.945   3.647  0.5301 -0.2442 -1.1975
 6475TIP3    H241061   6.295   0.901   3.678  0.8098  1.1203 -0.4743
 6476TIP3   OH241062   3.218   5.651   3.799 -0.1609 -0.1890 -0.2802
 6476TIP3    H141063   3.222   5.723   3.862 -0.3577 -0.7102  0.3451
 6476TIP3    H241064   3.231   5.572   3.853 -0.1407 -0.6300 -0.9227
 6477TIP3   OH241065   2.613   0.233   2.574 -0.0277 -0.3665 -0.2563
 6477TIP3    H141066   2.681   0.251   2.639  0.5963  2.0318 -1.4631
 6477TIP3    H241067   2.554   0.308   2.579 -1.1490 -1.1541 -1.0331
 6478TIP3   OH241068   1.093   2.366   3.467 -0.4226 -0.5157 -0.5982
 6478TIP3    H141069   1.030   2.406   3.407 -1.6295 -0.0603  0.8777
 6478TIP3    H241070   1.081   2.272   3.454 -2.7988 -0.5239  0.8574
 6479TIP3   OH241071   1.032   6.504   2.693  0.1269 -0.1275  0.0017
 6479TIP3    H141072   1.007   6.554   2.771 -0.8988  2.4502 -1.8281
 6479TIP3    H241073   0.950   6.467   2.661  0.4177 -0.5218 -0.3045
 6480TIP3   OH241074   6.113   2.525   2.059 -0.1938 -0.1822 -0.2112
 6480TIP3    H141075   6.134   2.458   1.995  0.4858  0.6470 -0.8777
 6480TIP3    H241076   6.032   2.566   2.026 -0.1556 -0.1274 -0.2368
 6481TIP3   OH241077   3.945   6.193   0.809 -0.3512 -0.7323 -0.0316
 6481TIP3    H141078   3.952   6.270   0.864 -0.4636 -0.3912 -0.4908
 6481TIP3    H241079   3.872   6.212   0.750  1.2375 -0.0752 -1.8965
 6482TIP3   OH241080   4.058   6.268   0.375  0.4654 -0.7370  0.3175
 6482TIP3    H141081   4.073   6.354   0.335 -0.5445 -1.8138 -2.6988
 6482TIP3    H241082   4.146   6.232   0.387  0.8570  0.3179  0.7255
 6483TIP3   OH241083   5.581   6.715   2.277  0.8270  0.1470  0.1027
 6483TIP3    H141084   5.531   6.796   2.281  0.0620 -0.3101  0.0969
 6483TIP3    H241085   5.583   6.683   2.367  0.3362 -0.2850 -0.0327
 6484TIP3   OH241086   1.214   2.501   0.769 -0.2734 -0.2886 -0.1260
 6484TIP3    H141087   1.137   2.503   0.825 -1.5611  0.8588 -1.8537
 6484TIP3    H241088   1.273   2.567   0.806 -0.5874 -0.3841  0.5462
 6485TIP3   OH241089   1.435   1.420   0.949 -0.1887  0.0501 -0.0158
 6485TIP3    H141090   1.434   1.426   0.853 -1.1434  0.9573  0.0286
 6485TIP3    H241091   1.372   1.487   0.978  0.8371  0.5033  1.2811
 6486TIP3   OH241092   2.216   4.150   3.598 -0.0354  0.1202 -0.1038
 6486TIP3    H141093   2.224   4.058   3.573 -0.3113  0.1570 -0.3316
 6486TIP3    H241094   2.305   4.185   3.587 -0.0434  0.0099 -0.5547
 6487TIP3   OH241095   0.670   4.328   8.819 -0.0510  0.0646 -0.1469
 6487TIP3    H141096   0.597   4.269   8.841  0.4051 -0.7428 -0.7505
 6487TIP3    H241097   0.696   4.302   8.731  0.6597  0.6690 -0.1208
 6488TIP3   OH241098   3.999   3.925   2.517  0.7499  0.1710 -0.0143
 6488TIP3    H141099   3.982   3.886   2.603 -0.3405  0.8840  0.1168
 6488TIP3    H241100   4.047   3.858   2.469  0.4070 -0.6616  0.7781
 6489TIP3   OH241101   0.218   5.348   0.205  0.1622  0.3242  0.0819
 6489TIP3    H141102   0.124   5.345   0.187 -0.4016  0.7901  2.5192
 6489TIP3    H241103   0.257   5.288   0.142 -2.1299 -2.2409  0.9029
 6490TIP3   OH241104   2.676   0.835   3.525  0.3447  0.3524 -0.2569
 6490TIP3    H141105   2.697   0.842   3.618  0.4349  0.0730 -0.2537
 6490TIP3    H241106   2.583   0.813   3.523  0.8238 -1.9736 -0.1365
 6491TIP3   OH241107   1.449   0.722   1.206 -0.3618 -0.1660  0.3777
 6491TIP3    H141108   1.372   0.778   1.191  0.1875  0.4700 -0.1208
 6491TIP3    H241109   1.523   0.773   1.173  0.4409 -0.2595  1.9353
 6492TIP3   OH241110   0.688   2.872   4.102  0.2987  0.2596  0.2893
 6492TIP3    H141111   0.709   2.825   4.183 -0.5042 -0.3125  0.1880
 6492TIP3    H241112   0.643   2.951   4.131 -1.5014 -0.7403  0.4000
 6493TIP3   OH241113   0.998   1.245   1.751  0.2458 -0.4185  0.5873
 6493TIP3    H141114   0.947   1.182   1.700 -1.1855 -0.1209  1.5999
 6493TIP3    H241115   1.075   1.195   1.780 -0.0155 -1.2029 -0.0303
 6494TIP3   OH241116   1.016   4.272   1.110 -0.3946 -0.5910 -0.2875
 6494TIP3    H141117   1.106   4.249   1.090 -0.5072 -1.1571 -0.1587
 6494TIP3    H241118   0.964   4.229   1.042 -0.7146 -1.8791  0.7372
 6495TIP3   OH241119   1.081   4.186   2.885  0.1143 -0.0690 -0.0988
 6495TIP3    H141120   1.084   4.095   2.856 -0.1200 -0.4049  0.8780
 6495TIP3    H241121   0.988   4.209   2.882  0.1663  0.1217 -0.2830
 6496TIP3   OH241122   1.836   3.638   0.068 -0.8635 -0.7625 -0.1377
 6496TIP3    H141123   1.790   3.605   0.145  1.6439 -2.4844  0.7619
 6496TIP3    H241124   1.889   3.711   0.102  1.3753 -2.4436  0.2403
 6497TIP3   OH241125   3.935   0.737   2.986  0.3017  0.9997  0.0078
 6497TIP3    H141126   3.936   0.653   3.032 -0.7538  0.4366 -0.9750
 6497TIP3    H241127   3.941   0.802   3.056 -3.1941  0.2303  1.1979
 6498TIP3   OH241128   5.166   4.573   0.025 -0.4663 -0.0033 -0.6326
 6498TIP3    H141129   5.113   4.566   0.105 -0.1492  1.8467 -0.2108
 6498TIP3    H241130   5.115   4.526  -0.041 -0.7479 -1.5648  0.6185
 6499TIP3   OH241131   6.625   3.505   2.690 -0.1376  0.4553 -0.8308
 6499TIP3    H141132   6.545   3.467   2.724 -0.3082  1.9731  0.6406
 6499TIP3    H241133   6.629   3.592   2.731  1.8580  0.7085 -1.4473
 6500TIP3   OH241134   6.190   1.181   0.949  0.1502 -0.3580 -0.3684
 6500TIP3    H141135   6.234   1.253   0.994 -0.8424  0.2582 -0.3500
 6500TIP3    H241136   6.121   1.223   0.898 -0.7554 -1.3233  0.0154
 6501TIP3   OH241137   0.506   4.099   8.832  0.1016 -0.0240  0.1246
 6501TIP3    H141138   0.440   4.068   8.895 -0.1562  1.2566  0.5132
 6501TIP3    H241139   0.549   4.019   8.802 -0.1023 -0.7132  1.5687
 6502TIP3   OH241140   2.122   0.693   3.498 -0.2266 -0.4955 -0.4069
 6502TIP3    H141141   2.046   0.711   3.443  0.9593  3.1148 -1.1327
 6502TIP3    H241142   2.198   0.710   3.442  1.0741 -0.7059  1.1968
 6503TIP3   OH241143   1.374   1.288   1.296 -0.0474 -0.1198 -0.0019
 6503TIP3    H141144   1.314   1.221   1.328  0.1306 -1.2452 -1.8988
 6503TIP3    H241145   1.434   1.241   1.239  0.6774  1.5085 -0.6304
 6504TIP3   OH241146   2.590   4.982   0.551 -0.3397  0.2120  0.5802
 6504TIP3    H141147   2.510   4.995   0.499 -0.0887 -0.6311 -0.0422
 6504TIP3    H241148   2.564   5.005   0.640 -0.7660  1.7527  0.0973
 6505TIP3   OH241149   1.703   2.766   2.526  0.0185 -0.7260  0.1490
 6505TIP3    H141150   1.614   2.763   2.560  0.6042 -0.7912  1.7673
 6505TIP3    H241151   1.701   2.837   2.460 -1.2921 -0.9882 -0.1245
 6506TIP3   OH241152   0.534   6.345   2.486  0.1108  0.5999 -0.1069
 6506TIP3    H141153   0.552   6.281   2.418 -0.7466  0.8742 -0.6078
 6506TIP3    H241154   0.439   6.344   2.496  0.2483  0.0980  1.5568
 6507TIP3   OH241155   3.903   1.235   4.140 -0.5610  0.5743  0.1576
 6507TIP3    H141156   3.811   1.209   4.140 -0.1679 -0.9147  0.4242
 6507TIP3    H241157   3.950   1.155   4.162  0.8544  1.1380 -0.7023
 6508TIP3   OH241158   2.278   3.963   2.179  0.6925 -0.7148  0.3500
 6508TIP3    H141159   2.286   3.915   2.262  0.9844 -1.0072  0.1559
 6508TIP3    H241160   2.360   3.945   2.133  1.3046  0.9253  0.7498
 6509TIP3   OH241161   3.556   2.328   2.033 -0.1771 -0.0725 -0.2344
 6509TIP3    H141162   3.486   2.263   2.046  0.5591 -0.5297  1.7705
 6509TIP3    H241163   3.628   2.297   2.087 -0.1340  2.9279  1.6613
 6510TIP3   OH241164   5.397   0.076   3.131 -0.5322  0.4166  0.7730
 6510TIP3    H141165   5.358   0.055   3.216  0.6811 -1.3836  0.9391
 6510TIP3    H241166   5.447  -0.003   3.107  1.1084  1.7577 -0.4867
 6511TIP3   OH241167   0.636   1.595   0.004  0.5062  0.2854 -0.0388
 6511TIP3    H141168   0.595   1.555  -0.073  0.7348  1.4373 -0.7747
 6511TIP3    H241169   0.729   1.575  -0.006  0.2216 -2.7638  1.8859
 6512TIP3   OH241170   0.051   0.373   8.772 -0.5737  0.2554  0.2449
 6512TIP3    H141171   0.113   0.327   8.828  0.8505  0.7912 -0.8332
 6512TIP3    H241172  -0.008   0.305   8.740 -0.8196 -0.1957  1.6084
 6513TIP3   OH241173   6.086   6.264   2.323  0.2555  0.0831  0.7309
 6513TIP3    H141174   6.152   6.331   2.341 -0.2607  0.2998  1.9269
 6513TIP3    H241175   6.101   6.196   2.388 -1.8188  1.0060  2.3233
 6514TIP3   OH241176   0.835   0.106   0.345  0.0672 -0.1068  0.1720
 6514TIP3    H141177   0.854   0.198   0.364  0.3763 -0.6099  2.7169
 6514TIP3    H241178   0.916   0.073   0.306 -0.8252  1.1582 -3.1282
 6515TIP3   OH241179   3.365   3.116   0.606 -0.4142 -0.3793  0.1698
 6515TIP3    H141180   3.338   3.149   0.521  0.3585 -0.8559 -0.2736
 6515TIP3    H241181   3.341   3.023   0.604  0.3481 -0.5792  0.1494
 6516TIP3   OH241182   0.406   0.376   0.775 -0.2990  0.3093  0.1665
 6516TIP3    H141183   0.410   0.457   0.825  0.4315 -0.3596  1.2381
 6516TIP3    H241184   0.341   0.393   0.706  0.1626  1.9290  0.0895
 6517TIP3   OH241185   4.051   4.358   1.407 -0.1928  0.6175 -0.3635
 6517TIP3    H141186   4.092   4.342   1.323  2.4039  0.1754  0.8979
 6517TIP3    H241187   4.105   4.425   1.448 -0.5469 -0.1712  1.5165
 6518TIP3   OH241188   0.970   3.757   2.015 -0.8328  0.3230 -0.1808
 6518TIP3    H141189   0.927   3.758   2.101  0.9299  1.8166  0.7535
 6518TIP3    H241190   0.933   3.833   1.969 -1.2098 -0.0287 -0.4697
 6519TIP3   OH241191   4.293   3.658   0.937 -0.0060  1.1385 -0.3062
 6519TIP3    H141192   4.329   3.608   0.864 -1.0194 -0.2321  0.0742
 6519TIP3    H241193   4.204   3.679   0.910 -0.1713  1.1966  0.2669
 6520TIP3   OH241194   5.120   1.630   1.586  0.6505  0.3747  0.1702
 6520TIP3    H141195   5.075   1.610   1.504 -0.0544 -0.0814  0.6520
 6520TIP3    H241196   5.210   1.648   1.561  0.3361  0.6884 -0.7530
 6521TIP3   OH241197   2.002   0.183   4.845  0.2392  0.0351  0.2377
 6521TIP3    H141198   2.043   0.265   4.869  1.3737 -0.8548  1.4463
 6521TIP3    H241199   1.923   0.179   4.899  0.4247  0.1102  0.5130
 6522TIP3   OH241200   4.120   5.551   2.071  0.0752 -0.1783 -0.4459
 6522TIP3    H141201   4.142   5.623   2.012  0.0565 -0.0632 -0.3130
 6522TIP3    H241202   4.032   5.572   2.103  1.0065  1.0402  1.5136
 6523TIP3   OH241203   4.785   4.696   1.847  0.1103 -0.4265 -0.1257
 6523TIP3    H141204   4.758   4.709   1.938  2.7917  0.1619  0.6758
 6523TIP3    H241205   4.747   4.770   1.800  2.9192  2.3695  1.5951
 6524TIP3   OH241206   4.828   1.540   1.723 -0.6621 -0.3836 -0.2349
 6524TIP3    H141207   4.849   1.449   1.745  0.8422  0.1680  0.7615
 6524TIP3    H241208   4.883   1.560   1.647 -2.5811 -0.9172 -1.8482
 6525TIP3   OH241209   6.220   4.215   1.265 -1.0726  0.1174  0.3776
 6525TIP3    H141210   6.279   4.241   1.194 -1.1719  0.7651  0.5227
 6525TIP3    H241211   6.140   4.264   1.248 -1.0491  0.3806  1.0066
 6526TIP3   OH241212   4.702   1.297   3.912 -0.2261 -0.1106  0.5649
 6526TIP3    H141213   4.672   1.304   4.003  0.7950 -1.2163  1.0235
 6526TIP3    H241214   4.723   1.386   3.887  2.8309 -0.0594  2.6574
 6527TIP3   OH241215   1.307   5.759   1.178 -0.0995  0.3278 -0.0640
 6527TIP3    H141216   1.234   5.749   1.118 -0.4402  2.0941  0.0312
 6527TIP3    H241217   1.282   5.830   1.236  2.1137  1.7229 -0.7037
 6528TIP3   OH241218   0.440   6.298   2.998 -0.0766  0.2347  0.2763
 6528TIP3    H141219   0.397   6.273   2.916 -2.0368  0.8004  1.0526
 6528TIP3    H241220   0.405   6.385   3.018 -0.3071 -0.2348  2.1134
 6529TIP3   OH241221   4.981   5.612   2.845 -0.7051  0.0263 -0.1865
 6529TIP3    H141222   4.985   5.661   2.763 -0.1754 -0.4169 -0.4395
 6529TIP3    H241223   4.930   5.534   2.824 -0.5322 -0.1092 -0.1154
 6530TIP3   OH241224   0.668   5.289   0.935  0.2195 -0.1974  0.1216
 6530TIP3    H141225   0.586   5.241   0.921  0.1172  0.4278 -1.7295
 6530TIP3    H241226   0.718   5.276   0.854  0.6244  1.9295 -0.0443
 6531TIP3   OH241227   1.638   3.791   2.074  0.1175 -0.0166  0.0793
 6531TIP3    H141228   1.716   3.800   2.129 -0.1567  1.4397  0.2746
 6531TIP3    H241229   1.583   3.865   2.099  0.4034  1.3246 -2.8277
 6532TIP3   OH241230   0.894   3.863   4.020  0.6657  0.0521 -0.1586
 6532TIP3    H141231   0.835   3.839   3.949 -1.3666  3.2705  0.2328
 6532TIP3    H241232   0.982   3.855   3.982 -0.2874  0.1401 -2.5199
 6533TIP3   OH241233   2.450   0.980   2.685 -0.5350 -0.4682 -0.1537
 6533TIP3    H141234   2.360   0.992   2.716 -1.3902  0.7049 -2.8477
 6533TIP3    H241235   2.494   1.062   2.706 -0.8938  0.0213 -1.2576
 6534TIP3   OH241236   6.229   2.827   1.178 -0.3776  0.7810  0.2624
 6534TIP3    H141237   6.273   2.750   1.213 -1.0586  0.0943 -0.3689
 6534TIP3    H241238   6.184   2.866   1.253 -2.9764 -1.4363  0.0213
 6535TIP3   OH241239   4.340   1.047   2.563 -0.0458  0.5019  0.2361
 6535TIP3    H141240   4.396   1.121   2.585  0.7117 -0.0854  0.2999
 6535TIP3    H241241   4.258   1.087   2.532 -0.4442  1.3499  2.2798
 6536TIP3   OH241242   4.441   4.444   0.247  0.8095 -0.2291  0.7676
 6536TIP3    H141243   4.389   4.363   0.250  1.2230 -0.4947  0.8153
 6536TIP3    H241244   4.397   4.502   0.309  0.2394 -0.2504  0.3978
 6537TIP3   OH241245   3.488   1.747   2.572 -0.8395  0.2285  0.2210
 6537TIP3    H141246   3.458   1.835   2.549 -0.1909  0.4290  0.1247
 6537TIP3    H241247   3.540   1.759   2.652 -1.2207 -0.1487  0.5304
 6538TIP3   OH241248   3.000   6.286   2.122 -0.2349  0.1036  0.0683
 6538TIP3    H141249   2.940   6.360   2.129  0.3945  0.5769  0.4701
 6538TIP3    H241250   3.068   6.316   2.061 -0.4794 -0.4879 -0.5107
 6539TIP3   OH241251   0.602   3.431   0.147  0.3121  0.0160 -0.7824
 6539TIP3    H141252   0.538   3.363   0.126  0.6575 -0.7945  0.6442
 6539TIP3    H241253   0.609   3.429   0.242  0.6677  1.7669 -0.7387
 6540TIP3   OH241254   4.431   6.686   0.183 -0.2111 -0.3716  0.6377
 6540TIP3    H141255   4.355   6.741   0.165  1.4673  1.8262 -0.4195
 6540TIP3    H241256   4.461   6.658   0.096  0.2385 -1.1322  1.0301
 6541TIP3   OH241257   4.711   2.877   0.572 -0.2068  0.0720  0.2380
 6541TIP3    H141258   4.698   2.917   0.486  0.2347 -1.2400 -0.4713
 6541TIP3    H241259   4.799   2.904   0.598 -1.4170  2.9980  1.7391
 6542TIP3   OH241260   3.197   3.281   1.927 -0.2003  0.0050  0.2798
 6542TIP3    H141261   3.165   3.291   1.837  3.2910 -0.0463 -1.1274
 6542TIP3    H241262   3.195   3.187   1.943  0.4779 -0.1222 -0.3267
 6543TIP3   OH241263   2.742   3.512   2.361 -0.7429  0.5125  0.4889
 6543TIP3    H141264   2.789   3.551   2.287 -2.4084  0.9587 -0.3825
 6543TIP3    H241265   2.721   3.423   2.332  1.0249 -0.3060  1.5646
 6544TIP3   OH241266   0.741   1.219   2.192 -0.4641  0.2495  0.2343
 6544TIP3    H141267   0.762   1.290   2.252 -0.2980  0.8052 -0.4663
 6544TIP3    H241268   0.766   1.252   2.105 -2.1352  0.0939 -0.3589
 6545TIP3   OH241269   5.894   5.828   1.384 -0.0317 -0.1665  0.3361
 6545TIP3    H141270   5.920   5.867   1.467  2.3487 -2.1944  0.6571
 6545TIP3    H241271   5.933   5.884   1.318 -3.7407  2.7520  0.2894
 6546TIP3   OH241272   2.844   2.921   0.056  0.6683  0.4054 -0.4424
 6546TIP3    H141273   2.926   2.873   0.064  0.3503 -0.2144 -0.8696
 6546TIP3    H241274   2.777   2.854   0.042 -0.3237  0.6688  2.3969
 6547TIP3   OH241275   5.672   4.994   2.853  0.2262  0.1034 -0.0729
 6547TIP3    H141276   5.741   5.057   2.872  0.0984 -0.2259  1.6374
 6547TIP3    H241277   5.590   5.043   2.863  0.1566  0.2527 -1.1708
 6548TIP3   OH241278   1.742   6.156   0.396  0.5357 -0.7166  0.1309
 6548TIP3    H141279   1.704   6.114   0.319  1.0244  0.0037 -0.5147
 6548TIP3    H241280   1.830   6.119   0.403  0.6568 -0.4358  0.0780
 6549TIP3   OH241281   3.351   1.232   3.338 -0.2025  0.1732  0.1835
 6549TIP3    H141282   3.348   1.216   3.243 -0.6995  0.6080  0.1248
 6549TIP3    H241283   3.301   1.159   3.375  0.5568 -0.3728  0.1672
 6550TIP3   OH241284   3.003   4.914   1.717  0.4617 -0.0092 -0.5574
 6550TIP3    H141285   3.063   4.960   1.775  0.2159 -0.0580 -0.2642
 6550TIP3    H241286   3.001   4.824   1.750 -0.0840  0.0885 -0.3209
 6551TIP3   OH241287   0.394   4.174   2.821 -0.1711 -0.0083  0.2005
 6551TIP3    H141288   0.350   4.252   2.856 -0.2731 -0.7273  1.7335
 6551TIP3    H241289   0.337   4.102   2.847  0.1438 -0.6480 -0.8427
 6552TIP3   OH241290   6.220   5.699   3.128  0.0305  0.0565  0.1932
 6552TIP3    H141291   6.251   5.610   3.111  0.2862  0.0457  0.7004
 6552TIP3    H241292   6.255   5.720   3.215  2.8083  1.9033 -1.2384
 6553TIP3   OH241293   0.916   3.397   0.521 -0.0112  0.5369  0.1545
 6553TIP3    H141294   0.944   3.445   0.599 -1.3144 -0.9297  1.6158
 6553TIP3    H241295   0.977   3.324   0.514  0.3552  0.9030 -0.4466
 6554TIP3   OH241296   4.894   2.431   0.911  0.0045 -0.3575  0.1439
 6554TIP3    H141297   4.860   2.342   0.907  1.1806 -0.8305  0.2631
 6554TIP3    H241298   4.964   2.427   0.976  0.4997  0.5021 -0.3119
 6555TIP3   OH241299   5.508   5.393   1.501 -0.7567 -0.6422 -0.5210
 6555TIP3    H141300   5.588   5.432   1.537 -2.3024  0.1140  2.4005
 6555TIP3    H241301   5.487   5.448   1.426 -0.3389  1.3124  0.7199
 6556TIP3   OH241302   5.828   6.215   3.318 -0.1174  0.0877  0.4233
 6556TIP3    H141303   5.851   6.130   3.280  0.8930  0.8386 -0.7198
 6556TIP3    H241304   5.736   6.227   3.295  0.5371  0.6642 -2.1958
 6557TIP3   OH241305   3.015   5.732   3.268  0.2618  0.0495  0.0609
 6557TIP3    H141306   2.998   5.706   3.359 -0.0196  1.3213  0.3979
 6557TIP3    H241307   3.081   5.670   3.237  0.4150 -0.3600  1.1609
 6558TIP3   OH241308   4.541   5.280   1.997 -0.0551 -0.3444 -0.0183
 6558TIP3    H141309   4.557   5.352   2.059 -1.5259  0.3708 -0.4322
 6558TIP3    H241310   4.512   5.323   1.917 -0.1304 -1.3724 -0.5552
 6559TIP3   OH241311   4.161   4.095   1.492  0.1452  0.2879 -1.2387
 6559TIP3    H141312   4.169   4.075   1.399 -0.5043 -0.9208 -1.0529
 6559TIP3    H241313   4.091   4.161   1.497 -0.4964 -0.3629 -1.5309
 6560TIP3   OH241314   6.657   2.102   1.326  0.1848  0.0349 -0.1499
 6560TIP3    H141315   6.606   2.030   1.288  0.0954  0.9760 -1.9308
 6560TIP3    H241316   6.744   2.092   1.286  1.1284 -0.8766  1.9739
 6561TIP3   OH241317   2.344   5.935   2.143  0.3084 -0.5364 -0.3625
 6561TIP3    H141318   2.369   5.854   2.098 -2.5470 -1.7945  0.0308
 6561TIP3    H241319   2.372   6.005   2.085  1.4993 -1.8852 -1.4766
 6562TIP3   OH241320   4.461   0.777   0.481  0.7104  0.1866 -0.0117
 6562TIP3    H141321   4.406   0.851   0.453  0.3851 -0.3712 -0.8928
 6562TIP3    H241322   4.529   0.817   0.535  0.1379  1.0457  0.0926
 6563TIP3   OH241323   0.214   2.852   2.051  0.5040  0.3876 -0.4228
 6563TIP3    H141324   0.302   2.814   2.054 -0.1229 -1.1299 -0.3476
 6563TIP3    H241325   0.198   2.870   1.958  0.1372 -1.2939 -0.7302
 6564TIP3   OH241326   4.913   6.653   3.230 -0.5304  0.3347  0.0659
 6564TIP3    H141327   4.823   6.670   3.201 -1.1624  0.0511  1.7403
 6564TIP3    H241328   4.933   6.724   3.291  0.8176  1.0152 -1.1101
 6565TIP3   OH241329   0.135   1.776   2.594  0.0390 -0.0733  0.1281
 6565TIP3    H141330   0.086   1.696   2.577 -0.4789 -0.1109  1.6473
 6565TIP3    H241331   0.225   1.756   2.570 -0.4368 -0.4275 -1.4599
 6566TIP3   OH241332   2.515   4.573   1.129 -0.0502  0.2489  0.0070
 6566TIP3    H141333   2.545   4.660   1.103  0.2892 -0.2859 -1.4654
 6566TIP3    H241334   2.486   4.532   1.048  2.4061 -2.0306  0.1517
 6567TIP3   OH241335   2.606   2.742   0.056 -0.3381 -0.0361  0.1661
 6567TIP3    H141336   2.601   2.650   0.079  0.3330 -0.0134  0.4051
 6567TIP3    H241337   2.578   2.746  -0.036 -0.6297 -0.4352  0.2370
 6568TIP3   OH241338   3.007   3.323   2.254  0.5317 -0.2360 -0.2004
 6568TIP3    H141339   2.950   3.392   2.219  1.5347  0.0128 -1.4200
 6568TIP3    H241340   2.955   3.282   2.323 -0.1999  1.5435  0.3626
 6569TIP3   OH241341   0.549   6.604   8.067 -0.4470  0.3538 -0.7454
 6569TIP3    H141342   0.586   6.613   7.979 -1.2409 -0.1907 -1.1442
 6569TIP3    H241343   0.584   6.678   8.115  0.4524  0.3464 -1.3611
 6570TIP3   OH241344   5.052   1.136   2.899  0.0719  0.3709  0.6676
 6570TIP3    H141345   5.044   1.201   2.828 -0.1188 -2.3683 -2.0329
 6570TIP3    H241346   5.007   1.059   2.865  2.6947 -2.1254  2.4716
 6571TIP3   OH241347   4.741   2.597   1.344 -0.3741 -0.1808 -0.2774
 6571TIP3    H141348   4.731   2.600   1.248 -0.9150  1.6238 -0.2055
 6571TIP3    H241349   4.831   2.627   1.359 -0.5076  0.1966 -0.2096
 6572TIP3   OH241350   4.934   4.770   3.351 -0.0115  0.0098  0.2680
 6572TIP3    H141351   4.941   4.685   3.395 -2.1142  0.8363  2.3997
 6572TIP3    H241352   4.924   4.747   3.258  0.5269 -2.0106  0.6473
 6573TIP3   OH241353   3.904   1.225   3.241  0.7205 -0.0300  0.8240
 6573TIP3    H141354   3.822   1.217   3.290  0.0826  0.3537 -0.1375
 6573TIP3    H241355   3.972   1.197   3.302 -0.2028 -1.1037  1.3861
 6574TIP3   OH241356   3.764   2.154   0.840 -0.4772  0.1430 -0.3338
 6574TIP3    H141357   3.749   2.142   0.746 -0.0509  0.6935 -0.4767
 6574TIP3    H241358   3.802   2.242   0.847 -1.2299  0.4164  0.4344
 6575TIP3   OH241359   1.901   4.476   3.656  0.5094  0.3802 -0.1939
 6575TIP3    H141360   1.856   4.393   3.648  1.8351 -0.6745  2.1834
 6575TIP3    H241361   1.833   4.542   3.644 -1.2642 -1.1055  1.1940
 6576TIP3   OH241362   2.064   2.139   4.068  0.0795 -0.3202  0.2347
 6576TIP3    H141363   2.038   2.136   4.160  1.1009  1.4894  0.6247
 6576TIP3    H241364   2.136   2.201   4.066  1.6911 -2.1314 -1.4302
 6577TIP3   OH241365   2.649   2.487   0.086  0.5106  0.5681  0.1924
 6577TIP3    H141366   2.608   2.401   0.072 -0.6532  1.1496 -0.0373
 6577TIP3    H241367   2.714   2.471   0.154  1.5944 -0.8856 -1.1150
 6578TIP3   OH241368   3.036   2.848   8.230  0.6491  0.5624  0.1749
 6578TIP3    H141369   3.032   2.944   8.230  1.1815  0.5902 -0.3879
 6578TIP3    H241370   2.963   2.822   8.174  2.1377  0.7488 -1.9595
 6579TIP3   OH241371   1.542   6.758   3.221  0.3429  0.3795  0.3700
 6579TIP3    H141372   1.562   6.757   3.127  0.3977  1.1540  0.3671
 6579TIP3    H241373   1.628   6.757   3.263  0.3990  2.2607  0.3736
 6580TIP3   OH241374   5.615   2.901   8.340 -0.4600 -0.6819 -0.2979
 6580TIP3    H141375   5.632   2.934   8.251  1.7408 -2.3913 -0.5881
 6580TIP3    H241376   5.682   2.835   8.354 -0.2500  0.0760  2.9734
 6581TIP3   OH241377   0.454   0.309   0.136 -0.2145 -0.4306 -0.1261
 6581TIP3    H141378   0.378   0.284   0.084 -0.6240  0.8805 -0.1949
 6581TIP3    H241379   0.499   0.227   0.155 -1.9044 -1.2956  0.3039
 6582TIP3   OH241380   4.311   6.658   1.230  0.4538  0.4602 -0.0162
 6582TIP3    H141381   4.225   6.631   1.196  0.6110  1.9185 -1.7159
 6582TIP3    H241382   4.302   6.652   1.325 -1.2748 -0.1737 -0.1874
 6583TIP3   OH241383   3.563   2.249   3.362  0.0738 -0.4414 -0.1298
 6583TIP3    H141384   3.531   2.159   3.356 -0.3667 -0.2725 -0.3373
 6583TIP3    H241385   3.657   2.242   3.343 -0.0482 -0.7987 -0.6325
 6584TIP3   OH241386   4.095   6.708   1.612 -0.0929 -0.5030 -0.3086
 6584TIP3    H141387   4.065   6.749   1.693 -2.6962 -1.4385 -0.6871
 6584TIP3    H241388   4.136   6.626   1.640 -1.7112 -1.2259  0.1178
 6585TIP3   OH241389   6.192   1.932   0.341 -0.1336 -0.2493 -0.4974
 6585TIP3    H141390   6.278   1.972   0.331  0.1740 -1.0231 -1.0649
 6585TIP3    H241391   6.130   1.998   0.311  0.1982  0.6126  0.6645
 6586TIP3   OH241392   3.260   5.286   3.040 -0.1126 -0.2247  0.0273
 6586TIP3    H141393   3.247   5.279   3.135 -0.1297 -0.5123  0.0051
 6586TIP3    H241394   3.355   5.281   3.028 -0.1553 -1.0251 -0.0322
 6587TIP3   OH241395   3.558   3.383   2.684 -0.4678  0.3161  0.2429
 6587TIP3    H141396   3.490   3.412   2.745  0.4338 -0.4250  1.6488
 6587TIP3    H241397   3.551   3.444   2.611 -2.4807  0.3972  0.4397
 6588TIP3   OH241398   6.072   2.327   2.550  0.3834  0.3643 -0.0671
 6588TIP3    H141399   6.150   2.300   2.502 -0.2895 -0.4859 -0.7227
 6588TIP3    H241400   6.041   2.247   2.593  0.9963  1.1096  1.8773
 6589TIP3   OH241401   2.414   0.843   3.780  0.2900  0.2811 -0.0837
 6589TIP3    H141402   2.368   0.926   3.782 -0.3129 -0.0471 -0.0626
 6589TIP3    H241403   2.506   0.866   3.777  0.1720  0.9518  0.9965
 6590TIP3   OH241404   5.879   6.594   2.300  0.4980 -0.1658  0.1680
 6590TIP3    H141405   5.952   6.616   2.242  0.4032  0.7936  0.3940
 6590TIP3    H241406   5.884   6.660   2.370  0.9302 -1.5878  1.5385
 6591TIP3   OH241407   4.532   2.435   0.729  0.3573  0.1011 -0.6615
 6591TIP3    H141408   4.584   2.495   0.675  0.1807 -1.6171 -2.8630
 6591TIP3    H241409   4.558   2.348   0.700 -0.8469 -0.8796  1.0504
 6592TIP3   OH241410   6.759   1.038   8.432 -0.1526 -0.0023  0.4449
 6592TIP3    H141411   6.782   1.131   8.423 -2.7244  0.6832  0.1300
 6592TIP3    H241412   6.784   1.000   8.348 -2.5138  1.3085 -0.9655
 6593TIP3   OH241413   0.926   4.295   2.251  0.3198  0.2147 -0.0965
 6593TIP3    H141414   0.923   4.215   2.198  0.7080 -0.3941  0.7877
 6593TIP3    H241415   1.016   4.327   2.241  1.4347 -1.6983  2.7489
 6594TIP3   OH241416   5.347   3.055   0.388 -0.6253 -0.0703 -0.3000
 6594TIP3    H141417   5.267   3.003   0.402  0.7174 -2.1414  0.1067
 6594TIP3    H241418   5.380   3.025   0.303 -0.6934  1.3957 -0.8657
 6595TIP3   OH241419   5.523   0.612   3.316  0.3515 -0.0407  0.4058
 6595TIP3    H141420   5.595   0.571   3.268 -1.1004 -2.9874  0.5725
 6595TIP3    H241421   5.460   0.637   3.249  0.5207  0.4742  0.4329
 6596TIP3   OH241422   6.086   0.275   1.216  0.1345 -0.2429 -0.2665
 6596TIP3    H141423   6.095   0.368   1.235  1.3508 -0.4776  0.3791
 6596TIP3    H241424   6.147   0.260   1.143 -0.4155 -0.4394 -0.6891
 6597TIP3   OH241425   2.910   4.519   0.164 -0.4749 -0.0045 -0.7029
 6597TIP3    H141426   2.936   4.430   0.186  0.4574  0.0091 -1.7014
 6597TIP3    H241427   2.992   4.565   0.146 -0.9648  0.9636 -0.5499
 6598TIP3   OH241428   2.611   5.569   3.420 -0.4360  0.1158 -0.3020
 6598TIP3    H141429   2.587   5.507   3.488  0.7448 -0.4186 -0.3461
 6598TIP3    H241430   2.655   5.516   3.353 -0.3504  0.8375 -0.8406
 6599TIP3   OH241431   4.834   5.035   2.325 -0.0717  0.4175 -0.0546
 6599TIP3    H141432   4.919   5.068   2.295  0.0324 -0.9173 -1.3777
 6599TIP3    H241433   4.850   4.942   2.342 -1.3808  0.0241 -0.8505
 6600TIP3   OH241434   5.943   2.359   1.648 -0.2271 -0.1785  0.0038
 6600TIP3    H141435   5.885   2.299   1.602 -0.8993  0.6894 -0.3161
 6600TIP3    H241436   6.028   2.348   1.605 -0.6924  0.1532 -1.0329
 6601TIP3   OH241437   1.450   4.015   8.391  0.0527 -0.1732  0.9163
 6601TIP3    H141438   1.481   4.096   8.431 -1.5444  1.2079 -0.4747
 6601TIP3    H241439   1.481   3.946   8.449  0.8296  1.4768  2.5621
 6602TIP3   OH241440   5.669   5.605   3.782 -0.3557 -0.4473 -0.0265
 6602TIP3    H141441   5.692   5.515   3.803  1.3142 -0.1774 -0.5280
 6602TIP3    H241442   5.722   5.658   3.842 -0.0700  0.2169 -0.8369
 6603TIP3   OH241443   5.274   4.329   0.693 -0.1845 -0.2457 -0.6089
 6603TIP3    H141444   5.355   4.318   0.744 -0.1230 -1.7981 -0.9736
 6603TIP3    H241445   5.204   4.312   0.757 -0.2413  1.0662 -0.3008
 6604TIP3   OH241446   6.415   2.857   0.476  0.2775  0.3234  0.2731
 6604TIP3    H141447   6.340   2.870   0.418  1.4301  0.0015 -1.3457
 6604TIP3    H241448   6.434   2.764   0.472  0.4069  0.2958  1.1684
 6605TIP3   OH241449   1.955   0.054   2.518 -0.0722 -0.0219  0.5776
 6605TIP3    H141450   2.015   0.117   2.558  1.2071 -0.7899 -0.0645
 6605TIP3    H241451   1.992  -0.031   2.541 -0.3331 -0.4915 -0.7107
 6606TIP3   OH241452   0.867   3.237   8.664 -0.0541 -0.3766 -0.1909
 6606TIP3    H141453   0.880   3.264   8.573  1.3489 -1.7280 -0.4345
 6606TIP3    H241454   0.901   3.148   8.668  1.1311  0.1038  1.9637
 6607TIP3   OH241455   5.312   1.629   8.385 -0.1652  0.4261 -0.3136
 6607TIP3    H141456   5.269   1.703   8.343  0.5386  0.1233 -1.6172
 6607TIP3    H241457   5.404   1.637   8.359  0.2872  0.1581  1.0967
 6608TIP3   OH241458   4.322   0.461   2.625  0.0951  0.1677  0.1251
 6608TIP3    H141459   4.345   0.518   2.552  0.5599 -0.0874  0.0696
 6608TIP3    H241460   4.373   0.382   2.611 -0.7191 -0.3598  0.0721
 6609TIP3   OH241461   1.674   6.067   1.987 -0.0002 -0.0236  0.1576
 6609TIP3    H141462   1.720   6.141   1.949 -0.3838  0.3907  0.4888
 6609TIP3    H241463   1.583   6.097   1.997 -0.8238 -1.4373 -2.2304
 6610TIP3   OH241464   3.470   1.058   1.302  0.1013 -0.5804 -0.6935
 6610TIP3    H141465   3.478   1.123   1.232  0.4021 -0.1949 -0.3081
 6610TIP3    H241466   3.462   1.110   1.382  0.8226 -1.0149 -0.3308
 6611TIP3   OH241467   1.973   0.503   4.449  0.1581 -0.5991 -0.4060
 6611TIP3    H141468   2.047   0.470   4.500 -0.8793 -3.7969 -0.7804
 6611TIP3    H241469   1.964   0.594   4.478  3.0355 -0.6283  1.0015
 6612TIP3   OH241470   4.338   3.330   0.015 -0.6264  0.3366 -0.0350
 6612TIP3    H141471   4.253   3.372   0.028  0.2309  2.5451 -1.0011
 6612TIP3    H241472   4.353   3.335  -0.080 -0.0805 -1.4814 -0.0964
 6613TIP3   OH241473   5.079   4.780   0.959  0.0380 -0.0241 -0.2038
 6613TIP3    H141474   5.010   4.717   0.975  0.3435 -0.4552 -0.5691
 6613TIP3    H241475   5.074   4.840   1.034 -0.0692 -0.6395  0.2917
 6614TIP3   OH241476   4.194   3.024   3.211  0.4494  0.0566  0.3907
 6614TIP3    H141477   4.251   3.049   3.138  1.7314  1.5662  1.8186
 6614TIP3    H241478   4.106   3.052   3.184  0.3334 -2.0777 -1.7491
 6615TIP3   OH241479   2.621   0.387   3.444  0.7324 -0.2586 -0.2626
 6615TIP3    H141480   2.697   0.425   3.401  0.4546  0.5556 -0.0464
 6615TIP3    H241481   2.615   0.434   3.527 -0.8607  0.7466 -0.9004
 6616TIP3   OH241482   6.290   6.136   0.030  0.4337 -0.1247  0.1358
 6616TIP3    H141483   6.288   6.202   0.100  3.5682  0.2820 -0.0327
 6616TIP3    H241484   6.221   6.165  -0.031 -0.5665  1.0122  1.7126
 6617TIP3   OH241485   3.801   6.207   8.843  0.2885  0.2934  0.4319
 6617TIP3    H141486   3.740   6.262   8.794 -0.2949 -0.0424  0.7713
 6617TIP3    H241487   3.759   6.195   8.928  0.7947 -0.0080  0.6416
 6618TIP3   OH241488   6.053   0.017   8.812  0.0447  0.4826 -0.1862
 6618TIP3    H141489   6.049  -0.054   8.876 -0.5852 -0.8120 -1.6017
 6618TIP3    H241490   5.964   0.021   8.775  0.9171 -0.3273 -2.5348
 6619TIP3   OH241491   3.214   0.944   0.072 -0.3448  0.0604 -0.4560
 6619TIP3    H141492   3.268   1.008   0.025  2.6038 -2.8074 -1.3942
 6619TIP3    H241493   3.159   0.904   0.004  0.0727 -0.4723 -0.4875
 6620TIP3   OH241494   4.330   2.513   1.209 -0.3213 -0.5285  0.2509
 6620TIP3    H141495   4.354   2.461   1.132  0.1538 -1.6996  1.1737
 6620TIP3    H241496   4.337   2.604   1.178 -2.8986 -0.9333 -1.9210
 6621TIP3   OH241497   5.605   5.416   3.073  0.1109 -0.0454 -0.0827
 6621TIP3    H141498   5.543   5.394   3.143 -0.5826 -0.7946 -0.9107
 6621TIP3    H241499   5.596   5.346   3.009  2.7643 -0.8731  0.3304
 6622TIP3   OH241500   6.476   1.855   0.060  0.5647  0.2272 -0.1248
 6622TIP3    H141501   6.544   1.904   0.105 -0.0087  0.8441  0.0835
 6622TIP3    H241502   6.489   1.876  -0.033 -0.4228  1.7877  0.0450
 6623TIP3   OH241503   5.613   4.163   1.510 -0.1664  0.4603  0.2493
 6623TIP3    H141504   5.634   4.194   1.598  2.2610  0.2939 -0.1893
 6623TIP3    H241505   5.687   4.192   1.456 -0.0795 -2.0188 -1.1257
 6624TIP3   OH241506   0.843   6.361   1.892 -0.0437  0.2469 -0.5322
 6624TIP3    H141507   0.838   6.418   1.816 -0.8069  1.7994  0.6373
 6624TIP3    H241508   0.885   6.415   1.959  0.2396 -0.9496  0.2765
 6625TIP3   OH241509   3.517   0.812   2.150 -0.0964  0.5002 -0.5085
 6625TIP3    H141510   3.468   0.747   2.099 -2.2992  1.6835 -0.0356
 6625TIP3    H241511   3.592   0.763   2.186 -0.5987 -1.2672 -1.7369
 6626TIP3   OH241512   6.704   2.543   0.804  1.0703  0.4733  0.5813
 6626TIP3    H141513   6.702   2.591   0.887  0.7632  3.4851 -1.0309
 6626TIP3    H241514   6.791   2.560   0.768  0.7397  0.3688 -0.3000
 6627TIP3   OH241515   4.619   5.048   3.210  0.9472 -0.0122  0.0900
 6627TIP3    H141516   4.586   5.052   3.121 -0.6835 -3.4363  0.3491
 6627TIP3    H241517   4.550   5.086   3.263  0.7079 -0.4298  0.0805
 6628TIP3   OH241518   5.508   4.087   3.616 -0.5451  0.1660  0.3568
 6628TIP3    H141519   5.572   4.048   3.556  0.0537  1.7161 -0.0470
 6628TIP3    H241520   5.508   4.029   3.692  0.2635 -0.6458 -0.2421
 6629TIP3   OH241521   5.096   4.003   8.474  0.1521 -0.9175  1.1130
 6629TIP3    H141522   5.188   4.031   8.469 -0.0070 -0.5250 -2.1223
 6629TIP3    H241523   5.046   4.084   8.481 -0.0451 -0.6230 -2.1452
 6630TIP3   OH241524   2.904   4.800   0.519 -0.1062 -0.0245 -0.1745
 6630TIP3    H141525   2.959   4.828   0.446 -1.5335 -0.1604 -1.3341
 6630TIP3    H241526   2.879   4.710   0.498 -0.5541 -0.0659  0.4791
 6631TIP3   OH241527   1.195   0.323   4.067 -0.2680  0.0213 -0.0130
 6631TIP3    H141528   1.163   0.405   4.028 -2.1444 -0.7819 -0.2802
 6631TIP3    H241529   1.164   0.255   4.007  0.6942 -0.9395  0.5492
 6632TIP3   OH241530   2.643   4.263   1.014 -0.1721  0.4617 -0.0542
 6632TIP3    H141531   2.611   4.297   0.930  1.1327  0.4768 -0.5720
 6632TIP3    H241532   2.672   4.174   0.993  1.0654  0.8054  0.1475
 6633TIP3   OH241533   2.721   5.694   3.137  0.3861 -0.1552 -0.0772
 6633TIP3    H141534   2.784   5.683   3.066 -0.4071 -2.0263 -0.5422
 6633TIP3    H241535   2.694   5.605   3.159 -2.4138  0.5657 -0.1969
 6634TIP3   OH241536   5.211   6.412   0.758 -0.2085 -0.5143  0.0248
 6634TIP3    H141537   5.175   6.493   0.723 -0.3195 -0.1515  0.9489
 6634TIP3    H241538   5.296   6.402   0.715 -0.0624  0.2478  0.1198
 6635TIP3   OH241539   4.849   0.242   8.797  0.1737 -0.1096 -0.3032
 6635TIP3    H141540   4.807   0.226   8.713 -0.6525  0.1874  0.0405
 6635TIP3    H241541   4.788   0.206   8.861  1.3835 -1.5146  0.1261
 6636TIP3   OH241542   6.799   3.845   1.919  0.0659  0.2626 -0.2742
 6636TIP3    H141543   6.861   3.861   1.848 -0.3959  3.1889 -0.1504
 6636TIP3    H241544   6.855   3.827   1.995  0.6514  0.1548 -0.7212
 6637TIP3   OH241545   5.086   4.993   1.149  0.4211  0.3425 -0.3981
 6637TIP3    H141546   5.123   4.964   1.233  0.3113  0.5285 -0.2839
 6637TIP3    H241547   4.992   5.002   1.166  0.1019 -1.3584 -1.0245
 6638TIP3   OH241548   3.845   2.063   2.034 -0.0395  0.7179 -0.6587
 6638TIP3    H141549   3.790   2.112   2.096  2.0927  1.3775  0.8398
 6638TIP3    H241550   3.786   2.000   1.993 -1.9824  1.7192  0.4921
 6639TIP3   OH241551   2.554   3.728   3.594  0.4562 -0.1977 -0.4288
 6639TIP3    H141552   2.514   3.682   3.668  0.4714  2.2015  1.2105
 6639TIP3    H241553   2.647   3.734   3.617  0.6175 -0.2008 -1.0717
 6640TIP3   OH241554   0.197   1.642   3.925  0.0764 -0.5336 -0.4563
 6640TIP3    H141555   0.251   1.700   3.872 -1.6501  0.2816 -1.4071
 6640TIP3    H241556   0.180   1.691   4.005 -0.6217 -0.0808 -0.8719
 6641TIP3   OH241557   1.883   0.996   0.160 -0.1923  0.9983 -0.1651
 6641TIP3    H141558   1.812   0.952   0.207  0.7195  1.4546  1.7481
 6641TIP3    H241559   1.918   0.929   0.101 -0.6463  0.0209  0.6423
 6642TIP3   OH241560   1.246   5.188   1.058 -0.9350  0.1771  0.0257
 6642TIP3    H141561   1.237   5.280   1.034  0.1904  0.2266 -0.2848
 6642TIP3    H241562   1.249   5.188   1.154 -0.0614  0.5717  0.0091
 6643TIP3   OH241563   4.758   5.633   4.039 -0.1274  0.1865  0.1222
 6643TIP3    H141564   4.779   5.710   3.985 -0.0832 -0.7266 -1.2211
 6643TIP3    H241565   4.829   5.571   4.021 -0.3964 -0.3479  0.8434
 6644TIP3   OH241566   2.737   6.480   1.202 -0.0427 -0.2680  0.0632
 6644TIP3    H141567   2.784   6.525   1.132 -1.9431  0.6529 -0.6679
 6644TIP3    H241568   2.794   6.406   1.224  1.8978  0.9727 -0.5264
 6645TIP3   OH241569   1.974   4.644   3.045  0.1618  0.4206 -0.3378
 6645TIP3    H141570   2.051   4.594   3.016 -0.3185 -0.0745 -0.7612
 6645TIP3    H241571   1.905   4.579   3.054  0.0497  0.6928  1.0592
 6646TIP3   OH241572   4.890   2.118   1.506  0.7164 -0.7132  0.2037
 6646TIP3    H141573   4.882   2.032   1.549 -0.5886 -0.5757  0.2667
 6646TIP3    H241574   4.982   2.142   1.520  0.6019 -1.1393  2.0464
 6647TIP3   OH241575   5.444   3.307   1.414  0.2411  0.4055 -0.6172
 6647TIP3    H141576   5.471   3.390   1.375 -0.1576  1.7633  1.8498
 6647TIP3    H241577   5.351   3.298   1.391  0.7331 -0.3977 -2.5156
 6648TIP3   OH241578   5.178   1.820   8.246  0.0536  0.0682  0.6577
 6648TIP3    H141579   5.157   1.887   8.312 -0.0999  0.6376  0.0388
 6648TIP3    H241580   5.094   1.781   8.224 -0.6256  2.8186 -2.3285
 6649TIP3   OH241581   5.494   0.644   1.389  0.0442  0.1046  0.4548
 6649TIP3    H141582   5.565   0.662   1.328  0.4937 -2.4975  0.0746
 6649TIP3    H241583   5.455   0.562   1.357 -1.3626  0.0158  2.2150
 6650TIP3   OH241584   5.061   0.246   2.413  0.0837 -0.0923 -0.5600
 6650TIP3    H141585   5.072   0.197   2.494 -1.9928 -1.1295 -0.8476
 6650TIP3    H241586   5.147   0.287   2.398  1.2900 -1.9686  0.7680
 6651TIP3   OH241587   0.977   5.050   2.109 -0.0485 -0.2695 -0.1623
 6651TIP3    H141588   1.054   4.994   2.096  1.1788  1.4391 -0.5639
 6651TIP3    H241589   0.936   5.053   2.023 -0.2317 -0.6878 -0.0943
 6652TIP3   OH241590   4.366   2.613   0.611 -0.1513 -0.2858  0.0905
 6652TIP3    H141591   4.282   2.619   0.656 -0.1566  0.5372 -0.0191
 6652TIP3    H241592   4.418   2.554   0.665  0.1641  1.3865  1.7219
 6653TIP3   OH241593   6.421   4.497   2.371  0.5052  0.0644 -0.1301
 6653TIP3    H141594   6.361   4.471   2.301 -0.2398 -0.0912  0.5551
 6653TIP3    H241595   6.386   4.455   2.450  1.9316 -0.6208  0.1610
 6654TIP3   OH241596   5.427   6.760   8.490 -0.2553  0.4438 -0.0698
 6654TIP3    H141597   5.396   6.672   8.515 -1.6751  0.1902 -2.3929
 6654TIP3    H241598   5.348   6.804   8.458  0.8124  1.8402 -0.8665
 6655TIP3   OH241599   1.851   0.827   1.281 -0.1607 -0.1998 -0.3844
 6655TIP3    H141600   1.911   0.764   1.322  0.9353  1.1871  0.2548
 6655TIP3    H241601   1.765   0.804   1.315  0.5120 -0.0375  1.5765
 6656TIP3   OH241602   0.395   1.840   0.847 -0.5630 -0.3455 -0.1805
 6656TIP3    H141603   0.356   1.821   0.762  0.5789 -0.2307 -0.7484
 6656TIP3    H241604   0.481   1.797   0.845  0.3065  1.2793  0.1259
 6657TIP3   OH241605   4.975   2.191   3.348 -0.0368  0.0946  0.0828
 6657TIP3    H141606   4.963   2.096   3.347  1.5415 -0.1984  2.2910
 6657TIP3    H241607   4.897   2.224   3.393  1.2497 -0.6160  3.0650
 6658TIP3   OH241608   1.333   6.322   3.266  0.0740 -0.4339  0.2805
 6658TIP3    H141609   1.338   6.334   3.172 -0.4029  3.0830  0.5722
 6658TIP3    H241610   1.397   6.383   3.302 -1.6948  0.3850  2.2789
 6659TIP3   OH241611   2.060   0.926   0.941  0.3446 -0.2474 -0.5109
 6659TIP3    H141612   2.015   0.841   0.940  1.9671 -1.1603 -2.1002
 6659TIP3    H241613   2.035   0.967   0.859  1.2151 -0.1130 -0.7151
 6660TIP3   OH241614   5.714   2.138   3.602  0.3364  0.0241 -0.3480
 6660TIP3    H141615   5.749   2.115   3.688 -1.0958 -1.1406 -0.0282
 6660TIP3    H241616   5.756   2.077   3.542 -0.0389 -0.4118 -0.1783
 6661TIP3   OH241617   5.773   1.794   2.247  0.9326  0.3912  0.1558
 6661TIP3    H141618   5.700   1.770   2.190  0.6534  0.5763  0.4281
 6661TIP3    H241619   5.733   1.802   2.334  1.3104  0.3244  0.3380
 6662TIP3   OH241620   6.782   3.561   2.482 -0.2442 -0.4511 -0.3651
 6662TIP3    H141621   6.865   3.595   2.515 -1.0481  1.5947 -0.2621
 6662TIP3    H241622   6.736   3.530   2.560  0.0048 -0.6090 -0.2805
 6663TIP3   OH241623   3.066   2.746   2.565  0.3300  0.0862 -0.5623
 6663TIP3    H141624   3.155   2.713   2.568  0.0974 -0.5019  1.0760
 6663TIP3    H241625   3.028   2.720   2.649 -1.7275 -0.6286 -1.6469
 6664TIP3   OH241626   1.287   1.725   1.515  0.1222  0.7023 -0.3869
 6664TIP3    H141627   1.263   1.767   1.598 -1.6562 -0.1414 -0.4185
 6664TIP3    H241628   1.381   1.712   1.520 -0.1575 -0.9945  2.3461
 6665TIP3   OH241629   4.077   0.631   1.209 -0.3059  0.4790  0.6094
 6665TIP3    H141630   4.129   0.551   1.214 -0.4492  0.2841 -0.7030
 6665TIP3    H241631   4.109   0.676   1.131 -0.6253  1.4335  1.0055
 6666TIP3   OH241632   3.339   6.346   2.409 -0.6962  0.3204  0.0910
 6666TIP3    H141633   3.290   6.356   2.490 -2.2746 -1.2404 -0.6297
 6666TIP3    H241634   3.337   6.433   2.369 -0.2606  1.0026  1.4745
 6667TIP3   OH241635   5.588   4.046   1.086  0.1485  0.3021 -0.3303
 6667TIP3    H141636   5.530   3.993   1.032  1.2239 -1.3807  0.0972
 6667TIP3    H241637   5.576   4.135   1.053 -1.4404 -0.2312 -1.3204
 6668TIP3   OH241638   1.963   3.371   8.355 -0.2690 -0.0136 -0.1001
 6668TIP3    H141639   1.957   3.404   8.445  1.4889  0.2804 -0.0551
 6668TIP3    H241640   2.035   3.421   8.316 -0.1709 -1.0308 -1.2872
 6669TIP3   OH241641   0.903   1.940   1.573 -0.1210  0.3990 -0.1507
 6669TIP3    H141642   0.860   2.001   1.512 -0.1844 -1.0424 -1.6088
 6669TIP3    H241643   0.929   1.866   1.518 -0.6604 -1.2140  1.6780
 6670TIP3   OH241644   4.545   2.162   2.407  0.1162 -0.6088 -0.2891
 6670TIP3    H141645   4.477   2.115   2.359 -0.8052  0.6709 -0.2678
 6670TIP3    H241646   4.501   2.196   2.485 -0.2337  3.2235 -1.9505
 6671TIP3   OH241647   1.089   2.018   3.941 -0.1328 -0.0188 -0.0614
 6671TIP3    H141648   1.165   2.075   3.926  0.6309 -0.7949  0.7115
 6671TIP3    H241649   1.099   1.989   4.032 -0.3189 -1.6147 -0.5188
 6672TIP3   OH241650   4.789   1.977   2.803 -0.2564  0.1700  0.0857
 6672TIP3    H141651   4.777   2.069   2.778 -0.0034  0.0734 -0.4153
 6672TIP3    H241652   4.821   1.981   2.893  1.7370  0.6819 -0.5950
 6673TIP3   OH241653   6.259   3.624   3.289  0.0572  0.1989  0.2714
 6673TIP3    H141654   6.207   3.701   3.312  1.7239  1.8336 -1.1108
 6673TIP3    H241655   6.255   3.619   3.194  1.8045 -0.0393  0.1745
 6674TIP3   OH241656   4.199   1.458   0.873  0.3580 -0.5282  0.1531
 6674TIP3    H141657   4.173   1.427   0.960  1.6587  0.6057  1.0065
 6674TIP3    H241658   4.193   1.553   0.879  1.2312 -0.3969 -0.7301
 6675TIP3   OH241659   3.970   4.926   2.751  0.1456 -0.8791  0.7420
 6675TIP3    H141660   4.040   4.989   2.769 -0.5218 -0.0323  0.4513
 6675TIP3    H241661   3.972   4.914   2.656  0.3114 -1.3515  0.8031
 6676TIP3   OH241662   5.059   5.283   2.437 -0.0528 -0.1249 -0.8132
 6676TIP3    H141663   4.988   5.346   2.444 -1.1959 -1.5061  1.0101
 6676TIP3    H241664   5.115   5.301   2.513  1.6153  0.9316 -2.2052
 6677TIP3   OH241665   0.454   1.474   1.911  0.5510 -0.1434 -0.4297
 6677TIP3    H141666   0.498   1.536   1.969 -1.9987  3.3846 -1.9255
 6677TIP3    H241667   0.388   1.431   1.967  1.6423 -0.7919  0.3893
 6678TIP3   OH241668   0.916   5.082   2.619  0.5213 -0.0707 -0.1331
 6678TIP3    H141669   0.965   5.036   2.687 -0.1844 -2.6045 -1.1882
 6678TIP3    H241670   0.925   5.026   2.541 -2.5828  0.1632 -0.8197
 6679TIP3   OH241671   6.444   5.486   1.954 -0.0069 -0.3814 -0.2137
 6679TIP3    H141672   6.456   5.407   2.007 -0.4559  0.7066  1.5836
 6679TIP3    H241673   6.526   5.496   1.905 -0.2581 -2.4065 -1.1557
 6680TIP3   OH241674   3.634   1.366   0.096  0.0886 -0.5624  0.3786
 6680TIP3    H141675   3.559   1.323   0.137 -1.4064  0.7137 -0.9119
 6680TIP3    H241676   3.686   1.294   0.060 -1.3400 -1.4237 -0.0600
 6681TIP3   OH241677   3.683   4.211   8.149  0.3593 -0.0720  0.3529
 6681TIP3    H141678   3.692   4.268   8.225 -0.1552  0.6806 -0.1423
 6681TIP3    H241679   3.667   4.124   8.186 -1.1281  0.4965  1.1143
 6682TIP3   OH241680   2.295   5.931   2.889  0.3002 -0.2148  0.7941
 6682TIP3    H141681   2.242   6.004   2.858 -0.9088 -1.1337  0.5897
 6682TIP3    H241682   2.299   5.871   2.815  1.3523 -0.3376  0.9263
 6683TIP3   OH241683   3.160   5.787   1.095 -0.0562  0.1955 -0.0573
 6683TIP3    H141684   3.071   5.753   1.094  0.1906 -0.4572 -0.5745
 6683TIP3    H241685   3.163   5.845   1.171 -0.3932 -1.2344  1.0889
 6684TIP3   OH241686   4.361   1.272   4.017 -0.0693  0.0897  0.4847
 6684TIP3    H141687   4.424   1.331   4.057  0.7041 -0.4797  0.1548
 6684TIP3    H241688   4.354   1.303   3.926  1.1841 -0.9453 -0.0029
 6685TIP3   OH241689   3.009   6.237   2.905 -0.1729  0.0883 -0.2725
 6685TIP3    H141690   2.945   6.291   2.951  0.9382  0.9265  0.3485
 6685TIP3    H241691   3.069   6.300   2.865  0.6436 -0.6717 -0.2866
 6686TIP3   OH241692   4.777   2.086   2.288 -0.7144 -0.3668  0.5406
 6686TIP3    H141693   4.700   2.095   2.344  0.0198 -0.6695  1.6420
 6686TIP3    H241694   4.748   2.031   2.215 -1.4981 -0.6089  1.0277
 6687TIP3   OH241695   0.748   4.987   3.890 -0.5165 -0.0025  0.2086
 6687TIP3    H141696   0.757   5.082   3.894 -1.4691  0.1266 -0.5256
 6687TIP3    H241697   0.800   4.955   3.964 -0.3479  1.0947  0.5771
 6688TIP3   OH241698   4.119   0.024   2.625  0.2484 -0.0156 -0.0224
 6688TIP3    H141699   4.163  -0.062   2.624 -1.1144 -0.7525  0.7589
 6688TIP3    H241700   4.121   0.053   2.534  0.3921 -1.0471 -0.3625
 6689TIP3   OH241701   5.216   5.770   0.810  0.8860  0.5251 -0.1219
 6689TIP3    H141702   5.292   5.720   0.779  0.4074 -0.2358 -0.1084
 6689TIP3    H241703   5.141   5.719   0.780  0.3888  0.9352  0.4092
 6690TIP3   OH241704   1.216   4.257   3.453  0.1390 -0.4317  0.2020
 6690TIP3    H141705   1.162   4.336   3.445  1.1134  0.3237  0.9714
 6690TIP3    H241706   1.154   4.185   3.442 -1.5484  0.3320  3.4252
 6691TIP3   OH241707   4.587   5.468   2.194  0.0577 -0.3996 -0.0259
 6691TIP3    H141708   4.655   5.530   2.167  0.7435 -0.7112  0.9127
 6691TIP3    H241709   4.518   5.523   2.231  0.3089 -0.1418  0.0682
 6692TIP3   OH241710   0.159   4.098   3.164 -0.3429 -0.3083 -0.4414
 6692TIP3    H141711   0.212   4.167   3.205 -1.5836 -1.0484  2.7180
 6692TIP3    H241712   0.168   4.114   3.070  3.9641  0.6865 -0.1011
 6693TIP3   OH241713   2.101   3.056   3.904 -0.4403  0.1506 -0.6413
 6693TIP3    H141714   2.164   2.989   3.932 -1.0948 -1.1121 -2.0333
 6693TIP3    H241715   2.026   3.043   3.961 -0.2454  0.2678 -0.3538
 6694TIP3   OH241716   3.710   4.054   3.081 -0.5826 -0.2949  0.0734
 6694TIP3    H141717   3.723   3.971   3.037  0.6153 -0.3975  0.5920
 6694TIP3    H241718   3.667   4.031   3.163  1.6747 -0.6915  1.2163
 6695TIP3   OH241719   1.321   5.219   3.975  0.4372  0.4153  0.4910
 6695TIP3    H141720   1.326   5.159   4.049  0.6032  0.5210  0.5654
 6695TIP3    H241721   1.407   5.260   3.971  1.1199 -1.0314 -0.9563
 6696TIP3   OH241722   4.840   4.099   1.934 -0.4028 -0.3894  0.3154
 6696TIP3    H141723   4.813   4.167   1.872  0.3938  0.6076  1.0207
 6696TIP3    H241724   4.913   4.055   1.892  0.9468  1.0981  1.0067
 6697TIP3   OH241725   6.726   6.487   1.899 -0.4313 -0.0670  0.3751
 6697TIP3    H141726   6.645   6.524   1.865 -0.1060  0.1300 -0.1938
 6697TIP3    H241727   6.793   6.513   1.836 -0.0714 -0.9961  0.3558
 6698TIP3   OH241728   6.496   3.471   4.194  0.0394 -0.3293  0.2061
 6698TIP3    H141729   6.547   3.463   4.113 -1.4799  1.5433 -1.0305
 6698TIP3    H241730   6.414   3.424   4.175  0.3186 -1.2923  1.2958
 6699TIP3   OH241731   2.876   6.623   1.604  0.3864  0.2720 -0.4980
 6699TIP3    H141732   2.835   6.704   1.634  0.0480  0.3456 -1.1310
 6699TIP3    H241733   2.888   6.636   1.510 -0.0803 -0.5816 -0.6873
 6700TIP3   OH241734   4.010   4.116   2.267 -0.3444  0.0103  0.0973
 6700TIP3    H141735   3.985   4.036   2.221 -3.3237  1.2312 -0.6617
 6700TIP3    H241736   3.945   4.126   2.336  0.5177  1.3125  0.7691
 6701TIP3   OH241737   6.264   5.912   1.388 -0.1387 -0.5032  0.0562
 6701TIP3    H141738   6.234   5.978   1.324  0.4117 -1.8880 -1.7079
 6701TIP3    H241739   6.231   5.829   1.354  0.4344 -1.3198  1.4362
 6702TIP3   OH241740   0.422   3.994   1.640  0.4930  0.2010  0.2501
 6702TIP3    H141741   0.350   3.968   1.582 -0.7659 -1.1449  2.2919
 6702TIP3    H241742   0.397   4.082   1.671  0.8804  0.6772 -0.7490
 6703TIP3   OH241743   6.518   2.305   2.812 -0.4535  0.0075 -0.4195
 6703TIP3    H141744   6.546   2.388   2.773  1.0171 -0.9153 -1.4380
 6703TIP3    H241745   6.485   2.253   2.738  1.3003 -1.3467 -0.3162
 6704TIP3   OH241746   1.966   4.575   0.714 -0.5394  0.1150 -0.4325
 6704TIP3    H141747   1.990   4.627   0.790 -0.8092 -0.3638 -0.0094
 6704TIP3    H241748   2.032   4.506   0.709 -0.6297  0.0321 -0.5137
 6705TIP3   OH241749   4.661   2.207   3.359 -0.1179  0.4056 -0.5120
 6705TIP3    H141750   4.646   2.223   3.453  1.3966  1.3488 -0.4005
 6705TIP3    H241751   4.616   2.125   3.342 -0.6770  0.3647  0.9804
 6706TIP3   OH241752   3.741   1.839   3.187  0.1831 -0.3500 -0.7920
 6706TIP3    H141753   3.774   1.809   3.271  1.2126 -0.7544 -1.3194
 6706TIP3    H241754   3.716   1.758   3.141 -1.4703 -0.0714 -0.4683
 6707TIP3   OH241755   0.951   2.715   0.125  0.0312  0.3776 -0.0228
 6707TIP3    H141756   0.884   2.675   0.069 -1.6742  1.4592  1.1157
 6707TIP3    H241757   1.016   2.646   0.138 -0.0229 -0.2252 -2.4543
 6708TIP3   OH241758   3.018   0.620   3.148  0.1903  0.0871  0.2897
 6708TIP3    H141759   3.094   0.564   3.130 -0.6351 -1.3458  1.0414
 6708TIP3    H241760   3.019   0.685   3.078  1.9059 -0.1049  0.0925
 6709TIP3   OH241761   6.078   4.374   3.513  0.4197  0.3444 -0.3506
 6709TIP3    H141762   6.159   4.333   3.481  0.0928 -0.1589 -0.5493
 6709TIP3    H241763   6.045   4.313   3.579  0.5862  0.9138  0.2699
 6710TIP3   OH241764   5.300   2.824   2.756 -0.0417  0.3314 -0.7176
 6710TIP3    H141765   5.351   2.905   2.751  1.1677 -0.0833  2.2709
 6710TIP3    H241766   5.359   2.762   2.801 -1.4785 -1.7310 -1.5293
 6711TIP3   OH241767   6.259   2.716   3.096 -0.3295  0.0323  0.2045
 6711TIP3    H141768   6.267   2.624   3.122  0.6613 -0.6302 -2.1577
 6711TIP3    H241769   6.287   2.765   3.173  1.2448 -1.7115  0.8322
 6712TIP3   OH241770   0.740   4.615   2.532 -0.4510 -0.2728 -0.0802
 6712TIP3    H141771   0.723   4.555   2.459  1.6315 -0.4705 -0.4795
 6712TIP3    H241772   0.766   4.697   2.490  2.0463 -0.7611  0.3267
 6713TIP3   OH241773   5.261   2.311   0.142 -0.0872  0.8044  0.2006
 6713TIP3    H141774   5.318   2.347   0.210  0.3233  0.7300 -0.1042
 6713TIP3    H241775   5.203   2.384   0.120  2.2272  2.1114 -2.0738
 6714TIP3   OH241776   0.624   0.168   3.842 -0.3224 -0.0393  0.4757
 6714TIP3    H141777   0.671   0.087   3.864  1.1129  0.4929 -0.5380
 6714TIP3    H241778   0.553   0.172   3.906 -0.2713 -1.9705  0.7047
 6715TIP3   OH241779   0.007   3.686   2.175  0.4447  0.4056  0.6928
 6715TIP3    H141780  -0.045   3.629   2.119  1.0968  1.4688 -1.0446
 6715TIP3    H241781  -0.048   3.700   2.252 -0.2261 -1.5451  0.6180
 6716TIP3   OH241782   5.510   5.919   3.902 -0.5751  0.4012 -0.0280
 6716TIP3    H141783   5.497   5.985   3.834 -0.7511  1.3775  0.9278
 6716TIP3    H241784   5.421   5.894   3.928 -0.7922  3.5009  3.0752
 6717TIP3   OH241785   1.715   6.357   2.857  0.5761 -0.1940 -0.5419
 6717TIP3    H141786   1.800   6.361   2.814  0.6971 -0.0544 -0.2923
 6717TIP3    H241787   1.656   6.322   2.790  0.6545  0.4919 -0.9868
 6718TIP3   OH241788   0.151   5.694   0.714 -0.3028 -0.0655  0.4831
 6718TIP3    H141789   0.130   5.733   0.799 -0.5786  0.7280  0.0594
 6718TIP3    H241790   0.220   5.630   0.733 -0.1085  0.3607  1.2485
 6719TIP3   OH241791   3.378   6.528   1.641 -0.1705  0.7973  0.0671
 6719TIP3    H141792   3.285   6.544   1.621 -0.1482 -0.1608 -0.8600
 6719TIP3    H241793   3.404   6.605   1.693 -0.8891  2.2175 -1.5731
 6720TIP3   OH241794   0.468   6.721   2.400 -0.3449  0.5699  0.2156
 6720TIP3    H141795   0.389   6.739   2.349 -0.3903  0.2276  0.1586
 6720TIP3    H241796   0.446   6.643   2.451 -0.3163  0.9372  0.7983
 6721TIP3   OH241797   0.058   1.437   3.826 -0.0487 -0.1796 -0.1993
 6721TIP3    H141798  -0.033   1.456   3.852  0.2840 -1.1481  1.8520
 6721TIP3    H241799   0.107   1.513   3.856  0.0070 -0.2365 -0.1477
 6722TIP3   OH241800   0.619   0.899   1.807 -0.1380 -0.4642  0.0202
 6722TIP3    H141801   0.532   0.918   1.841 -0.0332  0.9172 -0.4196
 6722TIP3    H241802   0.612   0.811   1.770 -2.0449  0.4809 -2.1043
 6723TIP3   OH241803   5.902   6.794   2.510 -0.2300  0.1057  0.1321
 6723TIP3    H141804   5.966   6.766   2.575 -0.1575  1.0944  0.5017
 6723TIP3    H241805   5.841   6.849   2.558  0.6182  2.0055 -0.8761
 6724TIP3   OH241806   3.381   0.781   2.638 -0.6085 -0.3850 -0.5765
 6724TIP3    H141807   3.400   0.858   2.691  0.5222  0.1762 -1.7540
 6724TIP3    H241808   3.285   0.775   2.637 -0.6783 -0.3436  1.3785
 6725TIP3   OH241809   2.563   1.532   3.766  0.3564  0.2279  0.4664
 6725TIP3    H141810   2.482   1.515   3.813 -0.2524  0.2514 -0.5302
 6725TIP3    H241811   2.568   1.628   3.759 -0.1818  0.1982 -0.5297
 6726TIP3   OH241812   3.575   4.004   3.316 -0.4428 -0.3866 -0.4647
 6726TIP3    H141813   3.566   3.934   3.380  0.4521 -1.4346 -1.4259
 6726TIP3    H241814   3.576   4.085   3.367 -0.8800 -1.1153  0.7188
 6727TIP3   OH241815   4.413   4.753   1.963 -0.1059  0.2033  0.2535
 6727TIP3    H141816   4.427   4.730   2.055 -2.8214  0.3106  0.7737
 6727TIP3    H241817   4.440   4.844   1.956  0.5114  0.0708  0.8159
 6728TIP3   OH241818   6.697   5.415   8.216  0.4384 -0.2594 -0.3851
 6728TIP3    H141819   6.625   5.352   8.222  0.0420 -0.0162 -2.0178
 6728TIP3    H241820   6.729   5.405   8.126  1.0848  1.1114 -0.3292
 6729TIP3   OH241821   1.920   4.540   1.337 -0.3449 -0.0747 -0.0358
 6729TIP3    H141822   1.826   4.554   1.353 -0.8167 -1.0109 -1.6697
 6729TIP3    H241823   1.954   4.509   1.421 -1.5897 -0.1103  0.4902
 6730TIP3   OH241824   4.913   4.930   0.569  0.2880  0.0824 -0.1971
 6730TIP3    H141825   4.866   4.861   0.615 -0.4285  1.4559  1.2183
 6730TIP3    H241826   5.003   4.924   0.602  0.4337 -0.6729 -0.7049
 6731TIP3   OH241827   3.135   0.385   2.779 -0.0272  0.2507  0.0303
 6731TIP3    H141828   3.184   0.458   2.818  1.6781 -0.8955  0.1625
 6731TIP3    H241829   3.061   0.372   2.838  1.3857 -0.1348  1.7942
 6732TIP3   OH241830   5.525   2.742   0.337 -0.3095 -0.0173 -0.1123
 6732TIP3    H141831   5.466   2.681   0.381  0.9731 -0.4488  1.0881
 6732TIP3    H241832   5.601   2.689   0.312  0.3225  0.8457 -0.0889
 6733TIP3   OH241833   6.627   0.391   1.827  0.1922  0.5855  0.3151
 6733TIP3    H141834   6.581   0.464   1.785 -0.0767  0.4510  0.3687
 6733TIP3    H241835   6.562   0.354   1.887 -0.0205 -0.3350 -0.4559
 6734TIP3   OH241836   5.064   0.268   3.219 -0.0386  0.2874  0.4593
 6734TIP3    H141837   5.101   0.328   3.284 -0.4927 -0.7772  1.7466
 6734TIP3    H241838   5.076   0.181   3.257 -0.9329 -0.3129 -0.5767
 6735TIP3   OH241839   3.646   6.471   3.248 -0.4334 -0.0406 -0.0393
 6735TIP3    H141840   3.708   6.402   3.227 -0.2492  0.1196 -0.0246
 6735TIP3    H241841   3.700   6.543   3.281 -0.7042 -0.2873  1.0008
 6736TIP3   OH241842   3.289   4.996   0.275 -0.3250  0.0728  0.0028
 6736TIP3    H141843   3.297   5.091   0.268 -1.8005  0.3023  1.0283
 6736TIP3    H241844   3.379   4.964   0.274  0.3074  1.6541  1.7924
 6737TIP3   OH241845   1.629   4.313   1.800 -0.3388  0.3177  0.3615
 6737TIP3    H141846   1.601   4.358   1.721  0.1100  0.5083  0.3067
 6737TIP3    H241847   1.681   4.378   1.847 -0.8531  0.3054  0.9618
 6738TIP3   OH241848   0.324   6.369   8.457  0.0773  0.4231  0.4414
 6738TIP3    H141849   0.303   6.336   8.369  1.3310  1.5591 -0.3357
 6738TIP3    H241850   0.251   6.341   8.512 -1.2289  0.5008 -1.1780
 6739TIP3   OH241851   5.589   6.501   1.597  0.2788 -0.8483 -0.1303
 6739TIP3    H141852   5.603   6.557   1.673 -3.9220  0.1327  0.1238
 6739TIP3    H241853   5.591   6.560   1.522  0.2282 -1.1217 -0.3489
 6740TIP3   OH241854   0.105   1.988   2.811 -0.0413 -0.7580 -0.3732
 6740TIP3    H141855   0.040   1.969   2.878  0.3453 -1.3070 -0.1395
 6740TIP3    H241856   0.118   1.904   2.766  0.1828 -0.5535 -0.6983
 6741TIP3   OH241857   2.220   6.276   0.678 -0.1467  0.1115  1.0697
 6741TIP3    H141858   2.290   6.215   0.702 -0.6182 -1.2692 -0.7873
 6741TIP3    H241859   2.242   6.303   0.588 -2.0097 -0.4154  0.4172
 6742TIP3   OH241860   1.221   4.113   8.508  0.0267 -0.4679  0.2108
 6742TIP3    H141861   1.308   4.091   8.477 -0.8709 -2.7561 -0.8748
 6742TIP3    H241862   1.208   4.057   8.585 -0.7954 -0.7536 -0.1310
 6743TIP3   OH241863   4.692   6.517   1.981 -0.5378 -0.0794  0.0260
 6743TIP3    H141864   4.687   6.533   2.075  0.7161  0.3973  0.0364
 6743TIP3    H241865   4.767   6.569   1.952 -0.1891 -1.1235 -1.0371
 6744TIP3   OH241866   0.331   2.117   2.781  0.1514 -0.9290  0.0972
 6744TIP3    H141867   0.372   2.056   2.720 -1.9160 -0.7717 -1.5883
 6744TIP3    H241868   0.244   2.081   2.797 -0.0686  0.0852  1.3883
 6745TIP3   OH241869   1.160   5.725   2.959  0.1805  0.5888  0.2572
 6745TIP3    H141870   1.100   5.707   3.031 -1.4448  0.6340 -1.0275
 6745TIP3    H241871   1.224   5.785   2.997  0.5618 -0.9230  2.1811
 6746TIP3   OH241872   2.149   0.067   2.228 -0.3540  0.7894  0.6668
 6746TIP3    H141873   2.242   0.087   2.217 -0.2389 -0.3348 -0.5809
 6746TIP3    H241874   2.143   0.028   2.316  0.4325  0.4120  0.5615
 6747TIP3   OH241875   4.338   4.925   2.489 -0.0426 -0.3138  0.2311
 6747TIP3    H141876   4.417   4.958   2.446 -0.4119  0.4291  0.1104
 6747TIP3    H241877   4.366   4.908   2.579  0.6265 -1.4827 -0.1796
 6748TIP3   OH241878   3.347   3.981   1.726  0.2324  0.3277 -0.6089
 6748TIP3    H141879   3.289   3.951   1.656 -0.8700  1.1684 -0.0741
 6748TIP3    H241880   3.295   3.974   1.805  0.8287  1.1747 -0.1256
 6749TIP3   OH241881   5.250   3.922   1.521  0.3416 -0.2217  0.9413
 6749TIP3    H141882   5.187   3.856   1.494 -1.0619  2.2238 -2.5219
 6749TIP3    H241883   5.324   3.910   1.462 -1.2601  3.0201 -2.0488
 6750TIP3   OH241884   5.086   1.109   0.500  0.4285 -0.0559 -0.3368
 6750TIP3    H141885   5.097   1.183   0.560 -0.3681 -0.8243  0.8094
 6750TIP3    H241886   5.164   1.055   0.514 -0.8282 -1.4671  1.8945
 6751TIP3   OH241887   4.393   2.098   1.014 -0.5196  0.1009  0.2635
 6751TIP3    H141888   4.363   2.109   1.105 -2.0796 -0.2205 -0.1921
 6751TIP3    H241889   4.315   2.071   0.966  0.8815 -2.6660 -0.6543
 6752TIP3   OH241890   1.511   3.357   1.910  0.0153 -0.1347  0.1622
 6752TIP3    H141891   1.421   3.380   1.888 -0.4614 -1.5764  0.4435
 6752TIP3    H241892   1.534   3.288   1.848 -0.1634 -1.8677  1.8953
 6753TIP3   OH241893   3.860   1.392   1.706  0.0369  0.8799 -0.0734
 6753TIP3    H141894   3.939   1.365   1.753  0.2538  0.4049 -0.6981
 6753TIP3    H241895   3.881   1.478   1.671  1.4781 -0.4802 -2.8669
 6754TIP3   OH241896   1.169   4.046   1.769 -0.1632  0.0474 -0.3723
 6754TIP3    H141897   1.152   3.960   1.731 -0.1960  0.4599 -1.3120
 6754TIP3    H241898   1.263   4.058   1.761  0.2227 -0.8902  1.9486
 6755TIP3   OH241899   5.252   1.707   0.744  0.4496 -0.6498 -0.1796
 6755TIP3    H141900   5.175   1.755   0.775  1.3207  2.1156 -1.8933
 6755TIP3    H241901   5.321   1.732   0.805  0.3567 -2.0208  0.5329
 6756TIP3   OH241902   6.718   1.926   1.800  0.3199  0.6651 -0.1413
 6756TIP3    H141903   6.693   1.981   1.874 -1.7498  1.4799 -1.3751
 6756TIP3    H241904   6.762   1.850   1.840  0.3093  1.6376  1.8049
 6757TIP3   OH241905   0.900   2.600   1.660  0.3276 -0.8885 -0.2709
 6757TIP3    H141906   0.978   2.567   1.704  2.2892  2.5885 -0.7506
 6757TIP3    H241907   0.921   2.595   1.567 -1.2737 -2.5222 -0.5963
 6758TIP3   OH241908   3.213   2.383   0.147 -0.3344 -0.3163 -0.2229
 6758TIP3    H141909   3.123   2.413   0.131 -0.4333  0.4870  1.5701
 6758TIP3    H241910   3.262   2.464   0.160  0.5978 -0.7669 -0.8844
 6759TIP3   OH241911   4.297   0.827   0.085 -0.0607  0.7079  0.2586
 6759TIP3    H141912   4.203   0.848   0.083 -0.0963  0.6400 -1.9180
 6759TIP3    H241913   4.338   0.902   0.127 -1.1165  0.4800  1.7906
 6760TIP3   OH241914   1.079   0.960   8.843 -0.3764 -0.1112 -0.5315
 6760TIP3    H141915   1.018   0.893   8.809 -1.9297  1.1425 -0.3120
 6760TIP3    H241916   1.077   1.029   8.777  0.5657  0.0911 -0.3505
 6761TIP3   OH241917   1.727   6.396   1.725  0.4203 -0.7111  0.3126
 6761TIP3    H141918   1.755   6.336   1.656  0.7926 -1.6349  1.2597
 6761TIP3    H241919   1.784   6.473   1.713 -0.3476 -0.3273 -1.1658
 6762TIP3   OH241920   2.923   2.382   1.217  0.1647 -0.7929 -0.3258
 6762TIP3    H141921   2.922   2.322   1.291 -0.0973 -1.2951 -0.7329
 6762TIP3    H241922   2.993   2.349   1.160  0.1827 -0.5710 -0.4331
 6763TIP3   OH241923   5.265   0.500   2.964  0.4061  0.3997 -0.4296
 6763TIP3    H141924   5.291   0.469   3.051 -0.3250  2.9015  0.7654
 6763TIP3    H241925   5.179   0.461   2.950  0.9724 -0.8733 -0.5526
 6764TIP3   OH241926   0.205   3.542   2.302 -0.1411 -0.6018  0.3147
 6764TIP3    H141927   0.134   3.574   2.246 -1.3544 -0.2632  1.9679
 6764TIP3    H241928   0.213   3.609   2.371  0.3064 -1.6873  1.3476
 6765TIP3   OH241929   0.565   2.708   1.370 -0.0501  0.0016 -0.5236
 6765TIP3    H141930   0.589   2.793   1.405  0.2676 -0.9661  1.7968
 6765TIP3    H241931   0.509   2.727   1.295  2.2482  2.2636 -1.8115
 6766TIP3   OH241932   0.864   1.278   0.030 -0.2944  0.7788  0.0974
 6766TIP3    H141933   0.833   1.193   0.060  1.4854  0.9582  2.8135
 6766TIP3    H241934   0.947   1.259  -0.014 -0.5007  1.0078 -0.3984
 6767TIP3   OH241935   2.790   1.548   2.615 -0.1465 -0.5316  0.1602
 6767TIP3    H141936   2.777   1.618   2.679 -1.1449  0.0274 -0.6375
 6767TIP3    H241937   2.771   1.588   2.530  1.4625 -1.1813 -0.5521
 6768TIP3   OH241938   4.729   0.640   2.557  0.0456  0.1404 -0.0724
 6768TIP3    H141939   4.822   0.626   2.535 -1.0578 -1.6064 -5.0645
 6768TIP3    H241940   4.705   0.563   2.608  0.6518 -1.4283 -1.9910
 6769TIP3   OH241941   5.115   5.536   1.205 -0.5648 -0.1124 -0.3962
 6769TIP3    H141942   5.158   5.618   1.181  0.7285 -0.5044  0.4173
 6769TIP3    H241943   5.112   5.538   1.301  0.3232 -1.3786 -0.3058
 6770TIP3   OH241944   3.398   4.552   2.617 -0.0824 -0.1803 -0.4203
 6770TIP3    H141945   3.474   4.536   2.561 -0.2068 -0.4004 -0.5225
 6770TIP3    H241946   3.413   4.496   2.693 -0.2313 -0.3536 -0.5198
 6771TIP3   OH241947   0.503   4.862   1.398  0.2325 -0.4160 -0.2887
 6771TIP3    H141948   0.464   4.857   1.485  0.9456 -0.1900  0.0454
 6771TIP3    H241949   0.590   4.825   1.408  0.1554 -0.8153 -1.0125
 6772TIP3   OH241950   0.418   2.325   1.047  0.0439  0.8543 -0.0958
 6772TIP3    H141951   0.463   2.277   1.116  1.6370  0.9878 -0.9943
 6772TIP3    H241952   0.338   2.357   1.088  1.2674  1.5325  1.9142
 6773TIP3   OH241953   1.218   1.574   1.090 -0.2857  0.0116  0.2084
 6773TIP3    H141954   1.128   1.572   1.122 -1.4103 -0.2064 -2.6315
 6773TIP3    H241955   1.255   1.491   1.118 -1.9082 -1.1274 -0.8247
 6774TIP3   OH241956   1.447   3.834   0.520  0.1349  0.1320 -0.3718
 6774TIP3    H141957   1.510   3.899   0.550  1.0353 -0.6288 -0.5757
 6774TIP3    H241958   1.469   3.754   0.568 -1.0370  0.0019 -0.0250
 6775TIP3   OH241959   0.810   3.185   0.090 -0.1210 -0.0402 -0.1161
 6775TIP3    H141960   0.811   3.192  -0.005 -1.4000 -0.7251 -0.1932
 6775TIP3    H241961   0.722   3.214   0.116  0.2642  0.2929  0.8774
 6776TIP3   OH241962   4.591   3.710   3.442  0.3488 -0.2907  0.4472
 6776TIP3    H141963   4.660   3.666   3.392  0.7960  1.5758 -0.6866
 6776TIP3    H241964   4.520   3.724   3.378 -0.6312 -1.1536  1.3061
 6777TIP3   OH241965   4.402   2.096   0.128  0.2529  0.5589 -0.3059
 6777TIP3    H141966   4.335   2.044   0.172  2.0502 -0.9797  0.7483
 6777TIP3    H241967   4.409   2.058   0.040  0.8252 -0.3234  0.1140
 6778TIP3   OH241968   4.815   1.129   3.736 -0.0071 -0.4032 -0.3974
 6778TIP3    H141969   4.763   1.170   3.805  0.9448 -0.6199  0.4705
 6778TIP3    H241970   4.899   1.109   3.777  1.0879  0.6754 -1.9726
 6779TIP3   OH241971   5.492   5.792   1.074  0.1121  0.6218  0.1857
 6779TIP3    H141972   5.574   5.743   1.073  0.1971  0.7102  1.3574
 6779TIP3    H241973   5.495   5.847   0.996  0.2806 -0.7871 -0.8376
 6780TIP3   OH241974   2.033   6.450   2.085  0.1229 -0.2080  0.0476
 6780TIP3    H141975   2.119   6.414   2.103  1.1128  2.6246  1.6643
 6780TIP3    H241976   1.997   6.474   2.170 -2.1716 -0.9877 -0.6078
 6781TIP3   OH241977   0.857   6.256   3.523  0.3781  0.2405 -0.4652
 6781TIP3    H141978   0.879   6.163   3.533 -1.2108 -0.2495 -1.1823
 6781TIP3    H241979   0.873   6.274   3.430  1.4164  0.9118 -0.1702
 6782TIP3   OH241980   2.404   5.710   1.997  0.0291  0.1482  0.4899
 6782TIP3    H141981   2.493   5.739   1.978 -0.2975 -0.2838 -2.0723
 6782TIP3    H241982   2.413   5.618   2.022  0.2199 -0.5239 -1.7836
 6783TIP3   OH241983   0.551   4.008   1.925  0.1170  0.1857  0.0282
 6783TIP3    H141984   0.605   4.026   1.848  0.1407  0.3860  0.0910
 6783TIP3    H241985   0.461   4.023   1.895  0.1990  1.5941  0.3904
 6784TIP3   OH241986   2.549   0.556   0.616 -0.0210  0.3051  0.4676
 6784TIP3    H141987   2.627   0.501   0.611 -0.5605 -0.5473  1.3412
 6784TIP3    H241988   2.532   0.581   0.525  0.5147 -0.5525  0.1222
 6785TIP3   OH241989   0.549   1.272   1.776  0.0670 -0.2176  0.1209
 6785TIP3    H141990   0.481   1.228   1.724  0.2849  0.6409 -0.9150
 6785TIP3    H241991   0.508   1.354   1.804 -0.2965 -0.9575  1.9549
 6786TIP3   OH241992   6.455   2.307   0.467 -0.6704 -0.0697 -0.2277
 6786TIP3    H141993   6.369   2.271   0.484 -1.6425  1.8884 -0.6903
 6786TIP3    H241994   6.472   2.287   0.375  0.3044 -2.1707  0.3397
 6787TIP3   OH241995   3.631   0.457   2.847  0.2097  0.0779  0.5231
 6787TIP3    H141996   3.608   0.417   2.932 -0.4249 -0.4568  0.1098
 6787TIP3    H241997   3.723   0.434   2.835 -0.0800 -1.0774  0.4087
 6788TIP3   OH241998   3.066   0.057   3.524 -0.3284 -0.0876 -0.3386
 6788TIP3    H141999   3.042  -0.001   3.452  1.3512  0.1161 -1.1115
 6788TIP3    H242000   3.139   0.011   3.568 -0.8030  0.1638  0.7529
 6789TIP3   OH242001   3.782   1.307   1.043  0.0245  0.0489 -0.1191
 6789TIP3    H142002   3.773   1.249   1.118 -1.4549 -0.2026 -0.4483
 6789TIP3    H242003   3.775   1.396   1.079  0.5343 -0.0345  0.1818
 6790TIP3   OH242004   1.700   6.781   3.608  0.4360  0.0588 -0.3909
 6790TIP3    H142005   1.706   6.707   3.669 -0.2508  0.5417  0.2839
 6790TIP3    H242006   1.674   6.854   3.663  0.3531  0.6371 -1.1884
 6791TIP3   OH242007   3.956   0.986   2.553  0.5272 -1.0737  0.8263
 6791TIP3    H142008   3.996   1.064   2.514 -1.2589 -0.2733  0.5317
 6791TIP3    H242009   3.862   0.997   2.540  0.0137 -1.9608  3.2526
 6792TIP3   OH242010   5.490   3.331   2.093 -0.3621 -0.0233 -0.3976
 6792TIP3    H142011   5.423   3.323   2.162 -0.6036 -0.8442 -0.7054
 6792TIP3    H242012   5.566   3.368   2.137 -0.8650  0.4873  0.0660
 6793TIP3   OH242013   2.239   3.912   1.321  0.4199 -0.3090 -0.8550
 6793TIP3    H142014   2.176   3.842   1.336  0.8515 -0.1122  2.9520
 6793TIP3    H242015   2.325   3.869   1.332  0.7597  0.3739 -0.7969
 6794TIP3   OH242016   6.750   0.070   1.497  0.1085  0.3290  0.5898
 6794TIP3    H142017   6.709   0.146   1.456 -0.9342  0.2743  1.4486
 6794TIP3    H242018   6.700   0.058   1.579  0.0949 -1.3938  0.3720
 6795TIP3   OH242019   1.134   2.872   0.570 -0.1522 -0.0738 -0.1288
 6795TIP3    H142020   1.066   2.841   0.510  0.6402  1.2041 -1.7778
 6795TIP3    H242021   1.086   2.897   0.649 -1.5670  0.3335 -1.0572
 6796TIP3   OH242022   1.553   2.147   2.702 -0.2248  0.3335  0.3340
 6796TIP3    H142023   1.591   2.220   2.653 -1.2681  0.2130 -0.6978
 6796TIP3    H242024   1.460   2.147   2.677 -0.0605 -1.9925 -0.5389
 6797TIP3   OH242025   3.533   4.631   8.787  0.2317  0.3365  0.1892
 6797TIP3    H142026   3.501   4.548   8.752 -0.2668  0.1704  1.0185
 6797TIP3    H242027   3.627   4.618   8.800  0.7347  0.8599 -2.3552
 6798TIP3   OH242028   4.776   0.374   0.292 -0.2561 -0.1913 -0.7410
 6798TIP3    H142029   4.682   0.359   0.296 -0.4048  0.2127 -2.0857
 6798TIP3    H242030   4.813   0.316   0.358 -1.3815 -0.9684 -0.7743
 6799TIP3   OH242031   1.249   1.764   2.726  0.3774 -0.0923 -0.4286
 6799TIP3    H142032   1.344   1.776   2.720  0.2387  0.4395 -2.7645
 6799TIP3    H242033   1.233   1.681   2.681 -0.2948  0.1772 -0.7064
 6800TIP3   OH242034   0.099   3.564   8.284 -0.2933 -0.2699 -0.3264
 6800TIP3    H142035   0.100   3.477   8.323  0.6429  0.3944  1.2112
 6800TIP3    H242036   0.068   3.622   8.354 -0.2910  0.7249 -1.1212
 6801TIP3   OH242037   6.615   2.398   3.050  0.1094  0.1943  0.1817
 6801TIP3    H142038   6.538   2.391   2.994 -0.2141 -0.1668  0.6609
 6801TIP3    H242039   6.587   2.359   3.133  0.3323  1.3856  0.8449
 6802TIP3   OH242040   5.622   1.569   1.890  0.4662 -0.5279 -0.0790
 6802TIP3    H142041   5.610   1.645   1.946 -0.3385 -1.1915  0.6752
 6802TIP3    H242042   5.555   1.578   1.822  2.1362  0.8433 -1.6249
 6803TIP3   OH242043   4.869   3.527   2.744  0.2234  0.4291 -0.1151
 6803TIP3    H142044   4.828   3.596   2.691  1.6694  1.2434 -0.2050
 6803TIP3    H242045   4.889   3.569   2.828 -1.2722 -0.6253  0.8301
 6804TIP3   OH242046   5.601   4.820   2.105 -0.1989  0.7693 -0.2419
 6804TIP3    H142047   5.563   4.759   2.042 -1.3778  0.0283  1.1438
 6804TIP3    H242048   5.639   4.889   2.050 -0.8399 -0.0276 -1.7729
 6805TIP3   OH242049   4.120   6.287   3.238  0.0501 -0.1381 -0.3478
 6805TIP3    H142050   4.066   6.362   3.265 -0.3492 -0.5784  0.1071
 6805TIP3    H242051   4.124   6.231   3.316  1.5917  0.1165 -0.2118
 6806TIP3   OH242052   1.946   2.236   0.307 -0.3088  0.2561 -0.1050
 6806TIP3    H142053   1.901   2.320   0.318  0.1072  0.5031 -0.2579
 6806TIP3    H242054   2.039   2.259   0.302 -0.2104 -0.1904 -0.4216
 6807TIP3   OH242055   2.783   0.007   3.362  0.4951  0.1626 -0.1972
 6807TIP3    H142056   2.834  -0.073   3.353  0.5809  0.3484 -1.5346
 6807TIP3    H242057   2.699  -0.013   3.320 -0.1791  0.1895  1.0906
 6808TIP3   OH242058   6.824   5.336   1.633 -0.3486  0.0851  0.3227
 6808TIP3    H142059   6.749   5.383   1.596  0.3410  1.0138  0.0664
 6808TIP3    H242060   6.811   5.245   1.607 -0.8129  0.4248 -0.6781
 6809TIP3   OH242061   0.469   5.694   3.337 -0.6706 -0.0291 -0.0848
 6809TIP3    H142062   0.488   5.663   3.425  0.1809 -3.0552 -1.2168
 6809TIP3    H242063   0.393   5.643   3.309  0.7849 -1.2841 -2.0515
 6810TIP3   OH242064   0.274   3.806   1.007 -0.3935 -0.0211  0.1651
 6810TIP3    H142065   0.253   3.824   1.099 -2.4419 -1.5342  0.0801
 6810TIP3    H242066   0.256   3.888   0.961 -2.8484 -0.2015  0.6727
 6811TIP3   OH242067   4.130   2.039   0.980  0.0180  0.6063  0.1604
 6811TIP3    H142068   4.083   1.960   1.006  1.3166 -0.3762 -0.3409
 6811TIP3    H242069   4.084   2.068   0.901 -0.2546  0.1475  0.1423
 6812TIP3   OH242070   3.642   3.092   0.784  0.3383  0.4503 -0.2505
 6812TIP3    H142071   3.653   3.149   0.859  3.0510 -0.8524  0.4782
 6812TIP3    H242072   3.632   3.005   0.821  0.9459 -0.1202 -1.3633
 6813TIP3   OH242073   4.975   2.792   0.960  0.8938 -0.3088 -0.2259
 6813TIP3    H142074   5.041   2.727   0.935  0.5171 -0.4618 -0.8468
 6813TIP3    H242075   5.006   2.827   1.044  2.1261  0.0991 -0.8185
 6814TIP3   OH242076   4.657   5.807   0.370 -0.8942  0.3780  0.2862
 6814TIP3    H142077   4.703   5.763   0.442 -1.2016  2.0294  1.5660
 6814TIP3    H242078   4.720   5.809   0.299 -0.7933 -1.8633  0.2250
 6815TIP3   OH242079   5.610   2.911   2.667  0.4100  0.2470  0.3813
 6815TIP3    H142080   5.547   2.976   2.634  0.2850 -0.2627 -0.4211
 6815TIP3    H242081   5.605   2.918   2.762 -1.8124 -0.6417  0.3977
 6816TIP3   OH242082   4.953   0.850   2.142 -0.3441  0.2483 -0.4631
 6816TIP3    H142083   4.864   0.856   2.176 -0.7761  0.3554 -1.5862
 6816TIP3    H242084   5.004   0.910   2.197 -1.5734  2.5658 -1.7154
 6817TIP3   OH242085   2.317   5.095   8.488  0.0513  0.3679  0.0090
 6817TIP3    H142086   2.287   5.185   8.475  1.1639  0.8626  0.7204
 6817TIP3    H242087   2.252   5.057   8.549 -0.4434  0.6692 -0.3256
 6818TIP3   OH242088   6.768   0.646   2.786 -0.1498 -0.2608 -0.1018
 6818TIP3    H142089   6.679   0.668   2.812  0.3742 -0.2543  1.9239
 6818TIP3    H242090   6.797   0.582   2.852  1.5559  0.2492 -0.2952
 6819TIP3   OH242091   2.595   2.366   1.144  0.2689 -0.2292 -0.0615
 6819TIP3    H142092   2.551   2.282   1.136  0.0002 -0.0554 -0.4699
 6819TIP3    H242093   2.682   2.351   1.108  0.5717 -0.5888  0.7992
 6820TIP3   OH242094   6.010   2.912   3.286  0.1026  0.3301  0.1596
 6820TIP3    H142095   6.099   2.941   3.264  0.6377 -0.7639  0.7977
 6820TIP3    H242096   6.019   2.819   3.306 -1.1096  0.3107  0.7235
 6821TIP3   OH242097   4.538   5.795   2.174 -0.1146 -0.1430  0.6393
 6821TIP3    H142098   4.616   5.740   2.174  0.8758  0.7667 -4.5028
 6821TIP3    H242099   4.572   5.885   2.178 -0.7533  0.2623 -1.5859
 6822TIP3   OH242100   1.947   2.995   0.997 -0.6949  0.0090  0.4372
 6822TIP3    H142101   1.956   3.073   1.052 -0.9201 -0.2172  0.8015
 6822TIP3    H242102   2.033   2.952   1.003 -0.5954  0.1856  0.2986
 6823TIP3   OH242103   1.334   1.500   4.030  0.1978  0.3837 -0.3022
 6823TIP3    H142104   1.377   1.478   4.113  0.2892 -0.3349 -0.5314
 6823TIP3    H242105   1.253   1.544   4.056  0.8526  1.3597  0.1395
 6824TIP3   OH242106   2.872   4.432   8.670 -0.6655  0.4041 -0.6149
 6824TIP3    H142107   2.963   4.463   8.676 -0.5063 -0.1207 -0.2088
 6824TIP3    H242108   2.854   4.428   8.577 -0.1176  0.0958 -0.7151
 6825TIP3   OH242109   3.595   2.798   3.025  0.3877 -0.0218 -0.1037
 6825TIP3    H142110   3.503   2.812   3.051  0.7925 -0.7067  1.8899
 6825TIP3    H242111   3.605   2.703   3.022  1.0766  0.0443 -0.1025
 6826TIP3   OH242112   3.095   3.353   1.269 -0.1790 -0.0115  0.1226
 6826TIP3    H142113   3.091   3.343   1.364 -1.5981 -0.6234  0.0072
 6826TIP3    H242114   3.018   3.405   1.247  0.0855  0.0411 -0.7134
 6827TIP3   OH242115   3.081   2.700   1.638 -0.6924  0.0806  0.4286
 6827TIP3    H142116   3.038   2.631   1.689  0.0699 -1.7842 -1.3402
 6827TIP3    H242117   3.174   2.681   1.645 -0.5117  0.5192 -0.6562
 6828TIP3   OH242118   1.644   0.951   8.791  0.1103 -0.5172 -0.3406
 6828TIP3    H142119   1.677   1.040   8.784  1.2058 -0.8939 -0.2011
 6828TIP3    H242120   1.608   0.932   8.705 -0.5343  0.1993 -0.2427
 6829TIP3   OH242121   2.820   0.981   4.041  0.0522  1.1622 -0.7485
 6829TIP3    H142122   2.760   0.982   4.116 -0.3898  0.1542 -1.0731
 6829TIP3    H242123   2.907   0.985   4.080 -0.1573  0.1804 -0.1360
 6830TIP3   OH242124   2.864   5.792   1.078  0.3667  0.1768  0.0197
 6830TIP3    H142125   2.810   5.798   1.157  2.6911 -0.1569  1.7292
 6830TIP3    H242126   2.848   5.704   1.045  1.4470 -0.7405  1.7845
 6831TIP3   OH242127   4.394   6.820   4.000  0.2859  0.1537  0.1769
 6831TIP3    H142128   4.318   6.763   4.013  0.7392 -0.1848  1.4636
 6831TIP3    H242129   4.357   6.908   3.993 -0.3044 -0.1289 -0.3431
 6832TIP3   OH242130   0.694   6.749   8.703  0.2402  0.0252 -0.3284
 6832TIP3    H142131   0.664   6.836   8.677 -0.6848 -0.2305 -0.1616
 6832TIP3    H242132   0.618   6.692   8.690  0.8774 -0.7945 -0.5912
 6833TIP3   OH242133   2.689   0.131   1.242 -0.0345  0.3786  0.1283
 6833TIP3    H142134   2.654   0.169   1.322  0.3892  1.3374 -0.1267
 6833TIP3    H242135   2.784   0.141   1.250 -0.0477  1.6514 -1.0458
 6834TIP3   OH242136   0.665   5.070   3.018  0.2415  0.3708  0.5573
 6834TIP3    H142137   0.661   5.132   3.090  2.0519 -0.5413  1.5311
 6834TIP3    H242138   0.756   5.041   3.017  0.2990  0.3981 -2.1658
 6835TIP3   OH242139   0.495   0.300   0.425 -0.4130  0.2612  0.7345
 6835TIP3    H142140   0.467   0.308   0.334 -2.4270 -0.9285  1.1965
 6835TIP3    H242141   0.504   0.390   0.456  1.5828  0.7162 -0.9484
 6836TIP3   OH242142   3.742   5.024   2.877 -0.2348  0.1919 -0.0404
 6836TIP3    H142143   3.831   4.998   2.854 -0.4015 -0.3205 -0.1065
 6836TIP3    H242144   3.751   5.115   2.907  0.6289 -0.4758  1.8676
 6837TIP3   OH242145   5.865   1.242   1.068 -0.4616  0.2966 -0.5040
 6837TIP3    H142146   5.944   1.294   1.082 -0.3533 -0.2901  1.3960
 6837TIP3    H242147   5.796   1.307   1.053  0.2465  0.8318 -1.5799
 6838TIP3   OH242148   2.640   0.061   0.749  0.1718 -0.5659  0.1046
 6838TIP3    H142149   2.610   0.126   0.812  0.6066 -0.9896  0.7635
 6838TIP3    H242150   2.719   0.099   0.710 -0.5112  0.0184 -0.7409
 6839TIP3   OH242151   2.061   1.778   1.078  0.5743 -0.2752  0.2732
 6839TIP3    H142152   2.114   1.718   1.132 -0.7793 -1.7830  0.0094
 6839TIP3    H242153   2.001   1.820   1.141  1.0900  0.3372  0.3647
 6840TIP3   OH242154   4.829   1.220   4.155  0.2571  0.2825  0.3583
 6840TIP3    H142155   4.845   1.313   4.142  0.5339  0.1085 -0.6441
 6840TIP3    H242156   4.916   1.180   4.153  0.2196  0.0845  1.6362
 6841TIP3   OH242157   4.536   1.441   8.642  0.4854 -0.2115  0.8377
 6841TIP3    H142158   4.516   1.531   8.666 -1.5344 -0.7321  1.3150
 6841TIP3    H242159   4.584   1.448   8.559 -3.5522  1.2628 -1.6998
 6842TIP3   OH242160   0.716   2.579   1.892 -0.2141 -0.5066 -0.1613
 6842TIP3    H142161   0.700   2.530   1.811 -0.9575  0.1568 -0.4387
 6842TIP3    H242162   0.785   2.641   1.870  0.7858 -1.4725  0.2141
 6843TIP3   OH242163   5.493   3.767   1.216  0.1152  0.0756 -0.3288
 6843TIP3    H142164   5.469   3.856   1.240  1.6990  0.9306 -1.7293
 6843TIP3    H242165   5.424   3.738   1.156  1.0598  1.5044 -2.2047
 6844TIP3   OH242166   5.825   3.163   3.781 -0.5214  0.1289  0.0146
 6844TIP3    H142167   5.846   3.238   3.837 -1.6773  1.3474 -1.1213
 6844TIP3    H242168   5.866   3.088   3.825  2.6212  1.7105  0.0561
 6845TIP3   OH242169   2.028   3.504   1.924  0.2164 -0.1520 -0.2731
 6845TIP3    H142170   2.083   3.577   1.896  0.8461 -0.3763  0.3388
 6845TIP3    H242171   1.939   3.536   1.916  0.4622  0.4246 -0.7206
 6846TIP3   OH242172   2.359   1.778   3.233 -0.0915  0.6298  0.0047
 6846TIP3    H142173   2.283   1.835   3.232  0.4525  1.3775 -1.2235
 6846TIP3    H242174   2.357   1.736   3.319 -0.9421  1.8977  0.6293
 6847TIP3   OH242175   3.986   5.080   1.035 -0.6121 -0.1107 -0.1922
 6847TIP3    H142176   3.931   5.049   0.963 -0.9273 -0.8965  0.3711
 6847TIP3    H242177   3.935   5.061   1.114 -0.8351  1.9168  0.1962
 6848TIP3   OH242178   2.281   1.994   2.220 -0.2758  0.0501  0.0758
 6848TIP3    H142179   2.257   2.065   2.161  0.0705  2.4212  2.5731
 6848TIP3    H242180   2.376   2.001   2.229 -0.3438 -0.1324  1.0593
 6849TIP3   OH242181   4.620   2.242   3.992 -0.0434 -0.0468 -0.3767
 6849TIP3    H142182   4.594   2.151   3.976 -0.7266 -0.1664  1.1356
 6849TIP3    H242183   4.543   2.294   3.967 -0.4761 -0.0967  0.7721
 6850TIP3   OH242184   4.115   1.241   1.690 -0.2333  0.1797  0.3813
 6850TIP3    H142185   4.164   1.314   1.651 -1.6643  1.2395  0.4732
 6850TIP3    H242186   4.169   1.164   1.673  1.1832  1.2089 -0.0011
 6851TIP3   OH242187   3.335   3.455   2.865  0.1388 -0.6384 -0.4598
 6851TIP3    H142188   3.303   3.366   2.884  1.8886 -1.5220 -1.4631
 6851TIP3    H242189   3.278   3.512   2.918 -0.4611 -2.3964  0.9046
 6852TIP3   OH242190   5.516   0.617   1.673  0.3112 -0.2019 -0.2970
 6852TIP3    H142191   5.433   0.662   1.690 -2.5290 -4.8627 -0.0111
 6852TIP3    H242192   5.517   0.606   1.578  0.3472 -0.5476 -0.2564
 6853TIP3   OH242193   1.591   5.848   0.560 -0.3308  0.1321 -0.5309
 6853TIP3    H142194   1.654   5.884   0.622 -0.9947 -1.3064  1.0684
 6853TIP3    H242195   1.636   5.775   0.518 -0.9363 -1.0602  0.7991
 6854TIP3   OH242196   3.350   4.143   0.591  0.0706 -0.2969 -0.2826
 6854TIP3    H142197   3.372   4.228   0.552  0.4032 -0.5680 -0.6964
 6854TIP3    H242198   3.338   4.162   0.684 -0.0134  0.2310 -0.3982
 6855TIP3   OH242199   1.660   0.421   2.273  0.4111  0.0071  0.1019
 6855TIP3    H142200   1.674   0.377   2.357  0.7375 -1.0206 -0.4761
 6855TIP3    H242201   1.565   0.424   2.263  0.3723  0.0749  0.4719
 6856TIP3   OH242202   0.843   3.985   8.174 -0.2039  0.1782  0.7615
 6856TIP3    H142203   0.938   3.985   8.173 -0.1423 -1.9225  0.8632
 6856TIP3    H242204   0.818   4.072   8.144  1.7402  0.6892  0.4991
 6857TIP3   OH242205   3.395   0.342   2.219 -0.0322  0.1319  0.3649
 6857TIP3    H142206   3.355   0.424   2.246  0.9311  0.5379  0.5812
 6857TIP3    H242207   3.487   0.351   2.242 -0.0178 -1.2579  0.9741
 6858TIP3   OH242208   5.408   1.809   1.669 -0.0602 -0.2013  0.1504
 6858TIP3    H142209   5.444   1.897   1.679 -0.6647 -0.0827  1.6706
 6858TIP3    H242210   5.483   1.754   1.648  0.7592  0.3068  1.5866
 6859TIP3   OH242211   4.627   3.928   1.817  0.2328  0.0004 -0.0628
 6859TIP3    H142212   4.720   3.934   1.840 -0.4168 -1.2216  3.4646
 6859TIP3    H242213   4.587   4.003   1.861 -0.5425  0.3547 -1.3163
 6860TIP3   OH242214   2.029   2.757   0.184 -0.1323  0.5066 -0.4151
 6860TIP3    H142215   2.115   2.722   0.207 -0.7869 -0.4562  0.6803
 6860TIP3    H242216   2.043   2.852   0.177  1.0977  0.3221 -0.6701
 6861TIP3   OH242217   3.856   1.191   2.220  0.4637  0.2214  0.4359
 6861TIP3    H142218   3.773   1.145   2.224  0.7872 -0.5620 -1.1256
 6861TIP3    H242219   3.922   1.122   2.218  1.0266  0.7581 -0.4915
 6862TIP3   OH242220   4.121   1.633   3.303  0.5009  0.6234  0.1258
 6862TIP3    H142221   4.067   1.621   3.225  1.3622 -0.6931 -0.2957
 6862TIP3    H242222   4.112   1.551   3.351  2.6056  0.1136 -0.2730
 6863TIP3   OH242223   4.356   5.090   1.271 -0.6091  0.2461  0.1596
 6863TIP3    H142224   4.325   4.999   1.270 -0.6323  0.2546  0.1103
 6863TIP3    H242225   4.354   5.114   1.363 -0.2437  0.0707  0.2150
 6864TIP3   OH242226   6.518   2.597   1.955 -0.1773 -0.0063  0.5438
 6864TIP3    H142227   6.540   2.686   1.928 -2.6621  0.1171 -1.4170
 6864TIP3    H242228   6.430   2.604   1.994 -1.2541 -1.7851 -1.3710
 6865TIP3   OH242229   0.651   3.020   2.608 -0.0382  0.3258 -0.0575
 6865TIP3    H142230   0.595   2.995   2.534  1.3278 -1.5543 -0.5311
 6865TIP3    H242231   0.638   2.951   2.673  2.6247 -0.9575 -0.7215
 6866TIP3   OH242232   4.830   2.400   2.444  0.6402 -0.2532 -0.0664
 6866TIP3    H142233   4.906   2.380   2.499  2.2776  1.8920 -1.3502
 6866TIP3    H242234   4.868   2.423   2.359 -1.5746 -0.3771 -1.1615
 6867TIP3   OH242235   6.480   0.175   3.442 -0.4971  0.5010 -0.5562
 6867TIP3    H142236   6.424   0.167   3.365 -1.9312 -1.7654  0.6094
 6867TIP3    H242237   6.568   0.155   3.410 -0.7768  1.3112 -1.9068
 6868TIP3   OH242238   2.415   2.945   2.153 -0.0633  0.1009  0.4225
 6868TIP3    H142239   2.430   2.992   2.071  0.1019  1.5741  1.2717
 6868TIP3    H242240   2.503   2.920   2.183 -0.1543 -0.8442 -0.0591
 6869TIP3   OH242241   4.079   5.687   3.385 -0.4565 -0.1644  0.3038
 6869TIP3    H142242   4.020   5.641   3.325 -0.3338  1.6888 -1.3238
 6869TIP3    H242243   4.140   5.619   3.414  1.3154 -0.7738 -3.9649
 6870TIP3   OH242244   5.973   6.493   0.356  0.2784  1.0972 -0.1328
 6870TIP3    H142245   5.935   6.414   0.396 -1.8973  0.8099 -2.5313
 6870TIP3    H242246   5.989   6.551   0.430  0.5888 -1.0097  1.5786
 6871TIP3   OH242247   2.081   3.652   3.413  0.0505 -0.6160  0.1618
 6871TIP3    H142248   2.022   3.591   3.456  0.4572 -0.8684  0.3638
 6871TIP3    H242249   2.165   3.607   3.410 -0.0659 -0.8116 -1.3219
 6872TIP3   OH242250   4.366   0.284   4.031  0.1838 -1.3258  0.3787
 6872TIP3    H142251   4.420   0.344   3.980 -0.3746 -1.3173 -0.2015
 6872TIP3    H242252   4.424   0.257   4.103  1.1313 -1.6895 -0.4938
 6873TIP3   OH242253   3.379   0.821   3.510 -0.3155 -0.8606  0.2820
 6873TIP3    H142254   3.454   0.868   3.474 -0.6311 -0.8643 -0.4046
 6873TIP3    H242255   3.323   0.804   3.434 -1.3204 -0.2916  0.8767
 6874TIP3   OH242256   2.674   0.074   4.041  0.3803 -0.0332  0.2750
 6874TIP3    H142257   2.752   0.034   4.080  0.7813  0.0949 -0.3953
 6874TIP3    H242258   2.620  -0.000   4.014 -0.2141 -0.1442  1.6391
 6875TIP3   OH242259   0.408   4.906   0.651 -0.4829  0.1894  0.5635
 6875TIP3    H142260   0.386   4.855   0.729  0.4304  1.2435  1.5382
 6875TIP3    H242261   0.375   4.994   0.670  0.0743  0.5480 -0.0886
 6876TIP3   OH242262   3.786   3.132   0.511  0.0092 -0.8106  0.3495
 6876TIP3    H142263   3.747   3.106   0.594  1.3467  1.7225  1.9160
 6876TIP3    H242264   3.748   3.218   0.492 -0.7704 -1.5913 -2.1040
 6877TIP3   OH242265   6.744   4.145   1.962 -0.8508  0.1079 -0.0729
 6877TIP3    H142266   6.797   4.182   2.033 -0.3052 -0.0899 -0.3747
 6877TIP3    H242267   6.778   4.057   1.949 -0.1427  0.5403 -1.3713
 6878TIP3   OH242268   1.248   3.426   3.442  0.4791  0.1857  0.2308
 6878TIP3    H142269   1.250   3.477   3.523 -1.9750  0.2090  0.3505
 6878TIP3    H242270   1.271   3.488   3.373 -1.6253  1.3016  0.4683
 6879TIP3   OH242271   6.202   1.091   1.533 -0.1174  0.1448  0.3877
 6879TIP3    H142272   6.154   1.054   1.460 -0.5949  0.6619  0.4392
 6879TIP3    H242273   6.248   1.166   1.496  0.7717 -0.4242  0.3054
 6880TIP3   OH242274   5.637   1.620   3.734 -0.4032 -0.2194  0.5492
 6880TIP3    H142275   5.676   1.565   3.665 -1.8271 -0.9900  0.3262
 6880TIP3    H242276   5.564   1.569   3.767 -0.6822  0.8112  1.5907
 6881TIP3   OH242277   4.033   3.567   3.417  0.0652 -0.2467  0.1273
 6881TIP3    H142278   4.119   3.526   3.421  0.3863  0.4575  0.6890
 6881TIP3    H242279   4.051   3.661   3.422 -0.7735 -0.1236  1.1742
 6882TIP3   OH242280   1.330   5.439   0.870 -0.5304  0.0742  0.3663
 6882TIP3    H142281   1.343   5.531   0.847 -0.8758  0.4535  1.6453
 6882TIP3    H242282   1.353   5.433   0.962 -0.1645 -1.2102  0.2261
 6883TIP3   OH242283   5.416   4.163   3.907  0.3938  0.1623  0.2980
 6883TIP3    H142284   5.359   4.168   3.830  0.4917 -2.1146 -0.0143
 6883TIP3    H242285   5.355   4.151   3.980  0.3784 -0.6546  0.1660
 6884TIP3   OH242286   0.944   1.779   0.115  0.0146 -0.0695  0.9141
 6884TIP3    H142287   0.917   1.870   0.107 -2.0718 -0.7008  0.3770
 6884TIP3    H242288   0.994   1.776   0.197 -1.1593  1.2682  1.7090
 6885TIP3   OH242289   0.315   5.141   2.131 -0.1900 -0.2349 -0.0283
 6885TIP3    H142290   0.342   5.195   2.205  1.2542 -0.8598 -0.0759
 6885TIP3    H242291   0.225   5.169   2.113 -0.8133 -0.4912  2.3410
 6886TIP3   OH242292   4.852   2.370   3.670 -0.1249 -0.5596  0.0051
 6886TIP3    H142293   4.877   2.425   3.744  0.8998 -0.0538 -0.6792
 6886TIP3    H242294   4.761   2.348   3.686 -0.2472  0.4613  0.8526
 6887TIP3   OH242295   4.490   2.824   2.427 -0.1289  0.2474  0.3356
 6887TIP3    H142296   4.492   2.872   2.344 -0.5030  0.8956  0.6925
 6887TIP3    H242297   4.582   2.809   2.449 -0.0298 -0.6734 -0.6075
 6888TIP3   OH242298   1.081   5.625   1.951 -0.5693  0.7247 -0.0972
 6888TIP3    H142299   1.082   5.537   1.989 -0.0700  0.4278 -0.7875
 6888TIP3    H242300   1.060   5.611   1.859 -0.3352  1.3183 -0.2455
 6889TIP3   OH242301   4.470   5.028   1.954  0.6681 -0.1040  0.0191
 6889TIP3    H142302   4.440   5.044   2.043 -0.2515 -2.8606  0.3155
 6889TIP3    H242303   4.538   5.093   1.939 -2.5625  3.8511  0.8045
 6890TIP3   OH242304   5.283   4.314   0.040 -0.3286  0.3166 -0.3211
 6890TIP3    H142305   5.226   4.284  -0.031 -1.9811 -1.4711  1.6203
 6890TIP3    H242306   5.330   4.389   0.003 -3.0106  1.1193 -2.4697
 6891TIP3   OH242307   2.545   2.559   0.955 -0.0335 -0.3743 -0.1802
 6891TIP3    H142308   2.539   2.530   0.865  0.2595 -1.0320  0.0070
 6891TIP3    H242309   2.560   2.479   1.006  0.3389  0.0470  0.3893
 6892TIP3   OH242310   2.360   6.365   2.823  0.0762 -0.5277 -0.0643
 6892TIP3    H142311   2.443   6.413   2.824  0.8213 -1.7863  0.0749
 6892TIP3    H242312   2.317   6.391   2.904  0.6102 -0.3342  0.1647
 6893TIP3   OH242313   5.442   2.889   3.029 -0.1056 -0.4712  0.0300
 6893TIP3    H142314   5.463   2.804   2.989 -0.6512 -0.7937  0.4047
 6893TIP3    H242315   5.481   2.885   3.116  1.0801  0.2296 -0.4473
 6894TIP3   OH242316   4.356   3.777   1.416  0.0174  0.4634  0.1333
 6894TIP3    H142317   4.357   3.724   1.337 -0.8569  0.4816  0.1024
 6894TIP3    H242318   4.289   3.844   1.400  0.2188  0.8072  0.6715
 6895TIP3   OH242319   6.403   3.112   0.649  0.0880 -0.0489  0.0919
 6895TIP3    H142320   6.463   3.166   0.597  0.2379 -1.0073 -0.7738
 6895TIP3    H242321   6.455   3.036   0.674 -0.9381 -1.2552 -1.2975
 6896TIP3   OH242322   1.197   4.468   0.344  0.0978  0.0015  0.1681
 6896TIP3    H142323   1.177   4.548   0.392 -0.4857  0.3993 -0.7065
 6896TIP3    H242324   1.171   4.487   0.254 -1.8219 -1.7655  0.2599
 6897TIP3   OH242325   2.892   3.845   1.983 -0.0468 -0.1044  0.2866
 6897TIP3    H142326   2.874   3.907   1.912 -0.1679  0.0400  0.4442
 6897TIP3    H242327   2.819   3.856   2.044  0.3511  0.1831  0.7189
 6898TIP3   OH242328   0.727   6.618   1.348  0.1852  0.3705 -0.3035
 6898TIP3    H142329   0.691   6.532   1.326 -1.5112  1.2378 -1.1975
 6898TIP3    H242330   0.822   6.606   1.346  0.0070 -1.2486 -1.4012
 6899TIP3   OH242331   6.111   4.665   3.797 -1.0164 -0.5326 -0.6715
 6899TIP3    H142332   6.078   4.707   3.875  0.8452 -1.8164  0.9019
 6899TIP3    H242333   6.193   4.710   3.777 -0.7356 -1.1595 -0.9944
 6900TIP3   OH242334   0.215   1.606   4.318  0.1964 -0.1217 -0.3912
 6900TIP3    H142335   0.223   1.681   4.259 -1.1937 -0.1215 -0.6154
 6900TIP3    H242336   0.160   1.544   4.271 -0.2778 -0.4543  0.5810
 6901TIP3   OH242337   6.312   2.925   0.051 -0.0844  0.0182 -0.0190
 6901TIP3    H142338   6.256   2.897  -0.022  2.0139 -2.1037 -0.9359
 6901TIP3    H242339   6.330   2.844   0.099 -0.6808  1.2347  2.4184
 6902TIP3   OH242340   0.153   0.066   1.864  0.5109  0.4125 -0.4340
 6902TIP3    H142341   0.177   0.106   1.947  2.0382 -1.2430 -0.0120
 6902TIP3    H242342   0.064   0.033   1.878 -0.8160  3.5031 -0.8150
 6903TIP3   OH242343   5.384   4.832   4.061 -0.5949 -0.0210 -0.0227
 6903TIP3    H142344   5.347   4.844   3.973 -2.4117 -1.1777  0.5514
 6903TIP3    H242345   5.471   4.796   4.045 -0.3659  1.0294 -1.3654
 6904TIP3   OH242346   1.614   1.591   0.741  0.7995  0.3422 -0.2071
 6904TIP3    H142347   1.554   1.639   0.798  1.9422  0.8806  0.5741
 6904TIP3    H242348   1.571   1.590   0.656 -0.5756  0.2193  0.4563
 6905TIP3   OH242349   4.216   5.060   0.527  0.2179  0.8086 -0.2846
 6905TIP3    H142350   4.176   5.119   0.463 -0.6064  2.1499  1.3801
 6905TIP3    H242351   4.180   4.974   0.505  0.6743  1.0337 -2.1558
 6906TIP3   OH242352   4.470   2.916   2.154 -0.3240 -0.2365 -0.2974
 6906TIP3    H142353   4.530   2.989   2.138 -1.6586  0.8515 -0.4871
 6906TIP3    H242354   4.383   2.956   2.159 -0.9694 -1.6654  0.7821
 6907TIP3   OH242355   4.192   4.501   0.811 -0.2057 -0.0600 -0.2413
 6907TIP3    H142356   4.191   4.589   0.774  0.0645 -0.8744 -2.3218
 6907TIP3    H242357   4.105   4.465   0.792 -0.1908 -0.3854  0.2671
 6908TIP3   OH242358   6.711   2.000   0.169 -0.4853  0.6211 -0.2659
 6908TIP3    H142359   6.687   2.011   0.261 -0.2163 -0.7154 -0.0066
 6908TIP3    H242360   6.790   1.946   0.171 -1.6952 -1.3435 -1.3006
 6909TIP3   OH242361   6.429   6.643   1.888  0.6017 -0.0667 -0.0481
 6909TIP3    H142362   6.385   6.720   1.925 -1.4027 -0.9775 -0.4310
 6909TIP3    H242363   6.414   6.649   1.794  0.0594 -1.1403 -0.0393
 6910TIP3   OH242364   1.524   0.427   0.220 -0.6728  0.1728  0.4035
 6910TIP3    H142365   1.505   0.380   0.139 -0.4995  0.4484  0.1998
 6910TIP3    H242366   1.485   0.513   0.208  0.4487  0.6506  0.0918
 6911TIP3   OH242367   0.645   3.821   1.672  0.5312  0.2364  0.2354
 6911TIP3    H142368   0.579   3.889   1.659  0.2349 -0.2569 -1.0681
 6911TIP3    H242369   0.607   3.761   1.736  0.6807  1.1449  1.1859
 6912TIP3   OH242370   3.636   2.436   2.589 -0.1092  0.3459 -0.0543
 6912TIP3    H142371   3.572   2.450   2.519 -0.3807  3.0714  0.6198
 6912TIP3    H242372   3.720   2.430   2.543 -0.5737 -0.9005 -0.7857
 6913TIP3   OH242373   4.353   2.919   0.467 -0.0444 -0.2771  0.7788
 6913TIP3    H142374   4.378   2.868   0.390 -2.0482 -0.1268 -0.0269
 6913TIP3    H242375   4.322   2.854   0.530 -2.3320 -0.1516 -0.1431
 6914TIP3   OH242376   3.584   0.362   1.936 -0.1163 -0.3651 -0.0007
 6914TIP3    H142377   3.514   0.313   1.980  0.0038 -1.4181 -0.9393
 6914TIP3    H242378   3.648   0.381   2.005 -1.1333  0.3020  0.7960
 6915TIP3   OH242379   0.844   5.299   3.137  0.4524  0.1653  0.0003
 6915TIP3    H142380   0.931   5.258   3.132  0.1482 -0.3431 -1.5693
 6915TIP3    H242381   0.838   5.351   3.057 -1.8327 -2.1956 -1.5100
 6916TIP3   OH242382   2.446   3.743   1.377  0.1317 -0.1668  0.3955
 6916TIP3    H142383   2.488   3.702   1.301 -2.1287  0.4427 -1.3056
 6916TIP3    H242384   2.440   3.673   1.442  0.1921 -1.3611 -0.8281
 6917TIP3   OH242385   4.749   6.153   0.776 -0.7567  0.0195  0.2010
 6917TIP3    H142386   4.732   6.231   0.828  0.4295  1.0931 -0.9298
 6917TIP3    H242387   4.843   6.158   0.755 -0.9852 -0.8554 -1.2084
 6918TIP3   OH242388   0.930   2.566   8.479 -0.0097  0.5856  0.1333
 6918TIP3    H142389   1.003   2.508   8.501 -0.5032  0.8801  2.9615
 6918TIP3    H242390   0.856   2.507   8.466 -0.1184  0.4352  1.2795
 6919TIP3   OH242391   0.318   6.021   2.076 -0.1801  0.1209  0.3723
 6919TIP3    H142392   0.343   6.079   2.148 -0.0403 -0.1854  0.5709
 6919TIP3    H242393   0.369   5.941   2.090  0.3077  0.2796 -0.4066
 6920TIP3   OH242394   1.221   2.415   1.590  0.3219  0.7834 -0.2575
 6920TIP3    H142395   1.312   2.424   1.563  0.0100  0.0938 -1.6104
 6920TIP3    H242396   1.214   2.470   1.669  2.0474  0.3248  0.2622
 6921TIP3   OH242397   5.238   2.574   1.678 -0.3454  0.1091 -0.6976
 6921TIP3    H142398   5.307   2.557   1.742 -0.3424  0.4873 -0.5977
 6921TIP3    H242399   5.157   2.547   1.721 -0.4463  1.1566 -0.2019
 6922TIP3   OH242400   5.424   0.694   1.001 -0.1036  0.4833 -0.5536
 6922TIP3    H142401   5.334   0.716   1.026 -0.3107  1.7108 -2.1690
 6922TIP3    H242402   5.414   0.623   0.936  0.2839 -1.0985  1.0319
 6923TIP3   OH242403   2.634   5.636   8.328 -0.4233 -0.3864 -0.1340
 6923TIP3    H142404   2.618   5.598   8.414  1.8214 -1.4232 -0.1068
 6923TIP3    H242405   2.595   5.574   8.267  0.2724 -1.0112  0.0481
 6924TIP3   OH242406   0.918   6.629   0.856 -0.3692  0.1052 -0.2204
 6924TIP3    H142407   0.962   6.711   0.837  1.1705 -0.5203  0.4706
 6924TIP3    H242408   0.826   6.652   0.868  0.3069  2.0393  1.8943
 6925TIP3   OH242409   1.465   4.192   2.497 -0.0954  0.6818 -0.3428
 6925TIP3    H142410   1.477   4.098   2.484 -0.5294  0.7084 -0.9980
 6925TIP3    H242411   1.370   4.203   2.509  0.0824  0.9021  0.9419
 6926TIP3   OH242412   0.613   4.355   0.233 -0.0195  0.3661 -0.4737
 6926TIP3    H142413   0.639   4.320   0.318  0.5685  1.7795 -0.0369
 6926TIP3    H242414   0.668   4.309   0.169 -0.3125 -0.5416 -0.0818
 6927TIP3   OH242415   5.050   5.207   4.031  0.2538 -0.1049 -0.6179
 6927TIP3    H142416   5.110   5.140   4.064  1.9531  0.6783 -1.9450
 6927TIP3    H242417   4.964   5.182   4.065  1.2384 -1.5746  0.9128
 6928TIP3   OH242418   2.004   5.696   3.455  0.4501  0.1066  0.3838
 6928TIP3    H142419   2.096   5.716   3.438  0.8144 -1.3516  0.4456
 6928TIP3    H242420   1.996   5.603   3.433 -1.4003  0.5669 -1.1668
 6929TIP3   OH242421   1.535   1.161   2.950  0.3080  0.2133  0.3337
 6929TIP3    H142422   1.575   1.075   2.963  1.3931  0.2773 -2.1230
 6929TIP3    H242423   1.529   1.198   3.038 -0.2878 -2.3773  1.4872
 6930TIP3   OH242424   0.795   4.399   3.691 -0.3689 -0.5528  0.2885
 6930TIP3    H142425   0.844   4.351   3.757  1.9081  0.6022 -0.4774
 6930TIP3    H242426   0.732   4.451   3.740 -1.4068 -2.5938  1.2493
 6931TIP3   OH242427   4.363   1.976   2.302  0.3991  0.1709  0.2210
 6931TIP3    H142428   4.346   1.882   2.304  0.5152  0.1512  0.3638
 6931TIP3    H242429   4.278   2.016   2.286  0.2034  0.0797  0.9785
 6932TIP3   OH242430   5.862   2.062   0.062  0.2389  0.0583  0.2138
 6932TIP3    H142431   5.851   2.003  -0.013 -0.3203  2.3158 -1.6204
 6932TIP3    H242432   5.776   2.063   0.105  1.2587 -3.3522  2.7262
 6933TIP3   OH242433   5.099   6.042   3.693 -0.2833  0.1992  0.5231
 6933TIP3    H142434   5.122   5.954   3.723 -0.1959  0.4206  1.1302
 6933TIP3    H242435   5.017   6.062   3.740  0.1676  0.7806  1.0697
 6934TIP3   OH242436   1.394   4.379   4.192 -0.7706  0.0424 -0.1666
 6934TIP3    H142437   1.380   4.417   4.279 -2.2525  1.9308 -1.1578
 6934TIP3    H242438   1.403   4.285   4.208 -0.0836  0.4299  2.1032
 6935TIP3   OH242439   1.911   0.877   3.400  0.4662  0.2305  0.2579
 6935TIP3    H142440   1.878   0.965   3.381 -1.2566  0.0308  2.0095
 6935TIP3    H242441   1.833   0.828   3.428  1.6321 -1.4618  0.6687
 6936TIP3   OH242442   6.477   4.944   0.811  0.3292 -0.2704  0.1185
 6936TIP3    H142443   6.566   4.939   0.847 -0.2775 -3.7131  1.5709
 6936TIP3    H242444   6.457   5.037   0.809  2.0551  0.4770  4.7698
 6937TIP3   OH242445   3.129   0.452   1.943  0.6950 -0.3271 -0.3710
 6937TIP3    H142446   3.126   0.516   2.014  2.7352 -1.2440  0.6112
 6937TIP3    H242447   3.075   0.380   1.974  1.3498 -0.6038  0.1374
 6938TIP3   OH242448   0.947   2.662   8.209  0.2973  0.0312  0.3057
 6938TIP3    H142449   0.924   2.585   8.157 -0.0489 -1.8592  3.0131
 6938TIP3    H242450   0.938   2.632   8.300  2.5732  2.5512  1.4910
 6939TIP3   OH242451   5.887   1.037   3.067  0.4198 -0.5123 -0.1623
 6939TIP3    H142452   5.837   0.966   3.108 -1.6165  0.6380 -0.4936
 6939TIP3    H242453   5.969   1.040   3.115 -0.5653 -1.3464  1.6620
 6940TIP3   OH242454   5.659   6.463   8.281  0.5753  0.0247 -0.1505
 6940TIP3    H142455   5.741   6.419   8.304 -1.0685 -2.3582  1.6236
 6940TIP3    H242456   5.594   6.426   8.341 -2.0553  0.9292 -2.2326
 6941TIP3   OH242457   2.910   1.085   0.166 -0.1452  0.5105 -0.7568
 6941TIP3    H142458   2.998   1.070   0.130 -0.1898  0.8953 -1.0284
 6941TIP3    H242459   2.855   1.100   0.090 -0.4397  0.3335 -0.5811
 6942TIP3   OH242460   4.283   3.691   3.005  0.4884 -0.0636  0.2896
 6942TIP3    H142461   4.342   3.706   3.078  1.9752  0.0882 -0.8947
 6942TIP3    H242462   4.308   3.605   2.971 -0.8213 -0.5623  0.5096
 6943TIP3   OH242463   3.460   3.038   2.824 -0.5014 -0.0370  0.0793
 6943TIP3    H142464   3.551   3.038   2.855 -0.4865 -1.8551  0.1465
 6943TIP3    H242465   3.466   3.067   2.734  0.5039 -2.2733 -0.6590
 6944TIP3   OH242466   4.603   6.380   8.720  0.6147 -0.0382  0.5271
 6944TIP3    H142467   4.570   6.469   8.706 -0.3836 -0.3799  0.5975
 6944TIP3    H242468   4.624   6.377   8.814  0.3708  0.0457  0.5875
 6945TIP3   OH242469   6.736   3.470   1.364 -0.0377 -0.4386 -0.4414
 6945TIP3    H142470   6.666   3.439   1.421 -0.2787 -1.7971 -1.4451
 6945TIP3    H242471   6.808   3.409   1.380  1.1869  1.2513  0.9955
 6946TIP3   OH242472   1.057   1.713   3.263 -0.2185  0.5382  0.1744
 6946TIP3    H142473   1.054   1.742   3.354 -1.5691  0.3060  0.2334
 6946TIP3    H242474   1.123   1.768   3.221  1.1230 -0.0124  1.5070
 6947TIP3   OH242475   2.973   6.182   3.593 -0.2530  0.5617  0.3570
 6947TIP3    H142476   2.885   6.146   3.606 -0.1241 -0.2785 -0.9439
 6947TIP3    H242477   2.992   6.166   3.501  0.9486  1.4783  0.4272
 6948TIP3   OH242478   2.791   0.058   1.582  0.0609  0.2197  0.8605
 6948TIP3    H142479   2.743   0.100   1.654 -0.5268  1.5453 -0.2550
 6948TIP3    H242480   2.818   0.131   1.526 -1.3259 -0.8877 -1.3766
 6949TIP3   OH242481   6.266   0.928   2.512  0.2714  0.0310 -0.9276
 6949TIP3    H142482   6.203   0.997   2.493 -0.4500 -0.3646 -0.0439
 6949TIP3    H242483   6.339   0.973   2.554  0.2887  0.4022 -1.3511
 6950TIP3   OH242484   0.090   3.763   1.629  0.5475 -0.6203  0.1483
 6950TIP3    H142485   0.175   3.742   1.669  0.2009  0.3466  1.4554
 6950TIP3    H242486   0.113   3.816   1.552  1.1046  0.7095  1.1981
 6951TIP3   OH242487   1.269   5.587   1.620  0.0303  0.0555 -0.4628
 6951TIP3    H142488   1.245   5.662   1.566 -0.7821  0.6203  0.6347
 6951TIP3    H242489   1.320   5.624   1.692  2.1825 -0.8373 -1.4324
 6952TIP3   OH242490   6.225   1.322   2.794 -0.6281 -0.0528 -0.0920
 6952TIP3    H142491   6.144   1.289   2.832  0.2488  0.7757  2.7250
 6952TIP3    H242492   6.225   1.416   2.814  0.1409  0.3425 -1.7719
 6953TIP3   OH242493   4.637   6.502   0.144 -0.0666 -0.4138 -0.0554
 6953TIP3    H142494   4.550   6.523   0.177  0.6119  0.2134  1.4336
 6953TIP3    H242495   4.692   6.574   0.175  0.8345 -0.3680 -1.6971
 6954TIP3   OH242496   2.952   2.046   1.761  0.0034  0.5186 -0.6428
 6954TIP3    H142497   2.983   2.117   1.705  1.7944  1.3835  1.3331
 6954TIP3    H242498   3.024   2.028   1.821 -1.6008 -0.7428  1.0521
 6955TIP3   OH242499   3.853   2.583   2.010 -0.0140 -0.0503  0.3090
 6955TIP3    H142500   3.793   2.606   2.081 -0.5610  0.0205 -0.1624
 6955TIP3    H242501   3.796   2.545   1.942  0.4025  0.4441 -0.3365
 6956TIP3   OH242502   3.578   4.956   3.142 -0.0715 -0.4740  0.6603
 6956TIP3    H142503   3.583   4.985   3.051  0.8430 -0.3313  0.7453
 6956TIP3    H242504   3.657   4.991   3.182  0.1297 -1.5354  1.2209
 6957TIP3   OH242505   2.082   5.260   3.324 -0.4300 -0.2744 -0.2222
 6957TIP3    H142506   2.172   5.286   3.341 -1.0616  0.3621  2.8175
 6957TIP3    H242507   2.031   5.306   3.391 -3.3544  1.2224 -3.1655
 6958TIP3   OH242508   3.464   3.380   1.300  0.7875 -0.6467 -0.5730
 6958TIP3    H142509   3.473   3.464   1.344 -0.2440 -0.5661 -0.5131
 6958TIP3    H242510   3.413   3.326   1.361 -0.7480 -0.5047 -1.6812
 6959TIP3   OH242511   3.642   2.560   2.819  0.0163  0.0594 -0.8693
 6959TIP3    H142512   3.627   2.499   2.747 -0.3385  0.0380 -0.7816
 6959TIP3    H242513   3.645   2.505   2.897 -0.6135  0.1778 -0.7537
 6960TIP3   OH242514   5.966   5.514   1.884 -0.4757  0.1122 -0.8219
 6960TIP3    H142515   5.933   5.517   1.795 -0.4589 -2.9213 -1.0467
 6960TIP3    H242516   6.047   5.565   1.882 -0.9513  0.8437 -2.2935
 6961TIP3   OH242517   5.145   4.606   0.752 -0.0947 -0.3523 -0.3727
 6961TIP3    H142518   5.227   4.621   0.706 -0.2727  1.3441 -0.1996
 6961TIP3    H242519   5.151   4.659   0.832 -1.5523  0.2802 -0.6338
 6962TIP3   OH242520   1.244   5.434   3.324 -0.3892  0.0737 -0.4800
 6962TIP3    H142521   1.227   5.400   3.237 -1.5953  0.0116 -0.2404
 6962TIP3    H242522   1.335   5.463   3.322 -0.4725  0.2745 -1.8135
 6963TIP3   OH242523   1.587   4.997   1.706  0.6090  0.0096 -0.3031
 6963TIP3    H142524   1.526   5.030   1.773  0.3082 -3.1582  1.2234
 6963TIP3    H242525   1.530   4.957   1.640  0.9717  0.6760 -1.0276
 6964TIP3   OH242526   0.477   0.937   2.346  0.8362  0.4085 -0.5015
 6964TIP3    H142527   0.406   0.878   2.372  0.8905  1.2874  1.9726
 6964TIP3    H242528   0.460   0.958   2.255 -1.9628  0.3956 -0.0713
 6965TIP3   OH242529   1.613   5.057   1.300 -0.1652 -0.3510  0.3796
 6965TIP3    H142530   1.644   5.086   1.214  0.5489  1.0339  1.0665
 6965TIP3    H242531   1.566   4.976   1.283 -0.3466  0.0897 -1.3680
 6966TIP3   OH242532   0.561   1.433   2.265  0.0348  0.4640  0.4675
 6966TIP3    H142533   0.512   1.510   2.239 -0.2487  0.0209 -0.3394
 6966TIP3    H242534   0.501   1.360   2.251  1.0193 -0.1227 -0.8915
 6967TIP3   OH242535   5.543   3.233   1.012  0.0670 -0.2027 -0.4458
 6967TIP3    H142536   5.600   3.225   1.088 -0.0977 -0.4138 -0.3435
 6967TIP3    H242537   5.479   3.300   1.037  0.4605  0.2653 -0.6818
 6968TIP3   OH242538   0.019   1.538   1.595  0.0911 -0.4126 -0.3647
 6968TIP3    H142539  -0.044   1.610   1.594 -0.8387 -1.2022 -1.1898
 6968TIP3    H242540   0.032   1.517   1.502 -0.1098 -1.6682 -0.1227
 6969TIP3   OH242541   5.641   2.280   1.504 -0.3033 -0.3026 -0.2258
 6969TIP3    H142542   5.586   2.242   1.572  0.5137 -1.9387 -0.4294
 6969TIP3    H242543   5.588   2.277   1.425 -0.2923 -0.9428 -0.2153
 6970TIP3   OH242544   3.182   1.877   0.785  0.0188 -0.2960  0.4081
 6970TIP3    H142545   3.101   1.925   0.766 -0.3068 -1.5461 -1.6982
 6970TIP3    H242546   3.165   1.833   0.868 -1.2020  0.0107  0.3408
 6971TIP3   OH242547   0.330   1.149   0.564 -0.1110  0.4143 -0.2800
 6971TIP3    H142548   0.294   1.207   0.631  0.5467  1.5786 -0.9036
 6971TIP3    H242549   0.269   1.075   0.560 -1.1991  1.2750  0.2290
 6972TIP3   OH242550   4.959   3.382   1.752  0.3490  0.4491  0.3591
 6972TIP3    H142551   5.046   3.381   1.712  2.0265 -3.6054  3.4123
 6972TIP3    H242552   4.905   3.328   1.693  0.9954 -0.1869  0.3343
 6973TIP3   OH242553   1.368   0.058   1.336  0.1668  0.0308 -0.5846
 6973TIP3    H142554   1.321   0.108   1.404  1.4500 -0.6317  0.8655
 6973TIP3    H242555   1.427   0.001   1.386  2.1257  0.4606 -2.2948
 6974TIP3   OH242556   1.593   0.498   0.914 -0.1371 -0.8107 -0.1168
 6974TIP3    H142557   1.653   0.560   0.956 -0.4261 -0.9342  0.4948
 6974TIP3    H242558   1.648   0.446   0.855  0.4090 -1.1035  0.6385
 6975TIP3   OH242559   5.528   4.578   1.088 -0.2334 -0.0402 -0.0216
 6975TIP3    H142560   5.549   4.639   1.158 -1.2176 -0.6060  0.7988
 6975TIP3    H242561   5.465   4.625   1.033  1.1975  0.7293 -1.0601
 6976TIP3   OH242562   1.906   3.889   0.169 -0.0608 -0.0850 -0.2250
 6976TIP3    H142563   1.847   3.885   0.244  0.4271  0.7028  0.2214
 6976TIP3    H242564   1.991   3.916   0.206  0.2727 -0.0123 -1.0056
 6977TIP3   OH242565   5.024   1.688   0.303  0.2777  1.0017 -0.5420
 6977TIP3    H142566   5.110   1.673   0.344  0.5805  0.0085 -1.5125
 6977TIP3    H242567   4.995   1.771   0.341  1.8005  1.5177 -0.4129
 6978TIP3   OH242568   1.296   5.118   0.130  0.4805 -0.1627  0.2137
 6978TIP3    H142569   1.355   5.170   0.076  1.7409 -0.2860  1.4088
 6978TIP3    H242570   1.320   5.027   0.111  0.2402 -0.2284  0.2238
 6979TIP3   OH242571   0.883   4.868   0.328  0.1082  0.5992 -0.1589
 6979TIP3    H142572   0.809   4.810   0.313  1.7225 -1.2223 -1.6147
 6979TIP3    H242573   0.950   4.813   0.368  1.3556  1.6877 -0.6562
 6980TIP3   OH242574   0.986   3.703   3.309 -0.1470  0.0399 -0.1968
 6980TIP3    H142575   1.053   3.758   3.270 -0.2605  0.7643  0.6067
 6980TIP3    H242576   1.019   3.613   3.298  0.5740  0.3385 -0.5098
 6981TIP3   OH242577   6.319   3.104   8.306 -0.5192  0.0751 -0.4654
 6981TIP3    H142578   6.273   3.023   8.284 -0.8838  0.3838 -0.8627
 6981TIP3    H242579   6.405   3.095   8.266  0.3021 -1.1046  1.4471
 6982TIP3   OH242580   4.947   3.031   1.687  0.5155  0.6341 -0.3378
 6982TIP3    H142581   5.013   2.961   1.680  0.8372  0.6350  1.7933
 6982TIP3    H242582   4.988   3.106   1.644  1.6544  0.4341  0.3304
 6983TIP3   OH242583   2.234   4.461   1.999 -0.0265  0.6574  0.2259
 6983TIP3    H142584   2.261   4.370   2.009 -0.5930  0.4175 -0.3710
 6983TIP3    H242585   2.141   4.462   2.023  0.5719  1.5931  2.8726
 6984TIP3   OH242586   2.615   6.221   3.440  0.0745 -0.0338  0.0263
 6984TIP3    H142587   2.529   6.180   3.433 -0.7306  1.6333 -0.2833
 6984TIP3    H242588   2.661   6.169   3.507 -1.7236 -0.0560  1.3240
 6985TIP3   OH242589   0.658   2.712   3.254  0.1755 -0.1230  0.7019
 6985TIP3    H142590   0.658   2.807   3.248 -0.6436 -0.0284  1.9015
 6985TIP3    H242591   0.741   2.690   3.296  0.2924  0.0656  0.5700
 6986TIP3   OH242592   1.534   1.903   1.016  0.2909  0.0102  0.1767
 6986TIP3    H142593   1.625   1.883   0.993  0.0661  0.3052 -1.0894
 6986TIP3    H242594   1.515   1.846   1.090  1.6075  0.1878  0.6873
 6987TIP3   OH242595   3.495   2.616   0.659 -0.4381 -0.5510  0.4381
 6987TIP3    H142596   3.571   2.663   0.625  0.5505 -1.9403  0.6243
 6987TIP3    H242597   3.477   2.549   0.592  0.6216 -2.3673  1.8560
 6988TIP3   OH242598   6.168   3.351   0.147 -0.3981  0.2336  0.6044
 6988TIP3    H142599   6.186   3.350   0.053 -0.9644  1.4557  0.4713
 6988TIP3    H242600   6.168   3.258   0.172  2.9306 -0.0199  0.0468
 6989TIP3   OH242601   5.424   0.283   0.272  0.7003  0.8181 -0.4519
 6989TIP3    H142602   5.465   0.329   0.199 -1.3412  0.2135 -2.0870
 6989TIP3    H242603   5.346   0.335   0.293  1.1471  0.8813  1.2276
 6990TIP3   OH242604   2.715   4.154   1.956 -0.0271 -0.0472 -0.0625
 6990TIP3    H142605   2.798   4.164   1.909 -0.1467  0.7052 -0.1306
 6990TIP3    H242606   2.721   4.216   2.029 -0.2462 -0.4991  0.3425
 6991TIP3   OH242607   3.828   5.241   2.529 -0.0954  0.1471  0.4037
 6991TIP3    H142608   3.923   5.244   2.533 -0.0775  2.3989 -0.4395
 6991TIP3    H242609   3.800   5.251   2.620  0.4491 -0.3649  0.6374
 6992TIP3   OH242610   4.544   1.463   4.098  0.4423  0.2095  0.0108
 6992TIP3    H142611   4.615   1.489   4.158  3.0644  1.1330 -3.1590
 6992TIP3    H242612   4.552   1.524   4.025 -2.9091 -0.5071 -1.1140
 6993TIP3   OH242613   2.807   0.545   2.629 -0.5383  0.4804  0.0532
 6993TIP3    H142614   2.832   0.460   2.666  0.2164  0.7029  0.0699
 6993TIP3    H242615   2.825   0.536   2.535  0.5476  0.9558  0.1973
 6994TIP3   OH242616   1.099   2.853   1.387 -0.3280  0.0818  0.3676
 6994TIP3    H142617   1.140   2.908   1.453  1.6963 -0.1778 -0.6141
 6994TIP3    H242618   1.139   2.767   1.398  1.6268  0.5003 -2.4170
 6995TIP3   OH242619   5.610   2.226   2.562 -0.7120 -0.2270 -0.4109
 6995TIP3    H142620   5.605   2.208   2.468  1.5752  0.7143 -0.7694
 6995TIP3    H242621   5.631   2.319   2.568  1.5824 -0.7495  0.9083
 6996TIP3   OH242622   3.181   3.919   3.098  0.2399 -0.4139 -0.0917
 6996TIP3    H142623   3.148   3.921   3.188  1.2845 -1.1174  0.3343
 6996TIP3    H242624   3.271   3.949   3.105  0.0675  0.3611 -1.0485
 6997TIP3   OH242625   3.595   0.327   4.359  0.3426 -0.4696  1.1494
 6997TIP3    H142626   3.657   0.257   4.379 -0.0915 -1.2334 -0.0548
 6997TIP3    H242627   3.649   0.402   4.336  0.9223 -1.7195 -1.9551
 6998TIP3   OH242628   2.947   5.396   2.686 -0.0960  0.1910  0.6956
 6998TIP3    H142629   3.010   5.338   2.727  0.4805  1.9308  2.4200
 6998TIP3    H242630   2.996   5.476   2.666 -1.0096  0.3829 -0.9916
 6999TIP3   OH242631   1.053   1.228   1.339  0.0061  0.5312 -0.0735
 6999TIP3    H142632   1.025   1.318   1.354  2.2190  1.2150  0.2577
 6999TIP3    H242633   1.051   1.187   1.426  0.5963  0.7435  0.0382
 7000TIP3   OH242634   4.258   4.587   3.752  0.2294 -0.2661  0.3806
 7000TIP3    H142635   4.311   4.660   3.785  0.1194 -0.3240  0.6868
 7000TIP3    H242636   4.293   4.570   3.664 -1.4509  1.8929 -0.8223
 7001TIP3   OH242637   1.825   1.781   0.275 -0.0658 -0.3052  0.1170
 7001TIP3    H142638   1.776   1.757   0.196  0.3391 -0.3610 -0.1189
 7001TIP3    H242639   1.891   1.844   0.245  0.9902 -1.3572  0.1518
 7002TIP3   OH242640   5.706   0.144   2.666 -0.1839  0.0079  0.5955
 7002TIP3    H142641   5.681   0.154   2.574  1.6831  0.1073  0.0628
 7002TIP3    H242642   5.749   0.226   2.689 -0.2245 -0.1956  1.4312
 7003TIP3   OH242643   2.897   0.298   3.045  0.1001 -0.0662 -0.2194
 7003TIP3    H142644   2.825   0.333   3.098  0.6712  0.2621  0.3576
 7003TIP3    H242645   2.942   0.237   3.103 -0.1529 -0.8367 -0.8215
 7004TIP3   OH242646   5.084   5.570   1.504  0.2198 -0.3361  0.1464
 7004TIP3    H142647   5.160   5.590   1.559 -1.0278  0.7881  1.5303
 7004TIP3    H242648   5.025   5.522   1.561 -0.4839 -0.4467 -0.6615
 7005TIP3   OH242649   2.047   5.834   0.855  0.3703  0.4241  0.0783
 7005TIP3    H142650   2.072   5.794   0.938  1.7112  1.3399  0.1332
 7005TIP3    H242651   2.112   5.902   0.839 -0.2080  0.6802 -1.4273
 7006TIP3   OH242652   3.684   3.073   3.390  0.3089  0.7763  0.0160
 7006TIP3    H142653   3.598   3.109   3.412  0.2387  0.1777  0.7595
 7006TIP3    H242654   3.691   3.083   3.295 -0.5784  0.8322 -0.0484
 7007TIP3   OH242655   0.514   5.504   1.324  0.6784 -0.2278  0.1633
 7007TIP3    H142656   0.605   5.498   1.352  0.6102  0.9044  0.6971
 7007TIP3    H242657   0.518   5.549   1.239  0.6696 -0.8645 -0.1743
 7008TIP3   OH242658   6.384   0.887   8.832  0.0793  0.2445 -0.2156
 7008TIP3    H142659   6.393   0.977   8.801  0.3751  0.1263 -0.4816
 7008TIP3    H242660   6.382   0.895   8.928  2.1342  0.3855 -0.1362
 7009TIP3   OH242661   1.949   3.128   8.750 -0.2308 -0.5580  0.2813
 7009TIP3    H142662   1.949   3.223   8.749  0.5348 -0.5021 -2.3514
 7009TIP3    H242663   1.861   3.103   8.722 -0.0318 -0.5762 -0.3456
 7010TIP3   OH242664   2.849   0.722   1.564 -0.0708  0.0538 -0.3726
 7010TIP3    H142665   2.818   0.652   1.508 -0.5044  0.7706 -1.0464
 7010TIP3    H242666   2.901   0.678   1.632  1.4532 -0.7448 -1.9744
 7011TIP3   OH242667   0.039   1.796   3.235  0.5901 -0.7266  0.7245
 7011TIP3    H142668  -0.004   1.712   3.222  1.1969 -0.6370 -2.4879
 7011TIP3    H242669   0.067   1.823   3.148 -0.9812  3.6055  1.3510
 7012TIP3   OH242670   3.745   4.615   2.938  0.0520  0.2690  0.3390
 7012TIP3    H142671   3.755   4.644   2.847 -1.2762 -0.4051 -0.0404
 7012TIP3    H242672   3.784   4.528   2.939 -1.1447 -0.2788  0.0781
 7013TIP3   OH242673   5.199   5.228   8.242 -0.1366  0.1522 -0.0084
 7013TIP3    H142674   5.176   5.138   8.267 -1.6967  0.9045  1.4038
 7013TIP3    H242675   5.143   5.247   8.167 -0.8018  0.4156  0.5552
 7014TIP3   OH242676   5.111   3.154   1.925  0.2588  0.0905 -0.3453
 7014TIP3    H142677   5.154   3.239   1.930 -0.2492  0.3153  0.3506
 7014TIP3    H242678   5.017   3.175   1.924  0.0902 -0.5131  1.2197
 7015TIP3   OH242679   2.347   0.847   2.111 -0.0205  0.2298 -0.4069
 7015TIP3    H142680   2.414   0.782   2.129 -0.2759 -0.0613 -0.4997
 7015TIP3    H242681   2.309   0.821   2.027 -0.4412  0.2271 -0.2226
 7016TIP3   OH242682   5.764   2.324   0.120  0.4222 -0.3072 -0.3178
 7016TIP3    H142683   5.812   2.397   0.160  1.0441  0.3673 -2.1960
 7016TIP3    H242684   5.734   2.359   0.036 -0.8732 -1.6572 -0.4483
 7017TIP3   OH242685   6.082   0.438   1.551  0.3624 -0.3087 -1.0087
 7017TIP3    H142686   6.046   0.351   1.570 -0.3351  0.1346 -0.2289
 7017TIP3    H242687   6.039   0.496   1.614  1.4612  0.4702 -0.9446
 7018TIP3   OH242688   1.680   3.334   8.733 -0.5768 -0.0560  0.0896
 7018TIP3    H142689   1.760   3.372   8.768  0.6126 -0.5841 -1.9234
 7018TIP3    H242690   1.656   3.266   8.796 -0.2972  1.0521  1.4565
 7019TIP3   OH242691   5.911   1.651   2.567  0.3429  0.5975 -0.0423
 7019TIP3    H142692   5.898   1.638   2.473 -2.4039 -0.3980  0.3693
 7019TIP3    H242693   5.856   1.584   2.608 -1.2359  3.0894  2.2720
 7020TIP3   OH242694   6.741   5.469   2.653  0.1560  0.3864  0.2334
 7020TIP3    H142695   6.645   5.462   2.657 -0.0091  1.5587 -0.7526
 7020TIP3    H242696   6.767   5.408   2.585 -0.1098  1.3571 -0.7719
 7021TIP3   OH242697   1.844   3.151   3.490 -0.2060  0.3839  0.1159
 7021TIP3    H142698   1.865   3.142   3.397  1.4570  1.1674  0.3713
 7021TIP3    H242699   1.918   3.110   3.535  1.2444  3.7773  1.1052
 7022TIP3   OH242700   1.882   5.424   2.596 -0.0586  0.1862 -0.4709
 7022TIP3    H142701   1.830   5.493   2.638 -0.4691  0.6365 -1.6753
 7022TIP3    H242702   1.900   5.362   2.666 -0.6127  0.9721  0.3984
 7023TIP3   OH242703   5.508   1.142   0.637 -0.4394  0.3102  0.2254
 7023TIP3    H142704   5.543   1.210   0.580 -3.1639  1.5837 -0.0909
 7023TIP3    H242705   5.568   1.141   0.713  0.4175  2.1209 -0.3642
 7024TIP3   OH242706   6.214   4.068   3.553  0.0592 -0.1644  0.0738
 7024TIP3    H142707   6.134   4.114   3.578 -0.4444  0.7163 -2.7867
 7024TIP3    H242708   6.201   4.044   3.461  2.7094 -0.8024 -0.2304
 7025TIP3   OH242709   6.444   1.162   8.365 -0.2613 -0.4834  0.3017
 7025TIP3    H142710   6.511   1.221   8.330  0.3542 -0.7529  0.9996
 7025TIP3    H242711   6.494   1.094   8.411 -0.9932 -1.0660  0.2509
 7026TIP3   OH242712   0.582   1.969   3.367 -0.2751 -0.1268  0.1912
 7026TIP3    H142713   0.582   2.049   3.315  1.3413  0.0154  0.3787
 7026TIP3    H242714   0.502   1.923   3.340  0.7510 -0.3170 -2.8002
 7027TIP3   OH242715   0.725   0.697   1.541 -0.0876  0.1363 -0.5762
 7027TIP3    H142716   0.674   0.691   1.461 -2.9527  0.8406  1.0471
 7027TIP3    H242717   0.673   0.651   1.607  2.3175 -0.7397  0.8630
 7028TIP3   OH242718   3.121   4.928   1.428 -0.9737 -0.3897  0.3305
 7028TIP3    H142719   3.181   4.992   1.467  0.0506 -0.3239 -1.2216
 7028TIP3    H242720   3.144   4.928   1.335 -0.5732 -3.3773  0.3197
 7029TIP3   OH242721   4.182   4.350   0.493  0.5778  0.4347 -0.2273
 7029TIP3    H142722   4.134   4.279   0.536 -0.1951  1.2566  0.2867
 7029TIP3    H242723   4.192   4.320   0.402 -0.2582 -0.0716 -0.1644
 7030TIP3   OH242724   2.846   3.124   0.916  0.1619 -0.1814 -0.2523
 7030TIP3    H142725   2.910   3.124   0.845  1.8065 -0.5043  1.1425
 7030TIP3    H242726   2.883   3.063   0.980 -1.4410 -0.1728  0.7274
 7031TIP3   OH242727   6.812   6.559   8.227 -0.2543 -0.2309 -1.0784
 7031TIP3    H142728   6.749   6.630   8.238 -0.7279 -0.7106 -0.6233
 7031TIP3    H242729   6.800   6.504   8.304  1.1712  0.0006 -0.6495
 7032TIP3   OH242730   3.272   2.877   0.295 -0.0356  0.5536  0.1982
 7032TIP3    H142731   3.238   2.963   0.270 -1.3516 -0.1249 -0.3845
 7032TIP3    H242732   3.277   2.881   0.391 -2.4841  0.4496  0.3855
 7033TIP3   OH242733   1.655   4.528   0.991 -0.3628  0.2290  0.0811
 7033TIP3    H142734   1.745   4.497   0.986  0.4770  2.2154  1.3574
 7033TIP3    H242735   1.622   4.493   1.074 -0.7555 -0.4874 -0.3800
 7034TIP3   OH242736   4.289   6.647   2.081 -0.2876 -0.1786  0.4533
 7034TIP3    H142737   4.305   6.641   1.986  0.2471 -0.1507  0.5361
 7034TIP3    H242738   4.195   6.662   2.089 -0.7070 -2.2330 -0.0196
 7035TIP3   OH242739   1.450   2.361   2.886 -0.6159  0.4736  0.4371
 7035TIP3    H142740   1.457   2.405   2.802  1.8448  2.1310  1.4210
 7035TIP3    H242741   1.447   2.268   2.864  0.9624  0.8114 -1.4694
 7036TIP3   OH242742   2.066   0.836   4.041  0.4755  0.1954  0.1235
 7036TIP3    H142743   1.982   0.802   4.070 -1.4274  2.2293 -2.4786
 7036TIP3    H242744   2.074   0.805   3.950  1.8074  1.2582 -0.1552
 7037TIP3   OH242745   3.095   3.120   8.653 -0.1888 -0.6587 -0.1691
 7037TIP3    H142746   3.136   3.192   8.700 -1.5067 -0.1508  0.2615
 7037TIP3    H242747   3.101   3.145   8.561 -0.5891 -0.0100 -0.0251
 7038TIP3   OH242748   4.427   6.504   2.282 -0.0393 -0.5233  0.0464
 7038TIP3    H142749   4.518   6.510   2.253  0.1155  1.3168  0.8163
 7038TIP3    H242750   4.380   6.567   2.228 -0.3211  0.5998  1.5399
 7039TIP3   OH242751   1.228   1.246   0.191 -0.3191  0.7750  0.0046
 7039TIP3    H142752   1.285   1.323   0.196  0.6375  0.1450 -0.7169
 7039TIP3    H242753   1.258   1.200   0.113  1.2702 -1.9545  2.0568
 7040TIP3   OH242754   2.943   1.363   3.401  0.0390  0.1969  0.3300
 7040TIP3    H142755   2.981   1.451   3.402 -0.1910  0.3370  2.4094
 7040TIP3    H242756   2.862   1.372   3.451  0.5682 -1.3848  1.5759
 7041TIP3   OH242757   0.587   4.302   2.656  0.7492  0.3229 -1.0389
 7041TIP3    H142758   0.515   4.258   2.702  0.6950  0.2870 -1.1568
 7041TIP3    H242759   0.580   4.393   2.682  0.6883  0.3114 -1.0144
 7042TIP3   OH242760   5.207   0.097   0.270  0.1865 -0.8422 -0.4433
 7042TIP3    H142761   5.283   0.156   0.276 -0.3331  0.2100 -3.0564
 7042TIP3    H242762   5.167   0.101   0.357  1.3577  1.0398  0.0726
 7043TIP3   OH242763   6.027   1.095   1.309  0.1444 -0.0456  0.4335
 7043TIP3    H142764   5.965   1.165   1.290  0.0794  0.1608  1.3596
 7043TIP3    H242765   6.049   1.058   1.224  0.4981  1.3825 -0.1295
 7044TIP3   OH242766   5.620   2.435   0.510  0.0195  0.1565 -0.4261
 7044TIP3    H142767   5.694   2.403   0.561 -1.4158 -0.5857  1.3046
 7044TIP3    H242768   5.616   2.529   0.529  0.4319  0.1736 -0.4227
 7045TIP3   OH242769   5.780   2.299   2.960  0.3381  0.1887 -0.7536
 7045TIP3    H142770   5.686   2.286   2.949  0.3716 -0.3025 -0.5017
 7045TIP3    H242771   5.802   2.371   2.901 -0.1219  0.0227 -1.1308
 7046TIP3   OH242772   6.580   0.367   0.536 -0.0826 -0.3616  0.1680
 7046TIP3    H142773   6.640   0.406   0.599 -0.5185 -0.0711  0.4142
 7046TIP3    H242774   6.518   0.318   0.590 -0.4911 -0.0657 -0.0282
 7047TIP3   OH242775   6.710   6.812   1.958  0.6050 -0.6293  0.2432
 7047TIP3    H142776   6.653   6.815   1.881  1.5147  1.1201 -0.4106
 7047TIP3    H242777   6.651   6.828   2.032  0.1365  0.5398 -0.3678
 7048TIP3   OH242778   5.835   6.443   2.012  0.3115  0.0941 -0.3917
 7048TIP3    H142779   5.904   6.408   2.070 -0.9387 -0.4035  0.8552
 7048TIP3    H242780   5.771   6.482   2.072  0.3413  2.1873 -1.6118
 7049TIP3   OH242781   4.403   4.018   1.617  0.3812 -0.0444 -0.6039
 7049TIP3    H142782   4.468   4.088   1.622  0.9126 -0.5985  2.7241
 7049TIP3    H242783   4.323   4.061   1.587  1.1448  1.6127 -0.3587
 7050TIP3   OH242784   5.723   5.448   0.931 -0.6474 -0.1292  0.0096
 7050TIP3    H142785   5.646   5.400   0.901 -0.7051 -0.8312  1.2068
 7050TIP3    H242786   5.698   5.481   1.018  0.6187 -0.9291  0.7090
 7051TIP3   OH242787   2.694   0.840   3.814 -0.3963  0.4089  0.5519
 7051TIP3    H142788   2.744   0.767   3.851  1.5686  0.8727 -1.0194
 7051TIP3    H242789   2.725   0.917   3.859  0.3493  0.7026 -0.4342
 7052TIP3   OH242790   1.660   5.658   0.864  0.1606  0.0343  0.4372
 7052TIP3    H142791   1.744   5.634   0.828 -0.0813  0.8585 -0.7401
 7052TIP3    H242792   1.676   5.742   0.908 -0.2512  0.7341 -0.7172
 7053TIP3   OH242793   5.629   6.564   2.916 -0.3600  0.1541 -0.1898
 7053TIP3    H142794   5.590   6.652   2.921 -1.8363 -0.4496 -0.4163
 7053TIP3    H242795   5.596   6.529   2.832  2.6309  0.4681 -1.6061
 7054TIP3   OH242796   4.094   0.923   1.598  1.0349  0.1963  0.2998
 7054TIP3    H142797   4.160   0.973   1.645  1.9087  0.3114 -1.0191
 7054TIP3    H242798   4.143   0.870   1.536 -0.0567 -0.3413 -0.1312
 7055TIP3   OH242799   0.631   4.004   2.772  0.1932 -0.0874  0.1823
 7055TIP3    H142800   0.671   4.088   2.793  0.3715 -0.0879 -0.1384
 7055TIP3    H242801   0.546   4.005   2.816  0.2586  0.1989  0.2995
 7056TIP3   OH242802   6.268   3.047   3.232  0.9135 -0.6455  0.3064
 7056TIP3    H142803   6.249   3.071   3.141 -1.0579 -0.3696  0.7361
 7056TIP3    H242804   6.306   3.126   3.271  2.7121 -1.0764 -0.4965
 7057TIP3   OH242805   5.017   2.367   1.142 -0.5084 -0.0385  0.2997
 7057TIP3    H142806   4.965   2.294   1.177  1.7677 -1.9870 -0.1537
 7057TIP3    H242807   4.999   2.440   1.202 -3.6159 -0.5796  0.2211
 7058TIP3   OH242808   2.416   0.440   2.604 -0.1004 -1.1409 -0.0635
 7058TIP3    H142809   2.377   0.470   2.687 -0.0119 -0.4732 -0.2554
 7058TIP3    H242810   2.342   0.436   2.544  0.1075  0.1911 -0.4456
 7059TIP3   OH242811   4.072   4.921   1.541  0.6561  0.3890  0.0189
 7059TIP3    H142812   4.047   4.916   1.633 -0.2102 -1.0682 -0.2486
 7059TIP3    H242813   4.039   4.839   1.504  0.1723  1.3593 -1.7830
 7060TIP3   OH242814   1.685   2.546   0.821  0.3910  0.5105  0.2061
 7060TIP3    H142815   1.712   2.613   0.758 -0.1717  2.9747  2.3650
 7060TIP3    H242816   1.710   2.583   0.906  0.1483 -2.1369  1.5150
 7061TIP3   OH242817   3.550   5.814   3.471 -0.0983 -0.1874 -0.1593
 7061TIP3    H142818   3.511   5.727   3.473  1.6006 -1.0055 -0.7032
 7061TIP3    H242819   3.620   5.811   3.536 -0.1840  0.8654 -0.0001
 7062TIP3   OH242820   0.267   3.946   4.035  0.6090  0.5520  0.0309
 7062TIP3    H142821   0.316   3.867   4.055 -1.2709 -0.6975 -0.0487
 7062TIP3    H242822   0.183   3.935   4.081  0.1849  2.3665 -0.2125
 7063TIP3   OH242823   5.304   0.723   3.169  0.0510 -0.4316  0.0000
 7063TIP3    H142824   5.243   0.673   3.114 -0.1572 -0.2466  0.0626
 7063TIP3    H242825   5.353   0.777   3.106 -0.6450  0.2715  0.0536
 7064TIP3   OH242826   0.341   1.074   4.084  0.1180  0.0381 -0.0861
 7064TIP3    H142827   0.311   1.163   4.068 -0.4448  0.2992  2.0221
 7064TIP3    H242828   0.261   1.023   4.093  0.4267 -0.5219 -0.4554
 7065TIP3   OH242829   5.092   6.632   0.644  0.6442 -0.5193 -0.4730
 7065TIP3    H142830   5.033   6.647   0.719 -1.3879 -1.1022 -1.8625
 7065TIP3    H242831   5.139   6.715   0.635  0.0205  0.0039  0.6841
 7066TIP3   OH242832   0.108   1.479   1.315  0.1834  0.0036  0.3018
 7066TIP3    H142833   0.203   1.465   1.309  0.5243  1.4644  1.6435
 7066TIP3    H242834   0.070   1.398   1.284  1.8214  0.2657 -2.7591
 7067TIP3   OH242835   5.284   1.813   8.716 -0.4541 -0.0594 -0.2057
 7067TIP3    H142836   5.307   1.736   8.768 -0.3127  1.1314  1.6173
 7067TIP3    H242837   5.342   1.810   8.641 -0.8842 -2.0441 -0.5293
 7068TIP3   OH242838   0.491   2.820   1.820 -0.1289  0.3751 -0.5776
 7068TIP3    H142839   0.432   2.827   1.745 -1.1115 -0.2982  0.1077
 7068TIP3    H242840   0.579   2.820   1.782 -0.6463 -1.7526 -1.8903
 7069TIP3   OH242841   4.173   4.712   2.273  0.5343 -0.2838  0.3411
 7069TIP3    H142842   4.116   4.787   2.254 -1.4046 -1.4490  1.3071
 7069TIP3    H242843   4.203   4.727   2.362  0.7793 -0.2684  0.2563
 7070TIP3   OH242844   3.949   2.382   2.580 -0.0669 -0.4767  0.1541
 7070TIP3    H142845   4.003   2.409   2.654 -0.0497  0.4479 -0.1882
 7070TIP3    H242846   3.982   2.432   2.506  0.2600 -1.7728 -0.6113
 7071TIP3   OH242847   4.056   3.579   1.256 -0.6218  0.3255 -0.4928
 7071TIP3    H142848   4.144   3.549   1.231 -0.3195 -0.5595  1.4866
 7071TIP3    H242849   3.998   3.533   1.196  0.0118 -2.5364  0.9062
 7072TIP3   OH242850   2.650   0.308   0.276  0.0105 -0.1888  0.7638
 7072TIP3    H142851   2.585   0.359   0.229  2.8400  1.2642 -1.9533
 7072TIP3    H242852   2.643   0.220   0.240  0.7700  0.4258 -0.9985
 7073TIP3   OH242853   6.417   2.424   1.711  0.0440  0.3317  0.4986
 7073TIP3    H142854   6.502   2.440   1.671  0.5088  0.5343  1.5148
 7073TIP3    H242855   6.436   2.420   1.805 -0.5303 -2.9668  0.5945
 7074TIP3   OH242856   2.395   6.131   0.821 -0.4238 -0.2588 -0.2694
 7074TIP3    H142857   2.332   6.129   0.893 -0.7039  0.0687 -0.5014
 7074TIP3    H242858   2.454   6.204   0.843 -0.4889 -0.1804 -0.3539
 7075TIP3   OH242859   5.113   0.490   0.859 -0.8311  0.4299 -0.0372
 7075TIP3    H142860   5.125   0.520   0.949 -1.1779 -1.9621  0.8915
 7075TIP3    H242861   5.199   0.501   0.818 -0.7966  1.9949  0.4028
 7076TIP3   OH242862   5.358   1.607   1.120  0.3900  0.3776  0.7534
 7076TIP3    H142863   5.424   1.675   1.107  0.9721 -0.2962  0.0979
 7076TIP3    H242864   5.386   1.535   1.063  0.0273 -0.5786  1.7434
 7077TIP3   OH242865   2.831   0.510   3.319  0.0267 -0.6966  0.0988
 7077TIP3    H142866   2.894   0.544   3.256  0.1218  1.5643  1.3393
 7077TIP3    H242867   2.877   0.511   3.403 -0.6763 -1.9689  0.5298
 7078TIP3   OH242868   2.553   6.436   3.268 -0.3972  0.6678  0.3305
 7078TIP3    H142869   2.565   6.358   3.322 -0.8591  0.0535 -0.4320
 7078TIP3    H242870   2.480   6.414   3.210  0.3752  1.1219 -0.8553
 7079TIP3   OH242871   3.882   0.588   1.453 -0.7877  0.5647  0.6811
 7079TIP3    H142872   3.914   0.628   1.373  0.1922 -0.7699  0.3710
 7079TIP3    H242873   3.787   0.581   1.441 -0.8138  1.6600  0.2527
 7080TIP3   OH242874   1.574   3.659   2.357 -0.4108  0.2534  0.6667
 7080TIP3    H142875   1.633   3.733   2.343  1.8197 -1.0553  2.4304
 7080TIP3    H242876   1.507   3.692   2.417  0.9824  0.6859  2.0298
 7081TIP3   OH242877   0.656   2.054   2.791 -0.4738 -0.2450 -0.0062
 7081TIP3    H142878   0.739   2.010   2.813 -0.8411 -0.9437  0.0257
 7081TIP3    H242879   0.591   1.984   2.796 -1.3706  0.6564  1.8663
 7082TIP3   OH242880   3.467   3.211   1.997 -0.2676  0.1971  0.1511
 7082TIP3    H142881   3.534   3.220   1.928  1.2949 -0.3700  1.5164
 7082TIP3    H242882   3.448   3.301   2.023  0.2068  0.3598 -0.0426
 7083TIP3   OH242883   3.610   0.548   3.137  0.1969 -0.4342 -0.5312
 7083TIP3    H142884   3.702   0.528   3.154  0.4797 -0.3648 -1.8698
 7083TIP3    H242885   3.568   0.541   3.222  1.1686 -1.9514 -0.1367
 7084TIP3   OH242886   6.430   6.110   2.995  0.2339  0.2382  0.3258
 7084TIP3    H142887   6.407   6.083   2.906 -0.5913 -1.4410  0.9981
 7084TIP3    H242888   6.461   6.029   3.037  0.0906  0.8790  1.7158
 7085TIP3   OH242889   1.873   2.736   0.393  0.2840 -0.0808  0.7175
 7085TIP3    H142890   1.814   2.663   0.374  0.8020 -0.1301 -0.8980
 7085TIP3    H242891   1.936   2.734   0.321  0.2463  2.0190  0.5744
 7086TIP3   OH242892   4.613   4.272   3.195  0.1778 -0.0664 -0.4711
 7086TIP3    H142893   4.582   4.268   3.105 -0.0337 -0.2008 -0.3923
 7086TIP3    H242894   4.542   4.313   3.244  0.1609 -0.2936 -0.3056
 7087TIP3   OH242895   0.625   2.757   0.493  0.3479  0.0795 -0.3244
 7087TIP3    H142896   0.552   2.809   0.461  0.9540  2.5082  1.9272
 7087TIP3    H242897   0.649   2.701   0.419 -1.1100  2.1660 -2.5166
 7088TIP3   OH242898   6.223   0.245   0.315  0.0474  0.0623 -0.5504
 7088TIP3    H142899   6.181   0.163   0.288 -0.0516  0.1207 -0.5733
 7088TIP3    H242900   6.218   0.244   0.411 -1.5036  0.8475 -0.5912
 7089TIP3   OH242901   5.986   2.097   1.947  0.6652  0.3132  0.4035
 7089TIP3    H142902   5.927   2.080   1.874  1.6919  0.2376 -0.4309
 7089TIP3    H242903   5.931   2.085   2.025 -0.5451  0.7883 -0.3469
 7090TIP3   OH242904   0.031   0.436   1.466  0.2665  0.9391  0.4081
 7090TIP3    H142905   0.019   0.374   1.395  1.5473  2.4981 -1.2601
 7090TIP3    H242906   0.083   0.388   1.531 -0.0802 -0.1996 -0.1359
 7091TIP3   OH242907   4.036   6.683   3.502 -0.0300  0.0576 -0.1155
 7091TIP3    H142908   4.091   6.646   3.571 -1.3330 -0.1242  0.8815
 7091TIP3    H242909   4.007   6.767   3.537  0.4288  0.6166 -1.0572
 7092TIP3   OH242910   1.893   1.947   0.539 -0.1680 -0.2652 -0.0498
 7092TIP3    H142911   1.889   1.873   0.598  0.8628 -0.5639 -0.3378
 7092TIP3    H242912   1.972   1.933   0.487 -0.1573  0.8363 -0.3689
 7093TIP3   OH242913   1.348   3.103   2.769  0.0707 -0.3026  0.1385
 7093TIP3    H142914   1.278   3.108   2.704  0.7781  0.4472 -0.6019
 7093TIP3    H242915   1.415   3.048   2.728 -0.3800 -1.6318  1.1477
 7094TIP3   OH242916   6.622   3.969   0.152 -0.1956  0.7035 -0.1621
 7094TIP3    H142917   6.668   4.018   0.084 -1.9094  1.7770 -0.6031
 7094TIP3    H242918   6.565   3.909   0.104  1.4165 -1.3744  0.3766
 7095TIP3   OH242919   4.757   2.142   1.815 -0.3522  0.8326 -0.5332
 7095TIP3    H142920   4.744   2.107   1.728 -3.0721  2.4207 -0.8661
 7095TIP3    H242921   4.688   2.104   1.868  2.7858 -2.2235  1.7920
 7096TIP3   OH242922   4.900   2.314   8.277  0.0791  0.2358 -0.3603
 7096TIP3    H142923   4.881   2.390   8.333  0.6956  0.9653 -1.1043
 7096TIP3    H242924   4.896   2.349   8.187 -1.3516 -1.0111 -0.8105
 7097TIP3   OH242925   6.071   0.466   0.836  0.7005  0.0703  0.5418
 7097TIP3    H142926   6.112   0.387   0.871  0.7629  0.4353  1.3245
 7097TIP3    H242927   6.014   0.497   0.907 -3.8186 -2.3208 -1.6118
 7098TIP3   OH242928   2.177   6.285   2.305  0.3101 -0.9458  0.2592
 7098TIP3    H142929   2.230   6.298   2.226  0.3305 -0.3222  0.3696
 7098TIP3    H242930   2.194   6.363   2.358 -2.3596  0.3995 -0.6385
 7099TIP3   OH242931   3.461   6.603   3.415  0.0753  0.1964 -0.1215
 7099TIP3    H142932   3.448   6.533   3.351  0.7759 -1.6493  1.6751
 7099TIP3    H242933   3.549   6.636   3.397  0.3208 -0.4057 -0.0369
 7100TIP3   OH242934   6.396   2.225   0.759 -0.2648 -0.2703 -0.3148
 7100TIP3    H142935   6.389   2.257   0.669 -1.3367  0.1349 -0.1079
 7100TIP3    H242936   6.320   2.167   0.770 -0.0285 -0.4791  0.2561
 7101TIP3   OH242937   6.748   0.736   1.948 -0.1557  0.4923 -0.3163
 7101TIP3    H142938   6.656   0.739   1.972  0.3163 -0.4074  1.8240
 7101TIP3    H242939   6.748   0.737   1.852 -2.4336 -0.6813 -0.3922
 7102TIP3   OH242940   5.908   4.191   3.983  0.3218  0.3069 -0.5740
 7102TIP3    H142941   5.886   4.111   3.936 -0.5240  0.3512 -0.2690
 7102TIP3    H242942   5.867   4.180   4.069  1.7261  0.2858  0.1146
 7103TIP3   OH242943   2.306   0.954   1.200 -0.5831 -0.2897  0.8790
 7103TIP3    H142944   2.393   0.958   1.161 -0.1044  0.7434  1.9917
 7103TIP3    H242945   2.290   1.043   1.232 -1.9969 -0.4969  0.8217
 7104TIP3   OH242946   4.969   6.541   3.822  0.0686  0.0990 -0.6050
 7104TIP3    H142947   4.895   6.484   3.804  0.3186 -0.8561  1.1487
 7104TIP3    H242948   4.991   6.524   3.914  0.2377  2.9266 -0.0180
 7105TIP3   OH242949   1.649   4.624   1.370  0.2034 -0.0177  0.0014
 7105TIP3    H142950   1.636   4.695   1.308 -1.5190 -0.4414 -0.1774
 7105TIP3    H242951   1.614   4.547   1.325  0.9803 -0.7586  0.6405
 7106TIP3   OH242952   4.024   5.878   0.823 -0.4924  0.1458 -0.0994
 7106TIP3    H142953   3.970   5.956   0.838 -0.1167  0.4351 -0.2266
 7106TIP3    H242954   4.013   5.860   0.729  1.0861  1.3245 -0.5538
 7107TIP3   OH242955   3.381   2.250   3.642  0.1572 -0.1638 -0.3693
 7107TIP3    H142956   3.306   2.194   3.624  0.3598  0.2323 -2.8306
 7107TIP3    H242957   3.453   2.190   3.661 -0.3733 -0.5939  0.3058
 7108TIP3   OH242958   0.600   2.049   1.550 -0.3671 -0.3842  0.3321
 7108TIP3    H142959   0.632   2.139   1.536  1.8571 -1.1486  0.1679
 7108TIP3    H242960   0.580   2.045   1.644  2.7692 -0.5997  1.1051
 7109TIP3   OH242961   1.007   3.576   1.823 -0.0272  0.5318 -0.0934
 7109TIP3    H142962   0.998   3.633   1.899  0.4747 -0.4093  0.7025
 7109TIP3    H242963   0.929   3.521   1.825  0.2715  0.1078  0.0994
 7110TIP3   OH242964   6.232   5.773   2.219  0.1274 -0.8717  0.3889
 7110TIP3    H142965   6.315   5.730   2.199  1.7324  2.2442 -0.1454
 7110TIP3    H242966   6.245   5.815   2.304 -0.4366  0.6396 -0.2326
 7111TIP3   OH242967   6.209   4.636   0.312  0.1097 -0.0785  0.0357
 7111TIP3    H142968   6.118   4.637   0.343 -0.4803  3.1181 -1.4622
 7111TIP3    H242969   6.206   4.590   0.229  0.0813 -0.8041  0.4256
 7112TIP3   OH242970   6.053   1.676   2.309 -0.5070  0.0159 -0.2587
 7112TIP3    H142971   5.977   1.680   2.250 -0.4731  0.7803 -0.2560
 7112TIP3    H242972   6.114   1.617   2.265 -0.7379  0.0931 -0.6861
 7113TIP3   OH242973   4.504   1.259   2.819  0.4917  0.1693 -0.1492
 7113TIP3    H142974   4.528   1.276   2.728  0.4973  0.8440 -0.0272
 7113TIP3    H242975   4.497   1.164   2.825  2.0945  0.0042 -0.4586
 7114TIP3   OH242976   0.111   1.644   3.509 -0.1176 -0.1847 -0.4091
 7114TIP3    H142977   0.170   1.634   3.434  1.0142 -2.3571  0.6809
 7114TIP3    H242978   0.090   1.554   3.535 -2.7990  0.5037  0.1567
 7115TIP3   OH242979   1.384   5.068   1.896  0.0146 -0.5628  0.1653
 7115TIP3    H142980   1.380   4.973   1.910 -0.0536 -0.4861  0.6641
 7115TIP3    H242981   1.364   5.106   1.981 -1.1937 -0.0885 -0.3167
 7116TIP3   OH242982   2.879   3.638   1.529 -0.3270 -0.4328  0.2492
 7116TIP3    H142983   2.954   3.647   1.589  0.9022 -0.7240 -1.1915
 7116TIP3    H242984   2.847   3.549   1.545 -0.0609 -0.4845  0.5154
 7117TIP3   OH242985   5.552   0.264   1.276  0.2707  0.3204 -0.0958
 7117TIP3    H142986   5.543   0.211   1.197 -1.1342 -0.0892  0.3031
 7117TIP3    H242987   5.646   0.280   1.284  0.4899 -0.1328 -1.5121
 7118TIP3   OH242988   6.095   2.509   0.520 -0.1625  0.6346 -0.4465
 7118TIP3    H142989   6.109   2.485   0.611  0.0603  1.5026 -0.2382
 7118TIP3    H242990   6.043   2.589   0.524 -0.6489  0.3611 -1.1001
 7119TIP3   OH242991   0.018   4.453   1.135  0.7227 -0.2297  0.1995
 7119TIP3    H142992  -0.008   4.470   1.044 -0.4380 -0.2204  0.5153
 7119TIP3    H242993   0.109   4.483   1.140  1.1814 -1.2937 -1.2482
 7120TIP3   OH242994   2.446   3.870   1.625  0.1674  0.2610  0.0900
 7120TIP3    H142995   2.443   3.833   1.536  1.2491  1.2102 -0.3633
 7120TIP3    H242996   2.539   3.863   1.650  0.3383  2.2602  0.1494
 7121TIP3   OH242997   1.033   5.758   2.481  0.0900 -0.6572 -0.7601
 7121TIP3    H142998   0.950   5.804   2.472  0.2746 -0.3322 -0.8359
 7121TIP3    H242999   1.013   5.667   2.460 -0.1122 -0.4575 -1.4424
 7122TIP3   OH243000   1.681   2.204   3.983  0.4849 -0.2501 -0.5558
 7122TIP3    H143001   1.711   2.241   4.066  1.1239 -1.0285 -0.4231
 7122TIP3    H243002   1.604   2.256   3.959  1.3644  1.1860 -0.3997
 7123TIP3   OH243003   5.657   4.781   1.222  0.1364 -0.3755  0.7966
 7123TIP3    H143004   5.708   4.763   1.300 -0.4413 -1.7824  0.8821
 7123TIP3    H243005   5.706   4.739   1.151 -0.3841 -0.9115  0.7400
 7124TIP3   OH243006   1.707   3.502   3.312  0.6323  0.1736 -0.0651
 7124TIP3    H143007   1.787   3.500   3.363  0.8714  1.4130 -0.3579
 7124TIP3    H243008   1.712   3.583   3.261 -0.4586 -0.0921 -0.6513
 7125TIP3   OH243009   2.351   2.986   2.596 -0.5715 -0.2044  0.2936
 7125TIP3    H143010   2.288   2.949   2.534 -0.7442 -0.2622  0.5051
 7125TIP3    H243011   2.432   2.992   2.546 -0.9283  0.5580 -0.2044
 7126TIP3   OH243012   6.093   4.493   2.036 -0.1718  0.4632  0.0886
 7126TIP3    H143013   6.140   4.512   1.955 -0.2974  0.9340  0.1215
 7126TIP3    H243014   6.116   4.565   2.095  0.1907 -0.0477  0.5947
 7127TIP3   OH243015   6.755   2.933   0.544 -0.8229  0.1474 -0.0394
 7127TIP3    H143016   6.704   2.866   0.498 -0.3137  0.4299 -1.0727
 7127TIP3    H243017   6.699   2.963   0.615 -0.9573 -1.5508  0.6105
 7128TIP3   OH243018   5.263   4.488   0.444  0.5233  0.5290  0.1294
 7128TIP3    H143019   5.305   4.437   0.375 -1.2000  0.6355 -1.0719
 7128TIP3    H243020   5.266   4.432   0.521 -0.7356 -1.1474 -0.9768
 7129TIP3   OH243021   4.250   6.571   2.838  0.4978 -0.0762  0.2674
 7129TIP3    H143022   4.252   6.665   2.855 -2.1114  0.0744  0.1189
 7129TIP3    H243023   4.238   6.532   2.925 -0.7309 -0.1017  0.0945
 7130TIP3   OH243024   3.341   0.330   2.571  0.2466 -0.4333  0.0368
 7130TIP3    H143025   3.268   0.381   2.608 -0.3679 -1.2850  0.0314
 7130TIP3    H243026   3.391   0.394   2.521 -0.3276  0.2355  0.2890
 7131TIP3   OH243027   1.940   0.189   0.161  0.0350 -0.1658  0.6494
 7131TIP3    H143028   1.854   0.169   0.197  0.5363 -3.2703  0.4298
 7131TIP3    H243029   1.959   0.115   0.103  2.3158  1.0776 -0.3154
 7132TIP3   OH243030   4.976   6.785   2.362 -0.4784 -0.5804 -0.2721
 7132TIP3    H143031   5.064   6.758   2.387 -0.1146 -0.3142 -1.2216
 7132TIP3    H243032   4.988   6.832   2.280 -1.4299  0.0742 -0.0496
 7133TIP3   OH243033   3.839   2.061   0.580 -0.6288  0.2748  0.0971
 7133TIP3    H143034   3.810   1.970   0.571 -2.1887  0.6894  0.6578
 7133TIP3    H243035   3.876   2.082   0.495 -0.5232 -0.7894 -0.1416
 7134TIP3   OH243036   2.245   3.543   0.080  0.6733  0.0795 -0.4228
 7134TIP3    H143037   2.220   3.633   0.056 -0.8733 -0.6051 -1.5571
 7134TIP3    H243038   2.263   3.500  -0.004  0.9284 -0.7975  0.0723
 7135TIP3   OH243039   4.109   5.173   3.532 -0.2550  0.0095  0.1913
 7135TIP3    H143040   4.186   5.213   3.571 -1.1369  1.0539  0.9326
 7135TIP3    H243041   4.043   5.174   3.602 -1.5834  1.0521 -1.0135
 7136TIP3   OH243042   2.168   4.921   2.248  0.2283 -0.9658  0.8456
 7136TIP3    H143043   2.150   4.850   2.310  0.4666 -0.2443  1.7596
 7136TIP3    H243044   2.145   4.885   2.162 -1.1410 -1.6166  1.4686
 7137TIP3   OH243045   3.251   5.199   2.227  0.0982 -1.0259 -0.2204
 7137TIP3    H143046   3.169   5.216   2.273  0.9624 -0.4936  1.1617
 7137TIP3    H243047   3.248   5.257   2.151 -0.9314 -1.2459 -0.3678
 7138TIP3   OH243048   2.366   4.669   3.193  0.1175 -0.3178  0.1685
 7138TIP3    H143049   2.412   4.743   3.153  0.0417 -0.7595 -0.7665
 7138TIP3    H243050   2.350   4.608   3.120  1.3782 -1.8922  1.1503
 7139TIP3   OH243051   1.302   4.246   1.268 -0.6032  0.5560 -0.0382
 7139TIP3    H143052   1.284   4.174   1.208 -0.4970  1.0473 -0.6732
 7139TIP3    H243053   1.343   4.204   1.344 -1.0793 -0.1177 -0.1426
 7140TIP3   OH243054   3.824   0.706   2.011  0.3207  0.7031  0.0210
 7140TIP3    H143055   3.845   0.750   2.094 -1.5629 -0.4267  1.1991
 7140TIP3    H243056   3.763   0.766   1.968 -3.9097 -1.2606  2.5672
 7141TIP3   OH243057   0.405   5.180   0.972 -0.2476 -0.0416  0.2902
 7141TIP3    H143058   0.352   5.101   0.971  1.6924 -1.4902  2.3237
 7141TIP3    H243059   0.363   5.237   1.037 -1.8355  0.8173 -1.4159
 7142TIP3   OH243060   3.886   6.714   2.634  0.5489  0.0113  0.1953
 7142TIP3    H143061   3.801   6.757   2.648  0.2889  0.5098 -2.3598
 7142TIP3    H243062   3.951   6.781   2.657  0.4132 -0.8234  3.5495
 7143TIP3   OH243063   1.896   5.595   0.778  0.5039  0.7965  0.1242
 7143TIP3    H143064   1.984   5.622   0.803  0.3905  0.8776  0.4419
 7143TIP3    H243065   1.884   5.629   0.690  0.9547  0.4055 -0.0897
 7144TIP3   OH243066   1.348   2.813   8.630 -0.3138 -0.0650  0.0255
 7144TIP3    H143067   1.430   2.787   8.587  0.0415 -0.1280  0.7248
 7144TIP3    H243068   1.355   2.908   8.640 -1.2818  0.2502 -1.8461
 7145TIP3   OH243069   1.247   4.692   1.793 -0.0721  0.9032 -0.5361
 7145TIP3    H143070   1.194   4.621   1.829 -1.5269  2.2188 -0.0058
 7145TIP3    H243071   1.309   4.647   1.735  0.2222 -0.9568  1.1054
 7146TIP3   OH243072   0.522   4.488   0.686 -0.4009 -0.2914  0.3921
 7146TIP3    H143073   0.576   4.431   0.631  0.7234  0.9272  0.1942
 7146TIP3    H243074   0.496   4.433   0.760  1.6725 -0.7275  0.8407
 7147TIP3   OH243075   3.835   6.260   3.139  0.2790  0.1322 -0.1251
 7147TIP3    H143076   3.914   6.273   3.086  0.0106 -1.4518 -0.9677
 7147TIP3    H243077   3.763   6.276   3.078 -0.1203  2.4797  0.8661
 7148TIP3   OH243078   5.384   4.699   2.509 -0.2874 -0.2108 -0.0849
 7148TIP3    H143079   5.410   4.611   2.537  0.4044 -0.8265 -2.4356
 7148TIP3    H243080   5.426   4.758   2.571  1.7531 -1.4401 -0.2184
 7149TIP3   OH243081   2.060   5.087   8.643 -0.0496 -0.8978  0.5802
 7149TIP3    H143082   2.083   4.999   8.613 -0.3338 -1.7080  2.5674
 7149TIP3    H243083   1.965   5.092   8.630 -0.2017 -1.3200  1.4638
 7150TIP3   OH243084   2.723   0.184   3.594 -0.3962  0.7856 -0.8623
 7150TIP3    H143085   2.747   0.111   3.538 -2.7016  0.8306 -2.0547
 7150TIP3    H243086   2.689   0.250   3.533 -1.4794  1.4850  0.4546
 7151TIP3   OH243087   4.679   6.163   2.656 -0.4737  0.0050 -0.4368
 7151TIP3    H143088   4.639   6.215   2.587 -1.8547 -1.0810 -0.5076
 7151TIP3    H243089   4.657   6.208   2.737 -0.9877 -0.0443 -0.5493
 7152TIP3   OH243090   4.177   5.938   0.167 -0.5671 -0.6180  0.4847
 7152TIP3    H143091   4.255   5.950   0.221 -0.3800 -0.7021  0.2334
 7152TIP3    H243092   4.107   5.921   0.231 -0.0021 -2.6348  0.6441
 7153TIP3   OH243093   5.140   3.064   2.231 -0.1174  0.0210  0.2584
 7153TIP3    H143094   5.124   3.105   2.146  0.0044 -2.5198 -1.0796
 7153TIP3    H243095   5.137   3.137   2.294 -0.8688  1.8801 -1.8112
 7154TIP3   OH243096   2.887   2.600   1.853  0.5675  0.1988 -0.3677
 7154TIP3    H143097   2.795   2.625   1.863 -0.1025 -2.2418  0.3877
 7154TIP3    H243098   2.886   2.536   1.781  1.2877 -1.3397  0.9224
 7155TIP3   OH243099   3.194   1.386   4.597 -0.0426 -0.1738  0.5033
 7155TIP3    H143100   3.133   1.321   4.560  0.5448 -0.3057 -0.2799
 7155TIP3    H243101   3.226   1.345   4.678 -0.4533 -0.4177  0.5448
 7156TIP3   OH243102   1.655   1.444   2.940 -0.1768  0.3249  0.3900
 7156TIP3    H143103   1.591   1.380   2.971  1.3539 -0.9775  0.9955
 7156TIP3    H243104   1.626   1.467   2.851 -0.2356 -2.0001 -0.2487
 7157TIP3   OH243105   5.857   0.365   2.613  0.0320  0.5237  0.6084
 7157TIP3    H143106   5.945   0.346   2.579 -0.4577 -1.5139  0.3898
 7157TIP3    H243107   5.809   0.400   2.538 -1.1858 -4.3566 -1.2310
 7158TIP3   OH243108   4.565   5.406   8.744 -0.0291  0.0968 -0.3090
 7158TIP3    H143109   4.566   5.313   8.766 -0.4159  0.1562 -0.0366
 7158TIP3    H243110   4.596   5.409   8.653 -1.1124 -0.4056 -0.7112
 7159TIP3   OH243111   1.556   3.722   1.613 -0.2031  0.4748 -0.0676
 7159TIP3    H143112   1.623   3.774   1.659  1.6914 -1.8226 -0.0630
 7159TIP3    H243113   1.492   3.701   1.682  0.6600  0.1786  0.6662
 7160TIP3   OH243114   0.498   2.453   3.396 -0.0364 -0.7055  0.2959
 7160TIP3    H143115   0.528   2.365   3.375 -0.9792 -0.7445 -1.0140
 7160TIP3    H243116   0.559   2.510   3.350  0.9157 -0.6304  1.6018
 7161TIP3   OH243117   6.267   0.859   0.665  0.6802 -0.6026  0.3413
 7161TIP3    H143118   6.354   0.848   0.628  0.1183 -1.2132 -0.8418
 7161TIP3    H243119   6.279   0.924   0.734  2.1217 -0.8957  0.4099
 7162TIP3   OH243120   6.565   3.319   1.768  0.0015  0.0562 -0.0341
 7162TIP3    H143121   6.613   3.400   1.787  2.3010 -1.4792  1.2360
 7162TIP3    H243122   6.627   3.266   1.719 -0.1994 -2.1354  1.8939
 7163TIP3   OH243123   0.362   0.533   3.083 -0.7731  0.6240 -0.5540
 7163TIP3    H143124   0.367   0.440   3.105 -2.1284  0.7786  0.5269
 7163TIP3    H243125   0.302   0.570   3.148  1.6826  2.7691  0.6880
 7164TIP3   OH243126   5.397   1.571   8.802  0.4015 -0.6050  0.2376
 7164TIP3    H143127   5.394   1.475   8.802 -1.0516 -0.5790  0.0086
 7164TIP3    H243128   5.480   1.592   8.760  0.8211 -1.7604  0.4408
 7165LIG      O43129   4.894   3.435   6.051 -0.0545  0.5733 -0.3331
 7165LIG      N43130   4.732   3.778   5.858 -0.0911 -0.0444 -0.1270
 7165LIG     C143131   4.970   3.546   6.246 -0.4966 -0.6264  0.0482
 7165LIG     C243132   4.859   3.538   6.145 -0.1056 -0.6272  0.2789
 7165LIG     C343133   4.993   3.411   6.321  0.2302 -0.3555 -0.4031
 7165LIG     C443134   5.108   3.585   6.183  0.1647  0.4879  0.0719
 7165LIG     C543135   4.829   3.665   6.055 -0.1763  0.4181  0.2995
 7165LIG     C643136   5.094   3.439   6.437 -0.5358  0.1571 -0.7702
 7165LIG     C743137   5.213   3.604   6.298 -0.3026  0.8054  0.0576
 7165LIG     C843138   5.231   3.480   6.390 -0.1094  0.2825  0.9011
 7165LIG     C943139   4.722   3.665   5.941  0.0288  0.3141  0.2651
 7165LIG    C1043140   4.721   3.515   6.222  0.4595  0.0686 -0.1455
 7165LIG    C1143141   4.856   3.790   5.776  0.0743 -0.3173  0.5249
 7165LIG    C1243142   4.618   3.809   5.779  0.3798  0.1279  0.0413
 7165LIG    C1343143   4.849   3.701   5.651 -0.0082 -0.0218 -0.4628
 7165LIG    C1443144   4.608   3.705   5.665  0.4688  0.1279 -0.6741
 7165LIG    C1543145   4.717   3.726   5.571  0.0207 -0.0344 -0.0145
 7165LIG    C1643146   4.656   3.623   6.286  0.0011  0.8097  0.3573
 7165LIG    C1743147   4.668   3.382   6.224  0.7837 -0.0943  0.0871
 7165LIG    C1843148   4.546   3.591   6.369 -0.1771  0.4733  0.1414
 7165LIG    C1943149   4.556   3.358   6.305 -0.0370 -0.0913 -0.4550
 7165LIG    C2043150   4.493   3.463   6.380 -0.2648  0.0128  0.1862
 7165LIG     H143151   4.942   3.621   6.324 -1.5210  1.5569 -2.2813
 7165LIG     H243152   5.026   3.348   6.236 -0.8296  1.1410 -1.9751
 7165LIG     H343153   4.901   3.372   6.369  0.6105  1.3047  1.8779
 7165LIG     H443154   5.110   3.680   6.126 -1.1190 -0.5029 -1.7394
 7165LIG     H543155   5.154   3.511   6.114 -1.3117  0.1955 -0.6255
 7165LIG     H643156   4.924   3.677   5.998 -0.9281  1.2888 -0.8131
 7165LIG     H743157   4.813   3.757   6.116  3.0209 -0.3294  2.5334
 7165LIG     H843158   5.096   3.349   6.502  1.0675 -0.2383 -1.3309
 7165LIG     H943159   5.053   3.522   6.498 -0.1830  0.8811 -1.5040
 7165LIG    H1043160   5.179   3.689   6.361  0.5453 -0.4442  2.3238
 7165LIG    H1143161   5.316   3.623   6.263 -0.4450  3.4881  0.8899
 7165LIG    H1243162   5.269   3.396   6.329 -3.0938 -1.3818  1.1634
 7165LIG    H1343163   5.302   3.498   6.474  2.5265 -0.4848 -1.0113
 7165LIG    H1443164   4.743   3.572   5.883 -0.9345 -1.2659  2.3340
 7165LIG    H1543165   4.618   3.660   5.979  0.1735 -2.1935  0.5312
 7165LIG    H1643166   4.947   3.755   5.829 -0.5655 -1.8235  0.6821
 7165LIG    H1743167   4.877   3.895   5.746  1.4237 -1.3880 -2.7348
 7165LIG    H1843168   4.613   3.916   5.751 -0.5849 -0.2164 -1.2123
 7165LIG    H1943169   4.528   3.796   5.843  0.1988  2.1851  0.2712
 7165LIG    H2043170   4.925   3.359   6.102 -2.9874  0.3023  1.2377
 7165LIG    H2143171   4.847   3.598   5.692  2.0434 -0.0665 -0.3831
 7165LIG    H2243172   4.946   3.707   5.597 -1.0799 -0.8991 -2.5936
 7165LIG    H2343173   4.510   3.714   5.615 -0.1701 -0.5608  0.4228
 7165LIG    H2443174   4.609   3.597   5.690 -1.1809  0.0540 -0.8061
 7165LIG    H2543175   4.716   3.668   5.476 -2.6380 -0.6405  0.3083
 7165LIG    H2643176   4.728   3.832   5.538 -0.9764  0.5032  1.2974
 7165LIG    H2743177   4.698   3.722   6.291 -0.4319  1.0951 -1.0395
 7165LIG    H2843178   4.703   3.308   6.153 -1.7587 -0.3123 -1.0439
 7165LIG    H2943179   4.511   3.670   6.432 -3.5297 -1.9709  1.6132
 7165LIG    H3043180   4.522   3.255   6.310  0.1147 -0.0940  0.9315
 7165LIG    H3143181   4.408   3.443   6.445  0.3249  1.5557  1.5230
   6.82456   6.82456   8.84703
