Title
43181
    1CHL1    C3    1   1.390   0.210   7.149 -0.0910 -0.4796  0.4501
    1CHL1    H3    2   1.294   0.156   7.142  0.0518 -0.6256 -0.4752
    1CHL1    O3    3   1.410   0.216   7.287  0.1235  0.1633 -0.7467
    1CHL1   H3'    4   1.489   0.269   7.296  0.0661  0.1865 -0.3769
    1CHL1    C4    5   1.500   0.116   7.101 -0.6013  0.4315  0.2211
    1CHL1   H4A    6   1.600   0.155   7.133 -0.8847  3.3073 -2.0274
    1CHL1   H4B    7   1.486   0.023   7.160  1.0799 -0.2676 -0.4192
    1CHL1    C5    8   1.495   0.096   6.951  0.0340  0.0095  0.1517
    1CHL1    C6    9   1.493  -0.027   6.894 -0.3113  0.1369  0.0511
    1CHL1    H6   10   1.485  -0.120   6.953 -1.2865 -0.5155 -1.0635
    1CHL1    C7   11   1.499  -0.043   6.742 -0.1185 -0.1338  0.0287
    1CHL1   H7A   12   1.561  -0.124   6.697 -1.7869 -2.4729  1.6681
    1CHL1   H7B   13   1.393  -0.068   6.717 -0.3415  0.7631  0.0440
    1CHL1    C8   14   1.541   0.089   6.673 -0.7758 -0.3114  1.3243
    1CHL1    H8   15   1.651   0.105   6.676 -0.4687 -2.3483  2.2501
    1CHL1   C14   16   1.512   0.067   6.521 -0.0102 -0.8702 -0.1111
    1CHL1   H14   17   1.401   0.057   6.517 -0.3282  2.0089 -0.3252
    1CHL1   C15   18   1.572  -0.058   6.451 -0.0177  0.8667  0.4686
    1CHL1  H15A   19   1.677  -0.071   6.485 -0.0931  0.4849  0.5663
    1CHL1  H15B   20   1.508  -0.146   6.476 -0.9142  1.4552  0.2627
    1CHL1   C16   21   1.573  -0.019   6.299  0.4896  0.4122 -0.5417
    1CHL1  H16A   22   1.679  -0.015   6.267  1.2764  0.4805  1.8664
    1CHL1  H16B   23   1.510  -0.083   6.233  0.7306  0.0867 -0.4600
    1CHL1   C17   24   1.519   0.129   6.301  0.5372  0.3999 -0.3552
    1CHL1   H17   25   1.412   0.107   6.317  0.3851  1.4597  0.1185
    1CHL1   C13   26   1.555   0.189   6.438  0.1202 -1.1221 -0.4898
    1CHL1   C18   27   1.711   0.214   6.448 -0.1002  0.1275  0.9219
    1CHL1  H18A   28   1.735   0.300   6.382 -0.2001 -0.1338  0.5446
    1CHL1  H18B   29   1.751   0.237   6.549  0.2776  1.3074  0.5114
    1CHL1  H18C   30   1.765   0.126   6.407  1.0848  1.7502 -1.1855
    1CHL1   C12   31   1.465   0.307   6.479  0.2874 -0.1657 -0.8284
    1CHL1  H12A   32   1.500   0.401   6.430  0.3166 -1.4075 -3.3164
    1CHL1  H12B   33   1.359   0.284   6.459 -0.0364 -0.6034  1.1700
    1CHL1   C11   34   1.479   0.328   6.632  0.1422 -0.0067 -0.1896
    1CHL1  H11A   35   1.588   0.348   6.639  0.5736 -1.7455 -1.1682
    1CHL1  H11B   36   1.423   0.420   6.660 -0.7300  0.3379 -2.7651
    1CHL1    C9   37   1.458   0.205   6.722  0.1515 -0.2388  0.0996
    1CHL1    H9   38   1.349   0.181   6.717  0.7074 -2.8879 -1.2315
    1CHL1   C10   39   1.489   0.226   6.867 -0.0854  0.7483 -0.5190
    1CHL1   C19   40   1.617   0.308   6.885 -1.2106 -0.1866  0.1034
    1CHL1  H19A   41   1.703   0.268   6.827 -0.5759  1.1392  0.0790
    1CHL1  H19B   42   1.607   0.410   6.842  0.3336 -1.8350 -4.7511
    1CHL1  H19C   43   1.654   0.325   6.989  0.2039  1.6421 -0.6406
    1CHL1    C1   44   1.377   0.319   6.924  0.7812 -0.0241  0.4899
    1CHL1   H1A   45   1.385   0.419   6.877 -0.9790  0.1878  0.5881
    1CHL1   H1B   46   1.269   0.296   6.912  0.2656  2.2880  0.1354
    1CHL1    C2   47   1.385   0.342   7.072 -0.2847  0.6257  0.0348
    1CHL1   H2A   48   1.296   0.401   7.102 -0.5836 -0.9675  2.5408
    1CHL1   H2B   49   1.477   0.402   7.088  1.5857 -2.0807  0.1941
    1CHL1   C20   50   1.540   0.208   6.173 -0.1134 -1.1390  0.1822
    1CHL1   H20   51   1.621   0.284   6.177 -0.3078 -0.5664 -3.6009
    1CHL1   C21   52   1.412   0.297   6.153 -0.0348 -0.6854  0.6865
    1CHL1  H21A   53   1.388   0.341   6.252 -2.2128 -3.4063  1.4954
    1CHL1  H21B   54   1.325   0.233   6.129 -0.2439 -0.0361 -0.3191
    1CHL1  H21C   55   1.418   0.379   6.079  1.8692 -1.7285 -0.3981
    1CHL1   C22   56   1.561   0.112   6.053 -0.2758  0.1645 -0.4417
    1CHL1  H22A   57   1.654   0.053   6.062 -0.8863 -0.8096 -0.3845
    1CHL1  H22B   58   1.482   0.034   6.046 -0.1888  0.1532 -1.4090
    1CHL1   C23   59   1.567   0.179   5.916 -0.4960 -0.0121  0.1046
    1CHL1  H23A   60   1.468   0.226   5.902 -0.8579 -1.2479 -1.9799
    1CHL1  H23B   61   1.635   0.268   5.918 -0.5867  0.0402  1.1903
    1CHL1   C24   62   1.591   0.094   5.792 -0.3602 -0.0235  1.1458
    1CHL1  H24A   63   1.695   0.056   5.784 -1.5255 -3.2352 -3.1739
    1CHL1  H24B   64   1.528   0.003   5.792 -1.0771  0.4465  2.4819
    1CHL1   C25   65   1.577   0.149   5.650  0.7675 -0.3152  1.0358
    1CHL1   H25   66   1.633   0.244   5.635 -1.8082  0.8461 -3.0887
    1CHL1   C26   67   1.610   0.052   5.540 -0.3076  0.6827 -1.0890
    1CHL1  H26A   68   1.688  -0.018   5.576 -2.6403 -1.8723 -0.6967
    1CHL1  H26B   69   1.516  -0.003   5.522 -1.8900  2.0175  2.2874
    1CHL1  H26C   70   1.647   0.104   5.449 -2.5087 -0.2900 -2.6085
    1CHL1   C27   71   1.434   0.191   5.614  0.2630  0.5023  0.1899
    1CHL1  H27A   72   1.353   0.116   5.633  0.1560 -0.2957 -2.9037
    1CHL1  H27B   73   1.405   0.274   5.682  1.2072  1.3261 -0.3936
    1CHL1  H27C   74   1.437   0.237   5.513  1.6604  1.2705  0.5573
    2CHL1    C3   75   1.937   0.627   6.767  0.3460  0.1077  0.0709
    2CHL1    H3   76   1.897   0.723   6.728  4.7162  1.9748 -0.4219
    2CHL1    O3   77   1.940   0.626   6.909 -0.2293  0.2631  0.0383
    2CHL1   H3'   78   1.984   0.544   6.932 -1.1049  0.3723  2.3626
    2CHL1    C4   79   1.856   0.517   6.694 -0.8806  0.1636 -0.0156
    2CHL1   H4A   80   1.899   0.416   6.715 -1.4141 -0.0516  0.0560
    2CHL1   H4B   81   1.752   0.516   6.733 -1.9570 -1.2333 -2.6706
    2CHL1    C5   82   1.869   0.544   6.546  0.3072  0.6184 -0.6169
    2CHL1    C6   83   1.758   0.576   6.474 -0.6908  0.2006  0.6041
    2CHL1    H6   84   1.657   0.591   6.515 -0.4234  2.3281  0.6112
    2CHL1    C7   85   1.769   0.594   6.325  0.4285 -0.0936 -1.0241
    2CHL1   H7A   86   1.679   0.545   6.283 -2.8770  1.0183  3.8666
    2CHL1   H7B   87   1.753   0.700   6.295  0.3289  0.1475 -0.1353
    2CHL1    C8   88   1.900   0.539   6.262 -0.1902 -0.2043 -0.5723
    2CHL1    H8   89   1.896   0.428   6.252  0.2467  0.0048 -4.6414
    2CHL1   C14   90   1.916   0.585   6.120 -0.2224  0.3433 -0.4591
    2CHL1   H14   91   1.910   0.695   6.128 -3.5047  0.1127  2.1464
    2CHL1   C15   92   1.803   0.550   6.022 -0.1999 -0.2221  0.4925
    2CHL1  H15A   93   1.786   0.445   6.055 -0.1272  0.6374  3.5448
    2CHL1  H15B   94   1.709   0.607   6.035 -0.3014  0.1221 -1.4774
    2CHL1   C16   95   1.864   0.563   5.881 -0.0613  0.2292  0.7592
    2CHL1  H16A   96   1.839   0.465   5.836 -1.0694  0.0680  1.6278
    2CHL1  H16B   97   1.807   0.649   5.839  0.3139 -0.0019 -0.2420
    2CHL1   C17   98   2.013   0.593   5.890  0.1037 -0.6911  0.0976
    2CHL1   H17   99   2.045   0.699   5.886 -0.9952 -0.3788 -1.1806
    2CHL1   C13  100   2.044   0.551   6.043 -0.2467 -0.1436  0.3906
    2CHL1   C18  101   2.073   0.395   6.041  0.0541 -0.2321  0.0845
    2CHL1  H18A  102   2.179   0.379   6.011 -1.0172 -0.9270 -3.9891
    2CHL1  H18B  103   2.074   0.356   6.145  3.5289 -1.5187 -0.3065
    2CHL1  H18C  104   2.001   0.332   5.983  0.0005  0.1610 -0.2796
    2CHL1   C12  105   2.153   0.622   6.118 -0.0485 -0.1993  0.3445
    2CHL1  H12A  106   2.250   0.602   6.067 -0.4211 -0.5033 -0.2647
    2CHL1  H12B  107   2.133   0.730   6.101  3.3541  0.2896 -1.2876
    2CHL1   C11  108   2.153   0.579   6.269  0.3341 -0.1168 -0.7569
    2CHL1  H11A  109   2.190   0.475   6.286 -1.1909 -0.2827  2.0808
    2CHL1  H11B  110   2.227   0.644   6.321  0.3927  0.4598 -1.5450
    2CHL1    C9  111   2.017   0.588   6.346  0.3478 -0.1505 -0.2278
    2CHL1    H9  112   1.991   0.696   6.342 -2.1153 -0.6990 -1.0608
    2CHL1   C10  113   2.015   0.533   6.489  0.5335 -0.1894 -0.6717
    2CHL1   C19  114   2.060   0.382   6.485 -0.0416  0.2600  0.0184
    2CHL1  H19A  115   2.157   0.363   6.434 -0.2347  1.0713 -0.6681
    2CHL1  H19B  116   2.063   0.323   6.579 -1.9344  0.4435  0.2333
    2CHL1  H19C  117   1.984   0.329   6.424  1.9732 -0.8974 -1.6316
    2CHL1    C1  118   2.104   0.625   6.578  0.1137  0.9583  0.1180
    2CHL1   H1A  119   2.211   0.604   6.558  0.0729 -0.6058  1.2772
    2CHL1   H1B  120   2.072   0.730   6.562  1.2083  1.4243  0.9578
    2CHL1    C2  121   2.088   0.613   6.731  0.4936  0.2842  0.1585
    2CHL1   H2A  122   2.154   0.691   6.775  0.8032  0.8684 -1.2799
    2CHL1   H2B  123   2.133   0.518   6.767  0.0371  0.1642  0.4323
    2CHL1   C20  124   2.092   0.522   5.771 -0.2407 -0.4971 -1.7921
    2CHL1   H20  125   2.078   0.414   5.789 -3.2107  0.3105  2.1117
    2CHL1   C21  126   2.243   0.563   5.781 -0.0130  0.7255  0.0002
    2CHL1  H21A  127   2.260   0.669   5.808 -0.5465  0.7003  0.4425
    2CHL1  H21B  128   2.299   0.548   5.686  0.5747 -0.5887  0.5170
    2CHL1  H21C  129   2.298   0.514   5.864  0.3986  2.3502  0.7314
    2CHL1   C22  130   2.031   0.558   5.632 -0.2141 -0.2230 -0.0539
    2CHL1  H22A  131   2.095   0.503   5.560  0.4905  0.1946  0.2354
    2CHL1  H22B  132   1.928   0.519   5.638  0.4747 -2.1528 -0.0347
    2CHL1   C23  133   2.030   0.712   5.600 -0.0892 -0.1189 -0.2755
    2CHL1  H23A  134   1.975   0.779   5.671 -0.2806  0.7660 -1.2399
    2CHL1  H23B  135   2.132   0.756   5.606 -0.3578  0.4025  0.7593
    2CHL1   C24  136   1.970   0.725   5.452  0.3527 -0.0668 -0.0754
    2CHL1  H24A  137   2.026   0.657   5.384  0.0310  0.1942 -0.6028
    2CHL1  H24B  138   1.867   0.682   5.450 -1.1955  3.1343  2.0307
    2CHL1   C25  139   1.962   0.856   5.393  0.4411  0.4820  0.5856
    2CHL1   H25  140   2.060   0.879   5.346 -1.3747  0.7857 -3.4831
    2CHL1   C26  141   1.864   0.870   5.276  0.8917 -0.3292  0.4016
    2CHL1  H26A  142   1.894   0.807   5.190 -1.7164 -0.4970 -0.4769
    2CHL1  H26B  143   1.762   0.850   5.315  2.0023 -1.3192  3.0837
    2CHL1  H26C  144   1.866   0.976   5.243 -0.5919  0.2941  2.1122
    2CHL1   C27  145   1.951   0.974   5.487  0.5313 -0.6284 -0.3717
    2CHL1  H27A  146   1.992   1.064   5.437 -0.1680 -0.8102 -1.3091
    2CHL1  H27B  147   1.844   0.997   5.511  0.1134 -0.9258 -1.8857
    2CHL1  H27C  148   2.012   0.959   5.579  1.7744 -2.2598 -1.4159
    3CHL1    C3  149   2.211   3.950   7.093 -1.1675  1.1026 -0.4645
    3CHL1    H3  150   2.286   3.877   7.058 -2.6754 -1.8419  1.9018
    3CHL1    O3  151   2.190   3.942   7.232  0.1488 -0.2033  0.5203
    3CHL1   H3'  152   2.159   3.852   7.246 -2.6860  0.3540 -1.3628
    3CHL1    C4  153   2.256   4.089   7.046  0.0420 -0.1094  0.3532
    3CHL1   H4A  154   2.190   4.171   7.083 -1.8174 -1.1263 -0.5481
    3CHL1   H4B  155   2.352   4.102   7.101  1.2973 -0.6399 -1.6053
    3CHL1    C5  156   2.270   4.094   6.894 -0.1658 -0.0219  0.4314
    3CHL1    C6  157   2.388   4.129   6.832  0.6438  0.6128  0.8803
    3CHL1    H6  158   2.471   4.165   6.894  2.6667 -0.6925 -0.9372
    3CHL1    C7  159   2.389   4.152   6.676  0.2883 -0.0302 -0.4560
    3CHL1   H7A  160   2.437   4.248   6.646 -0.9121  0.9876  0.7095
    3CHL1   H7B  161   2.457   4.075   6.634 -0.5772 -0.9775 -0.1732
    3CHL1    C8  162   2.256   4.152   6.608  0.3688  0.1189  0.0998
    3CHL1    H8  163   2.215   4.255   6.615  2.0886  0.9681 -1.3734
    3CHL1   C14  164   2.281   4.126   6.457  0.0887 -0.8585 -0.8442
    3CHL1   H14  165   2.302   4.017   6.452 -1.5837 -1.2448 -0.2784
    3CHL1   C15  166   2.378   4.202   6.371  0.3477 -0.2773 -0.0519
    3CHL1  H15A  167   2.373   4.311   6.391  0.8765 -0.1706 -0.4764
    3CHL1  H15B  168   2.484   4.171   6.380 -0.2609 -2.3056  0.6789
    3CHL1   C16  169   2.326   4.190   6.222 -0.7577  0.2143  0.0129
    3CHL1  H16A  170   2.285   4.289   6.191 -0.1587  0.3581 -0.3330
    3CHL1  H16B  171   2.399   4.135   6.159 -1.0936 -1.3207  0.9066
    3CHL1   C17  172   2.198   4.097   6.234  0.8793 -0.3754 -0.5728
    3CHL1   H17  173   2.226   3.990   6.237  1.3573 -0.2343  0.4950
    3CHL1   C13  174   2.151   4.130   6.378  0.7533  0.3490  0.7029
    3CHL1   C18  175   2.076   4.272   6.376  0.1585  0.5573  0.4185
    3CHL1  H18A  176   2.055   4.308   6.479  0.8835 -0.3106  0.8837
    3CHL1  H18B  177   2.120   4.352   6.313  0.5723  1.3005  1.6125
    3CHL1  H18C  178   1.973   4.260   6.338  0.5541  1.0484 -0.8573
    3CHL1   C12  179   2.058   4.022   6.432  0.4881  0.0840  0.6181
    3CHL1  H12A  180   1.961   4.027   6.378 -0.8951  0.7954  3.0306
    3CHL1  H12B  181   2.102   3.921   6.418 -1.3202 -0.6412 -0.2210
    3CHL1   C11  182   2.035   4.042   6.581 -0.5834  0.6156  0.6117
    3CHL1  H11A  183   1.973   4.133   6.584  0.0557  1.0513  0.7997
    3CHL1  H11B  184   1.967   3.959   6.609 -0.3565 -0.1460 -0.9677
    3CHL1    C9  185   2.164   4.042   6.667 -0.2929 -1.0216 -0.4988
    3CHL1    H9  186   2.204   3.940   6.649 -0.0580 -1.1832  0.8562
    3CHL1   C10  187   2.148   4.044   6.823 -0.1539 -0.0986  0.7837
    3CHL1   C19  188   2.037   4.150   6.854  0.0011 -0.4455 -0.8810
    3CHL1  H19A  189   2.008   4.154   6.962 -0.6770  0.1096 -1.0748
    3CHL1  H19B  190   2.067   4.252   6.822 -1.0919  1.2480  2.8686
    3CHL1  H19C  191   1.946   4.130   6.794 -1.8464 -0.5214  1.7521
    3CHL1    C1  192   2.112   3.902   6.871  0.6025 -0.2128  0.3596
    3CHL1   H1A  193   2.013   3.871   6.831  0.9703 -1.6555  0.5090
    3CHL1   H1B  194   2.193   3.833   6.839  2.1392  2.4315 -1.8151
    3CHL1    C2  195   2.090   3.891   7.025  0.4912 -0.1668  0.7535
    3CHL1   H2A  196   2.065   3.791   7.068 -1.2978  0.2239  0.7052
    3CHL1   H2B  197   2.009   3.956   7.064 -0.0037  1.1072 -2.1685
    3CHL1   C20  198   2.097   4.100   6.122 -0.5186 -0.2988  0.0896
    3CHL1   H20  199   2.003   4.111   6.181  0.0886  1.6656  0.7851
    3CHL1   C21  200   2.094   3.972   6.044 -0.0590  0.3855  0.1830
    3CHL1  H21A  201   2.192   3.952   5.995 -0.2713  1.6939 -0.8365
    3CHL1  H21B  202   2.008   3.964   5.974  0.6597 -2.9860 -0.4738
    3CHL1  H21C  203   2.070   3.888   6.113  0.9852  1.0046  1.3321
    3CHL1   C22  204   2.109   4.220   6.030  0.4413 -0.4874  0.6922
    3CHL1  H22A  205   2.097   4.313   6.089  2.5649 -1.3974  2.7215
    3CHL1  H22B  206   2.205   4.223   5.974 -0.4224  0.0755 -0.8351
    3CHL1   C23  207   1.995   4.242   5.932  0.2810  0.2749 -0.2084
    3CHL1  H23A  208   2.001   4.153   5.866  0.3011 -0.2565  0.4928
    3CHL1  H23B  209   1.901   4.243   5.992 -0.8010  0.6022 -1.8657
    3CHL1   C24  210   2.006   4.374   5.849 -0.1620  0.1559 -0.1054
    3CHL1  H24A  211   2.039   4.462   5.910 -0.8629 -0.4250  1.1544
    3CHL1  H24B  212   2.087   4.355   5.776 -0.1003 -0.0887  0.0257
    3CHL1   C25  213   1.878   4.414   5.779  0.8230  0.0563 -0.7635
    3CHL1   H25  214   1.796   4.394   5.852  0.3149  0.5269 -1.1990
    3CHL1   C26  215   1.858   4.559   5.743 -0.3598 -0.2971  0.3614
    3CHL1  H26A  216   1.874   4.624   5.832  1.6311 -1.0040  0.5589
    3CHL1  H26B  217   1.941   4.586   5.674 -1.6214 -0.5885 -1.3620
    3CHL1  H26C  218   1.758   4.570   5.694 -0.0091 -0.3835 -0.3934
    3CHL1   C27  219   1.865   4.316   5.661  0.4812 -0.0964 -0.0938
    3CHL1  H27A  220   1.768   4.264   5.673  0.6638 -0.4918 -0.2947
    3CHL1  H27B  221   1.884   4.366   5.564 -1.0749  0.6720 -0.0222
    3CHL1  H27C  222   1.936   4.232   5.679 -0.5633 -1.1192 -0.6300
    4CHL1    C3  223   2.226   2.412   6.582  0.5859  1.2711 -0.3965
    4CHL1    H3  224   2.248   2.319   6.526  0.7841  0.2743  1.2728
    4CHL1    O3  225   2.243   2.395   6.722  0.2105 -0.3990  0.4387
    4CHL1   H3'  226   2.185   2.327   6.757  1.1719 -2.0661 -1.0228
    4CHL1    C4  227   2.307   2.527   6.528 -0.3373  0.9630 -0.0009
    4CHL1   H4A  228   2.285   2.613   6.595  0.5996 -1.0487  3.1296
    4CHL1   H4B  229   2.414   2.510   6.554  0.0341 -0.7843 -2.2994
    4CHL1    C5  230   2.280   2.548   6.389  0.4553  0.6313  0.6651
    4CHL1    C6  231   2.387   2.553   6.300 -0.5540  0.7542 -0.6917
    4CHL1    H6  232   2.488   2.528   6.334 -1.4083 -0.1236  1.3596
    4CHL1    C7  233   2.375   2.570   6.156 -0.1584  0.2313  0.0620
    4CHL1   H7A  234   2.456   2.635   6.117  0.7265 -0.6043  0.4516
    4CHL1   H7B  235   2.387   2.470   6.107  0.5728 -0.2433  1.1732
    4CHL1    C8  236   2.235   2.621   6.107 -0.7119  0.2133 -0.5054
    4CHL1    H8  237   2.240   2.731   6.121  1.2262  0.1286 -0.3603
    4CHL1   C14  238   2.217   2.612   5.959  0.6682 -0.4087  0.4064
    4CHL1   H14  239   2.211   2.502   5.942 -0.4428 -0.4951  1.2411
    4CHL1   C15  240   2.327   2.657   5.865 -0.1855  0.0359  0.4654
    4CHL1  H15A  241   2.374   2.750   5.905 -1.2792  0.7845  0.0658
    4CHL1  H15B  242   2.414   2.589   5.859 -0.1678  0.1111 -0.1643
    4CHL1   C16  243   2.258   2.684   5.727  0.6168 -0.1284  0.5331
    4CHL1  H16A  244   2.269   2.790   5.696  0.6231 -0.3138 -0.1140
    4CHL1  H16B  245   2.303   2.617   5.651 -0.5653  2.3917 -2.5841
    4CHL1   C17  246   2.111   2.659   5.743 -0.1582 -0.2924 -1.6304
    4CHL1   H17  247   2.101   2.551   5.719  0.0221 -0.8036  0.3735
    4CHL1   C13  248   2.091   2.672   5.901  0.8653 -0.1945 -0.4881
    4CHL1   C18  249   2.057   2.819   5.925 -0.0059 -0.0125 -0.1528
    4CHL1  H18A  250   2.069   2.856   6.029 -0.6648  0.5989 -0.2804
    4CHL1  H18B  251   2.135   2.873   5.867 -0.5048  1.3179  0.3771
    4CHL1  H18C  252   1.956   2.850   5.890 -0.0608  0.5301  0.4595
    4CHL1   C12  253   1.980   2.586   5.965 -0.1226 -1.1203 -0.0714
    4CHL1  H12A  254   1.877   2.620   5.940 -1.0047 -3.1159  0.6181
    4CHL1  H12B  255   1.999   2.487   5.918  0.2235 -0.1605 -2.0320
    4CHL1   C11  256   1.982   2.586   6.120 -0.1552  0.2422 -0.7108
    4CHL1  H11A  257   1.942   2.687   6.145  1.1616  0.8204 -0.8628
    4CHL1  H11B  258   1.904   2.513   6.152 -1.2623  0.7780 -2.0717
    4CHL1    C9  259   2.123   2.552   6.190  0.5689  0.7551  0.0429
    4CHL1    H9  260   2.135   2.442   6.175  1.5649  0.8259  0.2261
    4CHL1   C10  261   2.133   2.564   6.343 -0.8168 -0.9308  0.2749
    4CHL1   C19  262   2.080   2.709   6.378  0.0609  0.7946  0.6509
    4CHL1  H19A  263   2.146   2.787   6.335  0.8865 -0.4665 -0.4487
    4CHL1  H19B  264   1.974   2.723   6.348 -0.6575 -3.1586  0.7994
    4CHL1  H19C  265   2.063   2.710   6.488 -2.7654 -3.7501  0.5243
    4CHL1    C1  266   2.051   2.459   6.408  0.0138  0.7504  0.5986
    4CHL1   H1A  267   1.945   2.490   6.391 -0.1799 -0.4572 -0.4944
    4CHL1   H1B  268   2.059   2.360   6.359  0.1551  0.8622  0.3953
    4CHL1    C2  269   2.071   2.444   6.555  0.2003 -0.0322 -0.1963
    4CHL1   H2A  270   2.010   2.362   6.600 -1.0740  1.7373  1.4957
    4CHL1   H2B  271   2.043   2.534   6.615 -0.1299 -1.0279  1.1989
    4CHL1   C20  272   2.021   2.746   5.647 -0.7630 -0.5517  0.7451
    4CHL1   H20  273   2.020   2.853   5.675  0.5991 -0.8397  2.0050
    4CHL1   C21  274   1.882   2.698   5.650 -0.2118  0.2754  0.0498
    4CHL1  H21A  275   1.880   2.587   5.640 -0.6822  0.2504  0.3777
    4CHL1  H21B  276   1.816   2.731   5.567 -1.3818 -1.9897 -0.0149
    4CHL1  H21C  277   1.828   2.727   5.743 -1.8782  0.7546 -1.0231
    4CHL1   C22  278   2.081   2.746   5.496  0.2521  0.0217  0.1899
    4CHL1  H22A  279   2.178   2.800   5.502  0.3487 -0.2075  0.7320
    4CHL1  H22B  280   2.101   2.639   5.476  2.7919  0.5476 -0.4172
    4CHL1   C23  281   1.996   2.799   5.382 -0.4184  0.2275  0.9607
    4CHL1  H23A  282   1.896   2.750   5.374  0.5476 -1.8481  1.0099
    4CHL1  H23B  283   1.979   2.908   5.396 -1.9081  0.3158 -1.0619
    4CHL1   C24  284   2.073   2.790   5.248  0.2655 -0.0363  0.0736
    4CHL1  H24A  285   2.116   2.892   5.239 -2.2545  0.9673 -2.0448
    4CHL1  H24B  286   2.151   2.711   5.244  0.8286  0.4654  0.9773
    4CHL1   C25  287   1.989   2.772   5.118 -0.0582 -0.9010  0.5470
    4CHL1   H25  288   1.906   2.845   5.124  0.2433 -0.6706  3.2276
    4CHL1   C26  289   2.070   2.805   4.993 -0.2174  0.1674 -0.8862
    4CHL1  H26A  290   2.153   2.731   4.986 -0.4299 -0.2396  0.5524
    4CHL1  H26B  291   2.010   2.783   4.902  0.7817 -0.2217 -1.4677
    4CHL1  H26C  292   2.112   2.908   4.994  0.9273 -0.1826  2.7155
    4CHL1   C27  293   1.930   2.634   5.116 -0.0012  0.0373 -0.3899
    4CHL1  H27A  294   2.000   2.562   5.068 -2.1845 -1.3255 -1.7355
    4CHL1  H27B  295   1.904   2.605   5.220 -4.0472  0.5973 -1.0952
    4CHL1  H27C  296   1.836   2.633   5.056 -0.2410  1.0459 -0.0533
    5CHL1    C3  297   2.054   1.013   7.076  0.4130 -0.6834  0.0181
    5CHL1    H3  298   2.043   0.908   7.042 -1.1922 -0.3804 -0.5062
    5CHL1    O3  299   2.028   1.022   7.219 -0.3085  0.1821  0.9445
    5CHL1   H3'  300   2.065   0.945   7.263  1.9356  0.6102 -0.0336
    5CHL1    C4  301   2.195   1.061   7.047  0.1403 -0.1907 -0.2905
    5CHL1   H4A  302   2.217   1.165   7.081  1.7064 -1.3666  2.6010
    5CHL1   H4B  303   2.254   0.987   7.104 -0.2953 -0.0571  0.3346
    5CHL1    C5  304   2.225   1.041   6.899  0.0320 -0.3209  0.5379
    5CHL1    C6  305   2.321   0.964   6.847  0.1916  0.0061  0.0543
    5CHL1    H6  306   2.385   0.912   6.920 -0.4888  1.4527  1.7538
    5CHL1    C7  307   2.358   0.951   6.701 -0.3790  0.1974 -0.1816
    5CHL1   H7A  308   2.467   0.968   6.691  0.6824 -3.5933  2.6325
    5CHL1   H7B  309   2.351   0.848   6.660 -1.9383  0.4700 -0.6603
    5CHL1    C8  310   2.284   1.050   6.608  0.7407 -0.2394 -0.3927
    5CHL1    H8  311   2.342   1.145   6.618  0.3909 -0.1459  0.9216
    5CHL1   C14  312   2.281   1.009   6.459  0.2747  0.5502  0.2275
    5CHL1   H14  313   2.244   0.904   6.454  1.2050  0.2518 -0.9111
    5CHL1   C15  314   2.414   0.994   6.387 -0.4211  0.6207  0.1009
    5CHL1  H15A  315   2.481   1.080   6.406  1.6250 -0.9196  0.1977
    5CHL1  H15B  316   2.461   0.901   6.425 -0.7751 -0.1754 -1.3246
    5CHL1   C16  317   2.371   0.985   6.239 -0.4059  0.3521 -0.0436
    5CHL1  H16A  318   2.452   1.040   6.186 -1.2349  1.6709  0.0003
    5CHL1  H16B  319   2.371   0.877   6.214 -1.3064 -0.2015  2.0905
    5CHL1   C17  320   2.222   1.030   6.217 -0.3173  0.0549 -0.3977
    5CHL1   H17  321   2.158   0.940   6.231  0.4184 -0.4204  0.0035
    5CHL1   C13  322   2.195   1.094   6.365 -0.8460 -1.0092  0.4840
    5CHL1   C18  323   2.248   1.239   6.369  0.0062  0.4456  1.0936
    5CHL1  H18A  324   2.187   1.305   6.303 -0.2043  1.9871  2.7481
    5CHL1  H18B  325   2.238   1.298   6.463 -3.2596  0.1801  1.0217
    5CHL1  H18C  326   2.350   1.252   6.326 -0.0170 -0.1015  0.8650
    5CHL1   C12  327   2.047   1.098   6.408  0.1146  0.7096 -0.0501
    5CHL1  H12A  328   1.987   1.173   6.353 -1.2892  0.2720  0.8330
    5CHL1  H12B  329   2.004   1.000   6.379 -1.5975  1.2607  0.4812
    5CHL1   C11  330   2.034   1.127   6.558 -0.4382 -0.3390  0.3798
    5CHL1  H11A  331   2.041   1.236   6.576 -1.7299 -0.2560  0.4667
    5CHL1  H11B  332   1.929   1.091   6.574 -0.3983 -0.9665 -0.6858
    5CHL1    C9  333   2.138   1.063   6.656  0.2452  0.5113  0.3350
    5CHL1    H9  334   2.110   0.955   6.661  2.2704 -0.0176  1.3136
    5CHL1   C10  335   2.126   1.113   6.807 -0.1495 -0.0516  0.4000
    5CHL1   C19  336   2.158   1.257   6.815 -0.5133 -0.3932  0.0950
    5CHL1  H19A  337   2.078   1.325   6.778  1.3456  2.0330  0.2743
    5CHL1  H19B  338   2.179   1.292   6.918 -2.0525 -0.3311  0.4202
    5CHL1  H19C  339   2.247   1.273   6.751  1.7000 -3.8258  1.9874
    5CHL1    C1  340   1.979   1.090   6.844  0.3702  0.9640 -0.7498
    5CHL1   H1A  341   1.925   1.170   6.790  0.5058 -0.0205 -2.4085
    5CHL1   H1B  342   1.943   0.994   6.802 -0.9883 -0.2457  2.7605
    5CHL1    C2  343   1.957   1.099   7.001 -0.4185 -0.4714  0.4028
    5CHL1   H2A  344   1.862   1.053   7.035 -0.3178 -1.9457 -1.1329
    5CHL1   H2B  345   1.956   1.209   7.017  1.0966 -0.4879  0.7386
    5CHL1   C20  346   2.190   1.099   6.087  0.1475  0.2659 -0.0670
    5CHL1   H20  347   2.228   1.203   6.077  1.1112 -0.1025 -0.2418
    5CHL1   C21  348   2.036   1.088   6.072  0.4087 -0.1119 -0.2426
    5CHL1  H21A  349   1.992   0.985   6.077  1.8483 -0.7785 -0.7709
    5CHL1  H21B  350   2.013   1.135   5.974  4.6927  1.4252 -0.7120
    5CHL1  H21C  351   1.990   1.151   6.151  2.7567  0.5167  0.7226
    5CHL1   C22  352   2.260   1.023   5.964  0.5462  0.3385 -0.5975
    5CHL1  H22A  353   2.369   1.038   5.969  0.6283 -0.5052  0.7809
    5CHL1  H22B  354   2.227   0.917   5.954 -0.2321  0.4248  0.8359
    5CHL1   C23  355   2.216   1.091   5.829  0.3826  0.1868 -0.4638
    5CHL1  H23A  356   2.116   1.052   5.798  0.1988  1.4158 -1.5110
    5CHL1  H23B  357   2.201   1.197   5.858  1.8240  0.0538  0.9107
    5CHL1   C24  358   2.321   1.082   5.723 -0.2657 -0.2103 -0.1667
    5CHL1  H24A  359   2.417   1.100   5.775 -1.0739  0.4109  1.1608
    5CHL1  H24B  360   2.311   0.977   5.686 -1.6757 -0.2510  0.2626
    5CHL1   C25  361   2.315   1.184   5.602 -0.0220  0.2522 -0.1541
    5CHL1   H25  362   2.209   1.187   5.568  0.6535 -1.5285 -2.7512
    5CHL1   C26  363   2.362   1.327   5.632  0.1081 -0.0037  0.0104
    5CHL1  H26A  364   2.469   1.325   5.661  0.0475 -1.6119  0.2497
    5CHL1  H26B  365   2.350   1.390   5.542  1.4530 -0.4283 -0.4925
    5CHL1  H26C  366   2.313   1.357   5.727  0.2851 -0.6985  0.3290
    5CHL1   C27  367   2.394   1.137   5.482  0.1731  0.6901  0.5722
    5CHL1  H27A  368   2.378   1.210   5.400  0.6281  0.5721  0.3733
    5CHL1  H27B  369   2.500   1.141   5.513 -0.3199  2.3966  2.2207
    5CHL1  H27C  370   2.357   1.036   5.453  0.5225  0.4413  0.9802
    6CHL1    C3  371   0.031   0.309   7.326  0.1250 -0.0483  0.5809
    6CHL1    H3  372   0.134   0.347   7.311 -0.0272  0.9919  1.9180
    6CHL1    O3  373   0.008   0.339   7.466 -0.1116 -0.2227 -0.2758
    6CHL1   H3'  374  -0.074   0.297   7.494 -0.2541 -0.8804 -1.6201
    6CHL1    C4  375  -0.070   0.400   7.250  0.3684  0.4611 -0.1746
    6CHL1   H4A  376  -0.173   0.366   7.275  1.2046 -1.2223  1.1986
    6CHL1   H4B  377  -0.056   0.502   7.293  2.9392 -0.4082  1.2907
    6CHL1    C5  378  -0.048   0.396   7.099  0.0086 -0.5315  0.2096
    6CHL1    C6  379  -0.037   0.512   7.034  0.0618  0.6694  0.1142
    6CHL1    H6  380  -0.035   0.604   7.094 -0.0961  0.8367 -0.1306
    6CHL1    C7  381  -0.020   0.525   6.883  0.6642 -0.2309 -0.3257
    6CHL1   H7A  382  -0.083   0.606   6.840 -0.0913 -1.3314 -1.3317
    6CHL1   H7B  383   0.082   0.564   6.860 -0.1735  1.7109 -0.9644
    6CHL1    C8  384  -0.038   0.383   6.806 -0.8510 -0.5848  0.1174
    6CHL1    H8  385  -0.146   0.363   6.791 -0.9503 -0.3492  0.5114
    6CHL1   C14  386   0.028   0.384   6.668  0.6094  0.0550 -0.0450
    6CHL1   H14  387   0.138   0.390   6.679  0.8196 -0.2890 -1.6984
    6CHL1   C15  388  -0.007   0.505   6.577  0.1787 -0.3470  0.1861
    6CHL1  H15A  389  -0.108   0.527   6.617 -0.1115 -0.6664 -0.3614
    6CHL1  H15B  390   0.058   0.594   6.588  0.2789 -0.4336  0.3049
    6CHL1   C16  391   0.005   0.448   6.432 -0.2867 -0.1477 -0.0123
    6CHL1  H16A  392  -0.099   0.442   6.393  0.6034 -2.8075 -2.2924
    6CHL1  H16B  393   0.070   0.510   6.366 -3.2425  1.7169 -1.3693
    6CHL1   C17  394   0.052   0.301   6.450 -0.5602 -0.0238  0.1067
    6CHL1   H17  395   0.162   0.313   6.452 -0.7009  1.3543  1.6800
    6CHL1   C13  396  -0.008   0.259   6.585 -0.4232  0.2405  0.5840
    6CHL1   C18  397  -0.159   0.240   6.578 -0.1256 -0.1743 -0.3083
    6CHL1  H18A  398  -0.210   0.330   6.536  1.1090  0.5000 -0.3901
    6CHL1  H18B  399  -0.179   0.159   6.504  2.0443 -1.0834  0.0253
    6CHL1  H18C  400  -0.218   0.209   6.667  0.8486 -1.7586 -0.1794
    6CHL1   C12  401   0.070   0.148   6.657  0.4210  0.0065 -0.3200
    6CHL1  H12A  402   0.053   0.052   6.603  0.9839 -0.4869  0.3611
    6CHL1  H12B  403   0.178   0.160   6.675  0.4908 -1.2255  0.1700
    6CHL1   C11  404   0.024   0.136   6.807  0.1286  0.0409 -0.2506
    6CHL1  H11A  405  -0.079   0.096   6.805  0.4571 -0.8112 -0.6977
    6CHL1  H11B  406   0.078   0.053   6.858  0.5988  0.4784 -0.0252
    6CHL1    C9  407   0.019   0.269   6.892 -0.3803  0.4581 -0.1190
    6CHL1    H9  408   0.125   0.293   6.910 -0.5311 -0.5326  2.6572
    6CHL1   C10  409  -0.041   0.261   7.036 -1.1075  0.2671  0.3396
    6CHL1   C19  410  -0.186   0.204   7.041  0.2792 -0.1187 -0.0724
    6CHL1  H19A  411  -0.219   0.204   7.147 -0.7723 -3.0230 -0.3069
    6CHL1  H19B  412  -0.245   0.278   6.981 -0.2439 -0.3182  0.1936
    6CHL1  H19C  413  -0.181   0.098   7.009  0.7176 -0.1456  0.0776
    6CHL1    C1  414   0.043   0.151   7.124  0.6939 -0.4664 -0.6516
    6CHL1   H1A  415   0.005   0.051   7.094  0.5312 -1.3557  2.2031
    6CHL1   H1B  416   0.151   0.164   7.100  0.7449  1.9630  0.5909
    6CHL1    C2  417   0.020   0.160   7.280 -0.1430 -0.6197 -0.0328
    6CHL1   H2A  418   0.087   0.091   7.335  0.4988  0.6470  0.8189
    6CHL1   H2B  419  -0.085   0.133   7.304 -0.5769  0.2152 -0.9060
    6CHL1   C20  420   0.022   0.211   6.332  0.3862  0.4542  0.2675
    6CHL1   H20  421  -0.086   0.233   6.317 -0.1414 -1.4358  1.0101
    6CHL1   C21  422   0.047   0.066   6.355  0.4490  0.2559  0.0328
    6CHL1  H21A  423  -0.017   0.021   6.434  1.2851 -1.0887 -0.0256
    6CHL1  H21B  424   0.152   0.056   6.391  0.2892  1.7071  0.9670
    6CHL1  H21C  425   0.025   0.004   6.265  0.5738  0.3560 -0.0670
    6CHL1   C22  426   0.112   0.247   6.211 -0.3565 -0.0726 -0.2355
    6CHL1  H22A  427   0.125   0.358   6.213 -0.0886 -0.0777  2.2336
    6CHL1  H22B  428   0.213   0.202   6.205 -0.0536  0.3874  1.0282
    6CHL1   C23  429   0.042   0.204   6.081  0.5071 -0.8447  0.1064
    6CHL1  H23A  430   0.022   0.094   6.083  1.1574 -0.9872 -0.7603
    6CHL1  H23B  431  -0.059   0.249   6.094 -0.1218 -2.3977  0.9683
    6CHL1   C24  432   0.118   0.241   5.948 -0.1462  0.6000  0.0506
    6CHL1  H24A  433   0.159   0.344   5.956  1.6735  0.1668 -2.3784
    6CHL1  H24B  434   0.204   0.171   5.948 -2.1173 -2.0019 -1.8690
    6CHL1   C25  435   0.040   0.198   5.829 -0.3492  0.5357 -0.5456
    6CHL1   H25  436   0.020   0.089   5.839  0.6379  0.3940  0.0698
    6CHL1   C26  437  -0.089   0.281   5.812 -0.1859 -0.6237 -0.9615
    6CHL1  H26A  438  -0.069   0.390   5.814  1.7577 -0.9303 -1.1945
    6CHL1  H26B  439  -0.138   0.256   5.716 -0.5385  1.2056 -1.2915
    6CHL1  H26C  440  -0.151   0.249   5.898  2.2705  1.0253  1.6170
    6CHL1   C27  441   0.129   0.208   5.699  0.5918 -0.3070  0.7447
    6CHL1  H27A  442   0.148   0.306   5.652 -1.5536 -0.9404 -1.6495
    6CHL1  H27B  443   0.220   0.151   5.729  0.5969  1.8468  5.7709
    6CHL1  H27C  444   0.080   0.149   5.619 -0.5942  0.8458  0.6044
    7CHL1    C3  445   3.579   2.387   6.999  0.5743  0.9337 -0.3084
    7CHL1    H3  446   3.496   2.342   6.941 -1.1077  0.4713  2.2910
    7CHL1    O3  447   3.567   2.363   7.139 -0.2302 -0.2967  1.0416
    7CHL1   H3'  448   3.644   2.404   7.178 -0.2967  1.8522 -0.8743
    7CHL1    C4  449   3.708   2.327   6.946 -0.1754 -0.4978 -0.2813
    7CHL1   H4A  450   3.793   2.381   6.993 -0.7767  0.8541 -0.6756
    7CHL1   H4B  451   3.710   2.218   6.968  1.8150 -0.3451  0.5154
    7CHL1    C5  452   3.711   2.353   6.794 -0.1020  0.1040 -0.1579
    7CHL1    C6  453   3.715   2.247   6.709  0.2121  0.1864  0.3483
    7CHL1    H6  454   3.721   2.147   6.754 -1.2987  1.5775  4.1542
    7CHL1    C7  455   3.723   2.255   6.561 -0.1103  0.5603 -0.3911
    7CHL1   H7A  456   3.794   2.178   6.523 -1.2963 -0.4373 -0.6351
    7CHL1   H7B  457   3.617   2.240   6.530 -1.1341  3.4570  1.3659
    7CHL1    C8  458   3.757   2.392   6.513 -0.3502 -1.0875 -0.4083
    7CHL1    H8  459   3.867   2.410   6.522 -0.0701 -1.3347 -2.6249
    7CHL1   C14  460   3.732   2.405   6.365 -0.3853 -0.0078 -0.8328
    7CHL1   H14  461   3.623   2.390   6.355 -0.0020 -3.3458 -1.2237
    7CHL1   C15  462   3.794   2.312   6.262  0.9609 -0.2027  0.7216
    7CHL1  H15A  463   3.899   2.283   6.285  0.7670 -2.1244 -0.6054
    7CHL1  H15B  464   3.741   2.215   6.266 -0.6741  0.6285  0.0877
    7CHL1   C16  465   3.763   2.375   6.129 -0.2659  0.2698 -0.4454
    7CHL1  H16A  466   3.855   2.381   6.067 -0.7763 -2.6687 -1.6993
    7CHL1  H16B  467   3.682   2.316   6.080  0.9269  0.2198 -2.4983
    7CHL1   C17  468   3.718   2.520   6.158 -0.2714  0.5793 -0.3149
    7CHL1   H17  469   3.607   2.513   6.161 -0.1542 -1.6934  0.0422
    7CHL1   C13  470   3.750   2.551   6.308 -0.2168  0.2075 -0.5657
    7CHL1   C18  471   3.901   2.587   6.320 -0.0847  0.1856  0.4358
    7CHL1  H18A  472   3.936   2.569   6.423 -1.2755 -1.1931  0.6357
    7CHL1  H18B  473   3.962   2.531   6.246 -1.9492  0.1397 -1.1903
    7CHL1  H18C  474   3.923   2.696   6.316  2.7579 -0.3331  0.1811
    7CHL1   C12  475   3.649   2.635   6.381 -0.5993 -0.0380  0.4803
    7CHL1  H12A  476   3.663   2.740   6.348 -1.5116  0.2836  1.0598
    7CHL1  H12B  477   3.546   2.595   6.367 -1.1575  1.5007 -0.0478
    7CHL1   C11  478   3.682   2.635   6.534  0.3128 -0.8686  0.0698
    7CHL1  H11A  479   3.776   2.693   6.548  2.0363 -2.9961 -1.9837
    7CHL1  H11B  480   3.601   2.689   6.588  1.5037  1.6856 -0.5450
    7CHL1    C9  481   3.679   2.498   6.597 -0.3378 -1.4853  0.2332
    7CHL1    H9  482   3.571   2.474   6.586 -0.8112 -1.0070  3.0346
    7CHL1   C10  483   3.711   2.499   6.751 -0.0103  0.4161 -0.2829
    7CHL1   C19  484   3.847   2.573   6.789  0.5025  0.3108  0.5941
    7CHL1  H19A  485   3.938   2.520   6.755 -0.0842  0.8285 -2.0303
    7CHL1  H19B  486   3.853   2.674   6.742 -0.6440  0.4081  0.6115
    7CHL1  H19C  487   3.858   2.591   6.898 -0.0682  0.8545  0.5696
    7CHL1    C1  488   3.594   2.563   6.827 -0.2636 -0.0794  0.3501
    7CHL1   H1A  489   3.601   2.672   6.805 -0.8012 -0.5497 -2.5262
    7CHL1   H1B  490   3.501   2.524   6.779  0.6635 -2.4959  0.3674
    7CHL1    C2  491   3.587   2.535   6.978  0.2484 -0.1356 -0.4888
    7CHL1   H2A  492   3.500   2.598   7.007  1.7935  1.4738  0.8776
    7CHL1   H2B  493   3.677   2.575   7.029 -0.6583  1.1651  0.1395
    7CHL1   C20  494   3.759   2.617   6.046 -0.3176 -0.0271  0.3469
    7CHL1   H20  495   3.868   2.616   6.023 -0.5519 -0.6844 -0.8343
    7CHL1   C21  496   3.723   2.766   6.073  0.5315 -0.1391 -0.9286
    7CHL1  H21A  497   3.618   2.781   6.104  0.2579 -1.5584 -1.1330
    7CHL1  H21B  498   3.754   2.833   5.989  0.1119 -1.2453 -1.9953
    7CHL1  H21C  499   3.772   2.796   6.168 -2.4822  1.3983  0.2650
    7CHL1   C22  500   3.695   2.568   5.912  0.1278  0.2729  0.1372
    7CHL1  H22A  501   3.730   2.464   5.893 -2.0359 -0.3607 -0.7616
    7CHL1  H22B  502   3.584   2.565   5.926  0.1169 -0.3147 -0.0366
    7CHL1   C23  503   3.718   2.664   5.797  0.1435 -0.0093  0.4668
    7CHL1  H23A  504   3.639   2.740   5.818 -1.7480 -2.3289  2.2172
    7CHL1  H23B  505   3.817   2.713   5.808 -1.2339  2.8876  1.1006
    7CHL1   C24  506   3.710   2.604   5.654  0.1571  0.4733 -0.4886
    7CHL1  H24A  507   3.765   2.507   5.651  0.6584  0.7578 -2.6264
    7CHL1  H24B  508   3.603   2.576   5.643 -0.0257  0.7336  0.5649
    7CHL1   C25  509   3.756   2.689   5.533 -0.3078 -0.2362 -0.0159
    7CHL1   H25  510   3.727   2.796   5.545 -0.1903 -0.4303  2.4895
    7CHL1   C26  511   3.906   2.689   5.518 -1.1843  0.6498 -0.1374
    7CHL1  H26A  512   3.954   2.720   5.614 -0.7444  0.5551 -0.3278
    7CHL1  H26B  513   3.944   2.591   5.482 -0.3073  1.2150 -0.7848
    7CHL1  H26C  514   3.936   2.761   5.439 -0.2207 -0.2600 -0.6332
    7CHL1   C27  515   3.684   2.639   5.405  0.0739  0.3409  0.2561
    7CHL1  H27A  516   3.730   2.689   5.317  0.7617 -3.0405 -1.4657
    7CHL1  H27B  517   3.696   2.530   5.390  0.7434  0.2098  1.5936
    7CHL1  H27C  518   3.576   2.663   5.410 -0.1688 -0.8134  0.7430
    8CHL1    C3  519   6.771   3.090   7.165 -0.2795 -0.6613  0.5679
    8CHL1    H3  520   6.678   3.149   7.177 -0.1094 -0.4675  0.9337
    8CHL1    O3  521   6.799   2.998   7.275  0.1708  0.6229 -0.2702
    8CHL1   H3'  522   6.881   2.954   7.252 -0.1682 -0.2274  0.0782
    8CHL1    C4  523   6.744   3.004   7.047  0.3063  0.1011 -0.0973
    8CHL1   H4A  524   6.823   2.926   7.035 -1.6931 -2.1166  0.4150
    8CHL1   H4B  525   6.654   2.945   7.075 -0.5909  1.8098  0.7032
    8CHL1    C5  526   6.731   3.084   6.914 -0.6684  0.0702 -0.0602
    8CHL1    C6  527   6.616   3.089   6.844  0.2496 -0.5079  0.5724
    8CHL1    H6  528   6.528   3.031   6.876 -0.7997  0.9979  0.5165
    8CHL1    C7  529   6.598   3.170   6.720  0.0113  0.0784 -0.0728
    8CHL1   H7A  530   6.536   3.121   6.642 -2.5756  1.5676  0.9026
    8CHL1   H7B  531   6.546   3.267   6.737  1.1030  0.5044  0.9995
    8CHL1    C8  532   6.743   3.198   6.664  0.1423  0.0367 -0.2045
    8CHL1    H8  533   6.780   3.095   6.646  1.4369  0.4079  0.2728
    8CHL1   C14  534   6.742   3.278   6.541 -0.0949  0.1740  0.2548
    8CHL1   H14  535   6.696   3.371   6.582  0.1879  1.7197 -2.6512
    8CHL1   C15  536   6.654   3.238   6.422 -0.5709 -0.6057  0.5047
    8CHL1  H15A  537   6.666   3.129   6.401  0.3553 -0.7252  1.5948
    8CHL1  H15B  538   6.545   3.259   6.423  0.0650  3.7102 -0.3859
    8CHL1   C16  539   6.705   3.323   6.303  0.8366 -0.4279  0.7257
    8CHL1  H16A  540   6.741   3.262   6.217 -0.0315  0.0416  0.0121
    8CHL1  H16B  541   6.628   3.395   6.271  0.0785 -0.9839  1.2648
    8CHL1   C17  542   6.824   3.415   6.358  0.7695 -0.5927  0.5141
    8CHL1   H17  543   6.766   3.505   6.386 -1.3974 -2.0159  0.8633
    8CHL1   C13  544   6.875   3.331   6.479 -0.3756 -0.0105  0.4883
    8CHL1   C18  545   6.964   3.220   6.421  0.1577 -0.3639 -0.0625
    8CHL1  H18A  546   6.925   3.161   6.335  0.8676 -0.5265 -0.2825
    8CHL1  H18B  547   7.063   3.265   6.402  0.5427 -0.2592  1.9653
    8CHL1  H18C  548   6.984   3.146   6.501 -0.4422 -2.5510 -1.8332
    8CHL1   C12  549   6.942   3.412   6.586  0.4879  0.3384 -0.3364
    8CHL1  H12A  550   7.040   3.446   6.547  1.8238 -2.0023  0.7393
    8CHL1  H12B  551   6.872   3.496   6.605 -0.1017 -0.3261  0.5119
    8CHL1   C11  552   6.961   3.336   6.719 -0.0950  1.0332 -0.0005
    8CHL1  H11A  553   7.038   3.258   6.701  0.0915  1.2116  0.0282
    8CHL1  H11B  554   6.988   3.409   6.798 -2.3608 -0.2450  2.0884
    8CHL1    C9  555   6.829   3.264   6.770 -0.1024 -0.2501  0.5284
    8CHL1    H9  556   6.767   3.345   6.813 -0.0054  0.1113 -0.0063
    8CHL1   C10  557   6.855   3.166   6.883  0.1177  0.4321 -1.2633
    8CHL1   C19  558   6.964   3.066   6.837  0.9683 -0.4803 -0.2275
    8CHL1  H19A  559   6.974   2.978   6.905  0.4434 -1.0354 -0.8583
    8CHL1  H19B  560   6.943   3.033   6.733  0.2844  3.2715 -1.4010
    8CHL1  H19C  561   7.063   3.114   6.854  0.1907  1.9202 -2.0091
    8CHL1    C1  562   6.894   3.247   7.009 -0.7663  0.8582 -0.0845
    8CHL1   H1A  563   6.998   3.288   7.004  0.2897 -1.6879 -0.9300
    8CHL1   H1B  564   6.832   3.339   7.012 -0.8434  0.8233 -0.5377
    8CHL1    C2  565   6.897   3.171   7.147 -0.0245  0.0247  0.9055
    8CHL1   H2A  566   6.895   3.253   7.221 -0.3908  0.6822  0.1749
    8CHL1   H2B  567   6.996   3.121   7.156  0.5318  0.8795 -0.1816
    8CHL1   C20  568   6.919   3.454   6.239  0.1980  0.1822 -0.6298
    8CHL1   H20  569   6.948   3.354   6.200 -0.6410  0.0726 -0.9956
    8CHL1   C21  570   7.040   3.536   6.297 -0.3321 -0.2999 -0.0974
    8CHL1  H21A  571   6.987   3.624   6.338 -2.3090 -0.4163 -2.2212
    8CHL1  H21B  572   7.113   3.571   6.222 -1.4203  2.4801  0.0501
    8CHL1  H21C  573   7.092   3.470   6.371  1.2488 -0.7245 -1.5367
    8CHL1   C22  574   6.850   3.522   6.122 -0.1698  0.0413  0.0794
    8CHL1  H22A  575   6.755   3.474   6.088 -0.2761 -0.7419  1.4068
    8CHL1  H22B  576   6.826   3.625   6.159  2.7292  0.0941  2.1224
    8CHL1   C23  577   6.944   3.541   6.001 -0.0398 -0.1302  0.0914
    8CHL1  H23A  578   7.019   3.621   6.019 -0.3595  0.1817  0.0578
    8CHL1  H23B  579   6.997   3.444   5.989  2.4703  1.3063 -1.1423
    8CHL1   C24  580   6.867   3.572   5.879 -0.4129 -0.3750  0.3684
    8CHL1  H24A  581   6.806   3.494   5.831  1.3747 -2.2167  0.9447
    8CHL1  H24B  582   6.796   3.654   5.905 -0.0325 -0.8739  3.3062
    8CHL1   C25  583   6.958   3.605   5.753 -0.6118  0.0348  1.0337
    8CHL1   H25  584   7.029   3.680   5.794  0.2724 -0.5189  0.5492
    8CHL1   C26  585   7.035   3.482   5.706 -0.5461 -0.3556  0.0460
    8CHL1  H26A  586   7.120   3.461   5.775  0.9600  0.7307 -1.3962
    8CHL1  H26B  587   6.969   3.395   5.690  1.3528 -2.3829  2.3622
    8CHL1  H26C  588   7.072   3.507   5.604 -2.6213  1.9642 -0.2334
    8CHL1   C27  589   6.882   3.671   5.637  0.4476  0.7427  0.5134
    8CHL1  H27A  590   6.841   3.769   5.670 -1.8358 -0.0560  0.1779
    8CHL1  H27B  591   6.941   3.685   5.544  0.6590  0.1644  0.5539
    8CHL1  H27C  592   6.802   3.603   5.602 -0.7699  1.3999  1.9170
    9CHL1    C3  593   3.174   2.960   7.129  0.0780  0.3981  0.9928
    9CHL1    H3  594   3.069   2.928   7.112  0.0431  1.3613 -1.0051
    9CHL1    O3  595   3.209   2.983   7.262  0.6313 -0.3865 -0.7894
    9CHL1   H3'  596   3.264   3.062   7.253 -1.1348  1.1412  0.8578
    9CHL1    C4  597   3.277   2.864   7.076  0.2193  0.6719  0.5508
    9CHL1   H4A  598   3.379   2.905   7.089 -0.0091  1.8348 -1.0007
    9CHL1   H4B  599   3.256   2.772   7.136  1.3716  0.5862  0.8355
    9CHL1    C5  600   3.248   2.830   6.930  0.1174 -1.0974  1.3642
    9CHL1    C6  601   3.233   2.709   6.876 -0.3376  0.0581  0.8860
    9CHL1    H6  602   3.230   2.620   6.940 -1.1168 -1.4507 -1.1273
    9CHL1    C7  603   3.234   2.680   6.728  0.6025  0.1398  0.4604
    9CHL1   H7A  604   3.285   2.583   6.706  0.4617  0.0640  0.4662
    9CHL1   H7B  605   3.129   2.648   6.708  1.0532 -2.0830  1.2767
    9CHL1    C8  606   3.274   2.795   6.628  0.7110  0.2469  0.3746
    9CHL1    H8  607   3.384   2.792   6.615  0.4635 -0.2856 -2.1174
    9CHL1   C14  608   3.208   2.769   6.496  0.5589 -0.2270  0.9642
    9CHL1   H14  609   3.099   2.784   6.511  0.2067 -1.6648  0.0336
    9CHL1   C15  610   3.221   2.634   6.421  0.1881 -0.8499  0.5689
    9CHL1  H15A  611   3.317   2.585   6.448  0.7854 -0.1252 -0.1646
    9CHL1  H15B  612   3.146   2.556   6.447 -0.2574 -1.2542 -1.7146
    9CHL1   C16  613   3.193   2.662   6.273 -0.6915  0.0031 -0.4117
    9CHL1  H16A  614   3.275   2.628   6.207 -0.9898  2.1456 -1.9912
    9CHL1  H16B  615   3.095   2.625   6.235 -1.3582 -1.0283  2.1094
    9CHL1   C17  616   3.170   2.820   6.263 -0.4062 -0.4634 -0.0286
    9CHL1   H17  617   3.060   2.830   6.271 -0.1376  1.0413  3.8787
    9CHL1   C13  618   3.236   2.878   6.393 -0.0985  0.0358  0.0344
    9CHL1   C18  619   3.385   2.890   6.364  0.2815 -0.1935 -0.7662
    9CHL1  H18A  620   3.418   2.791   6.326  1.5057  0.1916 -0.7650
    9CHL1  H18B  621   3.414   2.967   6.288 -0.3277  0.6935 -0.1154
    9CHL1  H18C  622   3.445   2.918   6.453 -0.7909  1.8979 -0.6434
    9CHL1   C12  623   3.176   3.015   6.444  0.6478  0.0169  0.1131
    9CHL1  H12A  624   3.206   3.093   6.370 -0.5038 -0.9016 -1.3933
    9CHL1  H12B  625   3.069   3.000   6.417  0.7515  1.8135 -1.5465
    9CHL1   C11  626   3.221   3.053   6.591  0.1481  0.0817 -0.1751
    9CHL1  H11A  627   3.329   3.079   6.593 -0.4771  3.1423 -0.8126
    9CHL1  H11B  628   3.160   3.144   6.609  0.5044  0.1061  0.9929
    9CHL1    C9  629   3.211   2.932   6.690 -0.0515  1.0807  0.4118
    9CHL1    H9  630   3.105   2.899   6.694 -0.1210  1.0805 -0.8555
    9CHL1   C10  631   3.258   2.957   6.836 -0.7279 -0.2487  0.4209
    9CHL1   C19  632   3.414   2.987   6.845 -1.5752  0.2711  0.7212
    9CHL1  H19A  633   3.475   2.896   6.826 -1.2736  0.3642  1.2411
    9CHL1  H19B  634   3.435   3.073   6.778 -0.5988 -0.1116  0.5214
    9CHL1  H19C  635   3.436   3.025   6.947  0.4311 -2.1491  1.2947
    9CHL1    C1  636   3.168   3.073   6.901 -0.2152 -0.0197 -0.3182
    9CHL1   H1A  637   3.189   3.168   6.847 -0.3269  0.2752  0.1520
    9CHL1   H1B  638   3.065   3.040   6.874 -0.2651 -1.2822  1.2927
    9CHL1    C2  639   3.193   3.094   7.049  0.0075  1.0753  0.2245
    9CHL1   H2A  640   3.116   3.164   7.088 -1.2073 -0.3641  0.5150
    9CHL1   H2B  641   3.300   3.110   7.074  0.1128  0.5408  0.1300
    9CHL1   C20  642   3.207   2.877   6.125 -0.0040 -0.6082  0.1462
    9CHL1   H20  643   3.317   2.895   6.121 -0.0268 -0.0963  1.4799
    9CHL1   C21  644   3.145   3.017   6.103  0.2954  0.2069  0.3680
    9CHL1  H21A  645   3.181   3.059   6.007  3.4554  2.6992  2.4672
    9CHL1  H21B  646   3.170   3.089   6.184  1.2182 -1.3095  1.4782
    9CHL1  H21C  647   3.034   3.007   6.100  0.1603  1.6369 -0.0993
    9CHL1   C22  648   3.161   2.783   6.006  0.3048 -0.4983 -0.0444
    9CHL1  H22A  649   3.205   2.682   6.016  0.5153 -0.6378 -2.0628
    9CHL1  H22B  650   3.051   2.769   6.019  0.4561 -0.1790  1.9424
    9CHL1   C23  651   3.183   2.835   5.865 -0.5604  0.4405 -0.5166
    9CHL1  H23A  652   3.138   2.758   5.799  2.4174 -0.6308 -1.4433
    9CHL1  H23B  653   3.139   2.932   5.836  0.2359  0.6583 -1.0112
    9CHL1   C24  654   3.334   2.848   5.830  0.3963 -0.3653 -0.0956
    9CHL1  H24A  655   3.375   2.924   5.900  1.6442  0.7886 -1.9897
    9CHL1  H24B  656   3.397   2.757   5.842 -0.4664 -0.9783 -0.1305
    9CHL1   C25  657   3.353   2.906   5.685  0.3112 -0.0676 -0.3598
    9CHL1   H25  658   3.279   2.985   5.661 -1.1170 -1.8284 -2.0903
    9CHL1   C26  659   3.492   2.968   5.680 -0.1317  0.0959 -0.7170
    9CHL1  H26A  660   3.517   3.029   5.770  2.5709 -0.6149 -0.9236
    9CHL1  H26B  661   3.566   2.888   5.659  1.1581  0.3697  2.2024
    9CHL1  H26C  662   3.516   3.035   5.596  3.9524  1.5574  1.3454
    9CHL1   C27  663   3.334   2.807   5.567 -0.7806  0.1721  0.3350
    9CHL1  H27A  664   3.237   2.753   5.563  0.0079 -1.4881  2.1261
    9CHL1  H27B  665   3.351   2.862   5.472  1.5035 -0.6305  0.2279
    9CHL1  H27C  666   3.415   2.732   5.563  0.2506  1.3085 -1.5193
   10CHL1    C3  667   3.950   3.710   7.186  0.5115 -0.2516  0.0059
   10CHL1    H3  668   3.862   3.644   7.207 -0.1941  0.8179  0.4909
   10CHL1    O3  669   4.016   3.720   7.311  0.0373 -0.0279 -0.1148
   10CHL1   H3'  670   4.032   3.628   7.334  0.6164  0.5288  1.9088
   10CHL1    C4  671   4.041   3.660   7.078 -0.1567 -0.1050  0.0657
   10CHL1   H4A  672   4.127   3.730   7.076 -0.0311 -0.2850 -1.1471
   10CHL1   H4B  673   4.082   3.564   7.114 -1.3185 -0.5060  0.3525
   10CHL1    C5  674   3.974   3.656   6.939 -0.0937 -0.2168 -0.0376
   10CHL1    C6  675   3.983   3.543   6.863  0.0390  0.5921 -0.6821
   10CHL1    H6  676   4.041   3.455   6.894 -0.5849  0.0229 -1.1106
   10CHL1    C7  677   3.930   3.527   6.726 -0.0379  0.1752  0.4747
   10CHL1   H7A  678   4.001   3.470   6.662 -0.7217 -0.3151  0.1457
   10CHL1   H7B  679   3.840   3.464   6.738 -1.0299  1.5835  0.5740
   10CHL1    C8  680   3.890   3.663   6.663 -0.1050  0.4731 -0.5938
   10CHL1    H8  681   3.989   3.702   6.633 -1.1995  0.1440 -5.3223
   10CHL1   C14  682   3.818   3.648   6.529 -0.1835 -0.1895  0.6236
   10CHL1   H14  683   3.715   3.619   6.561  0.4567  0.8700  4.0148
   10CHL1   C15  684   3.869   3.536   6.433 -0.0858  0.0470  0.1692
   10CHL1  H15A  685   3.979   3.527   6.429 -0.0796 -0.1245  0.6686
   10CHL1  H15B  686   3.822   3.438   6.458  0.2911 -0.0171  0.6398
   10CHL1   C16  687   3.812   3.588   6.298  0.0870 -0.0044 -0.4424
   10CHL1  H16A  688   3.902   3.601   6.235  1.0274  0.3625  0.9160
   10CHL1  H16B  689   3.738   3.518   6.253 -0.7570 -0.8552  2.0532
   10CHL1   C17  690   3.737   3.725   6.323 -0.6018  0.1335  0.1215
   10CHL1   H17  691   3.630   3.703   6.342 -0.8220  1.5643  0.6977
   10CHL1   C13  692   3.799   3.780   6.453  1.0677 -0.5253 -0.1308
   10CHL1   C18  693   3.925   3.857   6.428 -0.5134 -0.5354 -0.0543
   10CHL1  H18A  694   3.973   3.883   6.525  0.2062  1.0219 -0.8058
   10CHL1  H18B  695   3.994   3.795   6.368 -0.0600  1.3177 -1.5218
   10CHL1  H18C  696   3.904   3.951   6.373  0.3926 -0.2396  0.1006
   10CHL1   C12  697   3.708   3.859   6.542  0.1942  0.4855 -0.4226
   10CHL1  H12A  698   3.673   3.950   6.488 -3.3837  0.6832  1.8795
   10CHL1  H12B  699   3.609   3.809   6.552 -0.5233  2.0983  0.9286
   10CHL1   C11  700   3.770   3.890   6.685  0.1732  0.0350  1.0783
   10CHL1  H11A  701   3.841   3.976   6.681  2.5159 -1.8398 -0.6073
   10CHL1  H11B  702   3.687   3.922   6.750 -1.6548 -2.4349  0.1293
   10CHL1    C9  703   3.819   3.765   6.762 -0.1669  0.7626  0.0721
   10CHL1    H9  704   3.728   3.708   6.790  1.2474 -1.5121  0.3388
   10CHL1   C10  705   3.907   3.787   6.891  0.7735  0.0797 -0.2824
   10CHL1   C19  706   4.014   3.896   6.864 -0.2110  0.8907  0.3648
   10CHL1  H19A  707   3.974   3.999   6.854 -2.3747 -0.0611 -1.5915
   10CHL1  H19B  708   4.094   3.889   6.941  1.2347 -0.8880 -1.2063
   10CHL1  H19C  709   4.061   3.858   6.771  0.6191  0.9879  0.7282
   10CHL1    C1  710   3.821   3.843   7.016  0.2127  0.0449  0.7903
   10CHL1   H1A  711   3.796   3.950   7.000 -0.8335 -0.2670  0.2570
   10CHL1   H1B  712   3.729   3.782   7.027  0.1350 -0.0588 -0.3195
   10CHL1    C2  713   3.891   3.847   7.149 -0.1270 -0.2153 -0.3222
   10CHL1   H2A  714   3.834   3.890   7.234  1.4748  0.8464  0.2566
   10CHL1   H2B  715   3.978   3.914   7.134 -0.1957 -0.1586 -0.4718
   10CHL1   C20  716   3.745   3.815   6.199  0.2280 -0.0349 -0.2171
   10CHL1   H20  717   3.849   3.848   6.177 -0.5869  3.7253  0.8023
   10CHL1   C21  718   3.662   3.952   6.217 -0.0888  0.0456  0.2918
   10CHL1  H21A  719   3.721   4.010   6.291  2.2206  1.5471 -2.4785
   10CHL1  H21B  720   3.563   3.936   6.263  0.5899  1.2122  2.3241
   10CHL1  H21C  721   3.647   4.006   6.121 -1.6587 -2.3520 -0.8846
   10CHL1   C22  722   3.683   3.748   6.071 -1.0166  0.2576 -0.8034
   10CHL1  H22A  723   3.742   3.658   6.044  2.1803  0.7945  3.3473
   10CHL1  H22B  724   3.595   3.702   6.121 -0.5016  0.6273  0.4764
   10CHL1   C23  725   3.682   3.838   5.948 -0.3521  0.6505 -0.9005
   10CHL1  H23A  726   3.614   3.925   5.961  0.7792  1.7128 -1.8116
   10CHL1  H23B  727   3.784   3.880   5.941  0.9419 -2.1493 -0.0893
   10CHL1   C24  728   3.654   3.769   5.809  0.5545  0.1345 -0.4696
   10CHL1  H24A  729   3.730   3.689   5.800  1.8042  1.1860  0.2983
   10CHL1  H24B  730   3.551   3.731   5.825 -0.0729  1.7889 -0.3531
   10CHL1   C25  731   3.657   3.872   5.692 -0.3654 -0.0240 -0.0388
   10CHL1   H25  732   3.746   3.938   5.690  0.1759 -0.7168 -3.2443
   10CHL1   C26  733   3.647   3.800   5.557  0.2979 -0.4212 -0.2063
   10CHL1  H26A  734   3.549   3.752   5.538 -0.4753  0.6250  0.9880
   10CHL1  H26B  735   3.666   3.878   5.481 -0.0286  0.0962  0.2297
   10CHL1  H26C  736   3.731   3.730   5.536  0.4918 -1.1221  2.4728
   10CHL1   C27  737   3.540   3.972   5.692 -0.1881 -0.0737 -0.0888
   10CHL1  H27A  738   3.438   3.930   5.710  0.0733 -0.8525 -0.3764
   10CHL1  H27B  739   3.556   4.053   5.767 -1.3196  0.8970 -0.8620
   10CHL1  H27C  740   3.545   4.033   5.600 -0.2629 -1.2133 -0.8666
   11CHL1    C3  741   5.356   0.509   7.297 -0.2253 -0.6564 -0.0538
   11CHL1    H3  742   5.284   0.591   7.275 -0.6844 -0.8837  0.5627
   11CHL1    O3  743   5.371   0.502   7.436 -0.1613 -0.1673  0.0405
   11CHL1   H3'  744   5.289   0.471   7.476  0.5284 -2.0090  0.1281
   11CHL1    C4  745   5.318   0.378   7.228  0.7705  0.4978 -0.8444
   11CHL1   H4A  746   5.397   0.312   7.269  1.5548  2.7472  1.5758
   11CHL1   H4B  747   5.218   0.343   7.262  0.0831  1.8496 -1.4023
   11CHL1    C5  748   5.322   0.380   7.074 -0.5106 -0.3302 -0.3848
   11CHL1    C6  749   5.223   0.332   7.002  0.4908 -0.2107 -0.2488
   11CHL1    H6  750   5.137   0.290   7.055  2.2244 -0.8849  2.2534
   11CHL1    C7  751   5.214   0.337   6.854 -0.0808  0.5787  0.3445
   11CHL1   H7A  752   5.196   0.237   6.809  0.4425  0.5695  0.1405
   11CHL1   H7B  753   5.125   0.398   6.826  0.0650  0.5147 -0.2741
   11CHL1    C8  754   5.337   0.386   6.781 -0.4321  0.2744  0.7748
   11CHL1    H8  755   5.398   0.294   6.768 -0.7874  0.2921 -1.4075
   11CHL1   C14  756   5.308   0.438   6.643  0.7038  0.2107  0.6239
   11CHL1   H14  757   5.245   0.529   6.647  0.2713 -0.0655  0.1837
   11CHL1   C15  758   5.220   0.341   6.566  0.1343  0.2601  0.6364
   11CHL1  H15A  759   5.274   0.244   6.557 -0.1107  0.2821 -1.8937
   11CHL1  H15B  760   5.116   0.335   6.603 -0.1749  1.7396  0.0680
   11CHL1   C16  761   5.229   0.405   6.425 -0.7128  0.6012  0.1498
   11CHL1  H16A  762   5.248   0.332   6.344  2.5336  2.2870 -0.7995
   11CHL1  H16B  763   5.132   0.456   6.405 -0.5649  0.0207 -2.3490
   11CHL1   C17  764   5.349   0.507   6.428 -0.3182 -0.0637  0.2138
   11CHL1   H17  765   5.309   0.607   6.456  0.4683  0.1640  0.5603
   11CHL1   C13  766   5.428   0.472   6.558  0.5791  0.0956 -1.0982
   11CHL1   C18  767   5.514   0.347   6.525  0.0685  0.3622  0.6437
   11CHL1  H18A  768   5.563   0.307   6.616 -1.5210  0.3545  1.5422
   11CHL1  H18B  769   5.458   0.272   6.466 -0.5259 -0.2381  1.9131
   11CHL1  H18C  770   5.593   0.383   6.457  0.3110 -1.5379 -0.1310
   11CHL1   C12  771   5.498   0.583   6.637 -0.0917 -0.2279 -0.4492
   11CHL1  H12A  772   5.593   0.611   6.587 -0.2205  0.7583 -0.1537
   11CHL1  H12B  773   5.437   0.676   6.634  0.4929  0.1974  0.6169
   11CHL1   C11  774   5.536   0.532   6.776 -0.3365 -0.1180  0.5263
   11CHL1  H11A  775   5.606   0.448   6.759 -0.6333 -0.3721  0.5534
   11CHL1  H11B  776   5.593   0.617   6.820 -0.5492 -1.1227  2.8871
   11CHL1    C9  777   5.415   0.487   6.859  0.0491  0.0400 -0.8472
   11CHL1    H9  778   5.346   0.575   6.862 -2.0083 -1.4914 -0.9937
   11CHL1   C10  779   5.448   0.447   7.010  0.0165  0.0483 -0.2385
   11CHL1   C19  780   5.565   0.348   7.002  0.8488  0.0255 -0.2898
   11CHL1  H19A  781   5.658   0.384   6.954  0.2402  1.1881 -0.6424
   11CHL1  H19B  782   5.597   0.325   7.106 -0.0304 -1.7108 -0.3631
   11CHL1  H19C  783   5.534   0.249   6.964 -1.8994 -0.3666  2.4928
   11CHL1    C1  784   5.482   0.572   7.087 -0.0501 -1.0020  0.3916
   11CHL1   H1A  785   5.573   0.623   7.048 -2.1102  0.3698 -3.0908
   11CHL1   H1B  786   5.399   0.640   7.056  1.4159  0.2059 -1.0717
   11CHL1    C2  787   5.486   0.550   7.242 -0.5266  0.3280  0.3073
   11CHL1   H2A  788   5.512   0.648   7.287 -1.0697 -0.0549  1.4980
   11CHL1   H2B  789   5.565   0.479   7.276 -0.3039  1.6739  2.9064
   11CHL1   C20  790   5.432   0.523   6.297  0.3540 -0.7990  0.2435
   11CHL1   H20  791   5.487   0.427   6.286  0.4092 -0.4768 -3.3722
   11CHL1   C21  792   5.545   0.634   6.306  0.4630  0.5305  0.3973
   11CHL1  H21A  793   5.493   0.730   6.326 -2.4503 -1.4296  3.2819
   11CHL1  H21B  794   5.596   0.645   6.208  0.7323  1.1616  0.6015
   11CHL1  H21C  795   5.628   0.601   6.371  1.9791  1.9263 -0.7368
   11CHL1   C22  796   5.343   0.556   6.170 -0.2239  0.0347  0.5536
   11CHL1  H22A  797   5.246   0.511   6.198 -0.9393  1.1482 -0.0863
   11CHL1  H22B  798   5.328   0.667   6.170 -2.0692 -0.1902 -0.1892
   11CHL1   C23  799   5.392   0.510   6.038 -0.7660 -0.2760  0.5292
   11CHL1  H23A  800   5.469   0.584   6.009 -0.9663  0.7525  2.4857
   11CHL1  H23B  801   5.436   0.408   6.052 -1.6985 -0.9302 -1.0573
   11CHL1   C24  802   5.279   0.511   5.928 -0.4439 -0.3833 -0.4077
   11CHL1  H24A  803   5.205   0.430   5.948 -1.1247  0.3998  0.3029
   11CHL1  H24B  804   5.231   0.611   5.930 -0.8844 -0.5998  0.2878
   11CHL1   C25  805   5.337   0.495   5.778 -0.2852  0.0221 -0.0718
   11CHL1   H25  806   5.419   0.422   5.796 -1.3395 -0.8689  1.4037
   11CHL1   C26  807   5.244   0.440   5.663 -0.3874 -0.1992 -0.3134
   11CHL1  H26A  808   5.156   0.506   5.643 -1.1378 -0.8122  0.9046
   11CHL1  H26B  809   5.306   0.436   5.570 -0.5860 -0.9700 -0.4175
   11CHL1  H26C  810   5.222   0.334   5.687  0.9576 -0.3128  0.5209
   11CHL1   C27  811   5.401   0.629   5.740 -0.5888  0.0828 -0.7274
   11CHL1  H27A  812   5.317   0.701   5.748  0.4489  1.1249  4.6938
   11CHL1  H27B  813   5.482   0.673   5.802  0.2019  0.2044 -1.8252
   11CHL1  H27C  814   5.440   0.630   5.636  0.4200  1.1360 -0.3594
   12CHL1    C3  815   2.858   0.340   7.262 -0.0182  0.1871  0.4725
   12CHL1    H3  816   2.891   0.235   7.273 -1.1726 -0.4128 -1.2397
   12CHL1    O3  817   2.816   0.386   7.387 -0.1012  0.2999  0.8562
   12CHL1   H3'  818   2.756   0.456   7.361 -1.5893 -1.3760 -0.4770
   12CHL1    C4  819   2.968   0.429   7.199  0.0035  0.5381  0.5328
   12CHL1   H4A  820   2.939   0.536   7.191 -0.6044  0.2329 -2.3340
   12CHL1   H4B  821   3.056   0.420   7.267  0.8276 -0.4080 -0.6181
   12CHL1    C5  822   3.004   0.380   7.059 -0.5476  1.7532 -0.3339
   12CHL1    C6  823   3.132   0.342   7.034 -0.4492 -0.0713  0.1077
   12CHL1    H6  824   3.207   0.346   7.114  0.9635 -1.8644 -1.0496
   12CHL1    C7  825   3.172   0.285   6.901 -0.0538 -0.0976  0.0017
   12CHL1   H7A  826   3.276   0.307   6.870  0.8759 -2.4039  1.1970
   12CHL1   H7B  827   3.175   0.174   6.899  2.2006 -0.1067 -2.5976
   12CHL1    C8  828   3.071   0.317   6.783 -0.3063 -0.8643  0.0266
   12CHL1    H8  829   3.080   0.426   6.765 -0.3053 -0.7924  0.4398
   12CHL1   C14  830   3.099   0.242   6.645 -0.1369  0.7640  0.2042
   12CHL1   H14  831   3.076   0.139   6.680  2.5325  0.1947  0.5532
   12CHL1   C15  832   3.245   0.235   6.591  0.0197 -0.3908  0.0467
   12CHL1  H15A  833   3.302   0.326   6.567 -1.1301 -0.1206 -1.8522
   12CHL1  H15B  834   3.292   0.166   6.664 -0.5027  0.2851  1.0552
   12CHL1   C16  835   3.223   0.172   6.453  0.6202  0.3198 -0.0320
   12CHL1  H16A  836   3.278   0.235   6.380  1.1389  1.0283  0.9437
   12CHL1  H16B  837   3.262   0.069   6.446 -1.8763 -0.5789 -3.4111
   12CHL1   C17  838   3.067   0.167   6.431  0.5753  0.4650 -0.1974
   12CHL1   H17  839   3.044   0.066   6.472  0.3408  0.3412 -0.6293
   12CHL1   C13  840   3.000   0.260   6.530 -0.5323 -0.5167 -0.0902
   12CHL1   C18  841   3.019   0.407   6.480  1.1421  0.0129 -0.0061
   12CHL1  H18A  842   2.943   0.445   6.409  2.7520  1.1339 -1.2083
   12CHL1  H18B  843   2.989   0.464   6.571  1.4997 -0.9429  0.7226
   12CHL1  H18C  844   3.121   0.434   6.446  0.8559 -0.3758 -1.2141
   12CHL1   C12  845   2.859   0.225   6.579 -0.3332 -0.4802  0.0039
   12CHL1  H12A  846   2.775   0.251   6.511 -0.7652 -0.3594  0.5827
   12CHL1  H12B  847   2.840   0.118   6.599 -0.5952 -0.4546 -0.0946
   12CHL1   C11  848   2.826   0.305   6.711 -0.0886  0.4890  0.2977
   12CHL1  H11A  849   2.833   0.413   6.687  1.2957  0.4922  0.6299
   12CHL1  H11B  850   2.721   0.283   6.743 -0.2164  1.5075  0.6071
   12CHL1    C9  851   2.923   0.293   6.831  0.2782 -0.9023  0.3090
   12CHL1    H9  852   2.921   0.184   6.855  0.3771 -1.5030 -2.1453
   12CHL1   C10  853   2.889   0.369   6.965 -0.4363 -0.7457  0.5402
   12CHL1   C19  854   2.841   0.511   6.929 -0.2746  0.0199 -0.6287
   12CHL1  H19A  855   2.802   0.577   7.010 -0.2593 -0.5180 -0.1732
   12CHL1  H19B  856   2.920   0.569   6.877  0.2838  0.1415  0.3391
   12CHL1  H19C  857   2.754   0.507   6.860 -0.7672 -1.0759  0.0262
   12CHL1    C1  858   2.783   0.283   7.040 -0.2554  0.0869  0.3434
   12CHL1   H1A  859   2.695   0.273   6.972  0.0638 -0.9168  0.0631
   12CHL1   H1B  860   2.827   0.184   7.060 -2.9456 -1.6930 -1.7269
   12CHL1    C2  861   2.741   0.349   7.167 -0.2946  0.5190  0.3692
   12CHL1   H2A  862   2.657   0.293   7.214 -0.6402  0.6737 -0.0607
   12CHL1   H2B  863   2.712   0.455   7.153  4.0711  1.7650 -0.9152
   12CHL1   C20  864   3.031   0.167   6.289  0.1403  0.5142  0.6353
   12CHL1   H20  865   3.056   0.260   6.234 -0.6799  0.4257  0.1088
   12CHL1   C21  866   2.880   0.147   6.278  0.5772  0.4106  0.6533
   12CHL1  H21A  867   2.826   0.238   6.312  2.4698  0.9978  2.3504
   12CHL1  H21B  868   2.843   0.054   6.328 -1.9113  0.7198 -0.4682
   12CHL1  H21C  869   2.843   0.138   6.174  1.8065  1.1028  0.1262
   12CHL1   C22  870   3.087   0.039   6.210 -0.2248 -0.6008 -0.0746
   12CHL1  H22A  871   3.196   0.062   6.212  0.0293 -1.7229 -0.4012
   12CHL1  H22B  872   3.063  -0.052   6.269 -0.8418  0.8373  2.0548
   12CHL1   C23  873   3.038   0.043   6.062 -0.3787 -0.5410  0.1354
   12CHL1  H23A  874   2.940  -0.009   6.056 -0.4859 -0.2647 -0.6785
   12CHL1  H23B  875   3.021   0.150   6.035 -0.1100 -0.7113 -0.7098
   12CHL1   C24  876   3.144  -0.021   5.969  0.1113  0.0481  0.8364
   12CHL1  H24A  877   3.225   0.055   5.972  2.1291 -1.9208 -0.6685
   12CHL1  H24B  878   3.177  -0.124   5.996  4.4322  1.1924  0.7680
   12CHL1   C25  879   3.098  -0.021   5.820 -0.2789 -0.1466  0.2223
   12CHL1   H25  880   3.040   0.071   5.799 -0.3672 -0.2216  0.1404
   12CHL1   C26  881   3.216  -0.041   5.729 -0.2492  0.0685 -0.0822
   12CHL1  H26A  882   3.175  -0.036   5.626 -1.9020  1.4321  0.5948
   12CHL1  H26B  883   3.294   0.036   5.749  1.3558 -1.5680  0.2172
   12CHL1  H26C  884   3.255  -0.144   5.741  0.5574  0.4047  0.2496
   12CHL1   C27  885   2.994  -0.126   5.799 -0.4122 -0.2072  0.0442
   12CHL1  H27A  886   2.994  -0.161   5.694  0.1007 -0.9165  0.2695
   12CHL1  H27B  887   3.017  -0.219   5.856  1.8387  0.6464  0.6266
   12CHL1  H27C  888   2.896  -0.097   5.842 -0.9947 -2.5365  0.4150
   13CHL1    C3  889   6.564   0.841   7.432  0.6810  0.5766  0.5745
   13CHL1    H3  890   6.669   0.870   7.454  0.7651 -0.0016  0.9654
   13CHL1    O3  891   6.502   0.791   7.554 -0.3857 -0.1833  0.6779
   13CHL1   H3'  892   6.493   0.867   7.611 -0.0968 -1.2178  2.1637
   13CHL1    C4  893   6.490   0.967   7.379  0.2927 -0.3094 -0.6888
   13CHL1   H4A  894   6.381   0.944   7.373  0.2402 -0.6407  0.9798
   13CHL1   H4B  895   6.495   1.046   7.457  0.4101 -0.5508 -0.4473
   13CHL1    C5  896   6.546   1.011   7.240 -0.0153 -0.1664 -0.8711
   13CHL1    C6  897   6.592   1.136   7.228 -0.5962  0.0728 -0.0418
   13CHL1    H6  898   6.584   1.199   7.318  2.1715 -1.1464  1.1677
   13CHL1    C7  899   6.651   1.197   7.098 -0.1442 -0.4761 -0.1128
   13CHL1   H7A  900   6.615   1.298   7.072 -0.8749 -0.1381  1.9851
   13CHL1   H7B  901   6.760   1.204   7.115 -0.3421 -0.1505  1.1480
   13CHL1    C8  902   6.615   1.102   6.979  0.3989 -0.1621 -0.0771
   13CHL1    H8  903   6.507   1.119   6.959  0.5400  1.1268  0.1572
   13CHL1   C14  904   6.696   1.135   6.863 -0.1526  0.0794  0.2741
   13CHL1   H14  905   6.802   1.122   6.892 -0.9445 -0.6553  3.1826
   13CHL1   C15  906   6.693   1.273   6.803  0.0648 -0.7471 -0.1653
   13CHL1  H15A  907   6.587   1.307   6.804  0.4502  0.5943  2.2448
   13CHL1  H15B  908   6.741   1.344   6.874 -0.7647  0.0340 -0.3652
   13CHL1   C16  909   6.757   1.263   6.664 -0.9863 -0.3220  0.1392
   13CHL1  H16A  910   6.693   1.318   6.592  1.4468 -0.2043 -2.0581
   13CHL1  H16B  911   6.863   1.293   6.671  0.0547 -3.0911 -1.9282
   13CHL1   C17  912   6.755   1.109   6.628 -0.3712  0.3471 -0.1293
   13CHL1   H17  913   6.860   1.080   6.652  0.0999  2.0504 -0.0016
   13CHL1   C13  914   6.667   1.049   6.744 -0.1247  0.3304 -0.8875
   13CHL1   C18  915   6.519   1.059   6.699 -0.5548 -0.0898  0.0017
   13CHL1  H18A  916   6.444   1.028   6.775 -0.4214  0.7163  0.4813
   13CHL1  H18B  917   6.487   1.154   6.651  0.0413 -0.4875 -1.2072
   13CHL1  H18C  918   6.507   0.995   6.609 -0.0731  0.1280 -0.2223
   13CHL1   C12  919   6.700   0.904   6.765 -0.1300 -0.2528 -0.4178
   13CHL1  H12A  920   6.673   0.836   6.682  0.1554 -2.7942  1.4407
   13CHL1  H12B  921   6.806   0.886   6.794 -0.3303 -2.5982 -0.9379
   13CHL1   C11  922   6.629   0.859   6.890  0.0268 -0.4558  0.0078
   13CHL1  H11A  923   6.523   0.851   6.855 -0.1761  0.5545  0.3546
   13CHL1  H11B  924   6.667   0.758   6.917  1.5652  0.4081  1.2349
   13CHL1    C9  925   6.634   0.952   7.016  0.0361  0.5149  0.1628
   13CHL1    H9  926   6.741   0.939   7.043 -0.5019 -0.8748  1.7812
   13CHL1   C10  927   6.549   0.901   7.132 -0.0541 -0.1997 -0.3249
   13CHL1   C19  928   6.404   0.866   7.089  0.5047 -0.1464  0.6957
   13CHL1  H19A  929   6.403   0.778   7.021 -2.0201 -0.1526  0.6510
   13CHL1  H19B  930   6.343   0.849   7.180  1.5402 -2.5872  1.0134
   13CHL1  H19C  931   6.366   0.946   7.022  0.4686  1.0670  2.1468
   13CHL1    C1  932   6.613   0.778   7.194 -0.3138  0.3616  0.2205
   13CHL1   H1A  933   6.623   0.693   7.124  0.7898  2.4087 -2.2456
   13CHL1   H1B  934   6.715   0.810   7.223 -0.0517 -0.5201  0.2953
   13CHL1    C2  935   6.552   0.728   7.332 -0.4192 -0.0046 -0.3709
   13CHL1   H2A  936   6.607   0.638   7.367  0.9444 -0.0271 -2.4268
   13CHL1   H2B  937   6.446   0.696   7.316 -0.5182  0.7304 -1.2771
   13CHL1   C20  938   6.737   1.079   6.478 -0.8000  0.1767 -0.2045
   13CHL1   H20  939   6.708   0.972   6.475  1.3415 -0.4608  0.1336
   13CHL1   C21  940   6.878   1.081   6.414 -0.1882 -0.2105  1.2166
   13CHL1  H21A  941   6.880   1.049   6.307  1.0084  1.9809  0.4928
   13CHL1  H21B  942   6.954   1.025   6.472  1.7038  0.0015 -0.8872
   13CHL1  H21C  943   6.920   1.184   6.417  3.1617 -1.4518  4.1880
   13CHL1   C22  944   6.643   1.178   6.389  0.6852 -0.3738 -0.0382
   13CHL1  H22A  945   6.549   1.173   6.448  1.2910 -0.2776  0.9639
   13CHL1  H22B  946   6.689   1.279   6.396  2.3403 -1.1006  0.0641
   13CHL1   C23  947   6.604   1.146   6.244  0.0478 -0.8038  0.5746
   13CHL1  H23A  948   6.704   1.126   6.199  0.0322  3.3368 -1.8569
   13CHL1  H23B  949   6.527   1.066   6.244 -1.0845  0.1786 -2.0287
   13CHL1   C24  950   6.549   1.274   6.181  0.6655  0.1756 -0.3973
   13CHL1  H24A  951   6.452   1.292   6.233  0.4780 -3.2104  0.6964
   13CHL1  H24B  952   6.610   1.365   6.200 -0.2346  0.5882  0.6488
   13CHL1   C25  953   6.520   1.265   6.033  0.2283 -0.1851 -0.3095
   13CHL1   H25  954   6.615   1.296   5.985  0.3434 -0.5551 -0.3203
   13CHL1   C26  955   6.485   1.129   5.977 -0.2392  0.1025  0.6306
   13CHL1  H26A  956   6.548   1.040   5.997 -0.1457 -0.4786 -1.8787
   13CHL1  H26B  957   6.383   1.105   6.016 -0.5830  0.6372  0.0774
   13CHL1  H26C  958   6.466   1.140   5.868  0.2999 -0.5851  0.4624
   13CHL1   C27  959   6.407   1.362   6.006  0.5058  0.5796  0.5686
   13CHL1  H27A  960   6.427   1.470   6.019  2.0888  0.6313 -1.6431
   13CHL1  H27B  961   6.393   1.362   5.896  0.7670  1.2549  0.5309
   13CHL1  H27C  962   6.309   1.345   6.055  0.0036  2.8884  0.4658
   14CHL1    C3  963   5.513   4.141   6.675 -0.4180 -0.0547  0.0320
   14CHL1    H3  964   5.615   4.151   6.632 -1.7345  0.2979 -3.3066
   14CHL1    O3  965   5.522   4.074   6.803  0.2589  0.2807  0.5438
   14CHL1   H3'  966   5.440   4.026   6.817  0.4115 -0.4453 -0.8915
   14CHL1    C4  967   5.449   4.281   6.684 -0.1830 -0.3174  0.3483
   14CHL1   H4A  968   5.368   4.273   6.760 -1.3225  1.1747 -0.6429
   14CHL1   H4B  969   5.514   4.341   6.751 -0.0977 -0.4860  0.4146
   14CHL1    C5  970   5.404   4.351   6.556 -0.8961 -0.6249  0.2510
   14CHL1    C6  971   5.436   4.483   6.532 -0.3574 -0.2191 -0.4363
   14CHL1    H6  972   5.491   4.543   6.606 -0.2100  0.3333 -0.9840
   14CHL1    C7  973   5.392   4.561   6.413 -0.3960  0.3738 -0.2237
   14CHL1   H7A  974   5.351   4.660   6.442 -0.5949  0.4369 -0.7255
   14CHL1   H7B  975   5.478   4.581   6.346  0.0527 -0.9197 -0.0538
   14CHL1    C8  976   5.296   4.480   6.321  0.3345 -0.2384  0.2925
   14CHL1    H8  977   5.201   4.496   6.375  1.5144  0.2714  2.3379
   14CHL1   C14  978   5.294   4.542   6.181  0.1184  0.5627 -0.1496
   14CHL1   H14  979   5.395   4.523   6.140 -0.0226 -0.3670 -0.0881
   14CHL1   C15  980   5.285   4.693   6.157 -0.0053  0.3640  0.3652
   14CHL1  H15A  981   5.209   4.736   6.227  0.6591  0.8293  0.8114
   14CHL1  H15B  982   5.380   4.747   6.179  0.0263  0.3907  0.1649
   14CHL1   C16  983   5.245   4.702   6.010 -0.3889 -0.7811 -0.0124
   14CHL1  H16A  984   5.157   4.768   5.994 -0.4268 -1.0573 -1.0284
   14CHL1  H16B  985   5.325   4.753   5.950 -0.5055  0.8111  1.1258
   14CHL1   C17  986   5.227   4.554   5.954 -0.1029 -0.2130  0.5569
   14CHL1   H17  987   5.329   4.539   5.913  0.5142  0.7824  1.6792
   14CHL1   C13  988   5.206   4.466   6.081 -0.3299 -0.1678  0.3400
   14CHL1   C18  989   5.067   4.473   6.125  0.8619 -0.2480  0.4529
   14CHL1  H18A  990   5.056   4.442   6.232  1.1133  2.5448  1.3790
   14CHL1  H18B  991   5.035   4.579   6.125  0.1674 -0.4315 -1.3672
   14CHL1  H18C  992   4.993   4.421   6.062 -0.2391  1.8490 -0.0746
   14CHL1   C12  993   5.259   4.320   6.072  0.6811 -0.8432 -0.7190
   14CHL1  H12A  994   5.198   4.268   5.994 -0.4065 -1.2506  0.3582
   14CHL1  H12B  995   5.368   4.323   6.051  1.1392 -1.6925  1.3192
   14CHL1   C11  996   5.256   4.254   6.208  0.0852  0.7397 -0.1780
   14CHL1  H11A  997   5.154   4.253   6.251 -0.6397 -1.4232 -1.7225
   14CHL1  H11B  998   5.300   4.152   6.207 -0.0637  0.6651 -1.6954
   14CHL1    C9  999   5.335   4.332   6.316 -0.5125  1.1187  0.4506
   14CHL1    H9 1000   5.441   4.340   6.282 -0.9445  1.1216 -0.9898
   14CHL1   C10 1001   5.324   4.263   6.456  0.0912 -0.2599 -0.0698
   14CHL1   C19 1002   5.178   4.231   6.503 -0.8701 -0.0154 -0.2562
   14CHL1  H19A 1003   5.183   4.204   6.611  1.4734 -0.5460 -0.4448
   14CHL1  H19B 1004   5.111   4.319   6.494  0.1064  0.7528 -0.2523
   14CHL1  H19C 1005   5.139   4.141   6.452 -1.2945 -0.7039  1.2357
   14CHL1    C1 1006   5.386   4.119   6.448  0.2601  0.5114 -0.1835
   14CHL1   H1A 1007   5.317   4.057   6.387 -0.3675 -0.7079  1.6788
   14CHL1   H1B 1008   5.473   4.128   6.380 -0.6219  0.8154 -1.3118
   14CHL1    C2 1009   5.428   4.054   6.580 -0.4426 -0.2887 -0.2585
   14CHL1   H2A 1010   5.470   3.951   6.578  0.0317 -0.1077  0.1049
   14CHL1   H2B 1011   5.337   4.034   6.639  1.2816  0.4540  2.8871
   14CHL1   C20 1012   5.139   4.540   5.827  0.8121  0.7733 -0.1408
   14CHL1   H20 1013   5.035   4.574   5.844  0.2396 -1.3407  0.7943
   14CHL1   C21 1014   5.138   4.393   5.781 -1.2084 -0.9069  0.1798
   14CHL1  H21A 1015   5.074   4.326   5.842 -2.0352 -0.2781  0.0337
   14CHL1  H21B 1016   5.240   4.350   5.787 -0.4038  0.8454 -0.3824
   14CHL1  H21C 1017   5.089   4.390   5.681  0.9054 -0.7956 -0.8959
   14CHL1   C22 1018   5.197   4.624   5.713  0.0618 -0.3155 -0.3555
   14CHL1  H22A 1019   5.241   4.719   5.749  0.2059 -0.0432 -1.2205
   14CHL1  H22B 1020   5.281   4.567   5.667 -1.0844 -2.4112  0.0069
   14CHL1   C23 1021   5.096   4.668   5.604  0.3457 -0.0602 -0.0747
   14CHL1  H23A 1022   5.141   4.681   5.503  0.3184 -0.7515 -0.1831
   14CHL1  H23B 1023   5.036   4.576   5.586 -0.3009  0.6723 -1.9360
   14CHL1   C24 1024   5.006   4.788   5.643 -1.0432 -0.2303 -0.3350
   14CHL1  H24A 1025   4.938   4.749   5.721  0.4081  1.2231  1.7570
   14CHL1  H24B 1026   5.067   4.859   5.702 -0.4336 -0.5120 -0.6217
   14CHL1   C25 1027   4.925   4.860   5.532 -0.9416  0.1166  0.3550
   14CHL1   H25 1028   4.866   4.782   5.481 -3.2132  2.2373 -0.4641
   14CHL1   C26 1029   4.826   4.970   5.583  0.4766  0.8597  0.7086
   14CHL1  H26A 1030   4.772   5.021   5.500  0.9770  1.1154  0.5378
   14CHL1  H26B 1031   4.750   4.925   5.651  0.9266 -2.1333 -0.6076
   14CHL1  H26C 1032   4.879   5.048   5.642 -0.0656 -0.2322  2.7507
   14CHL1   C27 1033   5.010   4.920   5.424 -0.1508 -0.1279 -0.0152
   14CHL1  H27A 1034   5.061   5.014   5.455  1.3315  0.6570 -4.1931
   14CHL1  H27B 1035   5.082   4.845   5.384 -0.8690 -0.0375 -1.5456
   14CHL1  H27C 1036   4.935   4.953   5.349  0.6874  1.6370 -0.1342
   15CHL1    C3 1037   2.130   6.393   7.078  0.4779  0.6107 -0.3979
   15CHL1    H3 1038   2.050   6.317   7.089  1.6121 -0.2292  3.6679
   15CHL1    O3 1039   2.150   6.441   7.205  0.3067 -0.2815 -0.3491
   15CHL1   H3' 1040   2.223   6.392   7.243 -0.5560 -0.0832  1.7288
   15CHL1    C4 1041   2.263   6.329   7.023  0.2804  0.4001  0.0591
   15CHL1   H4A 1042   2.342   6.402   7.050 -2.5383  3.1125  1.6599
   15CHL1   H4B 1043   2.302   6.246   7.085  2.1683  0.2434 -1.2628
   15CHL1    C5 1044   2.255   6.298   6.878  0.3754 -0.1142  0.4363
   15CHL1    C6 1045   2.299   6.178   6.841  0.1268  0.1183  0.3318
   15CHL1    H6 1046   2.337   6.106   6.915  2.3816 -0.9233 -1.7041
   15CHL1    C7 1047   2.282   6.119   6.702 -0.9671 -0.2156 -0.2318
   15CHL1   H7A 1048   2.366   6.050   6.679 -0.7564 -1.1808  2.9827
   15CHL1   H7B 1049   2.200   6.045   6.703 -0.9950 -0.2056  1.2897
   15CHL1    C8 1050   2.255   6.227   6.600 -0.4528 -0.5279  0.1484
   15CHL1    H8 1051   2.352   6.274   6.572 -0.9869 -0.2554 -1.3168
   15CHL1   C14 1052   2.207   6.172   6.473 -0.4115  0.6058  0.1028
   15CHL1   H14 1053   2.107   6.136   6.505 -0.8060  0.4481 -1.2485
   15CHL1   C15 1054   2.279   6.055   6.412  0.7073 -0.2579  0.4601
   15CHL1  H15A 1055   2.388   6.073   6.424  0.5727  1.2244 -0.3171
   15CHL1  H15B 1056   2.249   5.961   6.462 -0.1853 -0.9694 -1.3219
   15CHL1   C16 1057   2.246   6.062   6.264 -0.5852  0.2217  0.6850
   15CHL1  H16A 1058   2.338   6.086   6.206 -0.8829 -1.0612 -0.3563
   15CHL1  H16B 1059   2.207   5.963   6.233 -0.4155 -0.4978  2.6612
   15CHL1   C17 1060   2.148   6.178   6.239  0.4432  0.4593  0.1404
   15CHL1   H17 1061   2.050   6.127   6.253  0.2253  0.6342 -0.6584
   15CHL1   C13 1062   2.177   6.276   6.360  0.1946 -0.1120 -0.9109
   15CHL1   C18 1063   2.301   6.354   6.328 -0.3229 -0.3448  0.4237
   15CHL1  H18A 1064   2.271   6.425   6.249 -1.9999  0.1917  1.4714
   15CHL1  H18B 1065   2.329   6.420   6.413  0.4731 -0.1434  0.0123
   15CHL1  H18C 1066   2.389   6.295   6.294 -1.3742 -1.1224 -1.0569
   15CHL1   C12 1067   2.062   6.366   6.406 -0.6814  0.5850  0.0071
   15CHL1  H12A 1068   2.038   6.447   6.333 -4.5271 -1.6077 -1.4357
   15CHL1  H12B 1069   1.974   6.299   6.413  1.1983 -2.1105 -0.8438
   15CHL1   C11 1070   2.099   6.429   6.543 -0.5604 -0.0721 -0.1486
   15CHL1  H11A 1071   2.179   6.506   6.532  0.4256 -1.1781 -1.0608
   15CHL1  H11B 1072   2.003   6.477   6.572 -1.7736 -1.8479 -1.0362
   15CHL1    C9 1073   2.149   6.331   6.652 -0.6123  0.9036  0.7239
   15CHL1    H9 1074   2.068   6.257   6.670 -0.3521 -0.0839 -1.6942
   15CHL1   C10 1075   2.180   6.405   6.785 -1.1042 -0.1659  0.2051
   15CHL1   C19 1076   2.286   6.516   6.760 -0.1076  0.5332  0.0382
   15CHL1  H19A 1077   2.257   6.608   6.705  1.7528 -0.5116 -3.0113
   15CHL1  H19B 1078   2.337   6.548   6.853  1.3832 -2.1749  0.2585
   15CHL1  H19C 1079   2.369   6.467   6.704  0.0266 -0.1374  0.8122
   15CHL1    C1 1080   2.048   6.460   6.846 -0.2176  0.0511 -0.0378
   15CHL1   H1A 1081   1.995   6.539   6.790 -0.3916  0.7689  1.1117
   15CHL1   H1B 1082   1.978   6.373   6.842  1.5080 -1.3872 -0.5007
   15CHL1    C2 1083   2.069   6.505   6.991  0.2546 -0.6814  0.0902
   15CHL1   H2A 1084   1.969   6.519   7.039 -0.4648 -1.6759 -1.0754
   15CHL1   H2B 1085   2.113   6.607   6.996 -0.7429 -0.2562  0.3454
   15CHL1   C20 1086   2.140   6.231   6.095 -0.5092 -0.2241 -0.5453
   15CHL1   H20 1087   2.218   6.310   6.089  1.2234 -1.6679  1.3766
   15CHL1   C21 1088   2.009   6.312   6.080 -1.0323 -0.2531  0.1346
   15CHL1  H21A 1089   2.014   6.407   6.136  3.0699  0.4540 -1.1579
   15CHL1  H21B 1090   1.918   6.251   6.100 -1.9036  0.1987 -2.1217
   15CHL1  H21C 1091   1.998   6.335   5.972 -0.7125 -0.2627  0.0992
   15CHL1   C22 1092   2.163   6.127   5.983 -0.2937  0.5317  0.2351
   15CHL1  H22A 1093   2.246   6.063   6.017  1.5689  3.0706  0.7766
   15CHL1  H22B 1094   2.085   6.049   5.968 -0.0614  0.6581 -1.9716
   15CHL1   C23 1095   2.207   6.176   5.847 -0.5634  0.2059  0.5299
   15CHL1  H23A 1096   2.157   6.274   5.831 -1.1566 -0.3716 -1.4422
   15CHL1  H23B 1097   2.316   6.187   5.866 -0.5238 -0.5041  0.7254
   15CHL1   C24 1098   2.186   6.082   5.729  0.0482  0.0298 -0.2486
   15CHL1  H24A 1099   2.244   5.991   5.756  0.6673  0.3566 -0.4595
   15CHL1  H24B 1100   2.077   6.062   5.728  0.4754 -2.9829  1.8126
   15CHL1   C25 1101   2.245   6.145   5.598 -0.5395 -0.2714 -0.1984
   15CHL1   H25 1102   2.206   6.247   5.578 -2.7802 -1.1217 -0.3991
   15CHL1   C26 1103   2.399   6.164   5.603  0.7572 -0.2233 -0.0111
   15CHL1  H26A 1104   2.436   6.185   5.500  0.4960 -0.9070 -0.2488
   15CHL1  H26B 1105   2.415   6.255   5.664  0.0310 -0.3760  0.4211
   15CHL1  H26C 1106   2.446   6.073   5.644  0.5786 -0.9040 -1.2652
   15CHL1   C27 1107   2.207   6.061   5.476 -0.5617  0.2159  0.0027
   15CHL1  H27A 1108   2.269   5.970   5.463 -1.5351 -0.4931  0.2324
   15CHL1  H27B 1109   2.103   6.027   5.495 -0.7536 -0.5870 -2.1694
   15CHL1  H27C 1110   2.221   6.106   5.376 -0.2213 -2.1493 -1.0849
   16CHL1    C3 1111   4.519   3.592   7.554  0.1217 -0.4879  0.2766
   16CHL1    H3 1112   4.412   3.601   7.582 -1.1007 -1.3644 -3.4970
   16CHL1    O3 1113   4.595   3.578   7.670 -0.1950 -0.3006  0.0206
   16CHL1   H3' 1114   4.686   3.573   7.642  0.8663 -1.4531  3.1817
   16CHL1    C4 1115   4.546   3.469   7.465 -0.3318 -0.4686 -0.3902
   16CHL1   H4A 1116   4.656   3.465   7.447 -0.4865  1.1926 -2.0400
   16CHL1   H4B 1117   4.515   3.371   7.506 -0.9682  0.9734  2.8842
   16CHL1    C5 1118   4.477   3.486   7.334  0.1199 -0.5280  0.3638
   16CHL1    C6 1119   4.392   3.400   7.283  0.0780 -0.2232 -1.0147
   16CHL1    H6 1120   4.372   3.316   7.351 -2.0059  1.3969  0.5474
   16CHL1    C7 1121   4.350   3.405   7.139  0.3725 -0.0030  0.7606
   16CHL1   H7A 1122   4.363   3.307   7.089 -1.0191  1.4693 -2.8958
   16CHL1   H7B 1123   4.243   3.432   7.130  0.6071  0.8311  0.3861
   16CHL1    C8 1124   4.434   3.502   7.046  0.4208 -0.3683 -0.7624
   16CHL1    H8 1125   4.539   3.469   7.034  0.5126 -0.2222 -0.3882
   16CHL1   C14 1126   4.375   3.513   6.909  0.2246 -0.5659 -0.2449
   16CHL1   H14 1127   4.269   3.542   6.927  0.5367 -0.7488  2.1464
   16CHL1   C15 1128   4.372   3.383   6.823  0.0041 -0.1790  0.7249
   16CHL1  H15A 1129   4.471   3.333   6.824  0.3060  0.3246  3.4943
   16CHL1  H15B 1130   4.287   3.320   6.856 -2.3385  1.2274 -2.1517
   16CHL1   C16 1131   4.342   3.436   6.681  0.1990 -0.4332  0.6657
   16CHL1  H16A 1132   4.417   3.386   6.616  0.0492  1.6716 -1.2879
   16CHL1  H16B 1133   4.242   3.410   6.641  0.8099 -1.4733 -0.2625
   16CHL1   C17 1134   4.352   3.592   6.682 -0.1082 -0.0123  0.4150
   16CHL1   H17 1135   4.258   3.644   6.708  0.3085  1.3650 -0.7528
   16CHL1   C13 1136   4.430   3.620   6.819 -0.4590 -0.4761  0.8777
   16CHL1   C18 1137   4.579   3.590   6.792  0.2529 -0.2500 -0.3300
   16CHL1  H18A 1138   4.633   3.558   6.883  2.0116  0.8850 -0.9103
   16CHL1  H18B 1139   4.595   3.508   6.719  2.3370 -0.2042 -0.0058
   16CHL1  H18C 1140   4.621   3.689   6.761 -0.0040  0.0663  0.3334
   16CHL1   C12 1141   4.416   3.752   6.899  0.9026  0.1203 -0.4760
   16CHL1  H12A 1142   4.437   3.843   6.838  0.3331  1.6669  1.5212
   16CHL1  H12B 1143   4.310   3.769   6.928  1.2767  2.0470 -0.0868
   16CHL1   C11 1144   4.485   3.748   7.028  0.5620 -0.4066 -0.2439
   16CHL1  H11A 1145   4.593   3.727   7.013  1.0252 -0.8382  2.9794
   16CHL1  H11B 1146   4.491   3.842   7.087  0.1009 -0.4045 -0.1993
   16CHL1    C9 1147   4.438   3.631   7.122 -0.1415 -0.1772 -0.3790
   16CHL1    H9 1148   4.332   3.651   7.147 -0.9107 -1.2482 -2.4631
   16CHL1   C10 1149   4.515   3.614   7.257  0.2538 -0.3137 -0.0130
   16CHL1   C19 1150   4.668   3.627   7.232  0.6759 -0.0474  0.0721
   16CHL1  H19A 1151   4.705   3.727   7.200 -0.1921 -0.2361 -1.5800
   16CHL1  H19B 1152   4.723   3.602   7.326 -1.7202 -2.5992  0.9304
   16CHL1  H19C 1153   4.696   3.554   7.154  0.7702  1.6236 -1.5330
   16CHL1    C1 1154   4.483   3.738   7.347  0.0786  0.0476 -0.0281
   16CHL1   H1A 1155   4.508   3.834   7.297 -2.2669 -0.4913 -2.4271
   16CHL1   H1B 1156   4.376   3.748   7.375  0.4583  2.4121  0.8898
   16CHL1    C2 1157   4.547   3.726   7.488  0.3155 -0.7035  0.1518
   16CHL1   H2A 1158   4.512   3.808   7.554  3.7688  1.7944 -0.8564
   16CHL1   H2B 1159   4.657   3.737   7.481  0.2272  0.4676  0.4230
   16CHL1   C20 1160   4.397   3.661   6.555  0.1263 -0.6774  0.1921
   16CHL1   H20 1161   4.429   3.767   6.569 -3.0624  0.4321 -0.2347
   16CHL1   C21 1162   4.260   3.691   6.480 -0.4327 -0.1419 -0.2473
   16CHL1  H21A 1163   4.210   3.593   6.469  1.5433 -1.2650  0.2645
   16CHL1  H21B 1164   4.274   3.732   6.377 -1.7534 -2.8673 -1.6007
   16CHL1  H21C 1165   4.191   3.760   6.533 -1.3772  1.5916 -3.4222
   16CHL1   C22 1166   4.507   3.593   6.461  0.6980  0.1995  0.3052
   16CHL1  H22A 1167   4.607   3.593   6.510  0.9627  1.2704 -0.1890
   16CHL1  H22B 1168   4.472   3.489   6.444  0.6369  0.0093  1.5218
   16CHL1   C23 1169   4.528   3.666   6.323  0.5712 -0.1058 -0.2139
   16CHL1  H23A 1170   4.438   3.676   6.260 -1.0196 -1.6216  1.6750
   16CHL1  H23B 1171   4.568   3.766   6.348  2.1281 -0.6257 -0.4670
   16CHL1   C24 1172   4.636   3.594   6.237 -0.0296 -0.4809  0.0886
   16CHL1  H24A 1173   4.736   3.605   6.284 -0.3364 -1.7227  1.1143
   16CHL1  H24B 1174   4.608   3.487   6.227  0.2534 -0.4910 -0.5760
   16CHL1   C25 1175   4.650   3.646   6.095 -0.6457 -0.5046  0.3384
   16CHL1   H25 1176   4.547   3.647   6.051 -0.9483  1.4428  0.9838
   16CHL1   C26 1177   4.706   3.787   6.096  0.5972  1.2505 -0.8718
   16CHL1  H26A 1178   4.708   3.839   5.997 -1.7588  0.3695 -1.4343
   16CHL1  H26B 1179   4.644   3.850   6.163  0.0249 -0.7081  0.5173
   16CHL1  H26C 1180   4.814   3.783   6.122  0.2298 -0.7807  0.5230
   16CHL1   C27 1181   4.728   3.552   6.003  0.1295 -0.1500  0.4760
   16CHL1  H27A 1182   4.773   3.605   5.916 -1.0944 -0.7408 -0.5486
   16CHL1  H27B 1183   4.807   3.508   6.068 -0.1730 -0.0777  0.8898
   16CHL1  H27C 1184   4.665   3.465   5.976  1.9878 -0.4276 -3.8015
   17CHL1    C3 1185   2.185   4.543   7.084 -0.4717  0.2417  0.3115
   17CHL1    H3 1186   2.200   4.437   7.055 -2.0142 -0.4147  1.7287
   17CHL1    O3 1187   2.177   4.556   7.226 -0.7364  0.1827 -0.4265
   17CHL1   H3' 1188   2.149   4.647   7.237 -2.4628 -0.3383 -0.2881
   17CHL1    C4 1189   2.304   4.615   7.022  0.1937  0.0328 -0.1199
   17CHL1   H4A 1190   2.315   4.718   7.063  2.2510 -0.4293  0.6470
   17CHL1   H4B 1191   2.396   4.565   7.060  0.4833  0.0980 -0.7267
   17CHL1    C5 1192   2.310   4.633   6.872  0.4661  0.8306  0.1357
   17CHL1    C6 1193   2.413   4.590   6.794 -0.2589 -0.8149  0.6551
   17CHL1    H6 1194   2.495   4.545   6.853  0.5795 -0.8642 -0.5063
   17CHL1    C7 1195   2.416   4.592   6.643  0.0167  0.5993 -0.2049
   17CHL1   H7A 1196   2.518   4.610   6.604 -0.9850  1.6260 -2.5910
   17CHL1   H7B 1197   2.398   4.486   6.615  0.8271 -0.1247  1.8159
   17CHL1    C8 1198   2.306   4.678   6.579  0.2183  0.3522  0.0633
   17CHL1    H8 1199   2.338   4.781   6.608  1.6464 -0.5788  2.0576
   17CHL1   C14 1200   2.281   4.655   6.432  1.0216 -0.0731  0.8212
   17CHL1   H14 1201   2.238   4.552   6.432 -2.5386  1.2805  1.0667
   17CHL1   C15 1202   2.405   4.658   6.341  0.6181 -0.2871  0.0056
   17CHL1  H15A 1203   2.475   4.738   6.374 -0.1019  0.9845 -1.4184
   17CHL1  H15B 1204   2.458   4.560   6.344  1.4722  0.1612  0.0037
   17CHL1   C16 1205   2.346   4.694   6.202  0.0809 -0.2613  0.1782
   17CHL1  H16A 1206   2.390   4.790   6.169  0.7634  0.3276  2.5731
   17CHL1  H16B 1207   2.356   4.612   6.127 -0.4002 -1.4128  1.3199
   17CHL1   C17 1208   2.193   4.696   6.228  0.5429  0.1301 -0.1122
   17CHL1   H17 1209   2.160   4.590   6.230 -0.6901  0.4941  1.9777
   17CHL1   C13 1210   2.172   4.740   6.368 -0.4253  0.6986 -0.2078
   17CHL1   C18 1211   2.217   4.885   6.382  0.4750 -0.3331  0.0736
   17CHL1  H18A 1212   2.127   4.946   6.360 -0.6142 -1.3858  1.3762
   17CHL1  H18B 1213   2.248   4.914   6.485 -0.9219 -1.4518  0.8509
   17CHL1  H18C 1214   2.294   4.909   6.306 -0.6433 -2.5105 -1.8813
   17CHL1   C12 1215   2.038   4.715   6.440 -0.2177  0.2407 -0.2038
   17CHL1  H12A 1216   1.962   4.784   6.400 -1.6416 -0.3528  1.3522
   17CHL1  H12B 1217   2.007   4.610   6.420 -0.0746  0.6087 -2.6561
   17CHL1   C11 1218   2.053   4.737   6.591  0.1935  0.0355  0.2507
   17CHL1  H11A 1219   2.052   4.848   6.595 -2.3726  0.3049 -3.2511
   17CHL1  H11B 1220   1.959   4.695   6.634  2.0560 -2.9075  1.7367
   17CHL1    C9 1221   2.168   4.664   6.660 -0.6249 -0.1880 -0.1225
   17CHL1    H9 1222   2.157   4.555   6.642 -0.2271 -0.1687 -0.4952
   17CHL1   C10 1223   2.178   4.679   6.815 -0.8535 -0.3655  0.0222
   17CHL1   C19 1224   2.156   4.832   6.849  0.2754  0.1049 -0.1290
   17CHL1  H19A 1225   2.221   4.859   6.934  0.5410 -2.9499  0.7741
   17CHL1  H19B 1226   2.180   4.894   6.760 -0.9971  0.7432 -0.0492
   17CHL1  H19C 1227   2.052   4.861   6.875  0.5917  0.5561  0.6597
   17CHL1    C1 1228   2.065   4.593   6.870 -0.3906  0.5270  0.1879
   17CHL1   H1A 1229   1.977   4.650   6.834 -0.4060  1.4911  1.6683
   17CHL1   H1B 1230   2.071   4.492   6.824  1.9554  0.8693 -0.4086
   17CHL1    C2 1231   2.057   4.580   7.020  0.6639  1.1054 -0.6875
   17CHL1   H2A 1232   1.986   4.498   7.044  1.0694  0.7067 -0.8494
   17CHL1   H2B 1233   2.015   4.675   7.060 -1.6309 -0.2777  0.3689
   17CHL1   C20 1234   2.107   4.772   6.119 -0.4745 -0.5059  0.0851
   17CHL1   H20 1235   2.077   4.874   6.150  0.1659  0.1082 -1.2051
   17CHL1   C21 1236   1.964   4.705   6.107  0.4331  0.1671  0.1541
   17CHL1  H21A 1237   1.899   4.749   6.029 -0.2732 -0.6146  0.2823
   17CHL1  H21B 1238   1.899   4.715   6.197  0.0809 -0.0409 -0.0714
   17CHL1  H21C 1239   1.978   4.596   6.093  1.0553  0.3571 -0.7493
   17CHL1   C22 1240   2.164   4.778   5.978  0.0314  0.7604  0.4555
   17CHL1  H22A 1241   2.271   4.809   5.972  0.7405 -1.5662 -0.0861
   17CHL1  H22B 1242   2.165   4.675   5.936  1.0702  1.5222 -1.5661
   17CHL1   C23 1243   2.091   4.872   5.885  0.1924 -0.9611 -0.3491
   17CHL1  H23A 1244   1.981   4.861   5.873  0.0092 -0.1728  0.5315
   17CHL1  H23B 1245   2.104   4.973   5.929 -0.7347  0.0791 -2.2811
   17CHL1   C24 1246   2.154   4.865   5.753 -0.2214  0.3421  0.8259
   17CHL1  H24A 1247   2.263   4.886   5.751 -0.0321 -0.5794 -1.5865
   17CHL1  H24B 1248   2.151   4.763   5.708  0.2674  0.7039 -0.0471
   17CHL1   C25 1249   2.084   4.955   5.651 -0.3557 -0.1439  0.5681
   17CHL1   H25 1250   2.066   5.051   5.704  0.6778  0.6025 -0.3861
   17CHL1   C26 1251   2.163   4.979   5.519  0.0294 -0.2633  0.2492
   17CHL1  H26A 1252   2.171   4.881   5.467 -1.6860 -0.0918 -0.4149
   17CHL1  H26B 1253   2.101   5.049   5.458  0.7221 -0.3422 -0.5667
   17CHL1  H26C 1254   2.265   5.022   5.523  0.6527 -1.5009 -1.1244
   17CHL1   C27 1255   1.945   4.905   5.612 -0.3895  0.2848  0.5010
   17CHL1  H27A 1256   1.950   4.803   5.568  0.0639  0.3817  0.3247
   17CHL1  H27B 1257   1.870   4.882   5.691 -1.8622 -2.7701 -1.5825
   17CHL1  H27C 1258   1.902   4.981   5.542 -1.4136 -0.0157  0.7869
   18CHL1    C3 1259   0.892   6.230   6.809 -0.1732  0.6940 -0.0442
   18CHL1    H3 1260   0.996   6.265   6.792 -0.1409 -0.1584 -1.9205
   18CHL1    O3 1261   0.888   6.191   6.948 -0.1572 -0.0023  0.2437
   18CHL1   H3' 1262   0.909   6.097   6.943 -1.1956 -0.1958 -0.8085
   18CHL1    C4 1263   0.791   6.340   6.773  0.5448 -0.1831  0.3025
   18CHL1   H4A 1264   0.694   6.306   6.817  1.3313 -0.6423  1.7706
   18CHL1   H4B 1265   0.815   6.430   6.834 -0.5048  0.8488 -0.7648
   18CHL1    C5 1266   0.783   6.365   6.616  0.4894 -0.8029 -1.2749
   18CHL1    C6 1267   0.795   6.492   6.570  0.0068 -0.4748 -0.2835
   18CHL1    H6 1268   0.811   6.567   6.648 -0.5704 -0.1120 -0.5061
   18CHL1    C7 1269   0.783   6.533   6.430 -0.8088 -0.4710 -0.0680
   18CHL1   H7A 1270   0.716   6.619   6.413  1.0353  1.2927  1.0832
   18CHL1   H7B 1271   0.880   6.573   6.395 -0.6156  0.3720  1.3567
   18CHL1    C8 1272   0.729   6.423   6.340 -0.2230  0.0898 -0.8630
   18CHL1    H8 1273   0.618   6.421   6.335 -0.3085  0.0960  0.5667
   18CHL1   C14 1274   0.768   6.454   6.197  0.6292  0.7350  0.0542
   18CHL1   H14 1275   0.879   6.448   6.197  0.6690  0.1020  2.9297
   18CHL1   C15 1276   0.754   6.603   6.147 -0.0828  0.0314 -1.0686
   18CHL1  H15A 1277   0.661   6.648   6.187  0.2912 -0.0357 -0.1037
   18CHL1  H15B 1278   0.835   6.675   6.174 -0.3553  0.3512 -1.1051
   18CHL1   C16 1279   0.757   6.585   5.992  0.5519 -0.1399  0.4199
   18CHL1  H16A 1280   0.654   6.608   5.959  1.3136 -0.1150 -2.1223
   18CHL1  H16B 1281   0.831   6.654   5.947 -1.6700  1.4210 -1.0576
   18CHL1   C17 1282   0.782   6.438   5.959  0.1550  0.4433  0.0447
   18CHL1   H17 1283   0.890   6.421   5.982  0.2707  2.7890  1.5687
   18CHL1   C13 1284   0.715   6.364   6.083 -0.2238 -0.8366 -1.3538
   18CHL1   C18 1285   0.560   6.367   6.081 -0.7818 -0.5540 -0.2248
   18CHL1  H18A 1286   0.522   6.325   6.176  3.7155 -0.9335  1.6428
   18CHL1  H18B 1287   0.515   6.468   6.064 -0.0807 -0.4024 -1.3398
   18CHL1  H18C 1288   0.523   6.296   6.004 -1.5793  0.6033 -0.9438
   18CHL1   C12 1289   0.765   6.224   6.117 -0.7084 -0.0966 -0.4029
   18CHL1  H12A 1290   0.704   6.149   6.061 -3.1546  1.8328 -0.5119
   18CHL1  H12B 1291   0.874   6.209   6.106 -0.3402  1.9939  0.0823
   18CHL1   C11 1292   0.741   6.177   6.266  0.5394 -0.2936 -0.7477
   18CHL1  H11A 1293   0.631   6.161   6.265  0.3562  0.8044 -0.0754
   18CHL1  H11B 1294   0.791   6.082   6.293  2.5453  1.1358  0.8648
   18CHL1    C9 1295   0.789   6.284   6.378  1.2359  0.2886  0.4496
   18CHL1    H9 1296   0.896   6.307   6.357  0.3899  1.1534 -3.7137
   18CHL1   C10 1297   0.768   6.243   6.525  0.3657 -0.2209  0.5863
   18CHL1   C19 1298   0.627   6.184   6.542 -0.1774  0.1545 -0.1260
   18CHL1  H19A 1299   0.643   6.085   6.496 -3.1013 -1.4032  1.8611
   18CHL1  H19B 1300   0.591   6.176   6.647 -1.7081 -0.5165 -0.6740
   18CHL1  H19C 1301   0.553   6.250   6.492  0.4038  0.5269 -0.5041
   18CHL1    C1 1302   0.877   6.151   6.574  0.5869  0.3957 -0.5873
   18CHL1   H1A 1303   0.880   6.059   6.511  0.7725 -0.2197  0.2999
   18CHL1   H1B 1304   0.973   6.205   6.562 -0.2986  2.0498 -0.4476
   18CHL1    C2 1305   0.872   6.104   6.722 -0.0129 -0.5706 -0.2197
   18CHL1   H2A 1306   0.961   6.041   6.743  0.3906 -0.3854 -1.3103
   18CHL1   H2B 1307   0.774   6.064   6.757 -1.4497  1.3657 -1.7850
   18CHL1   C20 1308   0.747   6.393   5.815 -0.2744 -0.2841  0.7718
   18CHL1   H20 1309   0.639   6.411   5.796  0.0846  1.0228 -0.0931
   18CHL1   C21 1310   0.788   6.247   5.779 -0.1715  0.0534  0.1050
   18CHL1  H21A 1311   0.769   6.217   5.674  2.3955 -1.0505 -0.1262
   18CHL1  H21B 1312   0.740   6.175   5.848  1.3010  0.7954  2.0189
   18CHL1  H21C 1313   0.897   6.237   5.797  0.0015  0.4025 -0.6785
   18CHL1   C22 1314   0.816   6.488   5.709  0.4681 -0.8717 -0.3151
   18CHL1  H22A 1315   0.782   6.587   5.747  0.7149 -0.9724  0.1798
   18CHL1  H22B 1316   0.926   6.484   5.717  0.5044 -0.2155 -0.4496
   18CHL1   C23 1317   0.772   6.457   5.568  0.4137 -0.3800 -0.5813
   18CHL1  H23A 1318   0.823   6.367   5.527  0.3626 -0.0541 -1.3852
   18CHL1  H23B 1319   0.665   6.429   5.570  0.0690  0.8147 -1.1707
   18CHL1   C24 1320   0.789   6.565   5.467 -0.2353 -0.3265  0.2581
   18CHL1  H24A 1321   0.714   6.647   5.469  0.7435  0.5897  0.1570
   18CHL1  H24B 1322   0.888   6.613   5.481 -0.5824  0.6232 -0.4621
   18CHL1   C25 1323   0.760   6.507   5.323  0.3243 -0.5304 -0.4045
   18CHL1   H25 1324   0.817   6.412   5.309  1.4681  0.4124 -2.7129
   18CHL1   C26 1325   0.609   6.485   5.294 -0.0905  0.2229 -0.3028
   18CHL1  H26A 1326   0.556   6.576   5.328 -0.6783 -0.2892  0.1784
   18CHL1  H26B 1327   0.574   6.463   5.191  0.4563  3.7085 -1.3753
   18CHL1  H26C 1328   0.577   6.406   5.365  0.0468  0.8255  0.4368
   18CHL1   C27 1329   0.814   6.605   5.222 -1.0104 -0.8086  0.3097
   18CHL1  H27A 1330   0.761   6.703   5.226 -0.8618 -0.7655  1.8166
   18CHL1  H27B 1331   0.920   6.631   5.241 -0.9764  0.0166 -0.8680
   18CHL1  H27C 1332   0.805   6.562   5.120  3.1127  0.1317 -0.6352
   19CHL1    C3 1333   2.782   2.884   6.921  0.1165 -0.6932 -0.0559
   19CHL1    H3 1334   2.828   2.984   6.939  0.4678 -0.6400 -1.1573
   19CHL1    O3 1335   2.802   2.815   7.041  0.3344 -0.4443 -0.8047
   19CHL1   H3' 1336   2.826   2.724   7.024 -0.4679 -1.0168  0.9183
   19CHL1    C4 1337   2.633   2.906   6.906 -0.2457  0.4542 -0.0651
   19CHL1   H4A 1338   2.586   2.807   6.924 -0.1156  0.0231 -1.9028
   19CHL1   H4B 1339   2.590   2.973   6.983  0.6330  2.1854 -1.0053
   19CHL1    C5 1340   2.595   2.950   6.768 -0.6545 -0.7113 -0.0891
   19CHL1    C6 1341   2.529   3.069   6.759 -0.5186  0.1652  0.3052
   19CHL1    H6 1342   2.492   3.105   6.856 -0.9854  0.0948  0.1533
   19CHL1    C7 1343   2.490   3.137   6.632  0.8087 -0.2944  0.0399
   19CHL1   H7A 1344   2.390   3.182   6.649  1.8952  1.8025  1.2599
   19CHL1   H7B 1345   2.559   3.220   6.607  3.3622 -1.9139  1.3001
   19CHL1    C8 1346   2.498   3.036   6.514 -0.4243 -0.1816  0.0285
   19CHL1    H8 1347   2.412   2.966   6.521 -1.1501  0.6092 -0.7634
   19CHL1   C14 1348   2.487   3.115   6.379  0.1196 -0.1697  0.1477
   19CHL1   H14 1349   2.573   3.186   6.380 -0.1462  0.1584  0.1807
   19CHL1   C15 1350   2.368   3.210   6.355  0.3479  0.3070 -0.0985
   19CHL1  H15A 1351   2.274   3.166   6.394  1.0001  0.3783  1.6399
   19CHL1  H15B 1352   2.377   3.308   6.406 -0.5278 -0.3732  1.4329
   19CHL1   C16 1353   2.351   3.215   6.203 -0.3314 -0.0096 -0.3501
   19CHL1  H16A 1354   2.258   3.158   6.177 -1.4724  0.9048  1.5541
   19CHL1  H16B 1355   2.327   3.315   6.161 -0.2615 -0.7711 -2.3567
   19CHL1   C17 1356   2.472   3.136   6.146  0.1407 -0.8982 -0.1747
   19CHL1   H17 1357   2.561   3.203   6.144 -0.7729  0.4340  1.5685
   19CHL1   C13 1358   2.499   3.034   6.256  0.8712  0.5339  0.3201
   19CHL1   C18 1359   2.374   2.932   6.252 -0.4459  0.1827 -0.2444
   19CHL1  H18A 1360   2.283   2.987   6.285  0.6105  2.6074 -1.1664
   19CHL1  H18B 1361   2.365   2.897   6.147  0.5142 -0.3500 -0.1632
   19CHL1  H18C 1362   2.386   2.851   6.327  1.8266  0.2972 -0.4085
   19CHL1   C12 1363   2.632   2.953   6.257 -0.3187 -0.4326 -0.0126
   19CHL1  H12A 1364   2.647   2.889   6.168 -0.8976  0.7139 -0.9665
   19CHL1  H12B 1365   2.715   3.025   6.251  1.1952 -2.1788 -0.8831
   19CHL1   C11 1366   2.647   2.868   6.387 -1.3914 -0.5648  0.2055
   19CHL1  H11A 1367   2.574   2.784   6.382 -0.3410 -1.5180  0.5120
   19CHL1  H11B 1368   2.751   2.829   6.379 -1.7527 -1.1621 -2.3536
   19CHL1    C9 1369   2.629   2.956   6.517 -0.3678 -0.2061  0.2524
   19CHL1    H9 1370   2.702   3.039   6.512  0.1522 -0.6036  1.0926
   19CHL1   C10 1371   2.656   2.879   6.648  0.6956 -1.4951 -0.0381
   19CHL1   C19 1372   2.601   2.731   6.637 -0.1306  0.0163 -1.0265
   19CHL1  H19A 1373   2.498   2.729   6.594 -0.2841  0.4735 -0.6958
   19CHL1  H19B 1374   2.679   2.675   6.582  2.4369  0.6004  1.7243
   19CHL1  H19C 1375   2.589   2.680   6.735  0.8923  2.4365  0.4674
   19CHL1    C1 1376   2.809   2.868   6.674  0.0861  0.1790  0.3006
   19CHL1   H1A 1377   2.864   2.800   6.605  0.6612  0.3585  0.5773
   19CHL1   H1B 1378   2.844   2.973   6.673  0.7416 -0.0346 -0.1878
   19CHL1    C2 1379   2.845   2.810   6.805 -0.3498  0.9954 -0.3353
   19CHL1   H2A 1380   2.954   2.817   6.827 -0.5738  0.5764  1.0106
   19CHL1   H2B 1381   2.816   2.703   6.808 -1.1507  1.2214  1.3296
   19CHL1   C20 1382   2.443   3.088   5.997  0.9277  0.2414 -0.4243
   19CHL1   H20 1383   2.344   3.039   5.999  0.5902  0.9264  0.8249
   19CHL1   C21 1384   2.555   3.002   5.944  0.1249 -0.0675  0.0918
   19CHL1  H21A 1385   2.535   2.899   5.981 -1.2325 -0.3119 -1.2110
   19CHL1  H21B 1386   2.654   3.034   5.983  0.9015 -2.1763 -0.0221
   19CHL1  H21C 1387   2.560   2.975   5.836 -4.1726 -0.5440 -0.1642
   19CHL1   C22 1388   2.435   3.203   5.897 -0.7733 -0.0588 -0.2326
   19CHL1  H22A 1389   2.376   3.287   5.939  1.7520  1.6102  0.2304
   19CHL1  H22B 1390   2.530   3.258   5.877 -1.3273  1.4897  1.1918
   19CHL1   C23 1391   2.369   3.154   5.769 -0.0542 -0.0941  0.6033
   19CHL1  H23A 1392   2.424   3.075   5.714  0.1670  0.9328 -0.6900
   19CHL1  H23B 1393   2.265   3.122   5.791 -0.3559  0.1523 -0.4067
   19CHL1   C24 1394   2.352   3.272   5.673 -0.0216  0.3334  0.1507
   19CHL1  H24A 1395   2.310   3.364   5.718  0.0056  2.3211 -3.5701
   19CHL1  H24B 1396   2.453   3.314   5.651  0.5503 -1.6324 -1.2570
   19CHL1   C25 1397   2.270   3.243   5.544  0.1552  0.4994  0.7475
   19CHL1   H25 1398   2.318   3.162   5.484  0.8171  2.7599 -1.9528
   19CHL1   C26 1399   2.126   3.201   5.565  0.9610 -0.2673 -0.0093
   19CHL1  H26A 1400   2.066   3.216   5.473 -2.0881 -4.2530  1.0195
   19CHL1  H26B 1401   2.120   3.095   5.599  0.5651  0.0810  1.0379
   19CHL1  H26C 1402   2.087   3.270   5.643  2.4312 -0.5738  1.0393
   19CHL1   C27 1403   2.277   3.362   5.444 -0.2299 -0.0287 -0.0309
   19CHL1  H27A 1404   2.377   3.408   5.431 -1.1196  1.7779 -0.8533
   19CHL1  H27B 1405   2.225   3.340   5.349  0.2581 -0.6270 -0.1661
   19CHL1  H27C 1406   2.224   3.444   5.498 -1.8698 -2.4556  2.3175
   20CHL1    C3 1407   5.895   1.622   7.303 -0.2210 -0.1344 -0.0933
   20CHL1    H3 1408   6.004   1.628   7.285 -0.0570  0.7302  1.0847
   20CHL1    O3 1409   5.873   1.622   7.444  0.4120 -0.8270  0.1034
   20CHL1   H3' 1410   5.778   1.636   7.454  0.4943 -0.3726  0.2835
   20CHL1    C4 1411   5.823   1.748   7.242  0.0756  0.8995 -0.3205
   20CHL1   H4A 1412   5.716   1.744   7.271  0.1390 -1.6684 -0.1810
   20CHL1   H4B 1413   5.865   1.843   7.282 -1.3524  0.6869  1.7892
   20CHL1    C5 1414   5.841   1.756   7.090  0.5156 -0.3816 -0.0795
   20CHL1    C6 1415   5.891   1.865   7.023 -0.6164  0.2244 -0.1449
   20CHL1    H6 1416   5.909   1.960   7.076 -1.1532  0.0186  0.4197
   20CHL1    C7 1417   5.895   1.867   6.874 -0.5191  0.0961  0.8613
   20CHL1   H7A 1418   5.858   1.967   6.845  0.9449  0.6474  0.7822
   20CHL1   H7B 1419   6.000   1.860   6.836 -0.0764  0.6884  1.9516
   20CHL1    C8 1420   5.820   1.756   6.808  0.0091  0.5359 -0.3869
   20CHL1    H8 1421   5.713   1.783   6.818 -0.4339 -1.0517 -0.5458
   20CHL1   C14 1422   5.855   1.745   6.657 -0.0616  0.6372  0.4498
   20CHL1   H14 1423   5.956   1.700   6.651  0.1852  1.3437 -1.2300
   20CHL1   C15 1424   5.859   1.863   6.570  0.2278 -0.0452 -0.4474
   20CHL1  H15A 1425   5.765   1.922   6.569 -0.1250 -0.5929 -0.2496
   20CHL1  H15B 1426   5.950   1.923   6.593 -0.0348  0.3194 -0.3428
   20CHL1   C16 1427   5.861   1.808   6.431 -0.2659 -0.2284  0.4199
   20CHL1  H16A 1428   5.782   1.864   6.377 -0.4402 -1.1589 -0.3117
   20CHL1  H16B 1429   5.956   1.837   6.383 -0.9125  1.8717  0.3263
   20CHL1   C17 1430   5.826   1.658   6.435 -0.1853 -0.1551  0.2898
   20CHL1   H17 1431   5.922   1.603   6.436  0.0151  0.1876 -0.0508
   20CHL1   C13 1432   5.781   1.635   6.579 -0.7428 -0.0244 -0.4673
   20CHL1   C18 1433   5.636   1.672   6.572  0.3936 -0.0100 -0.7467
   20CHL1  H18A 1434   5.581   1.585   6.530  0.1238 -1.3440  2.1352
   20CHL1  H18B 1435   5.596   1.692   6.674 -0.5109  0.8511 -1.2537
   20CHL1  H18C 1436   5.617   1.766   6.516 -0.1698  1.3358  1.5884
   20CHL1   C12 1437   5.810   1.502   6.645  0.1583  0.2273 -0.2892
   20CHL1  H12A 1438   5.743   1.421   6.609  0.2016  0.5333 -1.0605
   20CHL1  H12B 1439   5.916   1.469   6.635  0.7033  1.0238  2.2044
   20CHL1   C11 1440   5.770   1.506   6.791 -0.0537  0.0168  0.3875
   20CHL1  H11A 1441   5.660   1.525   6.793 -0.2825 -1.2403  1.9405
   20CHL1  H11B 1442   5.785   1.403   6.830  2.2670  0.6564  1.3613
   20CHL1    C9 1443   5.842   1.614   6.873  0.1748 -0.2994 -0.4668
   20CHL1    H9 1444   5.951   1.594   6.879  0.2885  0.5127  0.5695
   20CHL1   C10 1445   5.797   1.620   7.020  0.0825  0.0212  0.5818
   20CHL1   C19 1446   5.643   1.611   7.030 -0.5711 -0.0821 -0.2402
   20CHL1  H19A 1447   5.613   1.636   7.134  1.0356  2.5984 -0.3382
   20CHL1  H19B 1448   5.588   1.690   6.975 -0.8125 -0.2726 -0.2807
   20CHL1  H19C 1449   5.620   1.505   7.003  0.6009 -0.2169 -0.7550
   20CHL1    C1 1450   5.865   1.496   7.098 -0.7376  0.4342  0.6556
   20CHL1   H1A 1451   5.813   1.412   7.046 -0.8373  0.6808  0.3535
   20CHL1   H1B 1452   5.975   1.494   7.091 -0.6704  1.3794  1.2333
   20CHL1    C2 1453   5.841   1.485   7.244  0.0971 -0.2209  0.0419
   20CHL1   H2A 1454   5.895   1.398   7.288  1.1218 -0.5709 -1.8210
   20CHL1   H2B 1455   5.734   1.490   7.273 -0.1701 -0.7591 -0.8207
   20CHL1   C20 1456   5.744   1.607   6.316  0.7246  0.6646 -0.3944
   20CHL1   H20 1457   5.639   1.635   6.338  1.4210  0.4861  4.0227
   20CHL1   C21 1458   5.761   1.449   6.313  0.3201  0.1811 -0.2879
   20CHL1  H21A 1459   5.702   1.396   6.235  1.8048 -4.2706  1.2636
   20CHL1  H21B 1460   5.728   1.398   6.406  2.3292  1.0712  0.9836
   20CHL1  H21C 1461   5.862   1.410   6.288 -0.8846 -0.6318 -4.6022
   20CHL1   C22 1462   5.783   1.660   6.177  0.6272  0.1874  0.5223
   20CHL1  H22A 1463   5.705   1.620   6.109  2.0425 -0.6514 -0.6767
   20CHL1  H22B 1464   5.784   1.771   6.179 -0.7140  0.2140  0.4025
   20CHL1   C23 1465   5.923   1.620   6.128  0.7316  0.7646  0.7808
   20CHL1  H23A 1466   5.992   1.664   6.203 -0.5748 -0.1932  2.6351
   20CHL1  H23B 1467   5.938   1.511   6.121 -1.8455  0.4297 -1.2563
   20CHL1   C24 1468   5.967   1.685   5.990  0.2228 -0.4254  0.2710
   20CHL1  H24A 1469   5.891   1.644   5.921  0.6390 -0.6345 -0.0643
   20CHL1  H24B 1470   5.944   1.793   5.989  0.1492 -0.4401  0.3504
   20CHL1   C25 1471   6.108   1.653   5.945 -1.4210  0.4479  0.1366
   20CHL1   H25 1472   6.112   1.542   5.947 -0.7909  0.3762 -2.2656
   20CHL1   C26 1473   6.125   1.702   5.794  0.6307 -0.0682 -0.1260
   20CHL1  H26A 1474   6.214   1.655   5.747  0.5657 -0.0738 -0.2450
   20CHL1  H26B 1475   6.035   1.672   5.736 -0.8124  1.1979  1.3660
   20CHL1  H26C 1476   6.133   1.812   5.786  0.9756 -0.1713 -1.4134
   20CHL1   C27 1477   6.227   1.714   6.023  0.2148  0.7738  0.7252
   20CHL1  H27A 1478   6.207   1.680   6.127 -1.8746  1.0597  0.4667
   20CHL1  H27B 1479   6.327   1.683   5.984 -0.8173  0.6122 -2.0554
   20CHL1  H27C 1480   6.224   1.825   6.020 -2.3566  0.7496 -0.6735
   21CHL1    C3 1481   4.769   6.778   7.284 -0.1769 -0.1264 -0.5021
   21CHL1    H3 1482   4.688   6.702   7.287  0.1879 -0.5587 -1.3801
   21CHL1    O3 1483   4.841   6.768   7.404  0.0797 -0.3176  0.0528
   21CHL1   H3' 1484   4.767   6.768   7.464 -0.2186  0.3584 -0.3030
   21CHL1    C4 1485   4.860   6.729   7.169  0.9335 -0.5133  0.1948
   21CHL1   H4A 1486   4.956   6.785   7.178  0.0058  1.3815 -0.9219
   21CHL1   H4B 1487   4.875   6.619   7.179 -2.2514 -1.1925 -1.3144
   21CHL1    C5 1488   4.810   6.762   7.031 -0.1822 -0.3615  0.6528
   21CHL1    C6 1489   4.802   6.663   6.945 -0.2363 -0.6933  0.3514
   21CHL1    H6 1490   4.827   6.560   6.973 -3.8422 -1.9561 -0.5243
   21CHL1    C7 1491   4.764   6.683   6.801 -0.3075 -0.0182  0.3575
   21CHL1   H7A 1492   4.830   6.623   6.735  0.4044 -0.2172  1.2325
   21CHL1   H7B 1493   4.664   6.638   6.782  0.3515 -1.7642  0.8686
   21CHL1    C8 1494   4.767   6.834   6.761  0.4759  0.4096  0.0350
   21CHL1    H8 1495   4.874   6.860   6.754  0.9731 -1.5423 -0.3712
   21CHL1   C14 1496   4.695   6.849   6.625  0.3396 -0.4076  0.1075
   21CHL1   H14 1497   4.587   6.833   6.644  0.2145 -0.7934 -0.8615
   21CHL1   C15 1498   4.727   6.751   6.509  0.4172 -0.5183  0.3621
   21CHL1  H15A 1499   4.837   6.739   6.500  0.2620 -1.2165 -0.9329
   21CHL1  H15B 1500   4.677   6.653   6.520 -2.5912  0.9747  0.8563
   21CHL1   C16 1501   4.688   6.832   6.383  0.3574  0.8567 -0.1344
   21CHL1  H16A 1502   4.778   6.824   6.319 -0.4244  1.2352 -1.3173
   21CHL1  H16B 1503   4.597   6.782   6.343  0.6387  0.3138 -0.1013
   21CHL1   C17 1504   4.649   6.976   6.422 -0.0615 -0.1219 -0.3492
   21CHL1   H17 1505   4.539   6.986   6.435  0.4338  2.5609  3.4779
   21CHL1   C13 1506   4.698   6.992   6.569 -0.2721  0.5745 -0.4018
   21CHL1   C18 1507   4.845   7.040   6.559  0.6703  0.5152 -0.2092
   21CHL1  H18A 1508   4.852   7.138   6.508 -1.4976 -0.3825 -2.4165
   21CHL1  H18B 1509   4.889   7.047   6.661  0.5467 -0.6588 -0.0718
   21CHL1  H18C 1510   4.911   6.967   6.508 -0.5916 -1.5144  0.9170
   21CHL1   C12 1511   4.620   7.078   6.666  0.5523 -0.1367 -1.2984
   21CHL1  H12A 1512   4.615   7.184   6.633  1.0183 -0.1732 -1.4928
   21CHL1  H12B 1513   4.512   7.053   6.656  0.0582  0.7729  1.0445
   21CHL1   C11 1514   4.671   7.068   6.813  0.3057 -0.1797 -0.2528
   21CHL1  H11A 1515   4.758   7.135   6.826  0.3690 -0.1494 -0.8281
   21CHL1  H11B 1516   4.600   7.120   6.881 -0.5569  0.1514 -1.3764
   21CHL1    C9 1517   4.694   6.921   6.863  0.4032 -0.1626 -0.3415
   21CHL1    H9 1518   4.597   6.873   6.884 -0.7165  2.8690  2.0760
   21CHL1   C10 1519   4.768   6.907   7.006  0.0483 -0.0718 -0.1403
   21CHL1   C19 1520   4.898   6.992   6.996 -0.8066  0.0108 -0.2401
   21CHL1  H19A 1521   4.875   7.101   6.989  1.0353  0.3550 -2.3111
   21CHL1  H19B 1522   4.961   6.985   7.087  1.0243 -0.1902 -1.4537
   21CHL1  H19C 1523   4.969   6.972   6.912  2.9071  0.3911  2.5458
   21CHL1    C1 1524   4.667   6.947   7.130 -0.0097 -0.7535  0.4743
   21CHL1   H1A 1525   4.641   7.055   7.127  0.3540 -0.6854 -0.4153
   21CHL1   H1B 1526   4.578   6.882   7.116 -0.4083 -0.1148 -0.0447
   21CHL1    C2 1527   4.725   6.925   7.272 -0.1030  0.4485 -0.0756
   21CHL1   H2A 1528   4.658   6.957   7.355 -0.8401  3.3465 -1.6452
   21CHL1   H2B 1529   4.815   6.990   7.275  1.1824 -1.3152  1.4903
   21CHL1   C20 1530   4.682   7.077   6.319 -0.0564  0.3939 -0.2177
   21CHL1   H20 1531   4.791   7.099   6.316  0.1845 -0.7867 -0.4091
   21CHL1   C21 1532   4.626   7.220   6.359 -0.7937  0.1694  0.2948
   21CHL1  H21A 1533   4.677   7.251   6.453 -0.2848  2.0365 -0.5656
   21CHL1  H21B 1534   4.518   7.215   6.384 -0.8789  1.7235  0.2988
   21CHL1  H21C 1535   4.636   7.302   6.285 -3.0379  0.2554  0.0233
   21CHL1   C22 1536   4.633   7.026   6.183 -0.1651 -0.0561  0.1657
   21CHL1  H22A 1537   4.709   6.954   6.148  0.5842  0.4265  0.7653
   21CHL1  H22B 1538   4.532   6.985   6.206  0.5625 -1.6078  0.7283
   21CHL1   C23 1539   4.625   7.134   6.074  0.4230  0.5433 -0.2616
   21CHL1  H23A 1540   4.547   7.209   6.099 -1.6279 -1.7936  0.6827
   21CHL1  H23B 1541   4.721   7.190   6.066  1.6517 -1.1219  1.9199
   21CHL1   C24 1542   4.595   7.066   5.936  0.0025  0.1309  0.3215
   21CHL1  H24A 1543   4.659   6.976   5.924 -1.1822 -1.1302  2.6043
   21CHL1  H24B 1544   4.488   7.035   5.933 -0.0608 -0.2492  3.3231
   21CHL1   C25 1545   4.620   7.158   5.816 -0.1561  0.1133 -0.6393
   21CHL1   H25 1546   4.728   7.180   5.806  0.1472 -1.1730 -0.3858
   21CHL1   C26 1547   4.595   7.091   5.681 -0.2866  0.6192  0.2191
   21CHL1  H26A 1548   4.487   7.064   5.676 -0.4600  1.4607 -1.2853
   21CHL1  H26B 1549   4.610   7.150   5.588  1.0897 -1.6347 -1.0742
   21CHL1  H26C 1550   4.646   6.993   5.676 -0.8084  0.3335  0.4432
   21CHL1   C27 1551   4.541   7.289   5.829  0.2698 -0.3602 -0.1889
   21CHL1  H27A 1552   4.553   7.345   5.924 -0.8559  0.5048 -0.5309
   21CHL1  H27B 1553   4.569   7.359   5.748 -0.2534  0.3706  0.2536
   21CHL1  H27C 1554   4.434   7.260   5.816  0.6570 -1.1787 -1.7289
   22CHL1    C3 1555   6.565   2.439   7.321 -0.6021  0.0808 -0.0672
   22CHL1    H3 1556   6.501   2.528   7.336  0.4350  0.7748  0.3053
   22CHL1    O3 1557   6.563   2.367   7.447  0.2610  0.4475 -0.4483
   22CHL1   H3' 1558   6.472   2.373   7.476  0.9207  0.3586  1.9127
   22CHL1    C4 1559   6.499   2.364   7.200 -0.5799 -0.0670 -0.9087
   22CHL1   H4A 1560   6.548   2.264   7.193 -2.0322 -0.7956 -1.0708
   22CHL1   H4B 1561   6.392   2.338   7.218 -2.0212  3.5538 -3.2544
   22CHL1    C5 1562   6.530   2.408   7.061  0.1414 -0.2242 -0.0447
   22CHL1    C6 1563   6.426   2.442   6.985  0.1745  0.6004  0.5311
   22CHL1    H6 1564   6.327   2.431   7.031 -1.1870  0.2539 -2.2503
   22CHL1    C7 1565   6.439   2.491   6.845  0.6300 -0.1524  0.0101
   22CHL1   H7A 1566   6.377   2.446   6.765 -0.8034  0.4355  0.7490
   22CHL1   H7B 1567   6.404   2.597   6.848 -0.6516 -0.5337 -0.8277
   22CHL1    C8 1568   6.587   2.496   6.786 -0.4740 -0.5679  0.3431
   22CHL1    H8 1569   6.607   2.393   6.749  0.3627  0.2498 -1.5673
   22CHL1   C14 1570   6.607   2.598   6.673  0.4781  0.1648  0.0951
   22CHL1   H14 1571   6.584   2.695   6.723 -1.7707 -1.9851  3.7354
   22CHL1   C15 1572   6.503   2.593   6.559 -0.3073 -0.3342  0.8294
   22CHL1  H15A 1573   6.507   2.493   6.512 -0.9050 -0.5537  1.2223
   22CHL1  H15B 1574   6.399   2.610   6.597 -0.9819 -0.4713 -0.8726
   22CHL1   C16 1575   6.562   2.703   6.469  0.0722  0.1251 -0.0337
   22CHL1  H16A 1576   6.563   2.669   6.363  0.9276  0.3571 -0.1039
   22CHL1  H16B 1577   6.501   2.796   6.474  1.4768  1.0156  1.2400
   22CHL1   C17 1578   6.717   2.730   6.511  0.2229  0.1908  0.4529
   22CHL1   H17 1579   6.710   2.826   6.567 -0.9336 -0.1693  0.9720
   22CHL1   C13 1580   6.750   2.616   6.612  0.9949 -1.0772  0.7194
   22CHL1   C18 1581   6.795   2.492   6.542 -1.7116  0.5359  0.4129
   22CHL1  H18A 1582   6.724   2.467   6.460  0.3117 -2.5226 -0.5947
   22CHL1  H18B 1583   6.897   2.498   6.497 -1.3363 -2.1275  0.7694
   22CHL1  H18C 1584   6.798   2.406   6.612 -0.0596 -0.4735 -0.8198
   22CHL1   C12 1585   6.835   2.657   6.731  0.0161  0.0331 -0.8281
   22CHL1  H12A 1586   6.940   2.673   6.700 -0.1550  1.1678 -0.8428
   22CHL1  H12B 1587   6.798   2.755   6.769 -2.6130 -1.5275  1.0257
   22CHL1   C11 1588   6.827   2.555   6.849 -0.3139 -0.6022  0.0618
   22CHL1  H11A 1589   6.884   2.465   6.820 -1.2866 -1.4600  0.7301
   22CHL1  H11B 1590   6.898   2.594   6.926 -1.1335  0.8611  0.1053
   22CHL1    C9 1591   6.683   2.539   6.899 -0.0546  0.2301  0.1022
   22CHL1    H9 1592   6.644   2.636   6.937 -0.3642  0.2949 -0.3755
   22CHL1   C10 1593   6.674   2.449   7.032 -0.0274  0.1802 -0.1402
   22CHL1   C19 1594   6.760   2.320   6.996 -0.2803  0.4656 -0.1764
   22CHL1  H19A 1595   6.748   2.288   6.890  0.1797 -1.0558  0.2137
   22CHL1  H19B 1596   6.864   2.350   7.020 -0.4680  0.4827  0.6262
   22CHL1  H19C 1597   6.727   2.250   7.075 -1.3622  2.2928  1.0679
   22CHL1    C1 1598   6.736   2.532   7.159 -0.4081 -0.0051 -0.1959
   22CHL1   H1A 1599   6.840   2.567   7.140 -0.3138  0.2351  0.7234
   22CHL1   H1B 1600   6.673   2.623   7.157 -0.8314 -0.2742  0.5124
   22CHL1    C2 1601   6.714   2.467   7.296  0.2865 -0.6679 -0.6086
   22CHL1   H2A 1602   6.753   2.529   7.379  0.0452 -2.3478  0.8319
   22CHL1   H2B 1603   6.770   2.371   7.301 -1.0581 -1.4234  1.1924
   22CHL1   C20 1604   6.811   2.762   6.400  0.0835 -0.9796 -0.3343
   22CHL1   H20 1605   6.841   2.672   6.342 -1.3922 -0.5285 -1.8849
   22CHL1   C21 1606   6.951   2.810   6.459 -0.4246  1.1452  0.6193
   22CHL1  H21A 1607   6.993   2.721   6.511 -1.4153 -0.7375 -1.6092
   22CHL1  H21B 1608   6.956   2.899   6.524 -0.2245  1.3266  0.3544
   22CHL1  H21C 1609   7.008   2.827   6.365 -1.9512 -2.1476 -1.0990
   22CHL1   C22 1610   6.762   2.860   6.295 -0.6086 -0.2805  0.0047
   22CHL1  H22A 1611   6.670   2.915   6.325 -0.0091  1.6336 -1.4510
   22CHL1  H22B 1612   6.831   2.948   6.292  0.1690 -0.8776  0.0088
   22CHL1   C23 1613   6.746   2.802   6.156  0.4708  0.7168  0.0256
   22CHL1  H23A 1614   6.825   2.730   6.126  1.1526  2.7713 -3.6359
   22CHL1  H23B 1615   6.656   2.737   6.156  1.2740 -0.4439 -1.7661
   22CHL1   C24 1616   6.747   2.906   6.044  0.6999 -0.2854  0.4218
   22CHL1  H24A 1617   6.687   2.869   5.958  1.3725 -1.0991  0.2882
   22CHL1  H24B 1618   6.690   2.997   6.073 -0.2933 -1.2759  1.7006
   22CHL1   C25 1619   6.890   2.938   5.985  0.1451 -0.3038  0.0729
   22CHL1   H25 1620   6.920   2.840   5.941 -2.6140 -0.7237 -1.0391
   22CHL1   C26 1621   6.870   3.054   5.889 -0.1283 -0.4269  0.0271
   22CHL1  H26A 1622   6.958   3.063   5.821 -0.1472 -2.0444 -0.2678
   22CHL1  H26B 1623   6.786   3.028   5.822 -0.2174  1.4763 -0.6404
   22CHL1  H26C 1624   6.845   3.143   5.950 -1.4912 -0.6641 -0.1736
   22CHL1   C27 1625   6.993   2.986   6.084 -0.2152 -0.2679 -0.0676
   22CHL1  H27A 1626   7.022   2.914   6.163  2.6872  1.6396  0.7691
   22CHL1  H27B 1627   7.084   3.027   6.034  0.3278  0.4281  1.4314
   22CHL1  H27C 1628   6.960   3.070   6.149 -0.5950  0.1217 -0.7494
   23CHL1    C3 1629   5.718   5.484   6.887 -0.6061 -0.4016  1.0055
   23CHL1    H3 1630   5.801   5.558   6.888 -0.0029 -1.0260  3.6602
   23CHL1    O3 1631   5.701   5.458   7.024  0.7664 -0.4128 -0.0433
   23CHL1   H3' 1632   5.606   5.449   7.036  0.2530  2.6461 -0.8831
   23CHL1    C4 1633   5.591   5.560   6.825 -0.5181  0.2921 -0.4290
   23CHL1   H4A 1634   5.507   5.489   6.837  0.6059 -1.0378 -0.1840
   23CHL1   H4B 1635   5.584   5.654   6.883 -0.4358  0.6269 -0.9579
   23CHL1    C5 1636   5.608   5.577   6.673 -0.3070  0.1266  1.0443
   23CHL1    C6 1637   5.595   5.696   6.613  0.2574  0.1433 -0.3802
   23CHL1    H6 1638   5.586   5.787   6.674  2.9890 -0.5504  1.2604
   23CHL1    C7 1639   5.595   5.717   6.466  0.3493 -0.2857  0.4564
   23CHL1   H7A 1640   5.503   5.768   6.429 -0.0223 -2.0170 -1.1706
   23CHL1   H7B 1641   5.676   5.783   6.429 -1.8165  1.2756 -1.8184
   23CHL1    C8 1642   5.596   5.583   6.382  0.4341 -0.1327  0.6205
   23CHL1    H8 1643   5.495   5.538   6.383  0.0374  0.4903 -2.1266
   23CHL1   C14 1644   5.639   5.607   6.237  0.0497 -0.6477 -0.0552
   23CHL1   H14 1645   5.743   5.646   6.246 -0.0207 -0.8027  1.8334
   23CHL1   C15 1646   5.557   5.710   6.148  0.3414 -0.1662 -0.6181
   23CHL1  H15A 1647   5.447   5.701   6.163  0.4793  0.2685  0.8626
   23CHL1  H15B 1648   5.583   5.814   6.178  1.7650 -0.9439  1.1120
   23CHL1   C16 1649   5.616   5.682   6.007 -0.0369  0.4635 -0.2026
   23CHL1  H16A 1650   5.532   5.658   5.939 -0.1052  2.5677 -0.9095
   23CHL1  H16B 1651   5.680   5.768   5.978  0.5155  0.4150  0.8117
   23CHL1   C17 1652   5.706   5.552   6.020  0.1339  0.0196 -1.5358
   23CHL1   H17 1653   5.812   5.585   6.033  1.5743 -3.9056 -2.1154
   23CHL1   C13 1654   5.662   5.482   6.152 -0.2697 -0.2067 -0.0127
   23CHL1   C18 1655   5.539   5.402   6.128  0.1422 -0.1336 -0.5200
   23CHL1  H18A 1656   5.453   5.457   6.086 -1.5475 -2.1107  0.1822
   23CHL1  H18B 1657   5.562   5.313   6.066 -0.0742 -0.8250  0.3655
   23CHL1  H18C 1658   5.496   5.365   6.224 -3.0651  0.7937 -1.4849
   23CHL1   C12 1659   5.761   5.390   6.224 -0.2304 -0.2560  0.1457
   23CHL1  H12A 1660   5.774   5.295   6.169  1.7105 -1.2361  2.1315
   23CHL1  H12B 1661   5.863   5.434   6.217 -0.8589  1.4795  1.3167
   23CHL1   C11 1662   5.721   5.359   6.366 -0.5687  0.0437 -0.0825
   23CHL1  H11A 1663   5.632   5.293   6.374 -0.4902 -0.3025 -1.7396
   23CHL1  H11B 1664   5.802   5.300   6.415  0.3601  0.7422 -0.7433
   23CHL1    C9 1665   5.689   5.490   6.451  0.2893 -0.3064  0.0901
   23CHL1    H9 1666   5.784   5.546   6.462 -0.4927  0.7552  1.8487
   23CHL1   C10 1667   5.639   5.457   6.600  0.6883 -0.3813  0.1065
   23CHL1   C19 1668   5.521   5.354   6.594 -0.3734 -0.1455  0.3522
   23CHL1  H19A 1669   5.441   5.398   6.531  0.3320  0.9379  0.1928
   23CHL1  H19B 1670   5.563   5.266   6.541  0.8499  0.9502 -0.5588
   23CHL1  H19C 1671   5.479   5.330   6.694  0.0049 -0.7365  0.3744
   23CHL1    C1 1672   5.756   5.384   6.667 -0.4164  0.6703 -1.0374
   23CHL1   H1A 1673   5.757   5.282   6.624 -0.5710 -0.3835  1.3126
   23CHL1   H1B 1674   5.853   5.431   6.641  1.8214 -2.6467  0.6166
   23CHL1    C2 1675   5.738   5.357   6.813 -0.7996 -0.0178 -0.1050
   23CHL1   H2A 1676   5.833   5.310   6.848 -0.8117 -0.9861 -1.2973
   23CHL1   H2B 1677   5.657   5.293   6.853 -0.6097  0.3528  0.8963
   23CHL1   C20 1678   5.693   5.483   5.880  0.5172  1.0579 -0.1272
   23CHL1   H20 1679   5.586   5.455   5.873  0.5765  0.9308 -0.5459
   23CHL1   C21 1680   5.782   5.354   5.887 -0.9174  0.4454 -0.6539
   23CHL1  H21A 1681   5.720   5.276   5.937 -1.3829 -0.0196 -1.9061
   23CHL1  H21B 1682   5.872   5.384   5.944 -1.0253 -0.5707  0.0824
   23CHL1  H21C 1683   5.807   5.309   5.788 -1.5993  0.3819 -0.8018
   23CHL1   C22 1684   5.733   5.579   5.766  0.3691 -0.5554 -0.4961
   23CHL1  H22A 1685   5.650   5.650   5.748  0.5057 -0.5194 -0.9982
   23CHL1  H22B 1686   5.804   5.650   5.813 -1.7081  1.1354  0.2672
   23CHL1   C23 1687   5.780   5.528   5.633  0.0747 -0.0106  0.4076
   23CHL1  H23A 1688   5.810   5.610   5.565 -0.3736  0.6925  1.0384
   23CHL1  H23B 1689   5.871   5.464   5.645 -0.4274 -0.3309  3.5546
   23CHL1   C24 1690   5.672   5.461   5.540  0.0186 -0.0319 -0.4811
   23CHL1  H24A 1691   5.648   5.369   5.599 -0.0182  1.2164  1.5299
   23CHL1  H24B 1692   5.578   5.516   5.521 -0.2845 -1.2552 -2.9272
   23CHL1   C25 1693   5.722   5.418   5.399 -0.0623  0.2417 -0.2682
   23CHL1   H25 1694   5.827   5.380   5.405  0.2362  0.9910 -0.5836
   23CHL1   C26 1695   5.631   5.303   5.344  0.5594 -0.3661 -0.4644
   23CHL1  H26A 1696   5.656   5.270   5.241 -0.1233 -1.7535 -0.2091
   23CHL1  H26B 1697   5.639   5.210   5.404  0.7411 -0.3779 -0.5086
   23CHL1  H26C 1698   5.525   5.337   5.344  0.8482  1.1360  3.7115
   23CHL1   C27 1699   5.723   5.540   5.302 -0.0245 -0.6482  0.1903
   23CHL1  H27A 1700   5.803   5.615   5.320 -2.4874  2.5437 -1.2705
   23CHL1  H27B 1701   5.725   5.504   5.197  0.0456 -1.9614  0.6212
   23CHL1  H27C 1702   5.627   5.596   5.308  0.6457  0.5331  0.2055
   24CHL1    C3 1703   0.888   4.914   6.936 -0.4684 -0.4755  1.1755
   24CHL1    H3 1704   0.984   4.969   6.929 -1.7690  1.7223 -1.0353
   24CHL1    O3 1705   0.862   4.848   7.057  0.0068 -0.5327  0.6398
   24CHL1   H3' 1706   0.805   4.779   7.023  0.5079 -0.3806 -0.5332
   24CHL1    C4 1707   0.785   5.024   6.913 -0.1622 -0.5689  0.2579
   24CHL1   H4A 1708   0.688   4.984   6.948  0.1708 -0.6662  1.1018
   24CHL1   H4B 1709   0.803   5.108   6.984 -2.6185  1.2381 -1.1006
   24CHL1    C5 1710   0.766   5.071   6.767 -0.2031 -0.8668  0.0515
   24CHL1    C6 1711   0.761   5.198   6.742 -0.1426  0.0168 -0.0654
   24CHL1    H6 1712   0.764   5.281   6.815  2.8338  2.9087 -3.0960
   24CHL1    C7 1713   0.759   5.251   6.598 -0.2893  0.0621 -0.2533
   24CHL1   H7A 1714   0.684   5.332   6.588  0.0418  0.5838  1.1818
   24CHL1   H7B 1715   0.859   5.292   6.570 -0.4651 -1.0676 -2.8144
   24CHL1    C8 1716   0.727   5.148   6.489  0.3369 -0.3476 -0.8019
   24CHL1    H8 1717   0.618   5.128   6.497  0.2230 -0.0389 -1.5137
   24CHL1   C14 1718   0.749   5.203   6.346  0.3707  0.6179 -0.3541
   24CHL1   H14 1719   0.857   5.229   6.348  0.4776  0.2010  2.0356
   24CHL1   C15 1720   0.674   5.330   6.304  0.2076 -0.0057  0.0520
   24CHL1  H15A 1721   0.565   5.337   6.324  0.2606  0.5578  0.1661
   24CHL1  H15B 1722   0.709   5.424   6.351 -0.5089 -0.3923  1.4069
   24CHL1   C16 1723   0.682   5.335   6.151 -0.9057  0.3569 -0.5912
   24CHL1  H16A 1724   0.578   5.355   6.116 -0.0556 -1.3288 -4.5905
   24CHL1  H16B 1725   0.760   5.412   6.129 -1.6651  1.6841  1.1138
   24CHL1   C17 1726   0.734   5.193   6.109 -0.3869  0.1062 -0.4301
   24CHL1   H17 1727   0.844   5.193   6.097  0.0008  1.1075  2.3614
   24CHL1   C13 1728   0.718   5.104   6.241 -0.1268  0.4577 -0.3766
   24CHL1   C18 1729   0.562   5.063   6.249 -0.2264 -0.2531 -0.1746
   24CHL1  H18A 1730   0.530   5.016   6.345 -0.6198 -1.9519 -1.1029
   24CHL1  H18B 1731   0.502   5.154   6.225  0.6239  0.6626  1.0559
   24CHL1  H18C 1732   0.544   4.987   6.170 -0.4865  0.0490 -0.4084
   24CHL1   C12 1733   0.822   4.985   6.261  0.2326 -0.8193 -0.2520
   24CHL1  H12A 1734   0.804   4.908   6.183 -3.5267 -0.5641  0.1526
   24CHL1  H12B 1735   0.924   5.027   6.247 -0.1597 -0.0050 -0.7381
   24CHL1   C11 1736   0.802   4.921   6.399  0.5397  0.1531  0.2114
   24CHL1  H11A 1737   0.707   4.865   6.396 -1.8982  3.9073  0.1128
   24CHL1  H11B 1738   0.882   4.844   6.404  0.1676 -0.4478 -2.0786
   24CHL1    C9 1739   0.817   5.019   6.516  1.1076 -0.0781 -0.3471
   24CHL1    H9 1740   0.924   5.048   6.526  1.7206 -1.8639 -1.2726
   24CHL1   C10 1741   0.784   4.960   6.657  0.2456  0.2651 -0.4923
   24CHL1   C19 1742   0.646   4.884   6.651  0.3842  0.0228  0.4002
   24CHL1  H19A 1743   0.648   4.791   6.590  0.5075 -1.1664  2.1502
   24CHL1  H19B 1744   0.616   4.850   6.753  1.6052 -0.4006  0.6313
   24CHL1  H19C 1745   0.573   4.953   6.602  1.5288 -1.0130 -2.9933
   24CHL1    C1 1746   0.901   4.863   6.693 -0.1267 -0.4730  0.2837
   24CHL1   H1A 1747   0.899   4.785   6.613  0.2806  0.4002 -0.5943
   24CHL1   H1B 1748   1.000   4.913   6.689  1.1108 -2.7319  0.7086
   24CHL1    C2 1749   0.889   4.802   6.831  0.4491 -1.1075  0.0687
   24CHL1   H2A 1750   0.982   4.743   6.849 -0.6083 -2.0776  2.8915
   24CHL1   H2B 1751   0.803   4.733   6.843 -0.2454 -0.2426  0.1630
   24CHL1   C20 1752   0.661   5.144   5.981  0.6160  0.3099  0.5857
   24CHL1   H20 1753   0.553   5.144   6.004 -0.0255 -1.2172 -2.0644
   24CHL1   C21 1754   0.696   5.006   5.929 -0.0305 -0.2812  0.4076
   24CHL1  H21A 1755   0.795   5.016   5.880  1.4593 -1.9007  2.8497
   24CHL1  H21B 1756   0.633   4.981   5.841 -0.8634 -0.8459  1.1511
   24CHL1  H21C 1757   0.694   4.919   5.998  0.3227 -0.6418 -0.0313
   24CHL1   C22 1758   0.682   5.247   5.863 -0.3214  0.1699 -0.5653
   24CHL1  H22A 1759   0.641   5.342   5.903 -1.5948 -0.9586  0.9293
   24CHL1  H22B 1760   0.792   5.254   5.864 -0.3292  0.2670  0.2633
   24CHL1   C23 1761   0.623   5.219   5.724  0.7669  0.4127 -0.5664
   24CHL1  H23A 1762   0.526   5.168   5.740  0.6216  1.1975  1.2959
   24CHL1  H23B 1763   0.609   5.318   5.675 -1.5467  0.3906 -0.0651
   24CHL1   C24 1764   0.717   5.147   5.630  0.4285 -0.7490  0.1829
   24CHL1  H24A 1765   0.809   5.203   5.602 -0.8162  0.6377 -1.3155
   24CHL1  H24B 1766   0.735   5.045   5.670 -0.1980  0.1869  3.1162
   24CHL1   C25 1767   0.643   5.126   5.495  0.0575 -0.3900  1.1900
   24CHL1   H25 1768   0.543   5.085   5.519  0.4009 -1.3569  1.0137
   24CHL1   C26 1769   0.619   5.262   5.409 -0.4670  0.2005 -0.0604
   24CHL1  H26A 1770   0.714   5.319   5.417 -1.3250  1.6394  0.1576
   24CHL1  H26B 1771   0.582   5.236   5.308  1.8186 -0.7766 -0.7162
   24CHL1  H26C 1772   0.541   5.316   5.467 -0.6709  0.9244 -0.9994
   24CHL1   C27 1773   0.708   5.015   5.408  0.3454  0.5572 -0.0819
   24CHL1  H27A 1774   0.641   4.982   5.325  1.7018  1.1016 -1.4298
   24CHL1  H27B 1775   0.800   5.052   5.359  0.5762 -2.6909 -2.4615
   24CHL1  H27C 1776   0.729   4.926   5.472  0.6388  1.3010  0.8781
   25CHL1    C3 1777   3.988   1.213   7.184 -0.6826 -0.1424  0.3164
   25CHL1    H3 1778   4.087   1.162   7.183 -0.7013 -0.1962 -1.0386
   25CHL1    O3 1779   3.964   1.297   7.292 -0.2280  0.2682  0.0575
   25CHL1   H3' 1780   3.901   1.365   7.266 -0.4473 -0.0188 -0.1615
   25CHL1    C4 1781   3.980   1.302   7.058 -0.1207  0.6336 -0.1017
   25CHL1   H4A 1782   3.878   1.346   7.067 -0.2633  0.3106 -0.1540
   25CHL1   H4B 1783   4.061   1.378   7.048  0.5839 -0.2836 -1.5318
   25CHL1    C5 1784   3.992   1.222   6.931 -0.2020  0.4355 -0.2340
   25CHL1    C6 1785   4.094   1.239   6.846 -1.0468 -0.1474  0.3803
   25CHL1    H6 1786   4.172   1.316   6.862 -0.4031 -1.0113  1.5731
   25CHL1    C7 1787   4.115   1.169   6.717 -0.4221 -0.0552  0.2108
   25CHL1   H7A 1788   4.159   1.225   6.632  1.0518 -3.0348 -1.1503
   25CHL1   H7B 1789   4.201   1.103   6.743  1.2840  3.3801  4.6137
   25CHL1    C8 1790   3.984   1.083   6.670  0.1928  0.0954  0.3951
   25CHL1    H8 1791   3.919   1.164   6.631  1.3607  0.3694 -1.0718
   25CHL1   C14 1792   4.019   0.980   6.566  0.8217  0.4952 -0.5477
   25CHL1   H14 1793   4.089   0.911   6.619  3.3749  2.0344 -1.6869
   25CHL1   C15 1794   4.096   1.029   6.448 -0.6152  0.6505  0.4964
   25CHL1  H15A 1795   4.041   1.112   6.399 -0.2088  1.6151  1.6298
   25CHL1  H15B 1796   4.200   1.063   6.464 -0.5617  1.6392 -1.6393
   25CHL1   C16 1797   4.090   0.909   6.345 -0.2878  0.4803 -0.4033
   25CHL1  H16A 1798   4.042   0.951   6.254  0.1613 -0.3041 -1.0058
   25CHL1  H16B 1799   4.193   0.874   6.324 -1.1151 -1.8706 -0.7693
   25CHL1   C17 1800   3.990   0.808   6.416 -0.2951 -0.0331  0.5935
   25CHL1   H17 1801   4.066   0.746   6.468 -0.3546  0.5660  1.4062
   25CHL1   C13 1802   3.908   0.890   6.515  0.4885 -0.2439  0.4280
   25CHL1   C18 1803   3.801   0.976   6.450 -0.1609  0.0351  0.2612
   25CHL1  H18A 1804   3.828   1.045   6.367  2.7798 -0.7837  0.4277
   25CHL1  H18B 1805   3.716   0.917   6.409  0.0390 -1.0270  1.3094
   25CHL1  H18C 1806   3.763   1.051   6.522  0.7307  0.1512  0.6171
   25CHL1   C12 1807   3.852   0.816   6.639  0.0800  0.2359  0.2439
   25CHL1  H12A 1808   3.772   0.744   6.613  0.7712 -0.3176 -0.4321
   25CHL1  H12B 1809   3.933   0.750   6.678 -0.6983 -0.6688  0.3576
   25CHL1   C11 1810   3.811   0.917   6.750 -0.1363 -0.2349  0.4003
   25CHL1  H11A 1811   3.715   0.963   6.719 -0.2132 -0.8194 -0.2756
   25CHL1  H11B 1812   3.781   0.851   6.834 -1.8071  0.8397  0.6803
   25CHL1    C9 1813   3.925   1.011   6.787 -0.5660 -0.2387 -0.4992
   25CHL1    H9 1814   4.004   0.944   6.828 -1.2373  0.8416  2.8467
   25CHL1   C10 1815   3.891   1.110   6.903  0.8192  0.4770 -0.9583
   25CHL1   C19 1816   3.758   1.175   6.865 -0.5909  0.1855 -0.6581
   25CHL1  H19A 1817   3.769   1.230   6.769  2.2628  0.7990 -0.0943
   25CHL1  H19B 1818   3.678   1.099   6.854 -1.7027  1.3058 -0.4340
   25CHL1  H19C 1819   3.720   1.250   6.937  0.0270 -0.7088  0.6550
   25CHL1    C1 1820   3.869   1.034   7.041  0.2305 -0.2864 -0.0145
   25CHL1   H1A 1821   3.779   0.970   7.028  1.1287 -1.1798 -2.6459
   25CHL1   H1B 1822   3.956   0.965   7.053  0.5456 -0.2539 -1.8000
   25CHL1    C2 1823   3.871   1.117   7.169  0.2659 -0.2558 -0.1388
   25CHL1   H2A 1824   3.868   1.042   7.251 -0.7650 -0.7112 -0.5640
   25CHL1   H2B 1825   3.781   1.182   7.170  0.8617  0.5874 -0.3740
   25CHL1   C20 1826   3.906   0.723   6.316  0.2607  0.3182 -0.1852
   25CHL1   H20 1827   3.824   0.788   6.279 -1.3602 -0.0655  2.4407
   25CHL1   C21 1828   3.850   0.597   6.381  0.3968  0.7170 -0.5794
   25CHL1  H21A 1829   3.933   0.553   6.440  0.0615  0.1374 -0.5329
   25CHL1  H21B 1830   3.823   0.521   6.305 -0.0536  1.2058 -0.9081
   25CHL1  H21C 1831   3.762   0.610   6.447  1.2276  2.0212  0.3296
   25CHL1   C22 1832   3.987   0.672   6.197 -0.2030  0.2898  0.1527
   25CHL1  H22A 1833   4.075   0.734   6.171 -0.6958  0.9200 -0.0167
   25CHL1  H22B 1834   4.024   0.569   6.217  1.9499  1.0394  0.2085
   25CHL1   C23 1835   3.906   0.671   6.066  0.3123  0.8107 -1.1483
   25CHL1  H23A 1836   3.853   0.767   6.049 -2.3015 -0.4426 -0.5421
   25CHL1  H23B 1837   3.981   0.661   5.985 -1.0246 -1.7327 -2.2091
   25CHL1   C24 1838   3.804   0.552   6.036 -0.7920 -0.0739 -0.9246
   25CHL1  H24A 1839   3.872   0.464   6.045  0.1205  0.7739  1.0780
   25CHL1  H24B 1840   3.733   0.549   6.121  0.2438 -1.1906 -0.0620
   25CHL1   C25 1841   3.734   0.532   5.902  0.6554  0.4629  0.2487
   25CHL1   H25 1842   3.800   0.555   5.816  0.4974  2.7745  0.6700
   25CHL1   C26 1843   3.685   0.382   5.893 -0.0844 -0.2404  0.1613
   25CHL1  H26A 1844   3.770   0.311   5.897  1.3177  1.0396 -3.1605
   25CHL1  H26B 1845   3.617   0.346   5.973  1.0325  0.8157  1.6623
   25CHL1  H26C 1846   3.631   0.371   5.797  1.5580 -0.1432 -0.8060
   25CHL1   C27 1847   3.620   0.628   5.879  0.0646 -0.6612 -0.1243
   25CHL1  H27A 1848   3.569   0.613   5.782 -0.2178  0.2275 -0.1209
   25CHL1  H27B 1849   3.550   0.617   5.965 -0.4162 -1.5926 -0.6103
   25CHL1  H27C 1850   3.669   0.727   5.872  0.8687 -1.0326  0.1549
   26CHL1    C3 1851   6.616   4.789   6.809  1.2362  0.1474 -0.6606
   26CHL1    H3 1852   6.525   4.730   6.783  0.3756  0.5598  1.2811
   26CHL1    O3 1853   6.667   4.732   6.932  0.7789  0.0403  0.4789
   26CHL1   H3' 1854   6.731   4.798   6.961  0.5727 -0.7532  3.0091
   26CHL1    C4 1855   6.720   4.763   6.696 -0.7625 -0.2951 -0.8478
   26CHL1   H4A 1856   6.818   4.795   6.737 -1.1893 -1.5170  1.2894
   26CHL1   H4B 1857   6.731   4.652   6.697  1.3915 -0.1338  0.0020
   26CHL1    C5 1858   6.677   4.815   6.567  0.1148 -0.5673 -1.1745
   26CHL1    C6 1859   6.656   4.735   6.462 -0.0945  0.6093 -0.4982
   26CHL1    H6 1860   6.668   4.626   6.472 -0.7190  0.7755  4.7572
   26CHL1    C7 1861   6.626   4.792   6.319 -0.0177  0.4994 -0.0851
   26CHL1   H7A 1862   6.681   4.741   6.236  1.1813  1.2528  0.2241
   26CHL1   H7B 1863   6.518   4.777   6.298  0.3531 -1.8081 -0.7312
   26CHL1    C8 1864   6.652   4.946   6.310 -0.5970  0.2645  0.4097
   26CHL1    H8 1865   6.762   4.956   6.319 -0.3774 -2.2883  1.5907
   26CHL1   C14 1866   6.577   5.004   6.183 -0.6817 -0.3961 -0.1337
   26CHL1   H14 1867   6.468   4.991   6.204 -0.5499 -1.4736 -0.0616
   26CHL1   C15 1868   6.610   4.926   6.054  0.3990  0.6784 -0.3792
   26CHL1  H15A 1869   6.721   4.917   6.053  0.4710  1.5481 -0.7319
   26CHL1  H15B 1870   6.558   4.827   6.052  0.0373  0.7605  1.7982
   26CHL1   C16 1871   6.569   5.019   5.944  0.3119  0.2293 -0.5023
   26CHL1  H16A 1872   6.651   5.035   5.871  1.5832  1.5278  1.1389
   26CHL1  H16B 1873   6.481   4.979   5.889 -1.6509  2.6612  0.6218
   26CHL1   C17 1874   6.530   5.155   6.020 -0.6988 -0.4046 -0.2745
   26CHL1   H17 1875   6.420   5.160   6.035 -0.3291 -1.2886  4.1772
   26CHL1   C13 1876   6.596   5.152   6.162 -0.3340  0.5544  0.8110
   26CHL1   C18 1877   6.749   5.185   6.149 -0.2244 -0.8956  0.4502
   26CHL1  H18A 1878   6.754   5.291   6.117  2.6742 -0.7881  1.0240
   26CHL1  H18B 1879   6.795   5.164   6.248 -1.4119 -1.7644  0.8490
   26CHL1  H18C 1880   6.790   5.125   6.065 -0.1115  0.2384 -0.3308
   26CHL1   C12 1881   6.539   5.224   6.284 -0.3329 -0.2358  0.4743
   26CHL1  H12A 1882   6.543   5.334   6.270 -1.3507 -0.1568  0.6928
   26CHL1  H12B 1883   6.431   5.198   6.282 -0.3856  0.0399 -0.7986
   26CHL1   C11 1884   6.587   5.176   6.428  0.3891 -0.2781  0.2513
   26CHL1  H11A 1885   6.680   5.234   6.443  0.4938 -0.3279 -0.1921
   26CHL1  H11B 1886   6.508   5.215   6.496  0.7148 -1.3667  1.2916
   26CHL1    C9 1887   6.591   5.019   6.438 -0.1791  0.3740 -0.1731
   26CHL1    H9 1888   6.486   4.983   6.437 -0.0065 -0.1353 -0.1149
   26CHL1   C10 1889   6.653   4.973   6.575 -0.3492 -0.2193  0.3684
   26CHL1   C19 1890   6.786   5.051   6.588 -0.4656 -0.0410 -0.2571
   26CHL1  H19A 1891   6.856   5.055   6.502  0.4197  4.0208  0.4170
   26CHL1  H19B 1892   6.759   5.150   6.630 -1.2073  0.1237 -1.0891
   26CHL1  H19C 1893   6.840   5.006   6.674 -2.4580 -1.6825  0.2125
   26CHL1    C1 1894   6.545   5.003   6.682  0.2490 -0.5746 -0.6555
   26CHL1   H1A 1895   6.538   5.113   6.694  1.9854 -0.6487  1.6075
   26CHL1   H1B 1896   6.448   4.958   6.653 -0.7095  0.1688  1.2518
   26CHL1    C2 1897   6.577   4.939   6.814 -0.5772 -0.1653  0.6385
   26CHL1   H2A 1898   6.497   4.952   6.890  0.2347  2.8174  1.1335
   26CHL1   H2B 1899   6.662   5.004   6.846  1.0968 -2.4911  1.1354
   26CHL1   C20 1900   6.553   5.283   5.930 -0.0945  0.0778 -0.0950
   26CHL1   H20 1901   6.664   5.295   5.931  0.0051 -0.7710  1.2051
   26CHL1   C21 1902   6.506   5.421   5.997  0.9280  0.2337  0.2378
   26CHL1  H21A 1903   6.564   5.427   6.092 -2.6067 -2.7393  2.8635
   26CHL1  H21B 1904   6.403   5.421   6.037  0.5232 -0.4420 -0.7677
   26CHL1  H21C 1905   6.523   5.511   5.934  0.9590  0.1003  0.0520
   26CHL1   C22 1906   6.490   5.274   5.788  0.0940 -0.3167 -1.1301
   26CHL1  H22A 1907   6.517   5.175   5.746  1.0070 -0.7916  0.4947
   26CHL1  H22B 1908   6.379   5.275   5.794  0.1583  1.0852  0.7858
   26CHL1   C23 1909   6.526   5.382   5.682 -0.0875  0.4896 -0.1759
   26CHL1  H23A 1910   6.487   5.346   5.585  2.4220  0.2610 -1.1654
   26CHL1  H23B 1911   6.467   5.475   5.695  3.4720  3.1809 -1.8104
   26CHL1   C24 1912   6.677   5.410   5.651 -0.5102  0.8924 -0.0788
   26CHL1  H24A 1913   6.723   5.443   5.746 -0.9705 -2.1403  1.3096
   26CHL1  H24B 1914   6.728   5.316   5.619 -0.4188  1.1313 -0.6456
   26CHL1   C25 1915   6.705   5.513   5.544 -0.5816 -0.7817  0.3054
   26CHL1   H25 1916   6.661   5.607   5.583 -0.3418  0.0651 -1.4073
   26CHL1   C26 1917   6.853   5.523   5.519 -0.2497  0.3378  0.1969
   26CHL1  H26A 1918   6.907   5.544   5.614 -2.3423  1.8553  1.1278
   26CHL1  H26B 1919   6.899   5.433   5.472  1.3097  0.9560  0.5097
   26CHL1  H26C 1920   6.863   5.608   5.449 -1.0815  1.4667  1.3854
   26CHL1   C27 1921   6.626   5.480   5.416  0.1536  0.7995 -0.2950
   26CHL1  H27A 1922   6.669   5.551   5.342 -0.3048  1.1114 -0.2635
   26CHL1  H27B 1923   6.648   5.376   5.384  1.0880  1.2343 -1.1188
   26CHL1  H27C 1924   6.516   5.491   5.422 -0.4070 -1.9211 -2.9427
   27CHL1    C3 1925   0.843   1.654   7.207  1.1033  0.0657 -0.1722
   27CHL1    H3 1926   0.821   1.545   7.200 -0.6604  0.2360  1.8200
   27CHL1    O3 1927   0.874   1.700   7.344 -0.0884  0.1098 -0.3573
   27CHL1   H3' 1928   0.936   1.635   7.378 -1.1045  0.1272  1.6479
   27CHL1    C4 1929   0.952   1.700   7.111 -0.6885 -0.7389  0.4106
   27CHL1   H4A 1930   0.973   1.806   7.138 -0.9230 -1.0516  1.9206
   27CHL1   H4B 1931   1.045   1.649   7.143 -0.2724 -0.3164 -0.1180
   27CHL1    C5 1932   0.918   1.682   6.956  1.3119 -0.0034 -0.4383
   27CHL1    C6 1933   0.990   1.608   6.868 -0.4311 -0.4702  0.1492
   27CHL1    H6 1934   1.091   1.575   6.896 -0.0178  2.4057  2.5511
   27CHL1    C7 1935   0.941   1.590   6.727  0.3159  0.3020  0.7651
   27CHL1   H7A 1936   1.028   1.572   6.661  0.1559 -2.7892  1.2558
   27CHL1   H7B 1937   0.884   1.495   6.713  0.9139 -0.1325  1.2183
   27CHL1    C8 1938   0.846   1.704   6.676 -0.9387 -0.4974  0.3425
   27CHL1    H8 1939   0.905   1.798   6.673 -2.6406  0.7183  2.1895
   27CHL1   C14 1940   0.790   1.675   6.538  0.2725 -0.1114 -0.0511
   27CHL1   H14 1941   0.741   1.576   6.540  0.3935 -0.1610  0.4576
   27CHL1   C15 1942   0.884   1.642   6.422 -0.7880  0.4961 -0.2353
   27CHL1  H15A 1943   0.983   1.688   6.445 -0.7559  0.5431 -0.4714
   27CHL1  H15B 1944   0.913   1.535   6.416 -3.5915 -0.3990  0.7689
   27CHL1   C16 1945   0.824   1.684   6.292 -0.1639  0.2133  0.2617
   27CHL1  H16A 1946   0.884   1.761   6.239 -0.9677  0.2285 -0.6482
   27CHL1  H16B 1947   0.804   1.606   6.216 -2.1445 -0.6626  1.5767
   27CHL1   C17 1948   0.674   1.729   6.346 -0.4125  0.6580  0.0575
   27CHL1   H17 1949   0.625   1.630   6.361 -0.7676  0.9600  0.9626
   27CHL1   C13 1950   0.695   1.780   6.489 -0.4682 -0.0111 -0.4952
   27CHL1   C18 1951   0.771   1.919   6.482  0.8400 -0.8681 -0.3287
   27CHL1  H18A 1952   0.835   1.954   6.566  1.4545 -2.7154  0.0161
   27CHL1  H18B 1953   0.834   1.913   6.391  2.8527  1.2978  0.7992
   27CHL1  H18C 1954   0.698   1.998   6.456  1.0829 -0.2783  0.7126
   27CHL1   C12 1955   0.573   1.765   6.580 -0.6504  0.6736 -0.5007
   27CHL1  H12A 1956   0.499   1.844   6.556 -0.0246  1.0283 -1.3235
   27CHL1  H12B 1957   0.532   1.665   6.557 -0.7609  0.6212 -0.0814
   27CHL1   C11 1958   0.610   1.783   6.727 -0.2637 -0.0964 -0.5784
   27CHL1  H11A 1959   0.618   1.893   6.740 -2.5735  0.0797 -0.1858
   27CHL1  H11B 1960   0.523   1.754   6.790 -0.8178  2.2889 -0.1561
   27CHL1    C9 1961   0.736   1.704   6.781 -0.0679  0.0534  0.2702
   27CHL1    H9 1962   0.706   1.597   6.785  1.1962 -0.3770 -0.8638
   27CHL1   C10 1963   0.780   1.743   6.926  0.1458  0.4217  1.4585
   27CHL1   C19 1964   0.793   1.900   6.930 -0.5397 -0.5852 -0.6479
   27CHL1  H19A 1965   0.827   1.942   7.027 -1.8438 -0.0025 -0.4185
   27CHL1  H19B 1966   0.867   1.933   6.854 -0.6509  1.3226  0.0058
   27CHL1  H19C 1967   0.694   1.947   6.912  0.1516  0.4095 -2.1246
   27CHL1    C1 1968   0.675   1.699   7.028 -0.3523 -0.1134 -0.4076
   27CHL1   H1A 1969   0.581   1.755   7.007  0.5448  0.9082 -1.8507
   27CHL1   H1B 1970   0.655   1.592   7.007 -0.1251 -0.4571  0.9759
   27CHL1    C2 1971   0.713   1.722   7.176  0.1809  0.0822  0.0698
   27CHL1   H2A 1972   0.640   1.687   7.253  0.2328  0.1062  0.1302
   27CHL1   H2B 1973   0.725   1.831   7.193 -1.0221  0.1931  0.3064
   27CHL1   C20 1974   0.589   1.815   6.255  0.1378  0.1395  0.1099
   27CHL1   H20 1975   0.504   1.861   6.311  0.1797 -0.5902  0.7960
   27CHL1   C21 1976   0.521   1.715   6.161  0.4757  0.6957 -0.4684
   27CHL1  H21A 1977   0.604   1.654   6.121  1.2926  0.1200  1.9762
   27CHL1  H21B 1978   0.460   1.769   6.084 -1.8606 -2.8350 -1.3463
   27CHL1  H21C 1979   0.448   1.657   6.222  1.2442  0.0749 -0.1316
   27CHL1   C22 1980   0.656   1.921   6.169 -0.0162 -0.0929 -0.4916
   27CHL1  H22A 1981   0.719   1.987   6.233  0.1194 -0.6655 -0.0185
   27CHL1  H22B 1982   0.721   1.857   6.105  1.7260  0.2341  0.8521
   27CHL1   C23 1983   0.570   2.017   6.084  0.3661 -0.4699 -0.2478
   27CHL1  H23A 1984   0.532   1.947   6.007  0.9014  2.0629 -2.9746
   27CHL1  H23B 1985   0.491   2.073   6.139  1.8073  2.3091 -0.8348
   27CHL1   C24 1986   0.651   2.125   6.012  0.6384  0.3126  1.1723
   27CHL1  H24A 1987   0.684   2.206   6.080  0.5935  2.2835 -1.0254
   27CHL1  H24B 1988   0.744   2.071   5.983  0.0019  0.1700 -0.7212
   27CHL1   C25 1989   0.574   2.194   5.885  0.1466  1.3612  0.1046
   27CHL1   H25 1990   0.528   2.107   5.833  1.1081  0.2365  1.0885
   27CHL1   C26 1991   0.479   2.302   5.937 -0.2424 -0.6998  0.4156
   27CHL1  H26A 1992   0.432   2.360   5.854  2.5358 -0.7273 -1.3173
   27CHL1  H26B 1993   0.407   2.261   6.010 -2.1117  1.4831 -0.0660
   27CHL1  H26C 1994   0.538   2.380   5.991 -0.4452 -1.3963  1.6748
   27CHL1   C27 1995   0.668   2.269   5.791 -0.6465  0.0835 -1.1008
   27CHL1  H27A 1996   0.613   2.326   5.714  0.8225  2.2380 -0.6636
   27CHL1  H27B 1997   0.731   2.345   5.843  0.1730 -1.4498  0.2581
   27CHL1  H27C 1998   0.739   2.198   5.743 -1.4240 -4.0434  3.0942
   28CHL1    C3 1999   3.967   4.308   6.877 -0.1303  0.1440 -0.2026
   28CHL1    H3 2000   3.903   4.219   6.859  0.4906 -0.2696 -0.4003
   28CHL1    O3 2001   3.948   4.339   7.016 -0.3604  1.0800 -0.0532
   28CHL1   H3' 2002   3.892   4.278   7.065  0.3459 -1.3412 -2.0348
   28CHL1    C4 2003   4.110   4.275   6.855  0.0918  0.3912 -0.7167
   28CHL1   H4A 2004   4.170   4.365   6.880  0.8842 -0.6468  1.4130
   28CHL1   H4B 2005   4.136   4.196   6.928  1.0043  1.1728 -0.1675
   28CHL1    C5 2006   4.154   4.229   6.715  0.3806 -0.0762  0.6334
   28CHL1    C6 2007   4.209   4.110   6.685 -1.2729 -0.2437 -0.7324
   28CHL1    H6 2008   4.237   4.038   6.763  0.1429  0.6701 -0.3734
   28CHL1    C7 2009   4.266   4.074   6.553  0.1393  0.1131 -0.4618
   28CHL1   H7A 2010   4.370   4.036   6.558  0.4216  1.0324  1.7450
   28CHL1   H7B 2011   4.208   3.987   6.515 -1.0674  0.1000  1.2697
   28CHL1    C8 2012   4.254   4.192   6.449  0.0283  1.0581 -0.8132
   28CHL1    H8 2013   4.343   4.251   6.480  1.7864 -0.9672 -1.8163
   28CHL1   C14 2014   4.271   4.145   6.306  0.9117  0.2262  0.0199
   28CHL1   H14 2015   4.183   4.078   6.294  0.9068  0.5463 -1.9978
   28CHL1   C15 2016   4.399   4.056   6.269  0.4349  0.1851  0.1701
   28CHL1  H15A 2017   4.493   4.085   6.320  0.2521 -2.6356  2.3283
   28CHL1  H15B 2018   4.391   3.954   6.312  3.5084  0.6807  2.2537
   28CHL1   C16 2019   4.408   4.073   6.116 -0.1345 -0.1736 -0.3340
   28CHL1  H16A 2020   4.502   4.129   6.099  0.7408 -0.9735  1.5139
   28CHL1  H16B 2021   4.398   3.986   6.048 -3.3803  1.7650 -2.6152
   28CHL1   C17 2022   4.302   4.177   6.070 -0.4985  0.4036  0.2133
   28CHL1   H17 2023   4.206   4.122   6.061 -0.1046 -0.2978  0.2587
   28CHL1   C13 2024   4.274   4.253   6.199 -0.1557  0.9536 -0.8800
   28CHL1   C18 2025   4.390   4.352   6.231 -0.1700  0.4455  0.0088
   28CHL1  H18A 2026   4.358   4.413   6.318 -2.2752  1.1204 -1.1669
   28CHL1  H18B 2027   4.489   4.305   6.248  0.4778 -1.6619 -6.5980
   28CHL1  H18C 2028   4.396   4.430   6.153 -0.4205 -0.1989 -0.6756
   28CHL1   C12 2029   4.130   4.316   6.203 -0.4368 -0.2624  0.3241
   28CHL1  H12A 2030   4.130   4.403   6.135 -1.2306 -1.1725 -0.8887
   28CHL1  H12B 2031   4.047   4.245   6.185 -1.3095  0.2394  2.1603
   28CHL1   C11 2032   4.092   4.371   6.348 -0.7616  0.8136  0.8204
   28CHL1  H11A 2033   4.149   4.464   6.367  0.1338  0.0493  2.1287
   28CHL1  H11B 2034   3.983   4.385   6.354 -0.7806  0.3046  2.0258
   28CHL1    C9 2035   4.123   4.271   6.468  0.1915 -0.1388  0.5106
   28CHL1    H9 2036   4.045   4.192   6.465 -2.2826  2.0661  1.9579
   28CHL1   C10 2037   4.110   4.330   6.615  0.0302 -0.7062 -0.3911
   28CHL1   C19 2038   4.203   4.459   6.635 -0.3501 -0.0761  0.2489
   28CHL1  H19A 2039   4.310   4.445   6.607 -0.6326 -0.7858 -0.5196
   28CHL1  H19B 2040   4.163   4.538   6.568 -1.8334  0.9400  2.2205
   28CHL1  H19C 2041   4.186   4.500   6.736  2.3692 -2.6385  1.9155
   28CHL1    C1 2042   3.962   4.370   6.638 -0.4805 -0.0597 -0.2605
   28CHL1   H1A 2043   3.930   4.450   6.569 -0.6969 -0.9446 -1.2149
   28CHL1   H1B 2044   3.902   4.278   6.619 -0.5840 -0.3767  1.4738
   28CHL1    C2 2045   3.926   4.427   6.776 -0.3551 -0.5162  0.2189
   28CHL1   H2A 2046   3.823   4.462   6.801  0.9869  3.4857  0.9948
   28CHL1   H2B 2047   3.987   4.518   6.796 -0.3248 -0.9515  2.4051
   28CHL1   C20 2048   4.340   4.258   5.944  0.0567 -0.0575  0.0321
   28CHL1   H20 2049   4.439   4.306   5.961  0.5221 -0.4808 -1.3874
   28CHL1   C21 2050   4.242   4.373   5.900  0.1083 -0.0073  0.1704
   28CHL1  H21A 2051   4.138   4.335   5.902 -0.1523  0.6678 -0.4131
   28CHL1  H21B 2052   4.269   4.405   5.797  1.1123 -1.0717  0.0778
   28CHL1  H21C 2053   4.250   4.457   5.972  0.6755 -0.9655  1.2622
   28CHL1   C22 2054   4.364   4.173   5.818 -0.0264  0.1158 -0.2829
   28CHL1  H22A 2055   4.411   4.244   5.746  1.1205 -0.6958 -0.3498
   28CHL1  H22B 2056   4.438   4.092   5.836 -1.7785 -2.0094 -1.9804
   28CHL1   C23 2057   4.229   4.118   5.758 -0.2238 -0.2735  0.3029
   28CHL1  H23A 2058   4.175   4.072   5.844 -1.3026  0.4508  0.0285
   28CHL1  H23B 2059   4.166   4.204   5.727  0.5674  0.9757  1.9628
   28CHL1   C24 2060   4.254   4.027   5.634  0.9871 -0.7632 -0.6865
   28CHL1  H24A 2061   4.318   4.062   5.550  0.0455  1.7102 -0.4551
   28CHL1  H24B 2062   4.301   3.939   5.683  0.1149 -0.2262  1.2138
   28CHL1   C25 2063   4.127   3.981   5.574 -1.1790  0.8544 -0.6392
   28CHL1   H25 2064   4.160   3.905   5.500  0.2733  1.2389 -0.4233
   28CHL1   C26 2065   4.039   3.909   5.669 -0.3011 -0.0719 -0.0540
   28CHL1  H26A 2066   4.087   3.841   5.742 -0.4254  1.7010  1.7594
   28CHL1  H26B 2067   3.978   3.982   5.726  1.5578  1.7786 -0.2808
   28CHL1  H26C 2068   3.972   3.845   5.608 -1.0693 -0.4667  1.1717
   28CHL1   C27 2069   4.066   4.094   5.499  0.3667 -0.0217  0.3210
   28CHL1  H27A 2070   3.984   4.057   5.433  2.6374  0.4212 -3.0275
   28CHL1  H27B 2071   4.036   4.178   5.566  0.9859  1.5094 -1.2364
   28CHL1  H27C 2072   4.141   4.124   5.422 -0.3481 -2.8811 -1.6558
   29CHL1    C3 2073   5.220   0.084   3.877  0.3002 -0.1731  0.6209
   29CHL1    H3 2074   5.322   0.125   3.858  0.1703  0.0757  0.4516
   29CHL1    O3 2075   5.128   0.117   3.780  0.8960  0.2026  0.0724
   29CHL1   H3' 2076   5.038   0.110   3.812  0.8558 -0.4940 -0.1777
   29CHL1    C4 2077   5.226  -0.072   3.882 -0.2563  0.8250  0.3177
   29CHL1   H4A 2078   5.124  -0.111   3.903 -0.3120  1.1484  0.6344
   29CHL1   H4B 2079   5.251  -0.124   3.787 -2.8856 -0.7426  0.3833
   29CHL1    C5 2080   5.316  -0.125   3.993  1.0033 -0.1719 -0.4572
   29CHL1    C6 2081   5.410  -0.212   3.974  0.1064  0.0559  0.4144
   29CHL1    H6 2082   5.419  -0.250   3.871  1.4270 -1.5804  1.0833
   29CHL1    C7 2083   5.496  -0.271   4.087 -0.0092 -0.0652 -0.1696
   29CHL1   H7A 2084   5.507  -0.381   4.081 -1.3600 -0.3376  1.5523
   29CHL1   H7B 2085   5.593  -0.219   4.073 -1.0391  2.5001  1.4329
   29CHL1    C8 2086   5.443  -0.243   4.232  0.3871 -0.8229 -0.2893
   29CHL1    H8 2087   5.354  -0.309   4.245 -1.6936  2.0945  1.6738
   29CHL1   C14 2088   5.558  -0.260   4.331  0.0026  0.8004  0.1691
   29CHL1   H14 2089   5.631  -0.180   4.310 -0.3440  1.2353  0.6036
   29CHL1   C15 2090   5.614  -0.408   4.324  0.9708  0.1031  0.0080
   29CHL1  H15A 2091   5.523  -0.471   4.330  0.8385  0.3574  0.9120
   29CHL1  H15B 2092   5.678  -0.425   4.235  1.1262  2.0353 -0.3030
   29CHL1   C16 2093   5.684  -0.416   4.463  0.1151 -0.4838  0.1900
   29CHL1  H16A 2094   5.641  -0.505   4.514 -0.9624 -0.2514 -0.2865
   29CHL1  H16B 2095   5.794  -0.426   4.462  0.3490  0.2488  3.8040
   29CHL1   C17 2096   5.634  -0.293   4.552 -0.5760 -0.5704 -0.0178
   29CHL1   H17 2097   5.713  -0.215   4.543  0.1558 -1.0413  1.8473
   29CHL1   C13 2098   5.508  -0.242   4.478  0.6155  0.0294 -0.1556
   29CHL1   C18 2099   5.396  -0.341   4.522  0.4062 -0.1293  0.0266
   29CHL1  H18A 2100   5.423  -0.449   4.522 -0.9115 -0.4802  1.1029
   29CHL1  H18B 2101   5.345  -0.315   4.617 -1.3001 -2.2329 -0.2328
   29CHL1  H18C 2102   5.312  -0.331   4.449 -0.8232 -1.9860  1.0886
   29CHL1   C12 2103   5.469  -0.095   4.483 -0.3923 -0.1374 -0.6247
   29CHL1  H12A 2104   5.431  -0.072   4.585 -0.8316 -2.5746 -0.1941
   29CHL1  H12B 2105   5.562  -0.034   4.476  0.6788 -1.2791  2.1625
   29CHL1   C11 2106   5.367  -0.049   4.381 -0.3798  0.1975  0.7036
   29CHL1  H11A 2107   5.269  -0.091   4.414  1.2893 -3.7271  1.1446
   29CHL1  H11B 2108   5.368   0.062   4.377  3.7395  0.2733 -1.5242
   29CHL1    C9 2109   5.394  -0.095   4.235  0.2165  0.4060  0.2837
   29CHL1    H9 2110   5.479  -0.036   4.194 -0.5573  0.2541 -1.6739
   29CHL1   C10 2111   5.283  -0.072   4.132  0.5193 -0.2636 -0.3145
   29CHL1   C19 2112   5.146  -0.128   4.179  0.9700  0.0303 -0.4289
   29CHL1  H19A 2113   5.114  -0.072   4.269  1.4029  0.2607 -0.4167
   29CHL1  H19B 2114   5.070  -0.110   4.100  2.2381 -1.1341 -1.9929
   29CHL1  H19C 2115   5.138  -0.235   4.208  0.1263  0.9109  2.9897
   29CHL1    C1 2116   5.261   0.085   4.127 -0.5996  0.4425  0.1354
   29CHL1   H1A 2117   5.210   0.122   4.219 -0.4836  2.4193 -0.5526
   29CHL1   H1B 2118   5.361   0.132   4.128 -0.5203  0.2744  0.1216
   29CHL1    C2 2119   5.173   0.141   4.008 -0.4219  0.8357 -0.1457
   29CHL1   H2A 2120   5.177   0.252   4.010 -1.9265  0.9330 -1.2697
   29CHL1   H2B 2121   5.067   0.110   4.022  0.2737 -1.5799  0.1028
   29CHL1   C20 2122   5.626  -0.317   4.698  0.3554  0.6521 -0.1582
   29CHL1   H20 2123   5.558  -0.402   4.719  0.3254  0.3605 -1.3974
   29CHL1   C21 2124   5.568  -0.195   4.780 -0.9967  0.9474 -0.2687
   29CHL1  H21A 2125   5.588  -0.092   4.743 -1.4144  1.7220  1.5551
   29CHL1  H21B 2126   5.609  -0.192   4.883  0.2002 -0.0876 -0.6980
   29CHL1  H21C 2127   5.457  -0.197   4.785 -0.9468 -1.2045  1.1588
   29CHL1   C22 2128   5.769  -0.349   4.746  0.2602  0.2312  0.2394
   29CHL1  H22A 2129   5.820  -0.429   4.688  0.0975 -1.1056  1.8651
   29CHL1  H22B 2130   5.821  -0.251   4.748 -2.5693  1.8522 -0.3563
   29CHL1   C23 2131   5.772  -0.423   4.887  0.0385 -0.2880  0.1873
   29CHL1  H23A 2132   5.717  -0.366   4.965  1.5610  0.7825  0.5041
   29CHL1  H23B 2133   5.716  -0.519   4.879 -0.0851 -0.2269  0.3029
   29CHL1   C24 2134   5.911  -0.428   4.927  0.0741 -0.4654  0.2207
   29CHL1  H24A 2135   5.983  -0.455   4.847 -0.4199  1.6874 -1.0551
   29CHL1  H24B 2136   5.939  -0.323   4.951 -2.1790  0.6354 -1.6242
   29CHL1   C25 2137   5.935  -0.514   5.052 -0.1166  0.9937 -0.1544
   29CHL1   H25 2138   6.044  -0.512   5.076 -0.4668  1.5761  1.4784
   29CHL1   C26 2139   5.859  -0.454   5.168  0.5419  0.1304  0.0135
   29CHL1  H26A 2140   5.881  -0.508   5.262 -0.6273  1.1504  0.9234
   29CHL1  H26B 2141   5.886  -0.346   5.176 -0.6525  0.3924  0.9234
   29CHL1  H26C 2142   5.749  -0.467   5.164  0.7438 -1.4882 -1.0751
   29CHL1   C27 2143   5.891  -0.660   5.038 -0.9042 -0.1703 -1.0048
   29CHL1  H27A 2144   5.781  -0.671   5.034 -0.7450 -2.1731 -0.9418
   29CHL1  H27B 2145   5.925  -0.697   4.939 -0.1764  1.8948 -1.5810
   29CHL1  H27C 2146   5.935  -0.730   5.112 -0.6978 -0.1215 -1.0813
   30CHL1    C3 2147   0.250   1.540   4.331 -0.5609  0.8910 -0.1494
   30CHL1    H3 2148   0.299   1.629   4.374  0.9713 -0.7002  1.6005
   30CHL1    O3 2149   0.248   1.552   4.195 -0.2993 -0.1541  0.1879
   30CHL1   H3' 2150   0.164   1.513   4.170  0.3104 -0.9782 -0.6248
   30CHL1    C4 2151   0.330   1.415   4.373 -0.5340  0.1635 -0.0898
   30CHL1   H4A 2152   0.277   1.327   4.331  0.6138 -1.0823  0.9661
   30CHL1   H4B 2153   0.433   1.424   4.331 -0.5965 -0.7055 -0.4349
   30CHL1    C5 2154   0.334   1.396   4.525 -0.4218 -0.2976  0.5433
   30CHL1    C6 2155   0.444   1.415   4.594  0.2562  0.1103  0.0198
   30CHL1    H6 2156   0.543   1.420   4.545  0.9592  0.4204  1.4364
   30CHL1    C7 2157   0.443   1.410   4.746  0.1029 -0.1107 -0.4578
   30CHL1   H7A 2158   0.517   1.334   4.778  0.7187  1.3339  1.7079
   30CHL1   H7B 2159   0.477   1.511   4.778  1.4747 -0.8777  0.5756
   30CHL1    C8 2160   0.310   1.359   4.812 -0.4946  0.5533  0.3396
   30CHL1    H8 2161   0.322   1.251   4.791 -1.7143 -0.3248  3.4549
   30CHL1   C14 2162   0.310   1.384   4.967 -0.1014 -0.7638  0.7348
   30CHL1   H14 2163   0.296   1.494   4.973  1.6141 -0.2703 -2.1998
   30CHL1   C15 2164   0.435   1.339   5.045  0.1732  0.2541 -0.8605
   30CHL1  H15A 2165   0.447   1.229   5.031  0.4999  0.3717 -1.5355
   30CHL1  H15B 2166   0.524   1.400   5.018  0.7706 -0.0441  0.3608
   30CHL1   C16 2167   0.384   1.356   5.192  0.5295  0.7866 -0.6384
   30CHL1  H16A 2168   0.430   1.281   5.260  2.0817  2.9072  0.7819
   30CHL1  H16B 2169   0.412   1.460   5.217  2.0711  0.6496 -1.6954
   30CHL1   C17 2170   0.229   1.358   5.185  0.6547  0.5248 -0.0830
   30CHL1   H17 2171   0.200   1.465   5.199  1.0585  0.8686 -1.6933
   30CHL1   C13 2172   0.194   1.322   5.038  0.2660  0.9104  0.2636
   30CHL1   C18 2173   0.190   1.168   5.027  0.0443  0.2341  0.1343
   30CHL1  H18A 2174   0.220   1.137   4.925 -0.2178  0.1003  0.0956
   30CHL1  H18B 2175   0.257   1.112   5.096 -0.2194  0.4955  0.6058
   30CHL1  H18C 2176   0.091   1.118   5.033 -0.4730  1.0282 -1.4018
   30CHL1   C12 2177   0.065   1.383   4.978  0.2327 -0.3105 -0.3157
   30CHL1  H12A 2178  -0.023   1.326   5.014  0.0470 -1.2225 -2.1050
   30CHL1  H12B 2179   0.060   1.492   5.002  1.2170  0.1891 -2.1534
   30CHL1   C11 2180   0.062   1.374   4.827  0.5878  0.1456 -0.0959
   30CHL1  H11A 2181   0.055   1.264   4.815  1.2066  0.0411  0.4197
   30CHL1  H11B 2182  -0.033   1.427   4.805  0.6794  0.7601  0.9344
   30CHL1    C9 2183   0.192   1.413   4.747 -0.4669 -1.1270  0.5578
   30CHL1    H9 2184   0.201   1.521   4.772 -0.0410 -0.7929 -0.9190
   30CHL1   C10 2185   0.192   1.397   4.589 -0.3178  0.6826  0.1601
   30CHL1   C19 2186   0.120   1.260   4.561 -0.5845  0.5275  0.3906
   30CHL1  H19A 2187   0.156   1.186   4.636  1.4547 -0.0302 -1.0518
   30CHL1  H19B 2188   0.009   1.267   4.567 -0.9810  0.5100 -3.8094
   30CHL1  H19C 2189   0.148   1.219   4.461  0.7195  0.9662  0.5610
   30CHL1    C1 2190   0.101   1.518   4.540 -0.5318  0.3191 -0.3227
   30CHL1   H1A 2191  -0.001   1.490   4.572  0.5603 -1.5075  1.8097
   30CHL1   H1B 2192   0.131   1.617   4.580 -1.9644  1.1995 -1.3335
   30CHL1    C2 2193   0.101   1.532   4.379 -1.1027 -0.0260  0.0607
   30CHL1   H2A 2194   0.047   1.625   4.350 -1.4494  0.4455  2.0271
   30CHL1   H2B 2195   0.058   1.444   4.327  0.6720 -2.4157  2.3777
   30CHL1   C20 2196   0.159   1.283   5.297 -0.0566 -0.2419  0.7016
   30CHL1   H20 2197   0.176   1.174   5.295 -0.5268 -0.3072  0.0780
   30CHL1   C21 2198   0.009   1.321   5.306 -0.3836  0.8368  0.1758
   30CHL1  H21A 2199  -0.007   1.431   5.307 -4.4506  0.4031 -1.5228
   30CHL1  H21B 2200  -0.039   1.281   5.398  2.1332 -0.4212  1.0503
   30CHL1  H21C 2201  -0.049   1.285   5.219 -0.0573  0.3044  0.1711
   30CHL1   C22 2202   0.234   1.316   5.428  0.2840 -0.7063 -0.3018
   30CHL1  H22A 2203   0.329   1.259   5.431  1.0545  0.6258  1.7205
   30CHL1  H22B 2204   0.252   1.425   5.433 -0.1509 -0.6857  1.5745
   30CHL1   C23 2205   0.156   1.267   5.551 -0.3091  0.0504  0.0164
   30CHL1  H23A 2206   0.081   1.346   5.576 -2.5375 -1.9404 -0.0173
   30CHL1  H23B 2207   0.094   1.176   5.537 -1.8336  0.6864  2.2069
   30CHL1   C24 2208   0.244   1.240   5.676  0.5137  0.8638 -0.7146
   30CHL1  H24A 2209   0.312   1.157   5.646 -1.2627 -0.5188 -1.1082
   30CHL1  H24B 2210   0.308   1.327   5.702 -1.0853  1.3066  2.1301
   30CHL1   C25 2211   0.172   1.192   5.805 -0.5936  0.0828  0.0389
   30CHL1   H25 2212   0.151   1.083   5.798  0.2694 -0.0910 -0.0332
   30CHL1   C26 2213   0.260   1.207   5.934  0.0459 -0.3664 -0.3119
   30CHL1  H26A 2214   0.206   1.157   6.017 -3.2299  2.1981 -0.7109
   30CHL1  H26B 2215   0.361   1.165   5.917  1.5340  2.3273  1.2376
   30CHL1  H26C 2216   0.281   1.315   5.950 -2.1873 -0.0242  0.7994
   30CHL1   C27 2217   0.039   1.266   5.812  0.1463  0.2996  1.0071
   30CHL1  H27A 2218  -0.003   1.253   5.915  0.3372 -0.6990  0.9611
   30CHL1  H27B 2219   0.058   1.376   5.808 -3.8414  1.0870 -1.0581
   30CHL1  H27C 2220  -0.028   1.220   5.736  0.8612 -0.8567  1.0594
   31CHL1    C3 2221   3.996   2.347   3.698 -0.4753 -0.4789  0.2215
   31CHL1    H3 2222   3.978   2.454   3.723 -0.1443 -0.1762 -0.7903
   31CHL1    O3 2223   4.002   2.357   3.557 -0.1010  0.8123  0.1930
   31CHL1   H3' 2224   4.096   2.373   3.544 -0.3422  2.6592  0.4633
   31CHL1    C4 2225   4.131   2.306   3.758  0.4744  0.2545 -0.6164
   31CHL1   H4A 2226   4.176   2.209   3.729 -0.6905 -0.9289  1.2835
   31CHL1   H4B 2227   4.214   2.375   3.731  0.6741  1.0731  1.8387
   31CHL1    C5 2228   4.137   2.294   3.912 -0.5038 -0.5179  0.1164
   31CHL1    C6 2229   4.233   2.364   3.986  0.4914  0.0270 -1.1394
   31CHL1    H6 2230   4.311   2.421   3.936  0.5999  1.1131  0.2097
   31CHL1    C7 2231   4.229   2.362   4.142 -0.4160 -0.0137 -0.1995
   31CHL1   H7A 2232   4.334   2.350   4.174 -0.3798 -1.2039 -0.7322
   31CHL1   H7B 2233   4.188   2.455   4.187 -1.1344 -0.2423 -0.3680
   31CHL1    C8 2234   4.140   2.254   4.192  0.8621 -0.4839 -0.7063
   31CHL1    H8 2235   4.192   2.157   4.181  0.2865 -0.9676  0.6888
   31CHL1   C14 2236   4.115   2.272   4.344  0.2398  0.7647 -0.1732
   31CHL1   H14 2237   4.061   2.368   4.359 -1.6292 -0.1348 -0.8968
   31CHL1   C15 2238   4.233   2.282   4.433 -0.3168  0.5333 -0.2909
   31CHL1  H15A 2239   4.298   2.195   4.412  1.3472  1.5193  0.5474
   31CHL1  H15B 2240   4.298   2.373   4.440 -0.2368  0.4263  0.4810
   31CHL1   C16 2241   4.185   2.266   4.579 -0.0177 -0.3601 -1.0437
   31CHL1  H16A 2242   4.240   2.188   4.636  0.6123  0.1630 -0.9302
   31CHL1  H16B 2243   4.186   2.363   4.634  0.3349 -0.7862 -0.2833
   31CHL1   C17 2244   4.036   2.212   4.560 -0.8700 -0.1328  0.8587
   31CHL1   H17 2245   3.966   2.298   4.564  0.2946  0.7851  2.3752
   31CHL1   C13 2246   4.024   2.163   4.408 -0.1490 -0.3194  1.1879
   31CHL1   C18 2247   4.092   2.025   4.389 -0.0681 -0.4835 -0.0101
   31CHL1  H18A 2248   4.190   2.030   4.440  0.3754  1.3211 -0.9482
   31CHL1  H18B 2249   4.017   1.956   4.434  1.7127 -0.6808  2.8520
   31CHL1  H18C 2250   4.113   1.996   4.284  1.4136 -0.8760  0.3705
   31CHL1   C12 2251   3.887   2.180   4.340  0.1282  0.1745 -0.2774
   31CHL1  H12A 2252   3.810   2.117   4.391  0.7674 -1.0912 -0.8204
   31CHL1  H12B 2253   3.856   2.286   4.340 -0.8384 -0.0822 -1.6149
   31CHL1   C11 2254   3.894   2.148   4.195 -0.4606 -0.3477  0.3527
   31CHL1  H11A 2255   3.933   2.045   4.178  2.6165  0.4976  1.6172
   31CHL1  H11B 2256   3.799   2.164   4.140 -2.4565  0.9566  3.8205
   31CHL1    C9 2257   4.002   2.243   4.123 -0.8993 -1.0188 -0.4513
   31CHL1    H9 2258   3.970   2.349   4.124 -0.1210 -0.7235 -2.3273
   31CHL1   C10 2259   4.018   2.216   3.974 -0.1865 -0.1230 -0.0352
   31CHL1   C19 2260   4.054   2.057   3.952  0.1300 -1.0565  0.3439
   31CHL1  H19A 2261   3.975   1.996   4.000 -1.7896 -1.0156 -2.5253
   31CHL1  H19B 2262   4.048   2.028   3.845  3.7965  0.0563 -0.3029
   31CHL1  H19C 2263   4.159   2.036   3.982  0.3001 -2.7196 -1.2385
   31CHL1    C1 2264   3.881   2.252   3.898 -0.0719 -0.4275  0.6356
   31CHL1   H1A 2265   3.797   2.183   3.920 -0.9534  0.4571  0.1321
   31CHL1   H1B 2266   3.854   2.354   3.935  5.6686  1.2475  1.1620
   31CHL1    C2 2267   3.891   2.251   3.742  0.7729 -0.2021  0.0578
   31CHL1   H2A 2268   3.795   2.278   3.693 -0.6033 -2.3341  1.4092
   31CHL1   H2B 2269   3.921   2.151   3.704 -0.2071 -0.5198  0.0955
   31CHL1   C20 2270   3.985   2.125   4.677 -0.1946 -0.0810 -0.6773
   31CHL1   H20 2271   4.052   2.036   4.673 -0.2406 -0.2136  0.9507
   31CHL1   C21 2272   3.840   2.066   4.656  0.5272 -0.1655  0.4018
   31CHL1  H21A 2273   3.835   2.007   4.562  0.1467  0.0718  0.2676
   31CHL1  H21B 2274   3.772   2.154   4.644 -0.4555 -1.0101 -0.5156
   31CHL1  H21C 2275   3.807   2.001   4.740  0.2471 -1.7584 -0.8861
   31CHL1   C22 2276   3.992   2.184   4.821  0.5217 -0.1648  0.1143
   31CHL1  H22A 2277   4.031   2.286   4.803 -1.0779  0.4045 -0.2570
   31CHL1  H22B 2278   3.896   2.186   4.875  0.6996 -0.6462  0.4608
   31CHL1   C23 2279   4.091   2.105   4.912 -0.6377 -0.0421 -0.1542
   31CHL1  H23A 2280   4.042   2.006   4.926  0.7379 -0.8880 -1.0473
   31CHL1  H23B 2281   4.191   2.089   4.865 -0.1198 -0.1757  0.9614
   31CHL1   C24 2282   4.118   2.185   5.041  0.2209  0.4883 -0.0436
   31CHL1  H24A 2283   4.181   2.271   5.010  1.0550 -1.1486 -3.2833
   31CHL1  H24B 2284   4.020   2.210   5.088 -0.3971 -0.8249 -0.6000
   31CHL1   C25 2285   4.194   2.118   5.161 -0.4750 -0.0797 -0.2412
   31CHL1   H25 2286   4.293   2.081   5.127  1.2248  1.8727  2.2365
   31CHL1   C26 2287   4.245   2.225   5.268 -0.0486  0.5252  0.2315
   31CHL1  H26A 2288   4.316   2.177   5.339 -1.0060 -1.1561  0.0915
   31CHL1  H26B 2289   4.303   2.299   5.208  0.4200 -0.7555 -0.9505
   31CHL1  H26C 2290   4.160   2.271   5.323  0.0298 -0.7442  1.4740
   31CHL1   C27 2291   4.106   2.001   5.217 -0.1683  0.2512 -0.1862
   31CHL1  H27A 2292   4.019   2.037   5.276 -0.3335 -2.1835  1.1680
   31CHL1  H27B 2293   4.067   1.947   5.128 -2.1462  2.3090 -0.6758
   31CHL1  H27C 2294   4.175   1.934   5.272 -1.2374 -2.0403 -1.5110
   32CHL1    C3 2295   5.165   0.578   3.822  0.5703  0.3538  0.0602
   32CHL1    H3 2296   5.100   0.488   3.830 -0.1016  0.8752  0.6759
   32CHL1    O3 2297   5.152   0.612   3.684 -0.4038 -0.4195  0.0095
   32CHL1   H3' 2298   5.181   0.703   3.673  0.8554 -0.7409  0.5840
   32CHL1    C4 2299   5.119   0.690   3.919 -0.7796 -0.5063 -1.1759
   32CHL1   H4A 2300   5.170   0.785   3.891 -1.9971  0.2981 -0.7263
   32CHL1   H4B 2301   5.012   0.700   3.891 -0.8492 -1.0310 -1.0920
   32CHL1    C5 2302   5.142   0.648   4.062 -0.6559 -0.1414 -0.0375
   32CHL1    C6 2303   5.043   0.631   4.149  0.0427 -0.6196  0.3318
   32CHL1    H6 2304   4.941   0.626   4.109  0.2262 -0.3659 -0.1863
   32CHL1    C7 2305   5.066   0.608   4.299  0.3096 -0.1777 -0.2403
   32CHL1   H7A 2306   5.002   0.685   4.348 -1.2788 -0.7538 -1.3450
   32CHL1   H7B 2307   5.024   0.509   4.326 -1.1834  0.4214 -0.2463
   32CHL1    C8 2308   5.214   0.626   4.340 -0.3783 -0.0592  0.0789
   32CHL1    H8 2309   5.245   0.731   4.357  1.6505 -0.6512  0.2895
   32CHL1   C14 2310   5.235   0.551   4.477  0.9222  0.1177  0.3707
   32CHL1   H14 2311   5.203   0.444   4.470  0.1347  0.3143  0.8671
   32CHL1   C15 2312   5.142   0.602   4.591  0.7119 -0.5226  0.2530
   32CHL1  H15A 2313   5.155   0.712   4.594 -1.3202 -0.1962 -1.0252
   32CHL1  H15B 2314   5.034   0.578   4.585  1.2543 -2.8663 -2.9593
   32CHL1   C16 2315   5.206   0.534   4.717  0.2373  0.5820 -0.2784
   32CHL1  H16A 2316   5.212   0.608   4.800 -0.8526  1.3379 -0.8566
   32CHL1  H16B 2317   5.143   0.449   4.751 -1.8970  1.8580 -0.8397
   32CHL1   C17 2318   5.349   0.484   4.670  0.7500  0.3796  0.2690
   32CHL1   H17 2319   5.343   0.375   4.648  2.4827  0.1903  0.6209
   32CHL1   C13 2320   5.375   0.552   4.538 -0.0774 -0.7641 -0.9110
   32CHL1   C18 2321   5.427   0.697   4.572 -0.2037 -0.5801 -0.1911
   32CHL1  H18A 2322   5.409   0.771   4.491 -0.8525  0.1657  0.6059
   32CHL1  H18B 2323   5.377   0.735   4.664  0.2980  1.3760 -0.6853
   32CHL1  H18C 2324   5.534   0.698   4.601 -0.8382 -0.9173  2.4335
   32CHL1   C12 2325   5.473   0.489   4.434  0.0169  0.5347 -0.2694
   32CHL1  H12A 2326   5.579   0.489   4.467 -0.4518  0.1226  1.3647
   32CHL1  H12B 2327   5.453   0.380   4.428 -0.9562  0.7027 -0.2280
   32CHL1   C11 2328   5.455   0.555   4.295 -0.5316  0.3282 -0.5381
   32CHL1  H11A 2329   5.499   0.657   4.301 -1.7769  0.8380  0.6228
   32CHL1  H11B 2330   5.514   0.505   4.216 -1.1187 -1.8943  0.3511
   32CHL1    C9 2331   5.310   0.564   4.239  0.6707 -0.2636  0.5276
   32CHL1    H9 2332   5.279   0.457   4.229 -0.0868 -0.0740  0.7713
   32CHL1   C10 2333   5.290   0.628   4.099  0.3180 -0.2286 -0.4505
   32CHL1   C19 2334   5.375   0.754   4.098 -0.3283  0.1172  0.1462
   32CHL1  H19A 2335   5.341   0.826   4.176 -2.0111 -1.7785  1.2490
   32CHL1  H19B 2336   5.482   0.727   4.103 -0.2279 -0.2816 -2.5047
   32CHL1  H19C 2337   5.370   0.801   3.997  3.2014 -1.0793 -0.7535
   32CHL1    C1 2338   5.349   0.532   3.993  0.4480  0.4343  0.3264
   32CHL1   H1A 2339   5.459   0.528   4.008  0.5033  2.4997  0.7582
   32CHL1   H1B 2340   5.288   0.441   4.013  1.3879 -0.9808 -2.6175
   32CHL1    C2 2341   5.309   0.554   3.843 -0.4382 -0.2526  0.1554
   32CHL1   H2A 2342   5.354   0.472   3.783  0.0667  1.2799 -1.6513
   32CHL1   H2B 2343   5.357   0.651   3.820 -0.7163  0.3371  1.9439
   32CHL1   C20 2344   5.447   0.483   4.783 -0.5680 -0.4302 -0.3502
   32CHL1   H20 2345   5.491   0.582   4.805  1.0141 -1.1926  0.0288
   32CHL1   C21 2346   5.561   0.393   4.739 -0.0362  0.6903 -0.4472
   32CHL1  H21A 2347   5.600   0.426   4.640 -2.9614  2.9022 -1.0119
   32CHL1  H21B 2348   5.527   0.288   4.725  0.8518 -0.6323  4.9657
   32CHL1  H21C 2349   5.649   0.397   4.806 -0.5318  0.9465  0.1938
   32CHL1   C22 2350   5.385   0.424   4.907  0.8223  0.8666  0.4732
   32CHL1  H22A 2351   5.278   0.440   4.930  0.8755 -0.7073  2.0304
   32CHL1  H22B 2352   5.407   0.316   4.895  3.0661  1.0468  2.3697
   32CHL1   C23 2353   5.471   0.450   5.025  0.2260 -0.0057 -0.6093
   32CHL1  H23A 2354   5.576   0.423   5.005 -0.1974  0.3367 -3.8855
   32CHL1  H23B 2355   5.489   0.558   5.045  3.1496 -1.0848  4.0620
   32CHL1   C24 2356   5.420   0.369   5.145  0.4437  0.5405  1.1266
   32CHL1  H24A 2357   5.312   0.390   5.155  0.0296 -0.4760 -0.8526
   32CHL1  H24B 2358   5.426   0.259   5.132 -0.3168  0.4028  1.8491
   32CHL1   C25 2359   5.504   0.394   5.267 -0.7141  0.3042  0.1111
   32CHL1   H25 2360   5.612   0.409   5.247 -0.6958  0.8601  0.6040
   32CHL1   C26 2361   5.450   0.516   5.341 -0.2889 -0.3607  0.3006
   32CHL1  H26A 2362   5.359   0.485   5.397  0.8521 -0.6475  2.1063
   32CHL1  H26B 2363   5.535   0.562   5.397 -0.1023 -0.4207  0.0707
   32CHL1  H26C 2364   5.423   0.594   5.267  0.5640 -1.8353 -1.6271
   32CHL1   C27 2365   5.493   0.274   5.355  0.2268  0.1921 -0.2073
   32CHL1  H27A 2366   5.551   0.200   5.295  0.0531  0.9775 -1.3771
   32CHL1  H27B 2367   5.543   0.298   5.450  0.9200 -0.7878 -0.3087
   32CHL1  H27C 2368   5.386   0.245   5.370  0.4431 -0.2711  0.4926
   33CHL1    C3 2369   3.569   6.303   3.810 -0.1334 -0.3045 -0.4731
   33CHL1    H3 2370   3.655   6.242   3.847 -0.0375  1.9144  3.3999
   33CHL1    O3 2371   3.575   6.298   3.670  0.4627 -0.0131 -1.0613
   33CHL1   H3' 2372   3.664   6.330   3.652  0.6809  0.1781  0.2042
   33CHL1    C4 2373   3.441   6.238   3.866  0.0505 -0.6860 -0.4520
   33CHL1   H4A 2374   3.360   6.306   3.831 -0.7128  0.1958  2.7605
   33CHL1   H4B 2375   3.425   6.134   3.829  0.0065 -0.1162 -2.1116
   33CHL1    C5 2376   3.455   6.240   4.021  0.1029  0.3780  0.5897
   33CHL1    C6 2377   3.462   6.126   4.088  0.2257  0.2613  0.2851
   33CHL1    H6 2378   3.441   6.033   4.033  0.0578  0.5969 -0.2251
   33CHL1    C7 2379   3.470   6.117   4.238  0.2693 -0.0024  0.0257
   33CHL1   H7A 2380   3.403   6.037   4.275 -0.0871  0.4343  0.3277
   33CHL1   H7B 2381   3.570   6.082   4.271  0.5904 -0.5291 -1.4272
   33CHL1    C8 2382   3.440   6.254   4.307  0.6183 -0.0764  0.1107
   33CHL1    H8 2383   3.330   6.266   4.299  0.4139 -0.4664  1.8199
   33CHL1   C14 2384   3.488   6.253   4.448 -0.1844  0.6059  0.7899
   33CHL1   H14 2385   3.599   6.246   4.450 -0.2394 -0.2165  1.7493
   33CHL1   C15 2386   3.448   6.133   4.534  0.1270  0.8333 -0.4156
   33CHL1  H15A 2387   3.340   6.113   4.518  0.1904  0.3441 -0.2534
   33CHL1  H15B 2388   3.502   6.041   4.505  1.0826  1.3648 -0.3650
   33CHL1   C16 2389   3.472   6.181   4.680  0.2467  0.1823 -0.1619
   33CHL1  H16A 2390   3.373   6.164   4.729  0.9036 -2.0430  0.4711
   33CHL1  H16B 2391   3.546   6.112   4.726 -0.8725 -0.0385  1.4016
   33CHL1   C17 2392   3.513   6.332   4.666 -0.1123  0.0250 -0.4799
   33CHL1   H17 2393   3.624   6.332   4.671 -0.1441 -0.2765  0.4844
   33CHL1   C13 2394   3.462   6.373   4.526 -0.9930 -0.0187 -0.3791
   33CHL1   C18 2395   3.308   6.400   4.528 -0.7492 -0.1242  0.1721
   33CHL1  H18A 2396   3.296   6.500   4.575 -0.1046  0.6717 -1.2957
   33CHL1  H18B 2397   3.249   6.388   4.434 -1.2478  2.4573  0.0809
   33CHL1  H18C 2398   3.257   6.335   4.602  0.6028  0.9324  2.1345
   33CHL1   C12 2399   3.539   6.490   4.465 -0.4708  0.2923 -0.4501
   33CHL1  H12A 2400   3.517   6.590   4.509  1.3410  0.8689 -0.7404
   33CHL1  H12B 2401   3.648   6.484   4.484 -0.5912  4.1220  2.6860
   33CHL1   C11 2402   3.498   6.504   4.320  0.5470  0.8693 -0.4103
   33CHL1  H11A 2403   3.393   6.541   4.326  0.8075  1.4706  0.6134
   33CHL1  H11B 2404   3.564   6.579   4.270  1.6422 -0.3423 -0.8430
   33CHL1    C9 2405   3.508   6.375   4.235 -0.0546  0.6177  0.7542
   33CHL1    H9 2406   3.612   6.338   4.237 -0.0674  0.5072 -0.1067
   33CHL1   C10 2407   3.466   6.384   4.083  0.1974  0.2073 -0.4785
   33CHL1   C19 2408   3.346   6.469   4.062 -0.8037  0.3738  0.4413
   33CHL1  H19A 2409   3.337   6.502   3.956  3.7014 -0.6573 -0.4515
   33CHL1  H19B 2410   3.255   6.411   4.090 -0.1342 -0.6748  0.4658
   33CHL1  H19C 2411   3.342   6.563   4.121  1.0318  0.4036  0.5558
   33CHL1    C1 2412   3.581   6.460   4.014 -0.1344  0.6790 -0.0879
   33CHL1   H1A 2413   3.591   6.566   4.044  0.1103 -0.1636  3.1825
   33CHL1   H1B 2414   3.681   6.423   4.047  0.1691  0.5973 -1.0607
   33CHL1    C2 2415   3.593   6.444   3.859 -0.4312 -0.1759  0.5051
   33CHL1   H2A 2416   3.699   6.468   3.833 -0.0677 -2.7223 -0.7745
   33CHL1   H2B 2417   3.530   6.516   3.804  2.2357  0.8052 -1.5106
   33CHL1   C20 2418   3.467   6.412   4.794 -0.3378  0.1849  0.7083
   33CHL1   H20 2419   3.357   6.424   4.792 -0.2180  1.3427 -0.0206
   33CHL1   C21 2420   3.542   6.553   4.802  0.3836 -0.0613  0.7152
   33CHL1  H21A 2421   3.633   6.533   4.862  0.8703 -0.7890 -0.2461
   33CHL1  H21B 2422   3.474   6.623   4.855  0.1895 -0.9297  1.6316
   33CHL1  H21C 2423   3.570   6.586   4.700 -0.4576 -0.0628  0.4720
   33CHL1   C22 2424   3.496   6.345   4.926  0.3435 -0.2859  0.5439
   33CHL1  H22A 2425   3.427   6.259   4.928  1.3086 -1.1642 -1.1389
   33CHL1  H22B 2426   3.599   6.303   4.927  0.1410 -0.7817  1.2374
   33CHL1   C23 2427   3.485   6.426   5.051 -0.2682 -0.5230  0.8222
   33CHL1  H23A 2428   3.559   6.508   5.059  0.0324 -0.8349  1.3026
   33CHL1  H23B 2429   3.386   6.475   5.068  1.0594  3.0282 -0.7688
   33CHL1   C24 2430   3.519   6.344   5.183 -0.6071 -0.0922  1.1460
   33CHL1  H24A 2431   3.447   6.259   5.185 -0.3478 -0.4650 -1.5525
   33CHL1  H24B 2432   3.624   6.309   5.183  0.5707  3.0828  1.4019
   33CHL1   C25 2433   3.505   6.431   5.310  0.7457 -0.0048 -0.1867
   33CHL1   H25 2434   3.590   6.503   5.303  0.5347  0.4466  1.4264
   33CHL1   C26 2435   3.382   6.516   5.333  1.2488 -0.1763 -0.4765
   33CHL1  H26A 2436   3.387   6.572   5.429 -1.9105 -1.4548  0.5611
   33CHL1  H26B 2437   3.362   6.579   5.243 -1.8258 -0.5816 -0.2091
   33CHL1  H26C 2438   3.293   6.451   5.352  0.4297  1.1482  0.3716
   33CHL1   C27 2439   3.530   6.351   5.442  0.4804  0.5459 -0.0780
   33CHL1  H27A 2440   3.623   6.294   5.423  0.4764  0.6650 -0.4609
   33CHL1  H27B 2441   3.542   6.420   5.529 -0.4578 -0.2269  0.6910
   33CHL1  H27C 2442   3.444   6.284   5.466  0.3266  1.1913  1.2955
   34CHL1    C3 2443   0.103   3.144   3.991  0.2943  0.3571 -0.4374
   34CHL1    H3 2444   0.157   3.049   4.009 -0.4436  0.1406  0.6895
   34CHL1    O3 2445   0.112   3.167   3.854 -0.1283  0.1675 -0.2063
   34CHL1   H3' 2446   0.077   3.086   3.815  0.1216 -0.5643  1.0298
   34CHL1    C4 2447  -0.050   3.124   4.038 -0.7975  0.4369 -1.1993
   34CHL1   H4A 2448  -0.101   3.220   4.017 -0.3401  1.2605  1.1259
   34CHL1   H4B 2449  -0.089   3.039   3.979 -0.9360  0.2862 -0.8908
   34CHL1    C5 2450  -0.056   3.112   4.194  0.2999 -0.2506  0.4814
   34CHL1    C6 2451  -0.120   3.008   4.242  0.9186  0.7751 -0.1715
   34CHL1    H6 2452  -0.171   2.940   4.173 -0.3330  0.9228  0.5693
   34CHL1    C7 2453  -0.118   2.984   4.394  0.3746 -0.2050  0.5159
   34CHL1   H7A 2454  -0.225   2.982   4.424 -0.8215  0.7125 -3.1573
   34CHL1   H7B 2455  -0.070   2.888   4.423 -0.6285 -0.2705  2.1262
   34CHL1    C8 2456  -0.059   3.097   4.484  0.4356 -0.2281 -0.6182
   34CHL1    H8 2457  -0.140   3.170   4.504  0.7952 -0.3782  1.6528
   34CHL1   C14 2458  -0.025   3.036   4.618 -0.3878  0.0496 -0.3247
   34CHL1   H14 2459   0.057   2.961   4.610  0.2972  0.4227  2.2820
   34CHL1   C15 2460  -0.121   2.952   4.706 -0.7018 -0.2199 -0.0872
   34CHL1  H15A 2461  -0.215   3.010   4.716  0.4075  1.3315  2.2339
   34CHL1  H15B 2462  -0.135   2.855   4.654 -0.0027 -0.4813  0.1972
   34CHL1   C16 2463  -0.046   2.945   4.839  0.1727 -1.1264  0.1152
   34CHL1  H16A 2464  -0.124   2.951   4.919 -0.2364  0.3331 -0.3717
   34CHL1  H16B 2465  -0.009   2.840   4.843  0.5845 -0.9722  0.3333
   34CHL1   C17 2466   0.066   3.052   4.841  0.0329  0.1957 -0.5268
   34CHL1   H17 2467   0.155   2.987   4.828 -0.0856 -0.0322 -0.1956
   34CHL1   C13 2468   0.041   3.138   4.720 -0.0423 -0.5569  0.1447
   34CHL1   C18 2469  -0.061   3.249   4.754  0.3998 -0.0345 -0.0859
   34CHL1  H18A 2470  -0.134   3.211   4.828  0.4190 -3.4560 -1.6144
   34CHL1  H18B 2471  -0.004   3.337   4.790  0.2346  0.2537 -0.5355
   34CHL1  H18C 2472  -0.129   3.275   4.671 -0.4262  1.1365  0.9245
   34CHL1   C12 2473   0.171   3.188   4.647 -0.5705 -0.5909 -0.5324
   34CHL1  H12A 2474   0.222   3.266   4.708 -2.1663  2.5690 -2.9196
   34CHL1  H12B 2475   0.244   3.107   4.628 -0.0014 -0.0529 -0.6680
   34CHL1   C11 2476   0.144   3.250   4.512  0.6158  0.0694  0.5036
   34CHL1  H11A 2477   0.086   3.343   4.531 -0.9215 -0.3680 -1.6579
   34CHL1  H11B 2478   0.242   3.269   4.464  0.0345 -2.0792 -1.7613
   34CHL1    C9 2479   0.066   3.155   4.418  0.9256  0.1606  0.0862
   34CHL1    H9 2480   0.137   3.072   4.395  3.0659  2.3437 -1.7880
   34CHL1   C10 2481   0.028   3.211   4.279 -0.5562 -0.1519 -0.2114
   34CHL1   C19 2482  -0.056   3.342   4.284 -0.7361  0.4780  0.4630
   34CHL1  H19A 2483   0.005   3.408   4.350  2.3027 -1.7392  0.0645
   34CHL1  H19B 2484  -0.064   3.379   4.180  1.9237  1.4159  0.5085
   34CHL1  H19C 2485  -0.159   3.337   4.326 -2.8579  1.6039 -4.0426
   34CHL1    C1 2486   0.166   3.242   4.211  0.0678 -0.5854  0.0744
   34CHL1   H1A 2487   0.213   3.331   4.257 -2.1885  0.4897  0.4623
   34CHL1   H1B 2488   0.241   3.161   4.211  1.0207  0.2683 -0.6935
   34CHL1    C2 2489   0.160   3.262   4.050  0.4797  0.4575 -0.2183
   34CHL1   H2A 2490   0.268   3.283   4.034  0.5978 -0.3627 -0.5352
   34CHL1   H2B 2491   0.100   3.353   4.027 -0.8665 -0.2627  0.3539
   34CHL1   C20 2492   0.086   3.120   4.979  0.2183 -0.0612 -0.1457
   34CHL1   H20 2493  -0.001   3.185   4.999  1.1743  0.9710  0.7992
   34CHL1   C21 2494   0.206   3.222   4.970 -0.1571  0.3721  0.2719
   34CHL1  H21A 2495   0.234   3.254   5.073 -2.4654 -0.0545  1.1020
   34CHL1  H21B 2496   0.168   3.308   4.912 -1.4897 -0.6896 -0.4862
   34CHL1  H21C 2497   0.287   3.166   4.919 -0.1745 -0.2783  0.9375
   34CHL1   C22 2498   0.094   3.013   5.090 -0.1853  0.2462 -0.4075
   34CHL1  H22A 2499   0.002   2.952   5.104  0.8447 -1.2340  0.1348
   34CHL1  H22B 2500   0.167   2.937   5.054  0.8259  1.9056 -2.0011
   34CHL1   C23 2501   0.144   3.073   5.227  0.4559 -0.0277 -0.1361
   34CHL1  H23A 2502   0.252   3.098   5.218  0.3492  0.3930 -0.2620
   34CHL1  H23B 2503   0.089   3.167   5.247  0.4456 -0.7057  4.0361
   34CHL1   C24 2504   0.122   2.973   5.348  0.5782  0.1089  0.0450
   34CHL1  H24A 2505   0.012   2.954   5.348  0.5458  0.2695 -0.8391
   34CHL1  H24B 2506   0.161   2.872   5.321 -0.6461 -0.2588 -0.4063
   34CHL1   C25 2507   0.166   3.027   5.483  0.5317 -0.1449 -0.4697
   34CHL1   H25 2508   0.105   3.113   5.516 -0.1728 -0.8003 -0.0325
   34CHL1   C26 2509   0.161   2.922   5.590 -0.0756  0.6441 -0.4932
   34CHL1  H26A 2510   0.227   2.836   5.563 -2.2105 -1.2500  0.0294
   34CHL1  H26B 2511   0.199   2.950   5.690  0.9794  1.8488 -1.2017
   34CHL1  H26C 2512   0.054   2.895   5.600  0.3154 -0.7728  0.1257
   34CHL1   C27 2513   0.308   3.077   5.470 -0.4561 -0.3306  0.6376
   34CHL1  H27A 2514   0.362   3.104   5.563  0.4244 -1.8699  0.6121
   34CHL1  H27B 2515   0.363   2.999   5.413  0.8553 -0.3589  1.8848
   34CHL1  H27C 2516   0.311   3.158   5.394  1.1563 -2.2881 -1.5667
   35CHL1    C3 2517   3.670   1.479   3.841 -0.7111 -0.9211  0.0777
   35CHL1    H3 2518   3.754   1.531   3.892 -0.0717 -0.5486 -1.3015
   35CHL1    O3 2519   3.694   1.505   3.706 -0.0004 -0.1102 -0.2867
   35CHL1   H3' 2520   3.606   1.498   3.669  0.4135 -0.1639 -1.2933
   35CHL1    C4 2521   3.694   1.335   3.852  0.3662  0.4974  0.5345
   35CHL1   H4A 2522   3.621   1.274   3.795  1.2359  0.2772 -0.3629
   35CHL1   H4B 2523   3.788   1.297   3.808 -0.1082  0.2219 -0.2709
   35CHL1    C5 2524   3.665   1.305   4.003 -0.4672  0.3657 -0.0918
   35CHL1    C6 2525   3.754   1.236   4.077 -0.9782 -0.4508 -0.3386
   35CHL1    H6 2526   3.851   1.214   4.029 -1.4213  1.0608 -2.0126
   35CHL1    C7 2527   3.747   1.208   4.222 -0.5897 -0.1573  0.4340
   35CHL1   H7A 2528   3.799   1.113   4.245 -0.7913 -1.3739 -3.3860
   35CHL1   H7B 2529   3.812   1.285   4.270  0.4408 -1.1796  0.7160
   35CHL1    C8 2530   3.608   1.199   4.274 -0.2368  0.2046 -0.1145
   35CHL1    H8 2531   3.562   1.104   4.239  0.4418  0.0130 -0.4928
   35CHL1   C14 2532   3.602   1.205   4.423  0.3702 -1.0296 -0.4368
   35CHL1   H14 2533   3.653   1.303   4.439 -1.3598 -0.1446 -0.1008
   35CHL1   C15 2534   3.680   1.113   4.508 -0.2574  0.0950  0.0497
   35CHL1  H15A 2535   3.684   1.009   4.470 -0.3045 -0.3149  1.1353
   35CHL1  H15B 2536   3.788   1.134   4.519 -0.0672 -0.2804 -0.9558
   35CHL1   C16 2537   3.621   1.111   4.647 -0.1483 -0.1080 -0.4174
   35CHL1  H16A 2538   3.584   1.016   4.691  3.1132 -0.2111  2.6677
   35CHL1  H16B 2539   3.693   1.153   4.720  2.7138 -1.1286 -2.4720
   35CHL1   C17 2540   3.492   1.212   4.638 -0.0929 -0.2311  0.5032
   35CHL1   H17 2541   3.522   1.318   4.654 -0.8810 -0.0748  1.0555
   35CHL1   C13 2542   3.459   1.215   4.489  0.5543  0.8921 -0.1110
   35CHL1   C18 2543   3.389   1.080   4.448 -0.1861  0.5444  0.3223
   35CHL1  H18A 2544   3.455   0.996   4.478 -0.6550  0.7139  1.8771
   35CHL1  H18B 2545   3.286   1.065   4.486  0.2192 -2.0877  0.6007
   35CHL1  H18C 2546   3.376   1.078   4.337  0.0291 -1.3375  0.2849
   35CHL1   C12 2547   3.384   1.338   4.435  0.0330 -0.2508 -0.4200
   35CHL1  H12A 2548   3.279   1.339   4.473 -0.6034 -0.8563 -2.0881
   35CHL1  H12B 2549   3.424   1.435   4.471 -0.0565 -0.1983 -0.4622
   35CHL1   C11 2550   3.385   1.333   4.280 -0.3242  0.3955  0.5929
   35CHL1  H11A 2551   3.327   1.245   4.247  0.4333  0.0691  0.1119
   35CHL1  H11B 2552   3.329   1.422   4.244  0.2977  0.9698  1.0126
   35CHL1    C9 2553   3.526   1.318   4.210  0.2566 -0.5397 -0.0284
   35CHL1    H9 2554   3.589   1.400   4.251  0.8477 -0.5741 -0.8591
   35CHL1   C10 2555   3.527   1.343   4.059 -0.0770  0.1691 -0.9327
   35CHL1   C19 2556   3.413   1.263   4.000  0.1467 -0.2938  0.3939
   35CHL1  H19A 2557   3.413   1.257   3.889  0.0412 -1.5367  0.4529
   35CHL1  H19B 2558   3.404   1.159   4.036 -0.3730 -1.4101 -2.6681
   35CHL1  H19C 2559   3.318   1.316   4.022  1.9291  2.9672  0.9037
   35CHL1    C1 2560   3.514   1.494   4.027 -0.0433  0.7427  1.1923
   35CHL1   H1A 2561   3.423   1.537   4.074  0.8288  1.3254  2.3912
   35CHL1   H1B 2562   3.584   1.550   4.093  1.5393  0.0684  0.1616
   35CHL1    C2 2563   3.534   1.524   3.878 -0.3811  0.3269  0.0224
   35CHL1   H2A 2564   3.524   1.632   3.852 -0.0935  0.8971  2.0736
   35CHL1   H2B 2565   3.458   1.471   3.818 -0.4216 -0.0380  0.3903
   35CHL1   C20 2566   3.377   1.180   4.740  0.1601  0.5320  0.0416
   35CHL1   H20 2567   3.337   1.080   4.712  0.8916  1.1630 -3.7961
   35CHL1   C21 2568   3.260   1.279   4.720 -0.5954  0.1925  0.1478
   35CHL1  H21A 2569   3.198   1.256   4.631 -2.8194  1.2147  1.3440
   35CHL1  H21B 2570   3.285   1.386   4.737 -2.1650  0.3965  1.4645
   35CHL1  H21C 2571   3.185   1.241   4.793  0.7475 -2.0923  0.4174
   35CHL1   C22 2572   3.430   1.167   4.881 -0.8341  0.1148 -0.1617
   35CHL1  H22A 2573   3.499   1.081   4.893  0.2372  1.0693  0.7631
   35CHL1  H22B 2574   3.491   1.256   4.908  0.7914 -0.6475 -1.1837
   35CHL1   C23 2575   3.327   1.152   4.989 -0.5140  0.0762  0.0473
   35CHL1  H23A 2576   3.281   1.247   5.023  0.9824 -0.2297  3.2445
   35CHL1  H23B 2577   3.250   1.081   4.953  0.7898 -1.8746  0.9239
   35CHL1   C24 2578   3.388   1.109   5.118 -0.2005 -0.0117  0.4353
   35CHL1  H24A 2579   3.471   1.040   5.092 -0.8668 -0.7102  0.1518
   35CHL1  H24B 2580   3.440   1.192   5.171 -0.3707 -0.3313  1.1050
   35CHL1   C25 2581   3.299   1.034   5.224 -0.0653 -0.0224  0.3401
   35CHL1   H25 2582   3.254   0.941   5.184 -2.4405 -0.4301  3.5273
   35CHL1   C26 2583   3.384   0.980   5.342  0.1722  0.1782  0.6468
   35CHL1  H26A 2584   3.331   0.927   5.425  1.0860 -0.0046  1.1245
   35CHL1  H26B 2585   3.456   0.909   5.296 -1.0058 -0.3509 -0.4613
   35CHL1  H26C 2586   3.441   1.068   5.377 -3.4249  2.5527  1.0888
   35CHL1   C27 2587   3.185   1.116   5.278 -0.0950 -0.3546 -0.0015
   35CHL1  H27A 2588   3.125   1.060   5.353  2.8458 -2.4407  1.0063
   35CHL1  H27B 2589   3.214   1.205   5.339  0.0324 -0.7794  0.5659
   35CHL1  H27C 2590   3.121   1.159   5.198  0.8384  3.3477  1.0501
   36CHL1    C3 2591   3.444   2.426   3.532  0.3895  1.1658  0.1188
   36CHL1    H3 2592   3.537   2.370   3.512  0.4761  0.4298  2.3499
   36CHL1    O3 2593   3.385   2.443   3.403 -0.3994 -0.4965 -0.1794
   36CHL1   H3' 2594   3.317   2.508   3.421  1.3245  0.8463  2.1342
   36CHL1    C4 2595   3.356   2.337   3.617 -0.3824  0.5514 -0.4238
   36CHL1   H4A 2596   3.251   2.372   3.621 -1.2311 -1.9363  2.0011
   36CHL1   H4B 2597   3.355   2.238   3.567  1.0765 -0.0274  0.6352
   36CHL1    C5 2598   3.403   2.326   3.764  0.4693  0.3423  0.5309
   36CHL1    C6 2599   3.423   2.210   3.831  0.1235  0.7470 -0.1524
   36CHL1    H6 2600   3.409   2.114   3.779 -0.0926  1.3701 -1.2818
   36CHL1    C7 2601   3.481   2.198   3.974  0.1061 -0.1366  0.7063
   36CHL1   H7A 2602   3.420   2.128   4.035 -1.9846  1.6281  0.7443
   36CHL1   H7B 2603   3.588   2.169   3.983  0.9406  2.6878  0.8655
   36CHL1    C8 2604   3.449   2.329   4.053  0.0632 -0.1526  1.5558
   36CHL1    H8 2605   3.338   2.331   4.052  0.0074 -0.4414 -1.7915
   36CHL1   C14 2606   3.502   2.331   4.192  0.0334  0.7323 -0.3186
   36CHL1   H14 2607   3.611   2.323   4.172  0.2516  1.5328  0.4827
   36CHL1   C15 2608   3.472   2.209   4.281  0.3601 -0.0519  0.1599
   36CHL1  H15A 2609   3.362   2.192   4.276  0.3861 -0.8625  1.7841
   36CHL1  H15B 2610   3.523   2.120   4.239  0.4067  0.0186  0.0655
   36CHL1   C16 2611   3.517   2.254   4.417  0.0425  0.0105 -0.0831
   36CHL1  H16A 2612   3.436   2.260   4.494 -0.3088  0.0300 -0.4513
   36CHL1  H16B 2613   3.596   2.186   4.456 -0.4285 -0.6125 -0.1903
   36CHL1   C17 2614   3.562   2.408   4.404  1.5676 -0.2237  0.9004
   36CHL1   H17 2615   3.673   2.403   4.394  1.8538 -0.3685  3.5502
   36CHL1   C13 2616   3.490   2.452   4.273 -0.3998 -0.3100  0.4513
   36CHL1   C18 2617   3.337   2.473   4.308 -0.1740 -0.4308  0.1580
   36CHL1  H18A 2618   3.281   2.499   4.215 -1.0860  0.2966  0.8830
   36CHL1  H18B 2619   3.293   2.390   4.366  0.1854 -0.7239  0.0121
   36CHL1  H18C 2620   3.326   2.568   4.366 -0.5892 -0.1040 -0.4413
   36CHL1   C12 2621   3.551   2.563   4.199 -0.0856  0.4334  0.5069
   36CHL1  H12A 2622   3.543   2.661   4.253 -1.1546  1.9248 -2.1762
   36CHL1  H12B 2623   3.661   2.553   4.188 -0.1025  0.4267  0.3508
   36CHL1   C11 2624   3.484   2.579   4.059  0.0857  0.4991 -0.9214
   36CHL1  H11A 2625   3.379   2.613   4.068 -0.1944  0.5770 -3.6915
   36CHL1  H11B 2626   3.529   2.660   3.997 -1.9996  1.4790 -1.2293
   36CHL1    C9 2627   3.494   2.452   3.975 -0.0582 -0.6769 -0.3281
   36CHL1    H9 2628   3.602   2.433   3.959  0.0025 -1.4832  0.9080
   36CHL1   C10 2629   3.431   2.467   3.835 -0.0116 -0.6292  0.5501
   36CHL1   C19 2630   3.294   2.539   3.844  0.0943 -0.1200  0.0188
   36CHL1  H19A 2631   3.240   2.507   3.936 -0.9152  0.6749 -0.2719
   36CHL1  H19B 2632   3.295   2.650   3.847  2.4863 -0.0456 -1.0726
   36CHL1  H19C 2633   3.228   2.511   3.759  0.6950  1.9036 -1.1825
   36CHL1    C1 2634   3.524   2.548   3.738  0.6396  0.7052 -0.3650
   36CHL1   H1A 2635   3.524   2.653   3.774 -0.0434  0.3485  0.7246
   36CHL1   H1B 2636   3.629   2.511   3.748  0.1368 -0.7981 -0.3018
   36CHL1    C2 2637   3.474   2.558   3.594  0.7358 -0.2482 -0.5583
   36CHL1   H2A 2638   3.552   2.605   3.530  0.7975 -0.8769 -0.9540
   36CHL1   H2B 2639   3.388   2.628   3.593 -0.7420 -1.9835 -0.2799
   36CHL1   C20 2640   3.536   2.486   4.535  0.2723 -0.1053 -0.0218
   36CHL1   H20 2641   3.429   2.473   4.563  0.6513 -1.0775  1.0332
   36CHL1   C21 2642   3.567   2.640   4.529 -0.1413  0.2599 -0.3316
   36CHL1  H21A 2643   3.557   2.689   4.628 -2.8149 -1.2264  0.2598
   36CHL1  H21B 2644   3.508   2.695   4.452  0.1614 -0.0993 -0.8247
   36CHL1  H21C 2645   3.670   2.655   4.492  0.5158 -0.6737  1.0556
   36CHL1   C22 2646   3.639   2.444   4.634  0.3284  0.8753 -0.4054
   36CHL1  H22A 2647   3.667   2.338   4.618 -0.8180  0.2437  1.3520
   36CHL1  H22B 2648   3.734   2.499   4.618  1.0719 -0.3489 -0.3711
   36CHL1   C23 2649   3.610   2.469   4.778  0.0543 -0.0266 -0.3527
   36CHL1  H23A 2650   3.705   2.459   4.836 -2.4002 -0.1227  4.0841
   36CHL1  H23B 2651   3.589   2.577   4.793  1.3899  0.2509 -0.3388
   36CHL1   C24 2652   3.512   2.368   4.832 -0.0524 -0.4439  0.1696
   36CHL1  H24A 2653   3.426   2.383   4.764 -0.8465  3.0435  1.6794
   36CHL1  H24B 2654   3.561   2.269   4.824  0.7217 -0.3125  2.4226
   36CHL1   C25 2655   3.487   2.391   4.979  0.2405  0.5905 -0.1882
   36CHL1   H25 2656   3.495   2.501   4.992 -0.4915  0.5292  0.9355
   36CHL1   C26 2657   3.341   2.369   5.024 -0.1986  0.7078 -0.3124
   36CHL1  H26A 2658   3.336   2.414   5.125 -0.8523 -0.3626  0.1488
   36CHL1  H26B 2659   3.273   2.416   4.949 -0.4972 -0.6372 -0.9215
   36CHL1  H26C 2660   3.323   2.260   5.032  0.3950  0.4333 -2.2235
   36CHL1   C27 2661   3.583   2.313   5.065 -0.4539  0.2242 -0.0188
   36CHL1  H27A 2662   3.557   2.313   5.173 -2.3918 -0.3946 -0.4481
   36CHL1  H27B 2663   3.590   2.209   5.027 -1.3055 -0.2346  1.0230
   36CHL1  H27C 2664   3.678   2.370   5.061 -1.6813  2.3721 -0.4792
   37CHL1    C3 2665   1.573   1.189   3.386 -0.0143  0.1373  0.8140
   37CHL1    H3 2666   1.462   1.201   3.388 -0.1319 -0.6847 -0.1861
   37CHL1    O3 2667   1.626   1.177   3.252  0.9648  0.1831  0.2955
   37CHL1   H3' 2668   1.617   1.085   3.226  0.5615  0.4377 -0.5092
   37CHL1    C4 2669   1.644   1.316   3.453  0.0656  0.1690  0.4451
   37CHL1   H4A 2670   1.755   1.308   3.450  0.0546  0.2702 -0.6122
   37CHL1   H4B 2671   1.610   1.404   3.393  2.8273  1.2000  0.2306
   37CHL1    C5 2672   1.599   1.331   3.596 -0.2380  0.0513 -0.1549
   37CHL1    C6 2673   1.544   1.440   3.641  0.2860 -0.3074 -0.6442
   37CHL1    H6 2674   1.517   1.521   3.572 -0.6637 -0.3750 -0.3654
   37CHL1    C7 2675   1.530   1.468   3.792 -0.1323 -0.6907  0.5630
   37CHL1   H7A 2676   1.577   1.564   3.822 -0.7122  1.1025 -3.5654
   37CHL1   H7B 2677   1.422   1.473   3.820 -0.7932 -2.3712 -1.3802
   37CHL1    C8 2678   1.589   1.360   3.886 -0.3591  0.6497 -0.5625
   37CHL1    H8 2679   1.699   1.378   3.893 -0.3791  0.9097 -0.9509
   37CHL1   C14 2680   1.525   1.370   4.023 -0.7780 -0.1121  0.5112
   37CHL1   H14 2681   1.416   1.355   4.006 -1.0369  3.2518 -1.6223
   37CHL1   C15 2682   1.526   1.507   4.089 -0.2841 -0.0689  0.0738
   37CHL1  H15A 2683   1.624   1.557   4.078 -1.0395  1.5571  0.4433
   37CHL1  H15B 2684   1.447   1.576   4.052 -0.3782 -0.3585 -0.2700
   37CHL1   C16 2685   1.509   1.478   4.241  0.2492  0.4700 -0.1760
   37CHL1  H16A 2686   1.602   1.508   4.293 -0.4890  1.8278  0.4005
   37CHL1  H16B 2687   1.421   1.539   4.271  0.2352 -0.1382  1.0869
   37CHL1   C17 2688   1.498   1.321   4.257  0.0514 -0.2715 -0.2299
   37CHL1   H17 2689   1.392   1.295   4.237  0.2678 -0.1774 -1.5531
   37CHL1   C13 2690   1.565   1.266   4.127  0.5493 -0.9414 -0.0016
   37CHL1   C18 2691   1.719   1.283   4.144 -0.3002  0.3140  0.3355
   37CHL1  H18A 2692   1.738   1.391   4.163 -1.0287  0.8262 -1.5859
   37CHL1  H18B 2693   1.755   1.224   4.231  1.0295  1.6253  0.7244
   37CHL1  H18C 2694   1.779   1.252   4.055  0.3600 -0.9272  1.1888
   37CHL1   C12 2695   1.532   1.127   4.073  0.3737 -0.0592 -0.0070
   37CHL1  H12A 2696   1.566   1.040   4.133 -1.1695 -0.9425 -0.3703
   37CHL1  H12B 2697   1.421   1.133   4.065  0.5359  1.4327 -2.0697
   37CHL1   C11 2698   1.594   1.108   3.934  0.5186 -0.2494  0.1399
   37CHL1  H11A 2699   1.704   1.094   3.937  0.8079  1.3745 -1.6093
   37CHL1  H11B 2700   1.548   1.018   3.888 -0.8231  0.4749 -0.0042
   37CHL1    C9 2701   1.568   1.217   3.831  0.6910 -0.2399 -0.4459
   37CHL1    H9 2702   1.459   1.202   3.813  0.6170 -0.2376 -0.0013
   37CHL1   C10 2703   1.633   1.204   3.690  0.0671 -0.7997 -0.2461
   37CHL1   C19 2704   1.787   1.195   3.714  0.4738  0.4723  0.3625
   37CHL1  H19A 2705   1.838   1.285   3.756  0.9277 -0.1532  1.1607
   37CHL1  H19B 2706   1.815   1.106   3.774  3.3039  0.4619 -0.8023
   37CHL1  H19C 2707   1.832   1.184   3.613  1.9447  0.0417  1.0471
   37CHL1    C1 2708   1.571   1.078   3.621  0.3346  0.2111  0.0873
   37CHL1   H1A 2709   1.590   0.981   3.671 -1.0958  0.4064  1.0545
   37CHL1   H1B 2710   1.461   1.090   3.631  0.4751  1.7739  0.0429
   37CHL1    C2 2711   1.599   1.064   3.470 -0.0986 -0.1940  0.0332
   37CHL1   H2A 2712   1.526   0.986   3.441 -1.1119  0.3861  0.9362
   37CHL1   H2B 2713   1.707   1.038   3.461 -0.2602 -0.5078 -1.1316
   37CHL1   C20 2714   1.542   1.274   4.404  0.1624 -0.3321  0.6536
   37CHL1   H20 2715   1.649   1.300   4.424  0.1901  0.0871 -0.0160
   37CHL1   C21 2716   1.536   1.121   4.415 -0.2691 -0.2116  0.4215
   37CHL1  H21A 2717   1.608   1.070   4.348 -1.3896 -3.1236  1.2764
   37CHL1  H21B 2718   1.439   1.079   4.383  0.3653 -1.0793 -0.4089
   37CHL1  H21C 2719   1.555   1.083   4.518  2.1911  0.3579  0.2459
   37CHL1   C22 2720   1.452   1.344   4.511 -0.6023  0.1596  1.2353
   37CHL1  H22A 2721   1.440   1.453   4.496 -0.2178 -0.0437 -0.8169
   37CHL1  H22B 2722   1.348   1.306   4.497  0.0496 -1.0065 -0.8594
   37CHL1   C23 2723   1.491   1.332   4.655 -0.3147  0.4605  0.5037
   37CHL1  H23A 2724   1.495   1.224   4.683 -1.3690  0.5489  1.0820
   37CHL1  H23B 2725   1.587   1.377   4.689  1.0521 -1.1684 -0.9891
   37CHL1   C24 2726   1.382   1.382   4.743  0.0612 -0.4964 -0.0729
   37CHL1  H24A 2727   1.370   1.493   4.740  1.4129 -0.3515 -2.6202
   37CHL1  H24B 2728   1.290   1.339   4.698 -0.2567  1.2076 -1.1442
   37CHL1   C25 2729   1.384   1.340   4.896 -0.3293 -0.6017  0.2356
   37CHL1   H25 2730   1.406   1.232   4.903  2.6693 -0.0044  2.2029
   37CHL1   C26 2731   1.489   1.419   4.977 -0.3603  0.3026  0.3925
   37CHL1  H26A 2732   1.506   1.364   5.072 -0.4351 -1.5112 -0.5982
   37CHL1  H26B 2733   1.587   1.426   4.925 -1.5939  1.8324 -1.8877
   37CHL1  H26C 2734   1.449   1.522   4.991 -1.4615  0.0405 -0.6825
   37CHL1   C27 2735   1.242   1.347   4.959  0.2904  0.0189  0.2764
   37CHL1  H27A 2736   1.172   1.309   4.882  0.2828  2.1890 -0.8595
   37CHL1  H27B 2737   1.219   1.276   5.041  0.2430  0.3439  0.5443
   37CHL1  H27C 2738   1.214   1.454   4.966  1.0765  0.2908 -0.4634
   38CHL1    C3 2739   4.888   3.452   3.529 -0.7443  0.3078 -0.5471
   38CHL1    H3 2740   4.998   3.464   3.539 -0.7651  0.6574 -0.7233
   38CHL1    O3 2741   4.868   3.526   3.408 -0.3829  0.4584 -0.2238
   38CHL1   H3' 2742   4.957   3.530   3.373 -0.3453 -1.0962 -0.3747
   38CHL1    C4 2743   4.848   3.302   3.524 -0.3783  0.2177 -0.2986
   38CHL1   H4A 2744   4.738   3.297   3.508 -0.5119 -0.4114  0.7564
   38CHL1   H4B 2745   4.892   3.251   3.436 -0.6497 -1.1760  0.3492
   38CHL1    C5 2746   4.893   3.228   3.645  0.6393  0.5182 -0.4185
   38CHL1    C6 2747   4.970   3.123   3.632  0.2774  0.5155  0.4615
   38CHL1    H6 2748   4.984   3.075   3.534 -1.1129  0.6891  0.1617
   38CHL1    C7 2749   5.018   3.044   3.753 -0.1911  0.4339  0.1151
   38CHL1   H7A 2750   5.013   2.934   3.740  2.5513  0.3032 -0.5777
   38CHL1   H7B 2751   5.127   3.057   3.770  0.1520 -1.4815 -0.3660
   38CHL1    C8 2752   4.946   3.069   3.886  0.3109 -0.3762 -0.1199
   38CHL1    H8 2753   4.847   3.021   3.877  0.0873 -0.7214  2.9159
   38CHL1   C14 2754   5.018   3.020   4.013  0.7757 -0.0117 -0.0430
   38CHL1   H14 2755   5.107   3.087   4.017 -0.1592  1.2376  3.0284
   38CHL1   C15 2756   5.068   2.877   4.014 -0.2516  0.4038  0.1974
   38CHL1  H15A 2757   4.997   2.801   3.975  0.5866  1.3871 -3.7434
   38CHL1  H15B 2758   5.161   2.861   3.955 -0.6049 -0.2835 -0.1897
   38CHL1   C16 2759   5.095   2.845   4.159 -0.0042 -0.6839  0.3997
   38CHL1  H16A 2760   5.045   2.749   4.183  2.5175 -2.4756 -0.9596
   38CHL1  H16B 2761   5.204   2.836   4.182 -0.1544 -0.3040  1.2962
   38CHL1   C17 2762   5.040   2.961   4.246 -0.0166 -0.6440  0.6075
   38CHL1   H17 2763   5.122   3.032   4.272 -0.5203  0.5345 -0.8788
   38CHL1   C13 2764   4.950   3.040   4.147  0.4102 -0.3050 -0.5022
   38CHL1   C18 2765   4.813   2.968   4.148 -0.0885  0.8315 -0.0225
   38CHL1  H18A 2766   4.817   2.857   4.150 -3.3061  0.5853 -1.1182
   38CHL1  H18B 2767   4.751   2.984   4.239 -1.6944 -1.7028 -0.5852
   38CHL1  H18C 2768   4.746   3.001   4.065 -0.4311 -0.6586 -0.3599
   38CHL1   C12 2769   4.939   3.194   4.161  0.1094  0.0019  0.7382
   38CHL1  H12A 2770   4.884   3.215   4.256  2.4741 -0.4080  2.2912
   38CHL1  H12B 2771   5.040   3.241   4.165 -0.5684  1.5288  0.4019
   38CHL1   C11 2772   4.863   3.257   4.040  0.4291 -0.6301  0.4397
   38CHL1  H11A 2773   4.760   3.214   4.039  0.5890 -1.0870  1.5758
   38CHL1  H11B 2774   4.854   3.367   4.038 -2.2159 -0.7713  0.8826
   38CHL1    C9 2775   4.922   3.221   3.905  0.6244  0.4239  0.0605
   38CHL1    H9 2776   5.021   3.270   3.920  1.1312  0.0483 -1.8589
   38CHL1   C10 2777   4.843   3.287   3.780 -0.3952 -0.1558 -0.6269
   38CHL1   C19 2778   4.697   3.256   3.786 -0.0884  0.7793  0.4210
   38CHL1  H19A 2779   4.651   3.316   3.868 -1.5552  0.4835 -0.1655
   38CHL1  H19B 2780   4.641   3.275   3.693  2.2467 -0.9541 -1.4650
   38CHL1  H19C 2781   4.686   3.147   3.807  0.9272  0.4546 -0.6611
   38CHL1    C1 2782   4.867   3.440   3.787  0.1019 -0.2961  0.1391
   38CHL1   H1A 2783   4.807   3.493   3.865 -0.4495  1.1564 -1.2141
   38CHL1   H1B 2784   4.974   3.448   3.814 -0.2326  0.0170  1.4365
   38CHL1    C2 2785   4.830   3.517   3.652  0.1156 -0.7794  0.1329
   38CHL1   H2A 2786   4.857   3.625   3.655 -5.2044  0.8265  1.2768
   38CHL1   H2B 2787   4.720   3.518   3.638  0.2671 -0.5704 -1.1429
   38CHL1   C20 2788   4.986   2.914   4.382  0.2930  1.0310  0.6709
   38CHL1   H20 2789   4.891   2.861   4.357  0.5698  1.2224 -0.9306
   38CHL1   C21 2790   4.941   3.036   4.466  0.2565 -0.0964 -0.3502
   38CHL1  H21A 2791   4.872   3.104   4.412 -1.0085 -1.0448  0.0335
   38CHL1  H21B 2792   5.025   3.098   4.504  0.5375  0.3714 -1.6823
   38CHL1  H21C 2793   4.896   2.990   4.556 -0.4541 -0.1480 -0.7268
   38CHL1   C22 2794   5.077   2.824   4.467 -0.0262  0.8499  0.3068
   38CHL1  H22A 2795   5.131   2.742   4.414  0.0817  1.1412 -0.0396
   38CHL1  H22B 2796   5.157   2.892   4.503  1.6678  0.9665 -3.2176
   38CHL1   C23 2797   5.004   2.759   4.587 -0.0101  0.3696  0.3404
   38CHL1  H23A 2798   4.983   2.836   4.665 -0.9688 -1.6446  2.1640
   38CHL1  H23B 2799   4.907   2.712   4.561  0.4391 -0.5566  0.2961
   38CHL1   C24 2800   5.096   2.653   4.650  0.9057  0.8634  0.3654
   38CHL1  H24A 2801   5.123   2.582   4.568 -1.3837  1.7933 -1.3210
   38CHL1  H24B 2802   5.191   2.698   4.685  2.9035 -4.4784  2.8514
   38CHL1   C25 2803   5.040   2.582   4.773 -0.8957 -0.8258 -0.2301
   38CHL1   H25 2804   4.939   2.537   4.765 -0.6139 -1.8287  1.3715
   38CHL1   C26 2805   5.131   2.463   4.805  0.2395 -0.6340  0.7129
   38CHL1  H26A 2806   5.232   2.477   4.850  1.0323 -2.6717 -0.2836
   38CHL1  H26B 2807   5.082   2.396   4.878  0.4210 -0.6296  0.8414
   38CHL1  H26C 2808   5.143   2.401   4.713 -0.7976 -0.0050  0.1408
   38CHL1   C27 2809   5.057   2.676   4.893 -0.5813 -0.5589  0.4839
   38CHL1  H27A 2810   4.988   2.763   4.888 -1.8851 -1.6197 -1.0362
   38CHL1  H27B 2811   5.024   2.621   4.984  1.0894 -1.1744  0.7407
   38CHL1  H27C 2812   5.161   2.710   4.911 -0.2591 -0.5460 -1.2004
   39CHL1    C3 2813   5.156   2.400   3.416  0.0098  0.0775 -0.5995
   39CHL1    H3 2814   5.137   2.294   3.389 -0.4724  0.1468 -0.5525
   39CHL1    O3 2815   5.203   2.470   3.301 -0.2794 -0.2947  0.6143
   39CHL1   H3' 2816   5.225   2.559   3.329  2.8584 -0.8508  0.3290
   39CHL1    C4 2817   5.021   2.458   3.453  0.1160 -0.1559 -0.1534
   39CHL1   H4A 2818   5.018   2.569   3.441 -1.3193 -0.2590 -0.9597
   39CHL1   H4B 2819   4.955   2.426   3.369 -1.8008  2.1008  0.3716
   39CHL1    C5 2820   4.955   2.429   3.586  0.0070 -0.0265  0.3258
   39CHL1    C6 2821   4.827   2.391   3.593 -0.6936  0.7210  0.2593
   39CHL1    H6 2822   4.767   2.389   3.500 -0.0533  1.7558 -0.1930
   39CHL1    C7 2823   4.763   2.375   3.726  0.1748  0.3141  0.1381
   39CHL1   H7A 2824   4.661   2.419   3.737 -0.0301 -0.5819  2.6261
   39CHL1   H7B 2825   4.742   2.266   3.738 -0.9355  0.4269 -0.6345
   39CHL1    C8 2826   4.845   2.427   3.851  0.1416  0.3729 -0.4321
   39CHL1    H8 2827   4.839   2.537   3.866 -0.4311  0.0978  1.7109
   39CHL1   C14 2828   4.784   2.368   3.981 -0.7818  0.5655  0.3755
   39CHL1   H14 2829   4.805   2.259   3.969  0.3300  0.9462 -1.5159
   39CHL1   C15 2830   4.636   2.388   4.014  0.1537  0.0356 -0.6352
   39CHL1  H15A 2831   4.605   2.489   3.980 -0.6797 -1.3176 -4.3707
   39CHL1  H15B 2832   4.571   2.312   3.966 -0.7884 -0.6123  1.5466
   39CHL1   C16 2833   4.632   2.381   4.168 -0.7018  0.1749  0.1700
   39CHL1  H16A 2834   4.624   2.485   4.206 -1.3666 -0.9785  3.5349
   39CHL1  H16B 2835   4.545   2.324   4.205 -0.0770 -0.8922  0.0393
   39CHL1   C17 2836   4.771   2.338   4.213 -0.9077 -0.0277 -0.0961
   39CHL1   H17 2837   4.760   2.228   4.202 -1.0592 -0.0070 -0.1479
   39CHL1   C13 2838   4.867   2.406   4.105 -0.1339 -0.6597 -0.5177
   39CHL1   C18 2839   4.881   2.556   4.137  0.2835 -0.7571 -0.2044
   39CHL1  H18A 2840   4.913   2.614   4.048 -0.2636 -1.5515 -0.9354
   39CHL1  H18B 2841   4.783   2.602   4.163  1.1748  0.7466  0.6111
   39CHL1  H18C 2842   4.951   2.577   4.220 -2.1427  0.8710  1.5698
   39CHL1   C12 2843   5.004   2.335   4.079 -0.0675  0.3528 -0.5671
   39CHL1  H12A 2844   5.071   2.344   4.166 -0.8371 -0.2016  0.1000
   39CHL1  H12B 2845   4.990   2.228   4.050  1.1634 -0.2023  0.8090
   39CHL1   C11 2846   5.077   2.408   3.965 -0.6853  0.0246  0.4991
   39CHL1  H11A 2847   5.087   2.518   3.977  0.8718 -0.2124  1.5847
   39CHL1  H11B 2848   5.173   2.357   3.943 -2.1199 -1.8632 -1.7961
   39CHL1    C9 2849   4.989   2.386   3.838  0.1331  0.2926 -0.7483
   39CHL1    H9 2850   4.988   2.275   3.831 -0.4617  0.3012 -0.8296
   39CHL1   C10 2851   5.056   2.442   3.704 -0.3766 -0.0951 -0.0448
   39CHL1   C19 2852   5.099   2.586   3.737 -0.3430 -0.0201 -0.3242
   39CHL1  H19A 2853   5.014   2.653   3.763  0.1883  1.0117 -1.1660
   39CHL1  H19B 2854   5.186   2.588   3.805 -0.8865 -0.7646  0.4109
   39CHL1  H19C 2855   5.137   2.633   3.643 -0.1144  0.8748  0.2049
   39CHL1    C1 2856   5.186   2.358   3.664  0.3136 -0.2034 -0.2317
   39CHL1   H1A 2857   5.264   2.363   3.742  0.5066 -1.6371 -0.3080
   39CHL1   H1B 2858   5.153   2.254   3.641  2.0871 -0.5483 -1.4269
   39CHL1    C2 2859   5.256   2.406   3.533  0.5805 -0.1663  0.4610
   39CHL1   H2A 2860   5.333   2.330   3.512  0.9044  0.0960  0.6944
   39CHL1   H2B 2861   5.304   2.506   3.547  1.3874 -0.6784  1.4277
   39CHL1   C20 2862   4.799   2.371   4.361  0.7522  0.3589 -0.0015
   39CHL1   H20 2863   4.808   2.481   4.371 -1.9239  0.6951 -0.5460
   39CHL1   C21 2864   4.937   2.306   4.410  0.3613  0.3884  0.1770
   39CHL1  H21A 2865   4.951   2.200   4.383  2.3801  0.3800  1.0991
   39CHL1  H21B 2866   4.952   2.315   4.519 -1.0622  0.6978  0.3767
   39CHL1  H21C 2867   5.010   2.369   4.355 -1.0750  0.7462 -1.4304
   39CHL1   C22 2868   4.681   2.329   4.452 -0.2638  0.1333 -1.5649
   39CHL1  H22A 2869   4.582   2.374   4.430 -1.0417 -0.4018  0.5772
   39CHL1  H22B 2870   4.673   2.218   4.449  2.8793 -0.2800  0.5974
   39CHL1   C23 2871   4.701   2.373   4.600  0.3107 -0.5226 -0.6653
   39CHL1  H23A 2872   4.790   2.332   4.653  1.4712  2.7742  0.1506
   39CHL1  H23B 2873   4.706   2.484   4.606  1.7449 -0.6466  1.4419
   39CHL1   C24 2874   4.575   2.341   4.686 -0.2066  0.4401  0.6005
   39CHL1  H24A 2875   4.485   2.383   4.635  0.6378  0.2235 -1.1280
   39CHL1  H24B 2876   4.559   2.231   4.687  1.1532  0.2086 -0.2372
   39CHL1   C25 2877   4.587   2.393   4.830  0.5263  0.0834 -0.3464
   39CHL1   H25 2878   4.620   2.499   4.836  0.3087  0.1008  0.7638
   39CHL1   C26 2879   4.445   2.396   4.888  0.0037 -0.4674  0.0082
   39CHL1  H26A 2880   4.404   2.293   4.873 -1.0426  0.1390 -1.5499
   39CHL1  H26B 2881   4.441   2.429   4.994  0.4744  0.6455 -0.3100
   39CHL1  H26C 2882   4.379   2.462   4.829  0.1725 -2.4856 -2.6442
   39CHL1   C27 2883   4.669   2.305   4.910  0.0567  0.0267  0.2345
   39CHL1  H27A 2884   4.632   2.201   4.916 -2.1073  0.7626  0.5897
   39CHL1  H27B 2885   4.771   2.299   4.866  1.0692 -2.6321  2.6595
   39CHL1  H27C 2886   4.682   2.347   5.012  2.0446 -2.6633  1.1966
   40CHL1    C3 2887   5.601   4.325   3.903 -0.3038 -0.3912 -0.6710
   40CHL1    H3 2888   5.510   4.387   3.888 -0.6453 -0.4163  1.0875
   40CHL1    O3 2889   5.666   4.329   3.777  0.0588  0.4356  0.0186
   40CHL1   H3' 2890   5.604   4.312   3.706  0.9882 -0.6945 -0.5392
   40CHL1    C4 2891   5.683   4.389   4.008 -0.1935  0.0350  0.1934
   40CHL1   H4A 2892   5.782   4.339   4.018 -0.4907 -0.3708  1.2652
   40CHL1   H4B 2893   5.716   4.488   3.971  0.7781 -0.3245  0.0504
   40CHL1    C5 2894   5.611   4.383   4.144 -0.4473  0.3884 -0.0227
   40CHL1    C6 2895   5.600   4.485   4.226  0.9242 -0.8356 -0.1378
   40CHL1    H6 2896   5.646   4.579   4.195  1.7109 -1.0455  0.3577
   40CHL1    C7 2897   5.530   4.487   4.356  0.1316 -0.7421 -0.1937
   40CHL1   H7A 2898   5.594   4.542   4.429  0.6616 -0.5052 -0.8299
   40CHL1   H7B 2899   5.427   4.529   4.347  0.3809 -0.4262 -1.8682
   40CHL1    C8 2900   5.511   4.351   4.418 -0.3939 -0.1367 -0.5925
   40CHL1    H8 2901   5.607   4.322   4.466 -0.0300 -0.9043 -1.7430
   40CHL1   C14 2902   5.401   4.360   4.533 -0.9426  0.1041 -0.1679
   40CHL1   H14 2903   5.307   4.375   4.476 -0.5671  1.0137 -0.5698
   40CHL1   C15 2904   5.402   4.477   4.632  0.0596  0.2164 -0.0217
   40CHL1  H15A 2905   5.498   4.492   4.685 -0.5377 -0.1154  1.2033
   40CHL1  H15B 2906   5.371   4.576   4.593 -1.0540  0.2020  0.7773
   40CHL1   C16 2907   5.310   4.418   4.743  0.0087  1.2523 -0.3037
   40CHL1  H16A 2908   5.371   4.420   4.836 -1.0845  1.4318  0.4240
   40CHL1  H16B 2909   5.216   4.476   4.748 -1.6925 -0.8877 -3.6284
   40CHL1   C17 2910   5.276   4.268   4.702  0.2188  0.1662 -0.5780
   40CHL1   H17 2911   5.182   4.267   4.642 -0.7653 -0.1152  0.9172
   40CHL1   C13 2912   5.380   4.226   4.602  0.0759 -0.8997 -1.0432
   40CHL1   C18 2913   5.514   4.178   4.670 -0.4264 -0.1873 -0.5023
   40CHL1  H18A 2914   5.513   4.087   4.732  1.0851  0.2780  0.2362
   40CHL1  H18B 2915   5.600   4.172   4.600  0.1639  2.2090 -0.0800
   40CHL1  H18C 2916   5.540   4.255   4.746 -1.5259  1.2819 -1.5486
   40CHL1   C12 2917   5.339   4.109   4.502  0.6087 -0.4509 -0.2599
   40CHL1  H12A 2918   5.331   4.006   4.545  0.6394 -1.1400 -1.8190
   40CHL1  H12B 2919   5.236   4.133   4.468 -0.4124 -0.5654  2.5476
   40CHL1   C11 2920   5.437   4.108   4.384 -0.5480 -0.2191  0.2413
   40CHL1  H11A 2921   5.534   4.065   4.416 -0.1602  1.7532  1.9588
   40CHL1  H11B 2922   5.396   4.047   4.301 -1.5095 -0.1331  0.6338
   40CHL1    C9 2923   5.473   4.244   4.317 -0.1633 -0.2028  0.0916
   40CHL1    H9 2924   5.373   4.272   4.277 -0.0438 -0.4938 -0.4143
   40CHL1   C10 2925   5.564   4.241   4.190  0.3826 -0.2867 -0.6940
   40CHL1   C19 2926   5.689   4.156   4.219 -1.3906  1.3846 -0.2116
   40CHL1  H19A 2927   5.731   4.170   4.321  0.4656 -2.4481 -0.2815
   40CHL1  H19B 2928   5.659   4.049   4.212 -0.6565  0.8942  2.8760
   40CHL1  H19C 2929   5.773   4.188   4.154 -0.7600  1.6135  0.6964
   40CHL1    C1 2930   5.482   4.178   4.076  0.3938 -0.4693 -0.0539
   40CHL1   H1A 2931   5.458   4.072   4.101 -0.1549 -0.1352  0.9276
   40CHL1   H1B 2932   5.386   4.231   4.060 -0.4583 -2.4268 -1.8398
   40CHL1    C2 2933   5.551   4.185   3.937  0.1452 -0.1800 -0.3805
   40CHL1   H2A 2934   5.479   4.155   3.857  1.0861  1.4711 -1.9025
   40CHL1   H2B 2935   5.628   4.105   3.943 -0.2197 -0.4501  3.0880
   40CHL1   C20 2936   5.261   4.198   4.834 -0.3409  1.0669  0.7494
   40CHL1   H20 2937   5.358   4.208   4.887 -0.5361 -1.3180  1.7110
   40CHL1   C21 2938   5.244   4.046   4.814 -0.8668 -0.5719  0.2583
   40CHL1  H21A 2939   5.202   4.000   4.906 -0.6963 -0.9669  0.1409
   40CHL1  H21B 2940   5.343   3.999   4.796 -0.6378 -0.1318  0.3456
   40CHL1  H21C 2941   5.189   4.012   4.724 -1.9468  2.4297 -0.3380
   40CHL1   C22 2942   5.147   4.256   4.916  0.2333  0.1223  0.5650
   40CHL1  H22A 2943   5.162   4.365   4.932 -1.5772  0.6480 -0.9479
   40CHL1  H22B 2944   5.050   4.247   4.863  0.4909 -0.4977  0.1926
   40CHL1   C23 2945   5.128   4.203   5.056 -0.5771 -0.3668  0.0262
   40CHL1  H23A 2946   5.108   4.094   5.061  0.4319 -0.6832 -1.8754
   40CHL1  H23B 2947   5.218   4.223   5.119  0.4482  1.2699 -1.8277
   40CHL1   C24 2948   5.015   4.278   5.124 -0.8370 -0.1006  0.5321
   40CHL1  H24A 2949   5.042   4.386   5.126 -0.9706 -0.0537 -0.0503
   40CHL1  H24B 2950   4.918   4.275   5.069 -0.0271  0.7667 -0.9998
   40CHL1   C25 2951   4.969   4.212   5.257 -0.0446 -0.4530  0.0067
   40CHL1   H25 2952   5.051   4.193   5.329  0.2092 -1.3425 -0.5045
   40CHL1   C26 2953   4.871   4.302   5.334  0.4098 -0.0404 -0.0018
   40CHL1  H26A 2954   4.763   4.301   5.309  0.0970 -1.1715  1.2473
   40CHL1  H26B 2955   4.865   4.274   5.442  2.0026 -0.2675  0.0538
   40CHL1  H26C 2956   4.892   4.411   5.340 -3.1970  0.8602 -1.2973
   40CHL1   C27 2957   4.907   4.077   5.244  0.4390  0.5528 -0.0509
   40CHL1  H27A 2958   4.987   4.009   5.207 -0.8695  0.1426 -2.2955
   40CHL1  H27B 2959   4.870   4.034   5.339  0.0423 -1.4136 -1.0472
   40CHL1  H27C 2960   4.825   4.078   5.169 -0.5247  3.9265  0.8572
   41CHL1    C3 2961   0.090   2.749   3.970 -0.3514 -0.0111  1.0795
   41CHL1    H3 2962   0.058   2.851   4.001  2.5017  0.9070  1.3243
   41CHL1    O3 2963   0.049   2.728   3.832  0.2224 -0.1330 -0.0839
   41CHL1   H3' 2964   0.102   2.656   3.798 -1.3786 -1.1944 -0.4431
   41CHL1    C4 2965   0.241   2.746   3.984 -0.7811  0.8606  0.0153
   41CHL1   H4A 2966   0.266   2.648   3.939 -0.5644  1.6406 -1.6472
   41CHL1   H4B 2967   0.298   2.813   3.916 -0.0784 -0.1046 -0.3761
   41CHL1    C5 2968   0.289   2.764   4.127  0.0777  0.2536  0.6116
   41CHL1    C6 2969   0.371   2.864   4.159  0.2903  0.5009 -0.3830
   41CHL1    H6 2970   0.407   2.926   4.075  1.2492  1.0226  0.4011
   41CHL1    C7 2971   0.415   2.899   4.300  0.1275 -0.4992 -0.4735
   41CHL1   H7A 2972   0.521   2.928   4.311 -0.1690  1.7487 -2.5514
   41CHL1   H7B 2973   0.356   2.986   4.337  1.7600  0.3578  0.2327
   41CHL1    C8 2974   0.383   2.781   4.399 -0.4449 -0.2291 -0.1058
   41CHL1    H8 2975   0.467   2.711   4.378 -0.7432 -0.6275  0.0131
   41CHL1   C14 2976   0.391   2.822   4.544 -0.2410  0.2763 -0.9600
   41CHL1   H14 2977   0.301   2.887   4.552 -0.3346  0.0264  0.4109
   41CHL1   C15 2978   0.521   2.890   4.591 -0.7699 -0.4006 -0.4814
   41CHL1  H15A 2979   0.609   2.832   4.556 -0.5963 -1.1553  1.1190
   41CHL1  H15B 2980   0.524   2.994   4.550  2.0591 -0.5620 -0.8656
   41CHL1   C16 2981   0.515   2.890   4.741 -0.1652 -0.7690 -0.0610
   41CHL1  H16A 2982   0.607   2.852   4.790 -0.9218 -0.8979  1.3212
   41CHL1  H16B 2983   0.494   2.992   4.779 -1.2446 -0.3446 -1.7047
   41CHL1   C17 2984   0.392   2.800   4.774  0.0380  0.2647 -0.1283
   41CHL1   H17 2985   0.297   2.857   4.783  0.3528  0.8209 -0.3216
   41CHL1   C13 2986   0.363   2.714   4.648  0.2288  0.0031 -0.6200
   41CHL1   C18 2987   0.478   2.605   4.637  0.3861 -0.7720  0.6421
   41CHL1  H18A 2988   0.578   2.638   4.672 -0.2085  2.3518 -0.2697
   41CHL1  H18B 2989   0.439   2.532   4.711 -2.4998  0.5665  0.5548
   41CHL1  H18C 2990   0.479   2.576   4.529 -0.2803  2.3493 -0.2938
   41CHL1   C12 2991   0.220   2.653   4.623  0.5641 -0.2487 -0.1798
   41CHL1  H12A 2992   0.213   2.562   4.686  1.8995  1.5902  2.8501
   41CHL1  H12B 2993   0.145   2.730   4.649  0.0169 -0.1504 -1.9171
   41CHL1   C11 2994   0.201   2.618   4.479 -0.6101  0.2453  0.4928
   41CHL1  H11A 2995   0.265   2.529   4.459  1.8239  2.2335 -1.3059
   41CHL1  H11B 2996   0.095   2.588   4.465 -1.1231  1.3090  1.8970
   41CHL1    C9 2997   0.247   2.722   4.374 -0.5623 -0.4341  0.2089
   41CHL1    H9 2998   0.173   2.803   4.391 -0.1008 -0.1947  1.1439
   41CHL1   C10 2999   0.220   2.673   4.231 -0.8036  0.2771 -0.1658
   41CHL1   C19 3000   0.281   2.533   4.207  0.8143 -0.0845 -0.1362
   41CHL1  H19A 3001   0.382   2.531   4.254  1.3848  0.4091 -1.2939
   41CHL1  H19B 3002   0.221   2.458   4.262  1.6145 -1.1402 -0.6695
   41CHL1  H19C 3003   0.297   2.485   4.108  0.7341  2.3913 -1.4288
   41CHL1    C1 3004   0.074   2.661   4.206  0.3334 -0.0091  0.3595
   41CHL1   H1A 3005   0.029   2.579   4.266 -0.4501 -0.4628 -0.7919
   41CHL1   H1B 3006   0.033   2.754   4.249  1.9946  0.1987  1.5544
   41CHL1    C2 3007   0.032   2.639   4.059  0.9031 -0.5009  0.0812
   41CHL1   H2A 3008  -0.079   2.637   4.052  0.5747  1.5521  2.8558
   41CHL1   H2B 3009   0.074   2.541   4.029  3.8149 -0.1671  2.5770
   41CHL1   C20 3010   0.409   2.729   4.910 -0.2896 -0.0467  0.8307
   41CHL1   H20 3011   0.494   2.659   4.897  2.0901  2.9630 -1.5187
   41CHL1   C21 3012   0.283   2.645   4.948 -0.9099 -0.0494  0.0860
   41CHL1  H21A 3013   0.279   2.554   4.884  0.3391 -0.3769  0.4499
   41CHL1  H21B 3014   0.208   2.725   4.932  0.4632  1.7685  2.1217
   41CHL1  H21C 3015   0.283   2.612   5.054 -0.6561  0.1246  0.1400
   41CHL1   C22 3016   0.443   2.835   5.023 -0.9946  0.1400 -0.4297
   41CHL1  H22A 3017   0.546   2.877   5.017 -1.0170  0.1568 -0.7343
   41CHL1  H22B 3018   0.378   2.923   5.003  1.5460  2.2811  0.2184
   41CHL1   C23 3019   0.441   2.783   5.165  0.3381  0.6797  0.1207
   41CHL1  H23A 3020   0.477   2.866   5.230 -1.6374  1.8037 -0.1437
   41CHL1  H23B 3021   0.337   2.770   5.200  0.8637  2.4606  2.6390
   41CHL1   C24 3022   0.530   2.661   5.190 -0.4810  0.1805 -0.2507
   41CHL1  H24A 3023   0.472   2.572   5.157 -0.6851  1.0878 -2.5329
   41CHL1  H24B 3024   0.619   2.672   5.125 -0.5411  1.2181 -0.1699
   41CHL1   C25 3025   0.577   2.653   5.341 -0.1845 -0.5787 -0.2023
   41CHL1   H25 3026   0.643   2.741   5.348  0.5648 -1.2648  3.4304
   41CHL1   C26 3027   0.475   2.666   5.454 -0.3855 -0.2130  0.1732
   41CHL1  H26A 3028   0.393   2.594   5.434 -1.7955  0.8356  1.8932
   41CHL1  H26B 3029   0.525   2.651   5.552 -1.4027  0.9250  0.8998
   41CHL1  H26C 3030   0.419   2.761   5.466 -3.0393 -1.8159  1.4191
   41CHL1   C27 3031   0.672   2.535   5.378  0.0540  0.3552 -0.2295
   41CHL1  H27A 3032   0.773   2.542   5.332  0.5839  1.4235  1.0459
   41CHL1  H27B 3033   0.698   2.522   5.485 -1.9233  0.3580  0.2902
   41CHL1  H27C 3034   0.622   2.444   5.338  0.5022 -0.1023  0.2384
   42CHL1    C3 3035   1.777   0.032   3.423 -0.6045 -0.3366  0.5112
   42CHL1    H3 3036   1.875   0.084   3.426 -0.1962 -0.6957 -2.9402
   42CHL1    O3 3037   1.726   0.030   3.290  0.0433 -0.1132 -0.0080
   42CHL1   H3' 3038   1.663  -0.042   3.289 -1.1835  0.9178 -0.4707
   42CHL1    C4 3039   1.794  -0.114   3.472  0.8646  0.2643 -0.7747
   42CHL1   H4A 3040   1.699  -0.168   3.452 -0.6180  1.4021  2.4439
   42CHL1   H4B 3041   1.868  -0.162   3.404 -0.9474 -1.0268 -1.9022
   42CHL1    C5 3042   1.841  -0.109   3.616  0.6993  0.4086 -0.6135
   42CHL1    C6 3043   1.955  -0.169   3.660  0.1591 -0.1333  0.2363
   42CHL1    H6 3044   2.027  -0.222   3.596 -0.7009  0.7484 -1.5622
   42CHL1    C7 3045   1.995  -0.172   3.799 -0.1249 -0.0147 -0.2572
   42CHL1   H7A 3046   2.023  -0.278   3.816  1.5187  0.6748  1.6274
   42CHL1   H7B 3047   2.088  -0.113   3.813  0.2542 -0.7246  0.3010
   42CHL1    C8 3048   1.886  -0.129   3.901  0.4789  0.1014 -0.3155
   42CHL1    H8 3049   1.810  -0.207   3.920 -0.9395  2.1144  3.4779
   42CHL1   C14 3050   1.948  -0.097   4.036 -0.6665 -0.3439 -0.5835
   42CHL1   H14 3051   2.016  -0.012   4.016 -0.1738 -0.1624  1.5801
   42CHL1   C15 3052   2.035  -0.198   4.111  0.0742  0.0488  0.4500
   42CHL1  H15A 3053   1.992  -0.298   4.088 -0.0791  0.4752 -1.2651
   42CHL1  H15B 3054   2.142  -0.190   4.080  0.1010 -1.6655 -0.0305
   42CHL1   C16 3055   2.026  -0.156   4.260 -0.3465 -0.2995  0.7041
   42CHL1  H16A 3056   1.982  -0.236   4.322  1.4324 -0.8392  1.3230
   42CHL1  H16B 3057   2.129  -0.144   4.299  0.0136 -2.8303  0.6533
   42CHL1   C17 3058   1.941  -0.025   4.267 -0.5480  0.3282  0.1997
   42CHL1   H17 3059   2.011   0.060   4.250 -1.6858  0.8055 -2.6385
   42CHL1   C13 3060   1.850  -0.043   4.145 -0.5948 -0.0455 -1.0132
   42CHL1   C18 3061   1.735  -0.148   4.183  0.7367 -0.0897 -0.1084
   42CHL1  H18A 3062   1.773  -0.237   4.238  0.0001 -1.4109 -1.6324
   42CHL1  H18B 3063   1.649  -0.112   4.243 -0.9662  0.1834 -2.5651
   42CHL1  H18C 3064   1.670  -0.180   4.099  0.4414 -0.3791  0.2287
   42CHL1   C12 3065   1.793   0.092   4.089 -0.3787  0.3652  0.1782
   42CHL1  H12A 3066   1.719   0.141   4.156  0.1146 -0.3144  1.2486
   42CHL1  H12B 3067   1.888   0.149   4.083  0.8340 -1.2848  2.0597
   42CHL1   C11 3068   1.726   0.069   3.953 -0.1239 -0.5011  0.2139
   42CHL1  H11A 3069   1.632   0.017   3.982  0.0639 -0.7621  0.3605
   42CHL1  H11B 3070   1.697   0.171   3.918  1.1916 -0.3782 -0.5771
   42CHL1    C9 3071   1.814   0.000   3.847  0.4192 -0.5680 -0.5572
   42CHL1    H9 3072   1.899   0.069   3.832 -0.1490  0.4067  0.5304
   42CHL1   C10 3073   1.752  -0.022   3.708  0.6707 -0.0219  0.4181
   42CHL1   C19 3074   1.616  -0.091   3.726  0.1767  0.7176  0.3097
   42CHL1  H19A 3075   1.556  -0.120   3.636 -0.8987 -0.6846  1.4250
   42CHL1  H19B 3076   1.631  -0.190   3.774 -0.6411  1.0542  1.2898
   42CHL1  H19C 3077   1.546  -0.037   3.793  1.6876  0.5837  2.0794
   42CHL1    C1 3078   1.737   0.120   3.647  0.1528  0.2529  0.1001
   42CHL1   H1A 3079   1.658   0.178   3.700 -0.2138 -0.1587  0.0073
   42CHL1   H1B 3080   1.838   0.165   3.658  0.1696  0.2657 -0.0967
   42CHL1    C2 3081   1.680   0.113   3.505 -0.1205 -0.6212  0.0249
   42CHL1   H2A 3082   1.672   0.216   3.464  1.3300 -1.1880 -1.8267
   42CHL1   H2B 3083   1.587   0.053   3.493 -0.3100 -0.2776 -0.2586
   42CHL1   C20 3084   1.877   0.013   4.401 -0.1504  0.3093 -0.5769
   42CHL1   H20 3085   1.780  -0.039   4.414  0.9201 -2.0629 -1.5085
   42CHL1   C21 3086   1.854   0.166   4.413 -0.2462  0.3627 -0.0554
   42CHL1  H21A 3087   1.782   0.203   4.336 -0.1588 -1.2241 -0.9423
   42CHL1  H21B 3088   1.953   0.216   4.407 -0.1022  0.3791  1.9491
   42CHL1  H21C 3089   1.805   0.182   4.511  3.8685 -0.6323  2.4123
   42CHL1   C22 3090   1.964  -0.034   4.516  0.3108 -0.2975 -0.2413
   42CHL1  H22A 3091   1.987  -0.143   4.512 -1.4878 -0.6767 -3.6093
   42CHL1  H22B 3092   2.061   0.019   4.502 -0.4452  0.2436 -4.8147
   42CHL1   C23 3093   1.902  -0.008   4.652 -0.6733  0.8097  0.1642
   42CHL1  H23A 3094   1.912   0.100   4.676  1.6655  1.6183 -3.5272
   42CHL1  H23B 3095   1.792  -0.019   4.653 -0.7406  1.4484  0.2624
   42CHL1   C24 3096   1.977  -0.100   4.749 -0.3093  0.1914 -0.1463
   42CHL1  H24A 3097   1.978  -0.200   4.700  0.0674  0.1228 -0.0045
   42CHL1  H24B 3098   2.079  -0.060   4.766 -0.0685  0.7897 -2.6633
   42CHL1   C25 3099   1.905  -0.105   4.885  0.1851  0.0589 -0.2828
   42CHL1   H25 3100   1.796  -0.120   4.871  0.1345 -0.7988  0.8698
   42CHL1   C26 3101   1.954  -0.212   4.980 -0.8043 -0.3087 -0.1399
   42CHL1  H26A 3102   1.964  -0.311   4.931 -0.6707 -0.4860  0.2416
   42CHL1  H26B 3103   2.062  -0.191   5.001 -0.5123 -0.2185 -1.6341
   42CHL1  H26C 3104   1.910  -0.223   5.082  1.7912 -0.7108  1.0360
   42CHL1   C27 3105   1.924   0.037   4.948 -0.3123 -0.3269  0.0866
   42CHL1  H27A 3106   2.026   0.076   4.927 -1.4388  2.7988 -0.0378
   42CHL1  H27B 3107   1.861   0.113   4.897  1.7434  2.5857  1.6081
   42CHL1  H27C 3108   1.913   0.047   5.058  1.7542 -1.0405  0.4049
   43CHL1    C3 3109   4.673   1.546   3.725  0.0606 -0.3855 -0.1396
   43CHL1    H3 3110   4.731   1.634   3.760 -2.1027  1.0060  0.1609
   43CHL1    O3 3111   4.675   1.541   3.583 -0.4606  0.4165  0.0193
   43CHL1   H3' 3112   4.608   1.478   3.558  0.1518  0.0907 -0.8822
   43CHL1    C4 3113   4.750   1.427   3.779 -0.1091  0.4612  0.2224
   43CHL1   H4A 3114   4.707   1.335   3.733 -2.0447  1.8992 -1.0511
   43CHL1   H4B 3115   4.849   1.443   3.732 -0.5542 -2.6446 -2.1191
   43CHL1    C5 3116   4.751   1.423   3.931 -0.4218 -0.0503 -0.3756
   43CHL1    C6 3117   4.865   1.436   4.001 -0.2166 -0.3298 -0.2977
   43CHL1    H6 3118   4.963   1.443   3.952 -0.1251  0.3271 -0.0354
   43CHL1    C7 3119   4.866   1.435   4.148 -0.5465 -0.4604  0.5873
   43CHL1   H7A 3120   4.945   1.366   4.186  0.1931  0.1214  0.1134
   43CHL1   H7B 3121   4.891   1.537   4.184  3.1402 -1.1510  0.4313
   43CHL1    C8 3122   4.738   1.390   4.211 -0.2122  0.1788  0.1740
   43CHL1    H8 3123   4.732   1.280   4.196  2.0208 -0.2878  2.0867
   43CHL1   C14 3124   4.739   1.425   4.353 -0.3468 -0.2570 -0.7189
   43CHL1   H14 3125   4.731   1.536   4.349 -2.9351  0.0141  4.0681
   43CHL1   C15 3126   4.858   1.393   4.444 -0.0848 -0.8506  0.5933
   43CHL1  H15A 3127   4.882   1.285   4.433  2.2523 -0.1649 -2.1700
   43CHL1  H15B 3128   4.954   1.443   4.416 -1.1320  0.4613 -0.8030
   43CHL1   C16 3129   4.815   1.419   4.589  0.4427  0.2204  0.4205
   43CHL1  H16A 3130   4.821   1.326   4.649 -0.3185 -0.6907 -0.8982
   43CHL1  H16B 3131   4.859   1.510   4.636 -0.8907  0.3277  1.5346
   43CHL1   C17 3132   4.660   1.438   4.576  0.0335 -0.3920  0.7497
   43CHL1   H17 3133   4.652   1.549   4.568  0.0295 -0.3821  0.8928
   43CHL1   C13 3134   4.611   1.393   4.438  0.1786 -0.0889 -0.6595
   43CHL1   C18 3135   4.595   1.234   4.448  0.1357  0.3347 -0.2981
   43CHL1  H18A 3136   4.674   1.189   4.512 -0.4619 -2.2688 -1.2866
   43CHL1  H18B 3137   4.497   1.204   4.488 -1.4406  3.4270 -1.4705
   43CHL1  H18C 3138   4.606   1.190   4.346 -1.4720 -0.5595 -0.1138
   43CHL1   C12 3139   4.486   1.455   4.375 -0.1950 -0.0518 -0.2761
   43CHL1  H12A 3140   4.390   1.427   4.424  0.7614 -1.0047  1.1032
   43CHL1  H12B 3141   4.511   1.562   4.393  0.3412 -0.3296  0.6797
   43CHL1   C11 3142   4.479   1.418   4.224 -0.0458  0.1161 -0.5929
   43CHL1  H11A 3143   4.462   1.310   4.205 -0.0389  0.0559 -0.2527
   43CHL1  H11B 3144   4.395   1.480   4.183  0.0284 -0.1005 -1.0793
   43CHL1    C9 3145   4.611   1.450   4.148 -0.4456 -0.2923  0.4722
   43CHL1    H9 3146   4.625   1.559   4.161 -1.5807 -0.1323  0.5161
   43CHL1   C10 3147   4.612   1.430   3.997  0.2693  0.2881 -0.1266
   43CHL1   C19 3148   4.533   1.298   3.964 -0.2786 -0.5952 -0.9688
   43CHL1  H19A 3149   4.540   1.277   3.856  3.2620  0.4000 -1.0380
   43CHL1  H19B 3150   4.572   1.220   4.033 -2.4186 -1.0443 -0.1677
   43CHL1  H19C 3151   4.426   1.313   3.992 -0.3524 -0.0086 -1.5591
   43CHL1    C1 3152   4.536   1.548   3.941 -0.2860  0.6890  0.0038
   43CHL1   H1A 3153   4.431   1.554   3.975  0.0492 -2.1403  1.7802
   43CHL1   H1B 3154   4.588   1.643   3.968 -0.8177  0.4265  2.0557
   43CHL1    C2 3155   4.536   1.555   3.788 -0.2354  0.3420 -0.4450
   43CHL1   H2A 3156   4.474   1.643   3.760 -0.8993 -0.1768 -0.6314
   43CHL1   H2B 3157   4.472   1.471   3.754 -1.5770  1.0798  0.1803
   43CHL1   C20 3158   4.575   1.407   4.699  0.4005 -0.3035 -0.2369
   43CHL1   H20 3159   4.564   1.298   4.715 -1.1333 -0.1276 -0.0216
   43CHL1   C21 3160   4.430   1.461   4.682  0.5661  0.8352 -0.0216
   43CHL1  H21A 3161   4.425   1.561   4.634 -1.4601  1.2368  0.9124
   43CHL1  H21B 3162   4.372   1.462   4.777  0.3397  1.4915 -0.1657
   43CHL1  H21C 3163   4.380   1.386   4.617 -2.8478  1.9626  1.1057
   43CHL1   C22 3164   4.654   1.461   4.827  0.8110  0.0054  0.1387
   43CHL1  H22A 3165   4.762   1.432   4.821  1.3723  2.0634 -0.2112
   43CHL1  H22B 3166   4.645   1.571   4.832 -0.1071 -0.0991  1.0811
   43CHL1   C23 3167   4.609   1.400   4.961 -0.1088  0.1707 -0.2531
   43CHL1  H23A 3168   4.637   1.468   5.044 -1.6332  0.0943  0.3650
   43CHL1  H23B 3169   4.498   1.396   4.975 -0.0221  0.6818  0.6661
   43CHL1   C24 3170   4.672   1.261   4.989  0.2010  0.1833 -0.0994
   43CHL1  H24A 3171   4.655   1.196   4.900  0.4380 -0.8019  0.5579
   43CHL1  H24B 3172   4.783   1.263   4.997  0.3856  1.7360 -2.0173
   43CHL1   C25 3173   4.617   1.182   5.111 -1.0574 -0.3920  0.2612
   43CHL1   H25 3174   4.511   1.154   5.098 -1.4456  1.1658 -0.2734
   43CHL1   C26 3175   4.706   1.055   5.116  0.1339  0.1942 -0.3028
   43CHL1  H26A 3176   4.660   0.972   5.173  3.7563 -1.3864  0.6279
   43CHL1  H26B 3177   4.707   1.014   5.013  0.5432  0.2382 -0.3189
   43CHL1  H26C 3178   4.808   1.074   5.156  0.9000 -2.6019 -0.7268
   43CHL1   C27 3179   4.627   1.264   5.234  0.2327 -0.0415  0.0024
   43CHL1  H27A 3180   4.585   1.200   5.315 -1.4329 -3.5432 -3.2653
   43CHL1  H27B 3181   4.733   1.291   5.252  0.0839  0.7889 -0.3434
   43CHL1  H27C 3182   4.568   1.356   5.218 -0.3479 -0.6520 -1.5587
   44CHL1    C3 3183   0.789   0.573   3.452  0.0069 -0.5356  0.3603
   44CHL1    H3 3184   0.888   0.534   3.419  0.8642  2.9736 -1.7356
   44CHL1    O3 3185   0.734   0.636   3.336  0.3040 -0.4471 -0.5063
   44CHL1   H3' 3186   0.651   0.588   3.329  0.0176  0.0466 -0.5299
   44CHL1    C4 3187   0.707   0.454   3.507  0.0479  0.6698 -0.2624
   44CHL1   H4A 3188   0.606   0.497   3.526 -1.4242 -2.6898  0.1533
   44CHL1   H4B 3189   0.700   0.383   3.422  2.3822  1.2049 -0.9608
   44CHL1    C5 3190   0.751   0.400   3.644  0.5537  0.2868 -0.0996
   44CHL1    C6 3191   0.786   0.272   3.652 -0.0399 -0.0358  0.3615
   44CHL1    H6 3192   0.765   0.208   3.564 -1.5543  1.7085 -0.6401
   44CHL1    C7 3193   0.829   0.202   3.778 -0.2991  0.0055  0.2050
   44CHL1   H7A 3194   0.782   0.102   3.787 -0.0329  0.0072  1.8889
   44CHL1   H7B 3195   0.939   0.189   3.782 -0.1513  1.4186  1.7450
   44CHL1    C8 3196   0.803   0.292   3.900 -0.7918  0.4434 -0.0621
   44CHL1    H8 3197   0.696   0.287   3.932 -0.8930 -1.0517 -0.5422
   44CHL1   C14 3198   0.885   0.238   4.016 -0.7045 -0.0746 -0.1130
   44CHL1   H14 3199   0.993   0.248   3.995 -0.9140  0.5324 -0.9341
   44CHL1   C15 3200   0.861   0.088   4.055 -0.0973  0.5742  0.7013
   44CHL1  H15A 3201   0.756   0.060   4.031 -0.0373  2.0082 -1.5320
   44CHL1  H15B 3202   0.922   0.011   4.003  2.7806  0.4089  3.9580
   44CHL1   C16 3203   0.896   0.082   4.203 -0.6753 -0.5642 -0.5581
   44CHL1  H16A 3204   0.802   0.055   4.257 -1.2821  1.8862 -0.2893
   44CHL1  H16B 3205   0.975   0.005   4.213  0.4780  0.5731 -0.7422
   44CHL1   C17 3206   0.936   0.227   4.245  0.0678  0.2903  0.0176
   44CHL1   H17 3207   1.044   0.226   4.219  0.4224 -3.1126  1.0860
   44CHL1   C13 3208   0.862   0.320   4.151  0.4614  0.1390  0.1657
   44CHL1   C18 3209   0.710   0.327   4.191 -0.0063 -0.3146  0.5694
   44CHL1  H18A 3210   0.657   0.231   4.207  0.6136 -1.2206 -2.2115
   44CHL1  H18B 3211   0.710   0.389   4.283  0.3861  2.1307 -0.9955
   44CHL1  H18C 3212   0.649   0.383   4.117  0.1188 -2.4257 -1.2398
   44CHL1   C12 3213   0.915   0.465   4.121 -0.6277 -0.5342  0.4701
   44CHL1  H12A 3214   0.893   0.530   4.208  0.2704  0.3025  0.0944
   44CHL1  H12B 3215   1.025   0.448   4.112 -0.8027 -0.9049 -1.3341
   44CHL1   C11 3216   0.845   0.524   4.000  1.0621  0.2875  0.8048
   44CHL1  H11A 3217   0.738   0.547   4.022  0.2589 -0.3499 -2.0634
   44CHL1  H11B 3218   0.880   0.626   3.973  0.4503  0.0584 -0.9695
   44CHL1    C9 3219   0.842   0.438   3.870 -0.3729  0.0522  0.2185
   44CHL1    H9 3220   0.948   0.443   3.840  0.5237  1.1375  3.2072
   44CHL1   C10 3221   0.764   0.504   3.756 -0.3438 -0.4380  0.4944
   44CHL1   C19 3222   0.624   0.550   3.793  0.4154 -0.4333  0.3439
   44CHL1  H19A 3223   0.567   0.472   3.848 -0.4415  0.1289  0.2814
   44CHL1  H19B 3224   0.640   0.634   3.864  1.7303 -0.3426 -0.0280
   44CHL1  H19C 3225   0.569   0.590   3.705 -2.4293 -1.9317  1.3021
   44CHL1    C1 3226   0.851   0.620   3.696 -0.0832  0.5094 -0.4361
   44CHL1   H1A 3227   0.866   0.701   3.771  1.8236 -1.9065  2.0017
   44CHL1   H1B 3228   0.954   0.581   3.682 -0.1364 -1.4994  3.3794
   44CHL1    C2 3229   0.813   0.679   3.562 -0.3518 -0.7546  0.1979
   44CHL1   H2A 3230   0.877   0.764   3.530 -0.0741 -0.9655  0.1954
   44CHL1   H2B 3231   0.714   0.729   3.573 -2.6836 -4.4489 -2.0238
   44CHL1   C20 3232   0.929   0.263   4.395  0.1013  0.1197  0.4704
   44CHL1   H20 3233   0.823   0.265   4.426 -0.2558  0.0963 -0.7036
   44CHL1   C21 3234   1.002   0.397   4.426  0.6378  0.9048  0.2462
   44CHL1  H21A 3235   1.023   0.413   4.534  1.5458  2.6423 -0.1506
   44CHL1  H21B 3236   0.949   0.489   4.391 -0.9302  0.0033  0.1668
   44CHL1  H21C 3237   1.102   0.387   4.378  0.8780  0.6348  0.7903
   44CHL1   C22 3238   0.998   0.149   4.472  0.0691  0.3433 -0.1592
   44CHL1  H22A 3239   0.972   0.046   4.442 -0.6635 -0.6704  3.4621
   44CHL1  H22B 3240   1.109   0.153   4.469  0.2651 -2.8934 -0.5842
   44CHL1   C23 3241   0.950   0.151   4.615 -0.2537  0.1601 -0.0841
   44CHL1  H23A 3242   0.945   0.254   4.658 -2.2027 -0.3629  1.0795
   44CHL1  H23B 3243   0.843   0.124   4.602 -0.2835  0.8556 -1.4338
   44CHL1   C24 3244   1.019   0.048   4.716 -0.4373  0.2346  0.0464
   44CHL1  H24A 3245   1.002  -0.047   4.661 -3.3736  1.0441 -0.6554
   44CHL1  H24B 3246   1.129   0.059   4.721  0.1461 -4.1680  0.6568
   44CHL1   C25 3247   0.963   0.037   4.858 -0.3114 -0.5924  0.3679
   44CHL1   H25 3248   0.854   0.017   4.846 -0.7639  1.4541  0.6618
   44CHL1   C26 3249   1.031  -0.076   4.937  0.4779  0.3151 -0.5710
   44CHL1  H26A 3250   1.027  -0.171   4.878 -0.5482 -0.0043 -0.0057
   44CHL1  H26B 3251   1.136  -0.053   4.964  0.3056  0.6239 -0.1637
   44CHL1  H26C 3252   0.971  -0.092   5.029  0.8546  1.7609 -0.0587
   44CHL1   C27 3253   0.986   0.166   4.942 -0.3792 -0.3024  1.2165
   44CHL1  H27A 3254   0.917   0.247   4.909 -1.7528 -1.5085  1.0112
   44CHL1  H27B 3255   0.960   0.140   5.047 -1.6076 -1.4480  0.6608
   44CHL1  H27C 3256   1.090   0.204   4.938  0.4736 -2.4714  1.3176
   45CHL1    C3 3257   2.167   0.733   3.377  0.5304 -0.4388  0.4002
   45CHL1    H3 3258   2.221   0.637   3.362  0.7549 -0.0811 -1.2556
   45CHL1    O3 3259   2.147   0.800   3.252 -0.0598  0.7582  0.4028
   45CHL1   H3' 3260   2.237   0.822   3.228  0.6589 -1.2010  1.0484
   45CHL1    C4 3261   2.034   0.691   3.437 -0.0298  0.3804 -0.3673
   45CHL1   H4A 3262   1.966   0.776   3.419 -0.8251 -0.5402 -1.9527
   45CHL1   H4B 3263   1.998   0.611   3.368 -1.1172  0.2146  0.3736
   45CHL1    C5 3264   2.036   0.650   3.590  0.0250 -0.3622  0.2711
   45CHL1    C6 3265   1.980   0.531   3.630  0.6282 -0.3801 -0.5089
   45CHL1    H6 3266   1.917   0.468   3.566 -1.3138  0.4946  0.4482
   45CHL1    C7 3267   1.979   0.488   3.778 -0.4733 -0.1340 -0.1940
   45CHL1   H7A 3268   1.873   0.462   3.802  0.1880 -2.3746  0.5920
   45CHL1   H7B 3269   2.047   0.400   3.779  0.5601  0.5963 -1.9459
   45CHL1    C8 3270   2.038   0.592   3.867 -1.0898  0.1152  0.5447
   45CHL1    H8 3271   1.951   0.658   3.889 -1.0897  0.0683  0.6888
   45CHL1   C14 3272   2.078   0.527   3.997  0.3918 -0.6239 -0.3702
   45CHL1   H14 3273   2.144   0.443   3.963  0.8035 -0.5862  0.3192
   45CHL1   C15 3274   1.973   0.452   4.088  0.2429 -0.7933 -0.3184
   45CHL1  H15A 3275   1.890   0.523   4.110  0.2278 -1.0454  0.4534
   45CHL1  H15B 3276   1.944   0.359   4.035  2.8898 -0.7533 -2.0238
   45CHL1   C16 3277   2.051   0.425   4.217  0.1032 -0.1568 -0.1067
   45CHL1  H16A 3278   1.971   0.445   4.291 -0.4836 -0.1747 -0.7259
   45CHL1  H16B 3279   2.069   0.316   4.232  0.1620 -0.1376 -0.0372
   45CHL1   C17 3280   2.183   0.508   4.215  0.0725 -1.4196  0.0715
   45CHL1   H17 3281   2.255   0.442   4.161 -0.7890 -1.7651 -0.6839
   45CHL1   C13 3282   2.156   0.611   4.100 -0.0953  0.5913  0.0358
   45CHL1   C18 3283   2.060   0.723   4.148 -0.0377 -0.1695  0.1024
   45CHL1  H18A 3284   2.117   0.798   4.206  0.5248 -0.6653  0.1940
   45CHL1  H18B 3285   2.017   0.784   4.066  1.6645  0.9280 -0.0227
   45CHL1  H18C 3286   1.980   0.681   4.213  0.0845  1.6078  1.4440
   45CHL1   C12 3287   2.283   0.668   4.035 -0.4228  0.1294 -0.5691
   45CHL1  H12A 3288   2.317   0.741   4.112 -0.1519 -1.8595  1.3007
   45CHL1  H12B 3289   2.367   0.598   4.017 -0.8963 -0.9297  1.0910
   45CHL1   C11 3290   2.241   0.746   3.909 -0.3970  0.5258  0.0740
   45CHL1  H11A 3291   2.191   0.841   3.938 -0.7434  0.3285  0.1286
   45CHL1  H11B 3292   2.337   0.771   3.859  0.9297 -2.5681  0.8245
   45CHL1    C9 3293   2.161   0.664   3.809 -0.3729 -0.3038  0.3391
   45CHL1    H9 3294   2.229   0.585   3.770 -1.3433 -1.2829  0.6002
   45CHL1   C10 3295   2.123   0.735   3.675  0.0717 -0.5684 -0.0027
   45CHL1   C19 3296   2.046   0.870   3.708  0.4586 -0.0705  0.2914
   45CHL1  H19A 3297   2.117   0.943   3.754  0.2661  0.8784 -0.8631
   45CHL1  H19B 3298   1.996   0.918   3.621  1.1275  0.5057  0.2121
   45CHL1  H19C 3299   1.965   0.846   3.780  0.1495 -1.4394 -0.4787
   45CHL1    C1 3300   2.258   0.775   3.597  0.6628  0.2747 -0.0781
   45CHL1   H1A 3301   2.315   0.839   3.668  3.1557  0.5359 -2.1537
   45CHL1   H1B 3302   2.306   0.677   3.577 -1.6122 -0.6079 -1.6709
   45CHL1    C2 3303   2.243   0.831   3.462  0.1683 -0.0749  0.3312
   45CHL1   H2A 3304   2.343   0.854   3.418 -0.7584  1.6315 -1.0575
   45CHL1   H2B 3305   2.174   0.918   3.465 -1.0402 -1.0144  0.3357
   45CHL1   C20 3306   2.238   0.564   4.347  0.5189 -0.9959 -0.0779
   45CHL1   H20 3307   2.274   0.665   4.319 -1.3098 -0.4639 -0.6523
   45CHL1   C21 3308   2.351   0.471   4.384 -0.2601  0.6901  0.7584
   45CHL1  H21A 3309   2.410   0.501   4.473 -2.1118 -0.3907  2.4159
   45CHL1  H21B 3310   2.422   0.465   4.298 -1.1028 -0.3915  0.1107
   45CHL1  H21C 3311   2.312   0.367   4.389  0.1476  0.3848 -1.4667
   45CHL1   C22 3312   2.135   0.576   4.462  0.4107  0.4547  0.7990
   45CHL1  H22A 3313   2.070   0.662   4.435  0.9904  0.4446 -0.7306
   45CHL1  H22B 3314   2.083   0.478   4.468 -2.5190  1.7783 -0.6920
   45CHL1   C23 3315   2.202   0.622   4.589  0.4572  0.0945 -0.4037
   45CHL1  H23A 3316   2.289   0.567   4.631  0.3590  1.1314  1.2421
   45CHL1  H23B 3317   2.229   0.729   4.581 -3.1758  1.2150  0.3228
   45CHL1   C24 3318   2.101   0.611   4.707  0.2618  0.9294 -0.5634
   45CHL1  H24A 3319   2.010   0.653   4.660 -0.2900  1.3543  0.8416
   45CHL1  H24B 3320   2.084   0.504   4.732 -0.6433  1.2306  0.1609
   45CHL1   C25 3321   2.143   0.683   4.841 -0.0641 -0.7149  0.0098
   45CHL1   H25 3322   2.242   0.730   4.824 -0.0604 -0.0642  1.6440
   45CHL1   C26 3323   2.043   0.793   4.889 -0.1316  0.2396  0.3694
   45CHL1  H26A 3324   1.944   0.743   4.901  0.1610 -1.0740 -2.0571
   45CHL1  H26B 3325   2.076   0.841   4.983 -0.3504  1.1788 -0.0256
   45CHL1  H26C 3326   2.043   0.867   4.806 -0.8955  0.2852  0.3999
   45CHL1   C27 3327   2.157   0.584   4.960 -0.1961 -0.6806 -0.0992
   45CHL1  H27A 3328   2.250   0.525   4.940 -0.5302 -1.2391 -0.0299
   45CHL1  H27B 3329   2.180   0.627   5.060 -0.2652 -0.6614 -0.0921
   45CHL1  H27C 3330   2.082   0.503   4.970 -0.2581 -0.4397  1.8467
   46CHL1    C3 3331   5.149   3.801   3.667 -0.5953 -0.8012 -0.2206
   46CHL1    H3 3332   5.084   3.712   3.650 -0.7272 -0.8085  0.2983
   46CHL1    O3 3333   5.191   3.865   3.549 -0.0904  0.1740  0.2070
   46CHL1   H3' 3334   5.271   3.914   3.573 -0.9084  0.5442  2.3852
   46CHL1    C4 3335   5.077   3.902   3.757 -0.9028 -0.4161 -0.1460
   46CHL1   H4A 3336   5.137   3.993   3.779 -1.2167  0.1047 -1.3419
   46CHL1   H4B 3337   4.991   3.946   3.702 -1.5627 -1.6755 -0.1489
   46CHL1    C5 3338   5.032   3.841   3.892 -0.5848 -0.7379 -0.5729
   46CHL1    C6 3339   4.901   3.847   3.918  0.0035  0.3182 -0.0286
   46CHL1    H6 3340   4.838   3.902   3.847 -1.8175 -0.1523  1.1643
   46CHL1    C7 3341   4.842   3.772   4.037  0.6558  0.1063  0.5002
   46CHL1   H7A 3342   4.755   3.832   4.072 -0.3801 -0.8394 -0.3812
   46CHL1   H7B 3343   4.798   3.678   3.997 -1.6712  1.2302  0.2860
   46CHL1    C8 3344   4.952   3.749   4.151  0.3433  0.1792 -0.4679
   46CHL1    H8 3345   4.977   3.850   4.191  0.0231 -0.2215  0.8206
   46CHL1   C14 3346   4.899   3.660   4.257 -0.1007 -0.1897 -0.9937
   46CHL1   H14 3347   4.865   3.567   4.205 -0.3942 -0.7995  0.2490
   46CHL1   C15 3348   4.777   3.712   4.328 -0.1686  1.1188 -0.0327
   46CHL1  H15A 3349   4.810   3.813   4.362  1.0073  0.7676 -0.0699
   46CHL1  H15B 3350   4.691   3.718   4.259  0.1110  0.3372 -0.4557
   46CHL1   C16 3351   4.764   3.623   4.453  0.1379  0.2913 -0.1226
   46CHL1  H16A 3352   4.753   3.699   4.533  1.9070  1.0492 -0.5574
   46CHL1  H16B 3353   4.674   3.558   4.454 -1.4031  2.3167  0.4423
   46CHL1   C17 3354   4.905   3.556   4.469  0.1835 -0.0400 -0.4715
   46CHL1   H17 3355   4.887   3.451   4.438  1.0178  0.6822 -3.7692
   46CHL1   C13 3356   4.998   3.630   4.372 -0.2168 -0.1419 -0.6457
   46CHL1   C18 3357   5.053   3.767   4.432  0.8119  0.2139 -0.0612
   46CHL1  H18A 3358   4.973   3.829   4.478  0.2665 -1.0437  0.7437
   46CHL1  H18B 3359   5.133   3.745   4.506  1.3080  1.6216 -0.1447
   46CHL1  H18C 3360   5.097   3.835   4.356 -1.9823  1.4327 -0.6939
   46CHL1   C12 3361   5.117   3.547   4.309  0.4952  0.8698  0.0109
   46CHL1  H12A 3362   5.199   3.524   4.379 -2.5097  0.5540  3.7501
   46CHL1  H12B 3363   5.084   3.448   4.270  1.2805  0.9476 -0.9056
   46CHL1   C11 3364   5.175   3.629   4.191  0.3033  0.4435 -0.4829
   46CHL1  H11A 3365   5.231   3.711   4.242 -0.6196  1.6410 -1.3208
   46CHL1  H11B 3366   5.241   3.563   4.131 -1.9193 -1.8213 -0.5895
   46CHL1    C9 3367   5.076   3.689   4.089  0.6301 -0.0129 -0.1076
   46CHL1    H9 3368   5.028   3.597   4.048  2.2295 -0.2631 -1.5222
   46CHL1   C10 3369   5.136   3.767   3.975  0.1810  0.9780  0.1803
   46CHL1   C19 3370   5.246   3.867   4.037  0.5804  0.0398 -0.4113
   46CHL1  H19A 3371   5.337   3.813   4.069  0.6584  0.2336 -0.3088
   46CHL1  H19B 3372   5.275   3.927   3.948  0.2882  0.0747 -0.4853
   46CHL1  H19C 3373   5.213   3.930   4.122  1.6013  0.5248 -0.3620
   46CHL1    C1 3374   5.220   3.677   3.873 -0.5579  0.1782 -0.0535
   46CHL1   H1A 3375   5.310   3.630   3.919 -0.8392  1.4278  1.9113
   46CHL1   H1B 3376   5.154   3.589   3.862 -0.8093  0.2385  0.8502
   46CHL1    C2 3377   5.266   3.751   3.742 -0.3234 -0.3317 -0.4475
   46CHL1   H2A 3378   5.337   3.699   3.673 -0.2649  2.1635 -2.4073
   46CHL1   H2B 3379   5.329   3.833   3.782  1.7467 -2.3621  0.7489
   46CHL1   C20 3380   4.942   3.559   4.614 -0.4303  0.7485  0.1986
   46CHL1   H20 3381   4.944   3.664   4.650  1.3020  0.6243  0.5284
   46CHL1   C21 3382   5.077   3.483   4.627  0.1585 -0.6134 -0.1482
   46CHL1  H21A 3383   5.168   3.519   4.575 -1.2025  0.3640 -2.0089
   46CHL1  H21B 3384   5.068   3.374   4.608  0.1580 -0.3881 -1.5240
   46CHL1  H21C 3385   5.102   3.493   4.734  0.4621  3.3102 -0.4596
   46CHL1   C22 3386   4.842   3.494   4.713  0.9751  0.2325  0.0335
   46CHL1  H22A 3387   4.881   3.487   4.817  1.1978 -1.2249 -0.1308
   46CHL1  H22B 3388   4.757   3.564   4.722  0.7035 -0.1586  0.5280
   46CHL1   C23 3389   4.789   3.358   4.675  0.8284  0.4732 -0.2130
   46CHL1  H23A 3390   4.718   3.365   4.589 -1.7592  0.1686  1.7794
   46CHL1  H23B 3391   4.874   3.301   4.631  1.2284  0.6427  0.3316
   46CHL1   C24 3392   4.717   3.265   4.774 -1.0341 -0.2384  0.2677
   46CHL1  H24A 3393   4.689   3.174   4.718  0.0823 -1.4227  1.5569
   46CHL1  H24B 3394   4.788   3.223   4.849 -1.1964 -1.4791 -0.2547
   46CHL1   C25 3395   4.607   3.331   4.857  0.2421 -0.0444  0.5517
   46CHL1   H25 3396   4.654   3.426   4.891  1.8869 -0.0802 -1.4429
   46CHL1   C26 3397   4.488   3.356   4.768  0.5693  0.4269 -0.2925
   46CHL1  H26A 3398   4.394   3.388   4.819  0.1822 -2.5249  1.0979
   46CHL1  H26B 3399   4.511   3.414   4.677  0.9690  1.7911  0.6576
   46CHL1  H26C 3400   4.449   3.254   4.746 -0.6737  0.5300  1.2239
   46CHL1   C27 3401   4.570   3.248   4.977 -0.6087  0.2652 -0.9760
   46CHL1  H27A 3402   4.503   3.316   5.035 -0.1839  0.6496 -0.9224
   46CHL1  H27B 3403   4.514   3.163   4.934 -0.4753  0.0277 -0.6826
   46CHL1  H27C 3404   4.666   3.217   5.024  0.3725  0.5306 -2.6938
   47CHL1    C3 3405   3.276   0.775   3.895 -0.1869  0.5536  0.5631
   47CHL1    H3 3406   3.373   0.722   3.899 -0.8592 -0.6491  1.4138
   47CHL1    O3 3407   3.261   0.823   3.762  0.3802 -0.6851 -0.1161
   47CHL1   H3' 3408   3.175   0.792   3.732 -0.4951  1.1300  0.4005
   47CHL1    C4 3409   3.155   0.688   3.927 -1.0386 -0.2146  0.0260
   47CHL1   H4A 3410   3.060   0.745   3.925 -0.5007  0.7203  0.2857
   47CHL1   H4B 3411   3.146   0.608   3.851 -1.7681 -1.8867  1.7980
   47CHL1    C5 3412   3.182   0.619   4.057  0.1924 -0.5985  0.7632
   47CHL1    C6 3413   3.197   0.492   4.066 -0.8494  0.7051 -0.1908
   47CHL1    H6 3414   3.192   0.441   3.968 -2.6939 -1.8932  1.1411
   47CHL1    C7 3415   3.228   0.406   4.189 -0.3754 -1.0480 -0.4382
   47CHL1   H7A 3416   3.172   0.310   4.194 -0.6729 -0.8553  0.0545
   47CHL1   H7B 3417   3.333   0.371   4.202 -0.1907 -0.7559 -1.1121
   47CHL1    C8 3418   3.193   0.494   4.313  0.4658 -0.0190 -0.3809
   47CHL1    H8 3419   3.083   0.505   4.326  0.3896  0.2660 -1.2094
   47CHL1   C14 3420   3.255   0.430   4.445  0.5913 -0.3483  0.6696
   47CHL1   H14 3421   3.362   0.412   4.423  0.4361 -2.1687  1.1798
   47CHL1   C15 3422   3.212   0.287   4.490  0.1255  0.1616  0.1982
   47CHL1  H15A 3423   3.104   0.264   4.483  0.5835 -1.8801 -1.1860
   47CHL1  H15B 3424   3.275   0.205   4.449 -0.4870 -1.3241  2.1250
   47CHL1   C16 3425   3.249   0.281   4.643  0.2510  0.1532 -0.2673
   47CHL1  H16A 3426   3.159   0.269   4.708  0.4298  1.1730  0.1793
   47CHL1  H16B 3427   3.318   0.200   4.674 -0.0804 -0.1331 -0.2583
   47CHL1   C17 3428   3.311   0.421   4.671  0.1867 -0.0420 -0.0934
   47CHL1   H17 3429   3.414   0.407   4.632  0.2249  1.4806 -0.6086
   47CHL1   C13 3430   3.251   0.518   4.567  0.0066  0.3971  0.2283
   47CHL1   C18 3431   3.105   0.545   4.599 -0.0094 -0.5091  0.0414
   47CHL1  H18A 3432   3.053   0.451   4.625 -0.7033 -0.1981 -0.2009
   47CHL1  H18B 3433   3.106   0.618   4.684 -0.2206  0.8794 -1.1090
   47CHL1  H18C 3434   3.056   0.590   4.510  2.2507  2.0367 -0.0355
   47CHL1   C12 3435   3.324   0.654   4.541  0.4714  0.4067  0.0841
   47CHL1  H12A 3436   3.307   0.713   4.634 -0.7419 -0.5321  0.4903
   47CHL1  H12B 3437   3.433   0.635   4.531  0.3098 -0.3426 -0.2867
   47CHL1   C11 3438   3.267   0.723   4.415 -0.9628 -0.3715 -0.8107
   47CHL1  H11A 3439   3.168   0.766   4.438  0.1295  1.1892  1.3283
   47CHL1  H11B 3440   3.334   0.807   4.387 -0.7071 -0.2513  0.1227
   47CHL1    C9 3441   3.252   0.637   4.289 -0.5526  0.8737 -0.0326
   47CHL1    H9 3442   3.358   0.607   4.271 -0.1236  1.4711  1.4006
   47CHL1   C10 3443   3.197   0.716   4.172  0.5380  0.4165  0.0893
   47CHL1   C19 3444   3.056   0.771   4.211  0.2382 -0.5744  0.4120
   47CHL1  H19A 3445   3.007   0.823   4.126  2.1191  0.5225 -0.0653
   47CHL1  H19B 3446   2.979   0.698   4.244 -1.7831  1.2792  0.0570
   47CHL1  H19C 3447   3.060   0.847   4.292 -2.7081 -1.0722  1.1417
   47CHL1    C1 3448   3.278   0.843   4.134  0.5322  0.5118  0.6410
   47CHL1   H1A 3449   3.242   0.930   4.194 -2.2517 -0.2806  0.2642
   47CHL1   H1B 3450   3.383   0.821   4.162  0.6100  0.4648  0.3127
   47CHL1    C2 3451   3.274   0.891   3.991  0.5963 -0.4575  0.7579
   47CHL1   H2A 3452   3.357   0.963   3.972 -1.7307  2.7744  1.9300
   47CHL1   H2B 3453   3.177   0.941   3.970  0.3353 -1.8155 -1.6399
   47CHL1   C20 3454   3.316   0.473   4.816 -0.2376 -0.3921 -0.1786
   47CHL1   H20 3455   3.335   0.582   4.825  1.8227 -0.8543  2.1319
   47CHL1   C21 3456   3.444   0.411   4.875  0.2267 -0.4289 -0.2267
   47CHL1  H21A 3457   3.535   0.452   4.826  0.8474 -1.9387 -0.3884
   47CHL1  H21B 3458   3.467   0.302   4.866  2.0313 -0.0228 -1.0953
   47CHL1  H21C 3459   3.436   0.426   4.985 -1.7887 -3.4375  0.1494
   47CHL1   C22 3460   3.190   0.447   4.908  0.7203  0.0142 -0.6095
   47CHL1  H22A 3461   3.092   0.453   4.856  1.2144 -0.4861 -1.6298
   47CHL1  H22B 3462   3.190   0.347   4.957 -1.0443  1.3924  2.4537
   47CHL1   C23 3463   3.195   0.541   5.026 -0.0172 -0.7835 -0.1043
   47CHL1  H23A 3464   3.295   0.564   5.069 -0.3836  0.2891  0.2303
   47CHL1  H23B 3465   3.163   0.644   4.999  0.3937  0.0794  2.3997
   47CHL1   C24 3466   3.106   0.495   5.148 -0.2258  0.0516  0.1067
   47CHL1  H24A 3467   2.996   0.489   5.131 -0.3963  2.0730  0.2046
   47CHL1  H24B 3468   3.139   0.396   5.186 -0.1257 -0.3647 -1.0152
   47CHL1   C25 3469   3.120   0.603   5.266  0.0939  1.1884  0.6868
   47CHL1   H25 3470   3.151   0.695   5.211 -1.5528  0.6620 -1.2471
   47CHL1   C26 3471   2.980   0.646   5.329  0.9557  0.4504 -0.0320
   47CHL1  H26A 3472   2.955   0.583   5.417 -3.2712  0.2777 -1.1677
   47CHL1  H26B 3473   2.984   0.750   5.366 -2.1306  0.1832  1.3217
   47CHL1  H26C 3474   2.896   0.631   5.258  0.9783 -2.4620  0.4305
   47CHL1   C27 3475   3.223   0.563   5.374  0.3793 -0.0714  0.4008
   47CHL1  H27A 3476   3.317   0.550   5.316  0.3188 -1.8161  0.6449
   47CHL1  H27B 3477   3.226   0.646   5.449  0.3897  1.7785 -1.5501
   47CHL1  H27C 3478   3.186   0.464   5.408  0.3314 -0.1085  0.2420
   48CHL1    C3 3479   6.555   0.700   4.032  0.5136  0.3910 -0.7569
   48CHL1    H3 3480   6.493   0.788   4.005  1.4046  1.1570 -0.3546
   48CHL1    O3 3481   6.585   0.640   3.908  0.0687  0.4671  0.1103
   48CHL1   H3' 3482   6.637   0.709   3.867 -1.1342  2.2803  1.4850
   48CHL1    C4 3483   6.683   0.743   4.104  0.3409 -0.6552 -0.2388
   48CHL1   H4A 3484   6.754   0.658   4.100  2.5161  1.0158  0.4609
   48CHL1   H4B 3485   6.728   0.825   4.044 -1.2384  0.7708  0.4510
   48CHL1    C5 3486   6.666   0.780   4.250 -0.0002  0.7948  0.1439
   48CHL1    C6 3487   6.689   0.908   4.296 -0.0916  0.6698  0.9496
   48CHL1    H6 3488   6.737   0.978   4.227 -1.6658  0.2477 -0.6453
   48CHL1    C7 3489   6.682   0.947   4.441 -0.0868 -0.2201  0.6114
   48CHL1   H7A 3490   6.779   0.988   4.475  1.5673  0.5215 -4.1912
   48CHL1   H7B 3491   6.602   1.024   4.453  0.5988  0.7750 -0.9069
   48CHL1    C8 3492   6.642   0.824   4.531  0.2955  0.0576  0.1107
   48CHL1    H8 3493   6.727   0.754   4.534 -0.5123 -0.9753 -0.5252
   48CHL1   C14 3494   6.621   0.862   4.680  0.2187  0.8080 -0.2341
   48CHL1   H14 3495   6.531   0.927   4.688 -1.5921 -1.8354  3.1580
   48CHL1   C15 3496   6.731   0.937   4.750 -0.2047 -0.2608  0.1643
   48CHL1  H15A 3497   6.827   0.883   4.733 -1.0103 -1.3437 -1.1833
   48CHL1  H15B 3498   6.739   1.043   4.715  2.4107 -0.4232  0.0682
   48CHL1   C16 3499   6.698   0.924   4.900  0.1007  0.0832 -0.0181
   48CHL1  H16A 3500   6.786   0.875   4.949  0.5713 -1.4396 -2.2405
   48CHL1  H16B 3501   6.681   1.020   4.954 -1.4514 -0.2875  0.2061
   48CHL1   C17 3502   6.582   0.822   4.910  0.0028  0.0651  0.5241
   48CHL1   H17 3503   6.494   0.889   4.908 -0.1901 -0.1840  0.6110
   48CHL1   C13 3504   6.587   0.748   4.776  0.3333 -0.5586 -0.1508
   48CHL1   C18 3505   6.705   0.646   4.778 -0.5363  0.5728 -0.6699
   48CHL1  H18A 3506   6.664   0.560   4.834 -1.8950  1.1436 -0.7539
   48CHL1  H18B 3507   6.744   0.601   4.684  1.7416 -0.3552  0.6245
   48CHL1  H18C 3508   6.794   0.698   4.822 -0.6800  2.1629 -2.1421
   48CHL1   C12 3509   6.457   0.680   4.721 -0.2911  0.1223 -0.3099
   48CHL1  H12A 3510   6.433   0.592   4.784 -0.9053  1.1380  0.9103
   48CHL1  H12B 3511   6.379   0.758   4.721  1.4859  1.9766 -0.6031
   48CHL1   C11 3512   6.487   0.627   4.575  0.9740  0.4368 -0.1784
   48CHL1  H11A 3513   6.555   0.540   4.569 -0.9956 -1.0939 -5.0163
   48CHL1  H11B 3514   6.396   0.576   4.537  1.1903 -0.0904  0.0010
   48CHL1    C9 3515   6.533   0.732   4.470 -1.1330  0.0607 -0.2828
   48CHL1    H9 3516   6.447   0.800   4.454 -0.0717  1.2813 -0.9865
   48CHL1   C10 3517   6.588   0.680   4.329  0.3364  0.0721  0.1826
   48CHL1   C19 3518   6.685   0.562   4.348 -0.3118  0.0985  0.1465
   48CHL1  H19A 3519   6.752   0.546   4.262 -0.4378 -4.7283  0.6241
   48CHL1  H19B 3520   6.750   0.558   4.439  0.6507  0.2262 -0.5263
   48CHL1  H19C 3521   6.626   0.467   4.345  0.6128 -0.5229  0.8713
   48CHL1    C1 3522   6.466   0.641   4.253  0.2452 -0.5930  0.0243
   48CHL1   H1A 3523   6.414   0.567   4.318 -0.3839  0.1245  0.3658
   48CHL1   H1B 3524   6.405   0.734   4.248  0.0858 -0.7536 -1.2726
   48CHL1    C2 3525   6.488   0.596   4.106 -0.3308  0.4432  0.2133
   48CHL1   H2A 3526   6.396   0.574   4.048  0.0520 -1.4148  0.2320
   48CHL1   H2B 3527   6.553   0.505   4.105 -2.2540 -0.9846 -1.5454
   48CHL1   C20 3528   6.573   0.730   5.039  0.2138 -0.2421 -0.3925
   48CHL1   H20 3529   6.659   0.661   5.033  0.4188 -0.0452  0.2728
   48CHL1   C21 3530   6.437   0.652   5.041 -0.2299  0.3120  0.2934
   48CHL1  H21A 3531   6.422   0.610   5.143 -2.1575 -2.5675 -1.0449
   48CHL1  H21B 3532   6.433   0.561   4.978  0.1080 -0.4841  1.3820
   48CHL1  H21C 3533   6.351   0.718   5.018  0.1971  0.5659 -0.6380
   48CHL1   C22 3534   6.588   0.814   5.169  0.3730  0.0874 -0.2382
   48CHL1  H22A 3535   6.685   0.868   5.158 -1.2423  3.2547 -0.0078
   48CHL1  H22B 3536   6.519   0.901   5.161 -0.1659 -0.4056 -1.0963
   48CHL1   C23 3537   6.585   0.747   5.303 -0.2614  0.1447 -0.5092
   48CHL1  H23A 3538   6.481   0.723   5.336  0.3245 -2.0910 -0.1529
   48CHL1  H23B 3539   6.641   0.652   5.294  1.0854  1.0069 -1.5105
   48CHL1   C24 3540   6.649   0.832   5.416 -0.4661 -0.0876  0.4432
   48CHL1  H24A 3541   6.662   0.768   5.505 -0.2294  0.4757  0.8160
   48CHL1  H24B 3542   6.751   0.854   5.376 -0.5205  1.4360  1.0958
   48CHL1   C25 3543   6.572   0.962   5.449 -0.9221  0.1102 -0.0746
   48CHL1   H25 3544   6.596   1.039   5.372  1.6740  0.4258  0.9169
   48CHL1   C26 3545   6.428   0.927   5.464 -0.7751  0.4222 -0.0493
   48CHL1  H26A 3546   6.380   1.018   5.507  1.8376  1.5374  0.7021
   48CHL1  H26B 3547   6.387   0.909   5.363  0.8990  0.0536 -0.6935
   48CHL1  H26C 3548   6.410   0.841   5.532 -0.5329 -0.2117 -0.7714
   48CHL1   C27 3549   6.621   1.026   5.572 -0.1048 -0.2595 -0.2834
   48CHL1  H27A 3550   6.669   0.955   5.643 -1.6185  0.9726  2.1379
   48CHL1  H27B 3551   6.697   1.104   5.554  1.7341 -1.1232  2.8615
   48CHL1  H27C 3552   6.542   1.070   5.637  0.3806  0.4583 -0.1729
   49CHL1    C3 3553   0.347   3.821   3.885  0.0211 -0.3269 -0.0642
   49CHL1    H3 3554   0.314   3.914   3.937 -0.7706 -0.6727  0.0664
   49CHL1    O3 3555   0.337   3.846   3.744 -0.1614  0.1691  0.7057
   49CHL1   H3' 3556   0.394   3.784   3.697 -0.8087  2.2745 -3.4121
   49CHL1    C4 3557   0.492   3.797   3.934 -0.0839  0.2234 -0.3711
   49CHL1   H4A 3558   0.531   3.705   3.885  1.5369  0.1425  0.9727
   49CHL1   H4B 3559   0.559   3.879   3.902  1.0270  0.1719  1.6582
   49CHL1    C5 3560   0.499   3.783   4.086 -0.4445  0.0779  1.0716
   49CHL1    C6 3561   0.579   3.863   4.159  0.5596 -0.9616 -0.2332
   49CHL1    H6 3562   0.625   3.952   4.113 -0.4441  0.2734  1.0584
   49CHL1    C7 3563   0.588   3.860   4.305 -0.3978  0.1174 -0.3042
   49CHL1   H7A 3564   0.696   3.883   4.319 -0.2370 -0.3521 -0.7552
   49CHL1   H7B 3565   0.528   3.944   4.345 -0.8254 -0.4880  0.3765
   49CHL1    C8 3566   0.528   3.736   4.371  0.4021  0.0932  0.3493
   49CHL1    H8 3567   0.605   3.658   4.354  2.3274  1.8945  0.4178
   49CHL1   C14 3568   0.498   3.766   4.518  0.3538 -0.0819 -0.1910
   49CHL1   H14 3569   0.422   3.846   4.515 -0.3951 -0.5439  3.0732
   49CHL1   C15 3570   0.613   3.819   4.601  0.7963 -0.0236  1.1893
   49CHL1  H15A 3571   0.708   3.778   4.560  0.7324 -1.4167  2.3530
   49CHL1  H15B 3572   0.622   3.929   4.588  1.6264 -0.2514 -0.6586
   49CHL1   C16 3573   0.588   3.771   4.744  0.5692 -0.3626 -0.2324
   49CHL1  H16A 3574   0.683   3.721   4.771  2.6136  2.2149 -2.1114
   49CHL1  H16B 3575   0.579   3.856   4.815  0.7564  0.8267 -1.5781
   49CHL1   C17 3576   0.448   3.698   4.733  0.3402  0.2113 -0.3625
   49CHL1   H17 3577   0.367   3.774   4.733  1.2388  1.2214  0.7968
   49CHL1   C13 3578   0.445   3.644   4.592  0.7146 -0.4497 -0.6875
   49CHL1   C18 3579   0.548   3.527   4.583 -0.2312 -0.1906 -0.7506
   49CHL1  H18A 3580   0.650   3.565   4.607 -0.7603  0.9570 -0.2501
   49CHL1  H18B 3581   0.514   3.451   4.656 -0.8954  1.8271  1.1416
   49CHL1  H18C 3582   0.548   3.480   4.482  1.6837 -0.5264 -0.6428
   49CHL1   C12 3583   0.304   3.610   4.533 -0.2761 -0.1805  0.5040
   49CHL1  H12A 3584   0.259   3.519   4.578  0.6279 -0.9321 -0.0662
   49CHL1  H12B 3585   0.236   3.698   4.538 -0.5850 -0.4366  0.8049
   49CHL1   C11 3586   0.319   3.582   4.374  0.0726  0.0221  0.0575
   49CHL1  H11A 3587   0.382   3.492   4.359 -0.2539 -0.7949  2.8681
   49CHL1  H11B 3588   0.219   3.571   4.327  0.7740 -1.5581 -1.1459
   49CHL1    C9 3589   0.397   3.693   4.302 -0.0377 -0.9751  0.7481
   49CHL1    H9 3590   0.331   3.783   4.312 -0.4705 -1.0310 -1.3171
   49CHL1   C10 3591   0.405   3.679   4.147 -0.0273  0.2103 -0.1229
   49CHL1   C19 3592   0.470   3.544   4.114  0.1449 -0.9370 -0.9924
   49CHL1  H19A 3593   0.400   3.464   4.144 -0.8269 -0.1898 -1.2210
   49CHL1  H19B 3594   0.500   3.530   4.007  1.6916 -0.7165 -0.6152
   49CHL1  H19C 3595   0.564   3.535   4.173 -0.7569  1.3232  0.9578
   49CHL1    C1 3596   0.261   3.686   4.084 -0.2271  0.3057  0.1674
   49CHL1   H1A 3597   0.185   3.612   4.115 -0.7632  0.4861 -0.6771
   49CHL1   H1B 3598   0.209   3.777   4.122 -0.4280 -0.0753  0.8220
   49CHL1    C2 3599   0.261   3.702   3.932 -0.1096  0.7440  0.1024
   49CHL1   H2A 3600   0.156   3.729   3.907 -0.3304  2.2249  2.3884
   49CHL1   H2B 3601   0.297   3.603   3.895 -2.0847 -0.5177  1.3303
   49CHL1   C20 3602   0.409   3.620   4.861  0.7669  0.1259 -0.6687
   49CHL1   H20 3603   0.448   3.517   4.851 -0.5161 -0.3154 -1.4757
   49CHL1   C21 3604   0.253   3.599   4.854 -0.5087  0.4687  0.3386
   49CHL1  H21A 3605   0.224   3.532   4.770  1.6329 -1.3298  0.9233
   49CHL1  H21B 3606   0.203   3.696   4.834 -1.2630 -0.5534 -3.5987
   49CHL1  H21C 3607   0.223   3.540   4.944 -0.5044  0.1163  0.1128
   49CHL1   C22 3608   0.434   3.689   4.995 -0.4530 -0.3212 -0.2465
   49CHL1  H22A 3609   0.543   3.680   5.015 -0.5741  1.6813  1.6988
   49CHL1  H22B 3610   0.406   3.796   4.998 -0.9741 -0.4665  1.4233
   49CHL1   C23 3611   0.369   3.629   5.116 -0.3251 -0.1419 -0.5280
   49CHL1  H23A 3612   0.263   3.659   5.115 -0.0129  1.3570 -4.2866
   49CHL1  H23B 3613   0.375   3.518   5.111  0.3761 -0.1343 -0.0753
   49CHL1   C24 3614   0.429   3.673   5.251  0.1911  0.3589  0.4498
   49CHL1  H24A 3615   0.529   3.626   5.259 -0.3358 -0.9585 -0.3207
   49CHL1  H24B 3616   0.440   3.783   5.258 -1.1160  0.5834 -0.6969
   49CHL1   C25 3617   0.339   3.629   5.370  0.6949 -0.7638  0.1073
   49CHL1   H25 3618   0.237   3.674   5.366  0.4372 -1.0413  2.3135
   49CHL1   C26 3619   0.326   3.472   5.362 -0.0993 -0.4757  0.1071
   49CHL1  H26A 3620   0.270   3.440   5.452  3.1361  1.2794  2.9715
   49CHL1  H26B 3621   0.275   3.445   5.267 -1.4955  1.4451  0.2649
   49CHL1  H26C 3622   0.427   3.425   5.357  0.2157  0.3012 -1.4894
   49CHL1   C27 3623   0.400   3.665   5.507 -0.1936  0.0971  0.1113
   49CHL1  H27A 3624   0.488   3.597   5.504 -0.2066  0.1111 -1.2724
   49CHL1  H27B 3625   0.429   3.771   5.518 -0.8284  0.1736  1.1616
   49CHL1  H27C 3626   0.332   3.636   5.590  1.5687 -2.1958  0.8904
   50CHL1    C3 3627   6.509   4.086   3.959 -0.8146  0.7891  0.2356
   50CHL1    H3 3628   6.501   3.976   3.942  1.4307  0.6779 -0.4473
   50CHL1    O3 3629   6.580   4.134   3.848 -0.1598  0.2515  0.2621
   50CHL1   H3' 3630   6.588   4.229   3.853  0.5336  0.2453 -0.4585
   50CHL1    C4 3631   6.367   4.149   3.957  0.2832  0.1760 -0.7753
   50CHL1   H4A 3632   6.386   4.258   3.946  3.5366 -0.3610 -1.9072
   50CHL1   H4B 3633   6.322   4.103   3.866 -1.2487  0.9793 -0.4440
   50CHL1    C5 3634   6.292   4.112   4.083 -0.2148 -0.0438 -0.7803
   50CHL1    C6 3635   6.176   4.033   4.082  0.2939 -0.3446 -0.4160
   50CHL1    H6 3636   6.128   3.991   3.993  0.1463 -4.3723  1.3273
   50CHL1    C7 3637   6.103   3.977   4.206  0.3375  0.5661 -0.5795
   50CHL1   H7A 3638   5.994   3.979   4.188  0.1376 -2.1653 -0.1494
   50CHL1   H7B 3639   6.141   3.872   4.208  0.6091  0.6457 -1.2215
   50CHL1    C8 3640   6.142   4.047   4.335 -0.7064 -0.1398  0.0479
   50CHL1    H8 3641   6.101   4.149   4.323  0.0374 -0.0112 -1.7679
   50CHL1   C14 3642   6.079   3.975   4.453  0.4159  0.1978 -0.1777
   50CHL1   H14 3643   6.117   3.871   4.455 -2.9535 -1.1959 -1.2521
   50CHL1   C15 3644   5.922   3.948   4.448  0.6202 -0.6586 -0.2048
   50CHL1  H15A 3645   5.863   4.034   4.410 -0.8930 -1.1413  0.9271
   50CHL1  H15B 3646   5.891   3.864   4.382  0.0866 -0.1110 -0.6631
   50CHL1   C16 3647   5.883   3.923   4.594 -0.2066  0.6879  0.4771
   50CHL1  H16A 3648   5.812   4.001   4.629 -0.1205  1.0681 -0.1815
   50CHL1  H16B 3649   5.851   3.819   4.619  0.2211  0.0594 -1.4134
   50CHL1   C17 3650   6.011   3.952   4.679 -0.0025  0.1185 -0.1180
   50CHL1   H17 3651   6.059   3.853   4.695 -2.3125 -0.8537  1.4302
   50CHL1   C13 3652   6.108   4.036   4.586  0.4016 -0.4985 -0.1057
   50CHL1   C18 3653   6.049   4.183   4.594  0.0586  0.1017  0.8687
   50CHL1  H18A 3654   6.059   4.221   4.698 -2.4672  1.8619  0.5549
   50CHL1  H18B 3655   6.100   4.248   4.520  0.6422  1.5863  2.5061
   50CHL1  H18C 3656   5.941   4.195   4.570  0.5307  0.4714 -1.2794
   50CHL1   C12 3657   6.264   4.033   4.590  0.7160 -0.7310  0.5099
   50CHL1  H12A 3658   6.294   4.086   4.683 -1.8224  2.3470 -0.2475
   50CHL1  H12B 3659   6.303   3.929   4.594 -0.6812 -1.3640 -1.1627
   50CHL1   C11 3660   6.341   4.111   4.480  0.5309  0.0900  0.2354
   50CHL1  H11A 3661   6.303   4.215   4.484 -0.0099 -0.1072  0.3119
   50CHL1  H11B 3662   6.451   4.095   4.486  1.1100  2.3418 -2.3152
   50CHL1    C9 3663   6.293   4.060   4.347  0.2454 -0.1559  0.5749
   50CHL1    H9 3664   6.338   3.958   4.349  1.2713  0.3014  1.7520
   50CHL1   C10 3665   6.364   4.140   4.222  0.4743 -0.5945  0.7308
   50CHL1   C19 3666   6.349   4.288   4.235 -0.1043 -0.0586 -0.4151
   50CHL1  H19A 3667   6.241   4.316   4.238  0.1764  0.9832  0.4524
   50CHL1  H19B 3668   6.402   4.333   4.321 -0.5046 -1.3588  0.5342
   50CHL1  H19C 3669   6.383   4.342   4.144 -0.2882  0.9595  0.1041
   50CHL1    C1 3670   6.510   4.085   4.209  0.0507 -0.6252 -0.9722
   50CHL1   H1A 3671   6.560   4.124   4.300 -0.4638 -0.6998 -0.6567
   50CHL1   H1B 3672   6.498   3.975   4.208 -0.5340 -0.5644 -0.4768
   50CHL1    C2 3673   6.582   4.131   4.082 -0.4493 -0.3253 -0.5772
   50CHL1   H2A 3674   6.688   4.099   4.085  1.2231  4.1514 -2.4894
   50CHL1   H2B 3675   6.571   4.242   4.080 -1.1457 -0.3195 -4.4034
   50CHL1   C20 3676   5.987   4.005   4.822  0.6714  0.2676  0.1977
   50CHL1   H20 3677   5.945   4.107   4.809  0.2377  0.2353  1.2359
   50CHL1   C21 3678   6.123   4.012   4.897 -0.2669 -0.1012 -0.3893
   50CHL1  H21A 3679   6.206   4.058   4.840 -1.0761  0.5236 -1.0825
   50CHL1  H21B 3680   6.157   3.907   4.914 -1.9741 -1.0517 -2.3871
   50CHL1  H21C 3681   6.110   4.071   4.991 -0.9222 -1.5007  0.4333
   50CHL1   C22 3682   5.895   3.918   4.905  0.6174 -0.0909  0.1219
   50CHL1  H22A 3683   5.910   3.809   4.888 -1.6582 -0.5590  0.7775
   50CHL1  H22B 3684   5.921   3.935   5.012 -0.4267 -2.1127  0.7545
   50CHL1   C23 3685   5.741   3.951   4.902  0.1906 -0.0107 -0.3259
   50CHL1  H23A 3686   5.728   4.061   4.908  0.6666 -0.0309  2.0217
   50CHL1  H23B 3687   5.704   3.918   4.802 -2.9158 -0.0562  0.7551
   50CHL1   C24 3688   5.663   3.871   5.005 -0.3592 -0.0833  0.4644
   50CHL1  H24A 3689   5.670   3.762   4.984  1.3273  0.2012 -0.6512
   50CHL1  H24B 3690   5.711   3.884   5.104  0.7305  1.0541 -0.1864
   50CHL1   C25 3691   5.520   3.907   5.027 -0.1013 -0.6393  0.1256
   50CHL1   H25 3692   5.474   3.916   4.926 -2.0972  1.6702  1.1198
   50CHL1   C26 3693   5.450   3.801   5.107 -0.4052  0.1872 -0.8029
   50CHL1  H26A 3694   5.481   3.703   5.064  1.9725  0.8248 -0.6379
   50CHL1  H26B 3695   5.486   3.802   5.212 -0.6592 -2.8909 -0.5776
   50CHL1  H26C 3696   5.339   3.806   5.098 -0.5080 -2.2285 -1.5568
   50CHL1   C27 3697   5.503   4.048   5.103  0.0523  0.2038  0.2435
   50CHL1  H27A 3698   5.533   4.040   5.210 -1.9783  0.6349  0.8863
   50CHL1  H27B 3699   5.548   4.129   5.041 -1.1883 -0.3817 -1.4896
   50CHL1  H27C 3700   5.399   4.084   5.110  0.6218  1.8321  0.8187
   51CHL1    C3 3701   1.361   2.596   3.963  0.1465  0.7002  0.3723
   51CHL1    H3 3702   1.312   2.688   4.000 -2.0319  0.0343 -0.6740
   51CHL1    O3 3703   1.419   2.633   3.834  0.1982  0.2746  0.2233
   51CHL1   H3' 3704   1.491   2.573   3.812 -0.0581  0.3798 -0.9392
   51CHL1    C4 3705   1.478   2.561   4.056 -0.0928 -0.0882 -0.1806
   51CHL1   H4A 3706   1.527   2.472   4.013  2.1277  0.1026  1.7739
   51CHL1   H4B 3707   1.554   2.642   4.056 -1.3887  1.4165  3.7883
   51CHL1    C5 3708   1.431   2.522   4.193 -0.2437 -0.6843  0.0780
   51CHL1    C6 3709   1.479   2.583   4.302 -0.4455 -0.0122 -0.0275
   51CHL1    H6 3710   1.550   2.665   4.290 -1.0776  0.6431  0.5867
   51CHL1    C7 3711   1.454   2.540   4.445 -0.8503 -0.5547  0.1988
   51CHL1   H7A 3712   1.541   2.543   4.515  0.1377  2.3406 -0.9803
   51CHL1   H7B 3713   1.383   2.618   4.480 -0.7389  0.3543 -1.5083
   51CHL1    C8 3714   1.363   2.415   4.456 -0.5922  0.9856  0.0555
   51CHL1    H8 3715   1.446   2.342   4.440 -0.4468  1.3714 -1.0494
   51CHL1   C14 3716   1.296   2.403   4.593 -0.0814 -0.3938  0.6817
   51CHL1   H14 3717   1.230   2.492   4.595  0.7215  0.2356 -0.2266
   51CHL1   C15 3718   1.383   2.433   4.711 -0.0221  0.2877 -0.8177
   51CHL1  H15A 3719   1.478   2.378   4.693  0.5180  1.2336 -0.8848
   51CHL1  H15B 3720   1.409   2.536   4.744  0.4306  0.0093 -0.2736
   51CHL1   C16 3721   1.315   2.359   4.830  0.0655  0.6814 -0.3587
   51CHL1  H16A 3722   1.379   2.282   4.880 -1.1951 -0.2297 -0.0969
   51CHL1  H16B 3723   1.296   2.428   4.915 -0.4606  0.3911 -0.2342
   51CHL1   C17 3724   1.181   2.304   4.763  0.0085  0.0179 -1.3887
   51CHL1   H17 3725   1.105   2.385   4.766 -2.0429 -1.7864  1.6701
   51CHL1   C13 3726   1.219   2.275   4.622 -1.1881 -0.7021 -0.4163
   51CHL1   C18 3727   1.315   2.154   4.617  0.4328  0.3401  0.3000
   51CHL1  H18A 3728   1.250   2.069   4.586 -2.2423  2.8887 -1.7885
   51CHL1  H18B 3729   1.380   2.175   4.529  1.6871  0.4513  1.2438
   51CHL1  H18C 3730   1.391   2.126   4.693  1.0029 -2.3354 -1.1431
   51CHL1   C12 3731   1.111   2.275   4.509  0.3660  0.6579  0.1541
   51CHL1  H12A 3732   1.049   2.183   4.508  2.1377 -0.6220  1.4258
   51CHL1  H12B 3733   1.041   2.360   4.524 -1.1368 -0.0522 -2.2214
   51CHL1   C11 3734   1.175   2.277   4.364  0.3365  0.1627  0.5217
   51CHL1  H11A 3735   1.239   2.186   4.357 -1.4306 -1.1553  0.8154
   51CHL1  H11B 3736   1.096   2.274   4.286  0.2893 -1.6660  0.5969
   51CHL1    C9 3737   1.259   2.404   4.343  0.4342  0.7406  0.2344
   51CHL1    H9 3738   1.186   2.486   4.355 -0.4908 -0.3226  2.5024
   51CHL1   C10 3739   1.318   2.412   4.201 -0.7904  0.7426  0.2051
   51CHL1   C19 3740   1.385   2.272   4.172 -0.1344  0.2197 -0.3874
   51CHL1  H19A 3741   1.434   2.271   4.072 -0.1849 -0.4636 -0.4103
   51CHL1  H19B 3742   1.465   2.243   4.243 -0.0684 -0.4423 -0.7232
   51CHL1  H19C 3743   1.316   2.185   4.165  0.8737 -0.5457 -1.2094
   51CHL1    C1 3744   1.207   2.444   4.094  0.1452 -0.2104 -0.1737
   51CHL1   H1A 3745   1.144   2.353   4.076 -0.1182  0.1102 -0.9088
   51CHL1   H1B 3746   1.144   2.530   4.125  0.6842  0.1380 -0.0352
   51CHL1    C2 3747   1.255   2.487   3.952  0.6668 -1.1870 -0.1431
   51CHL1   H2A 3748   1.163   2.512   3.895  1.4908  0.5737 -0.7569
   51CHL1   H2B 3749   1.294   2.400   3.895  1.2889 -1.5091  0.7531
   51CHL1   C20 3750   1.118   2.184   4.844 -0.2382  0.1273  0.2345
   51CHL1   H20 3751   1.184   2.096   4.827 -0.5809 -0.2599  0.8397
   51CHL1   C21 3752   0.970   2.163   4.781 -0.8312 -0.0072 -0.0466
   51CHL1  H21A 3753   0.915   2.260   4.783  0.2854  0.6380  1.4107
   51CHL1  H21B 3754   0.907   2.088   4.834 -3.1347  2.1522  0.4954
   51CHL1  H21C 3755   0.977   2.126   4.677  0.7667 -0.1240  0.0865
   51CHL1   C22 3756   1.113   2.208   4.994 -0.1775 -0.0826 -0.4428
   51CHL1  H22A 3757   1.055   2.117   5.020  0.6748 -1.1096 -1.9939
   51CHL1  H22B 3758   1.211   2.196   5.045  0.4157 -1.2055 -1.7859
   51CHL1   C23 3759   1.041   2.337   5.034 -0.4610 -0.3479  0.1510
   51CHL1  H23A 3760   1.114   2.421   5.045  1.3734 -1.4132 -2.8447
   51CHL1  H23B 3761   0.970   2.372   4.957 -3.1736 -2.9439  1.2997
   51CHL1   C24 3762   0.954   2.330   5.161  0.1575  0.1912  0.5971
   51CHL1  H24A 3763   0.915   2.429   5.192  0.0168 -0.1790  1.6015
   51CHL1  H24B 3764   0.876   2.256   5.135 -1.0349  1.3143  0.9027
   51CHL1   C25 3765   1.016   2.269   5.285  0.8583 -0.1073  0.0260
   51CHL1   H25 3766   1.059   2.171   5.254 -0.3256 -1.1451  1.4847
   51CHL1   C26 3767   1.136   2.357   5.336 -0.2063  0.2111  0.0821
   51CHL1  H26A 3768   1.103   2.461   5.357 -0.2110  0.5289 -1.3859
   51CHL1  H26B 3769   1.185   2.310   5.425  1.2862  0.9801 -0.3031
   51CHL1  H26C 3770   1.211   2.369   5.255 -1.7340 -0.0545 -1.4186
   51CHL1   C27 3771   0.912   2.238   5.394  0.0647 -0.0855 -0.2167
   51CHL1  H27A 3772   0.823   2.182   5.358 -0.4252 -0.4769  1.5105
   51CHL1  H27B 3773   0.957   2.180   5.477 -0.7537 -0.5512 -0.0861
   51CHL1  H27C 3774   0.877   2.332   5.441  1.3801 -0.6873  2.1001
   52CHL1    C3 3775   1.350   5.337   3.783 -0.0267  1.2280  0.1619
   52CHL1    H3 3776   1.343   5.436   3.832  1.0994  0.8347  1.1736
   52CHL1    O3 3777   1.380   5.344   3.644  0.2582 -0.1099 -0.0437
   52CHL1   H3' 3778   1.357   5.254   3.622  0.7251 -0.7010  1.6966
   52CHL1    C4 3779   1.467   5.261   3.850 -0.0372 -0.0155 -0.2295
   52CHL1   H4A 3780   1.485   5.171   3.787 -3.2276 -0.5358 -0.5631
   52CHL1   H4B 3781   1.560   5.321   3.837 -0.4530  0.1641 -2.9481
   52CHL1    C5 3782   1.440   5.226   3.992  0.6887  0.2510 -0.8104
   52CHL1    C6 3783   1.528   5.262   4.084 -0.0368  0.1981 -0.5159
   52CHL1    H6 3784   1.625   5.307   4.060  0.0156 -0.4569 -1.5893
   52CHL1    C7 3785   1.501   5.248   4.234 -0.1874  0.1991 -0.0183
   52CHL1   H7A 3786   1.598   5.210   4.270  0.3609  0.4817 -1.1374
   52CHL1   H7B 3787   1.474   5.347   4.277  0.0245 -1.3176  3.9739
   52CHL1    C8 3788   1.394   5.137   4.260  0.0545  0.1171 -0.8686
   52CHL1    H8 3789   1.444   5.043   4.227  0.7564  0.1664 -0.0034
   52CHL1   C14 3790   1.351   5.140   4.408 -0.9475 -0.3239  0.3260
   52CHL1   H14 3791   1.326   5.245   4.432 -0.9807 -0.6506  1.8090
   52CHL1   C15 3792   1.465   5.106   4.511  1.2951 -0.0408 -0.0957
   52CHL1  H15A 3793   1.529   5.025   4.471  0.2866 -0.4825 -0.8815
   52CHL1  H15B 3794   1.534   5.191   4.530  0.8094  0.4881 -0.6556
   52CHL1   C16 3795   1.394   5.057   4.631  0.2370  0.0268 -1.3654
   52CHL1  H16A 3796   1.412   4.949   4.649 -3.6300 -0.4471  0.6469
   52CHL1  H16B 3797   1.419   5.098   4.731  1.0180 -0.0582 -1.5140
   52CHL1   C17 3798   1.244   5.054   4.593 -0.1294 -0.0210 -0.2033
   52CHL1   H17 3799   1.209   5.158   4.612 -0.7767 -0.4518  1.0674
   52CHL1   C13 3800   1.238   5.045   4.444 -0.5570  0.8596  0.6111
   52CHL1   C18 3801   1.271   4.898   4.404 -0.1705  0.0489  0.3281
   52CHL1  H18A 3802   1.303   4.902   4.297 -1.1478  1.6594  0.0618
   52CHL1  H18B 3803   1.350   4.850   4.465 -0.9468 -1.3452  0.2607
   52CHL1  H18C 3804   1.183   4.831   4.407 -0.8054  0.7341 -1.3644
   52CHL1   C12 3805   1.114   5.091   4.362 -0.0992  0.2671 -0.5152
   52CHL1  H12A 3806   1.030   5.019   4.374  1.5584 -1.6233  0.2674
   52CHL1  H12B 3807   1.078   5.193   4.389 -3.2198 -0.6961 -0.5908
   52CHL1   C11 3808   1.146   5.094   4.213  1.5009  0.6576  0.0899
   52CHL1  H11A 3809   1.147   4.987   4.183 -2.8570  0.6878 -0.9338
   52CHL1  H11B 3810   1.054   5.134   4.165  0.9246  1.9840  2.1762
   52CHL1    C9 3811   1.268   5.168   4.171 -0.7324  0.6218 -0.0259
   52CHL1    H9 3812   1.243   5.276   4.184  1.2657  1.0961  0.1753
   52CHL1   C10 3813   1.297   5.165   4.017  0.1760 -0.3241  0.1982
   52CHL1   C19 3814   1.306   5.018   3.965  0.4729  0.6326  0.4922
   52CHL1  H19A 3815   1.211   4.962   3.954  1.6500 -1.7027  1.2844
   52CHL1  H19B 3816   1.341   5.023   3.860 -1.0011 -0.3976 -0.0803
   52CHL1  H19C 3817   1.387   4.963   4.019  1.6189  0.0092 -1.7284
   52CHL1    C1 3818   1.178   5.236   3.946  0.7986 -0.4079  0.3460
   52CHL1   H1A 3819   1.089   5.169   3.948  0.1135  0.3757 -1.5050
   52CHL1   H1B 3820   1.155   5.333   3.995  0.9851 -0.6778  0.9787
   52CHL1    C2 3821   1.218   5.260   3.797 -0.5963 -0.4380  0.3228
   52CHL1   H2A 3822   1.137   5.324   3.755  1.2561  1.9807  0.1687
   52CHL1   H2B 3823   1.201   5.162   3.747 -0.6688 -1.1360  1.6867
   52CHL1   C20 3824   1.164   4.952   4.679  0.5634 -0.0566  0.3111
   52CHL1   H20 3825   1.189   4.849   4.646  0.0287 -0.3853  0.9198
   52CHL1   C21 3826   1.012   4.979   4.663 -0.6947  0.1263 -0.0371
   52CHL1  H21A 3827   0.965   4.908   4.735  0.0859  1.2037  1.5821
   52CHL1  H21B 3828   0.971   4.969   4.560  2.2936  1.6349 -1.5016
   52CHL1  H21C 3829   0.983   5.083   4.688 -0.8368  0.7699 -2.5687
   52CHL1   C22 3830   1.206   4.941   4.828  0.3458 -0.0608  0.1648
   52CHL1  H22A 3831   1.315   4.932   4.845  0.6118  0.2995 -1.1961
   52CHL1  H22B 3832   1.189   5.040   4.875  0.5864 -0.0237  0.1746
   52CHL1   C23 3833   1.126   4.842   4.920  0.3880 -0.1574 -0.2563
   52CHL1  H23A 3834   1.027   4.889   4.936  0.0477 -0.7096 -0.6738
   52CHL1  H23B 3835   1.127   4.746   4.864  0.5065 -1.0862  1.2834
   52CHL1   C24 3836   1.181   4.820   5.058  0.2518 -0.4245 -0.1319
   52CHL1  H24A 3837   1.284   4.778   5.053  0.2497 -0.3287 -1.0033
   52CHL1  H24B 3838   1.180   4.918   5.110 -3.1573 -1.1257  1.4249
   52CHL1   C25 3839   1.093   4.736   5.153  0.8855  0.6166  0.5429
   52CHL1   H25 3840   0.985   4.758   5.136  0.4659 -1.8745 -0.3488
   52CHL1   C26 3841   1.096   4.589   5.109  0.1091 -0.0896  0.2015
   52CHL1  H26A 3842   1.205   4.565   5.113  0.0283 -0.3479  1.1725
   52CHL1  H26B 3843   1.034   4.533   5.182  0.0009  0.0126  0.1877
   52CHL1  H26C 3844   1.069   4.583   5.002  3.0700 -0.0384 -0.6496
   52CHL1   C27 3845   1.131   4.744   5.299 -0.1167  0.3277 -0.2672
   52CHL1  H27A 3846   1.235   4.710   5.313  0.7283  2.7639 -0.2207
   52CHL1  H27B 3847   1.136   4.851   5.327 -0.3208  0.1376  0.5343
   52CHL1  H27C 3848   1.066   4.694   5.375  2.2355 -1.1942  0.8483
   53CHL1    C3 3849   3.044   1.906   3.605 -0.8487 -0.4004  1.1390
   53CHL1    H3 3850   2.958   1.977   3.604 -0.4882  0.1843 -2.2180
   53CHL1    O3 3851   3.108   1.924   3.480  0.9236  0.7256  0.2415
   53CHL1   H3' 3852   3.093   2.018   3.473  2.1870  0.9293  0.1867
   53CHL1    C4 3853   3.154   1.954   3.706 -0.3539  0.8544  0.1755
   53CHL1   H4A 3854   3.252   1.910   3.676 -1.4628 -2.4613  1.1086
   53CHL1   H4B 3855   3.175   2.063   3.696  1.4247  0.6013  0.7669
   53CHL1    C5 3856   3.127   1.923   3.853  0.3838 -0.4037 -0.2632
   53CHL1    C6 3857   3.137   2.022   3.944  0.1145  0.6480  0.2942
   53CHL1    H6 3858   3.167   2.121   3.907 -0.9360 -0.0307 -2.5741
   53CHL1    C7 3859   3.104   2.017   4.091 -0.7742  0.5509 -0.0901
   53CHL1   H7A 3860   3.196   2.062   4.135 -0.9104 -0.3869  1.2213
   53CHL1   H7B 3861   3.013   2.071   4.123 -0.2613  1.1019  0.4557
   53CHL1    C8 3862   3.102   1.864   4.132  0.7084 -0.3161  0.2680
   53CHL1    H8 3863   3.209   1.834   4.138  0.9817  0.4483 -0.7057
   53CHL1   C14 3864   3.036   1.846   4.270  0.8970 -0.0623  0.6293
   53CHL1   H14 3865   2.936   1.894   4.269 -0.1371 -2.0887  1.5286
   53CHL1   C15 3866   3.108   1.933   4.374 -0.2054 -0.1814 -0.2718
   53CHL1  H15A 3867   3.216   1.958   4.363 -0.4533  0.7773 -0.6069
   53CHL1  H15B 3868   3.056   2.031   4.380 -1.7422 -0.9755 -0.1442
   53CHL1   C16 3869   3.076   1.855   4.506  0.2610  0.1446  0.5829
   53CHL1  H16A 3870   3.169   1.813   4.549  0.4940  0.3407  0.2717
   53CHL1  H16B 3871   3.030   1.923   4.581 -0.3759  1.3075 -0.8178
   53CHL1   C17 3872   2.981   1.732   4.473  0.3907  0.0902 -0.4220
   53CHL1   H17 3873   2.884   1.784   4.460  0.8308  1.1976  0.5531
   53CHL1   C13 3874   3.023   1.703   4.326 -0.3568  0.1626  0.3935
   53CHL1   C18 3875   3.160   1.631   4.319 -0.2811 -0.4130 -0.4090
   53CHL1  H18A 3876   3.156   1.520   4.321 -2.7452 -0.6339 -4.5241
   53CHL1  H18B 3877   3.214   1.654   4.224 -0.7240  0.2928 -0.4994
   53CHL1  H18C 3878   3.231   1.662   4.398 -0.0176 -0.8677 -0.4623
   53CHL1   C12 3879   2.918   1.636   4.232  0.3146  0.5835  0.2113
   53CHL1  H12A 3880   2.909   1.530   4.262  0.2618  1.0424  1.9491
   53CHL1  H12B 3881   2.819   1.685   4.247  0.3442  0.4585  0.8559
   53CHL1   C11 3882   2.964   1.637   4.090  0.1192  0.1490  0.5264
   53CHL1  H11A 3883   3.049   1.567   4.081 -1.0331 -1.3307  0.7380
   53CHL1  H11B 3884   2.898   1.586   4.017  0.9163 -0.0542 -0.0635
   53CHL1    C9 3885   3.021   1.777   4.033  0.2128  0.0270 -0.1774
   53CHL1    H9 3886   2.924   1.828   4.018 -0.4513 -0.7436  1.2573
   53CHL1   C10 3887   3.074   1.787   3.883  0.2231  0.2865 -0.4748
   53CHL1   C19 3888   3.195   1.692   3.867  0.5161  0.8255 -0.1355
   53CHL1  H19A 3889   3.273   1.725   3.939  0.1563 -0.4007  0.8473
   53CHL1  H19B 3890   3.162   1.588   3.887  2.2891  0.2368 -0.0950
   53CHL1  H19C 3891   3.234   1.690   3.763  1.8544  0.6661  0.3537
   53CHL1    C1 3892   2.965   1.743   3.777  0.3209 -0.5684 -1.2808
   53CHL1   H1A 3893   2.941   1.635   3.788  1.8546 -0.7636  0.7159
   53CHL1   H1B 3894   2.885   1.816   3.802 -1.1765 -1.6515 -2.7532
   53CHL1    C2 3895   3.003   1.760   3.628  0.0557 -0.1402 -0.3512
   53CHL1   H2A 3896   2.912   1.756   3.565 -0.6252  0.6965  0.5456
   53CHL1   H2B 3897   3.087   1.697   3.593  2.5030  1.8585  1.5179
   53CHL1   C20 3898   2.988   1.616   4.576  0.6148 -0.3247  0.2101
   53CHL1   H20 3899   3.084   1.561   4.566 -1.1535 -3.3770 -1.5722
   53CHL1   C21 3900   2.885   1.505   4.542  0.8108  0.1511 -0.0914
   53CHL1  H21A 3901   2.876   1.432   4.624  0.1685 -0.0607 -0.3466
   53CHL1  H21B 3902   2.904   1.435   4.458 -3.0909 -2.2912  0.8249
   53CHL1  H21C 3903   2.786   1.553   4.526 -1.1149 -2.8968  1.8141
   53CHL1   C22 3904   2.953   1.654   4.718 -0.5331 -1.1880 -0.1065
   53CHL1  H22A 3905   2.980   1.761   4.732  2.1965 -1.7276 -0.5921
   53CHL1  H22B 3906   2.845   1.635   4.734 -1.1187  2.0973  0.4632
   53CHL1   C23 3907   3.041   1.566   4.808  0.0375 -0.0424 -0.5708
   53CHL1  H23A 3908   3.028   1.460   4.775 -0.6978  0.5472 -2.3327
   53CHL1  H23B 3909   3.149   1.587   4.794  0.0532 -0.1157 -0.5617
   53CHL1   C24 3910   2.985   1.594   4.955 -0.6371 -0.2678  0.2226
   53CHL1  H24A 3911   3.024   1.694   4.986  0.0482 -1.0769  2.1266
   53CHL1  H24B 3912   2.874   1.591   4.952 -0.7695  1.8927  1.0695
   53CHL1   C25 3913   3.030   1.485   5.056  0.1592  0.0010 -0.4466
   53CHL1   H25 3914   2.990   1.391   5.014 -1.3659 -0.1926  1.2821
   53CHL1   C26 3915   3.180   1.471   5.065 -0.1245  0.5589  0.4849
   53CHL1  H26A 3916   3.195   1.385   5.134 -1.5353  0.6227  0.9140
   53CHL1  H26B 3917   3.227   1.439   4.970 -0.4699  1.9505 -0.1669
   53CHL1  H26C 3918   3.230   1.560   5.108 -1.0850  1.4185 -0.1509
   53CHL1   C27 3919   2.957   1.507   5.191 -0.6133 -0.1546  0.3265
   53CHL1  H27A 3920   2.856   1.463   5.181 -1.0608  0.9554 -0.2152
   53CHL1  H27B 3921   2.992   1.461   5.286  0.1288  3.2697  1.8580
   53CHL1  H27C 3922   2.930   1.613   5.213 -4.2056 -0.8884  0.0757
   54CHL1    C3 3923   1.913   3.776   3.709 -0.3766 -0.1515  0.5686
   54CHL1    H3 3924   1.840   3.692   3.704 -0.5593  0.0960 -2.0243
   54CHL1    O3 3925   1.916   3.811   3.568 -0.0385  0.8530 -0.3144
   54CHL1   H3' 3926   1.936   3.905   3.559  3.7098  0.2231 -0.1110
   54CHL1    C4 3927   1.855   3.891   3.794 -0.2921 -0.0027  0.4314
   54CHL1   H4A 3928   1.926   3.972   3.768 -0.8191  0.6149  0.8876
   54CHL1   H4B 3929   1.757   3.912   3.746  0.1817 -0.9150 -0.9962
   54CHL1    C5 3930   1.850   3.858   3.938 -1.3905 -0.4185  0.0246
   54CHL1    C6 3931   1.734   3.854   4.006 -0.2403  0.4164 -0.2027
   54CHL1    H6 3932   1.639   3.884   3.961 -0.8122 -1.6182 -0.4495
   54CHL1    C7 3933   1.715   3.819   4.153 -0.7976  0.2350 -0.2195
   54CHL1   H7A 3934   1.650   3.897   4.198  0.3651  1.0784  0.0421
   54CHL1   H7B 3935   1.666   3.721   4.171  2.9880 -1.6073  1.1902
   54CHL1    C8 3936   1.862   3.826   4.212 -0.0883 -0.3229 -0.4046
   54CHL1    H8 3937   1.904   3.930   4.211 -0.0948 -0.3214 -1.0452
   54CHL1   C14 3938   1.856   3.775   4.353  0.3805  0.2631  0.5961
   54CHL1   H14 3939   1.826   3.668   4.345  0.8848  0.0977  0.9179
   54CHL1   C15 3940   1.759   3.842   4.455  0.0797 -0.2185 -0.4207
   54CHL1  H15A 3941   1.767   3.953   4.444  0.7575 -0.1365  0.7438
   54CHL1  H15B 3942   1.657   3.822   4.417 -0.3527 -0.0842  0.6656
   54CHL1   C16 3943   1.807   3.796   4.589  0.6182 -0.7864  0.2791
   54CHL1  H16A 3944   1.833   3.894   4.634 -3.3962  1.0804 -0.9942
   54CHL1  H16B 3945   1.729   3.748   4.651 -0.1617 -0.2622 -0.2691
   54CHL1   C17 3946   1.932   3.710   4.569 -0.4378  0.2364  0.6784
   54CHL1   H17 3947   1.905   3.603   4.559  1.2350 -0.3284  1.8365
   54CHL1   C13 3948   1.984   3.761   4.429 -0.5734 -0.2421 -0.0554
   54CHL1   C18 3949   2.067   3.895   4.444 -0.1291  0.1326  0.2170
   54CHL1  H18A 3950   2.163   3.862   4.488 -0.8775 -2.4971  0.0116
   54CHL1  H18B 3951   2.086   3.951   4.350  2.2309 -0.2491  0.4157
   54CHL1  H18C 3952   2.013   3.956   4.520 -1.1846 -0.5736  0.0442
   54CHL1   C12 3953   2.072   3.661   4.356  0.4969  0.5478  0.6574
   54CHL1  H12A 3954   2.166   3.635   4.408  0.7475 -2.4410 -1.0584
   54CHL1  H12B 3955   2.018   3.566   4.342  2.7733 -0.6490 -0.5937
   54CHL1   C11 3956   2.102   3.713   4.213 -0.4924  0.2651  0.4226
   54CHL1  H11A 3957   2.170   3.797   4.238 -1.2671  1.7162 -2.0382
   54CHL1  H11B 3958   2.165   3.644   4.153 -0.5587  0.9995 -0.5178
   54CHL1    C9 3959   1.969   3.754   4.131 -0.2158  1.1007  0.6077
   54CHL1    H9 3960   1.923   3.653   4.120  1.2195  0.2716  1.7552
   54CHL1   C10 3961   1.989   3.808   3.993  0.4542  0.0108  0.2516
   54CHL1   C19 3962   2.091   3.930   4.003  0.5581  0.0362 -0.5971
   54CHL1  H19A 3963   2.183   3.894   4.053 -1.0404 -0.1281  2.4118
   54CHL1  H19B 3964   2.109   3.971   3.901 -1.6582  3.2650  0.1369
   54CHL1  H19C 3965   2.047   4.015   4.059  1.3709  0.5049 -0.6529
   54CHL1    C1 3966   2.049   3.694   3.899  0.3275 -0.6280  0.2972
   54CHL1   H1A 3967   2.154   3.674   3.928  0.5176  2.1456  1.8507
   54CHL1   H1B 3968   1.980   3.608   3.905 -2.8702  1.7230 -0.0826
   54CHL1    C2 3969   2.056   3.739   3.752 -0.2957 -0.3204  0.8207
   54CHL1   H2A 3970   2.097   3.652   3.698  2.0434 -0.0093  1.9850
   54CHL1   H2B 3971   2.128   3.822   3.736 -1.3761  1.1187  2.9332
   54CHL1   C20 3972   2.030   3.708   4.692 -0.2928 -1.1026  0.6950
   54CHL1   H20 3973   2.071   3.809   4.714  2.4878 -1.5517 -1.8358
   54CHL1   C21 3974   2.154   3.616   4.675  0.8220  0.8824 -0.3974
   54CHL1  H21A 3975   2.201   3.578   4.768  2.6874 -3.8460 -2.9168
   54CHL1  H21B 3976   2.230   3.631   4.595  0.9661  1.0521 -0.2281
   54CHL1  H21C 3977   2.095   3.533   4.630  2.1582  0.9099 -2.2913
   54CHL1   C22 3978   1.944   3.665   4.815 -0.6017 -0.2893  0.4567
   54CHL1  H22A 3979   1.849   3.722   4.818  0.8328  2.2947  0.0575
   54CHL1  H22B 3980   1.930   3.554   4.816  2.2550 -0.7640 -1.4225
   54CHL1   C23 3981   2.011   3.702   4.949 -0.0499  0.0474  0.4276
   54CHL1  H23A 3982   2.106   3.645   4.960  0.0684 -1.0258 -3.9248
   54CHL1  H23B 3983   2.034   3.811   4.951 -1.8674  0.5792 -2.1715
   54CHL1   C24 3984   1.908   3.683   5.057  0.1531  0.1037 -0.4651
   54CHL1  H24A 3985   1.832   3.763   5.039  1.9217  2.7746  2.8397
   54CHL1  H24B 3986   1.857   3.586   5.040 -0.6539  0.5668 -0.7637
   54CHL1   C25 3987   1.950   3.719   5.202 -0.5881 -0.7604 -0.1624
   54CHL1   H25 3988   1.972   3.827   5.201  0.6817 -1.0052 -0.9647
   54CHL1   C26 3989   1.829   3.696   5.290 -0.2773 -0.0456 -0.4810
   54CHL1  H26A 3990   1.726   3.719   5.254 -0.9341 -0.5792  0.9780
   54CHL1  H26B 3991   1.822   3.586   5.308  1.1910 -0.6507 -3.0150
   54CHL1  H26C 3992   1.846   3.751   5.385  3.2010 -1.0653 -0.3674
   54CHL1   C27 3993   2.064   3.632   5.251 -0.2972  0.1306  0.5600
   54CHL1  H27A 3994   2.151   3.648   5.183  0.3994  0.2642  1.4581
   54CHL1  H27B 3995   2.098   3.657   5.354  2.1805 -1.0128  0.0915
   54CHL1  H27C 3996   2.028   3.527   5.254 -2.5491  0.7207 -1.8702
   55CHL1    C3 3997   4.232   5.756   3.936 -0.6524  0.1982 -0.1790
   55CHL1    H3 3998   4.217   5.866   3.931  0.2298  0.3309  0.0268
   55CHL1    O3 3999   4.224   5.696   3.812  0.2375 -0.1797 -0.4332
   55CHL1   H3' 4000   4.140   5.724   3.774 -1.4495 -1.1072  2.3224
   55CHL1    C4 4001   4.379   5.722   3.981 -0.2381  0.2179 -0.2328
   55CHL1   H4A 4002   4.411   5.616   3.974 -0.1767  0.0612  1.7394
   55CHL1   H4B 4003   4.444   5.776   3.910  1.2745  0.8748  1.5669
   55CHL1    C5 4004   4.402   5.764   4.125 -0.1191  0.1104  0.7852
   55CHL1    C6 4005   4.503   5.842   4.164 -0.7310  0.0855 -0.4826
   55CHL1    H6 4006   4.566   5.885   4.086 -0.2823  1.1997  0.4723
   55CHL1    C7 4007   4.527   5.885   4.308  0.3871  0.2071  0.2467
   55CHL1   H7A 4008   4.636   5.877   4.325  0.9076 -1.9098 -3.0950
   55CHL1   H7B 4009   4.490   5.988   4.327 -1.4742 -0.5029  0.6994
   55CHL1    C8 4010   4.458   5.792   4.406 -0.3472  0.5445 -0.1578
   55CHL1    H8 4011   4.504   5.692   4.396  1.5654  1.2758  0.7706
   55CHL1   C14 4012   4.473   5.855   4.542 -1.0822  0.0148 -0.2680
   55CHL1   H14 4013   4.423   5.953   4.525  0.1813  0.7718  0.2805
   55CHL1   C15 4014   4.618   5.886   4.594 -0.8510  0.3611  0.7029
   55CHL1  H15A 4015   4.682   5.798   4.573 -1.3896 -0.3289  1.8325
   55CHL1  H15B 4016   4.664   5.973   4.542  3.5082 -0.9033  1.9908
   55CHL1   C16 4017   4.607   5.904   4.742  0.3068 -0.3015  0.2480
   55CHL1  H16A 4018   4.667   5.828   4.796  1.4417  1.6469  1.8905
   55CHL1  H16B 4019   4.644   6.003   4.777  0.8989 -0.9474  1.5143
   55CHL1   C17 4020   4.455   5.876   4.780  0.4753 -0.0966 -0.7840
   55CHL1   H17 4021   4.402   5.973   4.769 -0.1397 -0.3272  0.0433
   55CHL1   C13 4022   4.402   5.794   4.664  0.1582 -0.8014  0.2799
   55CHL1   C18 4023   4.456   5.652   4.677  0.4098  0.5522  0.8054
   55CHL1  H18A 4024   4.433   5.598   4.583 -1.4528 -1.2880  2.2350
   55CHL1  H18B 4025   4.562   5.642   4.708  0.7275  1.2830 -0.0071
   55CHL1  H18C 4026   4.396   5.601   4.755  1.2833  0.3955  1.3889
   55CHL1   C12 4027   4.250   5.788   4.620 -0.3718  0.4413 -0.4909
   55CHL1  H12A 4028   4.191   5.732   4.695  1.4646 -0.4750  0.3529
   55CHL1  H12B 4029   4.210   5.892   4.627 -0.0334  0.6008 -0.8985
   55CHL1   C11 4030   4.227   5.726   4.482 -0.4903  0.4970  0.5111
   55CHL1  H11A 4031   4.249   5.618   4.497  1.0106  0.7382  0.2293
   55CHL1  H11B 4032   4.119   5.744   4.460  0.0279  2.3483 -0.8442
   55CHL1    C9 4033   4.309   5.780   4.367  0.1090  0.8069 -0.5939
   55CHL1    H9 4034   4.269   5.882   4.351  1.0203  0.9966 -1.7510
   55CHL1   C10 4035   4.293   5.710   4.223 -0.2504 -0.3874 -0.1537
   55CHL1   C19 4036   4.327   5.559   4.237 -0.8861 -0.0113 -0.8522
   55CHL1  H19A 4037   4.434   5.548   4.263 -0.7937  2.7313  0.2795
   55CHL1  H19B 4038   4.268   5.520   4.322  0.3648 -0.7635 -0.2930
   55CHL1  H19C 4039   4.300   5.507   4.143 -0.2062  0.8387 -1.5483
   55CHL1    C1 4040   4.149   5.729   4.171 -0.0833 -0.4027  0.5727
   55CHL1   H1A 4041   4.082   5.671   4.239  1.4858 -0.0839  2.4949
   55CHL1   H1B 4042   4.122   5.836   4.186  0.7984 -0.2353  1.0516
   55CHL1    C2 4043   4.129   5.688   4.026 -0.5502 -0.4604 -0.2953
   55CHL1   H2A 4044   4.026   5.714   3.994 -1.0697 -2.4930 -0.3786
   55CHL1   H2B 4045   4.143   5.579   4.015  0.8885 -0.4401  0.9524
   55CHL1   C20 4046   4.417   5.832   4.925  0.2079 -0.2508 -0.0552
   55CHL1   H20 4047   4.459   5.730   4.937  1.3417 -0.0144 -1.7209
   55CHL1   C21 4048   4.267   5.815   4.937 -0.6575  0.1813  0.2534
   55CHL1  H21A 4049   4.245   5.807   5.046 -0.4910  2.4535  0.4995
   55CHL1  H21B 4050   4.234   5.717   4.895  0.9418 -0.6053  0.7549
   55CHL1  H21C 4051   4.200   5.889   4.888  0.6750 -0.1492 -2.2025
   55CHL1   C22 4052   4.489   5.926   5.030 -0.3962 -0.0546  0.5769
   55CHL1  H22A 4053   4.595   5.947   5.003 -0.2996 -0.6050  0.5102
   55CHL1  H22B 4054   4.434   6.022   5.041 -1.5034 -0.6739  0.6301
   55CHL1   C23 4055   4.498   5.871   5.182  0.9019 -0.2421  0.4368
   55CHL1  H23A 4056   4.394   5.849   5.215  0.2136  0.8034 -0.8989
   55CHL1  H23B 4057   4.553   5.775   5.177 -0.7238 -1.1874 -0.1087
   55CHL1   C24 4058   4.551   5.977   5.283  0.6270  0.3587 -0.5791
   55CHL1  H24A 4059   4.615   6.031   5.210  1.7433 -0.6770 -0.4123
   55CHL1  H24B 4060   4.461   6.033   5.315  1.2479  0.2017  1.6338
   55CHL1   C25 4061   4.619   5.910   5.406  0.0815 -0.1694  0.2167
   55CHL1   H25 4062   4.680   5.824   5.370  0.1789  0.1722 -0.4610
   55CHL1   C26 4063   4.696   6.009   5.486  0.3190  0.4348 -0.0362
   55CHL1  H26A 4064   4.771   6.061   5.422  1.5344 -0.5004  0.5802
   55CHL1  H26B 4065   4.633   6.092   5.524  0.6834  0.0787  1.3995
   55CHL1  H26C 4066   4.755   5.961   5.566  1.3592  2.7757  0.6908
   55CHL1   C27 4067   4.521   5.835   5.495  0.9139  0.1837  0.3690
   55CHL1  H27A 4068   4.586   5.772   5.559  1.3334 -0.7100 -0.8935
   55CHL1  H27B 4069   4.475   5.901   5.572  0.1005 -0.6425  0.6109
   55CHL1  H27C 4070   4.443   5.781   5.436 -0.0502  1.1601  0.7033
   56CHL1    C3 4071   6.361   2.586   4.025  0.3437 -0.2042 -0.4117
   56CHL1    H3 4072   6.292   2.665   4.062  1.8065  0.8075  0.2951
   56CHL1    O3 4073   6.354   2.592   3.886 -0.4735  0.2522  0.2174
   56CHL1   H3' 4074   6.440   2.560   3.856 -0.8338  0.0735 -0.6572
   56CHL1    C4 4075   6.501   2.621   4.082  0.2766 -0.3107 -0.3478
   56CHL1   H4A 4076   6.578   2.545   4.054  0.6149 -0.7510  1.6617
   56CHL1   H4B 4077   6.534   2.722   4.049 -2.3950  0.5653 -0.5857
   56CHL1    C5 4078   6.495   2.611   4.232  0.6734  0.1677 -0.5895
   56CHL1    C6 4079   6.536   2.707   4.316 -0.4167 -0.6887  0.2141
   56CHL1    H6 4080   6.578   2.799   4.274 -1.4913 -0.5075 -0.5024
   56CHL1    C7 4081   6.528   2.701   4.465 -0.0732 -0.0406  0.7281
   56CHL1   H7A 4082   6.619   2.740   4.516 -0.0523  0.7337  0.1177
   56CHL1   H7B 4083   6.436   2.755   4.494 -0.2199  0.6240 -0.8949
   56CHL1    C8 4084   6.525   2.560   4.513  0.0712  0.0091 -0.2717
   56CHL1    H8 4085   6.626   2.517   4.498 -0.6971 -1.9828 -0.0231
   56CHL1   C14 4086   6.482   2.571   4.661  0.0985  0.2714 -0.0352
   56CHL1   H14 4087   6.379   2.609   4.649 -0.0099 -0.1481 -0.4986
   56CHL1   C15 4088   6.548   2.671   4.756 -0.4789  0.7196  0.3185
   56CHL1  H15A 4089   6.656   2.660   4.736 -0.3546 -0.1268  1.3466
   56CHL1  H15B 4090   6.515   2.776   4.743  2.3638  1.6560 -0.0216
   56CHL1   C16 4091   6.508   2.614   4.893  0.0093  0.6284 -0.7042
   56CHL1  H16A 4092   6.605   2.597   4.945 -0.4560  1.5775  0.5182
   56CHL1  H16B 4093   6.442   2.674   4.959  1.1274 -0.6611  1.7342
   56CHL1   C17 4094   6.438   2.479   4.876  0.2321  0.3857  0.2976
   56CHL1   H17 4095   6.335   2.521   4.870  0.3822  0.8064  0.5855
   56CHL1   C13 4096   6.471   2.435   4.729 -0.1752  0.6208 -0.2020
   56CHL1   C18 4097   6.608   2.368   4.723 -0.1160 -0.4499  0.1503
   56CHL1  H18A 4098   6.670   2.437   4.785  1.5279 -1.9269  0.2420
   56CHL1  H18B 4099   6.594   2.267   4.769 -1.5151 -0.2865  0.1108
   56CHL1  H18C 4100   6.649   2.338   4.624  2.1717 -2.9820  1.7037
   56CHL1   C12 4101   6.359   2.355   4.660 -0.3251 -0.2212 -0.2068
   56CHL1  H12A 4102   6.364   2.252   4.700  0.0052 -1.0342 -2.1965
   56CHL1  H12B 4103   6.258   2.394   4.685 -0.0838  1.2112 -1.2914
   56CHL1   C11 4104   6.373   2.340   4.508  0.1248  0.2521  0.8880
   56CHL1  H11A 4105   6.466   2.280   4.496 -1.4556 -2.1697  0.1132
   56CHL1  H11B 4106   6.289   2.286   4.460 -0.1798  0.2029  1.4771
   56CHL1    C9 4107   6.413   2.481   4.434 -1.1816  0.2328 -0.8409
   56CHL1    H9 4108   6.323   2.546   4.437 -0.5269  1.2324 -1.7640
   56CHL1   C10 4109   6.445   2.474   4.284 -0.2296 -0.4172 -0.1502
   56CHL1   C19 4110   6.556   2.365   4.266 -0.5568 -0.3022 -0.7556
   56CHL1  H19A 4111   6.517   2.264   4.287  2.1988 -1.9752 -2.9207
   56CHL1  H19B 4112   6.581   2.359   4.157  0.7986  0.6701 -0.5317
   56CHL1  H19C 4113   6.649   2.381   4.326  0.5777 -1.1436 -2.2074
   56CHL1    C1 4114   6.309   2.435   4.209 -1.5403 -0.3569  0.3833
   56CHL1   H1A 4115   6.284   2.330   4.233  0.3920 -1.0866 -0.5597
   56CHL1   H1B 4116   6.227   2.498   4.251 -1.0406 -0.3230  1.3481
   56CHL1    C2 4117   6.315   2.441   4.064  0.0152 -0.0887 -0.2848
   56CHL1   H2A 4118   6.216   2.420   4.017  0.4950  1.1814 -1.9362
   56CHL1   H2B 4119   6.384   2.370   4.015  0.0390  1.3704 -2.5061
   56CHL1   C20 4120   6.451   2.365   4.981  0.0216  0.3541  0.6863
   56CHL1   H20 4121   6.544   2.308   4.963  0.2146  1.1231 -0.8736
   56CHL1   C21 4122   6.315   2.292   4.979 -0.1097  0.3919 -0.5944
   56CHL1  H21A 4123   6.335   2.196   5.032  0.9173  1.2261  0.5853
   56CHL1  H21B 4124   6.278   2.262   4.879 -0.5907 -1.3293  0.0644
   56CHL1  H21C 4125   6.232   2.342   5.034 -1.8887 -2.8397 -0.0393
   56CHL1   C22 4126   6.460   2.420   5.128  0.0007  0.4150  0.4163
   56CHL1  H22A 4127   6.563   2.458   5.146  0.7599 -1.7631  0.9100
   56CHL1  H22B 4128   6.386   2.502   5.134 -0.0677  0.3278  0.7261
   56CHL1   C23 4129   6.430   2.316   5.244 -0.3305  0.1769 -0.0156
   56CHL1  H23A 4130   6.418   2.375   5.337  0.2879 -1.1731  0.9468
   56CHL1  H23B 4131   6.344   2.250   5.219  0.3163  0.2434 -2.8070
   56CHL1   C24 4132   6.552   2.226   5.257  0.3071 -0.0067  0.2823
   56CHL1  H24A 4133   6.595   2.196   5.159  0.7083  0.4854  0.3068
   56CHL1  H24B 4134   6.628   2.286   5.311  1.4401 -1.9321  0.9042
   56CHL1   C25 4135   6.532   2.090   5.332  0.1925  0.7551 -0.6007
   56CHL1   H25 4136   6.492   2.104   5.435 -1.6581 -0.6980 -1.0644
   56CHL1   C26 4137   6.428   1.996   5.271 -0.1758 -0.4652 -0.4580
   56CHL1  H26A 4138   6.431   1.905   5.336 -0.1278  0.9630  1.6368
   56CHL1  H26B 4139   6.328   2.035   5.297  0.3184 -0.1920  1.1503
   56CHL1  H26C 4140   6.449   1.974   5.164  0.0336  0.9732 -0.7228
   56CHL1   C27 4141   6.672   2.030   5.337 -0.2150  0.1039  0.6547
   56CHL1  H27A 4142   6.739   2.087   5.405 -0.7748  1.1521  0.3464
   56CHL1  H27B 4143   6.657   1.924   5.366  2.0258 -0.0172  1.5712
   56CHL1  H27C 4144   6.717   2.018   5.236 -0.7199 -1.5579  0.5946
   57SAPC     N 4145   4.667   6.018   8.193  0.0329  0.5517  0.3656
   57SAPC   C12 4146   4.757   6.116   8.134 -0.4708 -0.2530 -0.7521
   57SAPC  H12A 4147   4.860   6.085   8.137 -0.2228  0.5550  1.1057
   57SAPC  H12B 4148   4.748   6.203   8.199  0.4666  0.1457 -1.1458
   57SAPC   C13 4149   4.717   5.999   8.331 -0.4136 -0.1556  0.4815
   57SAPC  H13A 4150   4.811   5.946   8.337  0.0281  0.7636  2.4693
   57SAPC  H13B 4151   4.740   6.095   8.374  2.4791 -0.6616  0.2380
   57SAPC  H13C 4152   4.646   5.944   8.391  0.5508  0.0608  1.8672
   57SAPC   C14 4153   4.525   6.071   8.191 -1.0689 -0.6586  0.2197
   57SAPC  H14A 4154   4.480   6.087   8.094 -1.6549  1.3489  0.7806
   57SAPC  H14B 4155   4.458   6.006   8.246 -0.5307 -1.1169  0.3456
   57SAPC  H14C 4156   4.523   6.171   8.231 -0.2475 -0.3964 -0.3780
   57SAPC   C15 4157   4.672   5.881   8.120 -0.4414  0.1886  0.5263
   57SAPC  H15A 4158   4.761   5.827   8.149 -0.8376 -2.2905 -2.3763
   57SAPC  H15B 4159   4.582   5.830   8.149 -0.3729 -0.4688 -0.3683
   57SAPC  H15C 4160   4.665   5.901   8.014 -0.5805 -2.2279  0.0175
   57SAPC   C11 4161   4.711   6.184   8.003  0.9756  0.3671 -0.0625
   57SAPC  H11A 4162   4.802   6.226   7.956  0.4614  0.0296 -1.4378
   57SAPC  H11B 4163   4.637   6.262   8.031  1.5428  1.3325 -1.1711
   57SAPC     P 4164   4.622   6.131   7.760 -0.6349  0.0335 -0.2680
   57SAPC   O13 4165   4.758   6.154   7.702 -0.1394  0.1610 -0.3616
   57SAPC   O14 4166   4.541   6.028   7.693 -0.1121 -0.0950 -0.1703
   57SAPC   O12 4167   4.652   6.087   7.912 -0.0930  0.0619 -0.2470
   57SAPC   O11 4168   4.537   6.265   7.761  0.1638  0.2573 -0.2654
   57SAPC    C1 4169   4.398   6.277   7.777 -0.0014  0.3068  0.6611
   57SAPC    HA 4170   4.335   6.197   7.821 -0.8139 -0.5792 -1.9301
   57SAPC    HB 4171   4.376   6.369   7.836  0.0109  0.5958  0.2180
   57SAPC    C2 4172   4.324   6.302   7.639 -0.1679  0.2227  0.2039
   57SAPC    HS 4173   4.215   6.318   7.655 -0.0671  0.0881  1.0767
   57SAPC   O21 4174   4.356   6.192   7.545  0.1494 -0.1120 -0.1564
   57SAPC   C21 4175   4.278   6.086   7.569  0.1314  0.2715  0.9553
   57SAPC   O22 4176   4.189   6.082   7.652  0.0450 -0.3570 -0.1770
   57SAPC   C22 4177   4.301   5.981   7.465 -0.4262 -0.0690 -0.2555
   57SAPC   H2R 4178   4.375   5.903   7.494  0.9968  0.6651 -1.7615
   57SAPC   H2S 4179   4.198   5.940   7.458 -0.4921 -0.3143  1.6426
   57SAPC    C3 4180   4.384   6.424   7.564 -0.4335 -0.2306 -1.4074
   57SAPC    HX 4181   4.488   6.392   7.547 -0.1018 -1.3132  1.9140
   57SAPC    HY 4182   4.399   6.517   7.622  1.7563 -1.6636  0.4725
   57SAPC   O31 4183   4.317   6.453   7.440 -0.0284  0.9265  0.2958
   57SAPC   C31 4184   4.377   6.542   7.365 -1.0138  0.2975 -0.4304
   57SAPC   O32 4185   4.475   6.605   7.388 -0.3256  0.0555 -0.6149
   57SAPC   C32 4186   4.291   6.575   7.236 -0.2962 -0.0501  0.6965
   57SAPC   H2X 4187   4.193   6.617   7.268 -0.4548 -0.1958  0.4056
   57SAPC   H2Y 4188   4.266   6.479   7.186 -0.3318  1.5656 -2.6424
   57SAPC   C23 4189   4.355   6.047   7.333  0.0273 -0.2213 -0.1723
   57SAPC   H3R 4190   4.460   6.069   7.361  0.4387  0.2973 -2.0080
   57SAPC   H3S 4191   4.293   6.135   7.305 -1.0960 -0.3827  1.6119
   57SAPC   C24 4192   4.362   5.945   7.224 -0.2321  0.0899  1.2347
   57SAPC   H4R 4193   4.416   5.864   7.278 -0.9470 -0.7763  0.6865
   57SAPC   H4S 4194   4.421   5.984   7.139  0.2866 -0.9307  1.1101
   57SAPC   C25 4195   4.228   5.891   7.180  0.0252  0.8843 -0.2012
   57SAPC   H5R 4196   4.138   5.917   7.237 -0.5678 -1.9275  0.2845
   57SAPC   C26 4197   4.204   5.813   7.065 -0.2126 -0.5085 -0.2740
   57SAPC   H6R 4198   4.102   5.778   7.045 -0.6434 -1.9543  3.7487
   57SAPC   C27 4199   4.312   5.776   6.965  0.3279  0.2688 -0.2424
   57SAPC   H7R 4200   4.284   5.687   6.905 -1.2307  0.0053  0.8118
   57SAPC   H7S 4201   4.397   5.745   7.030 -0.8941  1.4770  2.0352
   57SAPC   C28 4202   4.362   5.890   6.882 -0.3517 -0.4262  0.1256
   57SAPC   H8R 4203   4.309   5.984   6.905 -1.0085 -1.0559  1.2455
   57SAPC   C29 4204   4.475   5.893   6.804 -0.6480  0.6212  0.7749
   57SAPC   H9R 4205   4.505   5.977   6.738 -1.1884  1.7006  1.8656
   57SAPC  C210 4206   4.555   5.766   6.774 -0.0208 -0.2076 -0.6028
   57SAPC  H10R 4207   4.519   5.712   6.684  1.8811 -2.5247 -0.1014
   57SAPC  H10S 4208   4.541   5.683   6.847  2.3399 -0.1288  0.0271
   57SAPC  C211 4209   4.707   5.780   6.759  0.5094  0.1761 -0.2561
   57SAPC  H11R 4210   4.767   5.757   6.848 -0.4729  0.9122  0.6298
   57SAPC  C212 4211   4.764   5.833   6.655  0.0169 -0.1886 -0.2767
   57SAPC  H12R 4212   4.873   5.837   6.643  0.3335  0.4020  2.1471
   57SAPC  C213 4213   4.699   5.880   6.530  0.2461  1.1314  1.4588
   57SAPC  H13R 4214   4.727   5.987   6.522  2.3486  0.6454  1.7247
   57SAPC  H13S 4215   4.588   5.875   6.532  0.1084 -0.9825 -2.2438
   57SAPC  C214 4216   4.737   5.819   6.393 -0.5773  0.1952 -0.5707
   57SAPC  H14R 4217   4.756   5.711   6.406 -1.5222  0.0942  0.0492
   57SAPC  C215 4218   4.770   5.885   6.281 -0.6351 -0.2801 -0.6230
   57SAPC  H15R 4219   4.796   5.819   6.197  1.0681 -2.7544  1.7179
   57SAPC  C216 4220   4.765   6.032   6.255 -0.2004  0.4727 -0.0224
   57SAPC  H16R 4221   4.859   6.085   6.283  0.3537  0.8918 -2.4420
   57SAPC  H16S 4222   4.690   6.083   6.318 -3.5279 -2.7324 -1.0084
   57SAPC  C217 4223   4.735   6.082   6.114  0.1232  0.1160  0.5152
   57SAPC  H17R 4224   4.735   6.193   6.112  1.5501  0.1367 -1.3797
   57SAPC  H17S 4225   4.631   6.056   6.082  1.0623  0.5717 -3.5302
   57SAPC  C218 4226   4.833   6.025   6.013  0.0957  0.0621  0.6858
   57SAPC  H18R 4227   4.810   5.918   5.995 -0.1819  0.4565 -1.7734
   57SAPC  H18S 4228   4.939   6.038   6.044 -0.3710  3.0227  1.3516
   57SAPC  C219 4229   4.834   6.088   5.873  0.0712 -0.0024 -0.0986
   57SAPC  H19R 4230   4.731   6.087   5.832  0.2266  0.6219 -0.5174
   57SAPC  H19S 4231   4.889   6.022   5.803  1.1474 -0.4019  1.0712
   57SAPC  C220 4232   4.904   6.223   5.875 -0.2253  0.7992  0.6688
   57SAPC  H20R 4233   5.011   6.214   5.902 -0.4498  2.3713  2.2141
   57SAPC  H20S 4234   4.860   6.275   5.962 -2.3413 -1.3114  0.9767
   57SAPC  H20T 4235   4.899   6.285   5.783 -1.2075 -0.8042 -0.4250
   57SAPC   C33 4236   4.356   6.670   7.128 -0.3564 -0.4699  1.1071
   57SAPC   H3X 4237   4.451   6.634   7.084 -0.1416 -0.8992  1.8963
   57SAPC   H3Y 4238   4.382   6.768   7.175 -0.3480 -1.2230  2.7426
   57SAPC   C34 4239   4.257   6.700   7.011 -0.6477  0.3778 -0.0600
   57SAPC   H4X 4240   4.164   6.744   7.054  0.1042  1.6150  0.3366
   57SAPC   H4Y 4241   4.231   6.603   6.962 -1.1686  0.4482  0.0643
   57SAPC   C35 4242   4.312   6.787   6.893  0.1072  0.4311 -0.2378
   57SAPC   H5X 4243   4.401   6.744   6.842  0.0495 -0.0647  0.0779
   57SAPC   H5Y 4244   4.345   6.887   6.929 -0.1382 -0.1721  1.8142
   57SAPC   C36 4245   4.207   6.817   6.783  0.2527 -0.3898 -0.9648
   57SAPC   H6X 4246   4.120   6.865   6.832  0.5018 -1.0973  0.2224
   57SAPC   H6Y 4247   4.176   6.716   6.750 -1.1677 -0.9516  1.7581
   57SAPC   C37 4248   4.269   6.901   6.674  0.4771 -0.0305 -0.1871
   57SAPC   H7X 4249   4.359   6.850   6.633 -0.5491 -0.9305 -1.4158
   57SAPC   H7Y 4250   4.302   7.002   6.705  0.8901 -0.1576 -0.2135
   57SAPC   C38 4251   4.174   6.914   6.548  0.0487 -0.3702  0.0018
   57SAPC   H8X 4252   4.067   6.933   6.567  0.4647  0.9510  1.2294
   57SAPC   H8Y 4253   4.182   6.816   6.495 -0.8741  0.0743 -0.9822
   57SAPC   C39 4254   4.237   7.026   6.460  0.0114 -0.3269 -0.0373
   57SAPC   H9X 4255   4.348   7.020   6.459  0.2628  1.5380 -4.0160
   57SAPC   H9Y 4256   4.201   7.112   6.521  0.2045 -0.0989 -0.2426
   57SAPC  C310 4257   4.169   7.035   6.322  0.4165  0.2123 -0.3411
   57SAPC  H10X 4258   4.059   7.027   6.341  0.4541  0.7244  0.0883
   57SAPC  H10Y 4259   4.197   6.947   6.260  0.0361 -1.9942  2.3988
   57SAPC  C311 4260   4.194   7.162   6.239 -0.4579  0.4692 -0.0602
   57SAPC  H11X 4261   4.303   7.173   6.219 -1.0729  3.3219 -2.7784
   57SAPC  H11Y 4262   4.153   7.250   6.294  0.7650  1.1680 -0.2401
   57SAPC  C312 4263   4.128   7.143   6.104  0.7936  0.3284 -0.8283
   57SAPC  H12X 4264   4.017   7.147   6.111  0.7996  2.8000 -1.3740
   57SAPC  H12Y 4265   4.151   7.043   6.060  0.5981  0.1009 -0.4148
   57SAPC  C313 4266   4.179   7.258   6.019  0.1859  0.8124 -0.3339
   57SAPC  H13X 4267   4.290   7.246   6.017 -0.0300 -2.1732  0.8154
   57SAPC  H13Y 4268   4.164   7.352   6.075  0.6545  0.1093  1.0128
   57SAPC  C314 4269   4.108   7.255   5.882  0.4419  0.0366  0.2390
   57SAPC  H14X 4270   3.998   7.255   5.896  0.1644 -2.5660 -1.3106
   57SAPC  H14Y 4271   4.134   7.161   5.829 -1.5581 -0.3257 -0.1644
   57SAPC  C315 4272   4.145   7.382   5.804 -0.7264  0.1443 -0.0911
   57SAPC  H15X 4273   4.243   7.411   5.848 -1.4261 -1.3328  2.6274
   57SAPC  H15Y 4274   4.069   7.461   5.824  0.2569  0.5734  2.2734
   57SAPC  C316 4275   4.161   7.356   5.653 -0.4473  0.4723  0.4231
   57SAPC  H16X 4276   4.228   7.268   5.648 -0.5287  0.2443  2.4680
   57SAPC  H16Y 4277   4.215   7.443   5.610  0.8973 -1.2523 -1.5886
   57SAPC  C317 4278   4.025   7.334   5.587  0.1053 -0.5789  0.5313
   57SAPC  H17X 4279   3.966   7.428   5.584  0.6561 -0.2553 -0.9463
   57SAPC  H17Y 4280   3.973   7.257   5.649 -0.6843 -2.0422 -1.8071
   57SAPC  C318 4281   4.022   7.274   5.450  0.0394  0.8235  0.0876
   57SAPC  H18X 4282   4.091   7.316   5.375 -1.3922  1.6922 -0.7963
   57SAPC  H18Y 4283   3.913   7.274   5.429 -0.4471 -3.4164  1.5271
   57SAPC  H18Z 4284   4.057   7.169   5.457 -1.7007  0.2065  0.0513
   58SAPC     N 4285   0.764   0.863   7.838 -0.1828  0.1339 -0.0003
   58SAPC   C12 4286   0.801   0.774   7.724  0.1132  0.1471 -1.1270
   58SAPC  H12A 4287   0.730   0.692   7.726 -0.0134  0.2630 -0.0515
   58SAPC  H12B 4288   0.904   0.743   7.720  0.8677  2.3926 -0.6395
   58SAPC   C13 4289   0.859   0.975   7.840  0.3618  0.5192 -0.1775
   58SAPC  H13A 4290   0.862   1.016   7.740 -0.5050  0.1728 -0.3565
   58SAPC  H13B 4291   0.841   1.055   7.910  0.1544  0.4542 -0.1557
   58SAPC  H13C 4292   0.960   0.939   7.852  0.1111 -0.6473 -1.2977
   58SAPC   C14 4293   0.628   0.923   7.815  0.2445  0.4510 -0.3277
   58SAPC  H14A 4294   0.590   0.972   7.903 -0.1048  0.4208 -0.4597
   58SAPC  H14B 4295   0.634   1.000   7.739 -0.2050 -1.5640 -2.5104
   58SAPC  H14C 4296   0.551   0.850   7.797 -1.6851  1.5117  2.8013
   58SAPC   C15 4297   0.775   0.793   7.969  0.0372  0.5120 -0.3331
   58SAPC  H15A 4298   0.876   0.759   7.990  0.2843  1.0668 -0.5912
   58SAPC  H15B 4299   0.743   0.850   8.054 -4.9167  0.4915 -1.9075
   58SAPC  H15C 4300   0.710   0.706   7.965  0.6041  0.1166 -1.8590
   58SAPC   C11 4301   0.789   0.844   7.586  0.0800  0.0858  0.9344
   58SAPC  H11A 4302   0.687   0.884   7.572  0.4397  1.2820  1.6031
   58SAPC  H11B 4303   0.794   0.764   7.508  0.5215 -1.0193  2.0630
   58SAPC     P 4304   1.040   0.897   7.532  0.4893 -0.1264 -0.1385
   58SAPC   O13 4305   1.132   1.010   7.550  0.2721 -0.2930  0.0882
   58SAPC   O14 4306   1.067   0.772   7.602  0.1503  0.0837 -0.8265
   58SAPC   O12 4307   0.886   0.948   7.563 -0.5546  0.5819  0.4555
   58SAPC   O11 4308   1.035   0.868   7.378  0.1913  0.0787  0.2012
   58SAPC    C1 4309   1.024   0.969   7.287  0.1293  0.2348 -0.1834
   58SAPC    HA 4310   0.917   0.994   7.267  0.2167 -0.9384 -2.5523
   58SAPC    HB 4311   1.074   1.063   7.317 -0.4758  1.0994 -1.7688
   58SAPC    C2 4312   1.106   0.929   7.160 -0.2571 -0.1081 -0.6016
   58SAPC    HS 4313   1.095   1.016   7.093  1.8401  0.9470  0.3180
   58SAPC   O21 4314   1.040   0.816   7.105 -0.4159  0.4813  0.0821
   58SAPC   C21 4315   1.033   0.794   6.979 -0.9369 -1.2825 -0.2120
   58SAPC   O22 4316   1.071   0.873   6.896  0.0202 -0.2943 -0.3392
   58SAPC   C22 4317   0.988   0.650   6.948 -1.0056 -0.2683  0.0166
   58SAPC   H2R 4318   1.055   0.575   6.996  0.3677  1.6205  1.2005
   58SAPC   H2S 4319   0.882   0.643   6.980 -0.5248 -0.8894  1.5587
   58SAPC    C3 4320   1.254   0.897   7.195 -0.6006 -0.3259 -0.2149
   58SAPC    HX 4321   1.243   0.813   7.266  1.3349 -2.9461 -2.7676
   58SAPC    HY 4322   1.290   0.982   7.257 -1.6421 -0.5952  0.7812
   58SAPC   O31 4323   1.332   0.866   7.076  0.0462 -0.1212  0.1210
   58SAPC   C31 4324   1.364   0.742   7.056  0.3867 -0.2504  0.0234
   58SAPC   O32 4325   1.312   0.648   7.116  0.1105  0.3136 -0.5829
   58SAPC   C32 4326   1.483   0.721   6.966  0.1010 -1.0051 -0.4771
   58SAPC   H2X 4327   1.487   0.612   6.943  0.0965 -1.2292  0.5325
   58SAPC   H2Y 4328   1.568   0.749   7.032 -1.7463  0.1448  1.5779
   58SAPC   C23 4329   0.990   0.616   6.795 -0.2472  0.5113  0.4021
   58SAPC   H3R 4330   1.002   0.709   6.736  0.0100  1.1587  1.4471
   58SAPC   H3S 4331   0.896   0.568   6.761  0.5566  0.0471 -1.2626
   58SAPC   C24 4332   1.115   0.521   6.772 -0.3654  0.4812  0.4155
   58SAPC   H4R 4333   1.119   0.444   6.852 -2.7742 -1.7188 -1.4217
   58SAPC   H4S 4334   1.211   0.574   6.782 -1.1112  2.1576 -0.8285
   58SAPC   C25 4335   1.105   0.459   6.632  0.0858  0.4701  0.4160
   58SAPC   H5R 4336   1.030   0.378   6.626  2.8636 -2.2196 -0.6036
   58SAPC   C26 4337   1.168   0.494   6.523 -0.1060 -0.6311 -0.4625
   58SAPC   H6R 4338   1.155   0.440   6.428 -1.9635 -1.0806 -0.0042
   58SAPC   C27 4339   1.263   0.612   6.508 -0.2472 -0.1786  0.2040
   58SAPC   H7R 4340   1.352   0.584   6.448  0.7037  1.5604  0.7213
   58SAPC   H7S 4341   1.308   0.644   6.604  1.0162 -0.3230 -0.3131
   58SAPC   C28 4342   1.199   0.743   6.452  0.5022  0.7425  0.1503
   58SAPC   H8R 4343   1.124   0.795   6.513  0.2375  1.5083 -0.7851
   58SAPC   C29 4344   1.231   0.796   6.334  0.4611  0.3656 -0.3769
   58SAPC   H9R 4345   1.191   0.895   6.310 -1.5483 -0.2291  0.3372
   58SAPC  C210 4346   1.329   0.743   6.231  0.1687 -0.2992  0.2635
   58SAPC  H10R 4347   1.280   0.652   6.189  1.0271 -0.7465  0.2047
   58SAPC  H10S 4348   1.429   0.711   6.269  0.6272 -1.3181 -1.6679
   58SAPC  C211 4349   1.338   0.850   6.125  0.4853  0.5350  0.3341
   58SAPC  H11R 4350   1.322   0.954   6.156 -2.1036  0.6251 -1.0459
   58SAPC  C212 4351   1.347   0.827   5.989  0.1477  0.2301 -0.1826
   58SAPC  H12R 4352   1.315   0.907   5.921 -2.7052 -1.1442 -0.5904
   58SAPC  C213 4353   1.344   0.697   5.920  0.0065  0.5492 -0.3394
   58SAPC  H13R 4354   1.238   0.680   5.891  0.0972  1.7638 -1.4475
   58SAPC  H13S 4355   1.364   0.622   6.000 -1.6622  1.3058  0.8696
   58SAPC  C214 4356   1.441   0.668   5.802 -0.4139 -0.4178  0.1633
   58SAPC  H14R 4357   1.531   0.620   5.842  0.0353  0.4897  0.2662
   58SAPC  C215 4358   1.436   0.674   5.671 -1.1385 -0.2727 -0.1752
   58SAPC  H15R 4359   1.522   0.640   5.612  1.3678  1.8535  1.9536
   58SAPC  C216 4360   1.322   0.732   5.596  0.0487 -0.1832  0.2745
   58SAPC  H16R 4361   1.254   0.794   5.659  0.4831  0.4372  0.1442
   58SAPC  H16S 4362   1.261   0.652   5.549 -1.6020  0.8097  0.6599
   58SAPC  C217 4363   1.377   0.834   5.491 -0.0265  0.6593 -0.1252
   58SAPC  H17R 4364   1.463   0.789   5.436  0.0243  1.1242 -0.4370
   58SAPC  H17S 4365   1.410   0.923   5.549  0.9225  0.8775 -0.9648
   58SAPC  C218 4366   1.275   0.874   5.383  0.3853 -0.0741  0.4659
   58SAPC  H18R 4367   1.193   0.924   5.440  1.2714  2.3306 -0.2567
   58SAPC  H18S 4368   1.231   0.783   5.337  2.3383 -0.0001 -1.7129
   58SAPC  C219 4369   1.326   0.968   5.276  0.5480  0.4313  0.0923
   58SAPC  H19R 4370   1.380   1.054   5.319  0.9086 -0.9730  2.5992
   58SAPC  H19S 4371   1.238   1.006   5.218  1.3622  0.2922 -1.2830
   58SAPC  C220 4372   1.419   0.903   5.165 -0.0441  0.0286  0.0361
   58SAPC  H20R 4373   1.352   0.831   5.113  1.8220 -0.9024 -1.1829
   58SAPC  H20S 4374   1.506   0.852   5.211  0.5245  2.3052  1.6439
   58SAPC  H20T 4375   1.453   0.985   5.099 -3.8478  1.3304 -0.5552
   58SAPC   C33 4376   1.483   0.809   6.838  0.2527  0.2613 -0.0274
   58SAPC   H3X 4377   1.478   0.917   6.866 -1.2766  0.0551  0.5638
   58SAPC   H3Y 4378   1.398   0.774   6.776  2.1451 -2.2509 -1.4189
   58SAPC   C34 4379   1.605   0.790   6.743  0.5895  0.4430 -0.2948
   58SAPC   H4X 4380   1.579   0.691   6.699 -0.8495  1.2301 -1.3084
   58SAPC   H4Y 4381   1.705   0.785   6.791  0.5364 -0.9271 -0.2867
   58SAPC   C35 4382   1.626   0.910   6.642  0.3290 -0.1342  0.0811
   58SAPC   H5X 4383   1.730   0.916   6.601  0.5724  0.8987  0.8114
   58SAPC   H5Y 4384   1.600   1.006   6.690 -1.2732  0.8334 -2.5128
   58SAPC   C36 4385   1.528   0.900   6.525 -0.0867  0.1951  0.2530
   58SAPC   H6X 4386   1.425   0.919   6.562  0.7027  1.9454  1.6689
   58SAPC   H6Y 4387   1.540   0.796   6.487  1.1528 -0.7999  3.0589
   58SAPC   C37 4388   1.557   1.008   6.419 -0.3340  1.4244  0.0384
   58SAPC   H7X 4389   1.602   1.102   6.458  0.6200  1.0979 -0.2638
   58SAPC   H7Y 4390   1.462   1.034   6.367  0.5766 -0.1273 -2.5536
   58SAPC   C38 4391   1.653   0.944   6.318 -0.4284  0.1553 -0.6096
   58SAPC   H8X 4392   1.598   0.863   6.265  0.3599 -0.2477 -0.8209
   58SAPC   H8Y 4393   1.741   0.906   6.372 -1.0379 -1.3865 -0.6516
   58SAPC   C39 4394   1.706   1.056   6.225  0.1110  1.1193  0.5859
   58SAPC   H9X 4395   1.800   1.022   6.176  0.2757  0.0185  1.6185
   58SAPC   H9Y 4396   1.761   1.135   6.281  0.9229  1.2845 -0.4037
   58SAPC  C310 4397   1.606   1.101   6.124 -0.4166 -0.1715 -0.0228
   58SAPC  H10X 4398   1.527   1.169   6.160 -0.7927 -0.5389 -0.1429
   58SAPC  H10Y 4399   1.559   1.012   6.075 -0.7349  0.2300 -0.4580
   58SAPC  C311 4400   1.664   1.176   5.995 -0.0082  0.4387 -0.1869
   58SAPC  H11X 4401   1.715   1.086   5.952 -1.4536 -0.9339  0.8485
   58SAPC  H11Y 4402   1.739   1.251   6.029 -0.0347 -0.0876  1.0901
   58SAPC  C312 4403   1.563   1.239   5.903 -0.1376 -1.0399 -0.2506
   58SAPC  H12X 4404   1.519   1.325   5.958  1.5184  0.4593 -1.1684
   58SAPC  H12Y 4405   1.487   1.159   5.886 -0.1034 -1.3524  0.9707
   58SAPC  C313 4406   1.622   1.275   5.770  0.5161  0.3049  0.4369
   58SAPC  H13X 4407   1.583   1.378   5.756  0.1245 -0.0311 -1.1484
   58SAPC  H13Y 4408   1.574   1.212   5.692  1.9880 -2.0755  1.3317
   58SAPC  C314 4409   1.775   1.269   5.752  0.0751  0.4380  0.4232
   58SAPC  H14X 4410   1.808   1.164   5.764  1.4598  0.8266  0.2296
   58SAPC  H14Y 4411   1.822   1.341   5.822 -0.6750  2.8716 -1.4154
   58SAPC  C315 4412   1.828   1.324   5.616 -0.8947  0.5887 -0.5341
   58SAPC  H15X 4413   1.741   1.352   5.553  0.4558 -1.1947 -3.4117
   58SAPC  H15Y 4414   1.877   1.239   5.564 -0.3944 -0.3691  1.4117
   58SAPC  C316 4415   1.926   1.443   5.621 -0.3391 -0.2515  0.0512
   58SAPC  H16X 4416   2.013   1.411   5.683  1.4407  1.3938 -1.4476
   58SAPC  H16Y 4417   1.871   1.530   5.663  0.7001  1.3857 -1.7812
   58SAPC  C317 4418   1.987   1.488   5.488 -0.7492 -0.0534 -0.0541
   58SAPC  H17X 4419   2.064   1.566   5.509 -0.9178  0.4078 -1.0723
   58SAPC  H17Y 4420   1.915   1.549   5.430 -1.3554 -0.8893 -0.1990
   58SAPC  C318 4421   2.042   1.377   5.390  0.0964 -0.7770 -0.6344
   58SAPC  H18X 4422   2.081   1.421   5.296  2.1033 -1.0103  0.0292
   58SAPC  H18Y 4423   1.962   1.307   5.360 -0.9926  0.0285  0.2722
   58SAPC  H18Z 4424   2.120   1.317   5.442 -0.7747 -0.6524  0.8840
   59SAPC     N 4425   6.592   4.118   7.715 -0.3593 -0.0394 -0.6856
   59SAPC   C12 4426   6.565   4.049   7.579 -0.1172 -1.2819 -0.6238
   59SAPC  H12A 4427   6.592   4.114   7.497 -2.0953  1.8806  1.0403
   59SAPC  H12B 4428   6.459   4.033   7.566 -0.3498  0.1577 -0.6461
   59SAPC   C13 4429   6.588   4.024   7.822  0.3209  0.4912  0.3130
   59SAPC  H13A 4430   6.646   3.940   7.790 -1.1448 -0.2069 -0.6126
   59SAPC  H13B 4431   6.616   4.063   7.919 -0.5448 -0.2693  0.8859
   59SAPC  H13C 4432   6.483   4.001   7.814  0.2773  0.7657  0.0632
   59SAPC   C14 4433   6.719   4.196   7.710  0.5283 -0.7302 -0.1690
   59SAPC  H14A 4434   6.724   4.248   7.616 -2.2524  0.6820  0.3631
   59SAPC  H14B 4435   6.716   4.268   7.790 -0.4861 -1.1763  0.2123
   59SAPC  H14C 4436   6.808   4.138   7.728  0.5835 -0.9534 -1.1141
   59SAPC   C15 4437   6.483   4.222   7.736  0.8629  0.1445  0.1376
   59SAPC  H15A 4438   6.505   4.277   7.827 -0.2767 -0.9083  1.0929
   59SAPC  H15B 4439   6.475   4.287   7.651  1.5295  0.3923  0.2577
   59SAPC  H15C 4440   6.394   4.162   7.750  0.6082  0.6614  0.8115
   59SAPC   C11 4441   6.626   3.912   7.555  0.0460  0.4258 -0.2316
   59SAPC  H11A 4442   6.735   3.928   7.540  0.1797 -0.7343 -0.5692
   59SAPC  H11B 4443   6.591   3.879   7.455  0.5303 -1.9221  0.3087
   59SAPC     P 4444   6.517   3.685   7.619 -0.3548  0.0596  0.3108
   59SAPC   O13 4445   6.559   3.580   7.713  0.0059  0.1393 -0.1915
   59SAPC   O14 4446   6.372   3.726   7.620  0.4191  0.5947 -0.1115
   59SAPC   O12 4447   6.595   3.814   7.650 -0.9627 -0.1792 -0.1302
   59SAPC   O11 4448   6.564   3.646   7.475 -0.7534 -0.1228 -0.0298
   59SAPC    C1 4449   6.647   3.532   7.448  1.3969  0.1913  0.9101
   59SAPC    HA 4450   6.743   3.588   7.446  3.5144 -3.1555 -0.8290
   59SAPC    HB 4451   6.641   3.452   7.525 -0.1927  0.5125  1.1490
   59SAPC    C2 4452   6.602   3.466   7.314 -0.0456  0.3330  0.1316
   59SAPC    HS 4453   6.681   3.391   7.293 -0.3039  0.2992 -0.7447
   59SAPC   O21 4454   6.587   3.559   7.206 -0.5409 -0.4505  0.2827
   59SAPC   C21 4455   6.702   3.599   7.140 -0.5385  0.0398 -0.3003
   59SAPC   O22 4456   6.811   3.548   7.157 -0.2784  0.0803  0.5240
   59SAPC   C22 4457   6.666   3.707   7.034  0.0147  0.1938  0.2109
   59SAPC   H2R 4458   6.563   3.743   7.057  0.0402 -0.1695  0.8923
   59SAPC   H2S 4459   6.742   3.788   7.041 -0.9625  1.1730 -0.0618
   59SAPC    C3 4460   6.468   3.404   7.343  0.7952  0.3604  0.4220
   59SAPC    HX 4461   6.395   3.481   7.376 -0.6458 -1.6135  2.0710
   59SAPC    HY 4462   6.474   3.333   7.428 -0.7983  1.2262  1.3020
   59SAPC   O31 4463   6.417   3.346   7.219 -0.6714  0.1419 -0.0132
   59SAPC   C31 4464   6.303   3.381   7.164 -0.4130 -0.1311  0.0345
   59SAPC   O32 4465   6.229   3.466   7.207 -0.6455  0.1294 -0.4550
   59SAPC   C32 4466   6.284   3.303   7.034 -0.4340 -0.3143 -0.0364
   59SAPC   H2X 4467   6.287   3.195   7.057  0.3852 -0.6505 -1.5608
   59SAPC   H2Y 4468   6.374   3.308   6.969 -0.4637  0.0294 -0.0540
   59SAPC   C23 4469   6.655   3.642   6.895  0.2432 -0.6559 -0.1157
   59SAPC   H3R 4470   6.593   3.550   6.901 -0.6223 -0.0713  0.0621
   59SAPC   H3S 4471   6.756   3.618   6.854  0.0557 -0.2055 -0.8605
   59SAPC   C24 4472   6.574   3.734   6.805 -0.0878  1.4145 -0.2946
   59SAPC   H4R 4473   6.483   3.771   6.857 -0.0492  1.0317  0.0485
   59SAPC   H4S 4474   6.545   3.666   6.722  1.2625 -1.3398  1.3612
   59SAPC   C25 4475   6.651   3.858   6.763  0.6132 -0.7510  1.3573
   59SAPC   H5R 4476   6.671   3.936   6.837  1.1766  0.8712 -0.4369
   59SAPC   C26 4477   6.686   3.893   6.637 -0.2348 -0.6816 -0.4437
   59SAPC   H6R 4478   6.740   3.986   6.613 -1.9653  0.4988  0.1003
   59SAPC   C27 4479   6.678   3.804   6.507 -0.6118 -0.0118 -0.3122
   59SAPC   H7R 4480   6.577   3.808   6.461 -0.1215 -1.0149 -1.5458
   59SAPC   H7S 4481   6.687   3.695   6.530  0.9036 -0.1534 -1.4519
   59SAPC   C28 4482   6.785   3.822   6.401 -0.1000  0.3956 -0.2251
   59SAPC   H8R 4483   6.880   3.767   6.409  0.9670  1.2031 -4.5147
   59SAPC   C29 4484   6.765   3.882   6.287 -0.1485  0.3250 -0.4036
   59SAPC   H9R 4485   6.845   3.893   6.212 -1.8635  0.8811 -2.2448
   59SAPC  C210 4486   6.641   3.944   6.228 -0.1450 -0.0607 -0.6630
   59SAPC  H10R 4487   6.681   4.009   6.147 -0.8830 -0.8169 -1.6547
   59SAPC  H10S 4488   6.583   4.014   6.292  0.2642  2.8405 -3.2418
   59SAPC  C211 4489   6.543   3.843   6.181 -0.4588  0.8491 -0.2071
   59SAPC  H11R 4490   6.496   3.794   6.267 -2.3911  3.3337  0.2874
   59SAPC  C212 4491   6.511   3.810   6.054  0.5622 -0.0791 -0.4057
   59SAPC  H12R 4492   6.434   3.732   6.053 -0.3393  0.5959  3.0712
   59SAPC  C213 4493   6.555   3.880   5.929  0.4971 -0.5367  0.5499
   59SAPC  H13R 4494   6.589   3.801   5.859  0.1371 -1.6871  1.6304
   59SAPC  H13S 4495   6.635   3.953   5.956 -0.4439  0.0602  1.8655
   59SAPC  C214 4496   6.447   3.955   5.858  0.0819 -0.0355 -0.4313
   59SAPC  H14R 4497   6.378   3.995   5.934  1.4416  0.7397  0.4279
   59SAPC  C215 4498   6.415   3.967   5.726 -0.1313  0.1870 -0.0167
   59SAPC  H15R 4499   6.323   4.013   5.687 -0.0109 -1.7295 -2.8739
   59SAPC  C216 4500   6.493   3.916   5.617 -0.4311 -0.0012  0.3876
   59SAPC  H16R 4501   6.589   3.874   5.654 -0.5477 -0.7911 -0.1811
   59SAPC  H16S 4502   6.525   3.996   5.547 -0.8952 -1.5943 -1.7408
   59SAPC  C217 4503   6.426   3.803   5.529  0.3026 -0.1574 -0.1114
   59SAPC  H17R 4504   6.382   3.733   5.603  0.5418  0.5055  0.6658
   59SAPC  H17S 4505   6.500   3.750   5.465  0.5047  0.2614 -0.2283
   59SAPC  C218 4506   6.320   3.858   5.436 -0.2819 -0.6995 -0.3772
   59SAPC  H18R 4507   6.258   3.927   5.497 -0.4635 -3.0178  2.2580
   59SAPC  H18S 4508   6.261   3.768   5.410  0.0897 -1.1945  0.4581
   59SAPC  C219 4509   6.375   3.940   5.317 -0.2719 -0.2987  0.3240
   59SAPC  H19R 4510   6.418   3.867   5.245  0.6320  1.5478 -1.0987
   59SAPC  H19S 4511   6.446   4.015   5.357 -0.5630 -0.1584  0.5769
   59SAPC  C220 4512   6.275   4.025   5.233  0.4827 -0.1795  1.0601
   59SAPC  H20R 4513   6.177   3.974   5.221 -0.3540  1.7632 -1.2839
   59SAPC  H20S 4514   6.329   4.068   5.146  0.2130  0.1472  1.0506
   59SAPC  H20T 4515   6.237   4.117   5.283 -3.4404  0.0826 -1.8813
   59SAPC   C33 4516   6.157   3.346   6.963  0.0284 -0.1706 -0.5756
   59SAPC   H3X 4517   6.158   3.456   6.948 -1.3672  0.4475  3.0572
   59SAPC   H3Y 4518   6.067   3.326   7.023 -0.4516  0.2208 -1.1527
   59SAPC   C34 4519   6.138   3.300   6.817  0.0225 -0.2241 -0.3794
   59SAPC   H4X 4520   6.040   3.349   6.800 -1.4093 -2.2180  1.4716
   59SAPC   H4Y 4521   6.125   3.191   6.798 -0.7331  0.0917 -1.7685
   59SAPC   C35 4522   6.233   3.360   6.714  0.3303 -0.3274 -0.1781
   59SAPC   H5X 4523   6.221   3.294   6.625 -1.0197 -0.3178 -0.0318
   59SAPC   H5Y 4524   6.337   3.342   6.746  0.1254 -2.3425 -0.5356
   59SAPC   C36 4525   6.220   3.505   6.675  0.1288 -0.0200  0.5188
   59SAPC   H6X 4526   6.270   3.573   6.746 -2.4004  3.1953 -0.5361
   59SAPC   H6Y 4527   6.110   3.524   6.675 -0.0152 -0.7931  1.1360
   59SAPC   C37 4528   6.267   3.540   6.528  0.2082 -0.2907  0.3573
   59SAPC   H7X 4529   6.341   3.463   6.500  0.0674  0.4415 -2.2422
   59SAPC   H7Y 4530   6.313   3.640   6.538  0.0402 -0.3994  2.8886
   59SAPC   C38 4531   6.155   3.522   6.424  0.0501 -0.3643 -0.5272
   59SAPC   H8X 4532   6.085   3.602   6.454  2.7939  1.1562  2.4134
   59SAPC   H8Y 4533   6.102   3.425   6.432 -0.5886  0.0436  0.3554
   59SAPC   C39 4534   6.206   3.537   6.283 -0.2147  0.3281 -0.1670
   59SAPC   H9X 4535   6.287   3.463   6.264 -2.1862 -2.7546  2.3019
   59SAPC   H9Y 4536   6.253   3.637   6.274 -1.6607  0.9251 -1.6306
   59SAPC  C310 4537   6.101   3.515   6.172  0.9580 -0.3454 -0.3309
   59SAPC  H10X 4538   6.036   3.604   6.158  1.9012 -0.0682 -3.7810
   59SAPC  H10Y 4539   6.044   3.422   6.192  1.5873 -1.3311 -2.7624
   59SAPC  C311 4540   6.171   3.479   6.043  0.5958  0.0195  0.1196
   59SAPC  H11X 4541   6.192   3.370   6.050  2.9343  0.3497 -0.5715
   59SAPC  H11Y 4542   6.262   3.544   6.034 -1.8594  3.5627 -1.6959
   59SAPC  C312 4543   6.095   3.504   5.915 -0.0566  0.5561  0.3776
   59SAPC  H12X 4544   6.064   3.611   5.924 -1.2719  0.0640  3.4276
   59SAPC  H12Y 4545   6.002   3.444   5.910  0.7687 -0.7614  0.4002
   59SAPC  C313 4546   6.169   3.458   5.785  0.6085 -0.2057 -0.5116
   59SAPC  H13X 4547   6.179   3.349   5.803  0.3765 -0.0754  0.4622
   59SAPC  H13Y 4548   6.271   3.502   5.789 -0.1373  1.6477 -0.6689
   59SAPC  C314 4549   6.090   3.496   5.665 -0.4258  0.1518  0.0674
   59SAPC  H14X 4550   6.068   3.604   5.652 -0.0231  0.0522 -1.6320
   59SAPC  H14Y 4551   5.988   3.453   5.677 -1.0021  1.3542 -0.4563
   59SAPC  C315 4552   6.149   3.437   5.528 -0.3265 -0.4707 -0.0281
   59SAPC  H15X 4553   6.249   3.478   5.501 -1.0475  1.3909 -0.0315
   59SAPC  H15Y 4554   6.086   3.486   5.450  1.0438 -2.2537 -2.4216
   59SAPC  C316 4555   6.151   3.283   5.507  0.5173  1.1064 -0.1909
   59SAPC  H16X 4556   6.061   3.239   5.556  0.3812  0.8600 -0.6508
   59SAPC  H16Y 4557   6.236   3.238   5.561  1.2313  3.7474  1.0237
   59SAPC  C317 4558   6.167   3.227   5.366 -0.0451  0.7321  0.2712
   59SAPC  H17X 4559   6.257   3.275   5.323 -0.4313  3.7408  2.4751
   59SAPC  H17Y 4560   6.082   3.259   5.302  0.8240  0.2880 -1.1284
   59SAPC  C318 4561   6.177   3.072   5.360 -0.4221  0.2171 -0.8725
   59SAPC  H18X 4562   6.196   3.035   5.257  0.8859 -0.3599 -0.4437
   59SAPC  H18Y 4563   6.092   3.025   5.413 -0.9639 -1.7798 -3.3157
   59SAPC  H18Z 4564   6.263   3.023   5.409  1.2566 -0.5089 -4.2305
   60SAPC     N 4565   0.139   2.890   8.026  0.6700 -0.0289  0.8210
   60SAPC   C12 4566   0.083   2.958   7.903  0.9986  0.9076  0.3996
   60SAPC  H12A 4567   0.064   3.065   7.901  2.1399  1.1917  2.3213
   60SAPC  H12B 4568  -0.015   2.913   7.891  0.6469  1.3108  1.5771
   60SAPC   C13 4569   0.162   2.749   7.996 -0.6229  0.0056 -0.0059
   60SAPC  H13A 4570   0.234   2.733   7.917 -3.3506 -0.8215 -2.4840
   60SAPC  H13B 4571   0.202   2.699   8.083  0.9879  1.2066 -0.0022
   60SAPC  H13C 4572   0.074   2.701   7.957 -1.1361 -0.6285  1.7995
   60SAPC   C14 4573   0.278   2.947   8.055  0.5039 -0.4371  0.3274
   60SAPC  H14A 4574   0.269   3.050   8.088  1.1299 -0.1932 -0.2569
   60SAPC  H14B 4575   0.336   2.897   8.131 -1.4518 -1.6356  1.1369
   60SAPC  H14C 4576   0.330   2.942   7.961  0.5699  0.8148  0.2819
   60SAPC   C15 4577   0.052   2.908   8.142  0.1529  0.5569 -0.2132
   60SAPC  H15A 4578   0.105   2.864   8.225 -0.2260  0.9174  0.2359
   60SAPC  H15B 4579   0.025   3.013   8.151 -0.2418  0.4022  0.4512
   60SAPC  H15C 4580  -0.045   2.861   8.150  0.3733  0.2792  1.0289
   60SAPC   C11 4581   0.155   2.929   7.767 -0.2662 -0.1160  0.7814
   60SAPC  H11A 4582   0.094   2.964   7.681 -1.6710  1.6019  2.3940
   60SAPC  H11B 4583   0.174   2.821   7.748  1.7187  0.2574  0.3459
   60SAPC     P 4584   0.294   3.150   7.741 -0.0669 -0.0998 -0.0759
   60SAPC   O13 4585   0.192   3.219   7.824  0.1978 -0.3781  0.0150
   60SAPC   O14 4586   0.437   3.190   7.764 -0.4471 -0.5101  0.5062
   60SAPC   O12 4587   0.276   2.999   7.753 -0.3864  0.3386 -0.6705
   60SAPC   O11 4588   0.260   3.171   7.590 -0.4907 -1.0629 -0.5982
   60SAPC    C1 4589   0.307   3.073   7.501  0.4945 -0.3664 -0.1709
   60SAPC    HA 4590   0.409   3.048   7.539 -0.3810 -0.3910  2.3695
   60SAPC    HB 4591   0.245   2.982   7.515 -1.3252  0.7398 -0.7904
   60SAPC    C2 4592   0.306   3.128   7.353  0.8944  1.1304  0.2129
   60SAPC    HS 4593   0.197   3.127   7.331  1.1692  0.3051 -1.2959
   60SAPC   O21 4594   0.376   3.030   7.271 -0.7123  0.0058 -0.0981
   60SAPC   C21 4595   0.319   2.920   7.229  0.9646 -0.5205  0.1011
   60SAPC   O22 4596   0.201   2.888   7.255  0.5354  0.2231  0.3735
   60SAPC   C22 4597   0.428   2.832   7.151  0.4356  0.3298 -0.3053
   60SAPC   H2R 4598   0.497   2.909   7.110 -0.4931 -0.1956 -3.0251
   60SAPC   H2S 4599   0.489   2.772   7.222 -1.4930 -0.5004  0.7115
   60SAPC    C3 4600   0.378   3.265   7.334  0.2196 -0.3575 -0.4307
   60SAPC    HX 4601   0.483   3.263   7.368  0.1930 -2.9486 -0.3446
   60SAPC    HY 4602   0.318   3.330   7.402  0.4368 -1.1989  0.6009
   60SAPC   O31 4603   0.367   3.319   7.194  0.2939  0.1295  0.0551
   60SAPC   C31 4604   0.469   3.310   7.118 -0.8381 -0.3911 -0.3456
   60SAPC   O32 4605   0.579   3.261   7.152  0.2640  0.2552 -0.1102
   60SAPC   C32 4606   0.447   3.364   6.982  0.3746 -0.0732 -0.0666
   60SAPC   H2X 4607   0.484   3.469   6.988 -0.3573  0.2600 -1.1319
   60SAPC   H2Y 4608   0.338   3.365   6.961  0.6644 -2.0062 -1.9886
   60SAPC   C23 4609   0.364   2.753   7.035  1.1054 -0.1491  0.2108
   60SAPC   H3R 4610   0.292   2.826   6.993 -0.5789 -0.3635  2.5277
   60SAPC   H3S 4611   0.295   2.672   7.069  2.0790 -2.3231 -2.5944
   60SAPC   C24 4612   0.471   2.709   6.930 -0.6362 -0.2693 -0.0306
   60SAPC   H4R 4613   0.535   2.637   6.987 -0.5980 -0.7644 -0.6927
   60SAPC   H4S 4614   0.536   2.792   6.894  0.2222 -0.4080  1.1267
   60SAPC   C25 4615   0.410   2.639   6.814  0.1701  0.2958 -0.4045
   60SAPC   H5R 4616   0.412   2.529   6.813  1.3343  0.2833  0.8826
   60SAPC   C26 4617   0.345   2.704   6.714 -0.2873 -0.3705 -0.1270
   60SAPC   H6R 4618   0.311   2.642   6.629 -1.4525 -1.4706  1.0938
   60SAPC   C27 4619   0.329   2.853   6.680 -0.0314  1.1118  0.1469
   60SAPC   H7R 4620   0.270   2.905   6.759 -2.4870  2.3262 -2.3245
   60SAPC   H7S 4621   0.264   2.869   6.591  0.6160  0.6083 -0.4202
   60SAPC   C28 4622   0.456   2.931   6.650 -0.5088 -0.3114  0.6357
   60SAPC   H8R 4623   0.540   2.905   6.715  0.0766 -0.2897 -0.0940
   60SAPC   C29 4624   0.476   3.008   6.538  0.3232 -0.4163 -0.5876
   60SAPC   H9R 4625   0.580   3.041   6.525  0.5765 -0.1026  1.8216
   60SAPC  C210 4626   0.372   3.051   6.436 -0.0983 -0.1851  0.0322
   60SAPC  H10R 4627   0.381   3.161   6.423  0.1583 -0.2854 -0.6857
   60SAPC  H10S 4628   0.267   3.031   6.468 -0.3040 -0.8678 -1.0136
   60SAPC  C211 4629   0.384   2.979   6.311  0.3013  0.1729 -0.5864
   60SAPC  H11R 4630   0.348   2.875   6.314  0.5077  0.1135  0.6933
   60SAPC  C212 4631   0.434   3.022   6.197 -0.3028 -0.5784  0.4073
   60SAPC  H12R 4632   0.443   2.954   6.112  0.3739 -0.3975  0.3226
   60SAPC  C213 4633   0.486   3.160   6.161 -0.1291  0.1673 -0.9366
   60SAPC  H13R 4634   0.596   3.154   6.177 -0.4050  1.3425  2.0366
   60SAPC  H13S 4635   0.459   3.235   6.239  0.3694 -1.3625  0.7650
   60SAPC  C214 4636   0.453   3.213   6.025 -0.0842 -0.3009  0.0181
   60SAPC  H14R 4637   0.374   3.290   6.020  0.7874  0.7522  1.4745
   60SAPC  C215 4638   0.506   3.173   5.910  0.3607  0.4027 -0.2986
   60SAPC  H15R 4639   0.466   3.206   5.813 -1.8645 -1.8595 -0.2547
   60SAPC  C216 4640   0.630   3.077   5.902  0.3533 -0.9519  0.0196
   60SAPC  H16R 4641   0.641   3.014   5.993 -1.2479  0.2181  1.0828
   60SAPC  H16S 4642   0.724   3.136   5.907 -1.1226  1.5808 -0.1831
   60SAPC  C217 4643   0.628   2.996   5.773  0.7911  0.4254  0.0616
   60SAPC  H17R 4644   0.723   2.993   5.715  0.5185  1.5549 -0.4593
   60SAPC  H17S 4645   0.558   3.045   5.702 -1.0994 -0.3915  1.2878
   60SAPC  C218 4646   0.590   2.847   5.798  0.1192  0.0292 -0.4657
   60SAPC  H18R 4647   0.523   2.817   5.714 -1.8817  1.6186  0.4798
   60SAPC  H18S 4648   0.529   2.851   5.890 -3.0268  0.1769 -2.3909
   60SAPC  C219 4649   0.708   2.752   5.811  0.1260 -0.9527 -0.1309
   60SAPC  H19R 4650   0.767   2.738   5.718  0.4665 -0.8888  0.0755
   60SAPC  H19S 4651   0.668   2.652   5.837  1.1958 -2.3857 -3.4103
   60SAPC  C220 4652   0.803   2.791   5.925 -0.2048 -0.0364 -0.1163
   60SAPC  H20R 4653   0.858   2.886   5.908 -2.0797  1.1658  0.1722
   60SAPC  H20S 4654   0.876   2.709   5.943 -0.5902 -0.6162 -1.1144
   60SAPC  H20T 4655   0.748   2.811   6.020  2.5807  0.5580  1.4829
   60SAPC   C33 4656   0.515   3.274   6.876  0.0013  0.7709 -0.4451
   60SAPC   H3X 4657   0.471   3.173   6.883 -1.8109  1.5917  0.8915
   60SAPC   H3Y 4658   0.625   3.271   6.895  0.1780  1.6764 -1.2413
   60SAPC   C34 4659   0.487   3.331   6.734 -0.4058  0.1926 -0.3681
   60SAPC   H4X 4660   0.383   3.364   6.715 -0.2263  0.4990 -0.8472
   60SAPC   H4Y 4661   0.501   3.244   6.665  0.1945  0.5776 -0.7397
   60SAPC   C35 4662   0.578   3.451   6.700  0.3145 -0.1916 -0.7018
   60SAPC   H5X 4663   0.684   3.436   6.730 -0.0496  0.8732  1.3690
   60SAPC   H5Y 4664   0.549   3.541   6.760  0.7164 -1.6786  1.8782
   60SAPC   C36 4665   0.567   3.499   6.555 -0.4636 -0.9297  0.2575
   60SAPC   H6X 4666   0.608   3.599   6.530 -1.2700 -0.9439 -1.1984
   60SAPC   H6Y 4667   0.461   3.519   6.527  0.0358 -0.2723 -1.2744
   60SAPC   C37 4668   0.625   3.405   6.460 -0.1338  0.9314  0.6994
   60SAPC   H7X 4669   0.569   3.313   6.432 -0.0393  1.1435 -0.2220
   60SAPC   H7Y 4670   0.719   3.373   6.510 -0.5795  0.6524  1.3741
   60SAPC   C38 4671   0.657   3.462   6.318 -1.1490 -0.7376 -0.0901
   60SAPC   H8X 4672   0.683   3.380   6.249 -0.3363  0.9434 -1.8751
   60SAPC   H8Y 4673   0.734   3.542   6.315 -0.7824 -1.0648  0.4722
   60SAPC   C39 4674   0.553   3.533   6.241  0.4893 -0.5174  0.5243
   60SAPC   H9X 4675   0.529   3.630   6.291 -0.4028 -1.1250  1.3023
   60SAPC   H9Y 4676   0.457   3.479   6.254  0.1223 -0.0881 -0.3671
   60SAPC  C310 4677   0.579   3.558   6.090  0.2305 -0.1301  0.2255
   60SAPC  H10X 4678   0.616   3.462   6.048 -0.8006 -1.2322  1.7394
   60SAPC  H10Y 4679   0.655   3.638   6.078 -0.3338  0.1824 -1.7117
   60SAPC  C311 4680   0.459   3.607   6.008  0.0992 -0.4634  0.0280
   60SAPC  H11X 4681   0.403   3.676   6.073  0.1785  1.2962 -1.6808
   60SAPC  H11Y 4682   0.399   3.515   5.987  0.1072 -0.0628 -2.0239
   60SAPC  C312 4683   0.504   3.691   5.889 -0.3775 -0.1209  0.0677
   60SAPC  H12X 4684   0.534   3.793   5.922 -0.7791  0.1887 -0.4977
   60SAPC  H12Y 4685   0.416   3.697   5.821 -0.6959 -2.6655  0.1645
   60SAPC  C313 4686   0.616   3.634   5.800 -0.2925  0.3594 -0.0280
   60SAPC  H13X 4687   0.713   3.633   5.854 -0.7879  1.1746  0.9208
   60SAPC  H13Y 4688   0.615   3.699   5.710 -1.4638  1.2556  0.6004
   60SAPC  C314 4689   0.597   3.478   5.763 -0.5674 -0.4514 -0.9835
   60SAPC  H14X 4690   0.507   3.474   5.699 -0.2593 -2.0491 -1.3635
   60SAPC  H14Y 4691   0.586   3.431   5.863  1.0045  1.5633  0.2431
   60SAPC  C315 4692   0.716   3.407   5.682  0.5484 -0.4372  0.5757
   60SAPC  H15X 4693   0.683   3.307   5.648  1.6640  0.0995 -2.3549
   60SAPC  H15Y 4694   0.806   3.399   5.747  1.4715  0.8044 -0.4955
   60SAPC  C316 4695   0.763   3.475   5.550  0.1287 -0.3964  1.3166
   60SAPC  H16X 4696   0.778   3.580   5.582 -2.5504  0.6920 -0.6032
   60SAPC  H16Y 4697   0.686   3.483   5.470  1.2576 -0.5824  0.1890
   60SAPC  C317 4698   0.892   3.430   5.477 -0.1823 -0.3531 -0.0595
   60SAPC  H17X 4699   0.969   3.430   5.558  0.1126 -1.3336 -0.3256
   60SAPC  H17Y 4700   0.920   3.507   5.402 -0.2592 -1.2119 -0.9721
   60SAPC  C318 4701   0.900   3.285   5.420 -0.3468 -0.1173  0.7860
   60SAPC  H18X 4702   0.821   3.224   5.470 -1.4755  1.6161  1.1989
   60SAPC  H18Y 4703   0.997   3.233   5.436  0.4733  1.1490  0.0173
   60SAPC  H18Z 4704   0.885   3.278   5.310 -0.6734 -0.7743  0.8627
   61SAPC     N 4705   0.119   3.673   7.721 -0.2448 -0.0816  0.2428
   61SAPC   C12 4706   0.181   3.814   7.725  0.1941  0.2394 -0.0038
   61SAPC  H12A 4707   0.250   3.819   7.808 -0.4719 -2.6569  0.8354
   61SAPC  H12B 4708   0.101   3.884   7.747 -1.0181 -0.8169 -0.8899
   61SAPC   C13 4709   0.014   3.672   7.621  0.1652 -0.1112  0.4807
   61SAPC  H13A 4710  -0.047   3.582   7.622 -0.1506  0.0889 -0.1718
   61SAPC  H13B 4711  -0.048   3.759   7.636  1.4444  0.6364  1.6915
   61SAPC  H13C 4712   0.055   3.679   7.522  0.6947  2.0319  0.7981
   61SAPC   C14 4713   0.229   3.577   7.685  0.3651 -0.5154 -0.9233
   61SAPC  H14A 4714   0.189   3.479   7.667 -1.1714  0.1359 -1.1503
   61SAPC  H14B 4715   0.267   3.608   7.589 -1.0649 -1.5187 -1.8330
   61SAPC  H14C 4716   0.302   3.567   7.765 -1.7951 -0.5809  1.1427
   61SAPC   C15 4717   0.064   3.638   7.854  0.5663  0.1452  0.5630
   61SAPC  H15A 4718   0.010   3.545   7.847 -0.1171  0.6602 -1.5808
   61SAPC  H15B 4719   0.145   3.609   7.921  0.2871 -0.9118  0.4590
   61SAPC  H15C 4720   0.006   3.719   7.896 -2.2498 -0.7068 -1.3921
   61SAPC   C11 4721   0.243   3.872   7.597  0.1701 -0.1632  0.1157
   61SAPC  H11A 4722   0.252   3.982   7.608 -0.9489 -0.2157  1.9563
   61SAPC  H11B 4723   0.180   3.850   7.508 -0.9049 -0.6748  0.9787
   61SAPC     P 4724   0.489   3.877   7.516  0.0456 -0.0566 -0.0751
   61SAPC   O13 4725   0.516   3.999   7.601  0.4327  0.3597  0.7585
   61SAPC   O14 4726   0.603   3.784   7.488 -0.2029 -0.4491 -0.0263
   61SAPC   O12 4727   0.370   3.804   7.579  0.0745 -0.3546  0.7341
   61SAPC   O11 4728   0.427   3.930   7.385  0.1333 -0.0752  0.0658
   61SAPC    C1 4729   0.413   3.846   7.272 -0.0261  0.9084 -0.7091
   61SAPC    HA 4730   0.411   3.738   7.297  2.1900  0.7055 -1.2414
   61SAPC    HB 4731   0.312   3.855   7.227 -0.7243 -0.3906  0.5468
   61SAPC    C2 4732   0.517   3.864   7.157 -0.1218  0.0856 -0.7320
   61SAPC    HS 4733   0.613   3.875   7.212  0.3211 -0.6434 -1.3437
   61SAPC   O21 4734   0.484   3.979   7.081  0.5446  0.1752  0.0460
   61SAPC   C21 4735   0.582   4.032   7.010 -0.5343 -0.5288 -0.5277
   61SAPC   O22 4736   0.702   4.016   7.024 -0.2061  0.3772  0.7943
   61SAPC   C22 4737   0.516   4.130   6.907 -0.3657  1.3265  0.8007
   61SAPC   H2R 4738   0.484   4.075   6.816  1.7519  1.1311  0.1352
   61SAPC   H2S 4739   0.434   4.176   6.966  0.7939 -0.6420  4.3025
   61SAPC    C3 4740   0.533   3.734   7.065  0.6934 -0.1644 -0.9310
   61SAPC    HX 4741   0.549   3.653   7.140 -0.8176 -1.6168 -2.0996
   61SAPC    HY 4742   0.616   3.750   6.994  1.7289  1.4351  0.5469
   61SAPC   O31 4743   0.408   3.697   7.000 -0.2411 -0.7955  0.6242
   61SAPC   C31 4744   0.402   3.757   6.875 -0.1778 -0.2870 -0.1137
   61SAPC   O32 4745   0.499   3.813   6.824  0.5556 -0.0409 -0.0641
   61SAPC   C32 4746   0.266   3.730   6.820 -0.0087 -0.0880 -0.1631
   61SAPC   H2X 4747   0.199   3.724   6.909 -1.2397 -0.9637 -1.1051
   61SAPC   H2Y 4748   0.272   3.634   6.764 -0.4264 -0.1050 -0.1848
   61SAPC   C23 4749   0.619   4.243   6.856  0.2263 -0.3981 -0.3821
   61SAPC   H3R 4750   0.703   4.197   6.800 -0.2681 -0.5311 -1.0279
   61SAPC   H3S 4751   0.655   4.308   6.939 -0.2730 -2.9394  1.9741
   61SAPC   C24 4752   0.546   4.333   6.752  0.2510  0.1928  0.3366
   61SAPC   H4R 4753   0.463   4.383   6.807  0.3895 -1.5282  2.2402
   61SAPC   H4S 4754   0.503   4.278   6.666 -1.8793 -0.9148  2.0157
   61SAPC   C25 4755   0.637   4.438   6.710 -0.2162  0.1265 -0.2954
   61SAPC   H5R 4756   0.652   4.509   6.792 -2.7271  0.5551 -0.1159
   61SAPC   C26 4757   0.689   4.452   6.585 -0.2519 -0.2134  0.5212
   61SAPC   H6R 4758   0.753   4.535   6.556  0.8327 -1.5077 -0.9261
   61SAPC   C27 4759   0.661   4.353   6.471  0.8387  0.1525  0.5724
   61SAPC   H7R 4760   0.663   4.248   6.507  1.8837  0.7789  2.5586
   61SAPC   H7S 4761   0.736   4.363   6.390  0.0873  1.6336  0.0236
   61SAPC   C28 4762   0.528   4.385   6.411  0.1619  0.3992 -0.6553
   61SAPC   H8R 4763   0.455   4.307   6.435 -0.1513  1.0846  0.7167
   61SAPC   C29 4764   0.500   4.486   6.327 -0.0853  0.9198  0.2182
   61SAPC   H9R 4765   0.401   4.483   6.280 -0.7586  0.1487  1.6479
   61SAPC  C210 4766   0.593   4.589   6.273  0.2340 -0.4007  0.7531
   61SAPC  H10R 4767   0.673   4.595   6.350  0.4773 -0.4971  0.5147
   61SAPC  H10S 4768   0.553   4.692   6.284  2.6456  0.6585  0.3935
   61SAPC  C211 4769   0.661   4.574   6.144  0.5885 -0.1762  0.8859
   61SAPC  H11R 4770   0.769   4.551   6.148  0.3964 -1.1933  0.4970
   61SAPC  C212 4771   0.619   4.577   6.017  1.2944 -0.0472  0.1031
   61SAPC  H12R 4772   0.696   4.583   5.939 -0.9017  1.2461 -2.0862
   61SAPC  C213 4773   0.477   4.591   5.967 -0.9120  0.1608 -0.4568
   61SAPC  H13R 4774   0.432   4.678   6.019  1.3945  1.3712 -0.3094
   61SAPC  H13S 4775   0.418   4.502   5.996 -0.7184  0.0003 -0.5481
   61SAPC  C214 4776   0.475   4.602   5.816  0.2154 -0.0756  0.6548
   61SAPC  H14R 4777   0.512   4.515   5.759  2.3111  1.6810 -0.8028
   61SAPC  C215 4778   0.417   4.700   5.741 -0.3688 -0.1870  0.2310
   61SAPC  H15R 4779   0.444   4.702   5.634  1.7990  0.7699  0.7501
   61SAPC  C216 4780   0.353   4.826   5.790 -0.0244 -0.8099 -0.3106
   61SAPC  H16R 4781   0.356   4.907   5.713  0.3514  1.1978  1.6886
   61SAPC  H16S 4782   0.395   4.869   5.884  0.8580  0.3127 -1.1789
   61SAPC  C217 4783   0.207   4.800   5.823  0.2009 -0.3608 -1.1181
   61SAPC  H17R 4784   0.196   4.753   5.923 -0.6620 -0.4476 -1.2518
   61SAPC  H17S 4785   0.170   4.727   5.747  0.0038 -1.7594  0.2749
   61SAPC  C218 4786   0.127   4.933   5.827 -0.1626  0.2486  0.1105
   61SAPC  H18R 4787   0.195   5.009   5.871 -0.2227 -0.2019  1.0124
   61SAPC  H18S 4788   0.038   4.910   5.889 -0.4012  0.1176 -0.2788
   61SAPC  C219 4789   0.076   4.976   5.686  0.1088  0.3130 -0.2687
   61SAPC  H19R 4790   0.003   4.912   5.633 -1.4343 -0.4148  2.5869
   61SAPC  H19S 4791   0.160   4.981   5.613  1.4369  2.4855  1.2799
   61SAPC  C220 4792   0.022   5.120   5.692 -0.0137  0.3264 -0.1804
   61SAPC  H20R 4793   0.004   5.158   5.589 -0.1686 -0.1611 -0.3403
   61SAPC  H20S 4794   0.084   5.185   5.757 -0.9234  2.0790 -0.9965
   61SAPC  H20T 4795  -0.080   5.116   5.735 -0.7477  0.1224 -1.8573
   61SAPC   C33 4796   0.218   3.841   6.726 -0.3515  0.0676 -0.2006
   61SAPC   H3X 4797   0.257   3.939   6.761 -0.6978 -0.2204  1.0448
   61SAPC   H3Y 4798   0.107   3.840   6.720 -0.3645 -0.6261  0.0439
   61SAPC   C34 4799   0.285   3.820   6.590  0.3561 -0.6042 -0.0464
   61SAPC   H4X 4800   0.279   3.717   6.549 -0.1764  0.4976 -2.9421
   61SAPC   H4Y 4801   0.390   3.841   6.621  0.3139 -0.7586  0.2059
   61SAPC   C35 4802   0.234   3.923   6.485  0.4934 -0.3561  0.4984
   61SAPC   H5X 4803   0.276   4.023   6.509  0.7429 -0.0896 -0.9590
   61SAPC   H5Y 4804   0.126   3.944   6.473  0.6399  0.3677  0.3652
   61SAPC   C36 4805   0.295   3.884   6.345  0.1992 -0.0865 -0.0797
   61SAPC   H6X 4806   0.245   3.787   6.324  1.5375 -0.7568 -0.2764
   61SAPC   H6Y 4807   0.405   3.867   6.347  0.3756  0.2021 -2.7862
   61SAPC   C37 4808   0.248   3.975   6.241  0.5616 -0.2146  0.2115
   61SAPC   H7X 4809   0.304   4.071   6.240 -2.8046  1.8972  0.2848
   61SAPC   H7Y 4810   0.141   3.992   6.265  0.6385 -1.4021  1.5174
   61SAPC   C38 4811   0.256   3.920   6.099 -0.2705  0.1358  0.2649
   61SAPC   H8X 4812   0.195   3.827   6.104  0.4866 -0.3729  0.1132
   61SAPC   H8Y 4813   0.358   3.891   6.066 -0.6552 -2.0436  0.8402
   61SAPC   C39 4814   0.196   4.017   5.987 -0.5925  0.1137 -0.7067
   61SAPC   H9X 4815   0.201   3.962   5.890 -4.4071 -1.3486 -0.2235
   61SAPC   H9Y 4816   0.268   4.102   5.994  0.9233 -1.2269  0.7145
   61SAPC  C310 4817   0.047   4.044   6.015  0.1968  0.1726 -0.1179
   61SAPC  H10X 4818   0.040   4.080   6.120  3.1351  0.1487  0.1813
   61SAPC  H10Y 4819  -0.001   3.944   6.011 -1.1372  0.8462 -1.9258
   61SAPC  C311 4820  -0.023   4.136   5.921 -0.3026 -0.0424  0.4349
   61SAPC  H11X 4821   0.024   4.236   5.920 -0.6300  0.1253  1.0857
   61SAPC  H11Y 4822  -0.130   4.146   5.951 -0.7366 -0.2688 -0.9655
   61SAPC  C312 4823  -0.025   4.083   5.774  0.2424 -0.5738  0.0076
   61SAPC  H12X 4824  -0.042   3.973   5.772  1.2233 -0.7850 -2.9254
   61SAPC  H12Y 4825   0.072   4.105   5.725 -1.2286  1.5829 -2.1867
   61SAPC  C313 4826  -0.131   4.163   5.696 -0.2222 -0.0862  0.5390
   61SAPC  H13X 4827  -0.112   4.272   5.705 -0.3918  0.5623 -4.3229
   61SAPC  H13Y 4828  -0.235   4.143   5.731 -0.6010 -0.5434 -0.7789
   61SAPC  C314 4829  -0.127   4.130   5.551  0.0295 -0.2088 -0.4140
   61SAPC  H14X 4830  -0.153   4.024   5.534 -0.3103  0.1248 -2.2904
   61SAPC  H14Y 4831  -0.022   4.147   5.521  0.4708 -0.6651  0.8219
   61SAPC  C315 4832  -0.220   4.216   5.461  0.5044  0.1856  0.1304
   61SAPC  H15X 4833  -0.222   4.324   5.486 -0.0705  0.6950 -1.9004
   61SAPC  H15Y 4834  -0.323   4.183   5.484 -0.0763  2.0905  0.4543
   61SAPC  C316 4835  -0.176   4.199   5.319 -0.1764 -0.1888  0.0142
   61SAPC  H16X 4836  -0.202   4.097   5.283 -1.8114 -0.0234  0.6193
   61SAPC  H16Y 4837  -0.065   4.206   5.316  0.3863 -5.2757 -0.1302
   61SAPC  C317 4838  -0.242   4.296   5.213  0.3983  0.1791 -0.3782
   61SAPC  H17X 4839  -0.351   4.276   5.217  0.5068 -0.4512 -0.5845
   61SAPC  H17Y 4840  -0.202   4.262   5.116  0.9609 -1.6295  0.4482
   61SAPC  C318 4841  -0.218   4.446   5.243  0.4264 -0.3786  0.2707
   61SAPC  H18X 4842  -0.289   4.494   5.312  1.8726  2.4986 -0.0864
   61SAPC  H18Y 4843  -0.229   4.501   5.147 -0.4043 -1.0493 -0.0308
   61SAPC  H18Z 4844  -0.114   4.466   5.278  0.1411 -0.8331  1.3860
   62SAPC     N 4845   4.123   0.826   8.051  0.0141 -0.0480 -0.3537
   62SAPC   C12 4846   4.258   0.890   8.082  0.0183  0.3380  0.2454
   62SAPC  H12A 4847   4.337   0.826   8.119 -0.1567 -0.0581 -0.0566
   62SAPC  H12B 4848   4.251   0.966   8.159  1.5103  0.0595  0.6947
   62SAPC   C13 4849   4.035   0.913   7.973  0.1978 -0.5089 -0.1442
   62SAPC  H13A 4850   4.069   0.928   7.872  1.2276 -0.0554  0.2622
   62SAPC  H13B 4851   3.930   0.887   7.967  0.2258 -0.3749 -1.4304
   62SAPC  H13C 4852   4.044   1.014   8.009 -1.6766 -0.3306 -0.0837
   62SAPC   C14 4853   4.153   0.703   7.962  0.2612  0.0002 -0.4423
   62SAPC  H14A 4854   4.201   0.630   8.026  0.0215 -0.4378 -0.7584
   62SAPC  H14B 4855   4.063   0.666   7.916 -1.4056  0.6550  2.1247
   62SAPC  H14C 4856   4.218   0.736   7.882  0.7870  0.9206  0.3350
   62SAPC   C15 4857   4.049   0.777   8.167  0.0956 -0.0967 -0.6995
   62SAPC  H15A 4858   4.106   0.705   8.223  1.0669 -1.1069 -2.8355
   62SAPC  H15B 4859   4.048   0.862   8.233  0.2021  0.1587 -1.0209
   62SAPC  H15C 4860   3.951   0.740   8.141 -0.4486  2.2729 -2.4219
   62SAPC   C11 4861   4.320   0.962   7.963  0.1333 -0.3461  0.4435
   62SAPC  H11A 4862   4.315   0.892   7.877  0.1008 -1.3149  1.2128
   62SAPC  H11B 4863   4.426   0.977   7.990  1.0630 -2.3944 -1.7006
   62SAPC     P 4864   4.288   1.191   7.829  0.0285 -0.4052  0.2101
   62SAPC   O13 4865   4.162   1.263   7.790  0.2749  0.2578  0.6130
   62SAPC   O14 4866   4.395   1.275   7.890  0.0311  0.1756  0.3596
   62SAPC   O12 4867   4.256   1.084   7.939  0.1099  0.1758  0.8514
   62SAPC   O11 4868   4.333   1.104   7.702 -0.6026  0.2817  0.0289
   62SAPC    C1 4869   4.248   1.008   7.634 -0.4479 -0.5290  0.3748
   62SAPC    HA 4870   4.283   0.907   7.664 -0.2028 -0.5383  0.0550
   62SAPC    HB 4871   4.142   1.014   7.667  0.0200 -0.3666  1.9507
   62SAPC    C2 4872   4.268   1.019   7.479  0.0454 -0.6074  0.1504
   62SAPC    HS 4873   4.367   0.987   7.441 -0.0862  0.5803 -1.3343
   62SAPC   O21 4874   4.260   1.160   7.444 -0.6856  0.1666 -0.1704
   62SAPC   C21 4875   4.324   1.202   7.336 -0.4288 -0.5038 -0.1135
   62SAPC   O22 4876   4.390   1.128   7.265  0.2682  0.2981  0.8226
   62SAPC   C22 4877   4.311   1.353   7.309  0.2512  0.2983 -0.0781
   62SAPC   H2R 4878   4.211   1.390   7.338 -0.1012 -0.4069 -0.3717
   62SAPC   H2S 4879   4.385   1.399   7.378  1.3512  0.7134 -1.4707
   62SAPC    C3 4880   4.161   0.933   7.392  0.2739  0.0051  0.0618
   62SAPC    HX 4881   4.060   0.977   7.412  0.1115  0.6449 -1.9549
   62SAPC    HY 4882   4.148   0.828   7.424 -1.0219 -0.7030 -2.5068
   62SAPC   O31 4883   4.179   0.940   7.249 -0.0136  0.2309 -0.1098
   62SAPC   C31 4884   4.283   0.884   7.192 -0.1171  0.0215 -0.6472
   62SAPC   O32 4885   4.366   0.812   7.248  0.2788 -0.2377  0.0392
   62SAPC   C32 4886   4.286   0.922   7.046 -0.0919  0.1815 -0.1237
   62SAPC   H2X 4887   4.328   1.025   7.042  0.4106  0.0129  0.5746
   62SAPC   H2Y 4888   4.183   0.929   7.006  0.3364  2.4104 -1.0108
   62SAPC   C23 4889   4.345   1.400   7.167 -0.2871 -0.7257  0.4395
   62SAPC   H3R 4890   4.281   1.357   7.087 -2.0049  2.4758 -0.0948
   62SAPC   H3S 4891   4.444   1.360   7.135 -0.4706 -0.2191 -0.8403
   62SAPC   C24 4892   4.354   1.552   7.159 -0.6691 -0.4585  0.4619
   62SAPC   H4R 4893   4.412   1.579   7.069 -1.4547 -1.5320 -0.3911
   62SAPC   H4S 4894   4.408   1.592   7.248  1.7629  3.8506 -2.5819
   62SAPC   C25 4895   4.209   1.599   7.149 -0.2781  0.8983 -0.4753
   62SAPC   H5R 4896   4.153   1.599   7.244 -1.4714 -0.2452 -1.1594
   62SAPC   C26 4897   4.146   1.645   7.040  0.8032 -0.6723  0.0741
   62SAPC   H6R 4898   4.043   1.682   7.052  1.2250  0.7873 -0.5152
   62SAPC   C27 4899   4.207   1.664   6.902  0.0285  0.5287  0.5927
   62SAPC   H7R 4900   4.317   1.653   6.899  0.2577  2.6324 -0.8192
   62SAPC   H7S 4901   4.198   1.770   6.869  0.8040  0.2098 -0.6789
   62SAPC   C28 4902   4.139   1.573   6.798 -0.6661 -0.1495  0.5374
   62SAPC   H8R 4903   4.042   1.525   6.821 -0.2835 -0.6104  1.2175
   62SAPC   C29 4904   4.185   1.547   6.670 -0.3741  0.5614  0.1297
   62SAPC   H9R 4905   4.129   1.470   6.615  3.3643 -3.2165  1.0346
   62SAPC  C210 4906   4.308   1.595   6.594 -0.4069  0.1760  0.6436
   62SAPC  H10R 4907   4.401   1.575   6.653  0.0913  0.4558 -0.0311
   62SAPC  H10S 4908   4.295   1.705   6.584  4.1599  0.9163  0.5360
   62SAPC  C211 4909   4.331   1.534   6.459  0.6055  0.5176  0.2539
   62SAPC  H11R 4910   4.322   1.425   6.464  0.4918  0.5818  1.9629
   62SAPC  C212 4911   4.366   1.583   6.336 -0.1959  0.3038  0.0294
   62SAPC  H12R 4912   4.359   1.518   6.248 -0.0935 -0.6428  0.7076
   62SAPC  C213 4913   4.379   1.730   6.296 -0.0735 -0.6276 -0.2762
   62SAPC  H13R 4914   4.487   1.728   6.272  0.0496 -1.0097  0.3011
   62SAPC  H13S 4915   4.376   1.808   6.376 -0.9587 -0.9368  0.0027
   62SAPC  C214 4916   4.299   1.761   6.171 -0.6473 -0.2546 -0.2998
   62SAPC  H14R 4917   4.196   1.797   6.184  0.6625  4.0792 -0.1891
   62SAPC  C215 4918   4.340   1.738   6.045 -0.4238  0.2941 -0.0105
   62SAPC  H15R 4919   4.268   1.781   5.974 -0.8785  2.4114  1.6474
   62SAPC  C216 4920   4.470   1.677   5.999 -0.0528  0.2443 -0.4475
   62SAPC  H16R 4921   4.532   1.642   6.085  0.0592  1.0594 -0.1865
   62SAPC  H16S 4922   4.535   1.755   5.954  0.2211 -0.5538 -1.4739
   62SAPC  C217 4923   4.473   1.548   5.910 -0.5923  0.0403  0.1941
   62SAPC  H17R 4924   4.404   1.470   5.949 -0.3744 -0.8721 -1.1414
   62SAPC  H17S 4925   4.578   1.511   5.906  0.6683  2.7821  3.3798
   62SAPC  C218 4926   4.433   1.585   5.765  0.1734 -0.8126 -0.2286
   62SAPC  H18R 4927   4.501   1.663   5.724  1.3381 -0.8943  1.4355
   62SAPC  H18S 4928   4.330   1.626   5.767  0.9974  1.3826 -0.2169
   62SAPC  C219 4929   4.449   1.472   5.667  0.1217 -0.1243 -0.4794
   62SAPC  H19R 4930   4.549   1.426   5.680 -0.1495 -0.7723 -0.6243
   62SAPC  H19S 4931   4.437   1.514   5.565 -3.4220  1.1094  0.2834
   62SAPC  C220 4932   4.340   1.359   5.674 -0.6771 -0.1759 -0.0967
   62SAPC  H20R 4933   4.248   1.401   5.629 -1.0390 -0.5820  0.2503
   62SAPC  H20S 4934   4.322   1.339   5.782 -1.0258 -2.1103 -0.4739
   62SAPC  H20T 4935   4.369   1.271   5.612 -0.2458 -0.5315  0.5927
   62SAPC   C33 4936   4.369   0.820   6.973 -0.0444  0.3361 -0.0791
   62SAPC   H3X 4937   4.323   0.719   6.981 -0.4512  0.4329 -1.1225
   62SAPC   H3Y 4938   4.469   0.801   7.019  0.0097  0.2057 -0.2511
   62SAPC   C34 4939   4.397   0.852   6.829 -0.0935  0.5472 -0.2554
   62SAPC   H4X 4940   4.301   0.835   6.776  0.1198  0.8456 -0.7432
   62SAPC   H4Y 4941   4.464   0.781   6.776 -0.5463 -2.1213  2.4123
   62SAPC   C35 4942   4.438   0.993   6.794 -0.6368  0.2057 -0.3485
   62SAPC   H5X 4943   4.535   1.010   6.846 -0.6506  0.3090 -0.3546
   62SAPC   H5Y 4944   4.364   1.067   6.833 -0.5456  0.1329 -0.0323
   62SAPC   C36 4945   4.452   1.002   6.639 -0.1243  0.8984 -1.1282
   62SAPC   H6X 4946   4.360   0.966   6.587  0.6900 -0.9376 -1.3839
   62SAPC   H6Y 4947   4.534   0.933   6.610 -0.2489  0.5676 -0.7107
   62SAPC   C37 4948   4.491   1.136   6.577  0.0568 -0.2288  0.3552
   62SAPC   H7X 4949   4.558   1.181   6.653  0.6458 -0.5846  0.0541
   62SAPC   H7Y 4950   4.401   1.201   6.566  0.9140  0.9003 -0.2556
   62SAPC   C38 4951   4.548   1.106   6.440  0.1841  0.2928  0.1727
   62SAPC   H8X 4952   4.500   1.018   6.392 -0.2682 -0.2814  1.6318
   62SAPC   H8Y 4953   4.653   1.073   6.456  0.8339  2.3409  0.4041
   62SAPC   C39 4954   4.555   1.226   6.352 -0.2160 -0.2696  0.4265
   62SAPC   H9X 4955   4.617   1.300   6.408 -0.1788  0.3908 -0.4614
   62SAPC   H9Y 4956   4.457   1.277   6.350 -0.2530 -0.2350  2.0523
   62SAPC  C310 4957   4.610   1.187   6.209  0.2297  0.2393 -0.9430
   62SAPC  H10X 4958   4.569   1.255   6.131 -0.8586 -0.0780 -0.6642
   62SAPC  H10Y 4959   4.569   1.085   6.190  0.6421 -0.6344  2.2504
   62SAPC  C311 4960   4.762   1.177   6.193 -0.5141 -0.0335  0.1937
   62SAPC  H11X 4961   4.812   1.110   6.266  0.6025  0.4901 -0.0665
   62SAPC  H11Y 4962   4.806   1.275   6.221  0.9662 -0.7642  0.5242
   62SAPC  C312 4963   4.798   1.148   6.047 -0.4793 -0.4988  0.4496
   62SAPC  H12X 4964   4.812   1.043   6.015  1.0096  0.3215 -1.7958
   62SAPC  H12Y 4965   4.904   1.181   6.043 -0.5549 -0.1539  1.1663
   62SAPC  C313 4966   4.714   1.216   5.938  0.1198 -0.2900 -0.1114
   62SAPC  H13X 4967   4.716   1.326   5.956 -0.5930 -0.2441 -0.2886
   62SAPC  H13Y 4968   4.604   1.199   5.945  0.2923 -0.8100  1.9312
   62SAPC  C314 4969   4.763   1.189   5.792  0.0586 -0.2770  0.5173
   62SAPC  H14X 4970   4.676   1.214   5.729  1.6179 -0.5106 -1.8738
   62SAPC  H14Y 4971   4.792   1.082   5.779  0.6990 -0.2545  1.6067
   62SAPC  C315 4972   4.891   1.273   5.754  0.0883 -0.0835 -0.4921
   62SAPC  H15X 4973   4.973   1.251   5.826 -1.4932  0.2951  1.5409
   62SAPC  H15Y 4974   4.870   1.379   5.780  0.4566 -0.6865  2.7790
   62SAPC  C316 4975   4.929   1.263   5.603  0.5829  0.5808  0.0663
   62SAPC  H16X 4976   4.995   1.339   5.558  1.3202 -1.1551 -1.9533
   62SAPC  H16Y 4977   4.830   1.287   5.558  1.0002  0.4475 -0.9450
   62SAPC  C317 4978   4.963   1.117   5.549 -0.7520  0.4613 -0.1633
   62SAPC  H17X 4979   4.925   1.036   5.614 -0.8209 -1.1390 -2.1149
   62SAPC  H17Y 4980   5.073   1.106   5.555 -0.7399  1.0885  1.0733
   62SAPC  C318 4981   4.919   1.100   5.405 -0.2893 -0.1015  0.3602
   62SAPC  H18X 4982   4.808   1.092   5.397 -0.1648  0.1503 -2.5707
   62SAPC  H18Y 4983   4.973   1.021   5.350 -0.4465 -1.4327  2.0199
   62SAPC  H18Z 4984   4.946   1.195   5.354  1.5866 -0.8554 -0.1061
   63SAPC     N 4985   1.655   2.796   7.494 -0.2365 -0.1512 -0.4093
   63SAPC   C12 4986   1.778   2.766   7.404  0.6174 -0.4609  0.7053
   63SAPC  H12A 4987   1.870   2.799   7.450  2.0365 -0.9337 -1.6094
   63SAPC  H12B 4988   1.762   2.826   7.315  1.5663  0.2461  0.9939
   63SAPC   C13 4989   1.660   2.942   7.539 -0.0463 -0.2792 -1.0081
   63SAPC  H13A 4990   1.743   2.963   7.605 -0.8287  0.2140 -0.1628
   63SAPC  H13B 4991   1.658   3.019   7.463 -1.8555  0.4848 -0.2365
   63SAPC  H13C 4992   1.571   2.962   7.597 -0.0163 -0.0949 -1.0247
   63SAPC   C14 4993   1.532   2.779   7.408  0.0975 -0.5467  0.1907
   63SAPC  H14A 4994   1.524   2.672   7.401  0.3312 -0.6259  0.9530
   63SAPC  H14B 4995   1.447   2.818   7.462  0.4985  1.8853 -0.8027
   63SAPC  H14C 4996   1.544   2.818   7.308 -0.1918 -1.5860 -0.2616
   63SAPC   C15 4997   1.650   2.713   7.616 -0.2230 -0.0759 -0.2582
   63SAPC  H15A 4998   1.652   2.606   7.600  0.7286  0.0918 -1.3767
   63SAPC  H15B 4999   1.738   2.740   7.672  0.8730  1.5830 -2.6304
   63SAPC  H15C 5000   1.562   2.736   7.675 -0.5274 -2.0499  0.1321
   63SAPC   C11 5001   1.802   2.623   7.356  0.4064 -0.1447 -0.1355
   63SAPC  H11A 5002   1.884   2.625   7.281  0.7859  0.5331  0.2883
   63SAPC  H11B 5003   1.708   2.597   7.302 -0.1258  0.6686  0.3794
   63SAPC     P 5004   1.969   2.533   7.531  0.0413  0.2506  0.2702
   63SAPC   O13 5005   1.993   2.662   7.599  0.2937 -0.0303  0.0094
   63SAPC   O14 5006   1.970   2.415   7.619 -0.1396 -0.2948 -0.1367
   63SAPC   O12 5007   1.824   2.539   7.463 -0.3070 -0.7465 -0.5216
   63SAPC   O11 5008   2.075   2.511   7.408  0.2736 -0.0167  0.4980
   63SAPC    C1 5009   2.048   2.391   7.329  0.0725  0.0984 -0.5524
   63SAPC    HA 5010   2.070   2.297   7.383  1.6506  0.0298 -1.2517
   63SAPC    HB 5011   1.943   2.390   7.293 -1.7074 -2.3639  3.8770
   63SAPC    C2 5012   2.149   2.383   7.205  0.0961  0.2664 -0.2292
   63SAPC    HS 5013   2.246   2.418   7.246  0.7884 -0.3460 -1.3182
   63SAPC   O21 5014   2.104   2.484   7.113  0.1398 -0.7553 -0.6121
   63SAPC   C21 5015   2.203   2.548   7.047  0.6138 -0.2244 -0.1336
   63SAPC   O22 5016   2.320   2.531   7.053 -0.2446  0.1045  1.2794
   63SAPC   C22 5017   2.126   2.644   6.956 -0.3835 -0.7957 -0.5466
   63SAPC   H2R 5018   2.070   2.571   6.894  0.9031 -2.0041 -0.3525
   63SAPC   H2S 5019   2.054   2.706   7.014  1.0542  0.5921 -0.1728
   63SAPC    C3 5020   2.157   2.243   7.132 -0.4483 -0.1974  0.4849
   63SAPC    HX 5021   2.204   2.162   7.192 -1.0883  0.2202  1.5836
   63SAPC    HY 5022   2.212   2.256   7.037  0.8132  1.7012  1.4250
   63SAPC   O31 5023   2.017   2.207   7.102  0.2685  0.3511 -0.1879
   63SAPC   C31 5024   1.970   2.250   6.997  0.2208 -0.2127 -0.1796
   63SAPC   O32 5025   2.023   2.277   6.890 -0.3944  0.2046  0.2033
   63SAPC   C32 5026   1.817   2.260   7.026 -0.0785 -0.6896 -0.1728
   63SAPC   H2X 5027   1.796   2.237   7.133 -1.0663 -1.1480 -0.4515
   63SAPC   H2Y 5028   1.765   2.179   6.971  0.0209  0.0488 -1.3970
   63SAPC   C23 5029   2.206   2.743   6.878 -0.3214  0.3267 -0.2888
   63SAPC   H3R 5030   2.267   2.694   6.800  1.4386  1.1524  0.5164
   63SAPC   H3S 5031   2.268   2.801   6.950 -2.1028  0.6783  1.0575
   63SAPC   C24 5032   2.117   2.841   6.803  0.1093 -0.1792 -0.1649
   63SAPC   H4R 5033   2.068   2.895   6.887  3.1595 -1.3590  2.5802
   63SAPC   H4S 5034   2.040   2.784   6.746 -0.0344  0.5284 -0.7003
   63SAPC   C25 5035   2.185   2.930   6.702  0.3783  0.8494  0.4117
   63SAPC   H5R 5036   2.284   2.901   6.663 -0.1362  0.1922 -0.4397
   63SAPC   C26 5037   2.136   3.050   6.665 -0.1909  0.0838  0.3557
   63SAPC   H6R 5038   2.185   3.116   6.592 -1.4096  2.9092  1.9473
   63SAPC   C27 5039   2.003   3.095   6.723  0.6502  0.0015  0.5858
   63SAPC   H7R 5040   2.016   3.110   6.833  2.4090 -0.8217  0.5189
   63SAPC   H7S 5041   1.924   3.020   6.704  1.0194 -0.1131 -0.5276
   63SAPC   C28 5042   1.959   3.223   6.659  0.1940 -0.6176 -0.4674
   63SAPC   H8R 5043   1.970   3.316   6.716  0.8684  0.4352 -2.2362
   63SAPC   C29 5044   1.891   3.233   6.546  0.5591  0.2020  0.5788
   63SAPC   H9R 5045   1.864   3.332   6.507  0.4052 -0.1067 -0.1152
   63SAPC  C210 5046   1.848   3.120   6.449  0.1617  0.4187  0.3095
   63SAPC  H10R 5047   1.756   3.150   6.394  0.0838  0.7602  0.6173
   63SAPC  H10S 5048   1.835   3.019   6.493  1.0440  0.4301  0.6015
   63SAPC  C211 5049   1.951   3.109   6.343 -0.5377  0.4229 -0.0599
   63SAPC  H11R 5050   2.056   3.116   6.375  0.0868 -1.0690 -1.6217
   63SAPC  C212 5051   1.926   3.073   6.216 -0.4661  0.4815  0.1162
   63SAPC  H12R 5052   2.008   3.067   6.143 -0.6167 -1.4089  0.0492
   63SAPC  C213 5053   1.788   3.050   6.156 -0.0280  0.4874  0.5038
   63SAPC  H13R 5054   1.722   3.022   6.241 -2.3095 -0.2347 -1.3950
   63SAPC  H13S 5055   1.790   2.949   6.108  1.1790  0.4910  0.5099
   63SAPC  C214 5056   1.726   3.162   6.066  0.4565  0.2684 -0.0515
   63SAPC  H14R 5057   1.726   3.255   6.124  0.2263 -0.7698  1.6607
   63SAPC  C215 5058   1.663   3.149   5.948 -0.5348  0.4032  0.8193
   63SAPC  H15R 5059   1.619   3.242   5.910  0.7931  1.1102  0.9835
   63SAPC  C216 5060   1.648   3.021   5.868 -0.6199 -0.3995  0.0729
   63SAPC  H16R 5061   1.541   3.000   5.850 -0.7263 -0.0867  0.3464
   63SAPC  H16S 5062   1.681   2.925   5.914  0.6965 -0.2961 -0.5986
   63SAPC  C217 5063   1.723   3.023   5.738 -0.1715  0.2213  0.5656
   63SAPC  H17R 5064   1.724   2.918   5.702 -2.1710  0.3275  0.0404
   63SAPC  H17S 5065   1.828   3.055   5.753 -0.2999  0.3475  1.2034
   63SAPC  C218 5066   1.654   3.111   5.631  0.3794  0.1122  0.2933
   63SAPC  H18R 5067   1.647   3.219   5.654  1.3444  0.4380 -0.8232
   63SAPC  H18S 5068   1.548   3.080   5.618  0.1265  1.5373 -1.3605
   63SAPC  C219 5069   1.720   3.115   5.495 -0.0683 -0.6849 -0.4686
   63SAPC  H19R 5070   1.829   3.127   5.512  0.5545 -2.2640 -2.8391
   63SAPC  H19S 5071   1.688   3.200   5.432 -1.3464 -0.5324  0.3558
   63SAPC  C220 5072   1.713   2.988   5.421  0.0314  0.0852  0.7833
   63SAPC  H20R 5073   1.611   2.943   5.417  0.1877 -0.2647  0.6705
   63SAPC  H20S 5074   1.769   2.915   5.483  0.6110  0.1571  0.3445
   63SAPC  H20T 5075   1.756   2.991   5.318  0.9020  1.2478  1.1687
   63SAPC   C33 5076   1.757   2.400   6.980 -0.8069  0.2647 -0.4287
   63SAPC   H3X 5077   1.837   2.472   6.951 -0.1518 -1.3342 -2.8830
   63SAPC   H3Y 5078   1.715   2.448   7.070  1.5458 -1.8441  1.9831
   63SAPC   C34 5079   1.648   2.388   6.871  1.0787 -0.8235 -0.2023
   63SAPC   H4X 5080   1.591   2.483   6.872 -0.1234 -1.5150 -0.3068
   63SAPC   H4Y 5081   1.571   2.313   6.900 -1.3943  0.7846 -2.1595
   63SAPC   C35 5082   1.699   2.359   6.735 -0.1949  0.5421  0.2541
   63SAPC   H5X 5083   1.781   2.283   6.736  0.2161  0.9569 -0.6126
   63SAPC   H5Y 5084   1.752   2.444   6.686  2.1361 -0.5813  0.6648
   63SAPC   C36 5085   1.586   2.304   6.642 -0.7586 -0.5740 -0.1151
   63SAPC   H6X 5086   1.493   2.363   6.629  0.5163  2.0170  1.6604
   63SAPC   H6Y 5087   1.572   2.196   6.663  1.1947 -1.0269 -0.8921
   63SAPC   C37 5088   1.645   2.285   6.493  0.4370 -0.5184 -0.1344
   63SAPC   H7X 5089   1.738   2.224   6.488  1.5322  1.1105 -0.5992
   63SAPC   H7Y 5090   1.688   2.378   6.450 -1.2060  1.1722  1.6664
   63SAPC   C38 5091   1.539   2.231   6.400 -0.2267 -0.3324  0.1667
   63SAPC   H8X 5092   1.454   2.303   6.396 -2.6934 -3.0188  0.6892
   63SAPC   H8Y 5093   1.486   2.147   6.451 -0.8566 -0.1729 -0.2224
   63SAPC   C39 5094   1.590   2.195   6.263 -0.0972  0.7609 -0.0718
   63SAPC   H9X 5095   1.632   2.289   6.221 -0.6736  1.2523  0.4450
   63SAPC   H9Y 5096   1.494   2.181   6.208 -0.1550  0.1401  0.1801
   63SAPC  C310 5097   1.683   2.074   6.258 -0.8177 -0.2547 -0.3709
   63SAPC  H10X 5098   1.624   1.985   6.289  0.4425 -0.5373  1.3548
   63SAPC  H10Y 5099   1.772   2.069   6.324 -1.0966 -0.3246  0.0047
   63SAPC  C311 5100   1.749   2.055   6.112  0.1990  0.3185 -0.0141
   63SAPC  H11X 5101   1.657   2.040   6.051  0.6132  0.7308 -0.7470
   63SAPC  H11Y 5102   1.811   1.963   6.113 -0.7298 -0.3229  0.7622
   63SAPC  C312 5103   1.827   2.173   6.047  0.0764  0.1245  0.4788
   63SAPC  H12X 5104   1.911   2.212   6.108  1.0965 -0.5484 -0.4557
   63SAPC  H12Y 5105   1.757   2.258   6.037  1.0680  0.7252 -2.2129
   63SAPC  C313 5106   1.895   2.149   5.913  0.5673 -0.7691  0.6653
   63SAPC  H13X 5107   1.976   2.078   5.938  2.2530  1.2771  1.3143
   63SAPC  H13Y 5108   1.941   2.246   5.883 -0.3765 -0.5329 -0.0683
   63SAPC  C314 5109   1.804   2.097   5.797  0.0922  0.4464 -0.5905
   63SAPC  H14X 5110   1.719   2.166   5.780  0.6028  1.0750 -0.6761
   63SAPC  H14Y 5111   1.760   1.996   5.811 -1.2885  1.2238  1.1436
   63SAPC  C315 5112   1.873   2.100   5.654  0.2056 -0.1741 -0.2902
   63SAPC  H15X 5113   1.803   2.075   5.572  0.7297  1.3135 -1.2228
   63SAPC  H15Y 5114   1.951   2.021   5.655 -0.4715 -0.8827  0.9080
   63SAPC  C316 5115   1.943   2.233   5.617  0.4621 -0.6702 -1.0170
   63SAPC  H16X 5116   2.016   2.263   5.694 -0.0610  3.1406 -1.7990
   63SAPC  H16Y 5117   1.858   2.304   5.617  0.0298 -1.1775 -0.5329
   63SAPC  C317 5118   1.994   2.231   5.472 -0.2679 -0.0238  0.1188
   63SAPC  H17X 5119   1.916   2.181   5.410 -1.8432  2.9130 -0.4495
   63SAPC  H17Y 5120   2.073   2.153   5.463 -0.5553 -0.4151  0.9609
   63SAPC  C318 5121   2.023   2.368   5.406 -0.2754 -0.0455  0.6601
   63SAPC  H18X 5122   2.125   2.407   5.422 -0.1875  1.6199 -2.9473
   63SAPC  H18Y 5123   1.951   2.446   5.438 -0.4857 -0.0160  0.1235
   63SAPC  H18Z 5124   2.016   2.359   5.295 -0.4212  0.2708  0.6442
   64SAPC     N 5125   6.757   6.320   7.807 -0.5690  0.1881 -0.1590
   64SAPC   C12 5126   6.708   6.402   7.697  0.1616  0.3544 -0.2454
   64SAPC  H12A 5127   6.793   6.432   7.638  0.3516  1.8433  0.7212
   64SAPC  H12B 5128   6.670   6.497   7.730 -0.2634  0.3053 -0.5895
   64SAPC   C13 5129   6.794   6.184   7.753 -0.0192  0.2071  1.0028
   64SAPC  H13A 5130   6.857   6.188   7.665 -2.0497  1.0056 -0.4874
   64SAPC  H13B 5131   6.852   6.119   7.818  0.7641 -0.0219  0.1091
   64SAPC  H13C 5132   6.699   6.138   7.733  1.1230 -2.1978  0.8068
   64SAPC   C14 5133   6.885   6.370   7.869 -0.3081 -0.1808 -0.8547
   64SAPC  H14A 5134   6.864   6.469   7.908 -0.1412 -0.4545 -0.0589
   64SAPC  H14B 5135   6.922   6.306   7.948  0.8151 -1.0498 -2.0493
   64SAPC  H14C 5136   6.963   6.373   7.794 -1.6771  1.4237 -2.3104
   64SAPC   C15 5137   6.658   6.305   7.912  1.4304  0.5765 -0.0678
   64SAPC  H15A 5138   6.561   6.292   7.865  1.2619  0.5113  0.2927
   64SAPC  H15B 5139   6.658   6.215   7.972 -5.2358 -0.0763 -0.3165
   64SAPC  H15C 5140   6.655   6.388   7.980  0.3085 -2.5952  4.1769
   64SAPC   C11 5141   6.607   6.346   7.588  0.0989  0.1708 -0.3262
   64SAPC  H11A 5142   6.646   6.269   7.518 -0.0118 -0.7833  0.6284
   64SAPC  H11B 5143   6.585   6.433   7.523 -1.1251  0.5809  0.6018
   64SAPC     P 5144   6.351   6.386   7.648 -0.1793 -0.0441 -0.1504
   64SAPC   O13 5145   6.253   6.315   7.736 -0.4588  0.1287  0.3086
   64SAPC   O14 5146   6.392   6.519   7.692 -0.0272  0.0796 -0.5595
   64SAPC   O12 5147   6.484   6.297   7.644  0.9942  0.4423  0.4106
   64SAPC   O11 5148   6.296   6.396   7.507  0.2453  0.4111  0.3273
   64SAPC    C1 5149   6.272   6.275   7.433  0.5143  0.1786 -0.6476
   64SAPC    HA 5150   6.368   6.235   7.393  2.1155  0.3519  2.6566
   64SAPC    HB 5151   6.233   6.192   7.494 -0.6075  0.9793 -0.2517
   64SAPC    C2 5152   6.159   6.301   7.327  0.6678  0.3583  0.0395
   64SAPC    HS 5153   6.146   6.209   7.265  1.1998  0.7331 -0.6369
   64SAPC   O21 5154   6.193   6.411   7.249  0.0577 -0.2494  0.4323
   64SAPC   C21 5155   6.277   6.392   7.145  0.0477  0.4152 -0.0948
   64SAPC   O22 5156   6.348   6.295   7.129  0.3759  0.2579 -0.2254
   64SAPC   C22 5157   6.278   6.511   7.056 -0.0272 -0.5416 -0.1206
   64SAPC   H2R 5158   6.177   6.556   7.058 -0.6200 -1.8095 -0.5283
   64SAPC   H2S 5159   6.354   6.577   7.103 -3.0262  1.7148  1.9704
   64SAPC    C3 5160   6.030   6.330   7.406  0.8783  0.3732 -0.6660
   64SAPC    HX 5161   6.047   6.408   7.483  1.8246  0.3273 -0.8190
   64SAPC    HY 5162   6.007   6.235   7.458 -0.2808  1.2114  0.4109
   64SAPC   O31 5163   5.918   6.367   7.316  0.9608 -0.3264 -0.1414
   64SAPC   C31 5164   5.912   6.490   7.278 -0.0753  0.2724  0.0840
   64SAPC   O32 5165   5.967   6.586   7.325 -0.8174 -0.5110  0.3310
   64SAPC   C32 5166   5.801   6.496   7.164  0.2486 -0.2548 -0.7770
   64SAPC   H2X 5167   5.707   6.460   7.210 -0.4884  1.3553 -0.9477
   64SAPC   H2Y 5168   5.827   6.416   7.091 -0.4809  0.2917 -1.6517
   64SAPC   C23 5169   6.323   6.484   6.912  0.1520  0.0211 -0.2583
   64SAPC   H3R 5170   6.405   6.410   6.902  0.8078  0.7737 -0.5388
   64SAPC   H3S 5171   6.379   6.576   6.885 -2.8759  2.2398  0.4159
   64SAPC   C24 5172   6.209   6.449   6.820  0.4347  0.2832 -0.2960
   64SAPC   H4R 5173   6.144   6.539   6.810  1.6275  1.2904  0.6277
   64SAPC   H4S 5174   6.131   6.381   6.860  1.2511 -1.0562 -0.9187
   64SAPC   C25 5175   6.255   6.399   6.687 -0.1979  0.1966 -0.2318
   64SAPC   H5R 5176   6.311   6.305   6.696  0.8998  0.9264  0.9023
   64SAPC   C26 5177   6.235   6.457   6.565 -0.4163 -0.1845 -0.2544
   64SAPC   H6R 5178   6.299   6.420   6.483  1.9072  1.7175  0.5669
   64SAPC   C27 5179   6.148   6.575   6.526  0.2731 -0.5236  0.2251
   64SAPC   H7R 5180   6.179   6.663   6.587 -0.1982  0.0537 -0.3513
   64SAPC   H7S 5181   6.044   6.548   6.554 -0.2861 -0.0552 -1.2764
   64SAPC   C28 5182   6.164   6.611   6.379 -0.3173  0.3701  0.0274
   64SAPC   H8R 5183   6.253   6.672   6.357 -0.7871  1.7926  1.8442
   64SAPC   C29 5184   6.103   6.548   6.273  0.0677 -0.4018 -0.0022
   64SAPC   H9R 5185   6.135   6.581   6.173  0.0354  1.8949  0.6916
   64SAPC  C210 5186   5.987   6.450   6.276 -0.6316  0.5611  0.1050
   64SAPC  H10R 5187   5.970   6.412   6.379  0.1623  0.0543  0.0554
   64SAPC  H10S 5188   5.996   6.365   6.206 -0.6387  1.6161 -1.2157
   64SAPC  C211 5189   5.865   6.522   6.237 -0.1383 -0.1242  0.0601
   64SAPC  H11R 5190   5.828   6.583   6.321 -0.1406  0.5882 -0.4440
   64SAPC  C212 5191   5.816   6.543   6.117  0.5789  0.0982 -0.1356
   64SAPC  H12R 5192   5.728   6.610   6.114 -0.9651 -1.5378  2.9598
   64SAPC  C213 5193   5.846   6.487   5.982 -0.6644  0.4648  0.0778
   64SAPC  H13R 5194   5.931   6.416   5.992  0.0544  1.5456  2.5560
   64SAPC  H13S 5195   5.879   6.576   5.923 -0.4917  2.0940  2.4760
   64SAPC  C214 5196   5.743   6.397   5.913  0.0000 -0.6674 -0.0097
   64SAPC  H14R 5197   5.654   6.375   5.973  0.6331  1.1573  1.6965
   64SAPC  C215 5198   5.753   6.342   5.790  0.2970  0.2249  0.3407
   64SAPC  H15R 5199   5.672   6.280   5.747  0.6843 -0.6902  0.8837
   64SAPC  C216 5200   5.866   6.378   5.700  0.3273 -0.1964  0.6384
   64SAPC  H16R 5201   5.911   6.281   5.669 -1.5088 -0.7209 -0.5225
   64SAPC  H16S 5202   5.951   6.437   5.740  0.6589  0.1700 -0.5676
   64SAPC  C217 5203   5.811   6.447   5.575 -0.5997  0.5511 -0.4779
   64SAPC  H17R 5204   5.888   6.493   5.510 -1.1798 -0.8347 -2.2193
   64SAPC  H17S 5205   5.744   6.528   5.612 -2.9395 -1.7180  0.5462
   64SAPC  C218 5206   5.715   6.346   5.493 -0.5215 -0.2262 -0.2062
   64SAPC  H18R 5207   5.684   6.396   5.399  0.7475 -1.1608 -1.1550
   64SAPC  H18S 5208   5.619   6.330   5.547 -0.4964 -0.5106 -0.2417
   64SAPC  C219 5209   5.764   6.211   5.457  0.2548  0.5200  0.3806
   64SAPC  H19R 5210   5.765   6.138   5.541 -0.4941 -1.2506 -1.0778
   64SAPC  H19S 5211   5.869   6.210   5.421  0.9200  0.2721  2.2008
   64SAPC  C220 5212   5.682   6.145   5.346 -0.5994 -0.5721  0.0052
   64SAPC  H20R 5213   5.578   6.180   5.359 -0.4686  0.0070 -0.4586
   64SAPC  H20S 5214   5.675   6.034   5.352 -4.0068 -0.4789 -0.2631
   64SAPC  H20T 5215   5.720   6.165   5.243  1.6109 -2.7658  0.2879
   64SAPC   C33 5216   5.783   6.634   7.115  0.1712 -0.8435 -0.0156
   64SAPC   H3X 5217   5.875   6.670   7.063 -0.4478 -1.2739 -1.4650
   64SAPC   H3Y 5218   5.765   6.709   7.195  1.8887  0.1445 -0.4975
   64SAPC   C34 5219   5.667   6.643   7.010 -1.0563  0.1993  0.3432
   64SAPC   H4X 5220   5.625   6.743   6.990  0.3818  0.6804 -0.4194
   64SAPC   H4Y 5221   5.585   6.575   7.040  0.0674 -1.4883 -0.2150
   64SAPC   C35 5222   5.722   6.588   6.877 -0.4728  0.4568  0.0519
   64SAPC   H5X 5223   5.780   6.494   6.888 -1.0452 -0.1774 -1.9344
   64SAPC   H5Y 5224   5.788   6.659   6.823 -0.8802 -0.0562 -1.1730
   64SAPC   C36 5225   5.604   6.563   6.777 -0.4478 -0.1586 -0.1728
   64SAPC   H6X 5226   5.551   6.661   6.781 -0.1678  0.0018 -0.3506
   64SAPC   H6Y 5227   5.546   6.476   6.817  1.4458 -0.9325  1.0046
   64SAPC   C37 5228   5.643   6.534   6.632  0.3496 -0.6539 -0.5495
   64SAPC   H7X 5229   5.690   6.435   6.613  0.0159 -0.8640 -0.2841
   64SAPC   H7Y 5230   5.713   6.611   6.592 -0.4084  0.6828  0.6261
   64SAPC   C38 5231   5.512   6.537   6.543 -0.0363  0.4299  0.1316
   64SAPC   H8X 5232   5.463   6.636   6.557 -3.2590 -0.8807 -0.8623
   64SAPC   H8Y 5233   5.452   6.455   6.589  0.4387  0.1449  0.2435
   64SAPC   C39 5234   5.543   6.506   6.401  0.3255  0.5424 -0.2831
   64SAPC   H9X 5235   5.621   6.427   6.400 -0.6525 -0.4928  1.3209
   64SAPC   H9Y 5236   5.600   6.595   6.366  0.8183 -0.5405 -2.4103
   64SAPC  C310 5237   5.421   6.499   6.305  0.0300 -0.0763 -0.8582
   64SAPC  H10X 5238   5.351   6.584   6.293  0.0021 -0.1291 -1.0731
   64SAPC  H10Y 5239   5.364   6.412   6.346 -1.7002  1.6937  0.6762
   64SAPC  C311 5240   5.465   6.458   6.162  0.5316 -0.2353  0.1356
   64SAPC  H11X 5241   5.527   6.368   6.177 -0.4009 -1.2575 -1.7782
   64SAPC  H11Y 5242   5.520   6.546   6.123  0.7305  0.0060  0.9473
   64SAPC  C312 5243   5.341   6.439   6.074 -0.9467 -0.8651  0.3689
   64SAPC  H12X 5244   5.288   6.537   6.076 -1.9574 -1.4181  1.5063
   64SAPC  H12Y 5245   5.265   6.370   6.115 -1.0697 -0.8071  0.2425
   64SAPC  C313 5246   5.372   6.399   5.929 -0.1506 -0.3403  0.5084
   64SAPC  H13X 5247   5.397   6.291   5.936 -1.1334 -0.4488  3.4853
   64SAPC  H13Y 5248   5.461   6.455   5.893  1.3347  0.0289  4.3465
   64SAPC  C314 5249   5.255   6.409   5.824  0.6719 -0.4681  0.5552
   64SAPC  H14X 5250   5.169   6.345   5.854  0.0946  0.5158  1.0220
   64SAPC  H14Y 5251   5.275   6.373   5.721  0.4518  1.8602 -0.3499
   64SAPC  C315 5252   5.193   6.553   5.800 -0.3489  0.4166 -0.0409
   64SAPC  H15X 5253   5.146   6.600   5.889  0.7639  1.5133 -0.0034
   64SAPC  H15Y 5254   5.119   6.547   5.718 -0.6511  0.7824  0.2030
   64SAPC  C316 5255   5.313   6.648   5.760  0.5239  0.4554 -0.6762
   64SAPC  H16X 5256   5.381   6.653   5.847  1.3817  0.3960 -1.3334
   64SAPC  H16Y 5257   5.262   6.745   5.740 -1.0397 -0.3269 -0.6516
   64SAPC  C317 5258   5.379   6.595   5.634 -0.2212  0.4012 -0.3187
   64SAPC  H17X 5259   5.297   6.561   5.568 -1.8436 -0.7221  2.1199
   64SAPC  H17Y 5260   5.455   6.517   5.658 -1.1510 -0.4496 -0.0974
   64SAPC  C318 5261   5.451   6.709   5.548  1.3220 -0.6606 -0.2834
   64SAPC  H18X 5262   5.556   6.729   5.578 -0.1572  3.6911  2.9286
   64SAPC  H18Y 5263   5.390   6.801   5.559  0.3663 -1.5519  2.5588
   64SAPC  H18Z 5264   5.441   6.671   5.444 -1.3334 -0.4573 -0.1637
   65SAPC     N 5265   3.786   5.706   3.037 -0.1133 -0.4717 -0.0732
   65SAPC   C12 5266   3.721   5.815   3.120  0.2532  0.3574  0.2329
   65SAPC  H12A 5267   3.665   5.893   3.070 -0.8595 -0.6571 -0.1266
   65SAPC  H12B 5268   3.805   5.866   3.166  0.0809  0.3690  0.5334
   65SAPC   C13 5269   3.678   5.633   2.954  0.2552  0.4590 -0.1718
   65SAPC  H13A 5270   3.602   5.586   3.014  0.9099 -2.5031 -1.4860
   65SAPC  H13B 5271   3.624   5.708   2.898  0.0181  0.7466  0.4390
   65SAPC  H13C 5272   3.719   5.559   2.886 -1.0426  1.0676 -1.6919
   65SAPC   C14 5273   3.881   5.774   2.943 -0.4978 -0.4190  0.5104
   65SAPC  H14A 5274   3.915   5.710   2.863  1.7414 -0.7066  1.6255
   65SAPC  H14B 5275   3.842   5.863   2.898  1.4957  0.5255  0.5591
   65SAPC  H14C 5276   3.967   5.811   2.997  0.5471  0.8798 -1.8967
   65SAPC   C15 5277   3.850   5.607   3.123 -0.0135 -0.1874  0.1669
   65SAPC  H15A 5278   3.906   5.535   3.066 -0.3482 -0.3348  0.0210
   65SAPC  H15B 5279   3.912   5.657   3.196 -0.4244  1.7965 -0.7725
   65SAPC  H15C 5280   3.769   5.554   3.169  1.7489 -2.2586  1.0309
   65SAPC   C11 5281   3.632   5.759   3.237 -0.0813 -0.7297 -0.2717
   65SAPC  H11A 5282   3.595   5.843   3.300  3.3408  1.2272 -0.6683
   65SAPC  H11B 5283   3.700   5.704   3.305 -1.5561 -0.2033  1.7420
   65SAPC     P 5284   3.487   5.539   3.236  0.4342  0.1170  0.0973
   65SAPC   O13 5285   3.343   5.517   3.204  0.0073  0.4354  0.7276
   65SAPC   O14 5286   3.581   5.458   3.159  0.0129  0.0006  0.3751
   65SAPC   O12 5287   3.515   5.683   3.198  0.3047 -0.5655  0.2964
   65SAPC   O11 5288   3.508   5.518   3.395 -0.5334  0.0757  0.4800
   65SAPC    C1 5289   3.452   5.611   3.490  0.2409 -0.0949  0.0740
   65SAPC    HA 5290   3.414   5.703   3.440  0.6288  0.1386  0.2053
   65SAPC    HB 5291   3.355   5.566   3.520 -0.4520 -0.2488 -2.2383
   65SAPC    C2 5292   3.536   5.627   3.620 -0.4780  0.1119  1.5716
   65SAPC    HS 5293   3.630   5.667   3.577 -1.1867  0.3924  0.2098
   65SAPC   O21 5294   3.548   5.501   3.689 -0.5813  0.3254  0.0919
   65SAPC   C21 5295   3.672   5.490   3.742  0.0680  0.4449  0.3634
   65SAPC   O22 5296   3.751   5.577   3.750  0.0166  0.0958 -0.2782
   65SAPC   C22 5297   3.702   5.342   3.786 -0.6523 -0.0888  0.2483
   65SAPC   H2R 5298   3.612   5.307   3.842 -0.7575 -1.4826 -0.7396
   65SAPC   H2S 5299   3.702   5.282   3.692 -3.1183  0.3606 -0.1065
   65SAPC    C3 5300   3.472   5.729   3.718 -0.0340  0.1025 -0.1090
   65SAPC    HX 5301   3.375   5.681   3.743 -1.4128  1.7107 -2.0725
   65SAPC    HY 5302   3.433   5.823   3.674 -0.2213  0.4003  0.6802
   65SAPC   O31 5303   3.541   5.757   3.846 -0.3946 -0.1243  0.0949
   65SAPC   C31 5304   3.651   5.836   3.825  0.6654 -0.0395 -0.0898
   65SAPC   O32 5305   3.685   5.874   3.716 -1.1357  0.7066  0.6252
   65SAPC   C32 5306   3.736   5.851   3.950  1.0349 -0.2883 -0.4736
   65SAPC   H2X 5307   3.743   5.960   3.969 -1.0253  0.1566 -1.9485
   65SAPC   H2Y 5308   3.838   5.812   3.930  0.8950 -0.4691 -0.8301
   65SAPC   C23 5309   3.843   5.312   3.856  0.2929  0.5728  0.3366
   65SAPC   H3R 5310   3.921   5.374   3.806 -0.2361  0.3136 -0.8578
   65SAPC   H3S 5311   3.862   5.203   3.857  0.0997  0.5341 -0.0235
   65SAPC   C24 5312   3.836   5.354   4.007  0.2794 -0.3891  0.4842
   65SAPC   H4R 5313   3.821   5.464   4.020  1.1952 -0.2665  0.5712
   65SAPC   H4S 5314   3.941   5.330   4.035  0.6749 -1.4547 -1.6966
   65SAPC   C25 5315   3.745   5.257   4.084  0.3920 -0.3197 -0.4503
   65SAPC   H5R 5316   3.716   5.173   4.019  0.1370 -1.2553  0.8331
   65SAPC   C26 5317   3.691   5.280   4.208  0.8243  0.2556 -0.7597
   65SAPC   H6R 5318   3.627   5.199   4.246  1.8113 -1.2673 -2.2391
   65SAPC   C27 5319   3.705   5.399   4.301 -0.2247  0.2684 -0.8454
   65SAPC   H7R 5320   3.744   5.493   4.256 -1.3462  1.8571  1.2702
   65SAPC   H7S 5321   3.781   5.367   4.375  0.3005  2.1534 -0.5156
   65SAPC   C28 5322   3.583   5.432   4.384 -0.1340 -0.4265  0.7375
   65SAPC   H8R 5323   3.496   5.461   4.323  0.2431 -0.1782  0.3207
   65SAPC   C29 5324   3.569   5.433   4.517 -0.3568  0.2688 -0.1646
   65SAPC   H9R 5325   3.467   5.456   4.552 -0.7326 -1.5752  0.0350
   65SAPC  C210 5326   3.672   5.404   4.626 -0.4618  0.4831 -0.3279
   65SAPC  H10R 5327   3.633   5.441   4.723  1.8387 -1.3397  1.4030
   65SAPC  H10S 5328   3.769   5.453   4.600  0.9491 -1.8824  0.2168
   65SAPC  C211 5329   3.697   5.246   4.627 -0.8265 -0.6523  0.0039
   65SAPC  H11R 5330   3.752   5.215   4.537  0.4350 -0.2732  0.6212
   65SAPC  C212 5331   3.659   5.156   4.719  0.5486 -0.3108  0.3859
   65SAPC  H12R 5332   3.695   5.053   4.705  0.3803 -0.2262 -0.8131
   65SAPC  C213 5333   3.592   5.160   4.851  0.1134 -0.0217 -0.6531
   65SAPC  H13R 5334   3.534   5.071   4.884 -0.3096 -0.1809 -1.7916
   65SAPC  H13S 5335   3.505   5.228   4.843  1.6253  2.4246  1.8058
   65SAPC  C214 5336   3.679   5.219   4.964 -0.0521  0.2435  0.1067
   65SAPC  H14R 5337   3.751   5.291   4.922 -1.5505  1.2998 -0.7749
   65SAPC  C215 5338   3.688   5.174   5.096 -0.0995 -0.8636  0.7811
   65SAPC  H15R 5339   3.754   5.233   5.162  0.0302  0.4379 -0.4753
   65SAPC  C216 5340   3.600   5.070   5.157  0.0084 -0.2606 -0.1870
   65SAPC  H16R 5341   3.675   4.991   5.178  2.4979  1.9515 -0.1345
   65SAPC  H16S 5342   3.521   5.030   5.090  1.0006 -1.0731 -0.8980
   65SAPC  C217 5343   3.544   5.110   5.292 -0.5634  1.2056 -0.3981
   65SAPC  H17R 5344   3.613   5.178   5.346 -0.1377  1.3915 -1.1616
   65SAPC  H17S 5345   3.541   5.018   5.355  0.9446  1.4696  0.1173
   65SAPC  C218 5346   3.408   5.163   5.289  0.0228  0.2352 -0.3716
   65SAPC  H18R 5347   3.346   5.075   5.262  0.5423 -0.8318  1.7161
   65SAPC  H18S 5348   3.405   5.246   5.215 -2.4650  1.8612  1.4097
   65SAPC  C219 5349   3.368   5.216   5.429 -0.2625 -0.1888  0.3980
   65SAPC  H19R 5350   3.262   5.249   5.436 -0.9249 -2.1613  0.3635
   65SAPC  H19S 5351   3.436   5.302   5.446  1.5273 -1.8455  2.0408
   65SAPC  C220 5352   3.383   5.121   5.546  0.1425 -0.0153 -0.3203
   65SAPC  H20R 5353   3.341   5.021   5.523  0.7473 -1.0027  2.5130
   65SAPC  H20S 5354   3.329   5.159   5.635 -2.4990 -2.4118 -0.7701
   65SAPC  H20T 5355   3.491   5.108   5.570 -0.0782 -1.2110  0.0957
   65SAPC   C33 5356   3.685   5.801   4.089 -0.0551 -0.0341 -0.2447
   65SAPC   H3X 5357   3.659   5.693   4.082 -0.0604 -0.0339 -0.2361
   65SAPC   H3Y 5358   3.580   5.833   4.110 -1.2176 -3.6627  0.0717
   65SAPC   C34 5359   3.775   5.836   4.212  0.3947 -0.4090  0.3560
   65SAPC   H4X 5360   3.791   5.946   4.214 -2.0414 -0.0055  1.0285
   65SAPC   H4Y 5361   3.875   5.798   4.181  0.4947  0.6888 -0.7639
   65SAPC   C35 5362   3.716   5.791   4.347 -0.1493 -0.0912  0.4108
   65SAPC   H5X 5363   3.718   5.680   4.350 -0.3780 -0.0834  0.9640
   65SAPC   H5Y 5364   3.613   5.825   4.370 -0.5409 -1.9523  1.6893
   65SAPC   C36 5365   3.814   5.862   4.456  0.8523  0.0954  0.3014
   65SAPC   H6X 5366   3.795   5.971   4.465  2.0044  0.3517 -0.1557
   65SAPC   H6Y 5367   3.916   5.852   4.413  0.4015 -0.1173 -0.7625
   65SAPC   C37 5368   3.810   5.796   4.597 -0.4391  0.1734  0.0396
   65SAPC   H7X 5369   3.894   5.847   4.650  0.8592  1.4179 -2.9429
   65SAPC   H7Y 5370   3.823   5.687   4.587 -1.1938 -0.0689  1.4618
   65SAPC   C38 5371   3.689   5.827   4.684  0.0529 -0.3354  0.8501
   65SAPC   H8X 5372   3.605   5.796   4.618  0.9869 -0.5188 -0.2817
   65SAPC   H8Y 5373   3.678   5.938   4.686 -0.8625 -0.4183  0.7062
   65SAPC   C39 5374   3.684   5.753   4.810  0.2535 -0.7425 -0.5361
   65SAPC   H9X 5375   3.777   5.785   4.862 -0.9999 -0.4401  1.6213
   65SAPC   H9Y 5376   3.690   5.643   4.799  0.5999 -0.5279 -3.2457
   65SAPC  C310 5377   3.558   5.787   4.898 -0.6736 -0.2196 -0.8034
   65SAPC  H10X 5378   3.455   5.781   4.855 -0.7282  1.7426 -1.0417
   65SAPC  H10Y 5379   3.551   5.891   4.935 -2.6283  0.3585 -2.5533
   65SAPC  C311 5380   3.560   5.697   5.022  0.1125  0.3516  0.3550
   65SAPC  H11X 5381   3.652   5.709   5.082 -0.2615 -0.0418  1.0151
   65SAPC  H11Y 5382   3.552   5.594   4.981  1.8476 -0.5130  2.0605
   65SAPC  C312 5383   3.437   5.733   5.107 -0.5843 -0.6255 -0.2115
   65SAPC  H12X 5384   3.341   5.736   5.050 -1.1659  0.7160  0.7786
   65SAPC  H12Y 5385   3.444   5.822   5.172 -0.6798 -1.8404  1.5209
   65SAPC  C313 5386   3.405   5.629   5.211  0.1946  0.7920 -0.1812
   65SAPC  H13X 5387   3.362   5.538   5.164  1.0147 -1.4475  3.0725
   65SAPC  H13Y 5388   3.325   5.672   5.274  0.5980 -0.4992  1.2744
   65SAPC  C314 5389   3.521   5.588   5.308  0.1391 -0.3963  0.1298
   65SAPC  H14X 5390   3.597   5.532   5.250 -1.8415 -1.3611 -1.6836
   65SAPC  H14Y 5391   3.484   5.519   5.387 -0.8652 -1.5851 -1.3150
   65SAPC  C315 5392   3.611   5.703   5.370  0.2680  0.1386 -1.1677
   65SAPC  H15X 5393   3.643   5.770   5.287 -0.4102  1.7474 -0.1707
   65SAPC  H15Y 5394   3.704   5.664   5.417 -0.0006  1.7371  0.8287
   65SAPC  C316 5395   3.539   5.797   5.469 -0.8410 -0.6470 -0.2970
   65SAPC  H16X 5396   3.498   5.733   5.550  1.3789 -0.1057  1.3673
   65SAPC  H16Y 5397   3.452   5.847   5.423  0.0823  0.9490 -0.3724
   65SAPC  C317 5398   3.633   5.903   5.522 -1.1055  0.5124 -0.0383
   65SAPC  H17X 5399   3.730   5.859   5.553 -0.1983  1.8857 -0.7517
   65SAPC  H17Y 5400   3.586   5.951   5.611 -0.4447 -0.7024  0.9848
   65SAPC  C318 5401   3.654   6.022   5.426  0.3898  0.0222 -0.0518
   65SAPC  H18X 5402   3.552   6.048   5.392  0.4371  0.7433  0.3425
   65SAPC  H18Y 5403   3.714   6.005   5.334  0.3500  3.1355 -0.7553
   65SAPC  H18Z 5404   3.706   6.105   5.479 -0.1081 -0.4446  1.2025
   66SAPC     N 5405   2.226   3.627   3.135  0.2329  0.6493  0.2080
   66SAPC   C12 5406   2.244   3.494   3.218  0.9694  0.1737  0.3272
   66SAPC  H12A 5407   2.292   3.422   3.153  3.0526  1.3786  0.4402
   66SAPC  H12B 5408   2.143   3.463   3.241 -0.0843  1.0774 -2.6537
   66SAPC   C13 5409   2.140   3.721   3.222  1.1353 -0.3919 -0.1311
   66SAPC  H13A 5410   2.046   3.682   3.260  1.0034  0.0727  0.0227
   66SAPC  H13B 5411   2.209   3.759   3.296  1.4415  0.2915 -0.7621
   66SAPC  H13C 5412   2.119   3.804   3.157 -1.4840  0.2326  1.3470
   66SAPC   C14 5413   2.348   3.691   3.101 -0.0160 -0.2859  0.4811
   66SAPC  H14A 5414   2.401   3.628   3.032 -0.9027  1.5331 -1.9767
   66SAPC  H14B 5415   2.344   3.785   3.047  2.0109  0.4680  1.5275
   66SAPC  H14C 5416   2.414   3.701   3.186  1.2513 -0.8249 -0.4030
   66SAPC   C15 5417   2.148   3.593   3.009 -0.1656  0.1530  0.4021
   66SAPC  H15A 5418   2.113   3.682   2.959 -0.1101 -0.9993 -1.7820
   66SAPC  H15B 5419   2.206   3.538   2.937 -0.5082  0.8012 -0.3812
   66SAPC  H15C 5420   2.068   3.528   3.043  1.0756 -1.8729 -0.3552
   66SAPC   C11 5421   2.337   3.484   3.333 -0.9323 -0.0093 -0.3085
   66SAPC  H11A 5422   2.328   3.385   3.381 -1.6854  0.1541 -0.0903
   66SAPC  H11B 5423   2.314   3.570   3.400  0.8872  0.9024 -0.7916
   66SAPC     P 5424   2.584   3.411   3.277 -0.3231  0.3052  0.5554
   66SAPC   O13 5425   2.521   3.279   3.277  0.1930  0.0415 -0.9581
   66SAPC   O14 5426   2.662   3.441   3.157  0.0238 -0.2899  0.0203
   66SAPC   O12 5427   2.469   3.515   3.299  0.2391 -0.3600  0.3439
   66SAPC   O11 5428   2.681   3.441   3.403 -0.6876  0.6904  0.8503
   66SAPC    C1 5429   2.700   3.567   3.451  0.0394  0.1588  0.2721
   66SAPC    HA 5430   2.605   3.619   3.478  0.4558 -0.3103  2.9891
   66SAPC    HB 5431   2.747   3.563   3.552 -0.6845  0.7603  0.6459
   66SAPC    C2 5432   2.796   3.647   3.362  0.4979  0.4339  0.6360
   66SAPC    HS 5433   2.745   3.659   3.264  1.6423 -1.1152 -0.1822
   66SAPC   O21 5434   2.923   3.586   3.351  0.1029 -0.4267 -0.2530
   66SAPC   C21 5435   3.002   3.646   3.265 -0.2164 -0.2032  0.1115
   66SAPC   O22 5436   2.965   3.733   3.187 -0.5556  0.4044 -0.6134
   66SAPC   C22 5437   3.149   3.594   3.271  0.2143  0.8388 -0.1348
   66SAPC   H2R 5438   3.139   3.505   3.336 -0.6399  1.0590  0.0411
   66SAPC   H2S 5439   3.183   3.560   3.171  0.0228 -1.3027  0.4724
   66SAPC    C3 5440   2.803   3.798   3.426 -0.2120 -0.3195 -0.8202
   66SAPC    HX 5441   2.697   3.831   3.422  0.0725  0.8106  0.3854
   66SAPC    HY 5442   2.865   3.874   3.374  1.0828 -0.0323  1.0661
   66SAPC   O31 5443   2.853   3.789   3.561  0.2774 -0.0742  0.3838
   66SAPC   C31 5444   2.825   3.888   3.641  0.1512 -0.8527 -0.0857
   66SAPC   O32 5445   2.770   3.991   3.610  0.2786  0.0416 -0.7206
   66SAPC   C32 5446   2.905   3.862   3.768 -0.5304  0.0276  0.2774
   66SAPC   H2X 5447   2.945   3.962   3.795 -1.5919 -0.4964  4.3859
   66SAPC   H2Y 5448   2.994   3.800   3.745 -1.0510 -0.6860  0.1685
   66SAPC   C23 5449   3.248   3.698   3.331 -0.2882 -0.3095  0.1197
   66SAPC   H3R 5450   3.233   3.789   3.268  1.7210 -0.2128 -0.2727
   66SAPC   H3S 5451   3.352   3.664   3.313 -0.7148 -1.1407 -0.8926
   66SAPC   C24 5452   3.207   3.716   3.481 -0.3652 -0.2138 -0.2735
   66SAPC   H4R 5453   3.202   3.621   3.539  1.9433 -0.5980 -0.6031
   66SAPC   H4S 5454   3.103   3.754   3.473  0.2500  1.5339 -0.5212
   66SAPC   C25 5455   3.289   3.822   3.555  0.1409  0.4870 -0.4385
   66SAPC   H5R 5456   3.279   3.918   3.501 -1.2751  0.3345 -0.4758
   66SAPC   C26 5457   3.357   3.813   3.673  0.0877 -0.4790 -1.0293
   66SAPC   H6R 5458   3.412   3.901   3.710 -0.6111 -0.4668  0.0064
   66SAPC   C27 5459   3.352   3.699   3.776  0.0023  0.5387 -0.2474
   66SAPC   H7R 5460   3.281   3.625   3.736  2.8787 -1.4931 -1.9387
   66SAPC   H7S 5461   3.308   3.727   3.874 -2.6277  0.5085 -1.3510
   66SAPC   C28 5462   3.491   3.636   3.777  0.3992 -0.4298 -0.0505
   66SAPC   H8R 5463   3.514   3.614   3.672 -1.8984  0.7438 -0.8819
   66SAPC   C29 5464   3.547   3.567   3.876 -0.1518 -0.1553  0.9023
   66SAPC   H9R 5465   3.637   3.505   3.860 -0.9133 -1.4308  1.4161
   66SAPC  C210 5466   3.508   3.578   4.021 -0.0057  0.1897 -0.2928
   66SAPC  H10R 5467   3.474   3.683   4.029 -2.0383 -0.1753 -2.7785
   66SAPC  H10S 5468   3.605   3.573   4.074  0.2459 -1.9721 -0.8697
   66SAPC  C211 5469   3.424   3.475   4.090  0.1786 -0.5671 -0.3993
   66SAPC  H11R 5470   3.434   3.373   4.050  0.0349 -0.7950  0.1354
   66SAPC  C212 5471   3.360   3.504   4.204 -1.0858 -0.0548 -0.2647
   66SAPC  H12R 5472   3.315   3.423   4.263  4.3140 -0.4199  4.2104
   66SAPC  C213 5473   3.365   3.641   4.280  0.4757 -0.5260 -1.0187
   66SAPC  H13R 5474   3.264   3.642   4.327  0.3063  3.1835 -1.1988
   66SAPC  H13S 5475   3.376   3.730   4.215  2.0796 -0.4318 -0.6521
   66SAPC  C214 5476   3.468   3.646   4.396  0.5790 -0.0715 -0.2745
   66SAPC  H14R 5477   3.573   3.664   4.366  1.4107 -2.9356  0.5220
   66SAPC  C215 5478   3.447   3.615   4.528 -0.3145  0.0186  0.4674
   66SAPC  H15R 5479   3.534   3.625   4.594  2.3599 -0.4841 -2.7333
   66SAPC  C216 5480   3.316   3.569   4.594  0.3499  0.2178  0.0390
   66SAPC  H16R 5481   3.283   3.464   4.576 -0.9198  0.6981 -0.5703
   66SAPC  H16S 5482   3.234   3.636   4.561  0.6221  0.5595  0.0525
   66SAPC  C217 5483   3.313   3.579   4.752 -0.2921 -0.4202 -0.3926
   66SAPC  H17R 5484   3.208   3.566   4.787 -0.3575 -0.6334 -0.6697
   66SAPC  H17S 5485   3.345   3.679   4.791 -0.4973  0.3650 -2.1260
   66SAPC  C218 5486   3.401   3.476   4.822  0.3562 -0.4323 -0.5262
   66SAPC  H18R 5487   3.503   3.501   4.787  0.5984 -1.6748 -0.7536
   66SAPC  H18S 5488   3.377   3.372   4.792 -1.0496 -0.5948  1.0037
   66SAPC  C219 5489   3.388   3.484   4.980 -0.3578  0.0511  0.4674
   66SAPC  H19R 5490   3.281   3.471   5.008 -0.2079  0.0796  1.0588
   66SAPC  H19S 5491   3.409   3.588   5.012 -0.0111 -0.6159  2.5119
   66SAPC  C220 5492   3.470   3.383   5.059 -0.3867  0.0969 -0.2763
   66SAPC  H20R 5493   3.575   3.389   5.022 -0.4140  1.0516 -0.2198
   66SAPC  H20S 5494   3.430   3.279   5.058  0.1698 -0.1356  0.7158
   66SAPC  H20T 5495   3.475   3.416   5.164 -0.0847  0.6723 -0.4674
   66SAPC   C33 5496   2.818   3.819   3.891  0.2530  0.8687 -0.2844
   66SAPC   H3X 5497   2.798   3.710   3.885 -0.3299  0.7131  2.5865
   66SAPC   H3Y 5498   2.721   3.873   3.898  0.1744  0.5338  2.7529
   66SAPC   C34 5499   2.887   3.864   4.020  0.0679 -0.2960  0.0841
   66SAPC   H4X 5500   2.820   3.844   4.106  0.7767  1.6025  1.1380
   66SAPC   H4Y 5501   2.899   3.975   4.020 -1.9143 -0.0491 -0.9048
   66SAPC   C35 5502   3.030   3.814   4.043 -0.4707  0.2200  0.2496
   66SAPC   H5X 5503   3.066   3.847   4.142  0.4434  0.2319 -0.0723
   66SAPC   H5Y 5504   3.099   3.855   3.966 -0.9244  0.9970  0.2469
   66SAPC   C36 5505   3.044   3.661   4.034  0.0815 -0.7541  0.0037
   66SAPC   H6X 5506   3.148   3.624   4.033 -0.1795 -1.5016 -0.0005
   66SAPC   H6Y 5507   3.003   3.647   3.931 -0.9458 -0.4644  0.3675
   66SAPC   C37 5508   2.966   3.588   4.141 -0.1314 -0.4535  0.1831
   66SAPC   H7X 5509   2.867   3.636   4.152  0.2515  0.5492 -0.5442
   66SAPC   H7Y 5510   3.036   3.607   4.226  2.7925  2.0094 -2.4963
   66SAPC   C38 5511   2.964   3.441   4.113  0.0595  0.3504 -0.3957
   66SAPC   H8X 5512   3.069   3.407   4.106  0.1846  0.9613 -1.8387
   66SAPC   H8Y 5513   2.925   3.429   4.010 -0.1094  2.0089 -0.5487
   66SAPC   C39 5514   2.883   3.367   4.224 -0.1772  0.0139 -0.0772
   66SAPC   H9X 5515   2.783   3.413   4.233 -0.5033 -0.7089  0.0681
   66SAPC   H9Y 5516   2.924   3.399   4.322 -0.4119 -1.4499  0.5177
   66SAPC  C310 5517   2.878   3.212   4.200 -0.3821 -0.6282  0.1272
   66SAPC  H10X 5518   2.983   3.175   4.210  0.1834 -0.5459 -3.9966
   66SAPC  H10Y 5519   2.838   3.185   4.100 -2.4014  3.6400 -0.4394
   66SAPC  C311 5520   2.785   3.146   4.294  0.5889 -0.1533  0.0119
   66SAPC  H11X 5521   2.776   3.043   4.254  2.5946 -0.0446 -0.8040
   66SAPC  H11Y 5522   2.682   3.187   4.291  0.3291 -0.7538  0.3584
   66SAPC  C312 5523   2.828   3.149   4.439  0.2394  0.1341  0.9647
   66SAPC  H12X 5524   2.813   3.253   4.473  1.1400  0.7488 -0.4338
   66SAPC  H12Y 5525   2.935   3.122   4.455  0.3962  1.6747  2.9447
   66SAPC  C313 5526   2.742   3.070   4.540 -0.6740 -0.4069 -0.1056
   66SAPC  H13X 5527   2.736   2.960   4.522  0.5458 -0.6811  1.0248
   66SAPC  H13Y 5528   2.637   3.107   4.542 -0.7114 -0.5027  2.0348
   66SAPC  C314 5529   2.800   3.073   4.686  0.2975 -0.2508 -0.5115
   66SAPC  H14X 5530   2.848   3.171   4.705 -1.1667  0.1870  1.2131
   66SAPC  H14Y 5531   2.880   2.996   4.682  0.2351 -0.5175  1.9337
   66SAPC  C315 5532   2.699   3.033   4.795  0.3045 -0.7823  0.2781
   66SAPC  H15X 5533   2.596   3.057   4.760  0.3073  3.1995  2.3442
   66SAPC  H15Y 5534   2.706   3.094   4.888  1.9309  0.0974 -0.3759
   66SAPC  C316 5535   2.710   2.891   4.837  0.0393 -0.2586  1.0334
   66SAPC  H16X 5536   2.804   2.877   4.894  0.4816  0.0290  0.3938
   66SAPC  H16Y 5537   2.708   2.833   4.742 -0.4323  1.3806 -0.0118
   66SAPC  C317 5538   2.593   2.842   4.917 -0.3824 -0.1178  0.4898
   66SAPC  H17X 5539   2.598   2.736   4.952  1.7482  0.3654  1.8215
   66SAPC  H17Y 5540   2.508   2.865   4.849 -1.1617  0.3224  1.5789
   66SAPC  C318 5541   2.578   2.936   5.041 -0.3062  0.6296 -0.2571
   66SAPC  H18X 5542   2.504   2.893   5.112  0.9817 -0.7021  0.3062
   66SAPC  H18Y 5543   2.525   3.027   5.004  0.0350  0.9187 -0.0322
   66SAPC  H18Z 5544   2.673   2.954   5.095 -0.3950 -1.0555  0.5124
   67SAPC     N 5545   2.462   5.624   3.265 -0.0659  0.8813 -0.2173
   67SAPC   C12 5546   2.612   5.665   3.289  0.5095 -0.4143 -0.6406
   67SAPC  H12A 5547   2.616   5.771   3.313  2.4790 -0.3622 -1.0187
   67SAPC  H12B 5548   2.662   5.647   3.195  2.0387 -2.2337  0.4667
   67SAPC   C13 5549   2.455   5.503   3.181 -0.3236  0.0597  0.8907
   67SAPC  H13A 5550   2.352   5.475   3.165  0.8807 -2.6532 -4.1332
   67SAPC  H13B 5551   2.496   5.516   3.082 -0.0689  1.8270  1.1906
   67SAPC  H13C 5552   2.492   5.411   3.225 -0.6174 -1.3012 -1.5177
   67SAPC   C14 5553   2.396   5.605   3.399 -0.0698 -1.0065  0.4655
   67SAPC  H14A 5554   2.451   5.527   3.448  2.9978  1.0582  0.5851
   67SAPC  H14B 5555   2.413   5.691   3.462  1.3469 -0.6296 -0.3695
   67SAPC  H14C 5556   2.291   5.581   3.392  0.0859 -2.0676  1.5743
   67SAPC   C15 5557   2.393   5.743   3.196 -0.6465 -0.0505 -0.6376
   67SAPC  H15A 5558   2.287   5.723   3.183 -1.1972  2.1040  0.1221
   67SAPC  H15B 5559   2.402   5.831   3.258  0.8228  0.9014 -2.1257
   67SAPC  H15C 5560   2.435   5.766   3.099 -2.4373 -0.1059 -1.4707
   67SAPC   C11 5561   2.689   5.589   3.396 -0.6185  1.2212 -0.0051
   67SAPC  H11A 5562   2.648   5.588   3.499  1.6245  0.8574  0.9449
   67SAPC  H11B 5563   2.783   5.643   3.418 -0.6063  0.9216  0.7266
   67SAPC     P 5564   2.809   5.413   3.231  0.4685  0.2967  0.1117
   67SAPC   O13 5565   2.808   5.266   3.214 -0.5603 -0.2719 -0.3987
   67SAPC   O14 5566   2.767   5.489   3.111 -0.0783  0.0571 -0.3704
   67SAPC   O12 5567   2.717   5.453   3.358  0.0670  0.0226 -0.6307
   67SAPC   O11 5568   2.946   5.456   3.292  0.4713  0.0423 -0.0119
   67SAPC    C1 5569   2.993   5.380   3.414  0.0666 -0.0524  0.3045
   67SAPC    HA 5570   2.963   5.275   3.438 -0.7387  0.7160  3.1228
   67SAPC    HB 5571   3.104   5.371   3.420  0.2471  1.6982 -0.0668
   67SAPC    C2 5572   2.981   5.469   3.547  0.5002 -0.6613 -0.0682
   67SAPC    HS 5573   2.877   5.487   3.579  0.6984 -1.2699  0.9576
   67SAPC   O21 5574   3.048   5.592   3.528 -0.5393  0.0092 -0.0089
   67SAPC   C21 5575   2.997   5.701   3.574 -0.8599  0.2155  0.2199
   67SAPC   O22 5576   2.887   5.712   3.627 -0.1714  0.1601  0.3389
   67SAPC   C22 5577   3.107   5.806   3.564 -0.4140  0.8448 -0.0527
   67SAPC   H2R 5578   3.205   5.760   3.588  0.1402  1.3334 -1.2749
   67SAPC   H2S 5579   3.103   5.855   3.464 -3.0025  0.6639 -0.0928
   67SAPC    C3 5580   3.051   5.394   3.666  0.4762 -0.6998 -0.6098
   67SAPC    HX 5581   3.158   5.403   3.639  0.3915 -0.6377 -0.9300
   67SAPC    HY 5582   3.032   5.284   3.675 -1.4491 -0.3338  0.2681
   67SAPC   O31 5583   3.032   5.455   3.796 -0.6284  0.1105 -0.4695
   67SAPC   C31 5584   2.919   5.410   3.866  0.5238 -0.0241  0.7062
   67SAPC   O32 5585   2.847   5.323   3.825  0.3342 -0.2225  0.0155
   67SAPC   C32 5586   2.903   5.488   3.987 -0.3396 -0.1706 -0.8256
   67SAPC   H2X 5587   2.794   5.492   4.007 -0.5156 -0.7772 -1.6139
   67SAPC   H2Y 5588   2.943   5.590   3.971  0.0678 -0.1589  0.1538
   67SAPC   C23 5589   3.074   5.919   3.666 -0.3101  0.2977  0.3392
   67SAPC   H3R 5590   2.986   5.899   3.731 -0.2379 -0.4411  0.2170
   67SAPC   H3S 5591   3.029   6.008   3.616 -2.9332 -0.5971  0.9612
   67SAPC   C24 5592   3.194   5.948   3.765  0.8876  0.3272  0.1231
   67SAPC   H4R 5593   3.289   5.969   3.710  1.0147 -3.0750 -1.1855
   67SAPC   H4S 5594   3.211   5.850   3.813  2.6936  0.4210 -0.2363
   67SAPC   C25 5595   3.164   6.049   3.876  0.2903 -0.1825  0.5501
   67SAPC   H5R 5596   3.182   6.154   3.848 -0.1823 -0.0105  0.8765
   67SAPC   C26 5597   3.151   6.018   4.006 -0.5022  0.3200  0.5789
   67SAPC   H6R 5598   3.154   6.096   4.083  0.6907 -0.2108  1.0868
   67SAPC   C27 5599   3.136   5.882   4.067 -0.5920  0.7320 -0.6399
   67SAPC   H7R 5600   3.064   5.825   4.004 -1.2910  1.5113 -0.5659
   67SAPC   H7S 5601   3.088   5.899   4.166  0.9389  3.4342 -0.2617
   67SAPC   C28 5602   3.269   5.810   4.080 -0.1204  0.1304  0.6803
   67SAPC   H8R 5603   3.319   5.787   3.985 -0.9980 -1.9644  0.6680
   67SAPC   C29 5604   3.326   5.764   4.192  0.1567 -0.7053 -0.2240
   67SAPC   H9R 5605   3.422   5.712   4.176  1.5583  1.3590  0.8806
   67SAPC  C210 5606   3.252   5.758   4.328 -0.5050  0.0624  0.1332
   67SAPC  H10R 5607   3.167   5.688   4.317  1.2268 -1.9158 -1.6055
   67SAPC  H10S 5608   3.218   5.862   4.344  0.9981  0.3512  1.8333
   67SAPC  C211 5609   3.328   5.715   4.450 -0.2182  0.1142 -0.3160
   67SAPC  H11R 5610   3.435   5.696   4.430 -0.0680  1.5269 -0.9593
   67SAPC  C212 5611   3.280   5.734   4.575  0.1128  1.4211  0.0407
   67SAPC  H12R 5612   3.342   5.707   4.661  2.4113 -0.0487 -1.9494
   67SAPC  C213 5613   3.140   5.772   4.611  0.4320  0.0220 -0.5122
   67SAPC  H13R 5614   3.070   5.718   4.542 -1.5578  2.0444 -0.1685
   67SAPC  H13S 5615   3.122   5.877   4.581 -0.3959 -0.1016 -0.4644
   67SAPC  C214 5616   3.089   5.750   4.753  0.1322  0.5105 -0.1569
   67SAPC  H14R 5617   3.044   5.651   4.772 -0.1668  0.6211 -0.2779
   67SAPC  C215 5618   3.102   5.837   4.854  0.0568  0.4804 -0.3250
   67SAPC  H15R 5619   3.069   5.800   4.952  1.4891 -1.8087 -0.6307
   67SAPC  C216 5620   3.158   5.977   4.857  0.2669 -0.4058 -0.4642
   67SAPC  H16R 5621   3.168   6.022   4.756  0.8765 -0.9707 -0.6630
   67SAPC  H16S 5622   3.255   5.986   4.911  0.0730  0.9902 -0.3158
   67SAPC  C217 5623   3.063   6.072   4.932 -0.0199  0.1355  0.4932
   67SAPC  H17R 5624   2.962   6.068   4.886 -0.6259 -0.8262  1.8495
   67SAPC  H17S 5625   3.096   6.176   4.911  1.3927 -0.5831 -1.0808
   67SAPC  C218 5626   3.035   6.028   5.081  0.8389 -0.3599 -0.0311
   67SAPC  H18R 5627   3.131   6.016   5.135 -0.1580  0.9099  2.1822
   67SAPC  H18S 5628   2.991   5.927   5.097  0.2228  0.0035  0.6370
   67SAPC  C219 5629   2.951   6.128   5.163 -0.1540 -0.0783 -0.4603
   67SAPC  H19R 5630   2.856   6.156   5.112  0.4985 -0.3144 -1.8556
   67SAPC  H19S 5631   3.015   6.219   5.157  1.2961 -1.0912 -0.8886
   67SAPC  C220 5632   2.928   6.075   5.304 -0.1915  0.5618 -0.0083
   67SAPC  H20R 5633   2.892   6.157   5.370 -0.2671  0.2328  0.3655
   67SAPC  H20S 5634   3.028   6.045   5.343  0.4881  1.8600 -0.6973
   67SAPC  H20T 5635   2.866   5.985   5.323  1.3298 -0.7474 -0.9823
   67SAPC   C33 5636   2.990   5.442   4.111  0.0213  0.1509 -0.0115
   67SAPC   H3X 5637   2.985   5.523   4.187  2.1225 -0.0904  0.4374
   67SAPC   H3Y 5638   3.095   5.422   4.083 -0.8287 -2.0643 -2.0370
   67SAPC   C34 5639   2.935   5.306   4.159 -0.2395 -0.4296 -0.8178
   67SAPC   H4X 5640   2.942   5.220   4.091  1.7952 -0.4492 -0.6213
   67SAPC   H4Y 5641   2.825   5.316   4.172 -0.1926 -1.0400  0.1643
   67SAPC   C35 5642   3.015   5.262   4.287 -0.2990 -0.5486 -0.6690
   67SAPC   H5X 5643   3.120   5.297   4.281  0.4942 -2.1925  1.9373
   67SAPC   H5Y 5644   3.010   5.153   4.305 -1.6360 -0.2381  1.1168
   67SAPC   C36 5645   2.939   5.313   4.409 -0.1806  0.3682 -0.2075
   67SAPC   H6X 5646   2.840   5.264   4.407  0.9286 -1.9698 -0.2123
   67SAPC   H6Y 5647   2.930   5.423   4.396  1.3403  0.8209  2.0666
   67SAPC   C37 5648   3.007   5.281   4.552 -0.4180  0.0574 -0.8773
   67SAPC   H7X 5649   2.924   5.284   4.626  1.2786 -0.6644  1.1493
   67SAPC   H7Y 5650   3.090   5.350   4.577 -1.0024  0.3471  0.3430
   67SAPC   C38 5651   3.070   5.137   4.564  0.1690 -0.8560  0.1412
   67SAPC   H8X 5652   3.165   5.134   4.507  0.9920 -1.1515  1.4908
   67SAPC   H8Y 5653   2.999   5.060   4.527  0.6513 -1.8645  1.2483
   67SAPC   C39 5654   3.106   5.106   4.712 -0.2121  0.3683 -0.3686
   67SAPC   H9X 5655   3.013   5.102   4.773  0.9373 -1.0471  1.3888
   67SAPC   H9Y 5656   3.177   5.181   4.751  1.6327 -1.1943 -0.5920
   67SAPC  C310 5657   3.188   4.971   4.726  0.0912 -0.2000  0.3127
   67SAPC  H10X 5658   3.288   4.993   4.683  0.0870  2.5533  1.5058
   67SAPC  H10Y 5659   3.139   4.891   4.666  0.4428 -0.5947  0.5450
   67SAPC  C311 5660   3.204   4.918   4.870  0.5294 -0.5536 -0.3168
   67SAPC  H11X 5661   3.120   4.957   4.930 -0.2386 -1.3500 -0.8531
   67SAPC  H11Y 5662   3.300   4.949   4.917  0.1170 -0.3979  0.4247
   67SAPC  C312 5663   3.210   4.763   4.863 -0.0811  0.1253 -0.0110
   67SAPC  H12X 5664   3.305   4.738   4.812  1.4232  2.1311  1.6298
   67SAPC  H12Y 5665   3.123   4.725   4.805 -0.0807 -1.0765  0.7557
   67SAPC  C313 5666   3.211   4.692   4.997  0.0842  0.0996  0.2544
   67SAPC  H13X 5667   3.109   4.681   5.038  0.4705 -2.6029  0.7379
   67SAPC  H13Y 5668   3.277   4.745   5.068  1.1335  0.8956 -1.2556
   67SAPC  C314 5669   3.252   4.539   5.009 -0.5735  0.1204 -0.5271
   67SAPC  H14X 5670   3.336   4.507   4.944  2.6761  1.0944  2.7788
   67SAPC  H14Y 5671   3.158   4.486   4.984 -0.5561  0.5838 -1.6173
   67SAPC  C315 5672   3.289   4.477   5.148  0.9030 -0.4018  0.8061
   67SAPC  H15X 5673   3.217   4.525   5.217  1.2661 -2.1802  2.5366
   67SAPC  H15Y 5674   3.395   4.479   5.183  0.8250 -1.9991  1.2474
   67SAPC  C316 5675   3.248   4.324   5.143  0.3939 -0.6783 -0.7670
   67SAPC  H16X 5676   3.320   4.275   5.075  0.1494 -1.8811 -0.1786
   67SAPC  H16Y 5677   3.140   4.310   5.122 -0.5718  2.3196  1.5007
   67SAPC  C317 5678   3.265   4.244   5.276  0.1605 -0.6191  0.9548
   67SAPC  H17X 5679   3.191   4.255   5.358 -1.1234  0.0640 -0.2515
   67SAPC  H17Y 5680   3.371   4.270   5.297  0.9038 -1.8048 -1.0184
   67SAPC  C318 5681   3.258   4.089   5.256 -0.5621 -0.1081  0.2089
   67SAPC  H18X 5682   3.346   4.055   5.197 -1.8254  0.4611 -2.1384
   67SAPC  H18Y 5683   3.158   4.063   5.214 -0.3388 -0.8372  0.1109
   67SAPC  H18Z 5684   3.262   4.032   5.351  1.2066 -0.7955 -0.2414
   68SAPC     N 5685   6.340   6.794   3.337 -0.1643  0.0198  0.3779
   68SAPC   C12 5686   6.414   6.670   3.386 -0.8057 -0.2681 -0.1267
   68SAPC  H12A 5687   6.428   6.691   3.491 -2.8841  2.5981 -0.3087
   68SAPC  H12B 5688   6.508   6.678   3.333 -0.1088  1.0003  1.2116
   68SAPC   C13 5689   6.202   6.793   3.387  0.0235  0.3030 -0.4474
   68SAPC  H13A 5690   6.139   6.708   3.364 -1.6022  1.2994  0.1314
   68SAPC  H13B 5691   6.201   6.804   3.495 -0.1181 -0.8564 -0.3200
   68SAPC  H13C 5692   6.148   6.880   3.352 -1.3819  0.2360  1.3981
   68SAPC   C14 5693   6.411   6.917   3.387  0.0102 -0.0028 -0.0942
   68SAPC  H14A 5694   6.351   7.002   3.355 -0.3052 -0.4687 -0.7587
   68SAPC  H14B 5695   6.413   6.916   3.495  1.9837  2.4402 -0.0181
   68SAPC  H14C 5696   6.515   6.910   3.359  0.0141 -1.0698  0.1516
   68SAPC   C15 5697   6.339   6.794   3.185  0.8520 -0.1183  0.8308
   68SAPC  H15A 5698   6.430   6.828   3.137 -1.4710  4.5281 -0.8267
   68SAPC  H15B 5699   6.325   6.692   3.153  1.1516  0.0520  0.1377
   68SAPC  H15C 5700   6.267   6.861   3.140  1.4361  0.1682  0.3016
   68SAPC   C11 5701   6.350   6.534   3.378 -0.0884 -0.4306  0.2018
   68SAPC  H11A 5702   6.260   6.535   3.442  2.2165  1.2503  3.7139
   68SAPC  H11B 5703   6.411   6.456   3.428 -0.3919 -0.5744  0.3506
   68SAPC     P 5704   6.430   6.434   3.150 -0.1704 -0.1605  0.2249
   68SAPC   O13 5705   6.375   6.432   3.018 -0.4727  0.5009  0.5949
   68SAPC   O14 5706   6.557   6.511   3.164  0.6600 -0.6771 -0.1642
   68SAPC   O12 5707   6.323   6.509   3.244  0.1376  0.2325  0.5697
   68SAPC   O11 5708   6.444   6.291   3.204  0.1528 -0.1508  0.1541
   68SAPC    C1 5709   6.319   6.218   3.221  0.4832  0.0717  0.1671
   68SAPC    HA 5710   6.222   6.269   3.241  0.1081 -1.4603  2.7435
   68SAPC    HB 5711   6.311   6.153   3.131 -0.8489  0.0274  0.2917
   68SAPC    C2 5712   6.338   6.126   3.342 -0.3999  0.0939 -0.2766
   68SAPC    HS 5713   6.257   6.050   3.342 -1.3212  1.0234 -2.0043
   68SAPC   O21 5714   6.336   6.214   3.455  0.3043  0.3675 -0.0889
   68SAPC   C21 5715   6.213   6.234   3.505  0.0188 -0.1328 -0.4780
   68SAPC   O22 5716   6.107   6.193   3.456 -0.0799 -0.0414 -0.7214
   68SAPC   C22 5717   6.227   6.311   3.637  0.4987  0.4302  0.2089
   68SAPC   H2R 5718   6.334   6.318   3.668  0.9381 -1.4472 -0.7289
   68SAPC   H2S 5719   6.198   6.416   3.615  2.5313  1.0809  0.4358
   68SAPC    C3 5720   6.472   6.060   3.341  0.1569 -0.2015  0.3347
   68SAPC    HX 5721   6.548   6.138   3.322  1.0392 -1.2571 -0.5859
   68SAPC    HY 5722   6.477   5.983   3.261 -0.1806 -0.6654  0.7434
   68SAPC   O31 5723   6.492   5.983   3.458  0.0968  0.6445 -0.8341
   68SAPC   C31 5724   6.619   5.967   3.500  0.6940 -0.3159 -0.5846
   68SAPC   O32 5725   6.717   6.006   3.438 -0.4115  0.4198 -0.7655
   68SAPC   C32 5726   6.619   5.914   3.637  0.0875  0.0755  0.1187
   68SAPC   H2X 5727   6.683   5.823   3.626 -1.6022 -1.1637  0.0643
   68SAPC   H2Y 5728   6.518   5.885   3.672  0.0729 -0.2155 -0.1570
   68SAPC   C23 5729   6.146   6.248   3.744  0.0517  0.0080  0.4234
   68SAPC   H3R 5730   6.169   6.140   3.753  1.5186 -0.0946 -3.0222
   68SAPC   H3S 5731   6.040   6.252   3.711 -0.2007  0.9952  1.2719
   68SAPC   C24 5732   6.162   6.317   3.885 -0.7043  0.0310  0.1269
   68SAPC   H4R 5733   6.082   6.274   3.949 -0.0350  0.5865  1.3603
   68SAPC   H4S 5734   6.146   6.426   3.873 -0.2002  0.0829 -0.0564
   68SAPC   C25 5735   6.296   6.297   3.950 -0.5589 -0.2953 -0.0386
   68SAPC   H5R 5736   6.370   6.351   3.889 -2.2789  0.0899 -1.9109
   68SAPC   C26 5737   6.326   6.240   4.067 -0.3879  0.1015  0.1510
   68SAPC   H6R 5738   6.428   6.241   4.106 -1.1323  0.5439  2.2006
   68SAPC   C27 5739   6.230   6.163   4.151 -1.1574 -0.0356 -0.1861
   68SAPC   H7R 5740   6.157   6.116   4.081  0.0876 -0.1197 -1.4808
   68SAPC   H7S 5741   6.170   6.233   4.213  0.3116 -0.0772  1.3544
   68SAPC   C28 5742   6.295   6.059   4.242 -0.0508 -0.2869 -0.4179
   68SAPC   H8R 5743   6.286   5.954   4.207 -0.3204  0.1018 -1.5704
   68SAPC   C29 5744   6.355   6.077   4.356 -1.0714  0.3154  0.2003
   68SAPC   H9R 5745   6.380   5.988   4.417 -1.2251  1.1733  1.5623
   68SAPC  C210 5746   6.373   6.209   4.426  0.0331 -0.6607 -0.3389
   68SAPC  H10R 5747   6.353   6.297   4.361  0.4477 -0.2588  0.0646
   68SAPC  H10S 5748   6.474   6.220   4.470 -0.0073  0.4549 -0.4978
   68SAPC  C211 5749   6.269   6.227   4.537 -0.0040 -0.4218  0.3723
   68SAPC  H11R 5750   6.180   6.284   4.508  1.0493  2.1199  1.8324
   68SAPC  C212 5751   6.272   6.178   4.662 -0.0171 -0.0778 -0.1091
   68SAPC  H12R 5752   6.186   6.192   4.730 -1.2669 -0.9064 -1.4542
   68SAPC  C213 5753   6.380   6.094   4.723  1.1373 -0.4284 -0.1199
   68SAPC  H13R 5754   6.448   6.065   4.641 -0.9611  0.8270 -2.4360
   68SAPC  H13S 5755   6.325   6.003   4.757 -0.0119 -1.1317 -3.4436
   68SAPC  C214 5756   6.448   6.150   4.844 -0.2187 -0.0254 -0.9812
   68SAPC  H14R 5757   6.556   6.167   4.840  0.8505 -3.7011  3.6354
   68SAPC  C215 5758   6.406   6.158   4.973 -0.8776 -1.2811 -0.0523
   68SAPC  H15R 5759   6.472   6.198   5.052 -1.6106 -1.1807  0.5227
   68SAPC  C216 5760   6.275   6.109   5.028  0.1897  0.0823  0.7176
   68SAPC  H16R 5761   6.205   6.106   4.941  1.1087 -0.8257 -0.0233
   68SAPC  H16S 5762   6.228   6.173   5.105 -0.4138  0.1287  0.3198
   68SAPC  C217 5763   6.292   5.966   5.079  0.2654 -0.7851  0.7611
   68SAPC  H17R 5764   6.379   5.966   5.147 -0.2777 -1.7145  1.4892
   68SAPC  H17S 5765   6.309   5.900   4.991 -0.6382  1.8189 -1.5193
   68SAPC  C218 5766   6.175   5.914   5.166 -0.5582 -0.4746 -0.4704
   68SAPC  H18R 5767   6.086   5.930   5.102 -1.1998  2.1518  0.9250
   68SAPC  H18S 5768   6.157   5.966   5.263 -1.5920 -0.9376 -0.4009
   68SAPC  C219 5769   6.188   5.759   5.177 -0.1305  0.0584  0.2110
   68SAPC  H19R 5770   6.292   5.743   5.213  1.8894  1.6394 -4.1621
   68SAPC  H19S 5771   6.183   5.710   5.078  1.4232 -3.6369  1.7701
   68SAPC  C220 5772   6.096   5.694   5.274  0.7000 -0.2968 -0.8394
   68SAPC  H20R 5773   6.091   5.585   5.253 -1.7883 -0.1344 -1.4391
   68SAPC  H20S 5774   5.991   5.729   5.265  0.6531 -0.2522 -0.1578
   68SAPC  H20T 5775   6.137   5.703   5.377 -1.2055  1.2636 -0.1499
   68SAPC   C33 5776   6.685   6.007   3.739 -0.8516 -0.5176 -0.4609
   68SAPC   H3X 5777   6.648   6.111   3.727 -1.7564 -0.7796 -0.0113
   68SAPC   H3Y 5778   6.790   6.031   3.711 -1.1622  1.3842 -0.1245
   68SAPC   C34 5779   6.669   5.969   3.886 -0.0168  0.2055 -0.2032
   68SAPC   H4X 5780   6.685   5.861   3.906  2.0747  0.7778  1.6072
   68SAPC   H4Y 5781   6.567   5.994   3.924  0.1136 -0.6546  0.7652
   68SAPC   C35 5782   6.762   6.046   3.981 -0.4748 -0.7186  0.8153
   68SAPC   H5X 5783   6.731   6.152   3.996 -3.0827 -1.4615  1.1441
   68SAPC   H5Y 5784   6.866   6.034   3.943 -0.9373 -2.2918 -0.0068
   68SAPC   C36 5785   6.753   5.994   4.129  0.0921 -0.6749 -0.2032
   68SAPC   H6X 5786   6.734   5.886   4.112 -1.4672 -0.2406 -1.4014
   68SAPC   H6Y 5787   6.663   6.029   4.183 -1.1519 -1.8904 -1.4306
   68SAPC   C37 5788   6.872   6.028   4.221  0.0768  0.4669  0.6457
   68SAPC   H7X 5789   6.886   6.137   4.236 -1.0156  0.8280 -0.7587
   68SAPC   H7Y 5790   6.957   5.995   4.158 -1.9372 -1.3262 -1.3322
   68SAPC   C38 5791   6.873   5.956   4.358 -0.4862  0.1015 -0.2423
   68SAPC   H8X 5792   6.972   5.983   4.399  0.8146 -0.2148 -2.9520
   68SAPC   H8Y 5793   6.861   5.849   4.332 -1.2274  0.1148  0.0364
   68SAPC   C39 5794   6.765   5.994   4.468 -0.3023  0.4911  0.2368
   68SAPC   H9X 5795   6.669   5.939   4.458  0.6739 -1.3859  0.7589
   68SAPC   H9Y 5796   6.750   6.103   4.451 -1.4939 -0.0596 -2.9774
   68SAPC  C310 5797   6.830   5.974   4.606  0.6782 -0.3399 -0.2961
   68SAPC  H10X 5798   6.938   5.999   4.614  1.0354 -2.1780  1.4110
   68SAPC  H10Y 5799   6.823   5.867   4.636 -1.1889 -0.7798 -2.0787
   68SAPC  C311 5800   6.770   6.067   4.712  0.0301  0.6330 -0.3434
   68SAPC  H11X 5801   6.660   6.062   4.699 -0.3454  3.2398  1.1541
   68SAPC  H11Y 5802   6.806   6.170   4.690  0.4675  0.6816  0.5802
   68SAPC  C312 5803   6.810   6.022   4.853 -0.0701  0.7393 -0.6938
   68SAPC  H12X 5804   6.744   6.089   4.912 -0.3292 -0.0756 -0.0331
   68SAPC  H12Y 5805   6.917   6.048   4.867 -0.0477  0.5496 -0.5070
   68SAPC  C313 5806   6.771   5.875   4.893 -0.0754  0.4913 -0.5316
   68SAPC  H13X 5807   6.840   5.811   4.835  0.7127 -0.5728  1.5224
   68SAPC  H13Y 5808   6.667   5.848   4.862 -0.6075  1.9625 -0.1354
   68SAPC  C314 5809   6.785   5.859   5.043  0.0029  0.0394 -0.6901
   68SAPC  H14X 5810   6.866   5.920   5.087 -0.4413  0.6217 -0.6653
   68SAPC  H14Y 5811   6.796   5.752   5.071 -1.3186 -0.6987 -2.7333
   68SAPC  C315 5812   6.654   5.903   5.113 -0.4585  0.6389  0.1750
   68SAPC  H15X 5813   6.572   5.870   5.046  0.3081 -2.2118  0.5253
   68SAPC  H15Y 5814   6.660   6.014   5.115  1.6029  0.5577  1.8711
   68SAPC  C316 5815   6.654   5.848   5.260 -0.0974  0.0754 -0.0274
   68SAPC  H16X 5816   6.754   5.873   5.301 -0.2868 -0.2740  0.6773
   68SAPC  H16Y 5817   6.647   5.738   5.248  1.8795  0.0229 -1.2068
   68SAPC  C317 5818   6.547   5.902   5.351 -0.0870 -0.0150  0.6286
   68SAPC  H17X 5819   6.452   5.849   5.328 -0.1879 -0.3207  1.7037
   68SAPC  H17Y 5820   6.534   6.009   5.326 -1.1302 -0.7765 -2.5177
   68SAPC  C318 5821   6.566   5.880   5.508  0.4173 -0.4293  0.2134
   68SAPC  H18X 5822   6.647   5.949   5.540  1.6400 -0.8097 -1.9266
   68SAPC  H18Y 5823   6.582   5.775   5.538 -1.1877 -1.5026 -2.3724
   68SAPC  H18Z 5824   6.470   5.907   5.557  1.2694  2.6109  0.4301
   69SAPC     N 5825   5.437   4.797   3.356 -0.4085  0.7184  0.3442
   69SAPC   C12 5826   5.436   4.760   3.501 -0.0416 -0.3005 -0.0894
   69SAPC  H12A 5827   5.336   4.729   3.528  0.1292 -2.3786 -1.6023
   69SAPC  H12B 5828   5.461   4.847   3.559  0.9676  0.3257 -1.4143
   69SAPC   C13 5829   5.572   4.823   3.302 -0.6689  0.0910  0.7061
   69SAPC  H13A 5830   5.619   4.911   3.344  1.6628 -0.3323 -0.8692
   69SAPC  H13B 5831   5.639   4.740   3.315 -2.7074 -1.4825  1.7163
   69SAPC  H13C 5832   5.577   4.842   3.196 -1.1739  1.7997  0.9485
   69SAPC   C14 5833   5.377   4.694   3.267  0.1737  0.1524 -0.0541
   69SAPC  H14A 5834   5.444   4.611   3.251  1.6108  1.0266  1.2281
   69SAPC  H14B 5835   5.281   4.655   3.298  0.2939 -1.8903 -1.9643
   69SAPC  H14C 5836   5.341   4.733   3.173 -1.8571 -1.0219  0.1810
   69SAPC   C15 5837   5.373   4.934   3.342  0.6106  0.1911 -0.1122
   69SAPC  H15A 5838   5.277   4.940   3.390  0.6571  2.4468 -0.1896
   69SAPC  H15B 5839   5.435   5.012   3.385  0.8642  0.8329 -1.5738
   69SAPC  H15C 5840   5.360   4.973   3.242 -0.3239  0.7229  0.2014
   69SAPC   C11 5841   5.533   4.647   3.554  0.2803  0.5526 -0.8975
   69SAPC  H11A 5842   5.514   4.631   3.663 -2.0138 -2.4320 -1.6114
   69SAPC  H11B 5843   5.638   4.681   3.541  1.1891 -1.3499  0.9071
   69SAPC     P 5844   5.398   4.423   3.529 -0.0393 -0.5298  0.2587
   69SAPC   O13 5845   5.324   4.375   3.408  0.6197  0.2148  0.1233
   69SAPC   O14 5846   5.464   4.313   3.610  0.2812 -0.1646  0.2352
   69SAPC   O12 5847   5.519   4.524   3.485  0.0172  0.2518  0.0393
   69SAPC   O11 5848   5.303   4.522   3.620  0.1525  1.0147 -0.0927
   69SAPC    C1 5849   5.172   4.475   3.662  0.1544  0.3708  0.1155
   69SAPC    HA 5850   5.097   4.548   3.624 -2.4976 -2.2262 -0.0893
   69SAPC    HB 5851   5.139   4.384   3.607 -2.5685  1.6387 -0.5259
   69SAPC    C2 5852   5.143   4.461   3.815  0.1257  0.5235 -0.4970
   69SAPC    HS 5853   5.037   4.488   3.831  0.0155  1.1923 -2.1698
   69SAPC   O21 5854   5.221   4.549   3.896 -0.3899  0.7283  0.0331
   69SAPC   C21 5855   5.220   4.676   3.867 -0.2877  0.7946  0.3340
   69SAPC   O22 5856   5.130   4.740   3.814 -0.7089  0.1216  0.2123
   69SAPC   C22 5857   5.347   4.747   3.917 -0.3911  0.3771  0.2484
   69SAPC   H2R 5858   5.421   4.669   3.946  2.7398  2.3084 -1.8248
   69SAPC   H2S 5859   5.392   4.805   3.834  1.4482  0.9343  1.5554
   69SAPC    C3 5860   5.166   4.313   3.857 -0.4342 -0.7442 -0.1479
   69SAPC    HX 5861   5.273   4.298   3.835  0.2332  0.1649  2.1309
   69SAPC    HY 5862   5.102   4.247   3.795 -0.4096  0.0579 -1.0428
   69SAPC   O31 5863   5.161   4.303   4.001 -0.1059  0.0498  0.0389
   69SAPC   C31 5864   5.069   4.230   4.048 -0.1424  0.0029  0.3777
   69SAPC   O32 5865   4.976   4.179   3.985  0.1686 -0.7475  0.0250
   69SAPC   C32 5866   5.080   4.221   4.201  0.0258  0.7868 -0.6843
   69SAPC   H2X 5867   5.131   4.309   4.246  1.6757 -0.2684 -0.4059
   69SAPC   H2Y 5868   5.140   4.129   4.223 -1.3540  0.5713  2.8055
   69SAPC   C23 5869   5.318   4.846   4.032  0.6248  0.0318 -0.2302
   69SAPC   H3R 5870   5.278   4.789   4.119 -1.1471 -0.5082 -1.3386
   69SAPC   H3S 5871   5.227   4.905   4.007 -0.0237 -1.2791 -1.1079
   69SAPC   C24 5872   5.422   4.959   4.063 -0.1075  0.7780 -0.2001
   69SAPC   H4R 5873   5.398   5.015   4.156  1.2910  0.8749  0.1373
   69SAPC   H4S 5874   5.430   5.025   3.974  0.7777 -3.1214 -3.2763
   69SAPC   C25 5875   5.565   4.899   4.071  0.2749  0.6550 -0.1876
   69SAPC   H5R 5876   5.597   4.842   3.982  0.2021  1.9395 -1.0735
   69SAPC   C26 5877   5.653   4.916   4.172  0.4284 -0.7454  0.8519
   69SAPC   H6R 5878   5.752   4.870   4.163  0.3448 -0.4770 -2.6668
   69SAPC   C27 5879   5.632   4.989   4.309  0.1631  0.1348  0.2134
   69SAPC   H7R 5880   5.717   4.962   4.375  1.5052 -2.1089 -2.2469
   69SAPC   H7S 5881   5.539   4.945   4.349  0.4996 -0.8357 -0.0541
   69SAPC   C28 5882   5.623   5.135   4.296  0.4592 -0.3536 -0.0374
   69SAPC   H8R 5883   5.599   5.170   4.195  2.2279  2.2679  0.3468
   69SAPC   C29 5884   5.636   5.225   4.393 -0.0489  0.0898  0.4547
   69SAPC   H9R 5885   5.635   5.331   4.362  1.4812  0.2240  0.8212
   69SAPC  C210 5886   5.681   5.203   4.539  0.0737  0.1805  0.5689
   69SAPC  H10R 5887   5.782   5.250   4.542  0.5640 -0.5105 -2.3958
   69SAPC  H10S 5888   5.691   5.095   4.560  0.0553  0.0280 -0.1848
   69SAPC  C211 5889   5.590   5.270   4.642 -0.3405  0.0760 -0.5718
   69SAPC  H11R 5890   5.485   5.282   4.613 -0.1291 -1.9847 -2.5099
   69SAPC  C212 5891   5.622   5.319   4.765  0.0853  0.4616 -0.2968
   69SAPC  H12R 5892   5.547   5.378   4.819 -0.0684  0.0498 -0.0553
   69SAPC  C213 5893   5.763   5.296   4.811  0.0451 -0.9712  0.3085
   69SAPC  H13R 5894   5.837   5.350   4.748 -0.9855  1.1623  0.8345
   69SAPC  H13S 5895   5.801   5.193   4.799  0.4487 -0.9412  1.2705
   69SAPC  C214 5896   5.778   5.328   4.954 -0.6107 -0.0377 -0.5474
   69SAPC  H14R 5897   5.681   5.334   5.007 -0.9098  0.7255 -1.1658
   69SAPC  C215 5898   5.887   5.353   5.029 -0.1376 -0.5758  0.9422
   69SAPC  H15R 5899   5.861   5.365   5.135 -1.0949  2.1827  0.4767
   69SAPC  C216 5900   6.036   5.352   4.995  0.8405  0.9112 -0.0815
   69SAPC  H16R 5901   6.092   5.392   5.083 -0.1895 -0.3497  1.1786
   69SAPC  H16S 5902   6.051   5.409   4.901 -0.1405  0.4462 -0.5280
   69SAPC  C217 5903   6.087   5.208   4.968 -0.0838  0.8652  0.1289
   69SAPC  H17R 5904   6.197   5.196   4.958 -0.3705 -1.5667 -0.7818
   69SAPC  H17S 5905   6.027   5.170   4.882  1.5195 -1.8041  0.0866
   69SAPC  C218 5906   6.059   5.105   5.078 -0.3773 -0.0573 -0.0678
   69SAPC  H18R 5907   5.949   5.111   5.094 -0.5399 -0.4852 -0.9695
   69SAPC  H18S 5908   6.105   5.128   5.177  2.0539  1.8985 -1.5617
   69SAPC  C219 5909   6.098   4.972   5.040  0.1669 -0.0613  0.1322
   69SAPC  H19R 5910   6.205   4.957   5.068 -0.2389 -1.7898  0.8997
   69SAPC  H19S 5911   6.091   4.961   4.929  1.8415 -0.7705  0.0596
   69SAPC  C220 5912   6.008   4.864   5.100 -0.2438  0.0188 -0.6369
   69SAPC  H20R 5913   5.903   4.876   5.066 -1.0134  2.9590  2.2354
   69SAPC  H20S 5914   6.010   4.866   5.211 -2.8880  1.1601 -0.5267
   69SAPC  H20T 5915   6.036   4.759   5.077 -0.4685 -0.7048  2.0538
   69SAPC   C33 5916   4.945   4.191   4.270  0.4929 -0.0580 -0.1522
   69SAPC   H3X 5917   4.907   4.100   4.219 -0.2690  0.6661 -0.9199
   69SAPC   H3Y 5918   4.877   4.271   4.234  1.1672 -0.1704 -1.8049
   69SAPC   C34 5919   4.933   4.176   4.422 -0.3180  0.7365  0.4979
   69SAPC   H4X 5920   4.978   4.267   4.466 -0.5037  0.3524  1.5126
   69SAPC   H4Y 5921   4.986   4.081   4.443  0.7438  1.0568 -0.6103
   69SAPC   C35 5922   4.788   4.175   4.466  0.5535 -0.4597 -0.6385
   69SAPC   H5X 5923   4.729   4.107   4.401  0.0025  0.7287 -1.3998
   69SAPC   H5Y 5924   4.743   4.276   4.459  1.5511  0.1522  1.1615
   69SAPC   C36 5925   4.762   4.133   4.614  0.2932 -0.1934  0.5376
   69SAPC   H6X 5926   4.651   4.132   4.620  0.2912  1.1990  1.1003
   69SAPC   H6Y 5927   4.801   4.223   4.665  0.7483  0.1118 -0.3226
   69SAPC   C37 5928   4.826   4.002   4.666 -0.0683 -0.5294  0.2388
   69SAPC   H7X 5929   4.937   4.000   4.655 -0.1454 -1.1679 -0.5096
   69SAPC   H7Y 5930   4.803   3.923   4.591  3.2413 -1.3179 -0.1477
   69SAPC   C38 5931   4.779   3.977   4.809 -0.2500  0.2874 -0.8433
   69SAPC   H8X 5932   4.670   3.995   4.811 -0.1030  1.2724 -1.1543
   69SAPC   H8Y 5933   4.828   4.041   4.886 -2.6967 -0.8865  1.8670
   69SAPC   C39 5934   4.813   3.839   4.867  0.4779 -0.3048  0.0012
   69SAPC   H9X 5935   4.919   3.842   4.901  0.6295  1.8307 -0.5145
   69SAPC   H9Y 5936   4.794   3.762   4.789  2.9834  0.0663 -1.0907
   69SAPC  C310 5937   4.720   3.794   4.977  0.2367  0.0015  0.8115
   69SAPC  H10X 5938   4.615   3.798   4.941  0.9370  1.0563 -1.2829
   69SAPC  H10Y 5939   4.730   3.876   5.051  0.5620  0.3873  0.3457
   69SAPC  C311 5940   4.735   3.656   5.041 -0.1806 -0.1079  0.0573
   69SAPC  H11X 5941   4.740   3.587   4.953  0.0116  1.1130 -0.9112
   69SAPC  H11Y 5942   4.639   3.635   5.092 -1.3718 -0.1244 -2.0642
   69SAPC  C312 5943   4.837   3.642   5.148  0.0203 -0.7462 -0.3685
   69SAPC  H12X 5944   4.929   3.698   5.123  0.3102 -0.4118  1.3534
   69SAPC  H12Y 5945   4.868   3.536   5.163  2.7832 -0.0612 -0.8170
   69SAPC  C313 5946   4.782   3.709   5.275 -0.0905 -1.2258 -0.2209
   69SAPC  H13X 5947   4.674   3.688   5.291 -0.5258 -0.5073 -1.9413
   69SAPC  H13Y 5948   4.793   3.818   5.257  2.2673 -1.3234  0.2831
   69SAPC  C314 5949   4.862   3.670   5.396 -0.1099  0.4649  0.3399
   69SAPC  H14X 5950   4.969   3.692   5.376 -0.5991  2.8902  0.1076
   69SAPC  H14Y 5951   4.856   3.562   5.419  2.7779  0.5110  1.7991
   69SAPC  C315 5952   4.823   3.752   5.518 -0.5970  0.0614  0.7326
   69SAPC  H15X 5953   4.796   3.853   5.480 -0.9120  0.0191  0.8450
   69SAPC  H15Y 5954   4.905   3.769   5.591 -0.7555  2.2460  0.4758
   69SAPC  C316 5955   4.691   3.696   5.583 -0.9520 -0.2533  0.4638
   69SAPC  H16X 5956   4.700   3.597   5.632 -0.7493 -0.6504 -0.3552
   69SAPC  H16Y 5957   4.625   3.689   5.493  0.5462  1.0638 -0.7856
   69SAPC  C317 5958   4.627   3.788   5.690 -0.1017 -0.6394  0.1229
   69SAPC  H17X 5959   4.586   3.880   5.643  0.0735 -1.8293 -2.5319
   69SAPC  H17Y 5960   4.710   3.819   5.757 -0.5874  3.2118 -0.8316
   69SAPC  C318 5961   4.518   3.715   5.751  0.5284  0.1409  0.5081
   69SAPC  H18X 5962   4.469   3.781   5.825 -0.3037 -0.9966  1.0116
   69SAPC  H18Y 5963   4.543   3.618   5.800 -1.2705 -0.9124 -0.5378
   69SAPC  H18Z 5964   4.433   3.682   5.687  0.3040  1.0119  0.3503
   70SAPC     N 5965   1.022   0.147   2.881 -0.3965  0.1958  0.3592
   70SAPC   C12 5966   0.950   0.123   3.017 -0.0687 -0.2135 -0.1580
   70SAPC  H12A 5967   0.863   0.060   3.002 -2.4799  2.4369  1.7318
   70SAPC  H12B 5968   0.916   0.218   3.053  2.2947  0.4723  0.4462
   70SAPC   C13 5969   1.062   0.025   2.815 -0.3913 -0.1398  0.0821
   70SAPC  H13A 5970   0.970  -0.022   2.783 -1.2072  3.3797 -3.6463
   70SAPC  H13B 5971   1.123   0.041   2.727 -3.0243  0.2057 -1.8163
   70SAPC  H13C 5972   1.118  -0.039   2.882  0.2694  0.9093  0.5705
   70SAPC   C14 5973   0.932   0.221   2.783  0.4941  0.2500 -0.1876
   70SAPC  H14A 5974   0.987   0.223   2.690 -2.3452 -1.2297 -2.0538
   70SAPC  H14B 5975   0.835   0.177   2.768  0.2877  0.2141  1.1489
   70SAPC  H14C 5976   0.911   0.321   2.819 -2.1801 -0.5712  0.7458
   70SAPC   C15 5977   1.144   0.232   2.903 -0.8423 -0.0121 -0.6254
   70SAPC  H15A 5978   1.210   0.246   2.818  2.8436  2.5619  2.3376
   70SAPC  H15B 5979   1.115   0.332   2.931  2.4155  0.7019  0.6729
   70SAPC  H15C 5980   1.198   0.198   2.990  0.6023 -0.3623 -1.6275
   70SAPC   C11 5981   1.022   0.058   3.143  0.3063 -0.2999  0.1986
   70SAPC  H11A 5982   0.975   0.084   3.240 -0.0223  0.4209 -0.1476
   70SAPC  H11B 5983   1.130   0.082   3.149  0.2401 -0.1567  0.8871
   70SAPC     P 5984   1.138  -0.181   3.159 -0.0548  0.2667 -0.1800
   70SAPC   O13 5985   1.115  -0.313   3.102 -0.4033  0.1659 -0.0934
   70SAPC   O14 5986   1.276  -0.125   3.131  0.1172  0.0747 -0.3157
   70SAPC   O12 5987   1.019  -0.081   3.121 -0.2516 -0.2589  0.3866
   70SAPC   O11 5988   1.114  -0.189   3.312  0.3914  0.0871  0.0599
   70SAPC    C1 5989   1.167  -0.090   3.402 -0.2436  0.0010  0.8014
   70SAPC    HA 5990   1.268  -0.059   3.368 -0.9657 -1.4676 -3.3556
   70SAPC    HB 5991   1.102  -0.000   3.395 -0.4325 -0.1031  1.2228
   70SAPC    C2 5992   1.154  -0.153   3.540  0.2457 -0.1344  0.3463
   70SAPC    HS 5993   1.216  -0.095   3.612 -0.3563  2.1653 -0.9272
   70SAPC   O21 5994   1.213  -0.289   3.555 -0.5412 -0.2697  0.0201
   70SAPC   C21 5995   1.331  -0.324   3.517 -0.5909 -0.2601  0.0984
   70SAPC   O22 5996   1.408  -0.239   3.476 -0.2989  0.0257  0.4259
   70SAPC   C22 5997   1.346  -0.470   3.527  0.2403  0.0697 -0.0817
   70SAPC   H2R 5998   1.290  -0.514   3.612 -1.2214 -0.2082 -1.1431
   70SAPC   H2S 5999   1.304  -0.517   3.435 -1.4316  2.8759 -0.8937
   70SAPC    C3 6000   1.002  -0.156   3.581 -0.0536  0.0442  0.1027
   70SAPC    HX 6001   0.974  -0.243   3.518 -0.7777 -0.2178  0.7675
   70SAPC    HY 6002   0.955  -0.060   3.549 -0.8673 -0.3096  0.2200
   70SAPC   O31 6003   0.992  -0.186   3.719 -0.1087  0.4181  0.5407
   70SAPC   C31 6004   0.882  -0.262   3.744 -0.2998 -0.4702 -0.7531
   70SAPC   O32 6005   0.807  -0.305   3.663 -0.0889 -0.5267 -0.8658
   70SAPC   C32 6006   0.870  -0.275   3.902  0.1677  0.4929  0.5525
   70SAPC   H2X 6007   0.795  -0.199   3.933  0.6005  0.0801  2.7399
   70SAPC   H2Y 6008   0.968  -0.263   3.953  1.2185 -0.9223 -1.0028
   70SAPC   C23 6009   1.498  -0.504   3.552  0.3267 -0.2467  0.0146
   70SAPC   H3R 6010   1.545  -0.432   3.481  0.7866 -2.2228 -1.7665
   70SAPC   H3S 6011   1.541  -0.601   3.519  1.1171  0.2341 -0.4182
   70SAPC   C24 6012   1.549  -0.474   3.695 -0.6505 -0.2907 -0.7209
   70SAPC   H4R 6013   1.510  -0.374   3.725  1.2468  0.0222  0.9115
   70SAPC   H4S 6014   1.660  -0.477   3.700 -0.6575 -2.3585 -1.0455
   70SAPC   C25 6015   1.493  -0.572   3.790 -0.3839 -1.2733  0.2172
   70SAPC   H5R 6016   1.487  -0.676   3.757 -3.6776 -0.6438 -1.6319
   70SAPC   C26 6017   1.419  -0.539   3.895  0.3030  0.0387  0.0773
   70SAPC   H6R 6018   1.390  -0.622   3.960  2.2815 -0.6157  0.1746
   70SAPC   C27 6019   1.389  -0.401   3.948 -0.4227 -0.9124  0.3018
   70SAPC   H7R 6020   1.490  -0.355   3.949  0.1086 -1.9972 -0.7690
   70SAPC   H7S 6021   1.361  -0.421   4.054  1.0926 -0.4474  0.8185
   70SAPC   C28 6022   1.294  -0.309   3.876  0.3226  0.3629  0.6975
   70SAPC   H8R 6023   1.217  -0.349   3.809 -0.5660  0.1839  1.7948
   70SAPC   C29 6024   1.269  -0.181   3.907  0.0695  0.1476 -0.0025
   70SAPC   H9R 6025   1.202  -0.124   3.840 -0.2542  2.0587  1.8328
   70SAPC  C210 6026   1.354  -0.098   4.007  0.6036  0.2831  0.3763
   70SAPC  H10R 6027   1.376   0.003   3.965 -0.5063  0.8138  1.0170
   70SAPC  H10S 6028   1.452  -0.145   4.025  0.9559 -0.9339 -3.6291
   70SAPC  C211 6029   1.269  -0.080   4.125 -0.5945  0.1711 -0.3011
   70SAPC  H11R 6030   1.188  -0.006   4.111  1.0137  2.0354 -0.2298
   70SAPC  C212 6031   1.280  -0.148   4.241  0.4889 -0.3662 -0.2758
   70SAPC  H12R 6032   1.204  -0.127   4.317  0.5194  4.8398 -1.3085
   70SAPC  C213 6033   1.393  -0.235   4.286 -0.3325  0.0817 -0.5932
   70SAPC  H13R 6034   1.434  -0.176   4.370 -0.0162 -0.8435 -0.0924
   70SAPC  H13S 6035   1.465  -0.251   4.203 -1.2963  0.8827 -1.6181
   70SAPC  C214 6036   1.340  -0.364   4.340 -0.5400 -0.1332 -0.6197
   70SAPC  H14R 6037   1.343  -0.446   4.266  1.5552  1.0247 -1.9507
   70SAPC  C215 6038   1.311  -0.393   4.469  0.0815 -0.3324  0.4371
   70SAPC  H15R 6039   1.282  -0.494   4.501 -0.8766  0.2575  1.5277
   70SAPC  C216 6040   1.323  -0.301   4.590 -0.4136  0.5408 -0.0871
   70SAPC  H16R 6041   1.356  -0.201   4.557  4.4697 -0.4433  0.9932
   70SAPC  H16S 6042   1.411  -0.331   4.653 -1.3148  1.2164  1.5594
   70SAPC  C217 6043   1.186  -0.280   4.667  0.6214  0.7150  0.3277
   70SAPC  H17R 6044   1.104  -0.268   4.593 -0.0338  0.5693  1.0112
   70SAPC  H17S 6045   1.186  -0.190   4.732 -2.2792  1.2861 -0.3267
   70SAPC  C218 6046   1.134  -0.401   4.749 -0.1151  0.0719  0.0875
   70SAPC  H18R 6047   1.132  -0.493   4.687  0.3447 -0.5390  0.9483
   70SAPC  H18S 6048   1.025  -0.385   4.769 -0.2039  0.0670 -0.3901
   70SAPC  C219 6049   1.216  -0.447   4.872  0.2672 -0.2374 -0.1869
   70SAPC  H19R 6050   1.322  -0.465   4.842 -0.3396 -0.4247 -2.3767
   70SAPC  H19S 6051   1.179  -0.550   4.895  0.9242 -0.4118  0.1259
   70SAPC  C220 6052   1.194  -0.367   5.003 -0.0936  0.3241 -0.2045
   70SAPC  H20R 6053   1.089  -0.335   5.023  0.9690  2.6671  2.2600
   70SAPC  H20S 6054   1.249  -0.270   5.004  0.7522 -0.1397 -0.8078
   70SAPC  H20T 6055   1.229  -0.441   5.078  1.3510 -0.2676 -1.4343
   70SAPC   C33 6056   0.831  -0.419   3.945  0.1434  0.1244  0.0444
   70SAPC   H3X 6057   0.918  -0.484   3.921  0.3634  0.1900  0.6473
   70SAPC   H3Y 6058   0.739  -0.449   3.889  0.4253  0.0882 -0.4035
   70SAPC   C34 6059   0.810  -0.430   4.097 -0.4966 -0.2582  0.2638
   70SAPC   H4X 6060   0.794  -0.536   4.127 -0.5020  0.4050  2.9193
   70SAPC   H4Y 6061   0.710  -0.388   4.120  0.0576  1.1200  0.2564
   70SAPC   C35 6062   0.914  -0.349   4.179 -0.3223  1.1493  0.6446
   70SAPC   H5X 6063   0.922  -0.244   4.143  0.2648  0.6127 -0.8300
   70SAPC   H5Y 6064   1.010  -0.403   4.170 -1.0894 -0.4672  1.6281
   70SAPC   C36 6065   0.889  -0.346   4.330 -0.2333 -0.1123 -0.1598
   70SAPC   H6X 6066   0.981  -0.312   4.382 -1.8190 -0.4848  3.1366
   70SAPC   H6Y 6067   0.891  -0.452   4.362  2.0046 -0.3738 -0.9775
   70SAPC   C37 6068   0.759  -0.270   4.371  0.3023  0.2417 -0.4868
   70SAPC   H7X 6069   0.736  -0.196   4.293 -1.7882  1.0557  0.8233
   70SAPC   H7Y 6070   0.677  -0.345   4.363 -1.8826  2.6558 -1.8914
   70SAPC   C38 6071   0.756  -0.221   4.519 -0.0438 -0.0876 -0.2880
   70SAPC   H8X 6072   0.684  -0.137   4.515  0.3074  0.2507  0.3674
   70SAPC   H8Y 6073   0.856  -0.181   4.544 -0.5598  1.2601 -0.2807
   70SAPC   C39 6074   0.712  -0.335   4.622  0.0120 -0.5286  0.1988
   70SAPC   H9X 6075   0.769  -0.430   4.610 -1.1450 -1.2561  0.2330
   70SAPC   H9Y 6076   0.604  -0.358   4.606 -0.2448  1.2380 -0.9405
   70SAPC  C310 6077   0.721  -0.289   4.770 -0.3364  0.3956 -0.3436
   70SAPC  H10X 6078   0.821  -0.242   4.789 -1.0055  1.4149  0.8174
   70SAPC  H10Y 6079   0.717  -0.382   4.829  3.1295 -0.3122 -1.0050
   70SAPC  C311 6080   0.613  -0.185   4.804  0.6133 -0.0446 -0.1256
   70SAPC  H11X 6081   0.525  -0.248   4.779  1.8135 -1.1725 -1.7275
   70SAPC  H11Y 6082   0.618  -0.105   4.728 -1.7059 -0.0686 -0.3873
   70SAPC  C312 6083   0.594  -0.114   4.938  1.0281  0.5185 -0.2138
   70SAPC  H12X 6084   0.680  -0.044   4.937  1.3898  0.2003  2.3289
   70SAPC  H12Y 6085   0.597  -0.188   5.021  0.9304 -0.3264 -0.9440
   70SAPC  C313 6086   0.454  -0.038   4.966 -0.5127  0.8694  0.3600
   70SAPC  H13X 6087   0.429   0.019   4.875  0.4803  0.9456  0.1292
   70SAPC  H13Y 6088   0.468   0.027   5.055 -1.2739  1.1406  0.2863
   70SAPC  C314 6089   0.339  -0.144   4.998  0.3368 -0.3557  0.5147
   70SAPC  H14X 6090   0.366  -0.199   5.090 -2.5253  0.8574  2.2103
   70SAPC  H14Y 6091   0.327  -0.214   4.913  1.6264 -0.6543  0.5617
   70SAPC  C315 6092   0.209  -0.076   5.018 -0.1427  0.0333 -0.0148
   70SAPC  H15X 6093   0.168  -0.030   4.926  0.4084 -0.9858 -0.7954
   70SAPC  H15Y 6094   0.214   0.010   5.089 -2.0490  1.2030 -1.2144
   70SAPC  C316 6095   0.114  -0.179   5.074  0.0578  0.0649  0.6166
   70SAPC  H16X 6096   0.158  -0.221   5.167 -1.7410 -1.7800  0.6820
   70SAPC  H16Y 6097   0.100  -0.261   5.000  0.4952 -1.7290  2.4495
   70SAPC  C317 6098  -0.021  -0.113   5.103  0.1722  0.0919  0.0822
   70SAPC  H17X 6099  -0.076  -0.089   5.009 -1.1575  1.3880  1.1270
   70SAPC  H17Y 6100   0.006  -0.019   5.156  0.7643  0.9369 -1.6588
   70SAPC  C318 6101  -0.110  -0.205   5.190 -0.5532  0.0467  0.1931
   70SAPC  H18X 6102  -0.043  -0.233   5.274 -1.2840 -0.6520  0.5491
   70SAPC  H18Y 6103  -0.146  -0.296   5.138 -1.4904 -0.2258  1.2825
   70SAPC  H18Z 6104  -0.206  -0.160   5.224 -0.1894  1.1447 -0.1881
   71SAPC     N 6105   5.521   5.977   3.095 -0.0850  0.3430 -0.5255
   71SAPC   C12 6106   5.396   6.050   3.137 -0.2071 -0.6068 -0.3429
   71SAPC  H12A 6107   5.321   6.018   3.066  1.7483  0.7869 -3.2085
   71SAPC  H12B 6108   5.402   6.157   3.127  0.7157 -0.6013  0.1466
   71SAPC   C13 6109   5.635   5.987   3.185  0.0931  0.0439 -0.5782
   71SAPC  H13A 6110   5.672   6.087   3.206  3.0675 -1.0054 -0.3627
   71SAPC  H13B 6111   5.619   5.938   3.280 -1.9153  0.2492 -0.7651
   71SAPC  H13C 6112   5.716   5.938   3.133 -0.7847 -1.9438 -0.1403
   71SAPC   C14 6113   5.496   5.835   3.084  0.0420  0.4350  0.4058
   71SAPC  H14A 6114   5.581   5.782   3.043 -0.1458 -0.1439  0.7391
   71SAPC  H14B 6115   5.488   5.791   3.183  2.0534 -1.9039 -0.3672
   71SAPC  H14C 6116   5.406   5.824   3.025 -0.6441  2.0933  1.0817
   71SAPC   C15 6117   5.573   6.026   2.961 -0.2453  0.2269 -0.3808
   71SAPC  H15A 6118   5.652   5.956   2.938 -2.9758 -2.6416 -1.7358
   71SAPC  H15B 6119   5.500   6.014   2.883  0.9888 -2.9418 -1.2075
   71SAPC  H15C 6120   5.607   6.128   2.959  1.6165 -0.3499 -1.9820
   71SAPC   C11 6121   5.353   6.023   3.286 -0.4790 -0.7941  0.6833
   71SAPC  H11A 6122   5.283   6.107   3.306  1.1675  1.3887 -1.8731
   71SAPC  H11B 6123   5.439   6.040   3.354  0.5439  1.3929 -1.0071
   71SAPC     P 6124   5.134   5.897   3.312 -0.0744  0.3185 -0.1535
   71SAPC   O13 6125   5.076   5.992   3.221 -0.1116 -0.1727 -0.2134
   71SAPC   O14 6126   5.094   5.756   3.296 -0.4325 -0.2591 -0.4225
   71SAPC   O12 6127   5.287   5.896   3.290 -0.0786 -1.0554  0.0781
   71SAPC   O11 6128   5.104   5.947   3.459  0.0772 -0.6842 -0.5911
   71SAPC    C1 6129   5.159   5.876   3.567  0.1996  0.0694 -0.5894
   71SAPC    HA 6130   5.081   5.858   3.645 -0.0277  0.8511 -0.6279
   71SAPC    HB 6131   5.198   5.775   3.545  2.4791  1.4284 -3.3314
   71SAPC    C2 6132   5.271   5.956   3.644  0.7944  0.2280  0.8403
   71SAPC    HS 6133   5.364   5.967   3.584  0.0748  2.1571 -0.0027
   71SAPC   O21 6134   5.290   5.887   3.766  0.0271  0.0391  0.0418
   71SAPC   C21 6135   5.386   5.799   3.764 -0.0419  0.3172  0.4109
   71SAPC   O22 6136   5.452   5.763   3.669  0.2195  0.5856  0.1523
   71SAPC   C22 6137   5.410   5.752   3.903 -0.6931 -0.7253 -0.3593
   71SAPC   H2R 6138   5.429   5.846   3.959 -0.9757 -1.2114  0.5752
   71SAPC   H2S 6139   5.325   5.692   3.942  0.3490 -2.6963 -0.9769
   71SAPC    C3 6140   5.222   6.095   3.676 -0.4062  0.0099 -0.3705
   71SAPC    HX 6141   5.129   6.093   3.736  0.8605  0.9013  1.7274
   71SAPC    HY 6142   5.200   6.147   3.580 -1.2296  1.3743  0.5251
   71SAPC   O31 6143   5.315   6.177   3.745 -0.1673  0.0376  0.4718
   71SAPC   C31 6144   5.421   6.223   3.675  0.0517 -0.2152  0.3196
   71SAPC   O32 6145   5.444   6.200   3.559 -0.4688 -0.6454 -0.4203
   71SAPC   C32 6146   5.502   6.325   3.758  0.2684 -0.2130  0.3707
   71SAPC   H2X 6147   5.551   6.298   3.854  0.9492  2.5161  0.8971
   71SAPC   H2Y 6148   5.443   6.417   3.779  0.9996  0.3284  0.1275
   71SAPC   C23 6149   5.528   5.662   3.914 -0.1907 -0.3665 -0.2689
   71SAPC   H3R 6150   5.627   5.697   3.880 -1.4814  1.8230 -2.0314
   71SAPC   H3S 6151   5.501   5.578   3.846 -1.2109  0.2035 -0.5786
   71SAPC   C24 6152   5.528   5.593   4.054 -0.4260  0.1949 -0.7018
   71SAPC   H4R 6153   5.432   5.538   4.070 -0.0504 -1.4309 -3.4014
   71SAPC   H4S 6154   5.542   5.663   4.139 -0.8279 -0.2236 -0.2831
   71SAPC   C25 6155   5.631   5.484   4.056  0.1207 -0.0356 -0.0769
   71SAPC   H5R 6156   5.607   5.391   4.001 -0.8683 -0.1952  0.5957
   71SAPC   C26 6157   5.746   5.487   4.133  0.0829  0.2011  0.3625
   71SAPC   H6R 6158   5.811   5.398   4.132  0.8331  0.6920  1.8728
   71SAPC   C27 6159   5.808   5.596   4.205  0.1238 -0.7764 -0.7020
   71SAPC   H7R 6160   5.785   5.693   4.156  1.8655  1.2494  2.2182
   71SAPC   H7S 6161   5.918   5.584   4.206  0.3342  0.8975  0.5509
   71SAPC   C28 6162   5.769   5.602   4.345  0.6295 -0.1577 -0.9011
   71SAPC   H8R 6163   5.763   5.503   4.392  2.0187 -0.0197 -0.3675
   71SAPC   C29 6164   5.764   5.708   4.427  1.4686  0.1193  0.4933
   71SAPC   H9R 6165   5.725   5.697   4.529 -0.3731  0.8767 -0.0852
   71SAPC  C210 6166   5.767   5.850   4.384  0.4557  0.4711 -0.2006
   71SAPC  H10R 6167   5.667   5.894   4.404 -0.4754 -1.2443 -0.8539
   71SAPC  H10S 6168   5.782   5.860   4.274  1.2042 -1.5928 -0.3300
   71SAPC  C211 6169   5.886   5.930   4.440  0.4856  0.2704 -0.2920
   71SAPC  H11R 6170   5.966   5.867   4.482 -0.7118 -2.8053 -2.2543
   71SAPC  C212 6171   5.902   6.062   4.427 -0.1838  0.1566 -0.1459
   71SAPC  H12R 6172   5.996   6.100   4.469  0.5982 -1.1831 -0.6066
   71SAPC  C213 6173   5.799   6.154   4.370 -1.0237  0.0130 -1.1727
   71SAPC  H13R 6174   5.760   6.220   4.450  0.4236  2.0054 -2.0366
   71SAPC  H13S 6175   5.705   6.100   4.347 -0.7227 -1.2465  0.3594
   71SAPC  C214 6176   5.859   6.236   4.261 -0.2612 -0.2611 -0.4513
   71SAPC  H14R 6177   5.932   6.316   4.283  0.4559 -1.6154  2.6242
   71SAPC  C215 6178   5.827   6.219   4.132  0.7986 -0.0266  0.3518
   71SAPC  H15R 6179   5.881   6.275   4.054  0.9043  0.7102  0.9448
   71SAPC  C216 6180   5.738   6.112   4.067 -0.0686 -0.0709  0.0513
   71SAPC  H16R 6181   5.641   6.163   4.047  2.1775  3.1997 -4.2557
   71SAPC  H16S 6182   5.731   6.014   4.118 -1.3125  0.7201  1.5009
   71SAPC  C217 6183   5.798   6.076   3.930  0.0296  0.7493 -0.1550
   71SAPC  H17R 6184   5.904   6.047   3.940  0.1064  0.4965 -1.4953
   71SAPC  H17S 6185   5.777   6.157   3.857 -1.4916  1.8241  1.3722
   71SAPC  C218 6186   5.719   5.964   3.874 -0.7528  0.2133 -0.2438
   71SAPC  H18R 6187   5.613   5.991   3.858 -0.7085  0.2601 -0.4576
   71SAPC  H18S 6188   5.717   5.890   3.957 -2.5106  0.9778  0.4490
   71SAPC  C219 6189   5.782   5.897   3.754 -0.5691  0.1291 -0.7666
   71SAPC  H19R 6190   5.723   5.806   3.733  0.9629 -1.1735  0.4061
   71SAPC  H19S 6191   5.886   5.864   3.773 -1.1028 -1.9282 -1.1737
   71SAPC  C220 6192   5.796   5.976   3.621  0.2029 -0.6998  0.6405
   71SAPC  H20R 6193   5.853   6.070   3.639 -0.3069 -1.1403  5.9297
   71SAPC  H20S 6194   5.699   6.013   3.582 -1.0176 -2.7836  1.5433
   71SAPC  H20T 6195   5.843   5.919   3.538  1.4025 -1.1175  1.5790
   71SAPC   C33 6196   5.623   6.372   3.671 -0.4161  1.1199  0.5394
   71SAPC   H3X 6197   5.589   6.404   3.570 -2.5990  0.8484  1.1465
   71SAPC   H3Y 6198   5.683   6.280   3.652 -0.9411  1.3597 -2.9897
   71SAPC   C34 6199   5.698   6.494   3.713 -0.0810 -0.9131 -0.2393
   71SAPC   H4X 6200   5.626   6.577   3.730  0.8375 -0.4442  1.6757
   71SAPC   H4Y 6201   5.776   6.531   3.643 -0.6144  3.9170  1.3184
   71SAPC   C35 6202   5.774   6.477   3.843 -0.1536  0.5780 -0.5697
   71SAPC   H5X 6203   5.834   6.385   3.824 -0.2345 -0.2017  2.4434
   71SAPC   H5Y 6204   5.707   6.454   3.929  0.6532  0.7930  0.1258
   71SAPC   C36 6205   5.867   6.595   3.881  0.1045  0.4473  0.1636
   71SAPC   H6X 6206   5.796   6.680   3.879  0.8992  1.2598  2.3840
   71SAPC   H6Y 6207   5.937   6.624   3.800  1.6203 -0.4696  1.0954
   71SAPC   C37 6208   5.923   6.579   4.019  1.1090  0.4012 -0.1133
   71SAPC   H7X 6209   5.997   6.497   4.013 -0.7670 -1.4426  0.8793
   71SAPC   H7Y 6210   5.841   6.565   4.093  0.5994  1.8698 -0.3641
   71SAPC   C38 6211   6.003   6.703   4.055  0.4130  0.6899 -0.0955
   71SAPC   H8X 6212   5.942   6.796   4.059 -1.9477 -0.6137 -2.8125
   71SAPC   H8Y 6213   6.064   6.726   3.966 -0.7760 -0.2204 -1.1963
   71SAPC   C39 6214   6.097   6.681   4.177  0.2599 -0.3141 -0.7005
   71SAPC   H9X 6215   6.199   6.721   4.156  0.5578  0.4422  1.9237
   71SAPC   H9Y 6216   6.111   6.573   4.198 -1.7134 -0.2260  1.3534
   71SAPC  C310 6217   6.062   6.749   4.315  0.3616 -0.0999  0.0736
   71SAPC  H10X 6218   5.959   6.722   4.348  0.9811 -1.5969  0.8406
   71SAPC  H10Y 6219   6.050   6.859   4.307 -0.4029  0.2175  3.6605
   71SAPC  C311 6220   6.169   6.721   4.419 -0.1611 -0.0046  0.4077
   71SAPC  H11X 6221   6.264   6.774   4.395 -0.7880  2.0354  2.0839
   71SAPC  H11Y 6222   6.174   6.610   4.416 -1.2246 -0.0376 -0.5199
   71SAPC  C312 6223   6.126   6.772   4.561  0.9267  0.7466  0.3677
   71SAPC  H12X 6224   6.024   6.732   4.576  0.3495  0.9873 -2.4573
   71SAPC  H12Y 6225   6.127   6.883   4.562  2.8023  0.7632  0.1334
   71SAPC  C313 6226   6.207   6.721   4.678 -0.3953  0.3989 -0.6153
   71SAPC  H13X 6227   6.150   6.748   4.769  0.2614  0.6743 -0.2753
   71SAPC  H13Y 6228   6.308   6.768   4.680 -0.0600 -0.2064 -2.2355
   71SAPC  C314 6229   6.239   6.571   4.680 -0.0397  0.3883 -0.1172
   71SAPC  H14X 6230   6.249   6.538   4.575  0.3449 -0.5380  0.2049
   71SAPC  H14Y 6231   6.144   6.524   4.714 -0.8573  2.5234  0.7279
   71SAPC  C315 6232   6.358   6.538   4.773 -0.1018  0.2472  0.2578
   71SAPC  H15X 6233   6.450   6.557   4.714 -0.8244  0.3610 -0.8659
   71SAPC  H15Y 6234   6.349   6.428   4.785  0.4871  0.1980  0.2551
   71SAPC  C316 6235   6.367   6.605   4.915 -0.3641 -0.0107 -0.2996
   71SAPC  H16X 6236   6.277   6.589   4.979 -0.5889  3.3429  0.4036
   71SAPC  H16Y 6237   6.369   6.716   4.906  1.3255  0.0534  0.4813
   71SAPC  C317 6238   6.479   6.548   5.006  0.8455 -0.4142  0.6271
   71SAPC  H17X 6239   6.578   6.570   4.962  0.7340  1.7076  1.3192
   71SAPC  H17Y 6240   6.460   6.439   4.997  0.2946 -0.4003  1.4696
   71SAPC  C318 6241   6.459   6.580   5.148  0.0962 -0.0452 -0.5100
   71SAPC  H18X 6242   6.553   6.557   5.204 -0.0488 -0.6740 -0.5088
   71SAPC  H18Y 6243   6.386   6.520   5.206  1.2898 -0.5372  0.5626
   71SAPC  H18Z 6244   6.441   6.689   5.159  0.1966 -0.0681 -0.0667
   72SAPC     N 6245   4.769   5.964   2.968 -0.6599 -0.2000 -0.8591
   72SAPC   C12 6246   4.802   6.039   3.096 -0.0587  0.3254  0.0023
   72SAPC  H12A 6247   4.907   6.038   3.120  0.2381 -1.1719 -1.1917
   72SAPC  H12B 6248   4.759   5.997   3.185 -1.1395 -0.3259 -0.7982
   72SAPC   C13 6249   4.855   6.017   2.858 -0.1981  0.0859 -0.2901
   72SAPC  H13A 6250   4.829   6.118   2.832 -0.6845  0.2104  0.6400
   72SAPC  H13B 6251   4.962   6.009   2.873  0.4620 -1.1046 -4.3856
   72SAPC  H13C 6252   4.844   5.956   2.770  1.1051 -1.2968  0.4586
   72SAPC   C14 6253   4.810   5.819   2.984  0.6044  0.1296  0.1593
   72SAPC  H14A 6254   4.803   5.769   2.889 -1.0642 -0.5981  0.6388
   72SAPC  H14B 6255   4.911   5.810   3.022  0.9081 -1.4414 -0.9653
   72SAPC  H14C 6256   4.745   5.770   3.055  1.0240 -1.3552 -0.4604
   72SAPC   C15 6257   4.627   5.977   2.916  0.2387 -0.1999 -0.5410
   72SAPC  H15A 6258   4.612   6.081   2.894  0.3759 -0.1904 -0.5890
   72SAPC  H15B 6259   4.623   5.916   2.827 -1.6820  1.8194 -1.9296
   72SAPC  H15C 6260   4.562   5.945   2.996 -0.3321 -0.2989 -1.0334
   72SAPC   C11 6261   4.779   6.186   3.090  0.2829  0.4179 -0.6671
   72SAPC  H11A 6262   4.679   6.206   3.047  0.0188 -0.3913 -0.4482
   72SAPC  H11B 6263   4.855   6.233   3.023  2.8428 -2.3182  0.0939
   72SAPC     P 6264   4.786   6.403   3.225 -0.1167  0.1405 -0.2655
   72SAPC   O13 6265   4.935   6.433   3.234  0.2658  0.5440  0.1324
   72SAPC   O14 6266   4.699   6.464   3.122 -0.0044  0.0144  0.1345
   72SAPC   O12 6267   4.779   6.244   3.221  0.7638 -0.0393  0.0393
   72SAPC   O11 6268   4.719   6.440   3.356  0.0161 -0.0298 -0.1711
   72SAPC    C1 6269   4.726   6.570   3.420  0.9894  0.1279  0.2169
   72SAPC    HA 6270   4.829   6.604   3.443  1.3424 -1.0386  0.4383
   72SAPC    HB 6271   4.667   6.646   3.364  0.8814  0.7041  1.1051
   72SAPC    C2 6272   4.648   6.571   3.554  0.1165 -0.3874 -1.1240
   72SAPC    HS 6273   4.648   6.671   3.602 -0.5951 -0.1597 -1.5885
   72SAPC   O21 6274   4.708   6.480   3.655 -0.7805  0.1227  1.0847
   72SAPC   C21 6275   4.836   6.492   3.680  0.5399  0.9123  0.3614
   72SAPC   O22 6276   4.911   6.586   3.658 -0.6643 -0.0193 -0.3387
   72SAPC   C22 6277   4.896   6.353   3.724  0.2526  0.3717 -0.1478
   72SAPC   H2R 6278   4.849   6.271   3.665  0.9442 -0.9696  1.0902
   72SAPC   H2S 6279   5.004   6.356   3.699  0.3620 -1.1422  0.0651
   72SAPC    C3 6280   4.496   6.541   3.527 -0.1944 -0.3887 -0.5506
   72SAPC    HX 6281   4.481   6.431   3.518 -0.5100 -0.4146  0.1917
   72SAPC    HY 6282   4.481   6.574   3.422  1.4414 -1.5374 -1.1932
   72SAPC   O31 6283   4.402   6.599   3.632 -0.1110 -0.1583  0.5586
   72SAPC   C31 6284   4.284   6.543   3.604  0.1560  0.2812  0.5316
   72SAPC   O32 6285   4.258   6.454   3.524  0.2605 -0.2113 -0.1869
   72SAPC   C32 6286   4.185   6.590   3.699 -0.6545  0.3611 -0.6684
   72SAPC   H2X 6287   4.090   6.571   3.643 -0.5780 -0.4409 -0.5432
   72SAPC   H2Y 6288   4.192   6.698   3.724  0.2310 -0.1325  1.3376
   72SAPC   C23 6289   4.890   6.325   3.875  0.9585  0.0498  0.0780
   72SAPC   H3R 6290   4.914   6.217   3.884  0.6726 -0.2221 -1.8620
   72SAPC   H3S 6291   4.785   6.336   3.912  0.6262 -1.2988 -0.3961
   72SAPC   C24 6292   4.996   6.396   3.958 -0.4605 -0.0939 -0.2252
   72SAPC   H4R 6293   4.969   6.502   3.974 -0.5222  0.1870 -1.9410
   72SAPC   H4S 6294   5.091   6.399   3.900 -0.7377  2.4834 -0.6378
   72SAPC   C25 6295   5.018   6.328   4.092  0.5235 -0.3781 -0.3510
   72SAPC   H5R 6296   4.923   6.329   4.148 -0.3114 -1.2510 -1.6843
   72SAPC   C26 6297   5.132   6.280   4.147 -0.2636 -0.7881 -0.5571
   72SAPC   H6R 6298   5.126   6.233   4.246 -0.7690  1.5090  0.5611
   72SAPC   C27 6299   5.268   6.273   4.080  0.7391  0.0983  0.5673
   72SAPC   H7R 6300   5.337   6.352   4.117 -1.2254  1.3819  1.6900
   72SAPC   H7S 6301   5.254   6.304   3.974  2.2250  0.7867  0.5358
   72SAPC   C28 6302   5.334   6.136   4.087 -0.1423  0.1345 -0.5567
   72SAPC   H8R 6303   5.319   6.081   3.992 -2.0300  1.4745 -1.0959
   72SAPC   C29 6304   5.389   6.070   4.191 -0.0324  0.2137  0.1770
   72SAPC   H9R 6305   5.435   5.975   4.160  0.7726  0.1038  1.6424
   72SAPC  C210 6306   5.406   6.110   4.336 -0.0733 -0.4979  0.1818
   72SAPC  H10R 6307   5.322   6.179   4.357  1.2788  1.5102 -0.7051
   72SAPC  H10S 6308   5.501   6.163   4.359  1.0270 -0.4557 -3.8040
   72SAPC  C211 6309   5.403   6.005   4.449  0.2539  0.9916  0.0488
   72SAPC  H11R 6310   5.391   5.901   4.413 -0.2742  0.9415  0.3555
   72SAPC  C212 6311   5.410   6.040   4.583  0.4874 -0.5649 -0.3718
   72SAPC  H12R 6312   5.384   5.962   4.655 -1.0355 -1.8519 -2.2285
   72SAPC  C213 6313   5.440   6.174   4.641 -0.5876 -0.1039  0.3657
   72SAPC  H13R 6314   5.358   6.217   4.703 -1.7329  0.5934 -1.5775
   72SAPC  H13S 6315   5.452   6.239   4.553  0.3987 -1.1720 -0.3199
   72SAPC  C214 6316   5.561   6.179   4.743 -0.4414 -0.2124  0.1172
   72SAPC  H14R 6317   5.659   6.218   4.713 -0.8299 -0.2073 -1.1753
   72SAPC  C215 6318   5.558   6.112   4.858 -0.0855 -0.0660  0.8248
   72SAPC  H15R 6319   5.645   6.108   4.925 -0.2524  0.5293  1.0848
   72SAPC  C216 6320   5.443   6.039   4.927  0.3598  0.2409  0.5275
   72SAPC  H16R 6321   5.455   5.931   4.901  4.6711  1.0137 -1.7193
   72SAPC  H16S 6322   5.350   6.083   4.885 -0.1330 -1.0796  0.1630
   72SAPC  C217 6323   5.440   6.064   5.077 -0.1201 -0.5497 -0.0975
   72SAPC  H17R 6324   5.434   6.174   5.089 -0.0313 -0.4937 -0.5506
   72SAPC  H17S 6325   5.536   6.020   5.113  0.3903 -0.0641 -0.8355
   72SAPC  C218 6326   5.319   5.995   5.156  0.0645  0.3539  0.6308
   72SAPC  H18R 6327   5.292   5.911   5.088  1.3933 -0.0829  0.6125
   72SAPC  H18S 6328   5.230   6.060   5.169 -0.3788  0.1617 -1.1720
   72SAPC  C219 6329   5.358   5.963   5.291 -0.2314 -0.3618  0.1872
   72SAPC  H19R 6330   5.389   6.061   5.335  0.7102 -0.0722 -1.0510
   72SAPC  H19S 6331   5.451   5.902   5.295  1.3015  1.6011 -2.1794
   72SAPC  C220 6332   5.244   5.899   5.372  0.1131  0.3821  0.4290
   72SAPC  H20R 6333   5.225   5.805   5.317  2.0995  2.5403 -4.6207
   72SAPC  H20S 6334   5.148   5.955   5.369 -0.8951 -1.3234 -2.2010
   72SAPC  H20T 6335   5.267   5.872   5.477 -0.4052  0.2310  0.5086
   72SAPC   C33 6336   4.176   6.497   3.821 -0.3469  0.0407 -0.2601
   72SAPC   H3X 6337   4.141   6.395   3.795 -0.8282  0.9694 -3.7604
   72SAPC   H3Y 6338   4.109   6.549   3.894 -1.5343 -0.0113 -1.2742
   72SAPC   C34 6339   4.307   6.482   3.908  0.0062  0.0114  0.7845
   72SAPC   H4X 6340   4.350   6.581   3.933  2.7674 -0.5583 -1.3021
   72SAPC   H4Y 6341   4.376   6.433   3.837 -0.0372  0.2228  0.5983
   72SAPC   C35 6342   4.299   6.399   4.042 -0.0548 -0.3686  0.3123
   72SAPC   H5X 6343   4.256   6.298   4.020 -0.0223 -0.5153  0.9051
   72SAPC   H5Y 6344   4.227   6.436   4.118  1.1135 -0.0646  1.2840
   72SAPC   C36 6345   4.445   6.388   4.088  0.2014  0.1119 -0.0741
   72SAPC   H6X 6346   4.478   6.491   4.111  1.6105 -0.5652  1.1127
   72SAPC   H6Y 6347   4.505   6.346   4.004  0.5425  2.6614 -1.1910
   72SAPC   C37 6348   4.460   6.322   4.222  0.3590 -0.0761  0.1880
   72SAPC   H7X 6349   4.416   6.220   4.223 -0.3580  0.2241  1.4907
   72SAPC   H7Y 6350   4.410   6.390   4.294  1.2483 -0.1794  0.9130
   72SAPC   C38 6351   4.610   6.318   4.250  0.2626  0.7096 -0.7758
   72SAPC   H8X 6352   4.641   6.423   4.234  0.8144  0.6181 -0.3476
   72SAPC   H8Y 6353   4.660   6.254   4.173  1.8384 -0.3575  1.0335
   72SAPC   C39 6354   4.655   6.289   4.395 -0.0481 -0.8733 -0.5304
   72SAPC   H9X 6355   4.758   6.330   4.405 -0.6380  0.6410 -0.4243
   72SAPC   H9Y 6356   4.670   6.180   4.405  1.7219 -0.4577  3.6057
   72SAPC  C310 6357   4.563   6.343   4.502  0.5558  0.0887 -0.0386
   72SAPC  H10X 6358   4.470   6.283   4.490  1.7047 -1.3405 -2.4840
   72SAPC  H10Y 6359   4.548   6.450   4.477  1.4729  0.1605 -0.3045
   72SAPC  C311 6360   4.623   6.328   4.640  0.0731  0.2414 -0.0493
   72SAPC  H11X 6361   4.709   6.395   4.657 -0.3476  0.7209  0.2051
   72SAPC  H11Y 6362   4.642   6.221   4.665 -0.1398 -0.1045 -1.3088
   72SAPC  C312 6363   4.516   6.366   4.747 -0.6827 -0.4903  0.4177
   72SAPC  H12X 6364   4.434   6.292   4.730 -2.1875  1.7594 -3.2009
   72SAPC  H12Y 6365   4.477   6.468   4.728 -1.3832 -0.4624  1.8839
   72SAPC  C313 6366   4.562   6.353   4.898  0.9520  0.1331  0.1665
   72SAPC  H13X 6367   4.615   6.255   4.908  1.0227 -0.1864 -2.5450
   72SAPC  H13Y 6368   4.470   6.355   4.960  0.0300 -1.8272 -1.0221
   72SAPC  C314 6369   4.665   6.453   4.931 -0.2709 -0.3503  0.2168
   72SAPC  H14X 6370   4.622   6.553   4.909  0.4730  0.0522  0.5570
   72SAPC  H14Y 6371   4.748   6.450   4.856 -1.0900 -0.1447 -0.7180
   72SAPC  C315 6372   4.718   6.451   5.072 -0.6960 -0.5542  0.2497
   72SAPC  H15X 6373   4.798   6.527   5.085 -0.6369 -0.0844 -2.4413
   72SAPC  H15Y 6374   4.750   6.353   5.113 -2.1824 -1.3672 -0.4722
   72SAPC  C316 6375   4.613   6.511   5.163 -0.1661 -0.2588  0.1755
   72SAPC  H16X 6376   4.511   6.470   5.144 -0.0527  0.9461 -3.8984
   72SAPC  H16Y 6377   4.597   6.621   5.150 -0.3326 -0.1076  1.4690
   72SAPC  C317 6378   4.637   6.476   5.318 -0.1307 -0.0751 -0.1474
   72SAPC  H17X 6379   4.737   6.496   5.361 -0.7069 -1.9658  2.3543
   72SAPC  H17Y 6380   4.638   6.365   5.321 -0.4929 -0.0542  1.2856
   72SAPC  C318 6381   4.531   6.532   5.412  0.2488  0.1823  0.2735
   72SAPC  H18X 6382   4.547   6.493   5.515  0.5565 -0.5898 -0.0570
   72SAPC  H18Y 6383   4.428   6.517   5.373  0.8868  0.1945 -1.5246
   72SAPC  H18Z 6384   4.549   6.642   5.416 -0.2391  0.2830 -0.1848
   73SLPC     N 6385   2.961   2.390   7.487  0.6716 -0.1910 -0.2916
   73SLPC   C13 6386   3.040   2.445   7.597  0.6119 -0.4927 -0.0323
   73SLPC  H13A 6387   3.103   2.521   7.553  0.0790 -0.1321 -0.1837
   73SLPC  H13B 6388   2.988   2.505   7.671  1.0989  0.4728 -0.4587
   73SLPC  H13C 6389   3.093   2.367   7.650  1.2541 -1.2447 -1.7145
   73SLPC   C14 6390   2.859   2.489   7.449 -0.4349  0.1451  0.1718
   73SLPC  H14A 6391   2.799   2.519   7.533  0.5239  0.2992  0.8098
   73SLPC  H14B 6392   2.911   2.579   7.420 -0.5807  1.7258  4.2105
   73SLPC  H14C 6393   2.805   2.446   7.366  2.5687 -1.6967 -1.0241
   73SLPC   C15 6394   2.894   2.259   7.534  0.4160  0.4457  0.5002
   73SLPC  H15A 6395   2.975   2.196   7.568 -1.0927 -0.5901  2.3644
   73SLPC  H15B 6396   2.822   2.263   7.614  0.2745  1.1550  0.3480
   73SLPC  H15C 6397   2.845   2.211   7.450 -0.4825 -1.5716  2.0969
   73SLPC   C12 6398   3.051   2.357   7.367  0.0173  0.5132  1.0094
   73SLPC  H12A 6399   3.133   2.296   7.401  0.6547  0.3740 -0.6795
   73SLPC  H12B 6400   3.099   2.446   7.331  0.0841  0.6713  1.4923
   73SLPC   C11 6401   2.989   2.297   7.238 -0.5288 -0.6284 -0.2409
   73SLPC  H11A 6402   2.929   2.207   7.263  0.4148 -1.0455  0.5643
   73SLPC  H11B 6403   3.074   2.256   7.179  1.1931  0.2755  1.5137
   73SLPC     P 6404   2.976   2.480   7.067 -0.1489 -0.0908 -0.3355
   73SLPC   O13 6405   2.881   2.574   7.012  0.2142 -0.1841  0.4272
   73SLPC   O14 6406   3.100   2.535   7.123 -0.2451  0.8490 -0.3765
   73SLPC   O12 6407   2.900   2.387   7.169  0.1768 -0.1243  0.4383
   73SLPC   O11 6408   3.028   2.392   6.945  0.1894  0.5750 -0.3922
   73SLPC    C1 6409   2.924   2.328   6.865  1.5808 -0.3320 -0.0251
   73SLPC    HA 6410   2.910   2.224   6.900 -1.3929  0.6390  2.0466
   73SLPC    HB 6411   2.822   2.368   6.881  1.7353  0.4099 -0.7968
   73SLPC    C2 6412   2.940   2.336   6.712 -0.1159 -0.1377  0.0534
   73SLPC    HS 6413   2.886   2.254   6.660 -0.2397 -1.2600  1.8385
   73SLPC   O21 6414   3.079   2.333   6.677  0.0740 -0.1900  0.0029
   73SLPC   C21 6415   3.146   2.222   6.700 -0.8586  1.0192  0.5784
   73SLPC   O22 6416   3.096   2.119   6.747 -0.1529  0.5791  0.0414
   73SLPC   C22 6417   3.289   2.233   6.658  0.1223 -0.6801  0.2596
   73SLPC   H2R 6418   3.325   2.336   6.678  0.8465 -1.2926  2.4071
   73SLPC   H2S 6419   3.343   2.177   6.738 -1.7382  0.8470  2.7123
   73SLPC    C3 6420   2.867   2.468   6.664 -0.3746  0.5866 -0.7926
   73SLPC    HX 6421   2.927   2.547   6.716  1.3043 -1.6634  0.8682
   73SLPC    HY 6422   2.758   2.477   6.684  0.0953  0.4496  2.3533
   73SLPC   O31 6423   2.887   2.502   6.528 -0.0193  0.1221  0.2067
   73SLPC   C31 6424   2.795   2.453   6.442 -0.3431 -0.3271 -0.4081
   73SLPC   O32 6425   2.686   2.405   6.470 -0.4481  0.2840  0.1992
   73SLPC   C32 6426   2.855   2.496   6.306  0.5303  0.6097  0.6583
   73SLPC   H2X 6427   2.936   2.430   6.267 -0.4385 -0.9017  1.1558
   73SLPC   H2Y 6428   2.890   2.602   6.311  1.5457  0.5440 -2.6897
   73SLPC   C23 6429   3.310   2.169   6.518  0.3525 -0.5211 -0.4808
   73SLPC   H3R 6430   3.272   2.065   6.510  0.1532 -0.3422 -2.4791
   73SLPC   H3S 6431   3.419   2.153   6.502  0.3700 -2.5568  1.2678
   73SLPC   C24 6432   3.229   2.235   6.410 -0.5061 -0.0710 -0.5824
   73SLPC   H4R 6433   3.245   2.345   6.404 -0.0341 -0.0454  0.8007
   73SLPC   H4S 6434   3.119   2.228   6.429 -0.4377 -0.1024 -0.1905
   73SLPC   C25 6435   3.265   2.166   6.280 -0.5122  0.4045 -0.0787
   73SLPC   H5R 6436   3.229   2.062   6.262 -3.5146  0.5533  3.6356
   73SLPC   H5S 6437   3.375   2.177   6.267 -0.6432  2.3934  0.2559
   73SLPC   C26 6438   3.204   2.260   6.175 -1.1164  0.3103  0.1484
   73SLPC   H6R 6439   3.253   2.360   6.181  1.9183 -0.9839 -0.9297
   73SLPC   H6S 6440   3.094   2.272   6.180 -1.1932  0.2444 -1.0101
   73SLPC   C27 6441   3.237   2.226   6.028 -0.0737 -0.0287  0.4898
   73SLPC   H7R 6442   3.347   2.229   6.015 -0.2832  1.3939 -1.3823
   73SLPC   H7S 6443   3.196   2.306   5.962 -0.0412  0.5795  1.1865
   73SLPC   C28 6444   3.193   2.080   5.986 -0.0443 -0.2427  0.1367
   73SLPC   H8R 6445   3.254   2.008   6.044 -2.1931 -0.4408  2.3335
   73SLPC   H8S 6446   3.220   2.078   5.879 -0.3818  0.6169  0.0245
   73SLPC   C29 6447   3.047   2.045   6.019 -0.2908  0.1510 -0.0737
   73SLPC   H9R 6448   3.026   1.998   6.116  1.0923 -0.3230  0.0151
   73SLPC  C210 6449   2.953   2.045   5.922 -0.2978  0.1930 -0.4052
   73SLPC  H10R 6450   2.850   2.017   5.951  0.1850  0.3221  1.5373
   73SLPC  C211 6451   2.973   2.072   5.775 -0.3595 -0.8977  0.0075
   73SLPC  H11R 6452   3.041   2.159   5.765 -0.8355 -0.6713 -1.7767
   73SLPC  H11S 6453   2.875   2.110   5.738 -0.5589 -0.8438  0.5797
   73SLPC  C212 6454   3.036   1.969   5.683  0.5125  0.0442 -0.4207
   73SLPC  H12R 6455   3.113   1.908   5.734  0.4192 -1.6901 -2.2373
   73SLPC  C213 6456   2.992   1.930   5.566 -0.9976 -0.2241  0.2303
   73SLPC  H13R 6457   3.051   1.855   5.511 -1.5392  1.6690 -3.1875
   73SLPC  C214 6458   2.892   2.000   5.480 -0.7555 -0.4581  0.2773
   73SLPC  H14R 6459   2.920   2.106   5.496  1.8941 -1.3685  2.3423
   73SLPC  H14S 6460   2.786   1.977   5.507 -0.4267 -2.7566 -0.1447
   73SLPC  C215 6461   2.909   1.972   5.334 -0.2415  0.2228 -0.4585
   73SLPC  H15R 6462   2.920   1.862   5.321 -1.6587  0.0942 -0.6838
   73SLPC  H15S 6463   3.006   2.017   5.302  0.4360  0.6610  1.9974
   73SLPC  C216 6464   2.794   2.022   5.246  1.1147 -0.1758 -0.2347
   73SLPC  H16R 6465   2.758   2.123   5.275 -2.5078 -1.7463  1.3490
   73SLPC  H16S 6466   2.705   1.956   5.253  1.3653 -0.4197  0.7648
   73SLPC  C217 6467   2.826   2.036   5.091  0.3116  0.1649 -0.0487
   73SLPC  H17R 6468   2.926   2.083   5.079 -0.4815  1.7152 -0.8885
   73SLPC  H17S 6469   2.760   2.121   5.062  1.7439  1.5974  0.7229
   73SLPC  C218 6470   2.813   1.910   5.011 -0.1530 -0.7320 -0.3463
   73SLPC  H18R 6471   2.736   1.839   5.047 -0.1268  1.0627  3.9060
   73SLPC  H18S 6472   2.911   1.859   5.008  0.2115 -0.2279  1.4538
   73SLPC  H18T 6473   2.786   1.937   4.907  2.0455  1.9972 -0.3198
   73SLPC   C33 6474   2.754   2.481   6.186  0.0765  0.7025  0.1199
   73SLPC   H3X 6475   2.660   2.533   6.213 -1.0729 -0.3310 -1.6508
   73SLPC   H3Y 6476   2.732   2.372   6.178  1.6888  0.3372  0.1729
   73SLPC   C34 6477   2.803   2.539   6.051 -0.1000  0.3010  0.0380
   73SLPC   H4X 6478   2.880   2.469   6.010  1.3901  0.8939  1.6914
   73SLPC   H4Y 6479   2.850   2.638   6.068  0.5912 -0.3223  2.0548
   73SLPC   C35 6480   2.698   2.545   5.938  0.7971  0.2137 -0.2763
   73SLPC   H5X 6481   2.615   2.610   5.974 -0.2653 -1.2807  0.0980
   73SLPC   H5Y 6482   2.650   2.448   5.915 -0.7776  1.4241 -2.4752
   73SLPC   C36 6483   2.759   2.610   5.807  0.2223  0.4548 -0.7763
   73SLPC   H6X 6484   2.827   2.687   5.850 -1.6353  1.0659  1.2884
   73SLPC   H6Y 6485   2.686   2.665   5.743  0.8013  0.9488 -1.0167
   73SLPC   C37 6486   2.828   2.511   5.722  0.5392 -0.1793 -0.4426
   73SLPC   H7X 6487   2.763   2.448   5.658 -0.6668 -0.5757  1.0933
   73SLPC   H7Y 6488   2.876   2.436   5.789 -0.9908 -1.6105 -0.8711
   73SLPC   C38 6489   2.929   2.573   5.630  0.8406  0.3667  0.7147
   73SLPC   H8X 6490   2.991   2.641   5.692  0.8037  0.2953  0.8286
   73SLPC   H8Y 6491   2.868   2.633   5.558 -1.5805  0.4137  2.6796
   73SLPC   C39 6492   3.024   2.482   5.550 -0.0955 -0.3672 -0.2116
   73SLPC   H9X 6493   3.074   2.543   5.472 -0.7893 -0.1018 -0.4597
   73SLPC   H9Y 6494   2.968   2.399   5.502 -3.9784  2.7009 -1.5160
   73SLPC  C310 6495   3.133   2.421   5.642 -1.3129 -0.8883 -0.4285
   73SLPC  H10X 6496   3.076   2.367   5.721 -1.6119 -1.1296 -0.8025
   73SLPC  H10Y 6497   3.175   2.510   5.694 -1.2175 -0.0810 -1.8449
   73SLPC  C311 6498   3.218   2.321   5.565  0.6170  0.0321  0.0511
   73SLPC  H11X 6499   3.275   2.370   5.484  0.9858 -0.7775 -0.1881
   73SLPC  H11Y 6500   3.150   2.246   5.518 -1.3911  0.0490  2.6267
   73SLPC  C312 6501   3.324   2.263   5.662 -0.1575 -0.3337  0.0961
   73SLPC  H12X 6502   3.272   2.206   5.742 -1.0575  1.9037  1.2033
   73SLPC  H12Y 6503   3.386   2.342   5.709 -0.1905 -1.0839  1.4658
   73SLPC  C313 6504   3.418   2.156   5.593 -0.0326  0.3978  0.7363
   73SLPC  H13X 6505   3.491   2.210   5.528 -1.1427  0.1920 -0.7262
   73SLPC  H13Y 6506   3.348   2.099   5.529 -0.0587 -0.9524  1.9190
   73SLPC  C314 6507   3.483   2.053   5.678 -0.5658 -0.0565 -0.4244
   73SLPC  H14X 6508   3.527   1.977   5.611 -0.2597 -0.1437 -0.1257
   73SLPC  H14Y 6509   3.402   1.995   5.728  0.5312  0.0906  1.6028
   73SLPC  C315 6510   3.577   2.105   5.795  0.3162 -0.1201 -0.2167
   73SLPC  H15X 6511   3.601   2.018   5.860  0.3031  1.1198  1.5127
   73SLPC  H15Y 6512   3.516   2.174   5.857  1.9943  2.2780 -1.0617
   73SLPC  C316 6513   3.710   2.179   5.753  0.5640  0.0628 -0.0481
   73SLPC  H16X 6514   3.765   2.221   5.840  3.0758  0.1556 -1.5686
   73SLPC  H16Y 6515   3.680   2.264   5.688  3.9326  1.0601 -0.5202
   73SLPC  C317 6516   3.796   2.083   5.664 -0.6919  0.2098  0.6361
   73SLPC  H17X 6517   3.748   2.065   5.565 -1.4187 -0.4315  1.1015
   73SLPC  H17Y 6518   3.791   1.984   5.712 -0.3488 -0.4351 -0.6074
   73SLPC  C318 6519   3.938   2.139   5.630  0.9223 -0.0041  0.4209
   73SLPC  H18X 6520   3.937   2.227   5.563 -0.7827 -0.8676 -0.7347
   73SLPC  H18Y 6521   3.994   2.067   5.567  0.6188  1.8750 -2.1251
   73SLPC  H18Z 6522   4.003   2.161   5.718  0.9851 -1.4052  0.7566
   74SLPC     N 6523   5.661   1.385   7.723  0.0496 -0.3691  0.1109
   74SLPC   C13 6524   5.655   1.521   7.790  0.7448 -0.0532  0.5595
   74SLPC  H13A 6525   5.643   1.528   7.897 -2.0219 -0.3086  0.3266
   74SLPC  H13B 6526   5.744   1.576   7.764  0.9726 -1.6731 -2.5326
   74SLPC  H13C 6527   5.566   1.569   7.754  0.1565 -0.9374  0.8198
   74SLPC   C14 6528   5.560   1.286   7.779 -0.3488  0.0277  0.1352
   74SLPC  H14A 6529   5.567   1.256   7.883 -2.4376 -1.9080 -0.2019
   74SLPC  H14B 6530   5.460   1.320   7.758 -0.1350  0.8322  0.3874
   74SLPC  H14C 6531   5.571   1.194   7.723 -2.6909 -0.4063  0.2706
   74SLPC   C15 6532   5.796   1.328   7.750  1.0056  0.1504 -0.1441
   74SLPC  H15A 6533   5.872   1.404   7.747 -0.1462  1.4829  1.7865
   74SLPC  H15B 6534   5.799   1.287   7.850 -0.5338  0.4869  0.0663
   74SLPC  H15C 6535   5.815   1.249   7.680  1.8213 -0.7396  1.0343
   74SLPC   C12 6536   5.627   1.389   7.570 -0.2996  0.1400  0.0005
   74SLPC  H12A 6537   5.662   1.293   7.534 -2.6413 -0.9073  0.3688
   74SLPC  H12B 6538   5.695   1.463   7.530  2.7680 -2.9101 -0.9749
   74SLPC   C11 6539   5.482   1.410   7.531 -0.3690  0.5955  0.1371
   74SLPC  H11A 6540   5.422   1.333   7.585  1.0238  0.3375  1.3769
   74SLPC  H11B 6541   5.468   1.393   7.422 -0.1818  0.1574  0.1785
   74SLPC     P 6542   5.483   1.664   7.481  0.1058  0.0153  0.0770
   74SLPC   O13 6543   5.410   1.783   7.527  0.1841  0.2458  0.1303
   74SLPC   O14 6544   5.624   1.672   7.482  0.3356  0.5299  0.3628
   74SLPC   O12 6545   5.432   1.539   7.565  0.6170 -0.7588  0.4915
   74SLPC   O11 6546   5.440   1.626   7.331  0.0850 -0.0874  0.3010
   74SLPC    C1 6547   5.305   1.574   7.295 -0.0828  0.6031  0.6024
   74SLPC    HA 6548   5.296   1.464   7.305  2.0734  0.3693  0.4327
   74SLPC    HB 6549   5.222   1.618   7.354 -0.1585  2.0364 -0.5118
   74SLPC    C2 6550   5.268   1.606   7.145 -0.2702  1.0459 -0.8258
   74SLPC    HS 6551   5.163   1.573   7.133 -1.4478  3.0342  2.5780
   74SLPC   O21 6552   5.349   1.534   7.052 -0.0628 -0.5057 -0.3729
   74SLPC   C21 6553   5.325   1.406   7.053 -0.8660  0.1818 -0.1200
   74SLPC   O22 6554   5.237   1.350   7.118  0.5219  0.0300 -0.2856
   74SLPC   C22 6555   5.414   1.343   6.951 -0.5253 -0.0101  0.9582
   74SLPC   H2R 6556   5.517   1.330   6.989 -0.4653 -2.4024  0.1655
   74SLPC   H2S 6557   5.365   1.243   6.949 -1.8643  0.6254  0.3152
   74SLPC    C3 6558   5.278   1.756   7.109 -0.1301 -0.2178  0.0713
   74SLPC    HX 6559   5.380   1.799   7.120  0.4337 -1.7556  1.1264
   74SLPC    HY 6560   5.206   1.818   7.165  1.4200  1.5074  0.2532
   74SLPC   O31 6561   5.240   1.766   6.972  0.1236  0.0897  0.4996
   74SLPC   C31 6562   5.219   1.896   6.934 -0.3934 -0.1283 -0.4094
   74SLPC   O32 6563   5.244   1.988   7.013 -0.5072  0.0922  0.1936
   74SLPC   C32 6564   5.162   1.907   6.795 -0.5413 -0.3750  0.0703
   74SLPC   H2X 6565   5.129   2.012   6.784  0.1982  0.1176  2.1168
   74SLPC   H2Y 6566   5.078   1.836   6.778  0.1090 -0.7439 -1.8580
   74SLPC   C23 6567   5.420   1.397   6.810  0.1158 -0.1439  0.0067
   74SLPC   H3R 6568   5.485   1.333   6.748 -0.2869 -0.2695 -0.2897
   74SLPC   H3S 6569   5.453   1.503   6.805 -2.0814  0.5373 -1.2295
   74SLPC   C24 6570   5.279   1.408   6.737  0.2044  0.9271 -0.5838
   74SLPC   H4R 6571   5.205   1.474   6.787 -1.2086 -1.5664  0.7733
   74SLPC   H4S 6572   5.247   1.302   6.725  0.0200  0.8381  0.6309
   74SLPC   C25 6573   5.295   1.466   6.594  0.1662 -0.1710 -0.0214
   74SLPC   H5R 6574   5.370   1.548   6.594 -0.2264  0.2738 -2.3107
   74SLPC   H5S 6575   5.203   1.519   6.561 -0.0532  0.9192  2.1698
   74SLPC   C26 6576   5.345   1.371   6.485 -0.6986  0.3964  0.3290
   74SLPC   H6R 6577   5.284   1.278   6.481 -2.1126  1.2045  1.6256
   74SLPC   H6S 6578   5.447   1.343   6.517 -0.3483  0.3711 -0.7718
   74SLPC   C27 6579   5.350   1.441   6.351 -0.1411 -0.6973 -0.1621
   74SLPC   H7R 6580   5.423   1.524   6.361 -0.7285  0.0968 -1.9469
   74SLPC   H7S 6581   5.252   1.493   6.334 -0.5239 -1.5379 -0.5642
   74SLPC   C28 6582   5.374   1.351   6.225  0.1382  0.0677  0.2999
   74SLPC   H8R 6583   5.339   1.246   6.233 -1.1310  0.4293 -0.2227
   74SLPC   H8S 6584   5.482   1.331   6.214  0.3135  0.7467  0.7580
   74SLPC   C29 6585   5.307   1.412   6.105 -0.3222  0.2741 -0.2025
   74SLPC   H9R 6586   5.202   1.440   6.121 -0.3483  0.2736 -0.3684
   74SLPC  C210 6587   5.356   1.453   5.986  0.3276  0.5689  0.4270
   74SLPC  H10R 6588   5.286   1.478   5.905 -0.4537 -0.3716  0.7866
   74SLPC  C211 6589   5.492   1.418   5.939 -0.0369 -0.1261 -0.6962
   74SLPC  H11R 6590   5.535   1.351   6.016 -0.8303  0.7833  0.5712
   74SLPC  H11S 6591   5.555   1.507   5.918  0.0942  0.0287  0.3347
   74SLPC  C212 6592   5.490   1.324   5.814  0.2301  0.0179 -1.1075
   74SLPC  H12R 6593   5.421   1.239   5.816  1.1879 -0.7650  0.1808
   74SLPC  C213 6594   5.585   1.325   5.726 -0.6114  0.3432  0.1987
   74SLPC  H13R 6595   5.569   1.255   5.643 -3.3888 -0.8449  1.6088
   74SLPC  C214 6596   5.701   1.428   5.703 -0.3008  1.3640 -0.3991
   74SLPC  H14R 6597   5.790   1.370   5.669 -0.5605  0.5321  0.2918
   74SLPC  H14S 6598   5.739   1.460   5.803  0.9049  1.7487 -0.9535
   74SLPC  C215 6599   5.668   1.553   5.612  0.1889  0.5549 -0.2645
   74SLPC  H15R 6600   5.725   1.641   5.649  0.6615  0.8354 -1.6070
   74SLPC  H15S 6601   5.559   1.573   5.621 -0.0778 -0.8154 -0.2306
   74SLPC  C216 6602   5.698   1.535   5.460 -0.1727  0.0221  0.2864
   74SLPC  H16R 6603   5.656   1.436   5.431 -0.5349  0.2132  0.1670
   74SLPC  H16S 6604   5.808   1.522   5.449 -0.0816  1.0588 -0.0659
   74SLPC  C217 6605   5.654   1.651   5.373  0.1495  0.0788  0.5196
   74SLPC  H17R 6606   5.727   1.732   5.394 -0.7522  1.3125 -0.8816
   74SLPC  H17S 6607   5.554   1.697   5.384 -0.4851 -0.8070 -1.1654
   74SLPC  C218 6608   5.663   1.620   5.222 -0.1607  0.1703 -0.1891
   74SLPC  H18R 6609   5.622   1.518   5.209  2.4358 -0.8197 -1.5874
   74SLPC  H18S 6610   5.768   1.618   5.183 -0.5874 -0.2752 -1.3854
   74SLPC  H18T 6611   5.590   1.678   5.162 -0.7754 -0.2710  0.1320
   74SLPC   C33 6612   5.276   1.880   6.691 -0.3298  0.2376  0.8255
   74SLPC   H3X 6613   5.306   1.773   6.700  1.4010  0.7687  1.8438
   74SLPC   H3Y 6614   5.367   1.943   6.698 -0.8590  1.5400 -2.2562
   74SLPC   C34 6615   5.235   1.916   6.546  0.0182  0.5187  0.7162
   74SLPC   H4X 6616   5.221   2.026   6.540  1.7337  0.7254 -0.2215
   74SLPC   H4Y 6617   5.137   1.871   6.523  0.7087 -0.8817  0.3854
   74SLPC   C35 6618   5.324   1.857   6.443  0.1736  0.3295  0.0779
   74SLPC   H5X 6619   5.305   1.748   6.439  0.9596  0.1504  0.7680
   74SLPC   H5Y 6620   5.432   1.864   6.470  1.1492 -0.7025 -3.1397
   74SLPC   C36 6621   5.311   1.919   6.300  0.4063 -0.1994 -0.1275
   74SLPC   H6X 6622   5.341   2.025   6.309  3.2596 -1.0079  1.2729
   74SLPC   H6Y 6623   5.209   1.901   6.261  0.1399 -1.9023  1.2015
   74SLPC   C37 6624   5.403   1.852   6.200 -0.0958 -0.1094  0.4104
   74SLPC   H7X 6625   5.367   1.748   6.190 -1.4039  0.3621  0.0234
   74SLPC   H7Y 6626   5.512   1.857   6.220  0.4382  1.1625 -2.3591
   74SLPC   C38 6627   5.399   1.914   6.060 -0.4385  0.1651 -0.0745
   74SLPC   H8X 6628   5.422   2.023   6.052 -0.1372  0.0611 -0.6924
   74SLPC   H8Y 6629   5.294   1.907   6.022 -1.2258  2.3314  1.4761
   74SLPC   C39 6630   5.497   1.838   5.976  0.0734  0.0001  0.1162
   74SLPC   H9X 6631   5.473   1.733   6.001 -1.2518  0.3837  0.5269
   74SLPC   H9Y 6632   5.602   1.849   6.013  0.0219 -2.5858  1.2125
   74SLPC  C310 6633   5.492   1.869   5.824 -0.2218 -0.3836  0.2441
   74SLPC  H10X 6634   5.386   1.852   5.793 -0.3647  0.4245  0.2592
   74SLPC  H10Y 6635   5.556   1.799   5.767 -0.0466  0.1645 -0.2390
   74SLPC  C311 6636   5.530   2.015   5.793 -0.4648 -0.1360  0.3658
   74SLPC  H11X 6637   5.622   2.047   5.846  0.4655 -1.3596 -0.4521
   74SLPC  H11Y 6638   5.456   2.090   5.827 -1.0145  0.4972 -2.0844
   74SLPC  C312 6639   5.557   2.026   5.651 -0.0522  0.2886 -0.2311
   74SLPC  H12X 6640   5.480   1.974   5.590 -0.8398  0.8860  0.2304
   74SLPC  H12Y 6641   5.652   1.970   5.633 -0.6501 -0.2144 -2.0983
   74SLPC  C313 6642   5.587   2.160   5.589 -0.6835 -0.2089 -0.2027
   74SLPC  H13X 6643   5.633   2.222   5.669  2.7316 -0.1037 -2.0756
   74SLPC  H13Y 6644   5.497   2.220   5.563  0.9776  2.3640 -0.3778
   74SLPC  C314 6645   5.692   2.161   5.477  0.3631 -0.0306 -0.3028
   74SLPC  H14X 6646   5.778   2.105   5.519  0.3267 -1.7422 -2.3346
   74SLPC  H14Y 6647   5.723   2.267   5.465  0.0025  0.0580 -0.4782
   74SLPC  C315 6648   5.647   2.111   5.343  0.5216 -0.0993  0.4021
   74SLPC  H15X 6649   5.557   2.173   5.324  0.7512 -0.4737 -2.3887
   74SLPC  H15Y 6650   5.603   2.009   5.348 -0.4705  0.1961 -1.4428
   74SLPC  C316 6651   5.748   2.122   5.227  0.7556 -0.5674 -0.4115
   74SLPC  H16X 6652   5.767   2.227   5.197 -1.4651  0.2652  0.7691
   74SLPC  H16Y 6653   5.703   2.061   5.146 -1.6263  0.4011  0.1021
   74SLPC  C317 6654   5.876   2.040   5.258 -0.8519 -0.6266 -0.1654
   74SLPC  H17X 6655   5.851   1.933   5.278  0.9016 -0.9472  0.4194
   74SLPC  H17Y 6656   5.921   2.073   5.353 -0.5833  1.8399 -1.0714
   74SLPC  C318 6657   5.986   2.048   5.151  0.2811 -0.2658 -0.3973
   74SLPC  H18X 6658   6.071   2.000   5.204 -0.8784  0.2143  2.0561
   74SLPC  H18Y 6659   6.014   2.153   5.127  0.6108 -0.3792 -0.5032
   74SLPC  H18Z 6660   5.962   1.998   5.055  1.0656 -2.9066  0.6909
   75SLPC     N 6661   3.515   2.836   7.495  0.1142  0.0759  0.0371
   75SLPC   C13 6662   3.600   2.720   7.547  0.4779  0.4786 -0.5707
   75SLPC  H13A 6663   3.701   2.729   7.511  2.1452 -0.9503  3.2256
   75SLPC  H13B 6664   3.603   2.725   7.655 -2.0962 -0.6362 -0.3835
   75SLPC  H13C 6665   3.560   2.626   7.511 -0.7060  0.3939  0.8427
   75SLPC   C14 6666   3.376   2.840   7.553  0.2518  0.2637 -0.2167
   75SLPC  H14A 6667   3.319   2.917   7.504  0.4464 -0.4832 -1.6600
   75SLPC  H14B 6668   3.321   2.747   7.556 -0.5826  0.6182 -2.5195
   75SLPC  H14C 6669   3.387   2.847   7.660  1.2432 -1.8789 -0.1265
   75SLPC   C15 6670   3.492   2.817   7.351 -0.1486 -0.4533  0.6932
   75SLPC  H15A 6671   3.448   2.723   7.323 -0.0842 -0.1239 -0.6202
   75SLPC  H15B 6672   3.424   2.896   7.321  0.0487 -0.8067 -0.8048
   75SLPC  H15C 6673   3.589   2.829   7.304 -0.2895 -0.0332  0.5005
   75SLPC   C12 6674   3.588   2.965   7.533  0.0463  0.3102  0.2680
   75SLPC  H12A 6675   3.606   2.954   7.639  1.9144 -1.9898 -0.2002
   75SLPC  H12B 6676   3.514   3.043   7.522 -1.2413 -0.8502  0.4957
   75SLPC   C11 6677   3.725   3.000   7.468  0.7554 -0.4589 -0.2464
   75SLPC  H11A 6678   3.755   3.105   7.490 -2.4459  0.6741 -0.6784
   75SLPC  H11B 6679   3.702   3.006   7.359 -3.3488  1.3644  0.4989
   75SLPC     P 6680   3.905   2.889   7.624 -0.3108 -0.0470  0.0702
   75SLPC   O13 6681   3.812   2.913   7.741  0.3087 -0.5581  0.3969
   75SLPC   O14 6682   3.974   2.757   7.625 -0.0677 -0.1484  0.2747
   75SLPC   O12 6683   3.830   2.903   7.492  0.1129 -0.5874 -0.2108
   75SLPC   O11 6684   4.005   3.009   7.602  0.0729 -0.6281 -0.2855
   75SLPC    C1 6685   4.145   2.999   7.639 -0.0869  0.3367 -0.1402
   75SLPC    HA 6686   4.158   3.017   7.748  0.7658 -1.5990  0.1065
   75SLPC    HB 6687   4.183   2.901   7.602 -2.6994 -0.9866  0.4879
   75SLPC    C2 6688   4.235   3.099   7.551  0.4422  0.2733  0.2016
   75SLPC    HS 6689   4.208   3.204   7.578 -0.4921  0.0973 -0.0098
   75SLPC   O21 6690   4.210   3.071   7.415  0.3770  0.8330 -0.0505
   75SLPC   C21 6691   4.102   3.125   7.362 -0.4922 -0.4234  1.0770
   75SLPC   O22 6692   4.038   3.215   7.412  0.8680 -0.7720 -0.0668
   75SLPC   C22 6693   4.087   3.074   7.221  0.0859 -0.0120  0.6116
   75SLPC   H2R 6694   4.185   3.090   7.171 -0.2342 -2.0603 -0.8173
   75SLPC   H2S 6695   4.059   2.966   7.222 -0.6170  0.1735  1.0125
   75SLPC    C3 6696   4.389   3.073   7.580  0.1836 -0.2408  0.8513
   75SLPC    HX 6697   4.396   2.962   7.573 -3.9556 -0.5925 -0.7709
   75SLPC    HY 6698   4.422   3.106   7.680 -0.8158  0.4034  0.9764
   75SLPC   O31 6699   4.478   3.134   7.479 -0.1637  0.0032  0.0265
   75SLPC   C31 6700   4.587   3.069   7.458  0.1153  0.3649 -0.5962
   75SLPC   O32 6701   4.613   2.957   7.503 -0.6611  0.1251  0.5828
   75SLPC   C32 6702   4.677   3.137   7.357  0.4844 -0.7543  0.9731
   75SLPC   H2X 6703   4.776   3.088   7.368  0.7995 -0.0889  1.1494
   75SLPC   H2Y 6704   4.681   3.241   7.394 -2.0068 -0.4046  0.4810
   75SLPC   C23 6705   3.977   3.133   7.131  0.7711 -0.4147 -0.6653
   75SLPC   H3R 6706   3.991   3.243   7.141 -0.3870 -0.3875  1.1454
   75SLPC   H3S 6707   3.883   3.105   7.182 -2.3889  0.3958 -5.4384
   75SLPC   C24 6708   3.983   3.095   6.981  0.8432  0.0202 -0.5712
   75SLPC   H4R 6709   3.970   2.985   6.967  0.7131 -0.1248  0.5659
   75SLPC   H4S 6710   4.085   3.109   6.941  0.4027 -0.0843 -1.7507
   75SLPC   C25 6711   3.884   3.164   6.890 -0.7586  0.2543 -0.3577
   75SLPC   H5R 6712   3.894   3.274   6.898 -0.1976  0.1781  0.0586
   75SLPC   H5S 6713   3.780   3.129   6.907 -0.3663 -1.9743 -2.0982
   75SLPC   C26 6714   3.910   3.131   6.737  0.1574  0.0680  0.2377
   75SLPC   H6R 6715   4.005   3.176   6.703  0.5005 -1.6801 -1.2718
   75SLPC   H6S 6716   3.829   3.181   6.680 -0.9880  0.8386  2.4012
   75SLPC   C27 6717   3.900   2.979   6.699  0.2151 -0.1601 -0.6123
   75SLPC   H7R 6718   3.806   2.929   6.731 -0.3381  2.0478  1.4894
   75SLPC   H7S 6719   3.976   2.920   6.753 -2.2863 -0.6579  2.6516
   75SLPC   C28 6720   3.938   2.953   6.544 -0.1281  0.1540  0.0679
   75SLPC   H8R 6721   3.933   2.844   6.519 -0.1589 -0.0807  1.0633
   75SLPC   H8S 6722   4.039   2.986   6.515  0.3019  1.4394  2.7204
   75SLPC   C29 6723   3.834   3.009   6.457 -0.3378 -0.1492  0.4643
   75SLPC   H9R 6724   3.728   2.987   6.476 -0.6492  0.7903 -0.1062
   75SLPC  C210 6725   3.853   3.070   6.337  0.6398 -0.3541  0.0604
   75SLPC  H10R 6726   3.767   3.119   6.290  1.1974  2.8447  2.1035
   75SLPC  C211 6727   3.984   3.098   6.270 -1.0655 -0.5692  0.6256
   75SLPC  H11R 6728   3.959   3.116   6.163 -1.1555 -0.9951  0.5720
   75SLPC  H11S 6729   4.053   3.010   6.261  1.3367  1.2378  0.2565
   75SLPC  C212 6730   4.053   3.219   6.334  0.0813  0.0198 -0.0077
   75SLPC  H12R 6731   4.019   3.246   6.436  0.6494 -2.4467  0.9058
   75SLPC  C213 6732   4.149   3.297   6.265  0.4096 -0.5009 -0.5065
   75SLPC  H13R 6733   4.200   3.378   6.318 -0.6971  1.1539 -1.8412
   75SLPC  C214 6734   4.203   3.283   6.126  0.2095  0.6331 -0.3992
   75SLPC  H14R 6735   4.177   3.182   6.088 -1.4387 -0.2821  2.8190
   75SLPC  H14S 6736   4.314   3.281   6.127  0.2502 -0.1757 -2.3275
   75SLPC  C215 6737   4.156   3.396   6.027  0.3648  0.2469  0.6399
   75SLPC  H15R 6738   4.046   3.395   6.013  0.0428 -0.8254  2.8490
   75SLPC  H15S 6739   4.191   3.372   5.924 -2.1058  0.4522 -0.3113
   75SLPC  C216 6740   4.203   3.529   6.066  0.5155 -0.5479  0.2495
   75SLPC  H16R 6741   4.312   3.540   6.046  0.4916 -0.3046  0.2457
   75SLPC  H16S 6742   4.191   3.542   6.175  0.5838 -0.7908  0.2853
   75SLPC  C217 6743   4.130   3.647   5.993 -0.2159  0.5887 -0.5323
   75SLPC  H17R 6744   4.026   3.626   6.025  0.5216 -0.9576  1.0368
   75SLPC  H17S 6745   4.134   3.631   5.884  3.6540  0.0643 -0.4600
   75SLPC  C218 6746   4.181   3.784   6.028  0.2677 -0.0762  0.3768
   75SLPC  H18R 6747   4.289   3.786   6.002 -0.1780 -0.8729 -1.7022
   75SLPC  H18S 6748   4.175   3.801   6.138 -0.6812  0.2617  0.2785
   75SLPC  H18T 6749   4.135   3.870   5.975 -1.7657 -0.9904  0.5585
   75SLPC   C33 6750   4.620   3.132   7.204 -0.2573  0.0716  0.7790
   75SLPC   H3X 6751   4.520   3.180   7.197 -1.8300 -2.8526  1.4722
   75SLPC   H3Y 6752   4.609   3.022   7.187 -1.1161 -0.0524  1.9827
   75SLPC   C34 6753   4.725   3.191   7.114 -0.1460  0.4269  0.1191
   75SLPC   H4X 6754   4.828   3.167   7.147  0.1728  1.2957 -0.2000
   75SLPC   H4Y 6755   4.719   3.302   7.122  0.0001  0.4147  0.3883
   75SLPC   C35 6756   4.702   3.158   6.966 -0.4430 -0.0442 -0.2527
   75SLPC   H5X 6757   4.596   3.147   6.935 -0.0705 -4.2926 -0.6366
   75SLPC   H5Y 6758   4.738   3.053   6.964  0.0363  0.0976  0.5000
   75SLPC   C36 6759   4.796   3.245   6.874 -0.6049 -0.2672  0.0478
   75SLPC   H6X 6760   4.898   3.201   6.887  0.0904  1.4874  0.7698
   75SLPC   H6Y 6761   4.786   3.346   6.918 -2.0850 -0.5059  0.3173
   75SLPC   C37 6762   4.753   3.246   6.728 -0.5560  0.1097  0.4173
   75SLPC   H7X 6763   4.655   3.298   6.717 -0.2545  0.5407 -0.3770
   75SLPC   H7Y 6764   4.744   3.144   6.685  0.0458  0.3649 -0.3500
   75SLPC   C38 6765   4.848   3.330   6.624  0.1387  0.2509 -0.7253
   75SLPC   H8X 6766   4.947   3.282   6.609  0.7368  1.0983  0.2854
   75SLPC   H8Y 6767   4.868   3.427   6.675 -1.4331  0.0564  0.3386
   75SLPC   C39 6768   4.794   3.337   6.483  0.5331 -0.2511  0.2698
   75SLPC   H9X 6769   4.863   3.411   6.436  1.2809  0.9818  3.1004
   75SLPC   H9Y 6770   4.698   3.386   6.509 -0.1491 -0.5699 -1.5505
   75SLPC  C310 6771   4.799   3.212   6.400 -0.1838 -0.2733 -1.0477
   75SLPC  H10X 6772   4.755   3.131   6.461  1.2382 -1.2915 -1.3170
   75SLPC  H10Y 6773   4.907   3.185   6.393 -0.2670 -0.5932 -1.1124
   75SLPC  C311 6774   4.743   3.240   6.258  0.0153 -0.0914 -0.6419
   75SLPC  H11X 6775   4.805   3.319   6.211 -0.9030 -1.0228 -3.6885
   75SLPC  H11Y 6776   4.635   3.267   6.262  0.1969  0.5205  1.9612
   75SLPC  C312 6777   4.763   3.123   6.156  0.4251  0.7492  0.0608
   75SLPC  H12X 6778   4.698   3.035   6.177 -0.4216  1.5324  0.8266
   75SLPC  H12Y 6779   4.869   3.092   6.154 -0.1581 -2.0712  3.7710
   75SLPC  C313 6780   4.732   3.177   6.019  0.3435  0.1911  0.7480
   75SLPC  H13X 6781   4.765   3.092   5.956  1.3205 -0.3902  1.9979
   75SLPC  H13Y 6782   4.802   3.257   5.986  0.7865 -0.1089  0.9347
   75SLPC  C314 6783   4.585   3.204   5.981 -0.0382 -0.5605  0.2973
   75SLPC  H14X 6784   4.580   3.307   5.938  1.2797 -0.1562  1.0487
   75SLPC  H14Y 6785   4.522   3.194   6.072  0.3206 -0.8465  0.5177
   75SLPC  C315 6786   4.535   3.111   5.868  0.1201 -0.2878  0.3589
   75SLPC  H15X 6787   4.523   3.004   5.895 -1.3625 -0.0388  0.7899
   75SLPC  H15Y 6788   4.621   3.107   5.798  2.3566  0.3886  2.9113
   75SLPC  C316 6789   4.401   3.162   5.806  0.3614 -0.1650  0.9352
   75SLPC  H16X 6790   4.326   3.177   5.887 -0.2944  2.6848 -0.1102
   75SLPC  H16Y 6791   4.371   3.089   5.728  2.3036 -0.3997  0.3325
   75SLPC  C317 6792   4.406   3.300   5.737  0.7047  0.1996  0.1042
   75SLPC  H17X 6793   4.416   3.378   5.816 -3.0416 -0.6334  1.6276
   75SLPC  H17Y 6794   4.301   3.313   5.704 -0.1008 -0.6184  2.1432
   75SLPC  C318 6795   4.510   3.316   5.627 -0.0537 -0.4097 -0.3641
   75SLPC  H18X 6796   4.507   3.222   5.568  1.6351  0.0645 -1.2912
   75SLPC  H18Y 6797   4.615   3.331   5.663 -0.9710  1.9975  1.6385
   75SLPC  H18Z 6798   4.495   3.392   5.547  0.6963  0.1403 -0.0049
   76SLPC     N 6799   3.099   3.216   7.746  0.1129  0.3271  0.4142
   76SLPC   C13 6800   3.182   3.308   7.815  1.0504 -0.0370 -0.8039
   76SLPC  H13A 6801   3.149   3.410   7.810 -0.3564 -0.2743  1.9113
   76SLPC  H13B 6802   3.187   3.283   7.920  0.1798  1.2104 -0.4475
   76SLPC  H13C 6803   3.284   3.293   7.783  0.8011  0.6206 -1.9554
   76SLPC   C14 6804   2.947   3.223   7.782 -0.8366 -0.2540 -0.4167
   76SLPC  H14A 6805   2.918   3.327   7.780 -0.1214 -0.0442  0.0259
   76SLPC  H14B 6806   2.884   3.181   7.705  2.3434 -1.7171 -2.4208
   76SLPC  H14C 6807   2.929   3.175   7.876  3.7531 -1.6411 -0.0046
   76SLPC   C15 6808   3.142   3.071   7.766  0.0903  0.1640  0.2234
   76SLPC  H15A 6809   3.241   3.056   7.725 -1.0852 -2.6386 -1.8622
   76SLPC  H15B 6810   3.155   3.059   7.873  0.0462 -0.6147  0.1421
   76SLPC  H15C 6811   3.071   3.004   7.721  3.0215 -0.8785 -3.2918
   76SLPC   C12 6812   3.128   3.243   7.598 -0.0834  0.0414  0.2107
   76SLPC  H12A 6813   3.096   3.156   7.543  1.1024 -1.6701  2.0700
   76SLPC  H12B 6814   3.234   3.253   7.578  0.1806  0.4885  1.6979
   76SLPC   C11 6815   3.044   3.360   7.538  0.1751  0.6450 -0.4829
   76SLPC  H11A 6816   2.942   3.317   7.540 -1.0893  3.3271  2.0101
   76SLPC  H11B 6817   3.067   3.374   7.431  2.3879  1.7048  0.0593
   76SLPC     P 6818   2.936   3.585   7.607 -0.1900 -0.0582 -0.0701
   76SLPC   O13 6819   2.828   3.521   7.676 -0.0794  0.8595 -0.9303
   76SLPC   O14 6820   2.979   3.711   7.661  0.3534  0.1004 -0.2515
   76SLPC   O12 6821   3.055   3.489   7.596 -0.1580  0.9242  0.3855
   76SLPC   O11 6822   2.890   3.597   7.459 -0.5358 -0.3704  0.6704
   76SLPC    C1 6823   2.939   3.702   7.373 -0.9009  0.1426  0.4041
   76SLPC    HA 6824   2.920   3.805   7.410  0.7290  1.4511 -2.1687
   76SLPC    HB 6825   3.045   3.685   7.345 -1.3971 -0.7073 -1.0535
   76SLPC    C2 6826   2.868   3.691   7.239 -0.4188  0.1514  0.2461
   76SLPC    HS 6827   2.763   3.689   7.275 -0.1233 -0.1347  1.1163
   76SLPC   O21 6828   2.923   3.573   7.177 -0.2372 -1.3604 -0.5456
   76SLPC   C21 6829   2.829   3.504   7.113 -1.0464 -0.3368 -0.5174
   76SLPC   O22 6830   2.711   3.530   7.111 -0.0384 -0.9913 -0.7478
   76SLPC   C22 6831   2.895   3.390   7.032 -0.2480  0.5043  0.5080
   76SLPC   H2R 6832   3.006   3.388   7.040 -0.1548 -1.7008 -0.6828
   76SLPC   H2S 6833   2.860   3.294   7.074 -3.4451  0.4618 -1.9447
   76SLPC    C3 6834   2.895   3.814   7.157  0.0263 -0.3354  0.0893
   76SLPC    HX 6835   3.004   3.818   7.136 -0.0857 -0.4587 -0.5202
   76SLPC    HY 6836   2.873   3.908   7.212 -0.2410 -0.0643 -0.4744
   76SLPC   O31 6837   2.825   3.802   7.033 -0.3168 -0.5644  0.1839
   76SLPC   C31 6838   2.700   3.851   7.035 -0.1902 -0.2470  0.1731
   76SLPC   O32 6839   2.642   3.891   7.131 -0.1514  0.8380 -0.3187
   76SLPC   C32 6840   2.634   3.833   6.899 -0.8106  0.4609 -0.2230
   76SLPC   H2X 6841   2.567   3.921   6.898  1.3504  2.2146 -1.7094
   76SLPC   H2Y 6842   2.579   3.736   6.905  1.8536 -1.2125 -0.8685
   76SLPC   C23 6843   2.848   3.398   6.885 -0.0677  0.3804 -0.0867
   76SLPC   H3R 6844   2.865   3.496   6.837 -1.0482  0.0732 -1.0921
   76SLPC   H3S 6845   2.741   3.367   6.888  0.1477 -0.5187 -1.1740
   76SLPC   C24 6846   2.913   3.290   6.790  0.3091 -0.1990 -0.2733
   76SLPC   H4R 6847   2.883   3.193   6.834 -0.0839 -0.8205 -1.8234
   76SLPC   H4S 6848   3.021   3.315   6.797  0.5556 -0.7708 -1.6675
   76SLPC   C25 6849   2.868   3.313   6.647  0.3750  0.3822  0.2976
   76SLPC   H5R 6850   2.761   3.342   6.657 -0.1008 -0.3880 -2.0787
   76SLPC   H5S 6851   2.875   3.219   6.589  4.0933  0.4413  0.3711
   76SLPC   C26 6852   2.949   3.430   6.579 -0.0249 -0.2737 -1.1749
   76SLPC   H6R 6853   3.038   3.375   6.545 -0.7973 -1.4714 -1.3061
   76SLPC   H6S 6854   2.971   3.502   6.661 -0.3026 -2.1853  0.6778
   76SLPC   C27 6855   2.885   3.490   6.456  0.4517 -0.1582 -0.4056
   76SLPC   H7R 6856   2.933   3.584   6.422  1.2949  0.0138  1.1722
   76SLPC   H7S 6857   2.782   3.518   6.487 -0.5661 -1.4207 -2.4807
   76SLPC   C28 6858   2.876   3.379   6.349 -0.6552  0.0036  0.9659
   76SLPC   H8R 6859   2.862   3.278   6.391  0.2222 -0.6871 -0.3154
   76SLPC   H8S 6860   2.978   3.373   6.305 -2.2566  1.4157 -3.5103
   76SLPC   C29 6861   2.790   3.417   6.233 -0.2125 -0.5005 -0.1227
   76SLPC   H9R 6862   2.704   3.480   6.259 -0.0303  0.4200 -1.6537
   76SLPC  C210 6863   2.804   3.370   6.111  0.6656  0.2029 -0.2982
   76SLPC  H10R 6864   2.728   3.407   6.041  1.2159 -0.8806 -1.5043
   76SLPC  C211 6865   2.903   3.269   6.062  0.3127  0.3744  0.0257
   76SLPC  H11R 6866   2.853   3.171   6.049 -0.1031  0.6592 -0.5231
   76SLPC  H11S 6867   2.977   3.250   6.143 -0.1335  3.1903  1.2134
   76SLPC  C212 6868   2.987   3.308   5.946  0.8860  0.1170  0.7165
   76SLPC  H12R 6869   3.067   3.377   5.974  1.0045  1.0701 -1.7152
   76SLPC  C213 6870   2.973   3.265   5.816 -1.1567 -0.2679  0.0872
   76SLPC  H13R 6871   3.048   3.292   5.741  0.4788 -3.3811  0.3950
   76SLPC  C214 6872   2.866   3.172   5.764  0.4300  0.1156  0.7585
   76SLPC  H14R 6873   2.780   3.207   5.825  0.7387 -0.6677  1.6623
   76SLPC  H14S 6874   2.888   3.069   5.797 -0.7076 -0.0263  1.1325
   76SLPC  C215 6875   2.847   3.197   5.617 -0.9901  0.0439 -0.3239
   76SLPC  H15R 6876   2.941   3.166   5.567 -1.0227  1.5727 -1.3944
   76SLPC  H15S 6877   2.830   3.304   5.593 -0.8938  0.3318  0.8171
   76SLPC  C216 6878   2.724   3.134   5.564 -0.3269  0.4508 -0.2408
   76SLPC  H16R 6879   2.642   3.163   5.632  0.1374 -0.9160  0.9445
   76SLPC  H16S 6880   2.727   3.023   5.569  0.6013  0.5147  1.9291
   76SLPC  C217 6881   2.692   3.172   5.420  0.2967  0.2555  0.2106
   76SLPC  H17R 6882   2.682   3.282   5.409  0.5958  0.2935  0.3134
   76SLPC  H17S 6883   2.595   3.128   5.387 -1.1145  4.1898 -1.4686
   76SLPC  C218 6884   2.806   3.122   5.324 -0.1932  0.2201 -0.5645
   76SLPC  H18R 6885   2.893   3.191   5.332 -0.1889  0.0788  0.9681
   76SLPC  H18S 6886   2.757   3.130   5.225  0.4129 -3.9314 -1.3725
   76SLPC  H18T 6887   2.834   3.017   5.345  1.9737  0.9007  0.2843
   76SLPC   C33 6888   2.732   3.849   6.775 -0.2783 -0.4004 -0.1199
   76SLPC   H3X 6889   2.810   3.769   6.770  0.5876  0.3744  0.6574
   76SLPC   H3Y 6890   2.798   3.938   6.785  2.2360 -2.3614  2.7347
   76SLPC   C34 6891   2.657   3.850   6.646 -0.3543  0.1839  0.5777
   76SLPC   H4X 6892   2.599   3.945   6.648  0.6590  0.8009  2.8061
   76SLPC   H4Y 6893   2.594   3.760   6.628 -3.1590  1.3328  3.5452
   76SLPC   C35 6894   2.751   3.873   6.523 -0.1431  0.3794  0.0017
   76SLPC   H5X 6895   2.794   3.773   6.498  1.0254  0.7327  0.5060
   76SLPC   H5Y 6896   2.834   3.942   6.553  1.3213 -0.4469 -1.9177
   76SLPC   C36 6897   2.695   3.932   6.397  0.0727  0.2718  0.1581
   76SLPC   H6X 6898   2.634   4.021   6.421 -0.1343  0.2380 -0.2394
   76SLPC   H6Y 6899   2.634   3.858   6.340 -2.9549  1.7668  1.2672
   76SLPC   C37 6900   2.810   3.976   6.301  0.0551 -0.6580 -0.7852
   76SLPC   H7X 6901   2.854   3.889   6.249 -2.6745 -1.6264 -1.6440
   76SLPC   H7Y 6902   2.888   4.021   6.367 -0.7838 -0.5673  0.1651
   76SLPC   C38 6903   2.765   4.088   6.204  0.7183 -0.2111 -0.1186
   76SLPC   H8X 6904   2.857   4.135   6.163 -0.3236  0.6011 -1.6358
   76SLPC   H8Y 6905   2.706   4.165   6.258  0.6341 -1.5045  1.7014
   76SLPC   C39 6906   2.685   4.037   6.080  0.0626  0.4536 -0.7423
   76SLPC   H9X 6907   2.582   4.006   6.107 -0.0271  0.6204 -0.8936
   76SLPC   H9Y 6908   2.741   3.955   6.030  0.0176  1.0528 -1.7982
   76SLPC  C310 6909   2.655   4.153   5.983 -0.4570 -0.7511 -0.3482
   76SLPC  H10X 6910   2.743   4.212   5.949 -1.5981  0.7379 -0.8554
   76SLPC  H10Y 6911   2.592   4.235   6.025  0.4682  0.1147 -0.5864
   76SLPC  C311 6912   2.598   4.098   5.849 -0.0296  0.3915  0.8382
   76SLPC  H11X 6913   2.501   4.049   5.873 -0.3147 -1.2997 -3.0429
   76SLPC  H11Y 6914   2.662   4.020   5.801 -0.5913  1.7878 -2.3759
   76SLPC  C312 6915   2.573   4.212   5.748  0.6093  0.4502 -0.2305
   76SLPC  H12X 6916   2.663   4.251   5.696  0.3182  1.3785 -0.0612
   76SLPC  H12Y 6917   2.537   4.296   5.812 -0.1059  0.9009 -1.1904
   76SLPC  C313 6918   2.468   4.163   5.644  0.3904 -0.1628 -0.0839
   76SLPC  H13X 6919   2.372   4.140   5.696 -1.3953  3.2417 -1.5657
   76SLPC  H13Y 6920   2.510   4.076   5.591  0.9872  0.7579 -1.1494
   76SLPC  C314 6921   2.444   4.275   5.528 -0.2832 -0.2304 -0.0433
   76SLPC  H14X 6922   2.544   4.317   5.503 -0.4224  1.5637  2.0412
   76SLPC  H14Y 6923   2.385   4.363   5.563 -1.1374 -1.1803  0.9539
   76SLPC  C315 6924   2.379   4.214   5.408 -0.2281 -0.2034  0.9255
   76SLPC  H15X 6925   2.268   4.217   5.414 -0.1901  1.7887  1.5966
   76SLPC  H15Y 6926   2.407   4.107   5.408  0.6566  0.0198  0.7521
   76SLPC  C316 6927   2.424   4.279   5.278 -0.0554  0.4064 -0.3167
   76SLPC  H16X 6928   2.531   4.257   5.257  0.0608  1.2862 -0.6948
   76SLPC  H16Y 6929   2.416   4.387   5.301  1.3942  0.2631  1.0839
   76SLPC  C317 6930   2.341   4.247   5.153 -0.8895  0.3090 -0.4689
   76SLPC  H17X 6931   2.244   4.300   5.169 -0.1779  0.6748  4.2938
   76SLPC  H17Y 6932   2.309   4.141   5.143  1.1969 -0.2112 -2.1770
   76SLPC  C318 6933   2.409   4.291   5.026 -0.0574 -0.2060 -0.2236
   76SLPC  H18X 6934   2.449   4.394   5.034  0.7642 -0.2338 -3.0358
   76SLPC  H18Y 6935   2.345   4.278   4.936  0.1043  2.7133 -0.8571
   76SLPC  H18Z 6936   2.498   4.227   5.008  2.3906  3.0368 -0.4460
   77SLPC     N 6937   4.359   1.651   7.650 -0.0986 -0.7042  0.6935
   77SLPC   C13 6938   4.292   1.683   7.514  0.1996  0.3414 -0.3116
   77SLPC  H13A 6939   4.212   1.753   7.529 -0.0288 -0.1675  0.9558
   77SLPC  H13B 6940   4.361   1.721   7.440  1.2530 -0.6978  0.0913
   77SLPC  H13C 6941   4.245   1.597   7.469  1.0958 -0.2037 -0.2409
   77SLPC   C14 6942   4.262   1.582   7.741  0.8162  0.5659  0.1728
   77SLPC  H14A 6943   4.182   1.648   7.770 -1.7031 -1.1397 -2.3623
   77SLPC  H14B 6944   4.218   1.499   7.688 -1.1459  1.2839  0.5877
   77SLPC  H14C 6945   4.311   1.545   7.830 -0.8951 -1.7277  0.2750
   77SLPC   C15 6946   4.396   1.787   7.709 -0.6108  0.5127  0.1375
   77SLPC  H15A 6947   4.461   1.848   7.647 -0.4141  0.5193  0.3483
   77SLPC  H15B 6948   4.305   1.845   7.718 -0.7982  0.3889 -0.7890
   77SLPC  H15C 6949   4.436   1.789   7.809 -1.8555 -0.7194  0.6814
   77SLPC   C12 6950   4.491   1.563   7.627  0.0101 -0.5186  0.7596
   77SLPC  H12A 6951   4.458   1.469   7.586 -0.7138  0.1366 -0.2226
   77SLPC  H12B 6952   4.545   1.540   7.718  2.1974 -0.4867 -0.4754
   77SLPC   C11 6953   4.595   1.609   7.524 -0.0590  0.5917  0.0383
   77SLPC  H11A 6954   4.545   1.599   7.426  1.3517  0.9268 -0.7384
   77SLPC  H11B 6955   4.673   1.530   7.536  0.1001  0.9885  2.1581
   77SLPC     P 6956   4.672   1.860   7.466  0.1144  0.2219  0.0583
   77SLPC   O13 6957   4.552   1.897   7.391 -0.1873  0.0103  0.6785
   77SLPC   O14 6958   4.729   1.971   7.548 -0.7643  0.1797 -0.3623
   77SLPC   O12 6959   4.643   1.737   7.561  1.0800  0.0757  0.3435
   77SLPC   O11 6960   4.782   1.793   7.384 -0.4264 -0.2484 -0.1895
   77SLPC    C1 6961   4.856   1.878   7.296  0.3923  0.5344  0.4121
   77SLPC    HA 6962   4.891   1.972   7.342 -0.8931  0.6792  1.1367
   77SLPC    HB 6963   4.954   1.828   7.280  0.7168  0.9680  1.0257
   77SLPC    C2 6964   4.794   1.892   7.156 -0.8954  0.2982  0.0437
   77SLPC    HS 6965   4.874   1.904   7.080 -1.3158  0.8275 -0.3210
   77SLPC   O21 6966   4.707   2.006   7.153 -0.0656 -0.1900  0.4700
   77SLPC   C21 6967   4.763   2.122   7.124 -0.0407  0.3728 -0.1041
   77SLPC   O22 6968   4.881   2.136   7.097 -0.0008 -0.0915  0.0245
   77SLPC   C22 6969   4.649   2.234   7.117  0.2445  1.4119  0.6055
   77SLPC   H2R 6970   4.561   2.190   7.065 -0.0063 -1.4289  3.1591
   77SLPC   H2S 6971   4.617   2.246   7.223  0.1517 -2.0122  1.0638
   77SLPC    C3 6972   4.719   1.767   7.111  0.1455  0.2550 -0.3004
   77SLPC    HX 6973   4.632   1.741   7.175 -0.6647 -1.2864 -1.9547
   77SLPC    HY 6974   4.793   1.684   7.122 -0.8703 -0.6672 -0.2644
   77SLPC   O31 6975   4.682   1.781   6.972  0.6103 -0.2513 -0.5013
   77SLPC   C31 6976   4.558   1.819   6.956  0.7988 -0.3353 -0.0175
   77SLPC   O32 6977   4.477   1.843   7.044  0.8872  0.2977  0.5118
   77SLPC   C32 6978   4.523   1.832   6.809 -0.7674  0.3745  0.3195
   77SLPC   H2X 6979   4.413   1.837   6.798 -0.6827 -1.6964 -2.8490
   77SLPC   H2Y 6980   4.567   1.743   6.759 -0.2660 -1.0518  3.1143
   77SLPC   C23 6981   4.693   2.367   7.059 -0.1797  0.2388 -0.1180
   77SLPC   H3R 6982   4.767   2.414   7.127 -1.1633  0.0605  1.1415
   77SLPC   H3S 6983   4.606   2.436   7.056  0.0830  0.7034  1.7412
   77SLPC   C24 6984   4.738   2.359   6.915 -0.4135  0.7759 -0.2647
   77SLPC   H4R 6985   4.659   2.322   6.847  1.2473 -0.0652 -1.8114
   77SLPC   H4S 6986   4.828   2.296   6.900 -1.2218 -1.5841  3.5749
   77SLPC   C25 6987   4.777   2.498   6.863 -0.1379 -0.1615 -0.1654
   77SLPC   H5R 6988   4.842   2.489   6.773  1.2027 -1.3598  0.8669
   77SLPC   H5S 6989   4.843   2.542   6.941  1.1199 -0.6976 -0.8857
   77SLPC   C26 6990   4.658   2.575   6.837  0.6798 -0.0488 -0.0219
   77SLPC   H6R 6991   4.607   2.598   6.932 -1.0622 -1.9341 -0.4374
   77SLPC   H6S 6992   4.588   2.506   6.785 -1.7185  4.1503 -2.9151
   77SLPC   C27 6993   4.675   2.700   6.738  0.1148 -0.0129 -0.5161
   77SLPC   H7R 6994   4.739   2.778   6.784  0.0407 -0.4347  0.3264
   77SLPC   H7S 6995   4.573   2.743   6.723  0.2623  0.9257  0.9101
   77SLPC   C28 6996   4.725   2.676   6.595 -0.3440 -0.0645  0.1849
   77SLPC   H8R 6997   4.663   2.599   6.544  1.6773 -0.5906 -1.5986
   77SLPC   H8S 6998   4.826   2.630   6.595 -0.4168 -0.2265  0.4942
   77SLPC   C29 6999   4.733   2.802   6.516  0.3555 -0.1535  0.0479
   77SLPC   H9R 7000   4.710   2.889   6.580  1.3582 -0.0501  0.2892
   77SLPC  C210 7001   4.768   2.815   6.388  0.5297  0.1442  0.8563
   77SLPC  H10R 7002   4.786   2.918   6.353  2.3797 -0.8057 -1.2731
   77SLPC  C211 7003   4.809   2.704   6.291  0.1557  0.1553 -0.8353
   77SLPC  H11R 7004   4.718   2.683   6.231 -2.3849  1.5634  2.2937
   77SLPC  H11S 7005   4.837   2.616   6.352  0.8491  1.6347  1.0662
   77SLPC  C212 7006   4.930   2.734   6.203 -0.3454 -0.4931  0.3221
   77SLPC  H12R 7007   5.011   2.792   6.251  0.3189  0.2394 -1.6186
   77SLPC  C213 7008   4.944   2.698   6.076 -0.4680 -0.2242 -0.2624
   77SLPC  H13R 7009   5.021   2.742   6.011 -1.0771 -1.0168 -1.5571
   77SLPC  C214 7010   4.841   2.613   6.002 -0.4185 -0.0126 -0.0051
   77SLPC  H14R 7011   4.767   2.570   6.073  0.2427 -0.0288  0.6766
   77SLPC  H14S 7012   4.885   2.519   5.963 -0.3645  0.3343 -0.7986
   77SLPC  C215 7013   4.757   2.703   5.901  0.0477  0.5427  0.9185
   77SLPC  H15R 7014   4.681   2.772   5.945 -0.7071 -0.6921  1.6021
   77SLPC  H15S 7015   4.697   2.634   5.838  0.4494  0.8863  0.1429
   77SLPC  C216 7016   4.849   2.775   5.803  0.2608 -0.2819  0.1391
   77SLPC  H16R 7017   4.906   2.863   5.840 -0.3360  0.2348 -0.1583
   77SLPC  H16S 7018   4.776   2.824   5.735 -0.9153 -0.4363  1.2520
   77SLPC  C217 7019   4.942   2.673   5.725  0.4336  0.4294  0.2519
   77SLPC  H17R 7020   4.885   2.580   5.700  2.1826 -1.0432  1.4722
   77SLPC  H17S 7021   5.023   2.645   5.795 -1.0021 -0.5979  1.5947
   77SLPC  C218 7022   5.005   2.720   5.594  0.3061 -0.0252  0.3894
   77SLPC  H18R 7023   5.065   2.647   5.534 -1.4194 -1.8278  0.7629
   77SLPC  H18S 7024   5.066   2.810   5.618 -1.9951  2.8551 -3.3309
   77SLPC  H18T 7025   4.924   2.751   5.525 -1.1714  1.1700  2.5559
   77SLPC   C33 7026   4.586   1.961   6.745 -0.2107  0.4592  0.0001
   77SLPC   H3X 7027   4.697   1.963   6.739 -0.1500  0.2063  0.9535
   77SLPC   H3Y 7028   4.554   2.045   6.811 -1.1991  0.5410 -0.5616
   77SLPC   C34 7029   4.512   1.975   6.611  0.3413 -0.7535 -0.1760
   77SLPC   H4X 7030   4.405   1.963   6.637  0.1032  4.5079  2.5151
   77SLPC   H4Y 7031   4.528   1.889   6.542 -1.8560  0.3049 -2.1238
   77SLPC   C35 7032   4.536   2.104   6.541  0.3070  0.1073 -0.1407
   77SLPC   H5X 7033   4.526   2.186   6.615  1.1598  1.0214 -1.0087
   77SLPC   H5Y 7034   4.448   2.116   6.474 -0.1762 -1.5951  0.1400
   77SLPC   C36 7035   4.658   2.131   6.453 -0.5874  0.2840 -0.2967
   77SLPC   H6X 7036   4.648   2.055   6.373  0.2506  0.1562 -0.2865
   77SLPC   H6Y 7037   4.746   2.109   6.518 -0.7334 -1.1491 -0.5365
   77SLPC   C37 7038   4.658   2.263   6.391  0.2925  0.6484  0.0735
   77SLPC   H7X 7039   4.646   2.347   6.462 -2.3544  1.2643 -1.0066
   77SLPC   H7Y 7040   4.581   2.266   6.311 -2.7843  0.3554  2.8240
   77SLPC   C38 7041   4.787   2.301   6.317 -0.2981  0.0220  0.1873
   77SLPC   H8X 7042   4.860   2.308   6.401 -1.4112  2.1654  1.0476
   77SLPC   H8Y 7043   4.775   2.401   6.269 -1.2435 -0.7336 -1.2116
   77SLPC   C39 7044   4.852   2.198   6.219 -0.3888 -0.3485 -0.1619
   77SLPC   H9X 7045   4.877   2.104   6.272 -0.3471 -0.0353  0.3750
   77SLPC   H9Y 7046   4.949   2.239   6.182  0.2152  0.4504  2.1614
   77SLPC  C310 7047   4.763   2.166   6.101  0.2311 -0.3258 -0.0086
   77SLPC  H10X 7048   4.710   2.258   6.069  0.7280  0.5416  1.5850
   77SLPC  H10Y 7049   4.689   2.098   6.149  0.3744 -1.2167 -1.0097
   77SLPC  C311 7050   4.842   2.099   5.989  0.6187 -0.3295 -0.2100
   77SLPC  H11X 7051   4.775   2.043   5.921 -2.0758  2.4375 -0.0181
   77SLPC  H11Y 7052   4.907   2.028   6.045 -0.1751 -0.4546  0.5610
   77SLPC  C312 7053   4.931   2.199   5.911 -0.4360 -0.3391  0.7326
   77SLPC  H12X 7054   5.015   2.232   5.976 -1.0721 -0.8071  1.8240
   77SLPC  H12Y 7055   4.877   2.290   5.878  3.8580  2.0703 -0.3584
   77SLPC  C313 7056   4.995   2.137   5.786  0.5574 -0.1772 -0.1502
   77SLPC  H13X 7057   4.914   2.101   5.718  2.5130 -2.2441 -1.5100
   77SLPC  H13Y 7058   5.054   2.052   5.825 -0.5659 -0.3943  1.1621
   77SLPC  C314 7059   5.091   2.230   5.708 -0.1269 -0.2606 -0.1636
   77SLPC  H14X 7060   5.171   2.264   5.776 -0.4012 -1.4730  0.7900
   77SLPC  H14Y 7061   5.033   2.322   5.683  1.5882  0.2928 -2.4853
   77SLPC  C315 7062   5.139   2.174   5.575 -0.5317  0.4266 -0.2833
   77SLPC  H15X 7063   5.063   2.101   5.539  0.2171 -1.1217  1.0845
   77SLPC  H15Y 7064   5.230   2.112   5.591 -1.3291 -1.0443 -1.1732
   77SLPC  C316 7065   5.159   2.287   5.469  0.2474  0.6305  0.6467
   77SLPC  H16X 7066   5.230   2.361   5.515 -1.7320  1.0990  3.2012
   77SLPC  H16Y 7067   5.059   2.332   5.451  0.4282  0.6909 -0.2352
   77SLPC  C317 7068   5.236   2.239   5.341  0.5472 -1.1274  0.7840
   77SLPC  H17X 7069   5.214   2.133   5.316 -1.3616 -0.9000  1.3786
   77SLPC  H17Y 7070   5.345   2.248   5.361  0.9098 -2.6901 -0.3429
   77SLPC  C318 7071   5.210   2.325   5.212  0.9834  0.0747 -0.2060
   77SLPC  H18X 7072   5.285   2.298   5.134  0.7881 -0.2628 -0.2768
   77SLPC  H18Y 7073   5.222   2.434   5.234  0.8978 -0.3338  2.1712
   77SLPC  H18Z 7074   5.111   2.300   5.170 -0.1964  0.1737  2.3229
   78SLPC     N 7075   1.129   0.431   7.529 -0.0974 -0.0197 -0.3190
   78SLPC   C13 7076   1.178   0.347   7.648  0.0636  0.4683  0.8220
   78SLPC  H13A 7077   1.095   0.291   7.687 -1.4518  3.7039  2.6484
   78SLPC  H13B 7078   1.258   0.286   7.607 -0.4736  2.5624 -4.0840
   78SLPC  H13C 7079   1.208   0.409   7.731  0.4391  2.7150 -0.9052
   78SLPC   C14 7080   1.229   0.537   7.497  0.2821 -0.0970 -0.4806
   78SLPC  H14A 7081   1.204   0.591   7.407 -0.9382 -0.2400 -0.2430
   78SLPC  H14B 7082   1.231   0.605   7.580 -1.3875  0.2635 -0.6881
   78SLPC  H14C 7083   1.324   0.492   7.472 -0.8353 -1.9421 -1.7342
   78SLPC   C15 7084   0.998   0.483   7.582 -0.5465 -0.3309 -0.0380
   78SLPC  H15A 7085   0.947   0.547   7.510  0.0950 -0.3202 -0.4882
   78SLPC  H15B 7086   0.932   0.406   7.619 -0.5533 -0.5596 -0.5191
   78SLPC  H15C 7087   1.021   0.557   7.658  2.6363  2.2056 -3.1099
   78SLPC   C12 7088   1.118   0.343   7.410 -0.1250 -0.3757  0.3515
   78SLPC  H12A 7089   1.085   0.247   7.447  1.0622 -0.5361  1.0307
   78SLPC  H12B 7090   1.214   0.325   7.365 -0.4988 -0.4684 -0.4204
   78SLPC   C11 7091   1.026   0.370   7.287  0.6240 -1.1924  0.1307
   78SLPC  H11A 7092   1.046   0.299   7.203 -0.2597 -0.9962 -0.2603
   78SLPC  H11B 7093   1.048   0.474   7.256 -1.1656 -1.3617 -2.0655
   78SLPC     P 7094   0.813   0.242   7.351 -0.1685  0.1913  0.1060
   78SLPC   O13 7095   0.895   0.144   7.430  0.0102 -0.0082 -0.3413
   78SLPC   O14 7096   0.674   0.269   7.404 -0.1080 -0.3695 -0.0680
   78SLPC   O12 7097   0.889   0.382   7.322 -0.0962  0.0660  0.4544
   78SLPC   O11 7098   0.800   0.195   7.203 -0.1399 -0.0695 -0.3774
   78SLPC    C1 7099   0.694   0.240   7.117 -0.1265  0.0065 -0.7250
   78SLPC    HA 7100   0.644   0.331   7.156 -0.6267 -0.5412 -0.0801
   78SLPC    HB 7101   0.730   0.251   7.012 -1.0576  1.1065 -0.9547
   78SLPC    C2 7102   0.578   0.134   7.129  1.0635 -0.0309  0.0008
   78SLPC    HS 7103   0.555   0.131   7.238  1.3757 -2.6454  0.0652
   78SLPC   O21 7104   0.625   0.004   7.080 -0.0162 -0.0469 -0.4228
   78SLPC   C21 7105   0.583  -0.107   7.150 -0.1010 -0.2349  0.0978
   78SLPC   O22 7106   0.531  -0.100   7.256  0.7718 -0.5781 -0.3344
   78SLPC   C22 7107   0.618  -0.236   7.078  0.6656 -0.3399 -0.8705
   78SLPC   H2R 7108   0.728  -0.247   7.074  0.8684  1.2607 -0.4001
   78SLPC   H2S 7109   0.591  -0.315   7.152 -0.8394  0.3874 -0.5952
   78SLPC    C3 7110   0.439   0.169   7.072 -0.9295 -0.3335 -0.8437
   78SLPC    HX 7111   0.378   0.248   7.121 -1.0211  0.0299 -1.5316
   78SLPC    HY 7112   0.382   0.074   7.080  2.4442 -2.3925  0.9345
   78SLPC   O31 7113   0.451   0.194   6.933  0.5040 -0.1335  0.0512
   78SLPC   C31 7114   0.455   0.321   6.892 -0.2830  0.8693  0.1117
   78SLPC   O32 7115   0.436   0.421   6.958 -0.4193 -0.4752  0.2852
   78SLPC   C32 7116   0.503   0.314   6.747 -1.1109  0.1603 -0.2224
   78SLPC   H2X 7117   0.445   0.232   6.700  0.1514 -1.1006  0.3390
   78SLPC   H2Y 7118   0.608   0.278   6.735 -1.0069  0.8330 -1.5112
   78SLPC   C23 7119   0.542  -0.248   6.945 -0.5394  0.0445 -0.3857
   78SLPC   H3R 7120   0.434  -0.230   6.964 -0.2698 -0.3690  1.7749
   78SLPC   H3S 7121   0.554  -0.353   6.911 -0.1545  0.7042 -2.4370
   78SLPC   C24 7122   0.592  -0.154   6.836 -0.3171 -0.7219 -0.0080
   78SLPC   H4R 7123   0.702  -0.149   6.821 -0.3373 -2.4359 -0.9601
   78SLPC   H4S 7124   0.563  -0.047   6.846 -1.2857 -0.8608 -1.0227
   78SLPC   C25 7125   0.529  -0.189   6.705 -0.2307  0.1533 -0.3118
   78SLPC   H5R 7126   0.419  -0.196   6.719 -0.3771  1.2093 -0.8268
   78SLPC   H5S 7127   0.564  -0.287   6.666  1.5567  0.6967 -0.1451
   78SLPC   C26 7128   0.568  -0.094   6.590  0.1764  0.8908  0.1835
   78SLPC   H6R 7129   0.667  -0.132   6.555 -0.8762 -2.3488  0.3297
   78SLPC   H6S 7130   0.578   0.007   6.635  1.5991  0.3557  1.1430
   78SLPC   C27 7131   0.483  -0.105   6.466 -0.5139 -0.2627  0.2199
   78SLPC   H7R 7132   0.375  -0.083   6.483 -0.3444  0.9504 -0.1675
   78SLPC   H7S 7133   0.494  -0.206   6.424  3.5789 -0.6040  1.6806
   78SLPC   C28 7134   0.529   0.006   6.361 -0.0330  0.7266  0.0891
   78SLPC   H8R 7135   0.631  -0.016   6.324 -0.6214 -0.4076 -0.9291
   78SLPC   H8S 7136   0.538   0.103   6.414 -3.6971  0.8162  0.8384
   78SLPC   C29 7137   0.445   0.010   6.235 -0.3867  0.2539  0.0089
   78SLPC   H9R 7138   0.339  -0.014   6.253 -0.1807 -2.6342 -1.8909
   78SLPC  C210 7139   0.487   0.044   6.116  0.0246 -0.0056 -0.2338
   78SLPC  H10R 7140   0.403   0.035   6.045 -0.4899 -3.2785  0.6102
   78SLPC  C211 7141   0.622   0.089   6.071 -0.1516  0.4020  0.0782
   78SLPC  H11R 7142   0.689   0.097   6.160 -1.5487 -1.5862  1.4142
   78SLPC  H11S 7143   0.605   0.191   6.032  1.0625  0.7053  0.3103
   78SLPC  C212 7144   0.699   0.011   5.974  0.3834  0.1247 -0.4384
   78SLPC  H12R 7145   0.754  -0.070   6.025 -2.4841  0.2336  3.2027
   78SLPC  C213 7146   0.685   0.017   5.838 -0.6205  0.6618  0.4047
   78SLPC  H13R 7147   0.744  -0.040   5.765 -1.0249  0.9056 -0.1256
   78SLPC  C214 7148   0.584   0.113   5.771  0.3030 -0.3204  0.1726
   78SLPC  H14R 7149   0.488   0.106   5.826  0.0300 -3.3201 -0.5078
   78SLPC  H14S 7150   0.564   0.054   5.679 -2.0661  1.2191 -0.4051
   78SLPC  C215 7151   0.637   0.250   5.733 -0.5932  0.2981  1.0513
   78SLPC  H15R 7152   0.741   0.246   5.693 -0.1682 -3.5774  2.1590
   78SLPC  H15S 7153   0.655   0.311   5.824 -1.3332  0.3081  1.2013
   78SLPC  C216 7154   0.538   0.325   5.639 -0.0478 -0.2949 -0.1660
   78SLPC  H16R 7155   0.434   0.320   5.680  0.7639 -1.5587  1.9488
   78SLPC  H16S 7156   0.537   0.279   5.538  3.8852  1.4722 -1.1661
   78SLPC  C217 7157   0.575   0.471   5.591 -0.1974  0.1152 -0.1139
   78SLPC  H17R 7158   0.677   0.476   5.546  0.0554  4.0047  0.5633
   78SLPC  H17S 7159   0.581   0.533   5.683 -0.5705 -0.4370  0.2915
   78SLPC  C218 7160   0.472   0.536   5.501  0.0343 -0.1595  0.5822
   78SLPC  H18R 7161   0.509   0.626   5.448 -1.2538 -0.1543 -0.3855
   78SLPC  H18S 7162   0.389   0.578   5.562  1.1199 -0.3060  2.2086
   78SLPC  H18T 7163   0.426   0.470   5.423 -0.4831  0.4120  0.3932
   78SLPC   C33 7164   0.490   0.449   6.686  0.9216  0.5059 -0.4299
   78SLPC   H3X 7165   0.566   0.509   6.738  0.2278  0.7700  0.2927
   78SLPC   H3Y 7166   0.393   0.499   6.708  0.0473 -1.5462  0.6863
   78SLPC   C34 7167   0.505   0.442   6.534 -0.7093  0.6741 -0.5517
   78SLPC   H4X 7168   0.471   0.536   6.486 -4.1866 -1.6140 -3.0465
   78SLPC   H4Y 7169   0.439   0.366   6.487 -0.0542  0.0124 -0.4185
   78SLPC   C35 7170   0.645   0.393   6.502  0.1840 -0.2627  0.0609
   78SLPC   H5X 7171   0.662   0.283   6.497  2.0496  0.0392 -2.0170
   78SLPC   H5Y 7172   0.716   0.435   6.576 -1.0411  0.0610  1.0800
   78SLPC   C36 7173   0.691   0.439   6.356  0.4725 -0.3021  0.1744
   78SLPC   H6X 7174   0.661   0.544   6.334 -2.1600 -0.8938  0.5679
   78SLPC   H6Y 7175   0.627   0.384   6.284 -0.1618  0.0305  0.4694
   78SLPC   C37 7176   0.832   0.403   6.323 -0.4015 -0.3069 -0.2290
   78SLPC   H7X 7177   0.848   0.293   6.331 -0.6611 -0.4744 -1.7509
   78SLPC   H7Y 7178   0.898   0.450   6.399  0.1185 -2.2047  0.5478
   78SLPC   C38 7179   0.875   0.441   6.175  0.6909 -0.2883 -0.7170
   78SLPC   H8X 7180   0.865   0.551   6.163  0.8095  0.0963  1.9167
   78SLPC   H8Y 7181   0.808   0.393   6.101  1.3926 -0.7233 -1.0868
   78SLPC   C39 7182   1.010   0.387   6.129 -0.1505 -0.1060 -0.1283
   78SLPC   H9X 7183   1.035   0.281   6.151 -0.6166 -0.5190 -1.4843
   78SLPC   H9Y 7184   1.086   0.445   6.185  1.7005 -2.6580  0.1642
   78SLPC  C310 7185   1.047   0.421   5.980  0.0286 -0.0685 -0.5656
   78SLPC  H10X 7186   1.147   0.377   5.959 -0.9245 -1.2567 -2.9880
   78SLPC  H10Y 7187   1.056   0.531   5.983 -0.5272 -0.0492  1.1438
   78SLPC  C311 7188   0.943   0.379   5.874  0.0346 -0.2213 -0.8448
   78SLPC  H11X 7189   0.844   0.421   5.902  0.0958 -0.8726  0.4200
   78SLPC  H11Y 7190   0.940   0.268   5.867 -1.5272 -0.2101 -0.6941
   78SLPC  C312 7191   0.992   0.426   5.731  0.0412  0.1566 -0.0047
   78SLPC  H12X 7192   1.028   0.530   5.739 -1.0578  0.6117 -0.7737
   78SLPC  H12Y 7193   0.904   0.424   5.663  0.8182 -1.7131 -1.0385
   78SLPC  C313 7194   1.086   0.333   5.662 -0.1103 -0.1405 -0.0300
   78SLPC  H13X 7195   1.043   0.231   5.660  1.2747 -0.7619  0.4026
   78SLPC  H13Y 7196   1.169   0.311   5.733  1.0116  0.1587 -1.2043
   78SLPC  C314 7197   1.133   0.360   5.514 -0.6651  0.7052 -0.1205
   78SLPC  H14X 7198   1.159   0.261   5.473 -1.2727  0.9184 -1.0494
   78SLPC  H14Y 7199   1.224   0.425   5.505  0.4823 -0.7528  0.5461
   78SLPC  C315 7200   1.026   0.413   5.427  0.5195 -0.2950  1.0714
   78SLPC  H15X 7201   0.994   0.514   5.462  0.5268  0.0432  0.1344
   78SLPC  H15Y 7202   0.940   0.343   5.438  0.4724 -0.1478  1.6528
   78SLPC  C316 7203   1.063   0.411   5.277  0.3124 -0.1782 -0.3263
   78SLPC  H16X 7204   0.979   0.449   5.214 -0.5265  1.5814  1.7177
   78SLPC  H16Y 7205   1.094   0.312   5.238  0.8542  0.6266 -2.0570
   78SLPC  C317 7206   1.181   0.507   5.256  0.5994  0.0421  0.2876
   78SLPC  H17X 7207   1.275   0.455   5.282 -0.2239 -1.2666  0.7540
   78SLPC  H17Y 7208   1.176   0.596   5.322  2.0686  2.6861 -2.9259
   78SLPC  C318 7209   1.184   0.566   5.110  0.1027 -0.5077  0.2764
   78SLPC  H18X 7210   1.093   0.612   5.068  0.5186  0.2847  0.2311
   78SLPC  H18Y 7211   1.221   0.490   5.038  0.9532  2.4685 -2.6716
   78SLPC  H18Z 7212   1.256   0.651   5.111 -0.2717 -0.1772  1.8470
   79SLPC     N 7213   5.067   4.014   7.439 -0.6613  0.6447 -0.3695
   79SLPC   C13 7214   5.181   3.970   7.527  0.1100  0.0653  0.1624
   79SLPC  H13A 7215   5.166   3.874   7.574 -1.7768  1.2569  2.1819
   79SLPC  H13B 7216   5.274   3.967   7.472 -0.8733 -1.1922 -1.5284
   79SLPC  H13C 7217   5.187   4.040   7.609 -0.9893 -0.4154  0.6657
   79SLPC   C14 7218   5.063   3.932   7.315  0.2353  0.1443 -0.1381
   79SLPC  H14A 7219   5.151   3.930   7.254 -1.0206  0.7757 -2.0492
   79SLPC  H14B 7220   5.056   3.827   7.341  0.7719 -0.4881 -2.3282
   79SLPC  H14C 7221   4.973   3.952   7.258  0.3460 -1.3000 -0.8577
   79SLPC   C15 7222   5.091   4.156   7.388 -0.3697  0.7543 -0.4077
   79SLPC  H15A 7223   5.113   4.219   7.474 -0.4142  1.2736 -0.7731
   79SLPC  H15B 7224   5.182   4.163   7.330 -0.4939  0.8566 -0.5878
   79SLPC  H15C 7225   5.010   4.187   7.324 -2.9607  0.0959  2.3176
   79SLPC   C12 7226   4.932   4.013   7.509 -0.3234 -0.4626 -0.8525
   79SLPC  H12A 7227   4.867   4.064   7.440 -0.3059  2.0840  0.8762
   79SLPC  H12B 7228   4.939   4.076   7.597 -0.8006  1.6993 -2.2746
   79SLPC   C11 7229   4.871   3.874   7.550 -0.8457 -0.0265 -0.0236
   79SLPC  H11A 7230   4.846   3.829   7.451  2.4144 -2.1309 -0.0244
   79SLPC  H11B 7231   4.772   3.891   7.598 -0.9070  1.9903 -0.7996
   79SLPC     P 7232   4.982   3.650   7.590 -0.0784 -0.0062 -0.4551
   79SLPC   O13 7233   5.105   3.601   7.657  0.2976  0.0704  0.2569
   79SLPC   O14 7234   4.854   3.570   7.613  0.0542 -0.2018  0.1738
   79SLPC   O12 7235   4.957   3.802   7.633  0.2131  0.3032  0.3589
   79SLPC   O11 7236   5.012   3.648   7.433 -0.0204 -0.2761  0.2330
   79SLPC    C1 7237   4.993   3.527   7.364 -0.3035  0.2227  0.2257
   79SLPC    HA 7238   5.042   3.438   7.410 -0.0586  0.7451  0.9790
   79SLPC    HB 7239   4.885   3.499   7.355 -0.4590  0.7105  0.5527
   79SLPC    C2 7240   5.052   3.543   7.225  0.2128 -0.6904 -0.2663
   79SLPC    HS 7241   5.145   3.600   7.246 -0.7638 -0.4943  4.7630
   79SLPC   O21 7242   4.959   3.611   7.140 -0.2802  0.2415 -0.3360
   79SLPC   C21 7243   5.009   3.673   7.032  0.4475 -0.3358 -0.2057
   79SLPC   O22 7244   5.125   3.675   7.005 -0.0672  0.5804  0.3373
   79SLPC   C22 7245   4.903   3.749   6.957  0.9751  0.1608  0.4452
   79SLPC   H2R 7246   4.802   3.733   7.001  1.0392 -0.4005  0.3942
   79SLPC   H2S 7247   4.921   3.858   6.969 -0.5859  0.8548 -2.4960
   79SLPC    C3 7248   5.067   3.401   7.158  0.4604  0.8523  0.1685
   79SLPC    HX 7249   4.974   3.340   7.160  1.2187 -0.3704 -0.5587
   79SLPC    HY 7250   5.148   3.349   7.213  0.4836  0.2629 -0.4181
   79SLPC   O31 7251   5.100   3.410   7.016  0.4516 -0.2641 -0.0022
   79SLPC   C31 7252   5.221   3.365   6.980 -0.3985  0.3608  0.2088
   79SLPC   O32 7253   5.310   3.330   7.055  0.4710  0.2880 -0.1141
   79SLPC   C32 7254   5.227   3.368   6.820  0.4927 -0.5241  0.1473
   79SLPC   H2X 7255   5.259   3.474   6.804  2.0388 -0.8590  0.8723
   79SLPC   H2Y 7256   5.123   3.362   6.780 -0.1195  1.5323  1.2666
   79SLPC   C23 7257   4.911   3.716   6.803  0.0939 -0.8405 -0.4603
   79SLPC   H3R 7258   4.813   3.748   6.762  0.0254 -0.0217  0.3102
   79SLPC   H3S 7259   4.916   3.605   6.804  0.3407 -0.8326 -0.6360
   79SLPC   C24 7260   5.028   3.789   6.725 -0.4044  0.0844 -0.7178
   79SLPC   H4R 7261   5.124   3.750   6.766 -0.2599 -1.2410 -2.2394
   79SLPC   H4S 7262   5.020   3.898   6.744  2.3187  0.2289  0.0625
   79SLPC   C25 7263   5.022   3.775   6.573  0.4999  0.2789 -0.1567
   79SLPC   H5R 7264   4.944   3.845   6.537  1.9408  1.0967 -1.8279
   79SLPC   H5S 7265   4.989   3.670   6.561 -0.9602  0.6884  0.0320
   79SLPC   C26 7266   5.150   3.794   6.493  1.0346  0.6071 -0.3286
   79SLPC   H6R 7267   5.213   3.707   6.520 -2.8358 -2.8097 -1.1487
   79SLPC   H6S 7268   5.184   3.897   6.516  1.9514  0.3999 -0.7377
   79SLPC   C27 7269   5.108   3.779   6.350 -0.0453  0.8256 -0.7098
   79SLPC   H7R 7270   5.043   3.867   6.335  0.8192  1.5158 -0.5169
   79SLPC   H7S 7271   5.042   3.690   6.348  1.4862 -0.6602  3.2743
   79SLPC   C28 7272   5.223   3.765   6.251 -0.1786  0.2734 -0.5378
   79SLPC   H8R 7273   5.304   3.831   6.288  0.8259 -0.2459 -1.7387
   79SLPC   H8S 7274   5.183   3.811   6.157 -2.7073  0.0844  0.3763
   79SLPC   C29 7275   5.266   3.620   6.241  0.0313  0.1768  0.5710
   79SLPC   H9R 7276   5.333   3.586   6.321 -0.0184 -0.1999  0.4528
   79SLPC  C210 7277   5.238   3.542   6.136 -0.5683 -0.7107  0.2810
   79SLPC  H10R 7278   5.285   3.443   6.138 -0.7906 -0.8463  3.5213
   79SLPC  C211 7279   5.151   3.582   6.016 -0.4613 -0.2591 -0.4519
   79SLPC  H11R 7280   5.113   3.686   6.028  0.4048  0.1104 -0.8351
   79SLPC  H11S 7281   5.062   3.516   6.014 -0.5806 -0.5217  3.7185
   79SLPC  C212 7282   5.230   3.567   5.890 -0.5790 -0.0791  0.1321
   79SLPC  H12R 7283   5.339   3.561   5.904 -0.9265 -3.1753  2.2892
   79SLPC  C213 7284   5.181   3.540   5.766 -0.2121 -0.4368  0.1659
   79SLPC  H13R 7285   5.242   3.528   5.675 -4.5978 -1.0093 -3.0124
   79SLPC  C214 7286   5.037   3.541   5.729  0.2741 -0.1301 -0.8309
   79SLPC  H14R 7287   5.030   3.613   5.644  0.8445  0.4138 -0.4259
   79SLPC  H14S 7288   4.974   3.574   5.814  0.7150 -1.4282  0.0207
   79SLPC  C215 7289   4.997   3.400   5.698  0.1982  0.5368  0.1025
   79SLPC  H15R 7290   4.886   3.401   5.699  0.1740  1.4858 -1.2821
   79SLPC  H15S 7291   5.027   3.332   5.781 -1.7310 -0.3799  0.1237
   79SLPC  C216 7292   5.039   3.343   5.565  0.2160 -0.1895 -1.1353
   79SLPC  H16R 7293   5.150   3.336   5.560  0.3349  1.7010 -2.1660
   79SLPC  H16S 7294   5.009   3.410   5.482 -0.3924  1.7610  0.5765
   79SLPC  C217 7295   5.007   3.194   5.545  0.3164  0.1833  0.0208
   79SLPC  H17R 7296   5.033   3.136   5.636 -0.5627 -0.5826 -0.2015
   79SLPC  H17S 7297   5.061   3.158   5.455  1.5010 -1.3956  1.3200
   79SLPC  C218 7298   4.865   3.158   5.514  0.7618  0.8923 -0.2685
   79SLPC  H18R 7299   4.792   3.164   5.597  0.6433  0.3927 -0.3303
   79SLPC  H18S 7300   4.855   3.050   5.490  1.4155  0.6138  0.6463
   79SLPC  H18T 7301   4.824   3.197   5.419 -0.8754 -0.2518 -0.0834
   79SLPC   C33 7302   5.351   3.294   6.756 -0.4538  0.0571 -0.7622
   79SLPC   H3X 7303   5.340   3.188   6.785 -1.8697  0.1289 -0.9496
   79SLPC   H3Y 7304   5.445   3.327   6.806 -1.8481  1.9695  0.7665
   79SLPC   C34 7305   5.365   3.315   6.606  0.2912 -0.4215  0.1531
   79SLPC   H4X 7306   5.463   3.278   6.571  1.5798  2.1734  0.7944
   79SLPC   H4Y 7307   5.359   3.422   6.578  2.9751 -0.1045  0.5308
   79SLPC   C35 7308   5.256   3.241   6.528 -0.1612  0.1111 -0.4322
   79SLPC   H5X 7309   5.170   3.299   6.488 -0.2350 -1.6137 -3.0019
   79SLPC   H5Y 7310   5.226   3.157   6.593  0.8477 -0.1462 -0.2869
   79SLPC   C36 7311   5.323   3.180   6.402  1.0202 -0.0610 -0.0491
   79SLPC   H6X 7312   5.388   3.095   6.430  1.3599 -0.5709 -2.1980
   79SLPC   H6Y 7313   5.387   3.247   6.340  1.9066 -2.2921 -1.6884
   79SLPC   C37 7314   5.213   3.134   6.307 -0.2794  0.3499 -0.3671
   79SLPC   H7X 7315   5.139   3.215   6.293 -0.0071  0.7470  0.4059
   79SLPC   H7Y 7316   5.149   3.046   6.328  2.0245 -1.2366  0.4254
   79SLPC   C38 7317   5.278   3.108   6.170 -0.1668 -0.2190 -0.0714
   79SLPC   H8X 7318   5.357   3.032   6.186 -0.1143  0.0266  0.8576
   79SLPC   H8Y 7319   5.328   3.202   6.138  0.4845 -0.4749  0.1832
   79SLPC   C39 7320   5.175   3.056   6.068  0.6653 -0.6734 -0.0309
   79SLPC   H9X 7321   5.122   3.146   6.030  2.2289 -0.1268 -1.0104
   79SLPC   H9Y 7322   5.095   2.998   6.119 -0.5970  1.5273  0.6609
   79SLPC  C310 7323   5.247   2.984   5.955  0.0104 -0.4571  0.3812
   79SLPC  H10X 7324   5.168   2.938   5.891 -0.2698  0.3218  0.1572
   79SLPC  H10Y 7325   5.310   2.898   5.987 -0.6194 -0.8126  0.6687
   79SLPC  C311 7326   5.354   3.067   5.875 -0.2348 -0.0239  0.1062
   79SLPC  H11X 7327   5.410   3.116   5.958  0.0287 -0.0535 -0.0513
   79SLPC  H11Y 7328   5.305   3.146   5.814  1.0018 -0.4150 -1.4807
   79SLPC  C312 7329   5.459   2.990   5.789 -0.2388 -0.0230  0.1864
   79SLPC  H12X 7330   5.479   2.898   5.849 -1.7201  0.3675  1.3456
   79SLPC  H12Y 7331   5.559   3.035   5.774 -0.4402  0.2899 -0.2359
   79SLPC  C313 7332   5.409   2.956   5.644 -0.0539  0.0214 -0.4089
   79SLPC  H13X 7333   5.346   2.864   5.642  3.4656 -2.5995 -0.7289
   79SLPC  H13Y 7334   5.490   2.934   5.571 -0.3829 -0.0049 -0.7695
   79SLPC  C314 7335   5.329   3.068   5.568  0.0311  0.4536  0.0077
   79SLPC  H14X 7336   5.361   3.171   5.593  1.9971  0.1207 -0.9288
   79SLPC  H14Y 7337   5.226   3.043   5.602  0.8407 -1.1970  1.4340
   79SLPC  C315 7338   5.337   3.045   5.414 -0.5866 -0.9111  0.2261
   79SLPC  H15X 7339   5.442   3.056   5.379 -0.5153 -1.3479  0.3068
   79SLPC  H15Y 7340   5.282   3.129   5.365 -0.5054 -1.1920 -0.3553
   79SLPC  C316 7341   5.286   2.909   5.376  0.1451 -0.3549 -0.5057
   79SLPC  H16X 7342   5.180   2.917   5.410  0.5557 -0.0633  0.7066
   79SLPC  H16Y 7343   5.345   2.827   5.422  0.7955 -1.0153 -2.4219
   79SLPC  C317 7344   5.278   2.891   5.225 -0.4110  0.1868  0.1575
   79SLPC  H17X 7345   5.371   2.908   5.167 -0.0967 -3.8464 -0.8041
   79SLPC  H17Y 7346   5.207   2.966   5.185  0.3446  0.5040 -0.6341
   79SLPC  C318 7347   5.235   2.748   5.190 -1.1809  0.1151 -0.0345
   79SLPC  H18X 7348   5.267   2.710   5.090 -0.9050 -1.6009  0.6695
   79SLPC  H18Y 7349   5.129   2.719   5.203 -0.6647 -1.4053  1.0933
   79SLPC  H18Z 7350   5.294   2.673   5.247  1.9340  1.6695 -0.9403
   80SLPC     N 7351   4.211   0.008   8.126  0.1506  0.0409  0.2264
   80SLPC   C13 7352   4.269  -0.041   8.256  0.5746  0.3106  0.4665
   80SLPC  H13A 7353   4.376  -0.047   8.263  0.4567 -1.1203  1.4196
   80SLPC  H13B 7354   4.235   0.018   8.340 -0.4456 -0.7350  0.8136
   80SLPC  H13C 7355   4.243  -0.144   8.274 -0.7400  0.1752 -1.7607
   80SLPC   C14 7356   4.245   0.155   8.112 -0.1997 -0.0632  0.3514
   80SLPC  H14A 7357   4.352   0.166   8.117 -0.2006 -0.6251  2.3722
   80SLPC  H14B 7358   4.207   0.182   8.014  1.6521 -0.7529 -0.6014
   80SLPC  H14C 7359   4.198   0.215   8.188 -1.8630  0.7040 -1.2007
   80SLPC   C15 7360   4.064  -0.009   8.132  0.0061  0.1058 -0.4678
   80SLPC  H15A 7361   4.021   0.046   8.049 -1.9477  1.0482  1.1007
   80SLPC  H15B 7362   4.032  -0.112   8.133  0.7118 -0.1270 -0.8983
   80SLPC  H15C 7363   4.025   0.045   8.216 -1.4956 -0.4724 -0.7610
   80SLPC   C12 7364   4.270  -0.069   8.007 -0.4175 -0.1934  0.2100
   80SLPC  H12A 7365   4.271  -0.175   8.027 -0.7009  0.0582  1.7114
   80SLPC  H12B 7366   4.374  -0.039   8.001 -0.5452  0.1126 -0.6084
   80SLPC   C11 7367   4.218  -0.053   7.867 -0.9390 -0.0553  0.8324
   80SLPC  H11A 7368   4.113  -0.091   7.870 -0.8279 -1.0667 -2.9187
   80SLPC  H11B 7369   4.285  -0.115   7.803 -2.6774 -0.7466 -0.4126
   80SLPC     P 7370   4.327   0.153   7.736 -0.0425  0.2733 -0.5132
   80SLPC   O13 7371   4.295   0.294   7.713 -0.2615  0.6957  0.0189
   80SLPC   O14 7372   4.456   0.117   7.801  0.3693 -0.2347  0.1242
   80SLPC   O12 7373   4.211   0.085   7.823 -0.2485 -0.1352 -0.2095
   80SLPC   O11 7374   4.309   0.065   7.610 -0.3418 -0.0100 -0.0932
   80SLPC    C1 7375   4.207   0.065   7.514  0.6567 -0.2460 -0.1644
   80SLPC    HA 7376   4.187  -0.037   7.475 -1.5642 -0.4470  1.3016
   80SLPC    HB 7377   4.107   0.094   7.553  0.6514  2.9958 -2.2796
   80SLPC    C2 7378   4.236   0.163   7.405 -0.5479 -0.1103  0.2560
   80SLPC    HS 7379   4.219   0.261   7.453 -4.5381 -0.2103 -0.6399
   80SLPC   O21 7380   4.143   0.133   7.300  0.2507 -0.4487  0.2251
   80SLPC   C21 7381   4.072   0.228   7.252  0.2996 -0.3576 -0.5947
   80SLPC   O22 7382   4.070   0.343   7.291  0.1775  0.2910  0.1676
   80SLPC   C22 7383   3.984   0.175   7.140 -0.7265 -0.3786  0.6250
   80SLPC   H2R 7384   4.020   0.079   7.098 -0.9293 -0.1808 -0.0174
   80SLPC   H2S 7385   3.878   0.179   7.172 -0.5522 -0.7897  1.2507
   80SLPC    C3 7386   4.385   0.161   7.352 -0.0354 -0.5399 -0.0030
   80SLPC    HX 7387   4.413   0.064   7.307  0.0399 -0.0407 -1.0529
   80SLPC    HY 7388   4.456   0.180   7.436  1.9321 -1.6060 -1.3403
   80SLPC   O31 7389   4.398   0.262   7.255  0.2769 -0.1003 -0.1066
   80SLPC   C31 7390   4.452   0.375   7.299 -0.6693  0.5874 -0.3324
   80SLPC   O32 7391   4.503   0.394   7.408  1.0278  0.2360 -0.6132
   80SLPC   C32 7392   4.444   0.484   7.190  0.1324  0.3965 -0.5593
   80SLPC   H2X 7393   4.518   0.564   7.214 -0.9169  1.4437 -0.6915
   80SLPC   H2Y 7394   4.353   0.546   7.204 -1.5745 -1.8249 -1.3271
   80SLPC   C23 7395   3.983   0.264   7.012 -0.1932 -0.3051 -0.4060
   80SLPC   H3R 7396   4.083   0.260   6.964  0.5721  0.3394  1.0536
   80SLPC   H3S 7397   3.949   0.365   7.045 -1.9165 -1.5288  1.9000
   80SLPC   C24 7398   3.886   0.205   6.912 -0.3026  0.3851  0.5354
   80SLPC   H4R 7399   3.784   0.207   6.957  0.3536 -0.4273  2.1374
   80SLPC   H4S 7400   3.903   0.098   6.885 -0.0867  0.6230 -0.2809
   80SLPC   C25 7401   3.877   0.281   6.779  0.2352  0.1203 -0.3144
   80SLPC   H5R 7402   3.976   0.284   6.729  0.3357  2.0403 -0.0520
   80SLPC   H5S 7403   3.846   0.386   6.792 -1.0530 -0.6133  4.0566
   80SLPC   C26 7404   3.783   0.213   6.685 -0.1178  0.2976 -0.0905
   80SLPC   H6R 7405   3.689   0.192   6.741 -1.7728 -1.1586 -3.1661
   80SLPC   H6S 7406   3.814   0.108   6.663  0.5129  0.1091  1.5927
   80SLPC   C27 7407   3.757   0.305   6.562  0.2034 -0.1203 -0.7593
   80SLPC   H7R 7408   3.841   0.305   6.489  1.0963 -3.7554  0.0922
   80SLPC   H7S 7409   3.722   0.403   6.600 -1.2092 -1.3807  1.3844
   80SLPC   C28 7410   3.635   0.235   6.495  0.3489 -1.0984  0.1304
   80SLPC   H8R 7411   3.547   0.219   6.561  0.9793 -0.8329  1.0647
   80SLPC   H8S 7412   3.665   0.132   6.466  1.9548 -0.7265  0.3611
   80SLPC   C29 7413   3.595   0.320   6.373  0.3511  0.6301  0.0839
   80SLPC   H9R 7414   3.535   0.409   6.397  0.1965  0.7262 -0.6350
   80SLPC  C210 7415   3.596   0.286   6.243  0.7712  0.0379  0.4294
   80SLPC  H10R 7416   3.551   0.352   6.167 -1.0577 -1.1053  0.4545
   80SLPC  C211 7417   3.657   0.160   6.183 -0.0559 -0.1822  0.0208
   80SLPC  H11R 7418   3.722   0.113   6.261  1.4759  0.3750 -0.8880
   80SLPC  H11S 7419   3.722   0.186   6.097 -0.3360 -1.8910 -0.7657
   80SLPC  C212 7420   3.548   0.068   6.124 -1.1755  0.4298  0.5590
   80SLPC  H12R 7421   3.481   0.017   6.195 -0.5390 -1.4418 -0.1224
   80SLPC  C213 7422   3.528   0.030   5.998  0.0178  0.2045  0.1676
   80SLPC  H13R 7423   3.449  -0.046   5.985  0.6874 -0.5351  0.3440
   80SLPC  C214 7424   3.612   0.048   5.875 -0.2207 -0.5574 -0.3060
   80SLPC  H14R 7425   3.711   0.098   5.886 -1.1180  1.2490 -0.0341
   80SLPC  H14S 7426   3.551   0.094   5.795 -0.5632 -0.0954  0.2102
   80SLPC  C215 7427   3.649  -0.095   5.798  0.1801 -0.5806 -0.2894
   80SLPC  H15R 7428   3.571  -0.173   5.809 -1.6026  0.8757 -1.9197
   80SLPC  H15S 7429   3.741  -0.137   5.845 -1.0207 -2.4061  0.5144
   80SLPC  C216 7430   3.675  -0.077   5.645  0.4492  0.1262  0.3277
   80SLPC  H16R 7431   3.574  -0.067   5.601  0.3754 -1.8196 -0.0285
   80SLPC  H16S 7432   3.716  -0.175   5.612 -1.1954 -1.3331  2.3607
   80SLPC  C217 7433   3.762   0.038   5.596 -0.2176 -0.5158  0.6099
   80SLPC  H17R 7434   3.700   0.131   5.598 -0.7316 -0.7638 -1.3797
   80SLPC  H17S 7435   3.771   0.028   5.485 -0.3815 -0.0556  0.5500
   80SLPC  C218 7436   3.902   0.057   5.660  0.5406  0.1132 -0.2209
   80SLPC  H18R 7437   3.956   0.143   5.617  0.6693  0.8631  1.3794
   80SLPC  H18S 7438   3.967  -0.033   5.662 -1.5147 -1.4807 -1.0733
   80SLPC  H18T 7439   3.885   0.074   5.768 -1.4065 -1.0706 -0.2759
   80SLPC   C33 7440   4.475   0.439   7.046 -0.5586 -0.4838 -0.3036
   80SLPC   H3X 7441   4.563   0.371   7.044 -0.0953  0.1204 -1.2449
   80SLPC   H3Y 7442   4.502   0.529   6.987  0.2753 -1.8653 -2.1334
   80SLPC   C34 7443   4.355   0.366   6.987 -0.2829  0.3853 -0.2407
   80SLPC   H4X 7444   4.266   0.406   7.040 -1.2983 -3.0210  0.9165
   80SLPC   H4Y 7445   4.367   0.259   7.013  0.9855  0.8304  1.1904
   80SLPC   C35 7446   4.333   0.382   6.835 -0.8055  0.5213 -0.2825
   80SLPC   H5X 7447   4.296   0.285   6.798  0.5496  1.1569 -3.6357
   80SLPC   H5Y 7448   4.432   0.385   6.784  0.4639  1.1409  2.0652
   80SLPC   C36 7449   4.219   0.481   6.786  0.3184  0.1414  0.6349
   80SLPC   H6X 7450   4.233   0.582   6.831  2.3437 -0.3416  1.2149
   80SLPC   H6Y 7451   4.118   0.456   6.825  0.5107 -0.3618  0.8191
   80SLPC   C37 7452   4.211   0.499   6.634  0.0120 -0.3308  0.6500
   80SLPC   H7X 7453   4.134   0.575   6.609  0.7471  1.3615  3.1211
   80SLPC   H7Y 7454   4.186   0.402   6.585  1.6845  0.0327 -1.0606
   80SLPC   C38 7455   4.338   0.542   6.559  0.3784 -0.5020  0.5516
   80SLPC   H8X 7456   4.418   0.470   6.587  2.3306  0.7891 -1.4111
   80SLPC   H8Y 7457   4.374   0.640   6.599 -0.4995 -0.0898  0.3679
   80SLPC   C39 7458   4.317   0.542   6.403  0.9362 -1.0077  0.1397
   80SLPC   H9X 7459   4.217   0.590   6.393  0.8501 -0.7396  1.9314
   80SLPC   H9Y 7460   4.317   0.436   6.369  0.3577 -0.8019 -0.5332
   80SLPC  C310 7461   4.409   0.640   6.338 -0.0044  0.3909 -0.0013
   80SLPC  H10X 7462   4.516   0.611   6.352 -0.3446 -0.4974  0.8950
   80SLPC  H10Y 7463   4.387   0.741   6.379  0.2306  0.5502 -0.2634
   80SLPC  C311 7464   4.386   0.663   6.185 -0.0815  0.3447 -0.1689
   80SLPC  H11X 7465   4.277   0.662   6.162  0.0045 -0.5861 -0.5884
   80SLPC  H11Y 7466   4.437   0.581   6.130  1.3685  0.0735  1.4969
   80SLPC  C312 7467   4.442   0.793   6.131  0.0008  0.8494  0.5905
   80SLPC  H12X 7468   4.545   0.818   6.165 -0.4079  1.8242  1.1529
   80SLPC  H12Y 7469   4.373   0.876   6.158 -0.4721  0.8187 -0.4722
   80SLPC  C313 7470   4.438   0.787   5.975 -0.1146 -0.4482  0.7267
   80SLPC  H13X 7471   4.332   0.768   5.950  0.1955 -2.4227  0.7485
   80SLPC  H13Y 7472   4.492   0.700   5.933 -1.5620 -1.5495  1.0848
   80SLPC  C314 7473   4.488   0.915   5.910 -0.6313  0.1784  0.6470
   80SLPC  H14X 7474   4.597   0.930   5.927 -0.6469 -0.0605  0.9768
   80SLPC  H14Y 7475   4.440   0.999   5.965 -0.5507  0.6326  0.0276
   80SLPC  C315 7476   4.440   0.935   5.767  0.3123 -0.0560  0.1815
   80SLPC  H15X 7477   4.468   1.040   5.743  1.1104 -0.1212  0.8167
   80SLPC  H15Y 7478   4.329   0.930   5.761  0.2200  1.8294 -0.4966
   80SLPC  C316 7479   4.504   0.837   5.663  0.2517 -0.6811  0.5721
   80SLPC  H16X 7480   4.489   0.738   5.711 -1.2801 -0.2019  1.1369
   80SLPC  H16Y 7481   4.613   0.856   5.657 -0.1125  1.7208  0.5613
   80SLPC  C317 7482   4.438   0.823   5.530 -0.7501 -0.6147  0.6310
   80SLPC  H17X 7483   4.328   0.805   5.540 -0.6293 -1.6240  0.2354
   80SLPC  H17Y 7484   4.468   0.727   5.484 -1.1308 -0.3888 -0.1126
   80SLPC  C318 7485   4.474   0.943   5.440  0.3976 -0.4387  0.3268
   80SLPC  H18X 7486   4.582   0.970   5.443  0.0489  0.9498  1.1196
   80SLPC  H18Y 7487   4.415   1.036   5.456  2.2308  1.5868 -3.3831
   80SLPC  H18Z 7488   4.450   0.913   5.336 -3.3988 -0.8130  1.1654
   81SLPC     N 7489   6.841   1.550   3.416  0.4062  0.1511  0.2698
   81SLPC   C13 7490   6.736   1.590   3.511  0.8250 -0.3787 -0.4615
   81SLPC  H13A 7491   6.646   1.540   3.477  1.2045 -1.7975  0.5298
   81SLPC  H13B 7492   6.747   1.550   3.610 -0.6083 -3.9852 -1.5836
   81SLPC  H13C 7493   6.711   1.695   3.507  2.6297  0.0730 -0.9417
   81SLPC   C14 7494   6.837   1.630   3.293 -0.1569 -0.0374  0.2958
   81SLPC  H14A 7495   6.741   1.621   3.245  0.9366  1.2895 -2.3154
   81SLPC  H14B 7496   6.856   1.736   3.308  0.8466 -0.4166  1.9162
   81SLPC  H14C 7497   6.901   1.594   3.214 -0.1574  2.0483 -0.7207
   81SLPC   C15 7498   6.812   1.407   3.385 -0.3185  0.1528 -0.9435
   81SLPC  H15A 7499   6.880   1.373   3.308 -0.0661 -0.2664 -0.5423
   81SLPC  H15B 7500   6.816   1.349   3.476 -3.2768 -0.1003 -0.8846
   81SLPC  H15C 7501   6.715   1.399   3.340 -0.3580 -2.2472 -0.5375
   81SLPC   C12 7502   6.982   1.568   3.471 -0.2117  0.4041 -0.3252
   81SLPC  H12A 7503   6.994   1.671   3.500 -0.4264  0.1244  0.8038
   81SLPC  H12B 7504   7.056   1.546   3.396 -0.4787  1.8860 -1.0718
   81SLPC   C11 7505   7.008   1.469   3.591 -0.3194  0.1005 -0.3124
   81SLPC  H11A 7506   6.930   1.487   3.669 -0.2263  0.9947 -0.4103
   81SLPC  H11B 7507   7.092   1.514   3.648 -2.5357 -0.5682  3.9657
   81SLPC     P 7508   7.168   1.290   3.488 -0.4932 -0.0311  0.3558
   81SLPC   O13 7509   7.142   1.157   3.428  0.3393 -0.0780 -0.1757
   81SLPC   O14 7510   7.214   1.395   3.400 -0.4471 -0.1395  0.6006
   81SLPC   O12 7511   7.023   1.332   3.546 -0.2258  0.1427 -0.2508
   81SLPC   O11 7512   7.252   1.276   3.617  0.3094 -0.2070  0.4734
   81SLPC    C1 7513   7.193   1.219   3.736  0.7190 -0.2551 -0.3417
   81SLPC    HA 7514   7.085   1.193   3.739  0.3094  1.3112 -0.5185
   81SLPC    HB 7515   7.238   1.118   3.740 -0.2352 -0.6406  1.7733
   81SLPC    C2 7516   7.228   1.299   3.866  0.3759  0.1808  0.1326
   81SLPC    HS 7517   7.161   1.388   3.860  1.3849  1.0801  1.6036
   81SLPC   O21 7518   7.368   1.325   3.882  0.1911 -0.6428 -0.4793
   81SLPC   C21 7519   7.397   1.444   3.828  0.0123 -0.3090  0.0910
   81SLPC   O22 7520   7.320   1.522   3.772 -0.2964  0.4563 -0.3295
   81SLPC   C22 7521   7.547   1.468   3.831  0.5234  0.1589 -0.1918
   81SLPC   H2R 7522   7.594   1.403   3.907 -0.0463 -1.7522 -1.4048
   81SLPC   H2S 7523   7.590   1.442   3.732  3.7426 -1.0178  1.3878
   81SLPC    C3 7524   7.177   1.233   3.996 -0.3218 -0.0903 -0.1561
   81SLPC    HX 7525   7.202   1.298   4.083 -2.1949  2.0810 -1.1326
   81SLPC    HY 7526   7.230   1.141   4.027 -1.1622 -0.3650  0.4907
   81SLPC   O31 7527   7.037   1.194   3.991 -0.4322 -0.4764  0.1175
   81SLPC   C31 7528   6.957   1.284   4.029  0.4775 -0.0820 -0.1432
   81SLPC   O32 7529   6.982   1.402   4.060  0.1085  0.4823 -0.2345
   81SLPC   C32 7530   6.830   1.205   4.062  1.2081 -0.3132  0.0278
   81SLPC   H2X 7531   6.843   1.139   4.150  0.7400  1.1456  1.2438
   81SLPC   H2Y 7532   6.809   1.132   3.981  0.5271 -0.3776  0.2556
   81SLPC   C23 7533   7.580   1.620   3.841  0.9388  0.0988 -0.2102
   81SLPC   H3R 7534   7.543   1.653   3.741 -0.8132 -3.2489 -0.7969
   81SLPC   H3S 7535   7.689   1.635   3.829  0.7952  0.2100 -1.6044
   81SLPC   C24 7536   7.517   1.707   3.952  0.8920  0.1205 -0.2889
   81SLPC   H4R 7537   7.406   1.708   3.941  0.8215  1.4078  0.3020
   81SLPC   H4S 7538   7.563   1.808   3.944  1.0883 -0.0005 -0.7218
   81SLPC   C25 7539   7.544   1.666   4.099 -0.4102  0.2324 -0.8655
   81SLPC   H5R 7540   7.654   1.651   4.110 -0.3925  2.0719  2.7374
   81SLPC   H5S 7541   7.492   1.571   4.123  0.0024 -0.4116 -2.3581
   81SLPC   C26 7542   7.503   1.766   4.207 -0.7483 -0.3355 -0.3395
   81SLPC   H6R 7543   7.395   1.788   4.199 -1.0432 -0.0123  3.0739
   81SLPC   H6S 7544   7.559   1.860   4.186 -0.6805 -0.8669 -2.7591
   81SLPC   C27 7545   7.525   1.726   4.351  0.3661  0.4754  0.0991
   81SLPC   H7R 7546   7.620   1.669   4.344  0.5071  0.9025 -3.9041
   81SLPC   H7S 7547   7.450   1.653   4.387  0.6664 -0.4551 -1.0980
   81SLPC   C28 7548   7.535   1.844   4.449  0.4206  0.4074  0.0459
   81SLPC   H8R 7549   7.437   1.896   4.452 -0.0939 -0.4486 -1.0480
   81SLPC   H8S 7550   7.616   1.909   4.410  0.4700  0.3579  0.0652
   81SLPC   C29 7551   7.566   1.804   4.593 -0.5997 -0.3174 -0.0885
   81SLPC   H9R 7552   7.674   1.804   4.616 -0.9013 -2.0170  1.6128
   81SLPC  C210 7553   7.478   1.774   4.691 -0.4990  0.4413 -1.0319
   81SLPC  H10R 7554   7.517   1.753   4.792 -0.1165  1.2663 -0.9992
   81SLPC  C211 7555   7.322   1.776   4.667 -0.6080 -0.0569  0.1748
   81SLPC  H11R 7556   7.282   1.680   4.705  2.0439 -1.5498 -0.5290
   81SLPC  H11S 7557   7.295   1.780   4.559  1.9894  0.2416 -0.5374
   81SLPC  C212 7558   7.253   1.884   4.750  0.0636  0.0028 -0.2153
   81SLPC  H12R 7559   7.219   1.965   4.685  1.1544  0.7952  0.1806
   81SLPC  C213 7560   7.220   1.888   4.883 -0.1727 -0.0940 -0.2693
   81SLPC  H13R 7561   7.167   1.979   4.914 -1.2843 -0.5591 -0.7720
   81SLPC  C214 7562   7.246   1.780   4.980  0.4448  0.4404  0.6748
   81SLPC  H14R 7563   7.298   1.697   4.927  1.3835  1.7055 -0.4747
   81SLPC  H14S 7564   7.148   1.744   5.018  0.0075  0.7421 -0.1515
   81SLPC  C215 7565   7.335   1.835   5.095 -0.5422  0.2620  0.3847
   81SLPC  H15R 7566   7.327   1.758   5.175 -2.5044  0.1965  0.1801
   81SLPC  H15S 7567   7.292   1.930   5.133  1.0994  1.7486 -1.2808
   81SLPC  C216 7568   7.476   1.868   5.048  0.2864 -0.1756 -0.0486
   81SLPC  H16R 7569   7.482   1.933   4.958  1.8003  0.5944  0.5602
   81SLPC  H16S 7570   7.512   1.772   5.006 -1.2486  0.2088 -2.4222
   81SLPC  C217 7571   7.570   1.915   5.155  0.3121 -0.1755  0.7001
   81SLPC  H17R 7572   7.575   1.833   5.229 -0.9501 -0.4536  0.4875
   81SLPC  H17S 7573   7.527   1.990   5.225 -0.4657 -1.2035  1.3471
   81SLPC  C218 7574   7.709   1.948   5.097 -0.1295  0.0925  0.1985
   81SLPC  H18R 7575   7.772   1.985   5.181 -1.0981  0.4233  0.7995
   81SLPC  H18S 7576   7.697   2.035   5.030 -2.8179 -2.1459 -2.5182
   81SLPC  H18T 7577   7.751   1.858   5.048  1.1043  0.9020 -0.2605
   81SLPC   C33 7578   6.701   1.293   4.059  0.1073 -0.1800 -0.1040
   81SLPC   H3X 7579   6.609   1.233   4.044 -0.3595  0.5487 -0.2033
   81SLPC   H3Y 7580   6.697   1.358   3.969  1.8775  1.6877  1.0783
   81SLPC   C34 7581   6.675   1.366   4.195  0.5084 -0.4680  0.7229
   81SLPC   H4X 7582   6.574   1.412   4.189  0.1397 -1.2238  1.0105
   81SLPC   H4Y 7583   6.744   1.453   4.197  1.7183 -1.3158 -1.1042
   81SLPC   C35 7584   6.680   1.286   4.322  0.4896 -0.4722  0.2828
   81SLPC   H5X 7585   6.780   1.246   4.347  0.5455  0.1054  1.0306
   81SLPC   H5Y 7586   6.612   1.198   4.324 -0.7355  0.2892 -2.4433
   81SLPC   C36 7587   6.640   1.372   4.442 -0.6680  0.0504  0.2638
   81SLPC   H6X 7588   6.549   1.430   4.415 -1.7417 -1.3897  0.6854
   81SLPC   H6Y 7589   6.716   1.452   4.449 -0.0467 -0.1678 -2.6679
   81SLPC   C37 7590   6.612   1.290   4.559  0.3171  0.6913 -0.0016
   81SLPC   H7X 7591   6.689   1.224   4.603 -1.9797 -2.7180 -0.6901
   81SLPC   H7Y 7592   6.529   1.224   4.526  0.1439  1.2942 -0.8040
   81SLPC   C38 7593   6.569   1.369   4.677 -0.3526 -0.0967  0.0086
   81SLPC   H8X 7594   6.470   1.413   4.655  0.0629  0.0297 -1.8146
   81SLPC   H8Y 7595   6.642   1.451   4.695 -2.5050  1.5503  1.7271
   81SLPC   C39 7596   6.576   1.273   4.801  0.1216 -0.2182  0.3971
   81SLPC   H9X 7597   6.681   1.254   4.829  0.0776 -2.4814 -0.7816
   81SLPC   H9Y 7598   6.539   1.173   4.770  2.0780 -1.2818  1.3458
   81SLPC  C310 7599   6.502   1.331   4.925  0.2731  0.4718  0.5349
   81SLPC  H10X 7600   6.393   1.327   4.904  0.3745 -1.8767  0.2040
   81SLPC  H10Y 7601   6.526   1.434   4.959  0.4811  0.3679  0.7092
   81SLPC  C311 7602   6.515   1.238   5.049  0.2985  0.1784  0.0328
   81SLPC  H11X 7603   6.612   1.239   5.103  0.1278 -1.4174  0.4152
   81SLPC  H11Y 7604   6.494   1.133   5.020  0.7670 -0.2439  1.1689
   81SLPC  C312 7605   6.413   1.275   5.162 -0.6606 -0.0339 -0.4828
   81SLPC  H12X 7606   6.392   1.201   5.243 -0.9047  1.5981  1.0001
   81SLPC  H12Y 7607   6.319   1.311   5.114  1.5141 -0.2271 -5.5055
   81SLPC  C313 7608   6.475   1.383   5.245 -0.0778 -0.5097  0.3375
   81SLPC  H13X 7609   6.534   1.454   5.183  0.3557  0.2907  1.6346
   81SLPC  H13Y 7610   6.552   1.340   5.312  0.0849 -0.9291 -0.1119
   81SLPC  C314 7611   6.359   1.465   5.315 -0.9705 -0.2703  0.0356
   81SLPC  H14X 7612   6.329   1.410   5.407 -1.1763  1.1324  0.8352
   81SLPC  H14Y 7613   6.275   1.455   5.244 -0.6100 -0.3900 -0.3740
   81SLPC  C315 7614   6.397   1.606   5.347 -0.7204 -0.1552 -0.8249
   81SLPC  H15X 7615   6.424   1.664   5.256 -1.0148  0.0414 -0.7897
   81SLPC  H15Y 7616   6.493   1.619   5.401 -0.9955  0.0965 -0.3905
   81SLPC  C316 7617   6.296   1.675   5.437  0.1578  0.0059 -0.3530
   81SLPC  H16X 7618   6.344   1.773   5.456 -2.2087  1.5006 -1.5244
   81SLPC  H16Y 7619   6.270   1.626   5.533  1.1375  2.4023  1.2395
   81SLPC  C317 7620   6.175   1.708   5.354 -0.3702 -0.6068  0.0751
   81SLPC  H17X 7621   6.132   1.610   5.323 -0.3106 -0.5181 -0.2860
   81SLPC  H17Y 7622   6.205   1.761   5.261 -2.0403  0.3249  0.0309
   81SLPC  C318 7623   6.060   1.780   5.422  0.2391  0.4969 -0.7298
   81SLPC  H18X 7624   6.084   1.885   5.448  3.5071 -0.6012  1.2648
   81SLPC  H18Y 7625   6.021   1.728   5.513  0.5864  0.2560 -0.7173
   81SLPC  H18Z 7626   5.976   1.793   5.350 -0.0851  0.2117 -0.4060
   82SLPC     N 7627   5.293   0.569   2.838 -0.4735  0.0203 -0.7144
   82SLPC   C13 7628   5.309   0.562   2.693  0.3817 -0.4858  0.7754
   82SLPC  H13A 7629   5.294   0.462   2.655 -1.2676  0.0483 -0.1205
   82SLPC  H13B 7630   5.248   0.634   2.640  0.1042 -0.3365  1.2862
   82SLPC  H13C 7631   5.407   0.584   2.654 -0.9575  0.8189 -2.1689
   82SLPC   C14 7632   5.394   0.470   2.889 -0.2323 -0.0260  0.7690
   82SLPC  H14A 7633   5.376   0.369   2.855 -2.1161  0.6364 -0.3344
   82SLPC  H14B 7634   5.497   0.485   2.860 -0.2626 -0.0583  0.6428
   82SLPC  H14C 7635   5.388   0.467   2.997 -3.4681 -0.4577  0.6771
   82SLPC   C15 7636   5.161   0.522   2.887  0.0573 -0.3207  0.3208
   82SLPC  H15A 7637   5.143   0.559   2.987  0.0624  0.8968 -0.1105
   82SLPC  H15B 7638   5.071   0.545   2.833  0.2014 -0.2216  0.1234
   82SLPC  H15C 7639   5.158   0.415   2.901 -2.7639 -0.1399  1.6754
   82SLPC   C12 7640   5.327   0.709   2.876  0.5471  0.0369  0.2578
   82SLPC  H12A 7641   5.256   0.775   2.830  0.1714 -1.1049 -0.8488
   82SLPC  H12B 7642   5.422   0.732   2.829  1.2036 -0.3393  1.3638
   82SLPC   C11 7643   5.338   0.751   3.016 -0.3158 -0.0754 -0.5867
   82SLPC  H11A 7644   5.257   0.707   3.079  1.3961 -2.6145  0.0154
   82SLPC  H11B 7645   5.326   0.861   3.023  1.4860  0.0559  3.1807
   82SLPC     P 7646   5.576   0.811   3.089 -0.1612 -0.7991 -0.3802
   82SLPC   O13 7647   5.703   0.743   3.111 -0.2187 -0.1572 -0.0179
   82SLPC   O14 7648   5.562   0.902   2.975  0.0650 -0.2456  0.4107
   82SLPC   O12 7649   5.461   0.705   3.077  0.3059  0.6745  0.5514
   82SLPC   O11 7650   5.541   0.887   3.224 -0.3815  0.3061  0.2138
   82SLPC    C1 7651   5.524   0.820   3.347 -0.5641 -0.2481  0.0868
   82SLPC    HA 7652   5.460   0.729   3.339 -1.5217  0.2677  1.5230
   82SLPC    HB 7653   5.620   0.796   3.397 -0.0280  0.3608 -0.6309
   82SLPC    C2 7654   5.452   0.923   3.433  0.5657 -0.5998 -0.1844
   82SLPC    HS 7655   5.496   1.020   3.402 -0.7034 -0.4895 -1.7925
   82SLPC   O21 7656   5.452   0.904   3.578 -0.4929  0.0736 -0.3400
   82SLPC   C21 7657   5.568   0.918   3.637  0.8933  0.2650 -0.6357
   82SLPC   O22 7658   5.673   0.949   3.591 -0.3467 -0.6391 -0.4294
   82SLPC   C22 7659   5.548   0.896   3.788 -0.3619  0.2200  0.0345
   82SLPC   H2R 7660   5.478   0.970   3.832  0.1610  0.2070  0.8962
   82SLPC   H2S 7661   5.517   0.791   3.805  0.7932 -0.2650 -0.7101
   82SLPC    C3 7662   5.300   0.933   3.383 -0.0828  0.0551  0.4643
   82SLPC    HX 7663   5.257   0.832   3.399  2.6632 -1.1280  0.9763
   82SLPC    HY 7664   5.299   0.941   3.272  2.0344 -1.2172  0.3077
   82SLPC   O31 7665   5.218   1.031   3.445  0.2307 -0.5343  0.0348
   82SLPC   C31 7666   5.152   0.986   3.562  0.0147  0.7789  0.2477
   82SLPC   O32 7667   5.181   0.885   3.621 -0.2436  0.7617 -0.4157
   82SLPC   C32 7668   5.036   1.079   3.602 -0.8398  0.7513  0.3601
   82SLPC   H2X 7669   4.953   1.063   3.530 -0.3018 -1.4739  0.1591
   82SLPC   H2Y 7670   5.070   1.183   3.587 -0.2494  0.6643  1.0181
   82SLPC   C23 7671   5.688   0.909   3.855  0.0615  0.0618  0.0830
   82SLPC   H3R 7672   5.759   0.835   3.814  0.5544 -0.5025  1.8984
   82SLPC   H3S 7673   5.682   0.866   3.957  0.7938 -1.8059 -0.6224
   82SLPC   C24 7674   5.743   1.049   3.875 -0.1359  0.8633  0.2773
   82SLPC   H4R 7675   5.767   1.084   3.772  0.1591 -1.5835 -0.5564
   82SLPC   H4S 7676   5.841   1.045   3.928 -0.8824  0.1629  1.6443
   82SLPC   C25 7677   5.649   1.151   3.952  0.0086 -0.5652  0.5703
   82SLPC   H5R 7678   5.565   1.182   3.886 -1.6997  0.0106  2.8948
   82SLPC   H5S 7679   5.712   1.242   3.961  1.8542 -1.9625  2.5852
   82SLPC   C26 7680   5.589   1.117   4.088  0.2247 -0.5111 -0.1030
   82SLPC   H6R 7681   5.522   1.028   4.096  2.1010 -1.9236  0.8199
   82SLPC   H6S 7682   5.520   1.192   4.132  0.0292 -1.4876  1.3347
   82SLPC   C27 7683   5.695   1.102   4.189  0.0430  0.1482 -0.1639
   82SLPC   H7R 7684   5.769   1.184   4.201  1.1767 -0.4742 -2.4958
   82SLPC   H7S 7685   5.749   1.014   4.150  2.3634  0.8958  1.1876
   82SLPC   C28 7686   5.631   1.054   4.324  0.8417 -0.4211 -1.4193
   82SLPC   H8R 7687   5.711   1.017   4.391 -0.2293 -1.0735 -0.4722
   82SLPC   H8S 7688   5.565   0.967   4.306 -0.0549 -0.2771  0.8147
   82SLPC   C29 7689   5.553   1.166   4.388 -0.2080 -0.4634  0.4404
   82SLPC   H9R 7690   5.459   1.195   4.338 -0.0620 -0.8957 -0.1031
   82SLPC  C210 7691   5.574   1.236   4.504 -0.1145  0.1231 -0.3219
   82SLPC  H10R 7692   5.499   1.312   4.531  0.2544  0.6646 -0.7983
   82SLPC  C211 7693   5.695   1.216   4.598 -0.3022  0.1941 -0.4690
   82SLPC  H11R 7694   5.773   1.287   4.565  0.8254 -1.0557 -0.5600
   82SLPC  H11S 7695   5.742   1.118   4.573 -1.4728  0.0562 -2.3212
   82SLPC  C212 7696   5.671   1.220   4.746  0.1315 -0.2519  0.3277
   82SLPC  H12R 7697   5.709   1.315   4.786  0.3822  0.1234 -0.7607
   82SLPC  C213 7698   5.621   1.127   4.830 -0.0425  0.7146  0.8389
   82SLPC  H13R 7699   5.606   1.152   4.936 -0.8524  1.8217  0.4964
   82SLPC  C214 7700   5.582   0.992   4.780 -0.0646  0.0423 -1.1556
   82SLPC  H14R 7701   5.672   0.949   4.731  0.2260 -0.7643  0.0094
   82SLPC  H14S 7702   5.507   0.989   4.699 -1.3845 -1.6736  0.0468
   82SLPC  C215 7703   5.542   0.898   4.893 -0.0920 -0.3123 -0.2501
   82SLPC  H15R 7704   5.498   0.808   4.846 -1.3867  0.3185 -0.2931
   82SLPC  H15S 7705   5.462   0.951   4.949  1.8288  1.4784  0.9347
   82SLPC  C216 7706   5.657   0.874   4.991 -0.2474 -0.0959 -0.2221
   82SLPC  H16R 7707   5.708   0.968   5.022  3.7327 -2.0412 -0.2231
   82SLPC  H16S 7708   5.732   0.813   4.937  0.5351 -0.5267  1.2791
   82SLPC  C217 7709   5.620   0.798   5.120  0.9133  0.3749 -0.3312
   82SLPC  H17R 7710   5.614   0.691   5.091 -1.4732  0.6113 -0.9111
   82SLPC  H17S 7711   5.520   0.822   5.162  1.3877  0.9898  0.4761
   82SLPC  C218 7712   5.727   0.811   5.226  0.4267 -0.4259  0.5496
   82SLPC  H18R 7713   5.717   0.908   5.279  0.7097  2.2671 -3.8567
   82SLPC  H18S 7714   5.830   0.802   5.184  0.4093 -2.7743  0.8808
   82SLPC  H18T 7715   5.721   0.722   5.291  0.4835 -2.0149 -1.5044
   82SLPC   C33 7716   4.979   1.055   3.744 -0.4284  0.0801 -0.9857
   82SLPC   H3X 7717   4.932   0.955   3.750  1.7765 -0.9229  1.7731
   82SLPC   H3Y 7718   4.896   1.128   3.753 -2.5399 -2.0402 -2.0974
   82SLPC   C34 7719   5.074   1.090   3.856 -0.6670 -0.1989  0.4577
   82SLPC   H4X 7720   5.101   1.198   3.858  1.1994 -0.5427 -1.5644
   82SLPC   H4Y 7721   5.173   1.042   3.838 -0.6931  0.0376 -0.3534
   82SLPC   C35 7722   5.010   1.041   3.986 -0.1650  0.1935 -0.3679
   82SLPC   H5X 7723   4.982   0.934   3.979  0.0956  0.1682 -1.1182
   82SLPC   H5Y 7724   4.913   1.090   4.006  0.4700  1.0500  0.7496
   82SLPC   C36 7725   5.099   1.067   4.112  0.5714 -0.8481  0.2255
   82SLPC   H6X 7726   5.138   1.171   4.109  1.2007 -1.0901  0.0960
   82SLPC   H6Y 7727   5.191   1.007   4.099  1.2301  0.2135 -0.1033
   82SLPC   C37 7728   5.031   1.027   4.246  0.3137 -0.2877  0.0404
   82SLPC   H7X 7729   5.019   0.917   4.238  0.5477 -0.3080 -0.0276
   82SLPC   H7Y 7730   4.934   1.079   4.263  0.4689 -0.6096  2.1844
   82SLPC   C38 7731   5.104   1.071   4.365 -0.8687  0.3564  0.2373
   82SLPC   H8X 7732   5.086   1.180   4.369 -3.4521  0.0270 -0.6247
   82SLPC   H8Y 7733   5.212   1.048   4.357 -0.3614  1.4607  2.9082
   82SLPC   C39 7734   5.038   1.015   4.500 -0.2831 -0.7451  0.0187
   82SLPC   H9X 7735   5.055   0.907   4.521 -1.1366 -1.9353 -4.2885
   82SLPC   H9Y 7736   4.928   1.026   4.487  0.0140  2.2377 -0.6331
   82SLPC  C310 7737   5.083   1.083   4.626 -0.3192 -0.3146  0.6337
   82SLPC  H10X 7738   5.043   1.186   4.612 -0.8698 -0.1451  2.9686
   82SLPC  H10Y 7739   5.193   1.092   4.632 -0.3029  2.6600 -1.6602
   82SLPC  C311 7740   5.033   1.017   4.757  0.5886  0.0711 -0.1679
   82SLPC  H11X 7741   5.086   0.921   4.777 -3.3270 -1.9419  1.6955
   82SLPC  H11Y 7742   4.924   0.996   4.750  0.5994 -0.0098 -0.1052
   82SLPC  C312 7743   5.056   1.099   4.883 -0.5653 -0.2945  0.2288
   82SLPC  H12X 7744   4.990   1.188   4.886 -1.6632 -1.1129  1.2559
   82SLPC  H12Y 7745   5.161   1.137   4.876 -1.6955  3.3646  0.8752
   82SLPC  C313 7746   5.035   1.021   5.010  0.1730  0.4839 -0.0600
   82SLPC  H13X 7747   4.932   0.980   5.000  0.6389 -0.2810 -2.4875
   82SLPC  H13Y 7748   5.039   1.092   5.095  2.1654  0.8330 -0.4010
   82SLPC  C314 7749   5.145   0.918   5.035  0.2171 -0.1586 -0.1156
   82SLPC  H14X 7750   5.231   0.989   5.032  0.3843 -0.3224  0.5415
   82SLPC  H14Y 7751   5.153   0.839   4.957 -0.5466  0.1162 -0.4763
   82SLPC  C315 7752   5.140   0.849   5.175 -0.0814  0.0711  0.2235
   82SLPC  H15X 7753   5.126   0.937   5.241  1.3191  0.7995 -0.4157
   82SLPC  H15Y 7754   5.233   0.791   5.192 -1.1060 -1.7077  0.1086
   82SLPC  C316 7755   5.022   0.750   5.184 -0.5282  0.3827 -0.2498
   82SLPC  H16X 7756   5.003   0.692   5.091 -2.1200 -0.5951  0.6372
   82SLPC  H16Y 7757   4.926   0.805   5.193 -0.1309  0.9071  1.0495
   82SLPC  C317 7758   5.023   0.646   5.308  0.5076 -0.2064  0.1885
   82SLPC  H17X 7759   5.117   0.586   5.299  0.8208  0.2546  0.3368
   82SLPC  H17Y 7760   4.930   0.589   5.290 -0.2528  1.5180 -1.7934
   82SLPC  C318 7761   5.046   0.721   5.440  0.9839 -0.5036 -0.1169
   82SLPC  H18X 7762   4.978   0.808   5.439  0.3622 -0.9850 -0.1339
   82SLPC  H18Y 7763   5.150   0.756   5.459  0.9711 -0.0238 -0.8893
   82SLPC  H18Z 7764   5.020   0.657   5.527 -1.0471 -0.3622 -0.5823
   83SLPC     N 7765   1.865   2.082   2.957 -0.1830  0.2589  0.0789
   83SLPC   C13 7766   2.005   2.087   2.915  0.0638 -0.0925 -0.1925
   83SLPC  H13A 7767   2.041   1.985   2.905  1.8637  0.3364  1.2633
   83SLPC  H13B 7768   2.022   2.122   2.814  2.4539 -1.2444 -0.2561
   83SLPC  H13C 7769   2.074   2.128   2.987  1.8789 -1.6801 -0.9289
   83SLPC   C14 7770   1.780   2.034   2.842  0.0881 -0.2139 -0.5077
   83SLPC  H14A 7771   1.680   2.007   2.874 -0.6708  2.0390 -0.7574
   83SLPC  H14B 7772   1.775   2.100   2.756 -1.0494  1.4129  0.7423
   83SLPC  H14C 7773   1.818   1.941   2.804 -0.6151 -0.5030 -0.5254
   83SLPC   C15 7774   1.820   2.224   2.981  0.0001  0.9349 -0.0013
   83SLPC  H15A 7775   1.837   2.292   2.899  0.9257  0.1969 -0.4419
   83SLPC  H15B 7776   1.714   2.225   3.000 -0.0957  0.6182 -0.4872
   83SLPC  H15C 7777   1.868   2.267   3.068  0.2385  2.5956 -0.9058
   83SLPC   C12 7778   1.859   2.001   3.082  0.2073  0.9193 -0.2203
   83SLPC  H12A 7779   1.760   2.014   3.123 -1.0473 -1.1941 -2.3332
   83SLPC  H12B 7780   1.940   2.035   3.145  0.8270  0.0588 -0.5269
   83SLPC   C11 7781   1.875   1.842   3.067  0.0144 -0.1032  0.3370
   83SLPC  H11A 7782   1.803   1.805   2.990  2.3240 -1.6028 -1.2649
   83SLPC  H11B 7783   1.850   1.786   3.159 -2.1754 -2.7459 -1.7075
   83SLPC     P 7784   2.136   1.803   3.114  0.8272 -0.0953 -0.0812
   83SLPC   O13 7785   2.196   1.666   3.111  0.4863  0.4061  1.2011
   83SLPC   O14 7786   2.215   1.905   3.046  0.1301 -0.0755  0.1494
   83SLPC   O12 7787   2.005   1.811   3.020 -0.2082  0.1087 -0.3691
   83SLPC   O11 7788   2.095   1.847   3.260 -0.1588  0.2415  0.6691
   83SLPC    C1 7789   2.175   1.865   3.371 -0.3683  0.5161  0.5093
   83SLPC    HA 7790   2.285   1.856   3.355  0.4539  1.1362  4.7091
   83SLPC    HB 7791   2.160   1.971   3.399 -0.0806  0.6496  0.1703
   83SLPC    C2 7792   2.129   1.780   3.491  0.2463  0.6720  0.7324
   83SLPC    HS 7793   2.208   1.799   3.567  0.4831  2.6618  0.0644
   83SLPC   O21 7794   2.117   1.644   3.447  0.4713 -0.2030  0.6235
   83SLPC   C21 7795   2.236   1.581   3.444  0.3129 -0.4831 -0.4474
   83SLPC   O22 7796   2.346   1.627   3.473  0.3736  0.4093 -0.2474
   83SLPC   C22 7797   2.216   1.437   3.389 -0.0840  0.0242 -0.2740
   83SLPC   H2R 7798   2.173   1.452   3.287 -0.4746  2.0991  0.1565
   83SLPC   H2S 7799   2.311   1.386   3.364 -0.7943 -0.9007 -1.2202
   83SLPC    C3 7800   2.000   1.844   3.544  0.2231  0.5704  0.0513
   83SLPC    HX 7801   1.936   1.849   3.453  0.3602 -2.2687 -0.3034
   83SLPC    HY 7802   2.018   1.943   3.589  0.5832 -0.3378  2.0101
   83SLPC   O31 7803   1.929   1.755   3.642  0.7912  0.1131  0.4179
   83SLPC   C31 7804   1.989   1.754   3.754  0.2244  0.9565 -0.0708
   83SLPC   O32 7805   2.091   1.815   3.787 -0.4082 -0.4005 -0.0090
   83SLPC   C32 7806   1.906   1.672   3.856 -0.5369 -0.3176 -0.0677
   83SLPC   H2X 7807   1.866   1.584   3.801  0.0087 -0.7943  0.2838
   83SLPC   H2Y 7808   1.823   1.734   3.896 -0.9647 -1.0791  0.2469
   83SLPC   C23 7809   2.121   1.352   3.471  0.4083  0.6619  0.5053
   83SLPC   H3R 7810   2.082   1.268   3.410  0.3887 -0.0914  1.5380
   83SLPC   H3S 7811   2.022   1.401   3.488 -1.3952 -3.0516  1.6860
   83SLPC   C24 7812   2.176   1.288   3.600  0.1505  0.5008 -0.0984
   83SLPC   H4R 7813   2.280   1.248   3.593  0.4786  1.4421 -0.9305
   83SLPC   H4S 7814   2.107   1.207   3.629  1.1595 -0.4512 -0.2995
   83SLPC   C25 7815   2.171   1.385   3.714  0.2096  0.2136 -0.4604
   83SLPC   H5R 7816   2.067   1.420   3.730 -0.1953 -0.0613 -2.2164
   83SLPC   H5S 7817   2.230   1.472   3.679  0.2702  0.1004 -0.6459
   83SLPC   C26 7818   2.234   1.324   3.838  0.7936 -0.6867  0.3294
   83SLPC   H6R 7819   2.242   1.406   3.913 -1.2821 -1.8400  1.9194
   83SLPC   H6S 7820   2.334   1.280   3.817  0.2792 -1.2836 -0.9554
   83SLPC   C27 7821   2.152   1.207   3.895  0.4288  0.2815  0.3845
   83SLPC   H7R 7822   2.191   1.108   3.863 -2.0065 -1.4666  2.4261
   83SLPC   H7S 7823   2.047   1.210   3.860  1.2642 -0.8149 -2.5608
   83SLPC   C28 7824   2.152   1.199   4.041  0.0356 -0.5996  0.3177
   83SLPC   H8R 7825   2.084   1.276   4.082 -2.4070 -3.1038  1.3057
   83SLPC   H8S 7826   2.252   1.197   4.090 -1.3028  0.6547  3.3711
   83SLPC   C29 7827   2.078   1.084   4.094 -0.7583  0.4384 -0.8456
   83SLPC   H9R 7828   2.048   1.013   4.015 -0.6517 -0.1595 -0.3546
   83SLPC  C210 7829   2.037   1.067   4.225  0.1445 -0.0286 -0.4236
   83SLPC  H10R 7830   1.983   0.977   4.256 -0.4468  0.5142  0.1608
   83SLPC  C211 7831   2.055   1.164   4.337  0.0428 -0.1928  0.1799
   83SLPC  H11R 7832   1.959   1.216   4.354  0.6238  0.7883  0.5364
   83SLPC  H11S 7833   2.131   1.244   4.329 -0.4802  0.0933 -3.3113
   83SLPC  C212 7834   2.091   1.099   4.463  0.2432  0.5292  0.3257
   83SLPC  H12R 7835   2.188   1.047   4.459 -1.1774 -2.3671  0.9805
   83SLPC  C213 7836   2.017   1.068   4.567 -0.5922  0.0714 -0.2388
   83SLPC  H13R 7837   2.063   1.006   4.646  1.8999  0.2658 -1.4414
   83SLPC  C214 7838   1.873   1.103   4.570  0.7061  0.0174  1.1726
   83SLPC  H14R 7839   1.815   1.061   4.485  1.2772  0.7447  0.4098
   83SLPC  H14S 7840   1.867   1.210   4.542 -0.5755 -0.0036  1.3021
   83SLPC  C215 7841   1.809   1.058   4.705  0.0306  0.2222  0.2268
   83SLPC  H15R 7842   1.840   0.952   4.722  0.4847  0.3051 -0.0769
   83SLPC  H15S 7843   1.699   1.057   4.692  0.2883 -0.1905 -2.3623
   83SLPC  C216 7844   1.849   1.149   4.821  0.6164  0.8233 -0.7914
   83SLPC  H16R 7845   1.823   1.252   4.786 -2.1203  0.8649  1.0947
   83SLPC  H16S 7846   1.958   1.152   4.841  0.7621  0.0461 -1.4143
   83SLPC  C217 7847   1.784   1.111   4.953 -0.0320 -0.7659 -0.7989
   83SLPC  H17R 7848   1.816   1.009   4.984 -0.4602 -0.6110  0.2128
   83SLPC  H17S 7849   1.673   1.103   4.951 -0.0857 -0.0970 -0.6043
   83SLPC  C218 7850   1.822   1.210   5.065  0.2966  0.6800  0.0337
   83SLPC  H18R 7851   1.777   1.175   5.160  0.1536  0.1324 -0.2300
   83SLPC  H18S 7852   1.780   1.311   5.045  0.0338  0.8073  1.1820
   83SLPC  H18T 7853   1.933   1.219   5.070  0.3798  2.2044 -2.4811
   83SLPC   C33 7854   1.988   1.600   3.972 -0.4600 -0.1176  0.0321
   83SLPC   H3X 7855   2.085   1.572   3.925  0.7755  0.8856  1.8479
   83SLPC   H3Y 7856   1.916   1.520   3.999 -2.2648  0.9750 -1.3828
   83SLPC   C34 7857   2.014   1.701   4.088 -0.3606  0.3318  0.6486
   83SLPC   H4X 7858   1.918   1.753   4.113  0.1365  0.6848  1.8701
   83SLPC   H4Y 7859   2.089   1.772   4.048 -0.2016 -0.2164 -0.0344
   83SLPC   C35 7860   2.067   1.632   4.217  0.2140  0.1377  0.3280
   83SLPC   H5X 7861   2.080   1.721   4.282 -0.8440 -0.8419  1.9388
   83SLPC   H5Y 7862   2.165   1.581   4.205  0.0684 -0.0202 -0.2299
   83SLPC   C36 7863   1.965   1.534   4.279  0.3593  0.1673 -1.0335
   83SLPC   H6X 7864   1.987   1.428   4.256 -3.0124 -0.9389  0.3109
   83SLPC   H6Y 7865   1.875   1.553   4.217  0.7998  0.4336 -1.6032
   83SLPC   C37 7866   1.925   1.569   4.432  0.7189 -0.5996  0.3618
   83SLPC   H7X 7867   1.824   1.529   4.453 -0.4645  1.4927 -1.0813
   83SLPC   H7Y 7868   1.911   1.678   4.446 -0.2721 -0.4561 -1.4645
   83SLPC   C38 7869   2.034   1.521   4.522  0.2341 -0.0461 -0.1870
   83SLPC   H8X 7870   2.124   1.575   4.485  0.1421 -0.3608 -0.8809
   83SLPC   H8Y 7871   2.057   1.413   4.511  0.7810 -0.0456  0.8145
   83SLPC   C39 7872   1.993   1.542   4.670  0.7792  0.5069  0.6241
   83SLPC   H9X 7873   1.913   1.475   4.707  3.1374 -1.7186  2.0330
   83SLPC   H9Y 7874   1.958   1.646   4.690 -0.4687  0.5234 -1.3624
   83SLPC  C310 7875   2.109   1.520   4.761 -0.3535  0.5771 -0.1301
   83SLPC  H10X 7876   2.178   1.605   4.743 -0.1784  0.2443 -1.1040
   83SLPC  H10Y 7877   2.153   1.419   4.742 -0.5765  0.3749  0.4263
   83SLPC  C311 7878   2.081   1.523   4.912  0.4527  0.3059  0.2395
   83SLPC  H11X 7879   2.174   1.500   4.968  0.5902 -0.4227 -0.2800
   83SLPC  H11Y 7880   2.004   1.447   4.935 -0.7308  1.6778  0.9640
   83SLPC  C312 7881   2.020   1.662   4.961 -0.4690  0.5016 -0.1737
   83SLPC  H12X 7882   1.946   1.712   4.895 -0.1821 -0.3265 -1.1530
   83SLPC  H12Y 7883   2.110   1.727   4.955 -0.8019  1.0848  1.0123
   83SLPC  C313 7884   1.989   1.649   5.116  0.1821  0.2366  0.7923
   83SLPC  H13X 7885   2.076   1.606   5.171  0.2538  1.5296  1.7181
   83SLPC  H13Y 7886   1.903   1.581   5.133  1.5631 -2.2146 -1.2145
   83SLPC  C314 7887   1.972   1.784   5.191 -0.4135  1.0579  0.1748
   83SLPC  H14X 7888   2.066   1.840   5.173 -1.3315  3.5569  2.5683
   83SLPC  H14Y 7889   1.967   1.770   5.301 -0.5027  0.6076  0.1135
   83SLPC  C315 7890   1.852   1.868   5.144 -0.6026  0.0639 -0.4599
   83SLPC  H15X 7891   1.765   1.800   5.137 -0.5430 -0.0028 -0.5490
   83SLPC  H15Y 7892   1.865   1.925   5.049  1.8871  1.2587  0.4937
   83SLPC  C316 7893   1.825   1.980   5.241 -0.1572 -0.1758 -0.8930
   83SLPC  H16X 7894   1.902   2.059   5.231 -0.1495  0.6117  3.4537
   83SLPC  H16Y 7895   1.821   1.938   5.344  0.7519  0.6684 -0.5040
   83SLPC  C317 7896   1.686   2.037   5.208  0.1120 -0.4476 -0.4655
   83SLPC  H17X 7897   1.614   1.954   5.226  1.6825 -1.7276  0.0970
   83SLPC  H17Y 7898   1.674   2.071   5.103 -0.0756 -0.5065 -0.4642
   83SLPC  C318 7899   1.640   2.164   5.288  0.3956 -0.1009 -0.0088
   83SLPC  H18X 7900   1.695   2.258   5.269 -2.7004  1.7388 -0.4442
   83SLPC  H18Y 7901   1.648   2.151   5.398  0.3661 -0.6217 -0.0654
   83SLPC  H18Z 7902   1.535   2.195   5.269  0.8803  0.5298 -1.8576
   84SLPC     N 7903   5.940   0.488   3.275  0.0426 -0.4195  0.2578
   84SLPC   C13 7904   5.827   0.573   3.331 -0.2650 -0.3894  0.6530
   84SLPC  H13A 7905   5.758   0.522   3.396 -0.1277  0.1436  1.2220
   84SLPC  H13B 7906   5.872   0.641   3.401 -1.1526 -0.5228  1.3726
   84SLPC  H13C 7907   5.782   0.628   3.249  1.1724 -1.0116 -0.6185
   84SLPC   C14 7908   6.017   0.571   3.173 -0.0821  0.3291 -0.0540
   84SLPC  H14A 7909   6.087   0.508   3.121 -0.8017 -0.6173  0.0855
   84SLPC  H14B 7910   5.960   0.617   3.093 -1.1480 -0.4902  0.2123
   84SLPC  H14C 7911   6.067   0.657   3.215 -0.5435  0.9643 -0.7753
   84SLPC   C15 7912   5.884   0.374   3.204  0.2706 -0.1327 -0.2135
   84SLPC  H15A 7913   5.830   0.403   3.116  0.3113 -1.3916 -0.6709
   84SLPC  H15B 7914   5.964   0.317   3.159  2.2155  1.6186  0.8329
   84SLPC  H15C 7915   5.810   0.320   3.262 -0.4396 -0.1926 -1.1564
   84SLPC   C12 7916   6.031   0.439   3.390 -0.7201  0.9522 -0.5493
   84SLPC  H12A 7917   6.088   0.523   3.427  2.1452 -1.6257  1.3650
   84SLPC  H12B 7918   6.099   0.365   3.351  1.5394  3.0175 -0.8032
   84SLPC   C11 7919   5.949   0.386   3.512  0.4646  0.3808  0.7795
   84SLPC  H11A 7920   5.902   0.467   3.571 -1.5843 -1.9629  2.5987
   84SLPC  H11B 7921   6.018   0.338   3.585 -0.6378 -1.0614  0.9233
   84SLPC     P 7922   5.889   0.129   3.469  0.3634  0.5429  0.2435
   84SLPC   O13 7923   5.774   0.050   3.416  0.0735 -0.1343  0.2223
   84SLPC   O14 7924   6.011   0.123   3.383  0.4885 -0.7791  0.9473
   84SLPC   O12 7925   5.850   0.285   3.476  0.1657 -0.1728  0.0982
   84SLPC   O11 7926   5.919   0.089   3.623 -0.0592 -0.4093  0.4700
   84SLPC    C1 7927   5.808   0.052   3.707 -0.3475 -0.6844  0.3176
   84SLPC    HA 7928   5.746  -0.027   3.658 -1.2896  1.8426 -2.9587
   84SLPC    HB 7929   5.853  -0.007   3.789 -1.6274 -2.6258 -0.3114
   84SLPC    C2 7930   5.728   0.172   3.759 -0.3210  0.0066 -0.0602
   84SLPC    HS 7931   5.690   0.233   3.674  0.3660  2.0884  1.0433
   84SLPC   O21 7932   5.818   0.260   3.833 -0.0032  0.1706  0.5153
   84SLPC   C21 7933   5.779   0.385   3.860 -0.1985 -0.6973  0.6091
   84SLPC   O22 7934   5.680   0.445   3.816  0.2024 -0.2229 -0.1022
   84SLPC   C22 7935   5.876   0.442   3.965 -0.4552  0.6481  0.9267
   84SLPC   H2R 7936   5.924   0.358   4.019  0.4857 -0.5837 -1.6455
   84SLPC   H2S 7937   5.965   0.484   3.914 -0.2396 -0.5119  0.3118
   84SLPC    C3 7938   5.608   0.120   3.848 -0.0566 -0.1584 -0.6428
   84SLPC    HX 7939   5.556   0.041   3.789 -2.7449 -0.8572  2.3043
   84SLPC    HY 7940   5.542   0.208   3.860 -0.5784 -0.0657 -3.6342
   84SLPC   O31 7941   5.654   0.066   3.971 -0.6014 -0.2760 -0.1336
   84SLPC   C31 7942   5.655   0.147   4.076 -0.3335  0.3747  0.0023
   84SLPC   O32 7943   5.607   0.257   4.072 -0.5140  0.2922  1.0375
   84SLPC   C32 7944   5.741   0.096   4.190  0.5297  0.5931  0.9176
   84SLPC   H2X 7945   5.850   0.095   4.170  0.4796  3.1052  0.1454
   84SLPC   H2Y 7946   5.703  -0.008   4.192  0.6803  0.3386 -2.6213
   84SLPC   C23 7947   5.818   0.543   4.063  0.4015  0.0264 -0.0468
   84SLPC   H3R 7948   5.724   0.502   4.106  1.0466 -1.4384  0.0107
   84SLPC   H3S 7949   5.791   0.634   4.005  3.4136  0.7863 -0.4093
   84SLPC   C24 7950   5.903   0.566   4.188 -0.1869 -0.0692  1.0211
   84SLPC   H4R 7951   6.009   0.575   4.157 -0.3251  0.0006  0.5672
   84SLPC   H4S 7952   5.889   0.479   4.256 -0.6361 -0.7018  0.1314
   84SLPC   C25 7953   5.855   0.701   4.255 -0.1120  0.1608  0.1439
   84SLPC   H5R 7954   5.746   0.697   4.276 -0.5446  1.9843 -1.5134
   84SLPC   H5S 7955   5.873   0.792   4.194 -1.7324  0.7643  0.5229
   84SLPC   C26 7956   5.934   0.716   4.390  0.4584 -0.4987  0.0227
   84SLPC   H6R 7957   6.044   0.723   4.380  0.7347 -2.5711  1.1408
   84SLPC   H6S 7958   5.915   0.623   4.448  0.0711  0.0638  0.8333
   84SLPC   C27 7959   5.884   0.830   4.490 -0.2345  0.0870 -0.4216
   84SLPC   H7R 7960   5.775   0.810   4.502  0.2761 -2.0272  1.2910
   84SLPC   H7S 7961   5.905   0.931   4.449 -0.1958  0.6776  0.9928
   84SLPC   C28 7962   5.941   0.813   4.633  0.5297  0.0585  0.1288
   84SLPC   H8R 7963   5.935   0.703   4.651 -0.4045 -0.2487 -1.8008
   84SLPC   H8S 7964   5.870   0.856   4.706 -0.7442 -0.6388 -0.6674
   84SLPC   C29 7965   6.085   0.850   4.659  0.6402  0.4406 -0.2717
   84SLPC   H9R 7966   6.148   0.823   4.573  2.5113  2.1001  0.4727
   84SLPC  C210 7967   6.133   0.917   4.770  0.1399  0.3437  0.2139
   84SLPC  H10R 7968   6.242   0.922   4.788  0.3530 -3.5599  0.8202
   84SLPC  C211 7969   6.059   0.976   4.892  0.5181 -0.3449  0.1965
   84SLPC  H11R 7970   5.953   0.988   4.863  0.4541  0.1703  0.6077
   84SLPC  H11S 7971   6.097   1.078   4.916  1.4558 -0.1897 -1.7402
   84SLPC  C212 7972   6.053   0.884   5.008  0.0234  0.0299  0.0440
   84SLPC  H12R 7973   6.013   0.784   4.989  1.5042 -0.9311  1.6111
   84SLPC  C213 7974   6.096   0.908   5.135  0.5493 -0.2745  0.0560
   84SLPC  H13R 7975   6.096   0.822   5.203 -0.5318 -0.9108 -0.7229
   84SLPC  C214 7976   6.166   1.032   5.182  1.4127 -0.3735 -0.2345
   84SLPC  H14R 7977   6.135   1.126   5.132 -1.2198 -0.2809  1.3761
   84SLPC  H14S 7978   6.277   1.020   5.183  1.3014 -1.5754 -0.2874
   84SLPC  C215 7979   6.132   1.061   5.335 -0.1357  0.4442  0.0800
   84SLPC  H15R 7980   6.209   1.135   5.365  0.3858  0.1889 -0.6256
   84SLPC  H15S 7981   6.154   0.972   5.399 -1.0657  0.8475  1.0010
   84SLPC  C216 7982   5.991   1.115   5.364  0.2486 -0.0278  0.3926
   84SLPC  H16R 7983   5.929   1.035   5.411  3.1956 -3.2388 -0.7432
   84SLPC  H16S 7984   5.948   1.126   5.262 -1.3237 -1.1984  0.8785
   84SLPC  C217 7985   5.981   1.253   5.439  0.1546 -0.1833 -0.0982
   84SLPC  H17R 7986   5.874   1.283   5.428 -0.0748 -0.3790  1.4605
   84SLPC  H17S 7987   6.043   1.326   5.382 -0.4107  1.1435  0.9436
   84SLPC  C218 7988   6.030   1.249   5.583  0.6051 -0.0043  0.0098
   84SLPC  H18R 7989   5.979   1.168   5.638 -1.3191 -0.7003 -2.5889
   84SLPC  H18S 7990   6.019   1.346   5.637 -0.5027 -1.7359  3.1315
   84SLPC  H18T 7991   6.140   1.237   5.575  0.6652  0.2356  0.4538
   84SLPC   C33 7992   5.726   0.173   4.323 -0.3108 -0.6802 -0.7421
   84SLPC   H3X 7993   5.622   0.193   4.358  0.6500  0.2095  1.8224
   84SLPC   H3Y 7994   5.764   0.276   4.306  0.0104 -0.7726 -0.5907
   84SLPC   C34 7995   5.797   0.097   4.439 -0.1126 -0.0627  0.2057
   84SLPC   H4X 7996   5.902   0.125   4.415 -0.7711  0.3856 -2.4707
   84SLPC   H4Y 7997   5.787  -0.011   4.418 -2.0649  0.2469 -0.6552
   84SLPC   C35 7998   5.766   0.139   4.576 -0.2269  0.3042  0.1095
   84SLPC   H5X 7999   5.658   0.124   4.599  0.4493 -0.3239  3.3845
   84SLPC   H5Y 8000   5.795   0.245   4.568  1.9106 -0.2279  0.2779
   84SLPC   C36 8001   5.835   0.055   4.685  0.3954  0.6673  0.3314
   84SLPC   H6X 8002   5.944   0.074   4.689  0.8326 -1.5805  0.9168
   84SLPC   H6Y 8003   5.818  -0.054   4.669 -0.4187  1.1187 -2.2082
   84SLPC   C37 8004   5.783   0.088   4.829  0.4973 -0.3727 -0.1885
   84SLPC   H7X 8005   5.672   0.091   4.829  0.4627 -1.0074  0.9865
   84SLPC   H7Y 8006   5.817   0.193   4.847 -0.5560 -0.1597  0.6859
   84SLPC   C38 8007   5.830   0.005   4.950  0.3771 -0.3169 -0.5639
   84SLPC   H8X 8008   5.941   0.001   4.963  0.4576  1.5835 -0.3607
   84SLPC   H8Y 8009   5.821  -0.102   4.922  3.7671 -1.0570  0.6020
   84SLPC   C39 8010   5.781   0.046   5.088  0.3365  0.3332 -0.2635
   84SLPC   H9X 8011   5.676   0.081   5.080 -0.8315 -2.6994  0.2870
   84SLPC   H9Y 8012   5.851   0.121   5.131  0.7490 -1.0247  1.5716
   84SLPC  C310 8013   5.779  -0.060   5.194 -0.2651  0.0965 -0.3071
   84SLPC  H10X 8014   5.887  -0.085   5.202  0.9463  4.1379 -1.7210
   84SLPC  H10Y 8015   5.723  -0.155   5.177  1.0781 -1.3933  2.8487
   84SLPC  C311 8016   5.735  -0.003   5.330 -1.0598 -0.8474 -0.3073
   84SLPC  H11X 8017   5.625  -0.006   5.346 -1.0937 -2.1986 -0.6883
   84SLPC  H11Y 8018   5.780   0.098   5.337  0.9640 -1.3125 -4.0255
   84SLPC  C312 8019   5.795  -0.087   5.450  0.5782 -0.3807 -0.5842
   84SLPC  H12X 8020   5.900  -0.114   5.428  1.4668  1.6161  0.8610
   84SLPC  H12Y 8021   5.744  -0.186   5.455  0.2365 -0.3941 -2.9835
   84SLPC  C313 8022   5.778   0.007   5.581  0.1575  0.5483 -0.5470
   84SLPC  H13X 8023   5.780  -0.067   5.663  0.2643  1.1458  0.0006
   84SLPC  H13Y 8024   5.678   0.056   5.579 -0.8488 -1.4251 -1.6111
   84SLPC  C314 8025   5.891   0.114   5.609 -0.1956  0.2686  0.0860
   84SLPC  H14X 8026   5.863   0.158   5.708 -0.6265 -1.0014  0.5569
   84SLPC  H14Y 8027   5.883   0.188   5.527  0.3449  0.1242 -0.0983
   84SLPC  C315 8028   6.036   0.056   5.605  0.5374  0.0975  0.6648
   84SLPC  H15X 8029   6.109   0.140   5.595  0.4790  0.3925  2.3598
   84SLPC  H15Y 8030   6.046   0.003   5.508 -0.3184  1.1099 -0.0039
   84SLPC  C316 8031   6.060  -0.044   5.717  0.0662 -0.0190 -0.4552
   84SLPC  H16X 8032   6.161  -0.085   5.702 -0.5686 -1.1250 -1.8459
   84SLPC  H16Y 8033   5.993  -0.132   5.716  1.6237 -1.2644  0.6033
   84SLPC  C317 8034   6.055   0.018   5.865  0.4124 -0.2847  0.1323
   84SLPC  H17X 8035   5.948   0.007   5.894 -0.2023  0.3856 -1.7030
   84SLPC  H17Y 8036   6.082   0.125   5.855  2.0752 -0.4317  2.3344
   84SLPC  C318 8037   6.147  -0.062   5.958  0.2686 -0.0380  0.6373
   84SLPC  H18X 8038   6.110  -0.162   5.989  0.4131 -0.3450 -0.1538
   84SLPC  H18Y 8039   6.187  -0.016   6.051  0.8633 -1.6783  1.2427
   84SLPC  H18Z 8040   6.239  -0.075   5.897 -0.0398  2.3102 -0.4365
   85SLPC     N 8041   2.307   6.884   2.481  0.4140  0.1416  0.5618
   85SLPC   C13 8042   2.301   6.853   2.337  0.6539 -0.3556  0.7010
   85SLPC  H13A 8043   2.296   6.947   2.285 -0.9835  0.0496  1.5058
   85SLPC  H13B 8044   2.389   6.796   2.313  0.5136  0.2355 -1.4128
   85SLPC  H13C 8045   2.221   6.790   2.302  0.7576  0.4400 -1.0597
   85SLPC   C14 8046   2.207   6.997   2.499 -0.4268  0.0510  0.4690
   85SLPC  H14A 8047   2.207   7.066   2.416 -0.5022 -0.7650 -0.2301
   85SLPC  H14B 8048   2.105   6.967   2.517 -1.1554  2.6112  1.0093
   85SLPC  H14C 8049   2.227   7.055   2.587  0.0054  1.1832 -0.3515
   85SLPC   C15 8050   2.450   6.930   2.506  0.3956 -0.1162  0.1779
   85SLPC  H15A 8051   2.453   6.968   2.607 -2.2991  0.6947  0.0427
   85SLPC  H15B 8052   2.519   6.848   2.494  0.6833  0.3623 -1.6297
   85SLPC  H15C 8053   2.478   7.006   2.436  3.2390 -0.4463  0.8649
   85SLPC   C12 8054   2.266   6.762   2.570 -0.3784 -0.5133  0.1295
   85SLPC  H12A 8055   2.323   6.677   2.537 -1.9340 -2.5583  2.3703
   85SLPC  H12B 8056   2.164   6.734   2.550 -0.4417  0.0483 -0.3521
   85SLPC   C11 8057   2.289   6.790   2.719 -0.4153 -0.1752 -0.0668
   85SLPC  H11A 8058   2.226   6.720   2.778 -0.2369 -0.8239 -0.6408
   85SLPC  H11B 8059   2.244   6.888   2.747 -1.7103 -1.0302  0.9499
   85SLPC     P 8060   2.466   6.809   2.909  0.1332 -0.4062  0.0796
   85SLPC   O13 8061   2.596   6.728   2.924  0.4607 -0.2196  0.0929
   85SLPC   O14 8062   2.465   6.952   2.939 -0.1006 -0.2105  0.2690
   85SLPC   O12 8063   2.422   6.777   2.761 -0.1636  0.0295 -0.0551
   85SLPC   O11 8064   2.355   6.732   2.991  0.1216  0.3765  0.0409
   85SLPC    C1 8065   2.238   6.785   3.065  0.1525 -0.2240  0.4626
   85SLPC    HA 8066   2.188   6.860   3.000 -0.5385 -0.6475  0.4968
   85SLPC    HB 8067   2.156   6.711   3.071  0.7626 -0.9510 -0.0291
   85SLPC    C2 8068   2.283   6.841   3.198  1.0946 -0.1860 -0.1823
   85SLPC    HS 8069   2.364   6.912   3.172  0.3410  0.0957 -1.8360
   85SLPC   O21 8070   2.313   6.733   3.295 -0.7172 -0.4388 -0.3005
   85SLPC   C21 8071   2.408   6.763   3.385  0.3258 -0.7441  0.1708
   85SLPC   O22 8072   2.476   6.868   3.389  0.0385  0.4524 -0.0612
   85SLPC   C22 8073   2.406   6.653   3.489  0.0768 -0.4229  0.9232
   85SLPC   H2R 8074   2.301   6.617   3.488 -0.0048 -0.2397 -0.6272
   85SLPC   H2S 8075   2.483   6.585   3.445  1.1098  2.1117 -1.4991
   85SLPC    C3 8076   2.155   6.926   3.255  0.7068 -0.5951 -0.3214
   85SLPC    HX 8077   2.067   6.857   3.259  1.6702 -2.0457 -2.3804
   85SLPC    HY 8078   2.119   6.994   3.175 -0.5295 -1.3188 -0.4102
   85SLPC   O31 8079   2.186   6.981   3.386 -0.5883 -0.6398 -0.1655
   85SLPC   C31 8080   2.244   7.101   3.386 -0.4168  0.2081  0.4384
   85SLPC   O32 8081   2.286   7.150   3.286 -0.3380 -0.7270  0.3983
   85SLPC   C32 8082   2.251   7.154   3.522 -0.0026 -1.0637 -0.6974
   85SLPC   H2X 8083   2.157   7.205   3.552  0.2432 -1.3579  0.6358
   85SLPC   H2Y 8084   2.336   7.225   3.534  0.4975 -1.8427  0.5785
   85SLPC   C23 8085   2.457   6.694   3.629  0.7362 -0.5469 -0.5329
   85SLPC   H3R 8086   2.405   6.787   3.660  1.3050  0.6665 -2.9804
   85SLPC   H3S 8087   2.563   6.726   3.630  0.2731  1.2321  1.8141
   85SLPC   C24 8088   2.438   6.593   3.749  0.2948 -0.5128 -0.6592
   85SLPC   H4R 8089   2.472   6.499   3.701 -2.6398 -2.7264  1.1830
   85SLPC   H4S 8090   2.332   6.565   3.766  0.7698 -2.4088 -0.6066
   85SLPC   C25 8091   2.503   6.627   3.880  0.0690 -0.1532  0.4908
   85SLPC   H5R 8092   2.605   6.654   3.847  0.1709 -1.9008 -0.7593
   85SLPC   H5S 8093   2.461   6.713   3.936  0.7515  1.4260 -1.3134
   85SLPC   C26 8094   2.517   6.511   3.980 -0.2361 -0.1321 -0.0109
   85SLPC   H6R 8095   2.582   6.544   4.064 -0.7615  0.1948  0.2730
   85SLPC   H6S 8096   2.566   6.424   3.930 -1.0406  0.3705 -1.7724
   85SLPC   C27 8097   2.386   6.481   4.050  0.3238  0.0702 -0.7681
   85SLPC   H7R 8098   2.313   6.451   3.971  0.0579  1.0330 -0.8986
   85SLPC   H7S 8099   2.353   6.575   4.098  0.9841  0.4119 -0.9738
   85SLPC   C28 8100   2.393   6.371   4.162 -0.1160  0.2881  0.5853
   85SLPC   H8R 8101   2.489   6.376   4.217  1.4083 -1.6435 -1.7297
   85SLPC   H8S 8102   2.410   6.273   4.114 -1.9077  1.5538 -2.9906
   85SLPC   C29 8103   2.275   6.350   4.255 -0.4050  0.3915  0.1877
   85SLPC   H9R 8104   2.217   6.441   4.278  0.5203  0.6597  1.6041
   85SLPC  C210 8105   2.218   6.232   4.305 -0.7069 -0.2706 -0.2352
   85SLPC  H10R 8106   2.141   6.237   4.383  0.4871 -0.7802  1.0160
   85SLPC  C211 8107   2.266   6.092   4.287  0.2857  0.0789  0.9664
   85SLPC  H11R 8108   2.314   6.081   4.187 -1.1525 -3.4959  0.5199
   85SLPC  H11S 8109   2.176   6.027   4.289  0.7913 -0.6467  0.5360
   85SLPC  C212 8110   2.369   6.054   4.386  0.5670 -0.7098  0.4369
   85SLPC  H12R 8111   2.452   6.125   4.384 -1.2167  1.4947 -1.6881
   85SLPC  C213 8112   2.354   5.958   4.479 -0.6221  0.5273  0.1875
   85SLPC  H13R 8113   2.435   5.948   4.553 -0.1331  0.8696 -0.2914
   85SLPC  C214 8114   2.248   5.858   4.498  0.0052  0.5418  0.0222
   85SLPC  H14R 8115   2.282   5.754   4.478 -0.7700  0.0122  1.3185
   85SLPC  H14S 8116   2.161   5.884   4.434  1.1934  1.5810 -1.2312
   85SLPC  C215 8117   2.192   5.863   4.645 -0.5820 -0.2044 -0.3283
   85SLPC  H15R 8118   2.114   5.784   4.646  0.6407 -1.4554  0.7838
   85SLPC  H15S 8119   2.159   5.967   4.664  1.6499  0.1380  2.2111
   85SLPC  C216 8120   2.295   5.824   4.751  0.0822  0.1457  0.8552
   85SLPC  H16R 8121   2.363   5.910   4.771  2.4106 -1.3690 -0.1137
   85SLPC  H16S 8122   2.355   5.739   4.711 -1.6052 -1.5326  1.7080
   85SLPC  C217 8123   2.223   5.766   4.873 -0.0959  0.1581 -0.4761
   85SLPC  H17R 8124   2.167   5.676   4.839 -1.8275  0.4561  1.3912
   85SLPC  H17S 8125   2.144   5.838   4.901 -0.7295 -0.6857 -0.0508
   85SLPC  C218 8126   2.317   5.721   4.989  0.2466  0.4921 -0.5264
   85SLPC  H18R 8127   2.341   5.815   5.044  2.1383 -1.1226  1.5777
   85SLPC  H18S 8128   2.407   5.670   4.950 -1.7545 -1.5145 -2.7949
   85SLPC  H18T 8129   2.257   5.651   5.052 -3.6489  0.5848 -3.7018
   85SLPC   C33 8130   2.274   7.036   3.623 -0.0643  0.0969 -0.6172
   85SLPC   H3X 8131   2.367   6.982   3.592  0.1117 -0.7560  1.2671
   85SLPC   H3Y 8132   2.188   6.967   3.635 -1.2116  1.7562  1.1192
   85SLPC   C34 8133   2.290   7.095   3.779 -0.2164 -1.1202  0.5410
   85SLPC   H4X 8134   2.189   7.129   3.813 -0.6464 -2.6549  0.8897
   85SLPC   H4Y 8135   2.357   7.184   3.778 -2.3897  0.7350 -2.8971
   85SLPC   C35 8136   2.337   6.991   3.883  0.2054  0.1820  0.3409
   85SLPC   H5X 8137   2.438   6.959   3.852 -0.1877 -0.7018 -0.0743
   85SLPC   H5Y 8138   2.273   6.900   3.876  2.6181 -1.5783  0.0056
   85SLPC   C36 8139   2.347   7.045   4.026  0.1867 -0.4593  0.3665
   85SLPC   H6X 8140   2.250   7.076   4.069 -1.1322 -1.6564 -1.5726
   85SLPC   H6Y 8141   2.412   7.135   4.025 -0.3976  0.0230 -2.0858
   85SLPC   C37 8142   2.396   6.945   4.133 -0.0464  0.4746 -0.1420
   85SLPC   H7X 8143   2.499   6.908   4.118  0.5202  0.3390  3.2564
   85SLPC   H7Y 8144   2.331   6.855   4.140  1.2488 -0.3932  1.2301
   85SLPC   C38 8145   2.390   7.007   4.273  0.8804 -0.0072 -0.2217
   85SLPC   H8X 8146   2.285   7.043   4.274 -0.1125 -2.6600 -0.7754
   85SLPC   H8Y 8147   2.469   7.084   4.286  1.9335 -0.9738 -0.6361
   85SLPC   C39 8148   2.410   6.903   4.383 -0.7481  0.5986 -0.0822
   85SLPC   H9X 8149   2.517   6.875   4.395 -1.3187 -1.4829  0.4803
   85SLPC   H9Y 8150   2.356   6.814   4.345 -1.5529  1.5057 -1.1308
   85SLPC  C310 8151   2.357   6.950   4.517 -0.2991 -0.3075  0.9106
   85SLPC  H10X 8152   2.327   6.864   4.581  2.2493 -0.6020  1.7974
   85SLPC  H10Y 8153   2.271   7.015   4.486 -0.3065 -0.8829 -0.3026
   85SLPC  C311 8154   2.457   7.035   4.593 -0.4040  0.2892 -0.0254
   85SLPC  H11X 8155   2.507   7.109   4.527 -0.6736  1.5146  1.1124
   85SLPC  H11Y 8156   2.532   6.960   4.626  0.1714  0.0305 -1.7839
   85SLPC  C312 8157   2.394   7.114   4.710 -0.4600 -0.3850 -0.3243
   85SLPC  H12X 8158   2.329   7.197   4.674  0.1361 -0.9660 -2.9698
   85SLPC  H12Y 8159   2.478   7.159   4.767  0.2898  0.5439 -2.0830
   85SLPC  C313 8160   2.315   7.022   4.812  0.2830 -0.3162  0.3369
   85SLPC  H13X 8161   2.232   6.982   4.749 -0.2778 -0.6496  1.2730
   85SLPC  H13Y 8162   2.265   7.086   4.887  1.3729  0.0142  0.7937
   85SLPC  C314 8163   2.408   6.922   4.864  0.6094  0.5590 -0.1717
   85SLPC  H14X 8164   2.500   6.971   4.903  1.6642  1.0462 -3.0776
   85SLPC  H14Y 8165   2.447   6.845   4.794  1.7313  1.4487 -0.5629
   85SLPC  C315 8166   2.346   6.838   4.980 -0.6757 -0.6222  0.0144
   85SLPC  H15X 8167   2.247   6.806   4.939  0.3281 -0.4381 -2.7258
   85SLPC  H15Y 8168   2.326   6.899   5.071 -4.9767 -1.7488  0.0400
   85SLPC  C316 8169   2.435   6.722   5.027  0.1159 -0.3962 -0.0609
   85SLPC  H16X 8170   2.544   6.740   5.022 -0.1749  1.3866 -0.4266
   85SLPC  H16Y 8171   2.408   6.635   4.964 -0.5820  0.8327 -1.5075
   85SLPC  C317 8172   2.405   6.687   5.177  0.8619 -0.2641 -0.2996
   85SLPC  H17X 8173   2.413   6.577   5.190  2.0417 -0.2100 -0.4940
   85SLPC  H17Y 8174   2.296   6.695   5.199  0.4818 -1.9176 -1.3637
   85SLPC  C318 8175   2.475   6.775   5.275 -0.4611 -0.2557  0.0405
   85SLPC  H18X 8176   2.583   6.784   5.251  0.5939 -1.1843  3.7931
   85SLPC  H18Y 8177   2.461   6.741   5.379  2.1685 -2.7769 -0.3062
   85SLPC  H18Z 8178   2.445   6.881   5.261 -1.1533 -0.5048 -0.4280
   86SLPC     N 8179   0.586   3.610   3.197 -0.4358  0.7766 -0.7157
   86SLPC   C13 8180   0.707   3.541   3.139 -0.2684 -0.8005  0.0995
   86SLPC  H13A 8181   0.677   3.479   3.057  0.1946 -0.6894 -0.1577
   86SLPC  H13B 8182   0.772   3.618   3.100 -0.7783 -0.0510  0.7008
   86SLPC  H13C 8183   0.751   3.470   3.207 -2.2175 -0.8661  1.3712
   86SLPC   C14 8184   0.635   3.725   3.282  0.3271  0.4233  0.5726
   86SLPC  H14A 8185   0.712   3.683   3.345  0.4692 -0.1150  0.0532
   86SLPC  H14B 8186   0.662   3.809   3.219 -1.6465 -0.1173 -1.1081
   86SLPC  H14C 8187   0.559   3.751   3.355 -2.2140 -2.1988 -0.9497
   86SLPC   C15 8188   0.505   3.519   3.284  0.1667 -0.8916  0.2994
   86SLPC  H15A 8189   0.473   3.443   3.215 -1.5342  0.0451  0.0059
   86SLPC  H15B 8190   0.562   3.465   3.359 -1.5829  0.4852  2.7575
   86SLPC  H15C 8191   0.432   3.583   3.331  0.8189 -1.0620  1.5890
   86SLPC   C12 8192   0.506   3.674   3.080 -0.3379  0.2246 -0.2839
   86SLPC  H12A 8193   0.412   3.709   3.122 -1.5025 -1.0731 -1.6653
   86SLPC  H12B 8194   0.472   3.603   3.006 -0.0535  0.4643 -0.6465
   86SLPC   C11 8195   0.585   3.786   3.002 -0.1548 -0.1323 -0.2719
   86SLPC  H11A 8196   0.517   3.814   2.919 -2.8447  1.6864  2.3602
   86SLPC  H11B 8197   0.685   3.754   2.965  0.0375  2.6994 -2.5002
   86SLPC     P 8198   0.515   4.037   3.026 -0.8804  0.0690 -0.1611
   86SLPC   O13 8199   0.590   4.098   2.917 -0.3268 -0.0215  0.0060
   86SLPC   O14 8200   0.374   4.002   3.008 -0.0389  0.4001 -0.3149
   86SLPC   O12 8201   0.599   3.910   3.067 -0.1099  0.1463 -0.4482
   86SLPC   O11 8202   0.524   4.133   3.150  0.0389  0.6072  0.4529
   86SLPC    C1 8203   0.485   4.092   3.278  0.2067  0.4031 -0.2486
   86SLPC    HA 8204   0.374   4.086   3.280  0.0742  2.0536 -0.8296
   86SLPC    HB 8205   0.524   3.992   3.306  0.7256 -0.3420 -3.3325
   86SLPC    C2 8206   0.520   4.192   3.395  0.0899 -0.5394  0.5717
   86SLPC    HS 8207   0.605   4.249   3.352 -0.8855  1.6230  1.3994
   86SLPC   O21 8208   0.552   4.122   3.511 -0.0352 -0.9498 -0.4046
   86SLPC   C21 8209   0.665   4.053   3.519 -0.2601  0.3934 -0.2357
   86SLPC   O22 8210   0.752   4.044   3.433 -0.4374  0.5745 -0.4207
   86SLPC   C22 8211   0.684   4.004   3.668 -0.0567  0.2905 -0.1651
   86SLPC   H2R 8212   0.642   4.070   3.746  2.6646  0.2504  1.4597
   86SLPC   H2S 8213   0.626   3.909   3.673 -2.0375  1.3961 -0.9053
   86SLPC    C3 8214   0.395   4.277   3.425  0.2474 -0.6045 -0.0667
   86SLPC    HX 8215   0.311   4.218   3.467 -1.0143  0.4124 -1.0673
   86SLPC    HY 8216   0.361   4.317   3.326 -1.6035 -0.3144  0.6513
   86SLPC   O31 8217   0.429   4.384   3.519  0.4619  0.7635 -0.3321
   86SLPC   C31 8218   0.328   4.452   3.569  0.2470 -0.2988 -0.1395
   86SLPC   O32 8219   0.209   4.424   3.553 -0.5038  0.1495 -0.0612
   86SLPC   C32 8220   0.371   4.579   3.643 -0.6259  0.2125 -0.1324
   86SLPC   H2X 8221   0.462   4.621   3.594 -0.1030  0.4294  0.9903
   86SLPC   H2Y 8222   0.410   4.542   3.740 -0.8933 -1.2885 -0.5736
   86SLPC   C23 8223   0.832   3.967   3.702 -0.5147 -0.2785  0.4554
   86SLPC   H3R 8224   0.888   4.061   3.722  0.2041 -0.7351  0.5879
   86SLPC   H3S 8225   0.877   3.910   3.619 -2.5407  0.6161 -1.3616
   86SLPC   C24 8226   0.843   3.874   3.827  0.9964  0.6471 -0.3854
   86SLPC   H4R 8227   0.786   3.780   3.809  0.7401  0.1814  2.3906
   86SLPC   H4S 8228   0.788   3.927   3.907  0.9584  1.7596 -1.1282
   86SLPC   C25 8229   0.989   3.837   3.861  0.2720 -0.3395 -0.1213
   86SLPC   H5R 8230   1.054   3.925   3.841  0.0189 -0.4363 -1.4768
   86SLPC   H5S 8231   1.027   3.756   3.795 -0.6587 -0.8810 -0.0004
   86SLPC   C26 8232   1.005   3.800   4.002  1.6768  0.3922 -0.0991
   86SLPC   H6R 8233   0.937   3.868   4.059  3.0626  1.5145  0.2973
   86SLPC   H6S 8234   1.110   3.821   4.030  1.8472  1.3589 -1.3620
   86SLPC   C27 8235   0.965   3.646   4.016 -0.3292  0.7871  0.1864
   86SLPC   H7R 8236   1.019   3.583   3.942 -0.7372 -1.5207  1.7610
   86SLPC   H7S 8237   0.854   3.649   4.012 -0.3870  1.1961  1.5042
   86SLPC   C28 8238   1.004   3.572   4.149  0.1770  0.3398 -0.3200
   86SLPC   H8R 8239   1.108   3.602   4.175  0.7241 -2.5319  1.2774
   86SLPC   H8S 8240   1.010   3.464   4.122 -1.0046 -0.4310  2.2578
   86SLPC   C29 8241   0.902   3.601   4.264 -0.8729  0.7963  0.3707
   86SLPC   H9R 8242   0.802   3.571   4.231  0.4213 -1.8848 -1.4299
   86SLPC  C210 8243   0.931   3.648   4.388 -0.4394  0.1231 -0.0870
   86SLPC  H10R 8244   0.851   3.680   4.456 -0.4722 -1.5595  0.7159
   86SLPC  C211 8245   1.069   3.691   4.436  0.0208  0.4782  0.1594
   86SLPC  H11R 8246   1.055   3.793   4.477 -0.2671  0.4683  0.0893
   86SLPC  H11S 8247   1.148   3.702   4.359  1.1073  0.8173  1.2903
   86SLPC  C212 8248   1.121   3.588   4.537 -0.0900 -0.5063  0.7585
   86SLPC  H12R 8249   1.173   3.500   4.495  1.4216  0.2455  0.9858
   86SLPC  C213 8250   1.087   3.584   4.670 -0.4865  0.3384  0.2110
   86SLPC  H13R 8251   1.117   3.501   4.737 -2.1238 -1.4117 -1.1027
   86SLPC  C214 8252   1.014   3.697   4.738  0.2575 -0.0370 -0.1551
   86SLPC  H14R 8253   0.927   3.655   4.792  0.3219  0.2843  0.2076
   86SLPC  H14S 8254   0.978   3.784   4.677 -1.7901 -1.6758 -1.4330
   86SLPC  C215 8255   1.119   3.763   4.835 -0.7606  0.0307 -0.2594
   86SLPC  H15R 8256   1.077   3.855   4.882  0.8986  1.5409 -1.5765
   86SLPC  H15S 8257   1.211   3.798   4.784 -0.0707 -1.2498  0.0808
   86SLPC  C216 8258   1.153   3.665   4.948  0.0545  0.0089  0.2177
   86SLPC  H16R 8259   1.211   3.725   5.022 -0.0330 -0.6123  0.8014
   86SLPC  H16S 8260   1.219   3.584   4.910 -0.6302  0.3586 -1.8389
   86SLPC  C217 8261   1.030   3.615   5.038 -0.1401  0.4794  0.1957
   86SLPC  H17R 8262   0.951   3.577   4.970  0.4585 -1.0263  0.3092
   86SLPC  H17S 8263   0.989   3.702   5.093 -0.8666 -0.1419  0.6704
   86SLPC  C218 8264   1.068   3.507   5.137 -0.3501  0.2203 -0.9345
   86SLPC  H18R 8265   1.117   3.415   5.098  1.5667 -0.3760  2.4233
   86SLPC  H18S 8266   0.977   3.476   5.194  0.7763  2.1780  2.2360
   86SLPC  H18T 8267   1.141   3.553   5.207 -0.4698  1.5755 -1.6789
   86SLPC   C33 8268   0.263   4.688   3.656  0.1800 -0.1717  0.7190
   86SLPC   H3X 8269   0.175   4.645   3.707 -0.8280 -1.5542 -2.0005
   86SLPC   H3Y 8270   0.234   4.709   3.551 -1.2207 -2.9895  0.4748
   86SLPC   C34 8271   0.305   4.819   3.724  0.2340 -0.2729 -0.0618
   86SLPC   H4X 8272   0.223   4.889   3.749  2.6688  1.9635  2.2461
   86SLPC   H4Y 8273   0.378   4.868   3.656 -0.2567 -1.8173 -1.7890
   86SLPC   C35 8274   0.391   4.803   3.852  0.9705 -0.1714  0.4323
   86SLPC   H5X 8275   0.414   4.906   3.888  1.7283  0.6973 -2.2483
   86SLPC   H5Y 8276   0.483   4.746   3.827  1.2471  0.5455 -0.2374
   86SLPC   C36 8277   0.310   4.725   3.957  0.1009 -0.3428  0.1161
   86SLPC   H6X 8278   0.289   4.621   3.924 -1.2061  0.1169 -0.5783
   86SLPC   H6Y 8279   0.213   4.777   3.969 -1.4464 -3.3299  1.6141
   86SLPC   C37 8280   0.369   4.726   4.099 -0.2802  0.6523 -0.4336
   86SLPC   H7X 8281   0.348   4.824   4.146  0.1971  0.1089  0.9529
   86SLPC   H7Y 8282   0.478   4.709   4.084 -0.3953  0.2864 -0.8923
   86SLPC   C38 8283   0.307   4.609   4.188  0.7580 -0.2827  0.0086
   86SLPC   H8X 8284   0.328   4.511   4.140  0.3369 -0.3234 -0.0945
   86SLPC   H8Y 8285   0.198   4.628   4.195  0.3846 -2.5475  1.1873
   86SLPC   C39 8286   0.366   4.602   4.330  0.6632 -0.1767 -0.7806
   86SLPC   H9X 8287   0.475   4.624   4.330  0.0426  3.5712 -0.8083
   86SLPC   H9Y 8288   0.343   4.503   4.373  1.0061  0.6856  1.5425
   86SLPC  C310 8289   0.296   4.697   4.422  0.2598 -0.1305  0.6250
   86SLPC  H10X 8290   0.186   4.680   4.431 -0.5274  2.5281 -2.2155
   86SLPC  H10Y 8291   0.310   4.796   4.374  4.9958 -0.9807 -0.2564
   86SLPC  C311 8292   0.351   4.705   4.560  0.0772 -0.6384 -0.6101
   86SLPC  H11X 8293   0.462   4.712   4.551 -0.0226  0.7839 -0.9403
   86SLPC  H11Y 8294   0.335   4.608   4.613 -0.6109  0.8226  2.0282
   86SLPC  C312 8295   0.305   4.829   4.636 -0.2886 -0.0973 -0.4236
   86SLPC  H12X 8296   0.195   4.831   4.648 -0.2721  2.3785 -0.1770
   86SLPC  H12Y 8297   0.336   4.925   4.589 -0.2224  0.4566  0.7326
   86SLPC  C313 8298   0.367   4.818   4.778 -0.0596 -0.4219  0.2154
   86SLPC  H13X 8299   0.474   4.790   4.783  0.2110  0.4435 -0.5272
   86SLPC  H13Y 8300   0.316   4.739   4.838 -0.1671 -0.3115  0.2697
   86SLPC  C314 8301   0.343   4.946   4.868 -0.2950 -0.5944 -0.1353
   86SLPC  H14X 8302   0.233   4.953   4.859 -0.4408 -2.2765 -0.0561
   86SLPC  H14Y 8303   0.392   5.043   4.844  1.5302 -2.0440 -2.8224
   86SLPC  C315 8304   0.386   4.914   5.019  0.5818 -0.4324  0.3540
   86SLPC  H15X 8305   0.489   4.872   5.021 -0.6348 -3.8284 -0.7357
   86SLPC  H15Y 8306   0.325   4.825   5.047 -0.9091  0.1659 -0.8550
   86SLPC  C316 8307   0.363   5.035   5.113  0.0882 -0.4674 -1.0985
   86SLPC  H16X 8308   0.278   5.094   5.074 -0.9722 -1.4104 -0.2678
   86SLPC  H16Y 8309   0.452   5.102   5.118 -0.6259  0.4440 -0.5464
   86SLPC  C317 8310   0.339   4.997   5.266  0.8201 -0.2289 -0.0672
   86SLPC  H17X 8311   0.435   4.955   5.303  1.6876  2.0208  0.4036
   86SLPC  H17Y 8312   0.266   4.913   5.265 -2.6479  2.5345 -1.6815
   86SLPC  C318 8313   0.289   5.114   5.357 -0.5574 -0.4991 -0.5948
   86SLPC  H18X 8314   0.243   5.198   5.300 -0.2590 -0.0405 -0.1766
   86SLPC  H18Y 8315   0.376   5.146   5.419 -0.6753 -1.9419  0.3584
   86SLPC  H18Z 8316   0.211   5.085   5.430  0.5316  0.1355  0.8926
   87SLPC     N 8317   4.915   5.212   2.839  0.2825 -0.1208  0.0937
   87SLPC   C13 8318   4.870   5.257   2.702 -0.1159  0.2498 -0.5721
   87SLPC  H13A 8319   4.870   5.176   2.630 -1.1200 -0.8596  0.6225
   87SLPC  H13B 8320   4.767   5.288   2.711 -0.6537 -1.1814 -1.4591
   87SLPC  H13C 8321   4.928   5.343   2.670  0.5669  0.2140  0.5241
   87SLPC   C14 8322   5.044   5.146   2.844 -0.0838 -0.1713 -0.3738
   87SLPC  H14A 8323   5.114   5.218   2.805 -0.8366  1.0092  0.4090
   87SLPC  H14B 8324   5.079   5.136   2.945 -0.3718  1.1506 -0.1237
   87SLPC  H14C 8325   5.044   5.055   2.785  1.5802 -0.5177  0.1184
   87SLPC   C15 8326   4.809   5.103   2.876  0.2541  0.0911  0.1264
   87SLPC  H15A 8327   4.829   5.060   2.972 -2.8112 -2.5395 -0.2784
   87SLPC  H15B 8328   4.710   5.146   2.882 -0.8233 -1.8161 -2.2364
   87SLPC  H15C 8329   4.801   5.026   2.801 -3.3680  0.4224  0.0145
   87SLPC   C12 8330   4.908   5.324   2.944 -0.4918 -0.6395 -0.2284
   87SLPC  H12A 8331   4.806   5.362   2.946 -0.1670  0.2450  0.2428
   87SLPC  H12B 8332   4.974   5.401   2.906 -0.3988 -1.4271 -1.7313
   87SLPC   C11 8333   4.946   5.297   3.087  0.1607 -0.1260 -0.4175
   87SLPC  H11A 8334   4.908   5.196   3.111  0.4792 -0.4097 -1.0658
   87SLPC  H11B 8335   4.906   5.382   3.146  3.0599  1.6352 -0.7755
   87SLPC     P 8336   5.161   5.232   3.215  0.0251  0.0048  0.7672
   87SLPC   O13 8337   5.123   5.088   3.189  0.1603  0.0206 -0.0822
   87SLPC   O14 8338   5.305   5.257   3.222 -0.4175 -0.5194  0.2528
   87SLPC   O12 8339   5.092   5.304   3.100 -0.1952  0.2019 -0.2134
   87SLPC   O11 8340   5.107   5.279   3.355  0.2692 -0.3972  0.0140
   87SLPC    C1 8341   5.117   5.416   3.387  0.0908 -0.1828 -0.5185
   87SLPC    HA 8342   5.221   5.444   3.415 -0.1260  0.8555 -0.7361
   87SLPC    HB 8343   5.082   5.483   3.306  0.3864 -1.4791 -1.7582
   87SLPC    C2 8344   5.025   5.446   3.517 -0.0155 -0.4847  0.1712
   87SLPC    HS 8345   5.031   5.556   3.528 -1.6324 -0.3761  0.1423
   87SLPC   O21 8346   5.082   5.368   3.633 -0.3119 -0.4815 -0.2735
   87SLPC   C21 8347   5.172   5.437   3.696 -0.1326  0.1472 -0.4054
   87SLPC   O22 8348   5.217   5.552   3.674  0.0874 -0.4795  0.0964
   87SLPC   C22 8349   5.235   5.358   3.816  0.6735 -1.0734 -0.7444
   87SLPC   H2R 8350   5.294   5.277   3.767  0.6046 -1.4217 -0.2639
   87SLPC   H2S 8351   5.300   5.435   3.861 -1.8074 -0.1970  1.5956
   87SLPC    C3 8352   4.877   5.411   3.494  0.3020  0.4592 -0.4878
   87SLPC    HX 8353   4.862   5.308   3.455 -0.2620  0.8483 -1.3382
   87SLPC    HY 8354   4.829   5.474   3.415 -1.7428  2.2724  2.0348
   87SLPC   O31 8355   4.804   5.421   3.623  1.0224  0.0669  0.2330
   87SLPC   C31 8356   4.737   5.537   3.646 -0.2217 -0.0634  0.5101
   87SLPC   O32 8357   4.740   5.631   3.563  0.0263  0.3316  0.5012
   87SLPC   C32 8358   4.678   5.536   3.783  0.7747 -0.5239 -0.1355
   87SLPC   H2X 8359   4.600   5.459   3.803 -1.2197  1.2733 -0.5077
   87SLPC   H2Y 8360   4.622   5.633   3.781  1.0932 -0.3376 -2.0318
   87SLPC   C23 8361   5.126   5.316   3.924  0.0345 -0.0052 -0.4560
   87SLPC   H3R 8362   5.047   5.255   3.875  0.2352  0.1093 -0.9348
   87SLPC   H3S 8363   5.072   5.402   3.968  0.0969  0.9238 -2.0855
   87SLPC   C24 8364   5.181   5.222   4.033 -0.7890 -0.2023 -0.8811
   87SLPC   H4R 8365   5.215   5.127   3.986 -0.8205 -0.1806 -0.9495
   87SLPC   H4S 8366   5.101   5.187   4.101  0.0601 -1.1187 -0.3338
   87SLPC   C25 8367   5.277   5.294   4.138 -0.6402  0.2559 -0.6080
   87SLPC   H5R 8368   5.332   5.361   4.068  1.7342 -1.0754 -0.1078
   87SLPC   H5S 8369   5.344   5.218   4.184 -0.7389  0.3927 -0.2408
   87SLPC   C26 8370   5.202   5.359   4.257  0.8633  0.3592 -0.0484
   87SLPC   H6R 8371   5.158   5.281   4.323  0.2163  1.0340  0.3270
   87SLPC   H6S 8372   5.128   5.429   4.212  3.1066  1.5614 -2.0864
   87SLPC   C27 8373   5.309   5.428   4.339  0.5017  0.3921  0.1381
   87SLPC   H7R 8374   5.375   5.490   4.275  0.9890  1.1876  1.3520
   87SLPC   H7S 8375   5.373   5.346   4.378  1.1840  0.3140 -1.0928
   87SLPC   C28 8376   5.254   5.527   4.446 -0.0839 -0.1952 -1.0310
   87SLPC   H8R 8377   5.193   5.473   4.521  0.5462  2.1733  1.3416
   87SLPC   H8S 8378   5.186   5.595   4.390 -3.0386 -2.2273 -0.1247
   87SLPC   C29 8379   5.361   5.613   4.510  0.4141  0.1705  0.7061
   87SLPC   H9R 8380   5.432   5.665   4.445  0.2330  1.2795  1.3630
   87SLPC  C210 8381   5.388   5.615   4.644 -0.1434 -0.1087  0.1845
   87SLPC  H10R 8382   5.484   5.663   4.669  0.2354 -0.9351  0.3341
   87SLPC  C211 8383   5.313   5.543   4.754 -0.0343  0.1665 -0.0873
   87SLPC  H11R 8384   5.309   5.432   4.750 -1.1980  0.2024 -0.3541
   87SLPC  H11S 8385   5.207   5.571   4.738 -0.9375 -2.6960  0.3995
   87SLPC  C212 8386   5.351   5.580   4.898 -0.1240 -0.4604  0.1126
   87SLPC  H12R 8387   5.398   5.679   4.912  0.4870 -0.9484  1.8251
   87SLPC  C213 8388   5.371   5.496   5.004  0.0776  0.7612  0.2101
   87SLPC  H13R 8389   5.426   5.533   5.092  0.4280  0.7577 -0.0032
   87SLPC  C214 8390   5.321   5.360   5.013 -0.1338 -0.0713  0.0582
   87SLPC  H14R 8391   5.406   5.304   4.969 -0.2658  1.0790 -1.7713
   87SLPC  H14S 8392   5.231   5.330   4.956  0.3453 -3.5333  0.8713
   87SLPC  C215 8393   5.284   5.308   5.152  0.2236  0.2971 -0.2529
   87SLPC  H15R 8394   5.356   5.343   5.228 -0.0554  1.5949 -0.5635
   87SLPC  H15S 8395   5.274   5.197   5.153  3.0309 -0.0179  0.1639
   87SLPC  C216 8396   5.151   5.378   5.202 -0.1656 -0.1682  0.5749
   87SLPC  H16R 8397   5.069   5.358   5.130 -0.0930 -1.4362  0.8142
   87SLPC  H16S 8398   5.168   5.486   5.185 -0.1824  0.0251  1.7092
   87SLPC  C217 8399   5.110   5.342   5.348  0.5108 -0.1299  0.4279
   87SLPC  H17R 8400   5.200   5.340   5.413  1.4696 -3.4753 -0.7992
   87SLPC  H17S 8401   5.066   5.243   5.370  0.9418 -0.0649  1.6502
   87SLPC  C218 8402   5.005   5.435   5.409  0.5660 -0.5105 -0.1855
   87SLPC  H18R 8403   4.922   5.433   5.335  0.3507 -2.3533  0.0629
   87SLPC  H18S 8404   5.033   5.541   5.423 -1.5045 -0.2371  3.0194
   87SLPC  H18T 8405   4.966   5.402   5.508 -1.4820  0.3448 -0.6524
   87SLPC   C33 8406   4.781   5.529   3.896  0.4028  0.1391 -0.2895
   87SLPC   H3X 8407   4.863   5.605   3.892  1.2028 -0.3726  3.2880
   87SLPC   H3Y 8408   4.840   5.435   3.892  1.3783  0.7548 -0.8713
   87SLPC   C34 8409   4.716   5.527   4.033  0.3670  0.3591 -0.1501
   87SLPC   H4X 8410   4.643   5.443   4.028  1.1903 -0.3833  0.0793
   87SLPC   H4Y 8411   4.667   5.625   4.054 -0.8829 -0.5966  1.7449
   87SLPC   C35 8412   4.802   5.488   4.157  0.2712 -0.6027 -0.1289
   87SLPC   H5X 8413   4.898   5.544   4.155 -0.0157 -0.1262 -1.8803
   87SLPC   H5Y 8414   4.833   5.383   4.141 -1.3750 -1.0255 -0.7330
   87SLPC   C36 8415   4.736   5.514   4.295  0.0014 -0.4788 -0.5323
   87SLPC   H6X 8416   4.629   5.484   4.299 -0.0558 -0.1426  1.0065
   87SLPC   H6Y 8417   4.743   5.624   4.305  0.6269 -0.5043 -0.6654
   87SLPC   C37 8418   4.818   5.449   4.405  0.1426  0.5555  0.0973
   87SLPC   H7X 8419   4.919   5.494   4.418 -0.7092  2.1626  1.4337
   87SLPC   H7Y 8420   4.815   5.344   4.368 -2.0002  1.3454 -2.2991
   87SLPC   C38 8421   4.768   5.449   4.549 -0.6047  0.2159 -0.4301
   87SLPC   H8X 8422   4.663   5.413   4.553 -0.0870 -1.2716  1.4197
   87SLPC   H8Y 8423   4.767   5.552   4.590  1.7889  0.0423  0.1727
   87SLPC   C39 8424   4.853   5.374   4.649 -0.5349  0.4216  0.4759
   87SLPC   H9X 8425   4.962   5.392   4.636 -0.2392  0.7180  2.7810
   87SLPC   H9Y 8426   4.841   5.264   4.644  0.4428  0.2531  1.2605
   87SLPC  C310 8427   4.816   5.419   4.792 -0.8238  0.3845 -0.3964
   87SLPC  H10X 8428   4.815   5.530   4.787  3.0167  0.4837 -1.9704
   87SLPC  H10Y 8429   4.893   5.382   4.863 -1.1468  1.8969  0.7886
   87SLPC  C311 8430   4.684   5.366   4.838  0.0956  0.3769 -0.2309
   87SLPC  H11X 8431   4.702   5.260   4.867  0.2707  1.1224  2.6162
   87SLPC  H11Y 8432   4.598   5.365   4.767 -0.7775 -0.7954  0.8049
   87SLPC  C312 8433   4.640   5.458   4.952 -0.0427  0.4029 -0.4770
   87SLPC  H12X 8434   4.623   5.563   4.919  0.4277  0.9440  0.8979
   87SLPC  H12Y 8435   4.730   5.471   5.017 -1.6665  2.5053  1.5404
   87SLPC  C313 8436   4.532   5.393   5.038 -0.2887  0.0405 -0.0329
   87SLPC  H13X 8437   4.572   5.296   5.075  1.0575  0.9745  1.0899
   87SLPC  H13Y 8438   4.438   5.377   4.981 -0.8892  0.6527  0.7526
   87SLPC  C314 8439   4.502   5.470   5.166 -0.4956  0.0414 -0.0648
   87SLPC  H14X 8440   4.436   5.555   5.139  0.6426  0.2081 -2.5326
   87SLPC  H14Y 8441   4.593   5.513   5.212  0.0848 -0.1379 -1.0317
   87SLPC  C315 8442   4.415   5.385   5.265  0.2092 -0.9105  0.3271
   87SLPC  H15X 8443   4.323   5.349   5.214  0.4791  1.5100 -2.1514
   87SLPC  H15Y 8444   4.386   5.454   5.347 -0.8725 -0.4303 -0.4267
   87SLPC  C316 8445   4.495   5.270   5.330 -0.0968 -0.0210 -0.3674
   87SLPC  H16X 8446   4.503   5.196   5.248 -0.3741 -0.6840  0.1858
   87SLPC  H16Y 8447   4.430   5.220   5.405 -0.6449 -1.4521 -1.7453
   87SLPC  C317 8448   4.635   5.293   5.386  0.1482  0.3702 -0.6281
   87SLPC  H17X 8449   4.689   5.364   5.319 -2.0626  0.5901 -2.2897
   87SLPC  H17Y 8450   4.695   5.200   5.396  0.8026  0.8240 -0.2453
   87SLPC  C318 8451   4.631   5.351   5.523 -0.7147  0.2982 -0.5863
   87SLPC  H18X 8452   4.731   5.394   5.542 -1.2808  1.3356  0.0958
   87SLPC  H18Y 8453   4.599   5.274   5.598 -1.7531 -0.9317 -2.2167
   87SLPC  H18Z 8454   4.567   5.439   5.543 -0.4484  0.0589  1.5345
   88SLPC     N 8455   1.618   5.065   2.878  0.2879 -0.0644  0.5428
   88SLPC   C13 8456   1.603   4.926   2.936  0.1841  0.5094  0.4739
   88SLPC  H13A 8457   1.608   4.849   2.861  1.4103  1.0717 -0.0321
   88SLPC  H13B 8458   1.682   4.904   3.006  1.0028  0.9531 -0.2865
   88SLPC  H13C 8459   1.509   4.916   2.989  0.3684  2.6433  1.3281
   88SLPC   C14 8460   1.504   5.086   2.784  0.4031 -0.3806 -0.5793
   88SLPC  H14A 8461   1.516   5.178   2.729 -0.4800 -1.0925 -2.0241
   88SLPC  H14B 8462   1.514   5.010   2.708 -0.5349 -1.4634  0.3419
   88SLPC  H14C 8463   1.409   5.078   2.835  0.0633 -0.2869 -1.1821
   88SLPC   C15 8464   1.745   5.077   2.801  0.3704 -0.1077 -1.0506
   88SLPC  H15A 8465   1.826   5.041   2.862 -1.1019  0.9773  1.7377
   88SLPC  H15B 8466   1.756   5.006   2.721  0.0805 -1.4444  0.0466
   88SLPC  H15C 8467   1.767   5.181   2.785  1.0356  0.1192  0.9756
   88SLPC   C12 8468   1.625   5.163   2.988  0.4357 -0.4680 -0.5702
   88SLPC  H12A 8469   1.538   5.145   3.050  0.8739 -0.1646  0.1404
   88SLPC  H12B 8470   1.611   5.258   2.940  0.0930 -0.7732 -1.0852
   88SLPC   C11 8471   1.747   5.170   3.081 -1.0229  0.2061  0.0545
   88SLPC  H11A 8472   1.744   5.261   3.144  2.2699  1.1655 -0.9489
   88SLPC  H11B 8473   1.838   5.198   3.023 -0.5496 -1.4696 -0.0690
   88SLPC     P 8474   1.713   5.037   3.301  0.3598 -0.2223 -0.1779
   88SLPC   O13 8475   1.575   5.082   3.307 -0.0774  0.5601 -0.3568
   88SLPC   O14 8476   1.733   4.890   3.333 -0.8572 -0.3374  0.0516
   88SLPC   O12 8477   1.762   5.047   3.152  0.1630  0.1003  0.6641
   88SLPC   O11 8478   1.800   5.137   3.391 -0.1481  0.3326  0.1800
   88SLPC    C1 8479   1.747   5.258   3.442 -0.4817 -0.4423  0.8515
   88SLPC    HA 8480   1.713   5.320   3.357  0.5245 -1.1440 -0.1028
   88SLPC    HB 8481   1.654   5.240   3.500  0.3009 -0.5362  2.0967
   88SLPC    C2 8482   1.850   5.320   3.544  0.0728 -0.1342 -0.1564
   88SLPC    HS 8483   1.950   5.325   3.494  1.3055 -1.6003  2.0135
   88SLPC   O21 8484   1.851   5.222   3.653 -0.2943  0.3237  0.3493
   88SLPC   C21 8485   1.955   5.236   3.741 -0.5664  0.0798  0.1482
   88SLPC   O22 8486   2.056   5.282   3.704 -0.6125  0.5127 -0.0688
   88SLPC   C22 8487   1.924   5.176   3.876  0.0094 -0.2811  0.2267
   88SLPC   H2R 8488   1.831   5.115   3.872 -0.2898  0.0485  1.7251
   88SLPC   H2S 8489   2.012   5.112   3.901 -0.1359 -0.4110  0.4100
   88SLPC    C3 8490   1.811   5.463   3.598  0.4168  0.2341  0.2669
   88SLPC    HX 8491   1.714   5.452   3.650  0.1318 -0.7389 -0.4396
   88SLPC    HY 8492   1.790   5.537   3.518 -1.7668  0.7134  1.2047
   88SLPC   O31 8493   1.898   5.526   3.696 -0.2886  0.2672 -0.3490
   88SLPC   C31 8494   1.995   5.589   3.630 -0.2534  0.4604 -0.6858
   88SLPC   O32 8495   2.016   5.576   3.512  0.1017 -0.1349 -0.5378
   88SLPC   C32 8496   2.091   5.658   3.736 -0.6631  0.1053  0.3627
   88SLPC   H2X 8497   2.146   5.726   3.667 -1.1890 -0.5780 -0.7646
   88SLPC   H2Y 8498   2.156   5.585   3.791  0.4867  0.7784 -0.0552
   88SLPC   C23 8499   1.926   5.292   3.982  0.2610 -0.6466 -0.4806
   88SLPC   H3R 8500   1.846   5.368   3.972  1.2288  0.8140  1.8933
   88SLPC   H3S 8501   2.018   5.353   3.971  2.0757 -3.0999  0.3055
   88SLPC   C24 8502   1.927   5.238   4.131 -0.1668 -0.6363  0.6589
   88SLPC   H4R 8503   2.032   5.211   4.154  0.7313  1.8510 -0.0923
   88SLPC   H4S 8504   1.864   5.149   4.150 -0.4089 -0.8376 -0.8913
   88SLPC   C25 8505   1.882   5.359   4.224  0.0809  0.0312 -0.0452
   88SLPC   H5R 8506   1.773   5.372   4.237  0.0678 -1.6216  2.1717
   88SLPC   H5S 8507   1.914   5.459   4.189 -1.7813  0.5740 -0.2883
   88SLPC   C26 8508   1.942   5.342   4.364  0.3679  0.2710 -0.5264
   88SLPC   H6R 8509   1.948   5.233   4.383  0.4599  0.6849  2.1038
   88SLPC   H6S 8510   1.873   5.386   4.439  1.4747 -0.9903  1.3085
   88SLPC   C27 8511   2.092   5.394   4.379  0.4792 -0.7658 -0.2647
   88SLPC   H7R 8512   2.074   5.502   4.396 -0.8620 -0.5402 -2.6691
   88SLPC   H7S 8513   2.147   5.379   4.284  0.2079  1.5987 -0.8645
   88SLPC   C28 8514   2.162   5.324   4.490  0.4442  0.9291  0.5165
   88SLPC   H8R 8515   2.270   5.351   4.480  0.5392  0.8667  1.3026
   88SLPC   H8S 8516   2.168   5.217   4.462  1.0938  1.3475 -1.0804
   88SLPC   C29 8517   2.099   5.343   4.630  0.1005 -1.1004 -0.1060
   88SLPC   H9R 8518   2.093   5.446   4.667  0.3054 -0.9909 -0.3799
   88SLPC  C210 8519   2.040   5.252   4.712 -0.5767  0.6354 -0.2261
   88SLPC  H10R 8520   2.001   5.279   4.811  0.2058 -1.0043  0.5918
   88SLPC  C211 8521   2.024   5.103   4.686 -0.7771  0.2486 -0.6032
   88SLPC  H11R 8522   2.067   5.032   4.760 -0.7792 -1.2628 -2.0096
   88SLPC  H11S 8523   2.078   5.082   4.592 -1.7013 -1.7437 -0.7365
   88SLPC  C212 8524   1.875   5.080   4.666  0.1890 -0.1626 -0.1116
   88SLPC  H12R 8525   1.830   5.083   4.566 -1.9887 -1.7288  0.7429
   88SLPC  C213 8526   1.786   5.050   4.767 -0.1469  0.9911 -0.0540
   88SLPC  H13R 8527   1.681   5.040   4.735  0.3567  0.4862 -1.6608
   88SLPC  C214 8528   1.812   5.029   4.914 -0.1373  0.3779  0.6265
   88SLPC  H14R 8529   1.778   5.126   4.955  0.5136  0.7867  0.2161
   88SLPC  H14S 8530   1.922   5.033   4.928 -0.1841 -0.9628  1.5029
   88SLPC  C215 8531   1.761   4.903   4.984 -0.2552  0.0363  0.7334
   88SLPC  H15R 8532   1.650   4.903   4.979 -0.2816 -0.4828  1.2453
   88SLPC  H15S 8533   1.798   4.909   5.088  2.8438  3.0245 -0.3855
   88SLPC  C216 8534   1.818   4.767   4.930 -0.1931 -0.0367  0.9169
   88SLPC  H16R 8535   1.761   4.756   4.836  1.6160 -1.6387 -0.0515
   88SLPC  H16S 8536   1.794   4.685   5.002  0.9415 -1.1765  0.0312
   88SLPC  C217 8537   1.971   4.774   4.895  0.1770 -0.9142 -0.4500
   88SLPC  H17R 8538   2.022   4.822   4.981 -1.5551 -0.4198  0.3443
   88SLPC  H17S 8539   1.994   4.836   4.806 -0.3545 -1.0874 -0.7160
   88SLPC  C218 8540   2.057   4.643   4.890  0.1617 -0.9036 -0.9359
   88SLPC  H18R 8541   2.021   4.579   4.807  1.1050 -1.4000 -0.9819
   88SLPC  H18S 8542   2.033   4.593   4.987 -3.4392  3.2167  0.6466
   88SLPC  H18T 8543   2.167   4.655   4.884  0.0913  1.8525  1.0141
   88SLPC   C33 8544   2.020   5.748   3.838  0.3604  0.0073  0.1809
   88SLPC   H3X 8545   1.945   5.685   3.890  0.8926  0.2070  1.2338
   88SLPC   H3Y 8546   1.958   5.827   3.789 -2.0819 -0.6318  2.0132
   88SLPC   C34 8547   2.110   5.825   3.931  0.7228  0.1582  0.7267
   88SLPC   H4X 8548   2.180   5.885   3.868 -0.7862  3.2440  1.7707
   88SLPC   H4Y 8549   2.166   5.752   3.993 -2.4510 -1.9659  1.3381
   88SLPC   C35 8550   2.025   5.922   4.018  0.2502  0.4751 -0.4280
   88SLPC   H5X 8551   1.953   5.981   3.957 -1.6127 -0.6647  0.5658
   88SLPC   H5Y 8552   2.092   5.998   4.064 -0.1513  0.0837  0.8439
   88SLPC   C36 8553   1.953   5.849   4.137  1.0004  0.4687  0.0530
   88SLPC   H6X 8554   2.022   5.784   4.193  1.0760  0.5357  0.0374
   88SLPC   H6Y 8555   1.879   5.775   4.100  1.1272  0.5719 -0.4158
   88SLPC   C37 8556   1.883   5.930   4.243 -0.0722  0.7713 -1.1344
   88SLPC   H7X 8557   1.814   6.007   4.202  0.1036  0.7320 -1.5117
   88SLPC   H7Y 8558   1.962   5.977   4.305  0.7373 -0.8404 -0.9148
   88SLPC   C38 8559   1.790   5.846   4.327  0.3201  0.1681 -0.9744
   88SLPC   H8X 8560   1.859   5.770   4.371 -0.4530 -0.1719 -0.3238
   88SLPC   H8Y 8561   1.715   5.787   4.271 -1.8565  1.2708  0.5947
   88SLPC   C39 8562   1.719   5.916   4.446  0.8973 -0.1681  0.0860
   88SLPC   H9X 8563   1.644   5.989   4.408  2.3660 -0.3302 -3.5190
   88SLPC   H9Y 8564   1.793   5.977   4.501  2.1825 -1.4425 -0.1613
   88SLPC  C310 8565   1.642   5.817   4.535  0.2906  0.6282  0.5295
   88SLPC  H10X 8566   1.572   5.754   4.476  1.5041 -0.2886  0.0227
   88SLPC  H10Y 8567   1.575   5.871   4.605 -2.2277 -1.3928 -0.1459
   88SLPC  C311 8568   1.725   5.717   4.615  0.3961  0.2337  0.2101
   88SLPC  H11X 8569   1.791   5.769   4.687  1.3658  0.4617 -0.8090
   88SLPC  H11Y 8570   1.791   5.666   4.540 -2.3655  1.1513 -3.1214
   88SLPC  C312 8571   1.651   5.615   4.694  0.0918  0.7875  0.0618
   88SLPC  H12X 8572   1.566   5.569   4.639 -1.2339  0.7143  2.0318
   88SLPC  H12Y 8573   1.599   5.666   4.779 -0.1728  1.3015 -0.4042
   88SLPC  C313 8574   1.743   5.498   4.750 -0.2966 -0.8699  0.0071
   88SLPC  H13X 8575   1.802   5.456   4.665 -3.7419 -0.9140 -2.5989
   88SLPC  H13Y 8576   1.682   5.407   4.770 -0.7907 -0.4439  0.4877
   88SLPC  C314 8577   1.834   5.546   4.866 -0.0283 -0.6351  0.0584
   88SLPC  H14X 8578   1.904   5.628   4.836 -1.0020  0.0790 -0.3214
   88SLPC  H14Y 8579   1.886   5.452   4.896 -1.4941 -2.8124 -3.6180
   88SLPC  C315 8580   1.748   5.587   4.988  0.8666 -0.1424 -0.0069
   88SLPC  H15X 8581   1.653   5.529   4.999 -0.5530  1.9333 -0.6423
   88SLPC  H15Y 8582   1.701   5.686   4.971  1.6220  0.1824 -0.1954
   88SLPC  C316 8583   1.817   5.584   5.118  0.2747 -0.7354  0.2220
   88SLPC  H16X 8584   1.900   5.658   5.120 -0.9275  0.6748 -0.1735
   88SLPC  H16Y 8585   1.845   5.486   5.161  3.3042 -0.4742 -0.8753
   88SLPC  C317 8586   1.721   5.654   5.217 -0.6990 -0.0634 -0.0887
   88SLPC  H17X 8587   1.627   5.595   5.211 -1.0814  0.6383 -1.2248
   88SLPC  H17Y 8588   1.697   5.754   5.176 -2.1297  0.7381  2.4523
   88SLPC  C318 8589   1.766   5.662   5.367  0.7326  0.5175 -0.3841
   88SLPC  H18X 8590   1.681   5.706   5.423 -0.2565 -0.4771 -1.0487
   88SLPC  H18Y 8591   1.869   5.701   5.382  0.3580  1.5574 -0.3983
   88SLPC  H18Z 8592   1.779   5.556   5.395  0.0999  0.2636 -1.0093
   89SAPE     N 8593   0.693   1.815   7.520  0.1008 -0.1440 -0.0952
   89SAPE   HN1 8594   0.607   1.801   7.463 -0.8453  2.3740  0.5721
   89SAPE   HN2 8595   0.686   1.908   7.566  1.7104  0.9983 -2.0128
   89SAPE   HN3 8596   0.777   1.831   7.460  1.5353  0.6812  2.0412
   89SAPE   C12 8597   0.719   1.700   7.609 -0.1878  0.1897  0.0585
   89SAPE  H12A 8598   0.723   1.606   7.551 -2.7800  0.0901 -0.0905
   89SAPE  H12B 8599   0.630   1.697   7.676 -1.4056  0.2013 -1.5009
   89SAPE   C11 8600   0.830   1.725   7.706 -0.2399  0.3661 -0.5800
   89SAPE  H11A 8601   0.926   1.708   7.652 -0.6950 -1.9212 -0.7556
   89SAPE  H11B 8602   0.831   1.647   7.785  1.4231  0.8645 -0.0626
   89SAPE     P 8603   0.926   1.963   7.773  0.2960 -0.0752  0.1290
   89SAPE   O13 8604   0.855   2.089   7.793  0.1065 -0.1925  0.0252
   89SAPE   O14 8605   1.031   1.923   7.866 -0.3137  0.0837 -0.0538
   89SAPE   O12 8606   0.818   1.849   7.775 -0.0846 -0.7309  0.0101
   89SAPE   O11 8607   0.990   1.962   7.626  0.2320  0.3512 -0.4837
   89SAPE    C1 8608   1.055   2.082   7.579  0.6306  0.5284 -1.0570
   89SAPE    HA 8609   1.003   2.176   7.606 -2.5991 -1.0736 -1.1233
   89SAPE    HB 8610   1.160   2.071   7.614 -0.4886 -2.9146  1.8665
   89SAPE    C2 8611   1.056   2.092   7.424  0.0436 -0.0478  0.3316
   89SAPE    HS 8612   1.105   2.189   7.398 -0.8867  0.5485  0.7398
   89SAPE   O21 8613   0.927   2.098   7.367  0.3628 -0.1251  0.5090
   89SAPE   C21 8614   0.853   2.211   7.370 -0.4454 -0.0086  0.4992
   89SAPE   O22 8615   0.892   2.311   7.430  0.2204 -0.7643  0.3544
   89SAPE   C22 8616   0.712   2.182   7.313  0.1088  0.4488  0.6127
   89SAPE   H2R 8617   0.685   2.080   7.348  1.2570 -0.2027 -0.2903
   89SAPE   H2S 8618   0.639   2.254   7.356 -0.4968  0.9881 -1.2625
   89SAPE    C3 8619   1.140   1.982   7.349  0.1937 -0.3306  0.2977
   89SAPE    HX 8620   1.092   1.882   7.357  0.5441 -0.4946  0.3660
   89SAPE    HY 8621   1.234   1.986   7.408  0.1911 -2.1386  0.4730
   89SAPE   O31 8622   1.141   2.010   7.209 -0.7317  0.0203  0.1596
   89SAPE   C31 8623   1.254   2.069   7.169  0.8025 -0.1303 -0.6422
   89SAPE   O32 8624   1.337   2.120   7.243 -0.3303  0.2618  0.0044
   89SAPE   C32 8625   1.258   2.073   7.018 -0.0306  0.4730  0.3900
   89SAPE   H2X 8626   1.209   1.978   6.985 -0.5048  0.9106 -0.1989
   89SAPE   H2Y 8627   1.362   2.060   6.982 -0.2520 -0.1602 -0.0444
   89SAPE   C23 8628   0.691   2.213   7.161 -0.5201  0.4046 -0.5737
   89SAPE   H3R 8629   0.595   2.164   7.134 -1.0506  0.3532  1.2565
   89SAPE   H3S 8630   0.757   2.156   7.092  2.6318  0.3664  2.2261
   89SAPE   C24 8631   0.697   2.355   7.113 -0.0781  0.4120 -0.4718
   89SAPE   H4R 8632   0.632   2.409   7.185 -1.1451 -1.9917  0.4574
   89SAPE   H4S 8633   0.640   2.347   7.017  0.7175  1.7616 -1.0895
   89SAPE   C25 8634   0.834   2.418   7.099 -0.4455 -0.0508  0.0086
   89SAPE   H5R 8635   0.887   2.425   7.194  1.0857  0.5260 -0.8610
   89SAPE   C26 8636   0.891   2.459   6.980 -0.3083 -0.6814  0.7354
   89SAPE   H6R 8637   0.989   2.509   6.980 -1.1866  1.1586 -1.1041
   89SAPE   C27 8638   0.818   2.437   6.848 -0.8484  0.6564  0.0639
   89SAPE   H7R 8639   0.851   2.511   6.773 -2.6626  3.1655  1.5988
   89SAPE   H7S 8640   0.711   2.464   6.856 -1.0793 -0.4043  0.7093
   89SAPE   C28 8641   0.838   2.296   6.784 -0.1823 -0.7375  0.8844
   89SAPE   H8R 8642   0.933   2.255   6.819 -0.2321 -0.8726  0.8628
   89SAPE   C29 8643   0.746   2.233   6.703  0.5346  0.3161 -0.5522
   89SAPE   H9R 8644   0.775   2.130   6.675  2.6677  1.1163 -1.5104
   89SAPE  C210 8645   0.617   2.295   6.651 -0.1903 -0.5385 -0.0596
   89SAPE  H10R 8646   0.646   2.403   6.647 -0.2537 -0.5025  0.3820
   89SAPE  H10S 8647   0.531   2.292   6.722 -0.5186  1.7291 -0.2773
   89SAPE  C211 8648   0.569   2.249   6.520  0.0128  0.2255  0.5528
   89SAPE  H11R 8649   0.473   2.196   6.522 -0.2802  0.5673 -1.8408
   89SAPE  C212 8650   0.628   2.252   6.400 -0.1055 -0.6842 -0.0626
   89SAPE  H12R 8651   0.576   2.213   6.312  0.4211  0.7487 -1.0520
   89SAPE  C213 8652   0.753   2.321   6.356 -0.0094 -0.7610 -0.1375
   89SAPE  H13R 8653   0.826   2.244   6.321  0.7958  0.0937 -0.3694
   89SAPE  H13S 8654   0.803   2.369   6.442  0.4211  0.3326 -0.9645
   89SAPE  C214 8655   0.730   2.420   6.245 -0.6661 -0.0908 -0.4523
   89SAPE  H14R 8656   0.779   2.385   6.153  1.6917 -0.8775  1.0135
   89SAPE  C215 8657   0.685   2.548   6.256 -0.2264  0.1119  0.4688
   89SAPE  H15R 8658   0.676   2.600   6.160  0.7647  0.7074  0.6812
   89SAPE  C216 8659   0.635   2.616   6.378 -0.4808  0.4340  0.1640
   89SAPE  H16R 8660   0.615   2.549   6.464 -1.1590 -0.9264 -1.0101
   89SAPE  H16S 8661   0.541   2.670   6.352 -0.2338 -0.2629 -2.4602
   89SAPE  C217 8662   0.737   2.720   6.429 -0.0528  0.5381  0.1421
   89SAPE  H17R 8663   0.835   2.671   6.447 -0.7822 -0.5345  1.3901
   89SAPE  H17S 8664   0.703   2.777   6.518  0.7590  1.7722 -0.3061
   89SAPE  C218 8665   0.772   2.816   6.310  0.5495 -0.4323  0.6393
   89SAPE  H18R 8666   0.683   2.851   6.252 -1.5528 -1.2184  3.2156
   89SAPE  H18S 8667   0.829   2.757   6.235 -1.3758 -1.6675  0.0578
   89SAPE  C219 8668   0.858   2.933   6.365 -0.2736 -0.0042 -0.0688
   89SAPE  H19R 8669   0.946   2.882   6.408  1.1869  1.6199 -0.9657
   89SAPE  H19S 8670   0.801   2.983   6.446 -2.6896  0.4821 -1.9164
   89SAPE  C220 8671   0.900   3.042   6.264 -0.1552 -0.3014  0.3471
   89SAPE  H20R 8672   0.806   3.099   6.248 -0.3147 -1.0453 -1.5637
   89SAPE  H20S 8673   0.942   2.981   6.181  1.2588 -0.3073  1.0343
   89SAPE  H20T 8674   0.978   3.106   6.311 -0.7636  0.7495 -0.0299
   89SAPE   C33 8675   1.184   2.200   6.974  0.6380  0.5066 -0.3420
   89SAPE   H3X 8676   1.240   2.282   7.022  1.3869 -0.1537 -0.0596
   89SAPE   H3Y 8677   1.077   2.204   7.004  0.4994  0.1433 -0.7689
   89SAPE   C34 8678   1.204   2.228   6.822 -0.0418  0.1707  0.3379
   89SAPE   H4X 8679   1.311   2.256   6.806 -0.3770  1.4203  0.1677
   89SAPE   H4Y 8680   1.151   2.318   6.784 -0.3670 -0.4967 -0.8361
   89SAPE   C35 8681   1.168   2.102   6.728 -0.0661  0.0245 -0.3286
   89SAPE   H5X 8682   1.064   2.070   6.751  0.6773 -1.7539  0.8819
   89SAPE   H5Y 8683   1.231   2.012   6.748 -2.0065 -1.1278  0.9075
   89SAPE   C36 8684   1.164   2.135   6.577  0.2189 -0.2034  0.6912
   89SAPE   H6X 8685   1.229   2.222   6.552  0.5029 -0.9516 -1.3689
   89SAPE   H6Y 8686   1.055   2.145   6.557  0.2661 -3.6567 -2.0499
   89SAPE   C37 8687   1.191   2.018   6.481 -0.2006 -0.0289 -0.2250
   89SAPE   H7X 8688   1.145   1.924   6.517 -0.4084  0.1368 -0.0564
   89SAPE   H7Y 8689   1.300   2.003   6.468  0.5078  3.2836  1.0011
   89SAPE   C38 8690   1.144   2.043   6.342  0.4610 -0.4731 -0.4342
   89SAPE   H8X 8691   1.217   2.115   6.299  0.6651  0.3556  1.2132
   89SAPE   H8Y 8692   1.055   2.109   6.346  1.3988  0.8622 -0.8879
   89SAPE   C39 8693   1.126   1.920   6.261  0.1933  0.1877  0.2426
   89SAPE   H9X 8694   1.048   1.854   6.304  0.8237 -0.7915 -0.0751
   89SAPE   H9Y 8695   1.221   1.861   6.262  0.3519  0.4456  0.2739
   89SAPE  C310 8696   1.085   1.973   6.119 -0.3211  0.0122 -0.2157
   89SAPE  H10X 8697   1.136   2.068   6.095 -1.6512  1.3479  1.9274
   89SAPE  H10Y 8698   0.977   1.995   6.122 -0.3761 -0.3264  0.4273
   89SAPE  C311 8699   1.115   1.857   6.018  0.4747 -0.3083  0.3295
   89SAPE  H11X 8700   1.034   1.781   6.030 -0.4955  0.6188 -0.2442
   89SAPE  H11Y 8701   1.215   1.815   6.046  1.0887  0.1383 -1.0991
   89SAPE  C312 8702   1.131   1.913   5.877 -0.3379  0.7850  0.3765
   89SAPE  H12X 8703   1.185   1.834   5.820 -1.0962  0.5305 -0.0036
   89SAPE  H12Y 8704   1.205   1.995   5.884 -0.1817  0.6930 -0.1201
   89SAPE  C313 8705   1.008   1.941   5.801  0.9196 -0.9396 -0.0737
   89SAPE  H13X 8706   1.044   1.967   5.700  1.7909 -1.7556  0.0125
   89SAPE  H13Y 8707   0.963   2.030   5.850  1.1159 -1.7793  1.7428
   89SAPE  C314 8708   0.909   1.821   5.792  0.7490 -0.7708  0.6475
   89SAPE  H14X 8709   0.833   1.814   5.872  0.2108 -1.3306  0.0917
   89SAPE  H14Y 8710   0.967   1.726   5.788  0.0861 -1.1811  0.7588
   89SAPE  C315 8711   0.840   1.828   5.656 -0.0431  0.0373 -0.8826
   89SAPE  H15X 8712   0.915   1.810   5.576 -0.3152  0.0755 -1.1479
   89SAPE  H15Y 8713   0.789   1.926   5.645 -2.7080 -1.0538  0.6852
   89SAPE  C316 8714   0.728   1.733   5.644  0.3637  0.6491 -0.1737
   89SAPE  H16X 8715   0.655   1.741   5.727 -1.1425  0.1037 -1.3822
   89SAPE  H16Y 8716   0.771   1.630   5.646 -2.7897 -0.7924  0.7369
   89SAPE  C317 8717   0.659   1.741   5.505 -0.7386 -0.0979  0.2873
   89SAPE  H17X 8718   0.720   1.719   5.415  0.8528 -0.0433  1.3238
   89SAPE  H17Y 8719   0.641   1.849   5.487  1.4768  0.1066 -1.0051
   89SAPE  C318 8720   0.537   1.650   5.497  0.5532 -0.3593 -0.1068
   89SAPE  H18X 8721   0.449   1.709   5.532  0.4022 -0.5613 -0.1424
   89SAPE  H18Y 8722   0.555   1.559   5.559  0.8081 -1.7680 -2.1562
   89SAPE  H18Z 8723   0.516   1.634   5.389 -0.4559 -0.1618  0.0430
   90SAPE     N 8724   3.132   4.728   7.457 -0.1703 -0.3467  0.4023
   90SAPE   HN1 8725   3.178   4.660   7.522 -1.0576 -1.9895 -0.6407
   90SAPE   HN2 8726   3.135   4.824   7.499 -2.4142  0.2106 -0.5754
   90SAPE   HN3 8727   3.036   4.689   7.452 -0.4648  0.4185 -0.0721
   90SAPE   C12 8728   3.185   4.727   7.322 -0.1880  0.3283  0.6130
   90SAPE  H12A 8729   3.290   4.762   7.322 -0.2035  0.3919 -0.1449
   90SAPE  H12B 8730   3.110   4.788   7.266 -1.2143 -0.7817  0.7246
   90SAPE   C11 8731   3.176   4.585   7.268  0.0655  0.4950 -0.2642
   90SAPE  H11A 8732   3.206   4.582   7.161 -0.6714 -0.8074 -0.4563
   90SAPE  H11B 8733   3.072   4.548   7.259 -0.1087  0.9970 -0.3347
   90SAPE     P 8734   3.277   4.351   7.292 -0.0179  0.2427  0.4283
   90SAPE   O13 8735   3.383   4.280   7.363 -0.4337 -0.6041 -0.3734
   90SAPE   O14 8736   3.143   4.286   7.276  0.0824  0.0624 -0.1060
   90SAPE   O12 8737   3.262   4.496   7.339  0.2120 -0.6643  0.4281
   90SAPE   O11 8738   3.346   4.383   7.148  0.5568  0.3135  0.1565
   90SAPE    C1 8739   3.481   4.427   7.146  0.1201 -0.7279  0.4440
   90SAPE    HA 8740   3.488   4.529   7.190 -3.2338  0.1219 -0.7137
   90SAPE    HB 8741   3.556   4.362   7.196  2.5817  0.5984 -1.2513
   90SAPE    C2 8742   3.538   4.439   6.996  0.0382 -0.3921  0.1204
   90SAPE    HS 8743   3.648   4.453   7.005  0.2449 -0.7987 -1.4716
   90SAPE   O21 8744   3.487   4.562   6.927 -0.8770  0.5474  0.7839
   90SAPE   C21 8745   3.533   4.681   6.970  0.4492 -0.4714 -0.5746
   90SAPE   O22 8746   3.612   4.696   7.061 -0.1692  0.3600  0.0093
   90SAPE   C22 8747   3.462   4.794   6.893 -0.1193  0.0963 -0.5410
   90SAPE   H2R 8748   3.409   4.860   6.965  0.8169 -0.4950  0.7230
   90SAPE   H2S 8749   3.541   4.854   6.843 -1.8432  1.1143 -2.1680
   90SAPE    C3 8750   3.510   4.311   6.908 -0.2004  0.1167 -0.2062
   90SAPE    HX 8751   3.402   4.311   6.883  0.8149  0.7469 -5.8958
   90SAPE    HY 8752   3.543   4.225   6.970 -1.3383  1.8390  3.0200
   90SAPE   O31 8753   3.582   4.317   6.785  0.1318  0.5240  0.2820
   90SAPE   C31 8754   3.514   4.366   6.677  0.3203 -0.3799  0.6223
   90SAPE   O32 8755   3.399   4.407   6.679 -0.4286 -0.7928 -0.2332
   90SAPE   C32 8756   3.604   4.337   6.563  0.4117 -0.5455  0.3964
   90SAPE   H2X 8757   3.626   4.228   6.566 -0.3460 -0.7041  2.9013
   90SAPE   H2Y 8758   3.700   4.389   6.584  1.9880 -3.0836 -0.1766
   90SAPE   C23 8759   3.382   4.751   6.770  0.2989 -0.4572 -0.2379
   90SAPE   H3R 8760   3.291   4.695   6.803 -0.9137  1.7852  0.4428
   90SAPE   H3S 8761   3.449   4.687   6.709  1.2640  1.0872 -0.8335
   90SAPE   C24 8762   3.322   4.872   6.692 -0.0394 -0.1193  0.5002
   90SAPE   H4R 8763   3.283   4.944   6.767 -1.6369 -2.1546  1.7330
   90SAPE   H4S 8764   3.236   4.838   6.630  0.9913  1.6295 -2.0468
   90SAPE   C25 8765   3.405   4.935   6.586 -0.1077  0.0750 -0.0109
   90SAPE   H5R 8766   3.500   4.966   6.633 -0.7042  0.4717  0.9559
   90SAPE   C26 8767   3.398   4.941   6.453 -0.1498 -0.9611  0.4953
   90SAPE   H6R 8768   3.469   4.998   6.391 -2.7797  1.6075 -0.4244
   90SAPE   C27 8769   3.277   4.903   6.378  0.0577  0.5094  0.0787
   90SAPE   H7R 8770   3.271   4.964   6.285  2.1960  1.4540  0.4823
   90SAPE   H7S 8771   3.182   4.939   6.423  0.5856  0.8767  0.9302
   90SAPE   C28 8772   3.248   4.755   6.350  0.5191  0.0786 -0.0470
   90SAPE   H8R 8773   3.245   4.705   6.448 -0.3292 -1.1246 -0.6636
   90SAPE   C29 8774   3.239   4.696   6.231 -0.2714  0.0311 -0.1188
   90SAPE   H9R 8775   3.216   4.589   6.242 -2.9283  0.7733  2.8936
   90SAPE  C210 8776   3.255   4.760   6.098  0.1740 -0.2761  0.2405
   90SAPE  H10R 8777   3.361   4.737   6.075  0.5539  0.7363  0.8999
   90SAPE  H10S 8778   3.248   4.871   6.098 -1.6453 -0.3607 -0.4158
   90SAPE  C211 8779   3.164   4.717   5.989  0.2990  0.5712 -0.0993
   90SAPE  H11R 8780   3.068   4.684   6.032  1.1645 -3.5117 -0.8777
   90SAPE  C212 8781   3.183   4.701   5.858 -0.3263  0.2354  0.2593
   90SAPE  H12R 8782   3.101   4.668   5.793  0.4936 -1.0696 -0.1485
   90SAPE  C213 8783   3.308   4.739   5.791  0.0325 -0.0334 -0.6219
   90SAPE  H13R 8784   3.394   4.692   5.843  0.4018  0.2426 -0.9751
   90SAPE  H13S 8785   3.310   4.850   5.797 -1.2218  0.0379 -1.1793
   90SAPE  C214 8786   3.300   4.694   5.644  0.0698 -0.1587 -0.3963
   90SAPE  H14R 8787   3.285   4.773   5.569 -2.1099 -1.6165 -1.6005
   90SAPE  C215 8788   3.326   4.573   5.600  0.1063 -0.1369  0.2954
   90SAPE  H15R 8789   3.310   4.560   5.492  0.4734  0.7618  0.1302
   90SAPE  C216 8790   3.365   4.457   5.688 -1.1859  0.3294  0.5686
   90SAPE  H16R 8791   3.299   4.372   5.660 -0.5450  0.6771 -2.3218
   90SAPE  H16S 8792   3.350   4.482   5.795 -3.3423 -1.8325  0.8719
   90SAPE  C217 8793   3.509   4.418   5.662 -0.0397  0.4561 -0.0261
   90SAPE  H17R 8794   3.536   4.344   5.741  0.0050 -0.8992 -1.2742
   90SAPE  H17S 8795   3.573   4.508   5.681  1.2551 -0.0170 -1.8643
   90SAPE  C218 8796   3.544   4.357   5.528 -0.6206  0.4482  0.3282
   90SAPE  H18R 8797   3.544   4.433   5.447  4.2827  0.6539  0.2240
   90SAPE  H18S 8798   3.480   4.267   5.514  1.3602 -1.1126  0.9233
   90SAPE  C219 8799   3.686   4.303   5.529  0.0990  0.5853 -0.1293
   90SAPE  H19R 8800   3.708   4.240   5.618 -1.9987 -0.6475 -0.4086
   90SAPE  H19S 8801   3.756   4.388   5.546  0.5319  0.2040  0.0183
   90SAPE  C220 8802   3.709   4.233   5.392  0.0638  1.0972  0.5710
   90SAPE  H20R 8803   3.811   4.191   5.403 -0.3908  0.4309  2.7142
   90SAPE  H20S 8804   3.711   4.312   5.314  1.1047  1.6934  1.1686
   90SAPE  H20T 8805   3.640   4.148   5.375  0.8392 -0.0063  2.6357
   90SAPE   C33 8806   3.549   4.383   6.425  0.3500  0.4932 -1.4378
   90SAPE   H3X 8807   3.624   4.363   6.345  0.2310  0.8202 -1.6345
   90SAPE   H3Y 8808   3.523   4.491   6.418 -0.2172  0.3557 -1.4453
   90SAPE   C34 8809   3.421   4.300   6.389 -0.1445  0.2484 -0.2893
   90SAPE   H4X 8810   3.336   4.365   6.418  0.2718  0.6354  0.0719
   90SAPE   H4Y 8811   3.418   4.205   6.448 -2.8893 -0.1052 -0.8413
   90SAPE   C35 8812   3.420   4.261   6.244  0.8171 -0.2798  0.3949
   90SAPE   H5X 8813   3.490   4.176   6.229  0.8409 -0.1356 -0.3453
   90SAPE   H5Y 8814   3.464   4.338   6.177  0.0088  0.4020  0.6226
   90SAPE   C36 8815   3.285   4.204   6.207  0.1488  0.6092 -0.2894
   90SAPE   H6X 8816   3.209   4.256   6.270  0.9566  1.2078  0.1976
   90SAPE   H6Y 8817   3.279   4.093   6.215  1.0645  0.4846 -1.1282
   90SAPE   C37 8818   3.260   4.236   6.056 -0.5170 -0.1349 -0.3593
   90SAPE   H7X 8819   3.334   4.188   5.988 -1.9978 -1.1329 -1.3322
   90SAPE   H7Y 8820   3.284   4.344   6.053 -0.3123 -0.1426  0.6868
   90SAPE   C38 8821   3.121   4.227   5.998  0.2593  0.2488 -0.1828
   90SAPE   H8X 8822   3.069   4.306   6.056  1.6212  0.3938  0.8809
   90SAPE   H8Y 8823   3.070   4.132   6.026  0.8063  0.0789  0.2524
   90SAPE   C39 8824   3.112   4.249   5.847 -0.8292  0.1976 -0.1729
   90SAPE   H9X 8825   3.159   4.349   5.832  1.1238 -0.8473 -1.4631
   90SAPE   H9Y 8826   3.004   4.257   5.825 -1.1359 -2.4313  0.0417
   90SAPE  C310 8827   3.172   4.132   5.762  0.2570  0.4424  0.5680
   90SAPE  H10X 8828   3.154   4.036   5.814  1.7872 -1.1130 -1.5672
   90SAPE  H10Y 8829   3.282   4.146   5.762  0.0355  2.6979 -1.2207
   90SAPE  C311 8830   3.121   4.121   5.616  0.2124 -0.4883 -0.0071
   90SAPE  H11X 8831   3.194   4.062   5.557 -1.7971 -2.2599 -0.8820
   90SAPE  H11Y 8832   3.116   4.222   5.571  0.8309 -0.4698 -0.0427
   90SAPE  C312 8833   2.988   4.059   5.605  1.0407  0.3684  0.8372
   90SAPE  H12X 8834   2.909   4.115   5.659 -0.2799 -0.5594 -0.0645
   90SAPE  H12Y 8835   2.993   3.957   5.649  1.0307 -0.4629 -1.0071
   90SAPE  C313 8836   2.939   4.017   5.463 -0.0511  0.5174  0.1071
   90SAPE  H13X 8837   3.007   3.939   5.423  0.8194 -0.6297  3.4959
   90SAPE  H13Y 8838   2.947   4.100   5.390  0.1545  0.0725 -0.3768
   90SAPE  C314 8839   2.792   3.965   5.464  0.3601  0.7889 -0.3002
   90SAPE  H14X 8840   2.747   3.970   5.363 -0.1089 -0.5702 -0.1863
   90SAPE  H14Y 8841   2.726   4.031   5.525 -2.1975 -1.7327 -0.1077
   90SAPE  C315 8842   2.769   3.832   5.533 -0.1201  0.2862  1.0830
   90SAPE  H15X 8843   2.661   3.807   5.525 -0.1021  0.2149  1.0609
   90SAPE  H15Y 8844   2.786   3.838   5.643  0.8820 -0.6563  1.0038
   90SAPE  C316 8845   2.844   3.709   5.484 -0.6301  0.1394  0.6025
   90SAPE  H16X 8846   2.949   3.701   5.518 -0.8159  0.8420  1.3642
   90SAPE  H16Y 8847   2.854   3.730   5.375 -0.3008  0.3593  0.6738
   90SAPE  C317 8848   2.762   3.589   5.502 -0.1818  0.5357 -0.4941
   90SAPE  H17X 8849   2.801   3.499   5.451  0.9832  0.7452 -0.0138
   90SAPE  H17Y 8850   2.661   3.605   5.461 -0.9578  2.1520  1.8177
   90SAPE  C318 8851   2.755   3.546   5.654 -0.7282 -0.4806  0.6269
   90SAPE  H18X 8852   2.861   3.541   5.689 -1.3383 -1.2671  2.4826
   90SAPE  H18Y 8853   2.698   3.452   5.669  0.7618 -1.5377 -0.0477
   90SAPE  H18Z 8854   2.710   3.629   5.713 -0.4307  0.6293 -0.6577
   91SAPE     N 8855   6.571   1.814   8.043  0.6216 -0.3318  0.7469
   91SAPE   HN1 8856   6.671   1.790   8.060  1.1123 -1.4455 -2.8566
   91SAPE   HN2 8857   6.506   1.807   8.124 -0.4867  0.1031 -0.0894
   91SAPE   HN3 8858   6.528   1.741   7.983 -0.6064  1.0324 -0.0746
   91SAPE   C12 8859   6.548   1.949   7.978  0.7506 -0.2469 -0.3974
   91SAPE  H12A 8860   6.619   2.015   8.032  1.0893  0.0350 -1.1886
   91SAPE  H12B 8861   6.442   1.978   7.999 -0.3173 -2.2973 -2.4877
   91SAPE   C11 8862   6.559   1.937   7.836 -0.6703 -0.3067  0.8464
   91SAPE  H11A 8863   6.545   2.039   7.795  0.6531 -1.3299 -2.5658
   91SAPE  H11B 8864   6.480   1.881   7.782 -0.5130 -0.2988  0.6053
   91SAPE     P 8865   6.806   1.982   7.734  0.8938  0.1769  0.1975
   91SAPE   O13 8866   6.845   2.089   7.832 -0.5368  0.3929  0.2719
   91SAPE   O14 8867   6.915   1.900   7.678 -0.6728 -0.3417 -0.1463
   91SAPE   O12 8868   6.691   1.886   7.794 -0.4651  0.1389 -0.2771
   91SAPE   O11 8869   6.746   2.056   7.605  0.9160  0.0781  0.4873
   91SAPE    C1 8870   6.660   1.988   7.506  0.2353  0.4802 -0.2047
   91SAPE    HA 8871   6.598   1.905   7.546  0.3716 -0.0284 -1.0267
   91SAPE    HB 8872   6.587   2.064   7.474  0.1784  0.5252  0.0295
   91SAPE    C2 8873   6.734   1.966   7.371 -0.5154 -0.0756  0.3777
   91SAPE    HS 8874   6.772   1.862   7.377  0.4745  0.2879  0.5873
   91SAPE   O21 8875   6.836   2.065   7.343 -0.5111  0.1780  0.3405
   91SAPE   C21 8876   6.960   2.023   7.321  0.4681  0.2142  0.4914
   91SAPE   O22 8877   6.989   1.904   7.308  0.1433 -0.0627 -0.0097
   91SAPE   C22 8878   7.053   2.139   7.292  0.5808 -0.3739  0.5792
   91SAPE   H2R 8879   7.002   2.217   7.232 -0.1380 -2.6229 -1.9263
   91SAPE   H2S 8880   7.076   2.177   7.394 -2.1437 -1.1820  1.6065
   91SAPE    C3 8881   6.633   1.949   7.255 -0.4509 -0.0454 -0.5265
   91SAPE    HX 8882   6.592   2.052   7.258 -1.7194 -0.5529  0.2759
   91SAPE    HY 8883   6.553   1.875   7.273 -0.2303 -0.4241 -1.0631
   91SAPE   O31 8884   6.691   1.920   7.119  0.0555 -0.6759 -0.2090
   91SAPE   C31 8885   6.588   1.928   7.033  0.6477 -1.0000 -0.4567
   91SAPE   O32 8886   6.470   1.932   7.062 -0.3217 -0.0021 -0.2050
   91SAPE   C32 8887   6.643   1.955   6.892 -0.4828  1.5827 -0.0755
   91SAPE   H2X 8888   6.659   1.855   6.846  1.4283  1.1865  1.3428
   91SAPE   H2Y 8889   6.745   1.995   6.905 -0.8450  3.7153 -2.6775
   91SAPE   C23 8890   7.178   2.111   7.206  0.6652 -0.9188 -0.0300
   91SAPE   H3R 8891   7.245   2.035   7.252  2.5987 -0.8628 -2.5466
   91SAPE   H3S 8892   7.232   2.208   7.209 -0.2843 -0.4056  1.0379
   91SAPE   C24 8893   7.148   2.077   7.059 -0.1335 -0.3709  0.1157
   91SAPE   H4R 8894   7.092   2.167   7.025  0.5655  0.0592  0.0918
   91SAPE   H4S 8895   7.079   1.989   7.058  0.0486 -0.6028  2.2218
   91SAPE   C25 8896   7.265   2.056   6.963  0.6300 -0.2854  0.5709
   91SAPE   H5R 8897   7.352   2.005   7.009  0.0114 -3.5304 -1.5353
   91SAPE   C26 8898   7.248   2.056   6.833  0.1722 -0.1977 -0.1267
   91SAPE   H6R 8899   7.333   2.042   6.764 -1.7456 -0.5038 -2.5885
   91SAPE   C27 8900   7.126   2.099   6.755 -0.1633 -0.1722 -0.2268
   91SAPE   H7R 8901   7.162   2.154   6.666 -1.0986  0.3408 -0.3096
   91SAPE   H7S 8902   7.088   2.183   6.818 -1.5006 -0.1502 -1.0118
   91SAPE   C28 8903   7.012   2.008   6.725 -0.4737 -0.1986 -0.2017
   91SAPE   H8R 8904   6.946   2.000   6.813  0.7253 -0.5630  0.6915
   91SAPE   C29 8905   6.972   1.959   6.603 -0.1703 -0.4445  0.4409
   91SAPE   H9R 8906   6.892   1.884   6.597  0.0418 -0.6308 -0.1101
   91SAPE  C210 8907   7.044   1.966   6.470 -0.3996 -0.8739  0.5573
   91SAPE  H10R 8908   7.043   1.860   6.437  1.2249 -0.7679  0.0560
   91SAPE  H10S 8909   7.150   2.000   6.477 -0.2278 -0.4952 -2.5024
   91SAPE  C211 8910   6.981   2.049   6.368  0.5032 -0.2337  0.9752
   91SAPE  H11R 8911   6.883   2.013   6.334  0.8613  0.4526 -0.9773
   91SAPE  C212 8912   7.031   2.150   6.301  0.7044  0.6233  0.6764
   91SAPE  H12R 8913   6.955   2.206   6.244 -0.3964  0.8276  2.2992
   91SAPE  C213 8914   7.166   2.223   6.305 -0.2926  0.4525  0.0811
   91SAPE  H13R 8915   7.196   2.254   6.202 -1.6436  1.1950 -0.1076
   91SAPE  H13S 8916   7.246   2.151   6.334 -1.1726 -1.9115 -2.7812
   91SAPE  C214 8917   7.166   2.342   6.400  0.1572 -0.4103 -0.3271
   91SAPE  H14R 8918   7.150   2.319   6.506  0.5796  0.9376  0.0517
   91SAPE  C215 8919   7.189   2.473   6.374 -0.0732  0.7820  0.2127
   91SAPE  H15R 8920   7.164   2.544   6.454  0.1808 -1.5671  2.5357
   91SAPE  C216 8921   7.228   2.530   6.236 -0.5002  0.3723 -0.3881
   91SAPE  H16R 8922   7.309   2.468   6.191 -0.4893 -0.2343  0.4411
   91SAPE  H16S 8923   7.265   2.634   6.244  1.1355 -0.2505  0.9388
   91SAPE  C217 8924   7.103   2.525   6.149 -0.0473 -0.1383  0.1364
   91SAPE  H17R 8925   7.010   2.572   6.189 -0.6143 -2.4616  1.7366
   91SAPE  H17S 8926   7.075   2.419   6.130 -0.5348  0.1029 -0.5519
   91SAPE  C218 8927   7.129   2.578   6.011 -0.8591 -0.0125 -0.5111
   91SAPE  H18R 8928   7.228   2.540   5.979 -0.8970 -0.0622 -0.5714
   91SAPE  H18S 8929   7.133   2.689   6.015 -0.4756  0.1362 -3.1728
   91SAPE  C219 8930   7.021   2.538   5.910  0.4666 -0.0473 -0.1032
   91SAPE  H19R 8931   6.919   2.560   5.947  0.3528  1.6687 -1.3005
   91SAPE  H19S 8932   7.009   2.428   5.901 -0.6579 -0.0043  0.7173
   91SAPE  C220 8933   7.035   2.596   5.766 -0.1829 -0.1833 -0.3375
   91SAPE  H20R 8934   7.124   2.565   5.708  0.3553  0.4573  0.1192
   91SAPE  H20S 8935   7.044   2.706   5.785  2.8610 -0.5879  1.1224
   91SAPE  H20T 8936   6.952   2.568   5.698  1.6094  0.8981 -3.1405
   91SAPE   C33 8937   6.564   2.043   6.798 -0.2716 -0.4716 -0.0906
   91SAPE   H3X 8938   6.575   2.145   6.842  0.0568 -1.1666  1.5337
   91SAPE   H3Y 8939   6.456   2.018   6.809 -0.2965 -2.6544 -3.7172
   91SAPE   C34 8940   6.615   2.039   6.653  0.1081  0.2146  0.1876
   91SAPE   H4X 8941   6.615   1.936   6.613  2.1062  0.7311 -1.3060
   91SAPE   H4Y 8942   6.716   2.086   6.657 -0.4252  1.3361  2.0298
   91SAPE   C35 8943   6.532   2.121   6.552 -0.1985 -1.0868 -0.2897
   91SAPE   H5X 8944   6.529   2.223   6.595 -3.2299 -1.8046  1.5108
   91SAPE   H5Y 8945   6.428   2.083   6.560 -1.2082  1.5118 -0.1831
   91SAPE   C36 8946   6.607   2.120   6.417  0.2046  0.2400  0.1850
   91SAPE   H6X 8947   6.596   2.019   6.372  0.6828  0.3628 -0.2129
   91SAPE   H6Y 8948   6.711   2.139   6.449  0.4395  1.5258 -1.2274
   91SAPE   C37 8949   6.558   2.226   6.314 -0.0484 -0.3842  0.1343
   91SAPE   H7X 8950   6.561   2.325   6.364 -1.6789 -1.1070  1.7669
   91SAPE   H7Y 8951   6.449   2.206   6.310 -0.3303  0.6136  1.9587
   91SAPE   C38 8952   6.630   2.235   6.181  0.3663 -0.1073 -0.9585
   91SAPE   H8X 8953   6.732   2.278   6.193  0.0825  0.6661 -1.2583
   91SAPE   H8Y 8954   6.581   2.320   6.128  1.7926  2.0587  0.9964
   91SAPE   C39 8955   6.642   2.103   6.101 -0.0352 -0.4620 -0.2701
   91SAPE   H9X 8956   6.537   2.072   6.084 -0.7059  1.9494 -0.9670
   91SAPE   H9Y 8957   6.697   2.035   6.169 -1.6413 -1.0579  0.4849
   91SAPE  C310 8958   6.705   2.127   5.963  0.6361  0.8097 -0.0213
   91SAPE  H10X 8959   6.661   2.214   5.911 -2.3059  0.3756  1.4957
   91SAPE  H10Y 8960   6.657   2.049   5.899 -1.0905 -0.7127  2.8865
   91SAPE  C311 8961   6.853   2.117   5.966  0.7035 -0.1712 -0.1921
   91SAPE  H11X 8962   6.886   2.021   6.012 -2.1951 -0.4655  1.4987
   91SAPE  H11Y 8963   6.887   2.198   6.034  0.2515  0.6529 -0.9335
   91SAPE  C312 8964   6.925   2.132   5.833 -0.2468 -0.6091 -0.4644
   91SAPE  H12X 8965   6.902   2.237   5.803 -1.9233 -0.3359  1.4989
   91SAPE  H12Y 8966   6.873   2.065   5.761 -0.2360 -0.2213 -0.8363
   91SAPE  C313 8967   7.077   2.101   5.830 -0.2921  0.0382  0.7155
   91SAPE  H13X 8968   7.091   1.998   5.870 -0.4314 -1.0402 -1.8597
   91SAPE  H13Y 8969   7.133   2.175   5.890  0.5262  0.4352 -0.5101
   91SAPE  C314 8970   7.132   2.107   5.684 -0.2033 -0.0226  0.3908
   91SAPE  H14X 8971   7.092   2.019   5.631 -0.3989  0.8915 -1.0435
   91SAPE  H14Y 8972   7.242   2.092   5.687 -0.2190 -0.3860 -0.5383
   91SAPE  C315 8973   7.093   2.235   5.601 -0.0816 -0.5278 -0.3148
   91SAPE  H15X 8974   7.140   2.328   5.639  1.4346 -1.9925  1.5731
   91SAPE  H15Y 8975   6.983   2.250   5.595 -0.2534 -2.2647 -3.6871
   91SAPE  C316 8976   7.141   2.219   5.453 -0.0995  0.2591 -0.1692
   91SAPE  H16X 8977   7.111   2.305   5.390 -2.1142 -0.5690 -0.4325
   91SAPE  H16Y 8978   7.111   2.121   5.410 -1.2280  1.0005 -1.1270
   91SAPE  C317 8979   7.301   2.210   5.459  0.3139  0.4416  0.0886
   91SAPE  H17X 8980   7.329   2.118   5.514 -2.9657 -1.1351 -0.6134
   91SAPE  H17Y 8981   7.338   2.291   5.525  1.0553  0.1319  0.0603
   91SAPE  C318 8982   7.370   2.209   5.325  0.2675 -0.4133  0.2677
   91SAPE  H18X 8983   7.481   2.205   5.325  0.3781  1.2234 -1.6708
   91SAPE  H18Y 8984   7.333   2.298   5.271  2.0742 -0.1973 -0.7017
   91SAPE  H18Z 8985   7.336   2.119   5.268 -0.1431  1.5465 -2.7906
   92SAPE     N 8986   2.519   5.245   7.651 -0.2684 -1.3963  0.1047
   92SAPE   HN1 8987   2.515   5.345   7.622  0.1114 -1.3361  0.2600
   92SAPE   HN2 8988   2.426   5.222   7.693 -0.2975 -0.5826  0.4994
   92SAPE   HN3 8989   2.582   5.248   7.733  2.1135  1.3162 -1.6323
   92SAPE   C12 8990   2.592   5.166   7.553  0.7194  0.0703  0.3114
   92SAPE  H12A 8991   2.629   5.076   7.607 -1.2872 -2.1304 -1.6833
   92SAPE  H12B 8992   2.676   5.227   7.514 -0.9125  2.9890  1.0585
   92SAPE   C11 8993   2.500   5.115   7.445  0.6179  1.2054  0.1930
   92SAPE  H11A 8994   2.559   5.057   7.370 -1.2716 -1.1736  0.4462
   92SAPE  H11B 8995   2.457   5.203   7.391 -1.4507 -0.4847 -1.0925
   92SAPE     P 8996   2.239   5.070   7.480  0.1341 -0.1493  0.1901
   92SAPE   O13 8997   2.168   4.945   7.500 -0.0662 -0.3821 -0.0796
   92SAPE   O14 8998   2.207   5.185   7.565 -0.2928 -0.6027 -0.2390
   92SAPE   O12 8999   2.392   5.031   7.493  0.5874 -0.0568 -0.1411
   92SAPE   O11 9000   2.242   5.122   7.335 -0.0063  0.2210 -0.0634
   92SAPE    C1 9001   2.131   5.174   7.269  0.8236 -0.1548  0.0447
   92SAPE    HA 9002   2.040   5.115   7.294 -2.0809  3.6131 -0.8482
   92SAPE    HB 9003   2.106   5.280   7.292 -0.8310 -0.5604  0.2537
   92SAPE    C2 9004   2.161   5.157   7.111  0.1190 -0.0899  0.1738
   92SAPE    HS 9005   2.125   5.059   7.075 -0.9778  0.1021  0.6789
   92SAPE   O21 9006   2.303   5.178   7.075  0.9727 -0.0059  0.2699
   92SAPE   C21 9007   2.378   5.076   7.100  0.0941  0.1364  0.7373
   92SAPE   O22 9008   2.337   4.962   7.123  0.0912  0.1741 -0.1601
   92SAPE   C22 9009   2.524   5.110   7.073  0.0575  0.2138  0.5555
   92SAPE   H2R 9010   2.522   5.209   7.024 -0.0510 -0.1279 -0.1462
   92SAPE   H2S 9011   2.578   5.123   7.169 -0.9834  0.7550  1.0841
   92SAPE    C3 9012   2.083   5.273   7.038 -0.3209 -0.0342  0.2154
   92SAPE    HX 9013   2.128   5.369   7.070 -0.5574  0.2507 -0.2915
   92SAPE    HY 9014   1.977   5.268   7.072 -1.0430  0.1971 -1.8411
   92SAPE   O31 9015   2.099   5.256   6.901  0.0565  0.1735 -0.1514
   92SAPE   C31 9016   1.993   5.215   6.829 -0.8274  0.5710 -0.1348
   92SAPE   O32 9017   1.880   5.196   6.874  0.2986 -0.6702  0.1319
   92SAPE   C32 9018   2.029   5.185   6.688 -0.2031 -0.7428 -0.7099
   92SAPE   H2X 9019   2.032   5.075   6.683 -0.4389 -0.7561 -0.5485
   92SAPE   H2Y 9020   2.128   5.227   6.658 -1.1796  1.7815 -0.6357
   92SAPE   C23 9021   2.606   5.007   6.999  0.3861 -0.1976  0.5677
   92SAPE   H3R 9022   2.602   4.913   7.059  0.0769 -1.5551 -1.4945
   92SAPE   H3S 9023   2.708   5.052   7.003 -0.9509  3.0088  2.0555
   92SAPE   C24 9024   2.549   4.983   6.854  0.4164 -0.7439 -0.7469
   92SAPE   H4R 9025   2.438   4.980   6.856  0.4239 -0.9712 -0.6461
   92SAPE   H4S 9026   2.594   4.887   6.823  2.5944  0.1850 -0.6315
   92SAPE   C25 9027   2.608   5.098   6.767  0.5353  0.0376 -0.3616
   92SAPE   H5R 9028   2.717   5.108   6.781  0.6073 -1.1418  0.0930
   92SAPE   C26 9029   2.535   5.177   6.684  0.3449  0.4314 -0.4700
   92SAPE   H6R 9030   2.589   5.239   6.611 -0.8005 -1.0454 -2.6740
   92SAPE   C27 9031   2.385   5.204   6.687 -0.2491  0.0410  0.1461
   92SAPE   H7R 9032   2.353   5.226   6.791 -1.6272 -0.9503 -0.0464
   92SAPE   H7S 9033   2.335   5.115   6.644  2.5801 -1.2909 -0.6429
   92SAPE   C28 9034   2.351   5.330   6.605 -0.2804  0.8278 -0.0047
   92SAPE   H8R 9035   2.316   5.417   6.662 -2.3332  0.3748 -0.4952
   92SAPE   C29 9036   2.353   5.340   6.471  0.8708 -0.5521  0.8607
   92SAPE   H9R 9037   2.332   5.440   6.431  1.8400 -1.3659 -1.9036
   92SAPE  C210 9038   2.386   5.233   6.370 -0.5349 -0.5265  0.5978
   92SAPE  H10R 9039   2.296   5.169   6.357 -3.2078  2.1470  3.9371
   92SAPE  H10S 9040   2.461   5.160   6.406 -0.0030 -0.7555 -0.9118
   92SAPE  C211 9041   2.435   5.307   6.244 -0.1620  1.1153 -0.1241
   92SAPE  H11R 9042   2.538   5.343   6.244  0.7688 -1.3780  0.3335
   92SAPE  C212 9043   2.360   5.323   6.138  0.7995 -0.8183  0.4699
   92SAPE  H12R 9044   2.405   5.367   6.048  3.1262  0.6649  2.2263
   92SAPE  C213 9045   2.232   5.260   6.121 -0.0101 -0.1377  0.2451
   92SAPE  H13R 9046   2.172   5.281   6.212 -1.2564  0.1892 -0.6252
   92SAPE  H13S 9047   2.251   5.150   6.117  1.3550  0.0633  0.7811
   92SAPE  C214 9048   2.148   5.305   6.005 -0.0441  0.1161  0.1584
   92SAPE  H14R 9049   2.053   5.349   6.039  0.9608  1.8453  0.8614
   92SAPE  C215 9050   2.185   5.305   5.871  0.2511 -0.1676  0.5511
   92SAPE  H15R 9051   2.112   5.340   5.796 -1.0469 -0.7754  1.4946
   92SAPE  C216 9052   2.306   5.238   5.818 -0.0766 -0.5598  0.1531
   92SAPE  H16R 9053   2.269   5.142   5.775  0.0525 -1.7368  2.4968
   92SAPE  H16S 9054   2.379   5.223   5.901  1.2868  2.5747 -0.3585
   92SAPE  C217 9055   2.375   5.316   5.707 -0.6624  0.2916  0.3833
   92SAPE  H17R 9056   2.413   5.412   5.746 -0.0037  0.1413  0.1195
   92SAPE  H17S 9057   2.298   5.344   5.632  1.0706  2.5251 -0.6613
   92SAPE  C218 9058   2.492   5.224   5.647 -0.3191  0.4929  0.0371
   92SAPE  H18R 9059   2.444   5.144   5.587  1.6752  0.1916 -1.2702
   92SAPE  H18S 9060   2.534   5.169   5.733 -1.8215 -0.8741 -0.0528
   92SAPE  C219 9061   2.591   5.299   5.565  0.0636  0.0260  0.3222
   92SAPE  H19R 9062   2.534   5.365   5.496  0.4153 -0.2306 -0.2162
   92SAPE  H19S 9063   2.631   5.215   5.504  0.6525  0.3267  0.2879
   92SAPE  C220 9064   2.702   5.370   5.643  0.3877 -0.7526  0.6763
   92SAPE  H20R 9065   2.727   5.314   5.736 -2.9330 -0.5021  1.8192
   92SAPE  H20S 9066   2.674   5.468   5.687 -0.6506 -0.1966 -1.1254
   92SAPE  H20T 9067   2.788   5.375   5.573 -0.9677 -0.5991 -1.0214
   92SAPE   C33 9068   1.911   5.232   6.595 -0.6074 -0.3084 -0.5474
   92SAPE   H3X 9069   1.919   5.342   6.582 -1.3583 -0.2129 -0.2285
   92SAPE   H3Y 9070   1.815   5.203   6.642  0.7125 -2.7774  0.8288
   92SAPE   C34 9071   1.925   5.165   6.450  0.1001 -0.3892 -0.2493
   92SAPE   H4X 9072   1.922   5.055   6.461  1.6170 -0.5968 -1.5914
   92SAPE   H4Y 9073   2.023   5.182   6.402  0.3010  3.1870  1.0851
   92SAPE   C35 9074   1.818   5.225   6.355  0.0578  0.0975  0.3353
   92SAPE   H5X 9075   1.832   5.335   6.367 -1.9741  0.3877  0.4323
   92SAPE   H5Y 9076   1.719   5.204   6.401 -0.1066 -1.1059 -0.5067
   92SAPE   C36 9077   1.823   5.195   6.202 -0.5798 -0.4386 -0.4518
   92SAPE   H6X 9078   1.818   5.085   6.184 -1.0010 -0.6952  1.0982
   92SAPE   H6Y 9079   1.922   5.231   6.169  0.0756 -1.4706  0.3007
   92SAPE   C37 9080   1.709   5.261   6.130 -0.0514 -0.8364  0.5086
   92SAPE   H7X 9081   1.696   5.367   6.161 -0.3703 -1.2945  2.0276
   92SAPE   H7Y 9082   1.618   5.206   6.165  0.6768 -1.7103  1.0622
   92SAPE   C38 9083   1.740   5.234   5.985 -0.1677 -0.2405 -0.0664
   92SAPE   H8X 9084   1.727   5.127   5.961 -3.2788  0.4873 -2.2018
   92SAPE   H8Y 9085   1.839   5.275   5.953  0.1543 -1.1388 -0.2598
   92SAPE   C39 9086   1.638   5.306   5.888 -0.5289  0.2949 -0.2938
   92SAPE   H9X 9087   1.656   5.416   5.886  0.0639  0.2220  0.5994
   92SAPE   H9Y 9088   1.536   5.277   5.922 -0.2706  2.2165  2.3815
   92SAPE  C310 9089   1.657   5.259   5.750 -0.1378  0.7519 -0.3294
   92SAPE  H10X 9090   1.581   5.328   5.706 -1.6955 -0.6309  0.1149
   92SAPE  H10Y 9091   1.642   5.149   5.746  1.7926  0.4206  0.5023
   92SAPE  C311 9092   1.796   5.299   5.693 -0.4766  0.5205  0.2702
   92SAPE  H11X 9093   1.880   5.246   5.742 -2.3405 -1.2437  1.7467
   92SAPE  H11Y 9094   1.818   5.407   5.708  0.9170  0.6524 -2.1020
   92SAPE  C312 9095   1.807   5.272   5.542  0.0265 -0.7284 -0.7443
   92SAPE  H12X 9096   1.735   5.342   5.492 -0.4030  0.1226  0.9976
   92SAPE  H12Y 9097   1.773   5.168   5.520 -1.5845 -0.5872  0.8236
   92SAPE  C313 9098   1.941   5.294   5.492 -0.9507 -0.2999  0.5427
   92SAPE  H13X 9099   2.023   5.248   5.553 -1.2476  2.2377  3.1067
   92SAPE  H13Y 9100   1.976   5.399   5.503  0.2942 -0.6436  0.0553
   92SAPE  C314 9101   1.968   5.265   5.343 -0.0518  0.6112 -0.2539
   92SAPE  H14X 9102   1.880   5.306   5.290  0.5298  1.7992 -0.3418
   92SAPE  H14Y 9103   1.983   5.156   5.327  0.7745  0.6307  0.3030
   92SAPE  C315 9104   2.089   5.342   5.292  0.8212 -0.3237 -0.1859
   92SAPE  H15X 9105   2.179   5.303   5.343  0.5969  0.1153  0.5654
   92SAPE  H15Y 9106   2.079   5.450   5.316 -1.3817 -0.3152 -0.9548
   92SAPE  C316 9107   2.100   5.331   5.140 -0.6108  0.7191  0.6224
   92SAPE  H16X 9108   2.169   5.402   5.092 -0.7186  1.2154  1.1923
   92SAPE  H16Y 9109   1.998   5.343   5.097  0.1783  1.5158 -1.1283
   92SAPE  C317 9110   2.135   5.191   5.077 -0.1676 -0.5955  0.0128
   92SAPE  H17X 9111   2.145   5.199   4.967  1.7926 -0.8050  0.1437
   92SAPE  H17Y 9112   2.050   5.119   5.075 -1.8342  1.3084 -0.2322
   92SAPE  C318 9113   2.245   5.116   5.145  0.2187 -0.8651 -0.2744
   92SAPE  H18X 9114   2.339   5.175   5.156  0.9185 -2.2179  1.3724
   92SAPE  H18Y 9115   2.276   5.023   5.092  1.0612  0.3337 -1.9909
   92SAPE  H18Z 9116   2.214   5.096   5.249  0.8190 -1.6010 -0.2280
   93SAPE     N 9117   3.519   1.375   7.491 -0.3510  0.2601  0.5793
   93SAPE   HN1 9118   3.556   1.301   7.553  0.2503 -2.1279 -2.3611
   93SAPE   HN2 9119   3.579   1.459   7.502 -0.5567  0.1045  3.4836
   93SAPE   HN3 9120   3.426   1.400   7.530 -0.9794 -0.2945 -0.5105
   93SAPE   C12 9121   3.518   1.333   7.347 -0.0455 -0.0784  0.3790
   93SAPE  H12A 9122   3.445   1.249   7.347 -0.6003  0.4014  0.5021
   93SAPE  H12B 9123   3.617   1.294   7.312 -0.7647 -1.8122  0.1686
   93SAPE   C11 9124   3.464   1.443   7.248 -0.1357 -0.6005 -0.1331
   93SAPE  H11A 9125   3.356   1.464   7.266 -0.3656 -0.0690 -1.8910
   93SAPE  H11B 9126   3.469   1.396   7.148  1.9038  0.1851 -0.4536
   93SAPE     P 9127   3.675   1.571   7.181 -0.1777  0.0160  0.1064
   93SAPE   O13 9128   3.719   1.714   7.165  1.1023 -0.0443  0.0866
   93SAPE   O14 9129   3.766   1.475   7.245  0.0848 -0.1960 -0.1820
   93SAPE   O12 9130   3.542   1.565   7.254  0.1515  0.1995 -0.4844
   93SAPE   O11 9131   3.633   1.517   7.040  0.1971  0.6519 -0.1868
   93SAPE    C1 9132   3.539   1.586   6.957 -0.5344  0.5240  0.1894
   93SAPE    HA 9133   3.466   1.514   6.914 -0.2739  0.4696 -0.1678
   93SAPE    HB 9134   3.489   1.661   7.023  0.0961 -0.5040  1.9171
   93SAPE    C2 9135   3.612   1.651   6.839  0.3262 -0.5051 -0.4626
   93SAPE    HS 9136   3.642   1.755   6.862 -0.2096 -0.5188  0.3416
   93SAPE   O21 9137   3.511   1.654   6.729  0.7179 -0.1228 -0.6243
   93SAPE   C21 9138   3.462   1.772   6.696  0.5518 -0.1689  0.1656
   93SAPE   O22 9139   3.495   1.882   6.750 -0.8096  0.0499  0.0779
   93SAPE   C22 9140   3.373   1.760   6.571  0.3201 -0.4193  0.5766
   93SAPE   H2R 9141   3.330   1.658   6.567 -1.3551  0.2457  0.8670
   93SAPE   H2S 9142   3.291   1.835   6.577  0.4113 -0.1810 -0.8134
   93SAPE    C3 9143   3.741   1.578   6.786  0.2460 -0.2845 -0.1207
   93SAPE    HX 9144   3.708   1.474   6.764  1.1274 -0.4598 -0.6141
   93SAPE    HY 9145   3.812   1.570   6.871  0.6928 -1.5895 -0.5875
   93SAPE   O31 9146   3.798   1.643   6.670 -0.8905 -0.3084  0.5689
   93SAPE   C31 9147   3.861   1.755   6.686  0.3846  0.2725 -0.8587
   93SAPE   O32 9148   3.879   1.818   6.792  0.0193  0.2163  0.5546
   93SAPE   C32 9149   3.919   1.788   6.548  0.3785  0.7932 -0.5163
   93SAPE   H2X 9150   3.861   1.739   6.467  1.2200  0.6564 -1.0523
   93SAPE   H2Y 9151   4.016   1.734   6.552 -1.0522 -1.8717  1.4935
   93SAPE   C23 9152   3.459   1.797   6.445 -0.4882  0.1992  1.3756
   93SAPE   H3R 9153   3.534   1.716   6.429  1.9612  2.6656 -0.4760
   93SAPE   H3S 9154   3.522   1.888   6.444 -1.0097  0.7695 -3.2500
   93SAPE   C24 9155   3.376   1.792   6.306  0.3209 -0.6087  0.3702
   93SAPE   H4R 9156   3.301   1.873   6.320 -0.1404 -0.5855 -1.8737
   93SAPE   H4S 9157   3.308   1.704   6.299  1.2946 -1.4097  0.8336
   93SAPE   C25 9158   3.452   1.818   6.181 -0.5358 -0.0781  0.0577
   93SAPE   H5R 9159   3.513   1.910   6.179 -1.0021  0.2395  0.2973
   93SAPE   C26 9160   3.482   1.725   6.089 -0.3805 -0.2189 -0.2478
   93SAPE   H6R 9161   3.553   1.749   6.008  0.1582 -2.7406 -0.5895
   93SAPE   C27 9162   3.422   1.585   6.082  0.1192  0.9672 -0.0227
   93SAPE   H7R 9163   3.312   1.591   6.095  0.2068 -1.2129  2.5852
   93SAPE   H7S 9164   3.459   1.521   6.165  2.3308 -0.2973 -1.8530
   93SAPE   C28 9165   3.457   1.517   5.952 -0.2439  0.1347 -0.6772
   93SAPE   H8R 9166   3.514   1.586   5.888  0.4132  1.1910  0.9857
   93SAPE   C29 9167   3.438   1.390   5.915 -0.8365  0.3847 -0.3869
   93SAPE   H9R 9168   3.469   1.367   5.812  0.3342  3.8515 -0.9214
   93SAPE  C210 9169   3.357   1.289   5.983 -0.3086 -0.8316 -0.0835
   93SAPE  H10R 9170   3.269   1.277   5.917  0.1771  1.0871 -1.1524
   93SAPE  H10S 9171   3.314   1.324   6.080 -2.5603 -2.1922 -0.5218
   93SAPE  C211 9172   3.445   1.161   5.995 -0.1370  0.1573 -0.5595
   93SAPE  H11R 9173   3.524   1.165   6.071 -0.7854  1.5328  0.0961
   93SAPE  C212 9174   3.459   1.058   5.904 -0.0846 -0.3941 -0.2283
   93SAPE  H12R 9175   3.536   0.984   5.929  1.1392 -0.3530 -3.3803
   93SAPE  C213 9176   3.386   1.025   5.774  0.3154  0.4894 -0.2159
   93SAPE  H13R 9177   3.439   0.936   5.734 -1.4728 -0.2086 -1.1755
   93SAPE  H13S 9178   3.398   1.106   5.700  1.9557  1.4317  1.0198
   93SAPE  C214 9179   3.243   0.998   5.803 -0.3145 -0.1616  0.2339
   93SAPE  H14R 9180   3.189   1.085   5.843  0.4336  0.1941  0.4880
   93SAPE  C215 9181   3.183   0.878   5.779  0.3223 -0.5105 -0.2187
   93SAPE  H15R 9182   3.078   0.867   5.811  0.5175 -3.4103 -0.3630
   93SAPE  C216 9183   3.234   0.750   5.723 -0.5361 -0.8496  0.5358
   93SAPE  H16R 9184   3.345   0.760   5.729 -0.7024  2.3885 -0.0083
   93SAPE  H16S 9185   3.219   0.741   5.613 -1.4183 -0.7826  0.6472
   93SAPE  C217 9186   3.173   0.643   5.806 -0.1888  0.7363 -0.7232
   93SAPE  H17R 9187   3.062   0.641   5.802 -0.2068 -0.4778 -0.1274
   93SAPE  H17S 9188   3.200   0.659   5.912 -0.0183 -3.0101 -0.0644
   93SAPE  C218 9189   3.232   0.504   5.768  0.5524 -0.4645 -0.0821
   93SAPE  H18R 9190   3.338   0.517   5.739  0.1914  2.1670 -0.4496
   93SAPE  H18S 9191   3.177   0.463   5.680  0.3568 -1.6133  0.5540
   93SAPE  C219 9192   3.207   0.392   5.882  0.0334  0.5383  0.5941
   93SAPE  H19R 9193   3.249   0.294   5.850  1.2524  0.3103  2.6919
   93SAPE  H19S 9194   3.096   0.385   5.888  0.0948 -2.1863  0.0567
   93SAPE  C220 9195   3.257   0.424   6.023 -0.1419  0.2192 -0.0312
   93SAPE  H20R 9196   3.253   0.336   6.089  0.1251 -1.3520 -2.0198
   93SAPE  H20S 9197   3.182   0.492   6.069  0.2450 -0.8123  2.2630
   93SAPE  H20T 9198   3.359   0.466   6.006  0.1729  1.2661  3.5531
   93SAPE   C33 9199   3.927   1.937   6.525 -0.4864  0.0581 -0.3248
   93SAPE   H3X 9200   3.978   1.983   6.612  0.0284 -1.3208  0.1163
   93SAPE   H3Y 9201   3.824   1.978   6.535 -0.3491  0.0445  1.3830
   93SAPE   C34 9202   3.990   1.981   6.393 -0.0592 -0.2815 -0.1449
   93SAPE   H4X 9203   4.092   1.937   6.396  0.5823  0.9064 -2.3285
   93SAPE   H4Y 9204   3.994   2.091   6.387 -0.7417 -0.0383  2.5575
   93SAPE   C35 9205   3.907   1.928   6.269  0.3147 -0.1557 -0.7616
   93SAPE   H5X 9206   3.802   1.963   6.279  0.3210 -0.4674  0.4172
   93SAPE   H5Y 9207   3.907   1.817   6.275  0.2439 -0.0864  0.9523
   93SAPE   C36 9208   3.975   1.977   6.136  0.4993 -0.3333 -1.0927
   93SAPE   H6X 9209   4.083   1.954   6.139  0.4139 -0.6983  1.4688
   93SAPE   H6Y 9210   3.978   2.088   6.140 -1.6412 -0.2212 -1.4133
   93SAPE   C37 9211   3.912   1.930   6.000 -0.1931 -0.0159 -0.4057
   93SAPE   H7X 9212   3.972   1.986   5.925  2.5896 -0.3933  1.3722
   93SAPE   H7Y 9213   3.805   1.958   6.001 -0.2891 -0.3752 -0.4694
   93SAPE   C38 9214   3.912   1.779   5.992 -0.6141 -0.1285 -0.3429
   93SAPE   H8X 9215   3.834   1.733   6.056  0.6312  0.0416  1.3468
   93SAPE   H8Y 9216   4.008   1.734   6.023 -0.4227  0.1755 -0.4938
   93SAPE   C39 9217   3.886   1.731   5.849  0.6749 -0.9152  0.1079
   93SAPE   H9X 9218   3.950   1.789   5.779  1.7315 -0.9356  1.0308
   93SAPE   H9Y 9219   3.778   1.748   5.825  1.0984 -0.4491 -1.6488
   93SAPE  C310 9220   3.923   1.584   5.827  0.4895 -0.8109 -0.9284
   93SAPE  H10X 9221   3.886   1.526   5.913 -1.2191  2.9850  1.1708
   93SAPE  H10Y 9222   4.034   1.574   5.818  1.0845  2.7018  0.6184
   93SAPE  C311 9223   3.862   1.527   5.700  0.0144  0.5133 -0.1750
   93SAPE  H11X 9224   3.855   1.607   5.622 -3.4899 -2.0852 -2.8520
   93SAPE  H11Y 9225   3.757   1.504   5.725  0.1133  0.3086  0.0562
   93SAPE  C312 9226   3.947   1.412   5.634  0.5281  0.2906 -0.2872
   93SAPE  H12X 9227   4.052   1.446   5.626  0.1206  2.3061  1.8032
   93SAPE  H12Y 9228   3.900   1.386   5.536  1.6260  0.4150 -0.8630
   93SAPE  C313 9229   3.956   1.278   5.709 -0.3397 -0.4317  0.2857
   93SAPE  H13X 9230   3.858   1.237   5.740  0.1108 -1.7413  0.0313
   93SAPE  H13Y 9231   4.028   1.292   5.793 -1.1191  0.0932  0.8883
   93SAPE  C314 9232   4.018   1.168   5.620 -0.0296  0.3568  0.3211
   93SAPE  H14X 9233   4.088   1.209   5.545 -0.5198  1.7770  0.6129
   93SAPE  H14Y 9234   3.941   1.118   5.557 -0.0957  2.2858 -1.2212
   93SAPE  C315 9235   4.087   1.049   5.699 -0.3969 -0.3013 -0.1980
   93SAPE  H15X 9236   4.173   1.088   5.758  0.3865  0.5294 -1.8347
   93SAPE  H15Y 9237   4.126   0.976   5.625  0.3001 -1.3850  1.1787
   93SAPE  C316 9238   4.004   0.975   5.810 -0.5784 -0.2810  0.3735
   93SAPE  H16X 9239   3.963   1.051   5.880 -1.1165  0.7986 -1.0584
   93SAPE  H16Y 9240   4.073   0.907   5.864 -0.8273 -1.9524 -1.3114
   93SAPE  C317 9241   3.883   0.903   5.752 -0.1781 -0.1081 -0.2631
   93SAPE  H17X 9242   3.833   0.971   5.680  1.0510 -2.0579 -3.1216
   93SAPE  H17Y 9243   3.816   0.879   5.838  1.8515  0.7611  1.6488
   93SAPE  C318 9244   3.906   0.774   5.674 -0.2188  0.4016 -0.8556
   93SAPE  H18X 9245   3.943   0.702   5.751  2.8861  1.2590 -1.3952
   93SAPE  H18Y 9246   3.984   0.786   5.596 -1.7636  2.8963 -2.1149
   93SAPE  H18Z 9247   3.810   0.737   5.633 -1.3039 -0.6512  2.3024
   94SAPE     N 9248   0.859   3.790   7.449  0.4092  0.1920 -0.7647
   94SAPE   HN1 9249   0.893   3.860   7.519  0.7074  0.8242 -1.5322
   94SAPE   HN2 9250   0.887   3.820   7.354  2.4702  0.4122 -0.1487
   94SAPE   HN3 9251   0.756   3.783   7.457  0.4012  0.2938 -0.7815
   94SAPE   C12 9252   0.917   3.655   7.479 -0.5128  0.6332  0.0592
   94SAPE  H12A 9253   0.889   3.582   7.400 -0.7252 -0.7090  1.3281
   94SAPE  H12B 9254   0.884   3.632   7.583  0.4121  3.2159  1.0169
   94SAPE   C11 9255   1.067   3.671   7.481  0.1678 -0.5166 -0.0873
   94SAPE  H11A 9256   1.101   3.705   7.381  1.3096 -0.2220  0.3822
   94SAPE  H11B 9257   1.115   3.572   7.497  0.4550 -0.1309  1.6769
   94SAPE     P 9258   1.167   3.906   7.541  0.0025 -0.0874 -0.2471
   94SAPE   O13 9259   1.058   3.983   7.478  0.5962  0.5795 -0.0414
   94SAPE   O14 9260   1.221   3.958   7.673 -0.2155  0.1459  0.2734
   94SAPE   O12 9261   1.113   3.760   7.585  0.7905  0.2367  0.2870
   94SAPE   O11 9262   1.288   3.886   7.436 -0.2674  0.0325  0.0769
   94SAPE    C1 9263   1.414   3.836   7.491  0.6807  0.1896  0.6042
   94SAPE    HA 9264   1.398   3.774   7.582 -0.7364 -3.3878 -1.8289
   94SAPE    HB 9265   1.458   3.771   7.413 -2.2530 -1.4689  0.1828
   94SAPE    C2 9266   1.515   3.949   7.509  0.4731  0.8391  1.0268
   94SAPE    HS 9267   1.475   4.027   7.578 -1.9747  0.4079  0.2082
   94SAPE   O21 9268   1.534   3.995   7.370  0.5810 -0.2906 -0.1572
   94SAPE   C21 9269   1.576   4.122   7.368  0.5194  0.5138  0.1305
   94SAPE   O22 9270   1.571   4.201   7.463  0.2025 -0.5603  0.4044
   94SAPE   C22 9271   1.592   4.167   7.226  0.5677 -0.0962 -0.3324
   94SAPE   H2R 9272   1.618   4.078   7.164  1.5964 -0.8339  1.1156
   94SAPE   H2S 9273   1.510   4.230   7.185 -0.3429 -1.3500 -0.5114
   94SAPE    C3 9274   1.649   3.906   7.572  0.2016 -0.1718 -0.1239
   94SAPE    HX 9275   1.635   3.865   7.674  0.4570 -1.5159 -0.6054
   94SAPE    HY 9276   1.708   4.000   7.576 -1.0620  0.6883 -0.9295
   94SAPE   O31 9277   1.705   3.797   7.494 -0.2093  0.0745  0.3141
   94SAPE   C31 9278   1.782   3.835   7.394 -0.1365 -0.3603 -0.1728
   94SAPE   O32 9279   1.830   3.945   7.377 -0.0337 -0.6108  0.1672
   94SAPE   C32 9280   1.799   3.714   7.305 -0.0946  0.6644  0.6534
   94SAPE   H2X 9281   1.748   3.628   7.353  0.9610 -0.8890 -0.8949
   94SAPE   H2Y 9282   1.905   3.683   7.298 -0.2115 -0.1786  2.2119
   94SAPE   C23 9283   1.716   4.249   7.228  0.0385 -0.2212  0.4801
   94SAPE   H3R 9284   1.802   4.182   7.247  0.4191  0.3682  0.8488
   94SAPE   H3S 9285   1.722   4.328   7.305 -0.2221  2.3780 -2.0031
   94SAPE   C24 9286   1.742   4.320   7.090 -0.1867 -0.2027 -0.2017
   94SAPE   H4R 9287   1.734   4.246   7.007 -2.4041  0.9043 -1.0787
   94SAPE   H4S 9288   1.846   4.357   7.083 -0.6845  1.3136  0.0167
   94SAPE   C25 9289   1.647   4.439   7.063 -0.4528  0.7211  0.7440
   94SAPE   H5R 9290   1.604   4.495   7.148  1.5498  2.0408  0.9636
   94SAPE   C26 9291   1.582   4.459   6.948  0.4619 -0.1303 -0.4694
   94SAPE   H6R 9292   1.516   4.547   6.951  0.9003  0.2087 -0.4679
   94SAPE   C27 9293   1.600   4.405   6.809  0.4723  0.2866  0.0988
   94SAPE   H7R 9294   1.554   4.469   6.731 -0.1164  1.1309  1.1066
   94SAPE   H7S 9295   1.549   4.308   6.795 -0.4857  1.1525 -3.3938
   94SAPE   C28 9296   1.744   4.377   6.762  0.1570 -0.5568  0.8125
   94SAPE   H8R 9297   1.824   4.388   6.837  2.5233 -0.8379 -1.5325
   94SAPE   C29 9298   1.787   4.348   6.640 -0.2535  0.9926 -0.3758
   94SAPE   H9R 9299   1.894   4.342   6.616  0.0342  2.4719  0.4550
   94SAPE  C210 9300   1.697   4.346   6.517 -0.7836 -0.0810 -0.0615
   94SAPE  H10R 9301   1.594   4.344   6.559 -0.5369 -0.2541  0.5330
   94SAPE  H10S 9302   1.716   4.251   6.463 -0.3133 -1.1534  1.9140
   94SAPE  C211 9303   1.714   4.476   6.447 -0.8895 -0.5627  1.0682
   94SAPE  H11R 9304   1.748   4.565   6.502 -1.7529  0.9269 -0.6998
   94SAPE  C212 9305   1.711   4.492   6.307  0.0983  0.7185 -0.1315
   94SAPE  H12R 9306   1.731   4.593   6.267  2.8869  0.9266  1.4822
   94SAPE  C213 9307   1.674   4.388   6.204  0.0157  0.0308  0.4987
   94SAPE  H13R 9308   1.735   4.295   6.213  2.6798  1.5469 -0.8827
   94SAPE  H13S 9309   1.694   4.436   6.105 -0.9577  2.6991  1.5125
   94SAPE  C214 9310   1.526   4.362   6.221 -0.1342 -0.0753 -0.9708
   94SAPE  H14R 9311   1.490   4.369   6.325 -1.2820  1.0815 -1.4185
   94SAPE  C215 9312   1.446   4.335   6.121  0.3074 -0.3599 -0.1511
   94SAPE  H15R 9313   1.338   4.320   6.137  0.1589 -0.3382 -1.1170
   94SAPE  C216 9314   1.487   4.300   5.982  0.5518 -0.0377 -0.2737
   94SAPE  H16R 9315   1.486   4.191   5.962  0.8411  0.0590 -0.8514
   94SAPE  H16S 9316   1.593   4.318   5.955  0.1707  0.7713 -1.3171
   94SAPE  C217 9317   1.402   4.374   5.874  0.1117 -0.5027  0.1051
   94SAPE  H17R 9318   1.387   4.480   5.902 -3.8490 -1.4026  2.0661
   94SAPE  H17S 9319   1.301   4.329   5.863  0.7115 -1.7079 -0.6755
   94SAPE  C218 9320   1.460   4.380   5.732 -0.9654  0.4481 -0.1536
   94SAPE  H18R 9321   1.563   4.421   5.747  0.2347 -3.0116  2.5568
   94SAPE  H18S 9322   1.402   4.440   5.659 -0.6400  0.7022 -0.2056
   94SAPE  C219 9323   1.466   4.241   5.671  0.6911 -0.2733  0.1466
   94SAPE  H19R 9324   1.368   4.189   5.682 -1.3285  2.6143 -2.1510
   94SAPE  H19S 9325   1.545   4.189   5.728 -0.0381  0.7705  2.2164
   94SAPE  C220 9326   1.516   4.238   5.527  0.2466  0.5946  0.8367
   94SAPE  H20R 9327   1.603   4.302   5.501  0.3441 -0.0786 -0.5976
   94SAPE  H20S 9328   1.438   4.284   5.463 -1.1383 -2.1783  0.3816
   94SAPE  H20T 9329   1.524   4.133   5.491 -4.2901  0.2120  0.4551
   94SAPE   C33 9330   1.759   3.747   7.164  0.4543 -0.4169  0.2389
   94SAPE   H3X 9331   1.802   3.841   7.123  2.5327 -1.1506  0.6045
   94SAPE   H3Y 9332   1.649   3.754   7.178  0.7639  1.2568  2.4244
   94SAPE   C34 9333   1.800   3.638   7.073 -0.5384 -0.3551  0.1019
   94SAPE   H4X 9334   1.740   3.545   7.080  1.2032 -1.5593 -0.0814
   94SAPE   H4Y 9335   1.910   3.622   7.083 -0.3786  0.5326 -0.1347
   94SAPE   C35 9336   1.774   3.679   6.932  0.2238  0.3651  0.2069
   94SAPE   H5X 9337   1.833   3.767   6.900 -1.6863  0.5485 -3.3156
   94SAPE   H5Y 9338   1.667   3.700   6.915 -0.5934 -2.7294  0.8852
   94SAPE   C36 9339   1.826   3.574   6.836  0.2695 -0.4029 -0.0150
   94SAPE   H6X 9340   1.790   3.475   6.873 -1.8136  0.2890 -0.0354
   94SAPE   H6Y 9341   1.936   3.580   6.846  0.6940 -1.1836 -3.1605
   94SAPE   C37 9342   1.788   3.578   6.691 -0.1938 -0.7458  0.4059
   94SAPE   H7X 9343   1.678   3.584   6.681 -0.1072  1.7277  0.3545
   94SAPE   H7Y 9344   1.821   3.491   6.630 -0.8950 -1.4839  1.0608
   94SAPE   C38 9345   1.845   3.715   6.634  0.1515 -0.0563  0.1996
   94SAPE   H8X 9346   1.953   3.726   6.656  0.3297  0.9086 -1.0415
   94SAPE   H8Y 9347   1.793   3.805   6.673  0.6392  2.4290 -4.2361
   94SAPE   C39 9348   1.839   3.718   6.478 -0.0338 -0.1117  0.0946
   94SAPE   H9X 9349   1.895   3.811   6.457  0.3239  0.2216  2.2975
   94SAPE   H9Y 9350   1.740   3.721   6.428  1.5202 -1.7933 -3.3855
   94SAPE  C310 9351   1.909   3.598   6.411 -1.1993  0.1947 -0.1858
   94SAPE  H10X 9352   1.847   3.506   6.425 -0.0951 -0.6845 -0.9384
   94SAPE  H10Y 9353   2.007   3.590   6.461 -0.1597 -2.3579 -2.3852
   94SAPE  C311 9354   1.922   3.618   6.265 -0.1179 -0.6762 -0.3107
   94SAPE  H11X 9355   1.955   3.721   6.242 -0.6701 -0.5780 -0.6589
   94SAPE  H11Y 9356   1.831   3.593   6.207  0.1128  0.4804 -1.1908
   94SAPE  C312 9357   2.024   3.520   6.216  1.0592  0.6645 -0.0827
   94SAPE  H12X 9358   1.981   3.419   6.233  0.0887  0.7619 -1.7577
   94SAPE  H12Y 9359   2.112   3.528   6.283  0.3185  0.5854  0.9258
   94SAPE  C313 9360   2.067   3.524   6.069  0.4176  0.4202  0.2349
   94SAPE  H13X 9361   2.132   3.437   6.046 -0.4446 -0.3170  0.5699
   94SAPE  H13Y 9362   2.129   3.615   6.053  0.2625  0.9539  2.4481
   94SAPE  C314 9363   1.959   3.510   5.957  0.4316  0.3950 -0.3464
   94SAPE  H14X 9364   1.894   3.600   5.949 -0.3104 -0.0611  0.3762
   94SAPE  H14Y 9365   1.892   3.435   6.005  1.6022 -0.0515  0.6391
   94SAPE  C315 9366   2.007   3.464   5.826 -0.0538  0.2507  0.4097
   94SAPE  H15X 9367   2.047   3.360   5.834  1.2627  0.7465  0.4791
   94SAPE  H15Y 9368   2.083   3.529   5.779 -1.3436  0.8417 -0.9705
   94SAPE  C316 9369   1.886   3.454   5.730  0.1518 -0.2020  0.3052
   94SAPE  H16X 9370   1.815   3.379   5.769  0.0361 -0.1308  0.2305
   94SAPE  H16Y 9371   1.920   3.415   5.632 -1.9906  0.6810 -0.8529
   94SAPE  C317 9372   1.798   3.577   5.693 -0.3434 -0.4697 -0.7973
   94SAPE  H17X 9373   1.846   3.638   5.612 -0.4674 -0.8467 -1.1593
   94SAPE  H17Y 9374   1.769   3.640   5.779 -0.7009 -2.3577  0.5247
   94SAPE  C318 9375   1.669   3.526   5.633  0.4084  0.9313 -0.1879
   94SAPE  H18X 9376   1.609   3.613   5.598 -1.3146 -0.2164 -0.2136
   94SAPE  H18Y 9377   1.610   3.465   5.705  1.3224 -2.3224 -1.9940
   94SAPE  H18Z 9378   1.689   3.464   5.543 -2.3125  0.3899 -0.4965
   95SAPE     N 9379   4.739   2.445   7.627  0.7506 -0.4659 -0.5188
   95SAPE   HN1 9380   4.647   2.440   7.675  1.4399  1.6819  1.2026
   95SAPE   HN2 9381   4.772   2.349   7.604  0.0429 -0.8865  0.1843
   95SAPE   HN3 9382   4.801   2.492   7.697 -2.5938  0.7627  1.8671
   95SAPE   C12 9383   4.735   2.535   7.503  0.2670 -0.1350  0.3602
   95SAPE  H12A 9384   4.837   2.537   7.459  0.9181  1.0739  1.8392
   95SAPE  H12B 9385   4.719   2.641   7.534 -1.8905  0.1574 -1.4527
   95SAPE   C11 9386   4.633   2.479   7.410  0.1819 -0.1580  0.1493
   95SAPE  H11A 9387   4.682   2.388   7.369  0.4840 -0.4002  1.0441
   95SAPE  H11B 9388   4.609   2.546   7.325  1.1581  0.7742  0.5914
   95SAPE     P 9389   4.381   2.503   7.482  0.4680 -0.1104  0.5547
   95SAPE   O13 9390   4.270   2.410   7.507  0.2478  0.0631 -0.0196
   95SAPE   O14 9391   4.391   2.613   7.580 -0.2009 -0.2548 -0.9934
   95SAPE   O12 9392   4.517   2.424   7.480  0.3970 -0.4370  0.1521
   95SAPE   O11 9393   4.366   2.566   7.342  0.6954 -0.5154  0.3552
   95SAPE    C1 9394   4.283   2.686   7.322 -0.1860 -0.0359  0.8815
   95SAPE    HA 9395   4.178   2.663   7.351 -0.6221  0.1476 -0.4728
   95SAPE    HB 9396   4.324   2.771   7.381 -0.1219  0.2173  0.4806
   95SAPE    C2 9397   4.275   2.729   7.175 -0.6168 -0.0876  0.0653
   95SAPE    HS 9398   4.193   2.804   7.172 -2.3718 -1.8901  0.8096
   95SAPE   O21 9399   4.256   2.617   7.092 -0.0750 -0.0591  0.5632
   95SAPE   C21 9400   4.130   2.569   7.099  0.5880 -0.5689 -0.6989
   95SAPE   O22 9401   4.032   2.626   7.146 -0.1047  0.1463 -0.1543
   95SAPE   C22 9402   4.123   2.433   7.033 -0.5138  0.3447  0.0980
   95SAPE   H2R 9403   4.020   2.414   6.996 -0.6787  2.7977 -0.8679
   95SAPE   H2S 9404   4.191   2.448   6.947 -0.8674 -0.0596 -0.2587
   95SAPE    C3 9405   4.416   2.793   7.142  0.2921  0.3129  0.5752
   95SAPE    HX 9406   4.495   2.718   7.163 -0.7600 -1.1143 -0.3663
   95SAPE    HY 9407   4.444   2.876   7.210  1.8164 -0.4634  0.9313
   95SAPE   O31 9408   4.427   2.817   7.000 -0.7117  0.6341  0.6249
   95SAPE   C31 9409   4.399   2.935   6.949 -0.0298  0.0561 -0.3001
   95SAPE   O32 9410   4.366   3.035   7.016 -0.6714  0.1278  0.4335
   95SAPE   C32 9411   4.397   2.926   6.798 -0.1371 -0.1793 -0.3674
   95SAPE   H2X 9412   4.362   2.826   6.764 -3.4298  1.0906 -1.1513
   95SAPE   H2Y 9413   4.500   2.950   6.766 -0.7265  0.5863 -1.7460
   95SAPE   C23 9414   4.181   2.313   7.118 -0.4956  0.4780  0.7707
   95SAPE   H3R 9415   4.101   2.270   7.182  1.4178 -0.2020  2.8220
   95SAPE   H3S 9416   4.262   2.357   7.179 -0.7190  2.6003 -0.3692
   95SAPE   C24 9417   4.245   2.202   7.037 -0.1415 -0.3051 -0.0637
   95SAPE   H4R 9418   4.312   2.143   7.103  2.1517  0.1080 -1.8503
   95SAPE   H4S 9419   4.316   2.249   6.965 -1.0975  0.3324 -0.6045
   95SAPE   C25 9420   4.150   2.105   6.972 -0.3912  0.3058 -0.2333
   95SAPE   H5R 9421   4.093   2.042   7.043 -2.5093  0.8717 -1.3494
   95SAPE   C26 9422   4.129   2.080   6.837  0.2049  0.7890 -0.1583
   95SAPE   H6R 9423   4.050   2.009   6.811  0.6339 -0.4225  1.7000
   95SAPE   C27 9424   4.188   2.162   6.726 -0.8196 -0.0445  0.3748
   95SAPE   H7R 9425   4.175   2.114   6.627 -1.6637  2.8383 -1.0206
   95SAPE   H7S 9426   4.298   2.169   6.726 -0.3949 -3.6126 -3.0539
   95SAPE   C28 9427   4.125   2.296   6.713 -0.2276 -0.3381 -0.1904
   95SAPE   H8R 9428   4.030   2.313   6.766  1.4535  0.7192  2.6635
   95SAPE   C29 9429   4.166   2.394   6.631  0.4899 -0.3097  0.4735
   95SAPE   H9R 9430   4.113   2.490   6.621 -3.4878 -2.3165  0.1338
   95SAPE  C210 9431   4.286   2.388   6.545  0.4013 -0.5551 -0.2348
   95SAPE  H10R 9432   4.301   2.284   6.509 -0.6736 -1.0265  0.6288
   95SAPE  H10S 9433   4.374   2.418   6.607  1.7435  0.2282 -2.4235
   95SAPE  C211 9434   4.284   2.477   6.424 -0.0088 -0.3989  0.5446
   95SAPE  H11R 9435   4.325   2.579   6.427 -1.7719  0.3698 -0.4041
   95SAPE  C212 9436   4.253   2.427   6.299 -0.3062  0.0791 -0.5135
   95SAPE  H12R 9437   4.246   2.500   6.217  0.2617  1.8682  0.9680
   95SAPE  C213 9438   4.206   2.291   6.265  0.0972  0.6223  0.3456
   95SAPE  H13R 9439   4.129   2.311   6.188 -0.3918 -0.9984  0.3779
   95SAPE  H13S 9440   4.150   2.249   6.351 -0.2085 -1.3365 -0.7465
   95SAPE  C214 9441   4.308   2.183   6.235 -0.8090 -0.4555  0.4653
   95SAPE  H14R 9442   4.317   2.106   6.313  2.7240 -0.9890 -0.3103
   95SAPE  C215 9443   4.378   2.160   6.124 -0.1303 -0.8932  0.1742
   95SAPE  H15R 9444   4.452   2.080   6.110 -0.3822 -1.0664 -0.1920
   95SAPE  C216 9445   4.374   2.253   6.013 -0.0807 -0.7376 -0.3184
   95SAPE  H16R 9446   4.478   2.272   5.978 -0.0535  1.5574  0.8426
   95SAPE  H16S 9447   4.328   2.351   6.039 -1.1582 -0.6521 -2.3497
   95SAPE  C217 9448   4.297   2.212   5.876  0.1962 -0.2087 -0.1655
   95SAPE  H17R 9449   4.312   2.292   5.801 -3.5621  0.1888 -0.6454
   95SAPE  H17S 9450   4.188   2.204   5.893  0.1761  2.4754  1.5925
   95SAPE  C218 9451   4.352   2.084   5.813 -0.6823 -0.6400  0.6721
   95SAPE  H18R 9452   4.284   2.046   5.733 -0.0939  0.1854 -0.2452
   95SAPE  H18S 9453   4.347   1.996   5.880 -0.9777 -1.7052 -0.6814
   95SAPE  C219 9454   4.499   2.104   5.756 -0.4081  0.1899 -0.2403
   95SAPE  H19R 9455   4.567   2.138   5.837 -0.6860  1.9023 -0.6938
   95SAPE  H19S 9456   4.498   2.174   5.670 -1.7809 -0.5919 -0.9029
   95SAPE  C220 9457   4.560   1.975   5.695  0.2001 -0.3631 -0.4709
   95SAPE  H20R 9458   4.666   1.988   5.662  0.2544  0.0843 -0.1302
   95SAPE  H20S 9459   4.511   1.949   5.599  1.5450  2.1445 -1.9536
   95SAPE  H20T 9460   4.553   1.896   5.772 -0.1252  1.0872  1.0486
   95SAPE   C33 9461   4.314   3.026   6.720  0.3920  0.3005  0.4029
   95SAPE   H3X 9462   4.320   3.125   6.771  0.6482  1.6475 -2.0788
   95SAPE   H3Y 9463   4.206   3.002   6.713 -0.6792  3.8961  2.1069
   95SAPE   C34 9464   4.375   3.056   6.580  0.5124  0.5887 -0.0205
   95SAPE   H4X 9465   4.478   3.096   6.586  0.9492 -0.0721 -2.2543
   95SAPE   H4Y 9466   4.312   3.136   6.534  0.3739  0.6131  0.2096
   95SAPE   C35 9467   4.354   2.948   6.462 -0.5060  0.2546  0.1931
   95SAPE   H5X 9468   4.254   2.903   6.447  0.9303 -2.6937 -1.3003
   95SAPE   H5Y 9469   4.426   2.865   6.479  1.6481  1.6904 -1.3831
   95SAPE   C36 9470   4.413   3.005   6.335  0.6369  0.4892 -0.3112
   95SAPE   H6X 9471   4.500   3.068   6.362  1.9916 -1.7067  0.7340
   95SAPE   H6Y 9472   4.337   3.077   6.297 -0.3213  0.4551  1.4011
   95SAPE   C37 9473   4.438   2.898   6.225 -0.8688 -0.7780  0.1715
   95SAPE   H7X 9474   4.499   2.817   6.270 -0.0432  0.4907  1.4004
   95SAPE   H7Y 9475   4.498   2.949   6.146  0.3589  0.1409  1.6539
   95SAPE   C38 9476   4.306   2.844   6.168 -0.2932 -0.3512  0.5342
   95SAPE   H8X 9477   4.247   2.931   6.133  0.6817  0.5009  0.9665
   95SAPE   H8Y 9478   4.255   2.784   6.246  0.7324 -0.0733  1.4449
   95SAPE   C39 9479   4.337   2.755   6.047  1.1680  0.6318 -0.1415
   95SAPE   H9X 9480   4.415   2.682   6.076  0.1833  0.7089  3.0272
   95SAPE   H9Y 9481   4.372   2.817   5.961  0.9950 -1.4019 -1.7412
   95SAPE  C310 9482   4.210   2.686   5.998 -0.0393  0.5810 -0.9765
   95SAPE  H10X 9483   4.137   2.767   5.976  1.1899  2.2708  0.8895
   95SAPE  H10Y 9484   4.152   2.627   6.072  0.1298 -1.1973 -2.1829
   95SAPE  C311 9485   4.229   2.592   5.881 -0.5634  0.1602  0.3063
   95SAPE  H11X 9486   4.152   2.512   5.881  2.2742 -3.0308  4.4015
   95SAPE  H11Y 9487   4.322   2.536   5.902 -1.3896 -2.2104 -1.8709
   95SAPE  C312 9488   4.253   2.656   5.748 -0.2297  0.1847  0.4778
   95SAPE  H12X 9489   4.313   2.748   5.763  2.0165 -0.6927 -2.2576
   95SAPE  H12Y 9490   4.154   2.688   5.708 -0.1636 -0.9447 -0.6302
   95SAPE  C313 9491   4.308   2.558   5.653  0.1491 -0.1898  0.1809
   95SAPE  H13X 9492   4.307   2.607   5.553  0.8144  0.4569  0.4797
   95SAPE  H13Y 9493   4.231   2.481   5.632  0.5162 -1.3019  2.6330
   95SAPE  C314 9494   4.447   2.499   5.689  0.7285  0.2273  0.0723
   95SAPE  H14X 9495   4.455   2.431   5.776 -1.3434 -0.2606 -0.0471
   95SAPE  H14Y 9496   4.508   2.589   5.710 -0.3631  1.2643 -0.9595
   95SAPE  C315 9497   4.494   2.426   5.568  0.6240  0.3343  0.4920
   95SAPE  H15X 9498   4.483   2.477   5.470  3.5274 -0.5848 -0.4167
   95SAPE  H15Y 9499   4.448   2.326   5.556 -2.7946  1.7172  0.9925
   95SAPE  C316 9500   4.648   2.403   5.586  0.7508 -0.2234  0.1107
   95SAPE  H16X 9501   4.666   2.378   5.692  0.5410  1.2068  0.5014
   95SAPE  H16Y 9502   4.704   2.493   5.552 -0.2523  0.6734  0.7934
   95SAPE  C317 9503   4.707   2.296   5.486  0.2271  0.1275  0.4036
   95SAPE  H17X 9504   4.687   2.192   5.518  2.0196 -0.4107 -0.1219
   95SAPE  H17Y 9505   4.817   2.311   5.480  0.2624  0.1704  1.0917
   95SAPE  C318 9506   4.652   2.302   5.347  0.6791 -0.3130  0.9779
   95SAPE  H18X 9507   4.549   2.264   5.331  0.7293  0.3336 -1.2600
   95SAPE  H18Y 9508   4.716   2.236   5.284  1.0156 -1.9241  2.9145
   95SAPE  H18Z 9509   4.671   2.403   5.304 -0.2515 -0.3587  0.4184
   96SAPE     N 9510   1.492   4.674   7.545  0.0481 -0.8875 -0.2843
   96SAPE   HN1 9511   1.446   4.610   7.613 -1.9228 -0.8490 -1.4900
   96SAPE   HN2 9512   1.587   4.645   7.516  1.3394  2.9131 -0.3809
   96SAPE   HN3 9513   1.515   4.769   7.582  1.9450 -0.9117 -1.2810
   96SAPE   C12 9514   1.403   4.700   7.423  0.3558 -1.2279  0.3770
   96SAPE  H12A 9515   1.465   4.757   7.352  0.4283 -1.1968  0.4646
   96SAPE  H12B 9516   1.315   4.760   7.455  1.4615  0.3956  0.4868
   96SAPE   C11 9517   1.352   4.576   7.353  0.8625  0.1165  0.7865
   96SAPE  H11A 9518   1.442   4.511   7.342  1.3605  1.0808 -1.5289
   96SAPE  H11B 9519   1.301   4.607   7.260  1.0952 -0.2312  0.5399
   96SAPE     P 9520   1.104   4.483   7.386 -0.1751 -0.1386  0.1234
   96SAPE   O13 9521   1.040   4.388   7.480 -0.1152 -0.7106  0.6463
   96SAPE   O14 9522   1.036   4.609   7.355  0.0282  0.3003  0.6969
   96SAPE   O12 9523   1.253   4.510   7.432  0.1093  0.1208  0.5367
   96SAPE   O11 9524   1.122   4.398   7.253 -0.1289 -0.0748 -0.3102
   96SAPE    C1 9525   1.235   4.320   7.224 -0.2189  1.0924  0.3547
   96SAPE    HA 9526   1.292   4.372   7.144  0.1249  0.6341  0.2952
   96SAPE    HB 9527   1.305   4.293   7.306  0.3370 -0.6612 -0.6329
   96SAPE    C2 9528   1.182   4.178   7.183 -0.1623  0.4371 -0.2146
   96SAPE    HS 9529   1.174   4.119   7.277 -0.6025 -0.2494 -0.6740
   96SAPE   O21 9530   1.279   4.118   7.097  0.0567  0.5577  0.0786
   96SAPE   C21 9531   1.259   3.992   7.063 -1.0204 -0.5853  0.6413
   96SAPE   O22 9532   1.174   3.918   7.106  0.2226 -0.1411 -0.3461
   96SAPE   C22 9533   1.374   3.950   6.973  0.1064  0.0563  0.3342
   96SAPE   H2R 9534   1.460   3.946   7.043 -1.2212 -2.0349  1.9528
   96SAPE   H2S 9535   1.347   3.850   6.933  0.3525 -1.0868  2.8545
   96SAPE    C3 9536   1.034   4.177   7.124  0.4197  0.2875  0.9313
   96SAPE    HX 9537   0.966   4.258   7.160  0.3353  1.5607 -1.8397
   96SAPE    HY 9538   1.000   4.081   7.169  1.7691  0.5058  2.5320
   96SAPE   O31 9539   1.033   4.162   6.976 -0.2183 -0.6900  0.0654
   96SAPE   C31 9540   1.043   4.277   6.913  0.4170  0.1650 -0.1492
   96SAPE   O32 9541   1.038   4.385   6.968 -0.0481 -0.5572 -0.0274
   96SAPE   C32 9542   1.054   4.255   6.766  0.1623 -0.1814 -0.0682
   96SAPE   H2X 9543   0.952   4.265   6.721  0.2137 -1.1090 -0.4100
   96SAPE   H2Y 9544   1.091   4.153   6.743  0.1095 -0.0563 -0.7088
   96SAPE   C23 9545   1.405   4.053   6.863 -0.0365 -0.3228 -0.6206
   96SAPE   H3R 9546   1.422   4.148   6.917 -0.1674 -1.9128  2.4442
   96SAPE   H3S 9547   1.319   4.075   6.796  0.6397  2.5254 -0.6665
   96SAPE   C24 9548   1.526   4.008   6.775  0.7852 -0.1621  0.0664
   96SAPE   H4R 9549   1.601   3.973   6.850 -1.3452 -0.8049  2.0202
   96SAPE   H4S 9550   1.564   4.095   6.718 -1.5821  1.2432  0.4827
   96SAPE   C25 9551   1.493   3.884   6.694 -0.0842 -0.5117 -0.5329
   96SAPE   H5R 9552   1.499   3.785   6.741  0.5447 -1.2211 -2.0638
   96SAPE   C26 9553   1.459   3.896   6.570 -0.3637 -0.5036 -0.6624
   96SAPE   H6R 9554   1.441   3.800   6.520 -0.2800 -0.4311 -0.8345
   96SAPE   C27 9555   1.461   4.030   6.494 -0.0274 -0.4717  0.4965
   96SAPE   H7R 9556   1.566   4.064   6.481 -0.5735  0.9968 -0.2598
   96SAPE   H7S 9557   1.403   4.106   6.550  0.8433  0.1150  0.6200
   96SAPE   C28 9558   1.405   4.030   6.350 -0.1778  0.1798 -0.2543
   96SAPE   H8R 9559   1.307   4.077   6.336 -0.2371  0.3316  0.6430
   96SAPE   C29 9560   1.481   4.002   6.240 -0.1200  0.7854  0.7617
   96SAPE   H9R 9561   1.432   3.982   6.144  1.5183 -1.4300  0.3116
   96SAPE  C210 9562   1.620   3.943   6.241 -0.3914  0.5944 -0.0043
   96SAPE  H10R 9563   1.625   3.835   6.217  1.7160  1.1034 -2.2827
   96SAPE  H10S 9564   1.669   3.948   6.341 -1.3141 -0.7704  0.5333
   96SAPE  C211 9565   1.713   4.012   6.147 -0.4676  0.3838  0.3910
   96SAPE  H11R 9566   1.765   4.095   6.196 -1.1039  2.2508 -1.8800
   96SAPE  C212 9567   1.744   3.983   6.025 -0.2124  0.5469  0.8484
   96SAPE  H12R 9568   1.827   4.044   5.985 -0.7349 -0.2327 -1.6102
   96SAPE  C213 9569   1.685   3.871   5.934 -0.2691 -1.3873  0.3504
   96SAPE  H13R 9570   1.598   3.815   5.974 -3.2152  3.0827  0.9556
   96SAPE  H13S 9571   1.773   3.804   5.931  0.9949  0.2451 -1.8125
   96SAPE  C214 9572   1.674   3.935   5.797  1.0700 -0.6039  0.2902
   96SAPE  H14R 9573   1.761   3.994   5.765  1.0315 -1.7273 -2.1021
   96SAPE  C215 9574   1.577   3.905   5.708  0.3371 -0.0990 -0.2403
   96SAPE  H15R 9575   1.586   3.941   5.604  1.0134  0.1822 -0.0894
   96SAPE  C216 9576   1.466   3.809   5.735 -0.1364  0.2545 -0.2697
   96SAPE  H16R 9577   1.484   3.743   5.823 -0.8393  1.1613  0.5787
   96SAPE  H16S 9578   1.461   3.744   5.646  2.7884 -0.5280  0.0356
   96SAPE  C217 9579   1.330   3.872   5.757  0.0012  0.0728 -0.7880
   96SAPE  H17R 9580   1.262   3.785   5.766  0.0861  0.1186  0.6365
   96SAPE  H17S 9581   1.303   3.936   5.671 -0.0466  2.6654  1.0257
   96SAPE  C218 9582   1.317   3.951   5.894 -0.4823 -0.0327  0.2834
   96SAPE  H18R 9583   1.381   4.042   5.895 -0.0158 -0.3356 -0.7448
   96SAPE  H18S 9584   1.343   3.884   5.978 -1.0761 -0.4680  0.1273
   96SAPE  C219 9585   1.177   4.002   5.926  0.1560  0.7791  0.4742
   96SAPE  H19R 9586   1.109   3.915   5.917 -0.3401  1.2269 -0.1695
   96SAPE  H19S 9587   1.148   4.079   5.852  2.1796  2.0184  0.8820
   96SAPE  C220 9588   1.167   4.043   6.071  0.1731  1.0727 -0.0500
   96SAPE  H20R 9589   1.169   3.952   6.135 -2.6201  1.4315  0.7038
   96SAPE  H20S 9590   1.076   4.104   6.090 -1.6040 -1.6721  0.9711
   96SAPE  H20T 9591   1.254   4.109   6.087  1.8338 -1.2215  0.9177
   96SAPE   C33 9592   1.139   4.378   6.711  0.0948  0.2425  0.7480
   96SAPE   H3X 9593   1.248   4.365   6.723 -0.0747 -0.7634  1.3370
   96SAPE   H3Y 9594   1.113   4.476   6.756  3.5689  0.8741  1.6064
   96SAPE   C34 9595   1.112   4.385   6.558  0.3026  0.0065 -0.7208
   96SAPE   H4X 9596   1.007   4.416   6.536  0.1659  0.0106 -0.0871
   96SAPE   H4Y 9597   1.134   4.291   6.503 -0.7676 -1.8704  1.8795
   96SAPE   C35 9598   1.202   4.477   6.482  0.1174  0.0112 -0.2750
   96SAPE   H5X 9599   1.308   4.457   6.510  0.7887 -1.2210 -3.2603
   96SAPE   H5Y 9600   1.186   4.567   6.546 -0.6446  0.2770 -0.8210
   96SAPE   C36 9601   1.173   4.512   6.339  0.6400  0.8425 -0.0624
   96SAPE   H6X 9602   1.064   4.514   6.323  0.9608  0.7753 -2.7178
   96SAPE   H6Y 9603   1.216   4.431   6.275  0.1057  0.9163 -0.5185
   96SAPE   C37 9604   1.224   4.651   6.307  0.1261 -0.7139  0.3228
   96SAPE   H7X 9605   1.327   4.675   6.340 -0.4230  0.3288  1.3517
   96SAPE   H7Y 9606   1.169   4.728   6.364  2.0748  1.2098 -0.2536
   96SAPE   C38 9607   1.208   4.678   6.166  0.3151 -0.3874  0.6604
   96SAPE   H8X 9608   1.274   4.613   6.105  0.2827  0.2109 -0.0281
   96SAPE   H8Y 9609   1.253   4.777   6.143 -0.5843 -0.3884 -1.2981
   96SAPE   C39 9610   1.060   4.696   6.121 -0.3577 -0.1217 -0.4103
   96SAPE   H9X 9611   1.023   4.799   6.142  1.2490  0.3413  0.3699
   96SAPE   H9Y 9612   0.997   4.626   6.179 -0.7516  2.5354  2.7194
   96SAPE  C310 9613   1.042   4.664   5.971  1.1645  0.0769 -0.2426
   96SAPE  H10X 9614   1.111   4.730   5.914 -0.1415  2.8986  1.1803
   96SAPE  H10Y 9615   0.937   4.691   5.944  0.8603  0.4347  1.2155
   96SAPE  C311 9616   1.060   4.510   5.953  1.0275 -1.1118 -0.4353
   96SAPE  H11X 9617   1.005   4.450   6.029  0.5263 -0.7907 -0.5356
   96SAPE  H11Y 9618   1.167   4.488   5.972  1.7705  1.3338 -1.4299
   96SAPE  C312 9619   1.020   4.461   5.803 -0.1976 -0.5142  0.5570
   96SAPE  H12X 9620   1.113   4.454   5.743 -0.0698  0.2654  0.6584
   96SAPE  H12Y 9621   0.964   4.547   5.760 -0.0615  0.3537  2.0386
   96SAPE  C313 9622   0.953   4.322   5.792  0.0288 -0.1682 -0.5413
   96SAPE  H13X 9623   0.864   4.322   5.859  1.2663  2.5571  1.2728
   96SAPE  H13Y 9624   1.013   4.240   5.837  0.8881  0.0917 -1.2083
   96SAPE  C314 9625   0.911   4.267   5.654  0.6729  0.4498  0.6247
   96SAPE  H14X 9626   0.994   4.297   5.587  0.8167 -0.2201  0.4944
   96SAPE  H14Y 9627   0.826   4.330   5.618  0.0476 -0.3159  0.7362
   96SAPE  C315 9628   0.874   4.125   5.649 -0.0113 -0.3367  0.3146
   96SAPE  H15X 9629   0.798   4.098   5.726  0.4028  1.3362  1.3516
   96SAPE  H15Y 9630   0.964   4.061   5.662  1.1739  1.3150  0.4814
   96SAPE  C316 9631   0.817   4.071   5.516 -0.6497 -0.6179 -0.5041
   96SAPE  H16X 9632   0.888   4.089   5.432  0.8678 -1.2396  0.6112
   96SAPE  H16Y 9633   0.723   4.128   5.496  1.1143  1.9355 -2.2927
   96SAPE  C317 9634   0.797   3.916   5.516  0.2488 -0.7074 -0.0398
   96SAPE  H17X 9635   0.702   3.894   5.569 -0.0863 -0.0861 -0.3831
   96SAPE  H17Y 9636   0.886   3.865   5.559  0.2041 -0.9375 -0.2117
   96SAPE  C318 9637   0.792   3.845   5.380  0.6415 -0.8080 -0.8676
   96SAPE  H18X 9638   0.745   3.921   5.313  2.7016  1.9760  0.6483
   96SAPE  H18Y 9639   0.743   3.746   5.390  1.7087 -1.4332 -1.6623
   96SAPE  H18Z 9640   0.892   3.823   5.338  0.7301  0.4867 -1.4109
   97SAPE     N 9641   5.434   6.281   7.908 -0.0981  0.0969  0.7980
   97SAPE   HN1 9642   5.454   6.276   8.010 -1.8314  3.4141  1.4305
   97SAPE   HN2 9643   5.338   6.322   7.904  0.1784  0.9961  2.3880
   97SAPE   HN3 9644   5.424   6.184   7.873 -0.3170  0.5501 -0.4630
   97SAPE   C12 9645   5.534   6.368   7.835  0.5393 -0.2787  0.5647
   97SAPE  H12A 9646   5.632   6.315   7.831 -0.2673 -2.0135  1.9002
   97SAPE  H12B 9647   5.552   6.455   7.901 -1.4470 -0.9657  2.1100
   97SAPE   C11 9648   5.484   6.405   7.692  0.1409  0.4800  0.5271
   97SAPE  H11A 9649   5.470   6.306   7.644  4.2287 -0.9614  1.8227
   97SAPE  H11B 9650   5.553   6.475   7.639  0.3593  0.2189  0.4638
   97SAPE     P 9651   5.320   6.613   7.687  0.3811  0.3454  0.2080
   97SAPE   O13 9652   5.209   6.634   7.787 -0.6381  1.0319 -0.2175
   97SAPE   O14 9653   5.444   6.691   7.704 -0.1188  0.6688  0.1096
   97SAPE   O12 9654   5.352   6.461   7.701 -0.0612  0.4874  0.4327
   97SAPE   O11 9655   5.269   6.629   7.538 -0.0332  0.1938  0.3732
   97SAPE    C1 9656   5.311   6.556   7.422 -0.2469  0.0848 -0.1682
   97SAPE    HA 9657   5.328   6.631   7.342 -0.4514 -0.8215 -1.0846
   97SAPE    HB 9658   5.404   6.497   7.439 -0.2140 -0.1570 -1.1322
   97SAPE    C2 9659   5.203   6.460   7.367  0.7366  0.1111  0.2211
   97SAPE    HS 9660   5.211   6.352   7.391 -0.7403 -0.2851 -0.9261
   97SAPE   O21 9661   5.203   6.474   7.221 -0.3373  0.4932  0.2141
   97SAPE   C21 9662   5.306   6.414   7.167 -0.2428  0.3915  0.6272
   97SAPE   O22 9663   5.379   6.338   7.228 -0.5167 -0.0588 -0.5848
   97SAPE   C22 9664   5.319   6.453   7.013  0.0940  0.1616  0.0004
   97SAPE   H2R 9665   5.332   6.563   7.012 -1.7700  0.4151 -0.7144
   97SAPE   H2S 9666   5.407   6.402   6.968 -0.0343 -1.0852  1.0884
   97SAPE    C3 9667   5.059   6.496   7.410  0.8933  0.0325  0.0929
   97SAPE    HX 9668   5.050   6.594   7.358  0.3738  1.6705  3.0072
   97SAPE    HY 9669   5.057   6.502   7.521 -0.9758  1.0474  0.0524
   97SAPE   O31 9670   4.959   6.402   7.365  0.4319  0.1038  0.1523
   97SAPE   C31 9671   4.950   6.291   7.440  0.3721  0.2419 -0.0230
   97SAPE   O32 9672   5.023   6.250   7.525  0.5687 -0.0322 -0.4845
   97SAPE   C32 9673   4.819   6.227   7.377 -0.4360  0.2723  0.1478
   97SAPE   H2X 9674   4.792   6.153   7.456  0.9541  2.2073  2.5900
   97SAPE   H2Y 9675   4.844   6.150   7.301  0.3927  0.4245  0.2530
   97SAPE   C23 9676   5.194   6.410   6.930 -0.3048 -0.1409 -0.5964
   97SAPE   H3R 9677   5.107   6.454   6.983  0.5134 -0.6941  1.2574
   97SAPE   H3S 9678   5.185   6.301   6.951  0.5792  0.0807  1.0925
   97SAPE   C24 9679   5.179   6.449   6.784 -0.4252  0.2039 -0.1564
   97SAPE   H4R 9680   5.263   6.403   6.728  1.0174 -0.3855  2.3133
   97SAPE   H4S 9681   5.194   6.559   6.770 -0.8561  0.5319  1.6672
   97SAPE   C25 9682   5.040   6.401   6.731 -0.4866 -0.3724  0.1700
   97SAPE   H5R 9683   4.975   6.355   6.807 -0.4765 -0.9164 -0.1490
   97SAPE   C26 9684   4.995   6.399   6.607  0.7078  0.5818  0.1902
   97SAPE   H6R 9685   4.904   6.341   6.590  1.1728 -0.3846  0.9109
   97SAPE   C27 9686   5.073   6.451   6.489  0.3257 -0.2251 -0.1886
   97SAPE   H7R 9687   5.180   6.450   6.517  0.1635  2.4093  0.8288
   97SAPE   H7S 9688   5.056   6.559   6.466 -0.6710 -0.4500 -0.5575
   97SAPE   C28 9689   5.046   6.361   6.369 -0.5349  0.0408  0.0254
   97SAPE   H8R 9690   5.106   6.268   6.375  2.2550  1.7964  3.1871
   97SAPE   C29 9691   4.967   6.392   6.261 -0.1734 -0.1349  0.0349
   97SAPE   H9R 9692   4.949   6.314   6.186 -0.5845  0.0518 -0.0610
   97SAPE  C210 9693   4.882   6.519   6.244  0.0807 -0.0942 -0.0118
   97SAPE  H10R 9694   4.942   6.589   6.183  1.6013 -2.8395 -1.9279
   97SAPE  H10S 9695   4.871   6.565   6.344 -0.0815 -0.4396  0.1312
   97SAPE  C211 9696   4.741   6.500   6.185 -0.9200  0.6501  0.5345
   97SAPE  H11R 9697   4.670   6.470   6.263 -0.7608  2.2620  1.3417
   97SAPE  C212 9698   4.701   6.538   6.066  0.7712  0.6973 -0.1422
   97SAPE  H12R 9699   4.597   6.517   6.038  0.5191  0.1685  1.1128
   97SAPE  C213 9700   4.778   6.596   5.955  0.0606 -0.3221  0.3889
   97SAPE  H13R 9701   4.817   6.502   5.909 -0.8191  0.8673 -3.0686
   97SAPE  H13S 9702   4.860   6.666   5.980 -0.9105  1.1841 -0.5023
   97SAPE  C214 9703   4.698   6.671   5.853  0.1257  0.2320 -0.1031
   97SAPE  H14R 9704   4.616   6.727   5.898  1.2985  3.1455 -1.3469
   97SAPE  C215 9705   4.708   6.673   5.719  0.4852 -0.2355  0.5644
   97SAPE  H15R 9706   4.638   6.729   5.655  0.6842  0.1021  0.6376
   97SAPE  C216 9707   4.815   6.607   5.638 -0.5250 -0.6700 -0.3596
   97SAPE  H16R 9708   4.765   6.544   5.561  1.6669  0.1668 -2.6195
   97SAPE  H16S 9709   4.892   6.542   5.685  0.4853 -0.1509 -1.2566
   97SAPE  C217 9710   4.908   6.716   5.565 -0.6658  0.1606 -0.0799
   97SAPE  H17R 9711   4.846   6.753   5.480 -1.8617 -0.5487  0.4496
   97SAPE  H17S 9712   4.995   6.668   5.517  0.0129  1.0443  0.2447
   97SAPE  C218 9713   4.948   6.827   5.662  0.2278  0.0179  0.0394
   97SAPE  H18R 9714   5.006   6.785   5.747 -1.3041  0.1542  1.1895
   97SAPE  H18S 9715   4.859   6.856   5.722 -0.0373 -1.6013  0.4903
   97SAPE  C219 9716   5.036   6.928   5.590  0.5791 -0.5189  0.9991
   97SAPE  H19R 9717   5.082   6.877   5.503  0.2271 -0.0667  0.5394
   97SAPE  H19S 9718   5.119   6.954   5.659 -0.3802 -1.1061  2.4227
   97SAPE  C220 9719   4.954   7.057   5.544 -0.1271 -0.4769  0.2877
   97SAPE  H20R 9720   4.867   7.027   5.481  1.1256 -2.6011 -0.5551
   97SAPE  H20S 9721   5.008   7.123   5.472  0.0620 -0.5675  0.3464
   97SAPE  H20T 9722   4.915   7.108   5.634 -1.0221  3.2373 -1.9856
   97SAPE   C33 9723   4.702   6.312   7.341 -0.1417 -0.3457 -0.3602
   97SAPE   H3X 9724   4.696   6.393   7.417 -1.6636 -1.2671  0.5664
   97SAPE   H3Y 9725   4.616   6.244   7.356  0.0054 -0.6337 -0.8102
   97SAPE   C34 9726   4.692   6.361   7.188  0.3103 -0.1148 -0.3818
   97SAPE   H4X 9727   4.795   6.382   7.151  1.0939 -2.2582  0.4597
   97SAPE   H4Y 9728   4.640   6.459   7.181 -1.0725 -0.9005 -1.7137
   97SAPE   C35 9729   4.624   6.267   7.092  0.6126  0.1907  0.4300
   97SAPE   H5X 9730   4.522   6.235   7.123  0.4585  1.0597  0.8395
   97SAPE   H5Y 9731   4.694   6.181   7.089  1.1736  0.6791 -2.3669
   97SAPE   C36 9732   4.621   6.321   6.947 -0.3952 -0.5354 -0.2720
   97SAPE   H6X 9733   4.721   6.366   6.930 -0.4608  0.4668  1.7007
   97SAPE   H6Y 9734   4.544   6.401   6.943 -0.0937 -0.2910 -1.9925
   97SAPE   C37 9735   4.580   6.217   6.847  0.3110 -0.3527  0.0808
   97SAPE   H7X 9736   4.481   6.170   6.869  0.3769 -0.7190 -0.4107
   97SAPE   H7Y 9737   4.649   6.131   6.835 -0.4298 -0.7963 -1.1873
   97SAPE   C38 9738   4.578   6.271   6.699 -0.2432 -0.2745 -0.1070
   97SAPE   H8X 9739   4.519   6.199   6.639  0.8984  0.0914 -1.7370
   97SAPE   H8Y 9740   4.683   6.281   6.663  0.0909  1.1651  1.1519
   97SAPE   C39 9741   4.504   6.397   6.671  0.1462 -0.2942 -0.2168
   97SAPE   H9X 9742   4.570   6.476   6.713  0.7761  0.8790 -3.1526
   97SAPE   H9Y 9743   4.401   6.389   6.713  1.8234  0.9874  4.8856
   97SAPE  C310 9744   4.473   6.404   6.520 -0.4434 -0.0069  0.1237
   97SAPE  H10X 9745   4.422   6.309   6.493 -0.3909  0.1858 -0.6691
   97SAPE  H10Y 9746   4.571   6.398   6.467 -0.0079  1.1893  0.7547
   97SAPE  C311 9747   4.404   6.532   6.477 -0.0579  0.0227 -0.2927
   97SAPE  H11X 9748   4.465   6.623   6.461  0.3659 -0.4755 -1.6229
   97SAPE  H11Y 9749   4.315   6.563   6.536  0.8070  0.5492  0.7649
   97SAPE  C312 9750   4.343   6.504   6.338  0.1549 -0.6429  0.4274
   97SAPE  H12X 9751   4.265   6.425   6.344  0.5149 -1.1944 -1.5146
   97SAPE  H12Y 9752   4.424   6.467   6.272  0.4545 -1.7650  1.4121
   97SAPE  C313 9753   4.287   6.623   6.261 -0.1828 -0.7076  1.1056
   97SAPE  H13X 9754   4.370   6.697   6.262  0.6368 -1.5986  0.8614
   97SAPE  H13Y 9755   4.193   6.669   6.297 -0.6204  0.6482 -1.4688
   97SAPE  C314 9756   4.262   6.598   6.111  0.5426 -0.7364 -0.1400
   97SAPE  H14X 9757   4.176   6.528   6.100  0.8671 -0.8492 -2.5193
   97SAPE  H14Y 9758   4.356   6.559   6.066  2.1600  0.7821  1.7456
   97SAPE  C315 9759   4.229   6.722   6.047 -0.0643  0.3059  0.2970
   97SAPE  H15X 9760   4.295   6.802   6.085  1.2196 -1.2097  1.4010
   97SAPE  H15Y 9761   4.127   6.759   6.070  0.3667  0.5493  1.9281
   97SAPE  C316 9762   4.249   6.722   5.895 -0.0667 -0.3408  1.0135
   97SAPE  H16X 9763   4.198   6.639   5.842  0.4208  2.4864 -4.5786
   97SAPE  H16Y 9764   4.360   6.719   5.885 -0.1130 -0.4372  0.5108
   97SAPE  C317 9765   4.202   6.856   5.824 -0.1825 -0.0154  0.7643
   97SAPE  H17X 9766   4.252   6.945   5.868 -1.0237 -0.0079  1.7392
   97SAPE  H17Y 9767   4.096   6.874   5.850 -0.9900 -1.5023 -1.2460
   97SAPE  C318 9768   4.225   6.837   5.670 -0.1623  0.7664  0.2106
   97SAPE  H18X 9769   4.326   6.795   5.653  0.2855  1.0440  1.9856
   97SAPE  H18Y 9770   4.205   6.930   5.612  0.8326  0.2968 -0.9253
   97SAPE  H18Z 9771   4.147   6.766   5.635  0.9753 -0.1121 -0.6198
   98SAPE     N 9772   0.324   6.450   7.766  0.3001  0.1414 -0.6252
   98SAPE   HN1 9773   0.416   6.403   7.756 -0.4679 -1.4530 -0.3476
   98SAPE   HN2 9774   0.306   6.456   7.868 -0.3800  2.8645 -0.8281
   98SAPE   HN3 9775   0.252   6.382   7.734  0.2031 -0.7531  1.3976
   98SAPE   C12 9776   0.320   6.584   7.699 -0.2893 -0.5343  0.5899
   98SAPE  H12A 9777   0.339   6.567   7.591 -3.0286 -0.7211  0.0484
   98SAPE  H12B 9778   0.400   6.648   7.742  0.1026  0.0591 -0.9656
   98SAPE   C11 9779   0.178   6.656   7.715 -0.3497 -0.0912 -0.5235
   98SAPE  H11A 9780   0.114   6.609   7.637 -0.5899  1.8185 -1.5286
   98SAPE  H11B 9781   0.190   6.760   7.678 -3.0942  0.6420  0.4827
   98SAPE     P 9782   0.088   6.765   7.926 -0.0052 -0.6044 -0.0086
   98SAPE   O13 9783  -0.009   6.728   8.033 -0.0629 -0.0807 -0.4503
   98SAPE   O14 9784   0.207   6.836   7.968  0.0385 -0.4535  0.5122
   98SAPE   O12 9785   0.129   6.635   7.846 -0.1521  0.1022 -0.2278
   98SAPE   O11 9786   0.010   6.842   7.811  0.1372 -0.1245 -0.2111
   98SAPE    C1 9787  -0.116   6.905   7.840  0.0409 -0.2264  0.0514
   98SAPE    HA 9788  -0.188   6.822   7.860  0.3771 -0.7000 -0.6635
   98SAPE    HB 9789  -0.109   6.981   7.921 -0.3374 -0.1168 -0.0132
   98SAPE    C2 9790  -0.180   6.959   7.712 -0.1730 -0.2321  0.1042
   98SAPE    HS 9791  -0.290   6.942   7.713 -0.2019 -0.0765  1.2545
   98SAPE   O21 9792  -0.133   6.915   7.588  0.0769  0.2676 -0.0849
   98SAPE   C21 9793  -0.156   6.785   7.559 -0.0857 -0.1917  0.0366
   98SAPE   O22 9794  -0.227   6.716   7.629  0.0386 -0.0552 -0.0976
   98SAPE   C22 9795  -0.085   6.736   7.432  0.0592  0.2028 -0.4079
   98SAPE   H2R 9796   0.014   6.785   7.433  0.0781  0.2687 -2.2848
   98SAPE   H2S 9797  -0.056   6.629   7.434 -1.1719 -0.1383  0.9570
   98SAPE    C3 9798  -0.179   7.119   7.724 -0.6193 -0.2226 -0.0660
   98SAPE    HX 9799  -0.072   7.146   7.734 -0.2274 -1.8397  0.3063
   98SAPE    HY 9800  -0.235   7.134   7.819 -1.4061  1.6971 -0.7718
   98SAPE   O31 9801  -0.235   7.183   7.616  0.3565 -0.0275  0.7060
   98SAPE   C31 9802  -0.367   7.189   7.598  0.8759  0.3122 -0.1050
   98SAPE   O32 9803  -0.447   7.139   7.681 -0.7288 -0.0463  0.2436
   98SAPE   C32 9804  -0.407   7.258   7.467 -0.5526  0.2049 -0.1165
   98SAPE   H2X 9805  -0.328   7.233   7.393  0.0386  2.3777 -0.3024
   98SAPE   H2Y 9806  -0.394   7.366   7.490  1.4367 -0.0487  0.1564
   98SAPE   C23 9807  -0.157   6.767   7.299  0.6389 -0.2599  0.6952
   98SAPE   H3R 9808  -0.088   6.764   7.212 -0.6888 -0.0742 -0.3950
   98SAPE   H3S 9809  -0.198   6.870   7.298 -0.4644 -0.6077 -2.8747
   98SAPE   C24 9810  -0.275   6.675   7.249 -0.5143 -0.1279  0.7469
   98SAPE   H4R 9811  -0.246   6.568   7.238 -0.3617  0.1178 -1.7237
   98SAPE   H4S 9812  -0.290   6.702   7.143 -1.5435 -1.3374  0.5523
   98SAPE   C25 9813  -0.401   6.686   7.333 -0.1305 -0.3978  0.4105
   98SAPE   H5R 9814  -0.414   6.614   7.414 -1.8250  0.5732  1.0527
   98SAPE   C26 9815  -0.502   6.772   7.302 -0.4440  0.4578 -0.0861
   98SAPE   H6R 9816  -0.587   6.762   7.372 -0.6863  0.9894 -0.2979
   98SAPE   C27 9817  -0.514   6.879   7.192  0.5287  0.1545  0.3518
   98SAPE   H7R 9818  -0.417   6.881   7.138 -1.0303  1.7414 -2.6359
   98SAPE   H7S 9819  -0.530   6.982   7.230  1.5121  1.4109 -2.3912
   98SAPE   C28 9820  -0.614   6.843   7.090  0.0525 -0.5465 -0.3683
   98SAPE   H8R 9821  -0.695   6.777   7.126  1.1150 -0.0179  3.3616
   98SAPE   C29 9822  -0.615   6.883   6.961 -0.7575 -0.1134 -0.2214
   98SAPE   H9R 9823  -0.687   6.834   6.894 -0.5037 -1.1723  0.2516
   98SAPE  C210 9824  -0.514   6.981   6.903  0.2731 -0.3063  0.5689
   98SAPE  H10R 9825  -0.437   7.011   6.977 -0.6541  0.0109  1.4202
   98SAPE  H10S 9826  -0.575   7.071   6.878 -0.8411 -0.8432  1.3041
   98SAPE  C211 9827  -0.446   6.929   6.781  0.3715 -0.2960 -0.1050
   98SAPE  H11R 9828  -0.370   6.855   6.811  2.0471  2.1701  2.1934
   98SAPE  C212 9829  -0.463   6.956   6.650 -0.1601 -0.4565 -0.2339
   98SAPE  H12R 9830  -0.396   6.898   6.585 -1.7414 -0.4177 -1.9517
   98SAPE  C213 9831  -0.552   7.057   6.587  1.0969  0.3810 -0.4510
   98SAPE  H13R 9832  -0.510   7.120   6.505 -0.4024 -0.5468 -1.9863
   98SAPE  H13S 9833  -0.589   7.128   6.664  0.5169  0.2206 -0.5811
   98SAPE  C214 9834  -0.677   6.991   6.545  1.0952  0.1347 -0.7463
   98SAPE  H14R 9835  -0.761   6.966   6.612  0.3240  1.0210 -1.3488
   98SAPE  C215 9836  -0.696   6.959   6.416  0.9316 -0.5266  0.2478
   98SAPE  H15R 9837  -0.793   6.913   6.389 -1.9286  5.1140 -0.4707
   98SAPE  C216 9838  -0.591   6.970   6.302  0.2373 -0.1901 -0.4066
   98SAPE  H16R 9839  -0.612   6.875   6.248 -2.9069  0.3375 -0.3097
   98SAPE  H16S 9840  -0.488   6.967   6.341 -0.9097 -0.3726  2.9096
   98SAPE  C217 9841  -0.617   7.093   6.209  0.4648  0.5910 -0.1466
   98SAPE  H17R 9842  -0.600   7.176   6.280  0.8757 -0.0329  0.5065
   98SAPE  H17S 9843  -0.725   7.107   6.185 -0.4741  0.1622  3.2389
   98SAPE  C218 9844  -0.526   7.098   6.092 -0.5448 -0.6982 -0.8224
   98SAPE  H18R 9845  -0.546   7.014   6.021  2.5190 -1.8176 -0.5019
   98SAPE  H18S 9846  -0.422   7.085   6.129 -0.6840  2.2338  0.9039
   98SAPE  C219 9847  -0.551   7.223   6.007 -0.9850 -0.3629 -0.2603
   98SAPE  H19R 9848  -0.528   7.310   6.071  0.7461  0.3698 -1.7897
   98SAPE  H19S 9849  -0.660   7.226   5.985 -0.9988  1.4717 -0.0932
   98SAPE  C220 9850  -0.477   7.233   5.876 -0.3899  0.1483  0.0733
   98SAPE  H20R 9851  -0.518   7.304   5.801 -1.2080 -0.0172  0.3485
   98SAPE  H20S 9852  -0.474   7.136   5.822 -1.8760  1.5690 -2.7810
   98SAPE  H20T 9853  -0.369   7.247   5.899 -0.3760  1.3635 -0.6659
   98SAPE   C33 9854  -0.550   7.213   7.423 -0.2493 -0.1736 -0.0596
   98SAPE   H3X 9855  -0.611   7.225   7.515 -0.3212  2.0092 -0.3335
   98SAPE   H3Y 9856  -0.557   7.104   7.401 -2.0189 -0.3287  1.0763
   98SAPE   C34 9857  -0.598   7.301   7.310 -0.0040  0.4344  0.4054
   98SAPE   H4X 9858  -0.624   7.405   7.342  1.2750  0.6286  0.9272
   98SAPE   H4Y 9859  -0.689   7.252   7.271  0.8623 -1.0726  0.2139
   98SAPE   C35 9860  -0.499   7.311   7.194  0.7668  0.0811  0.6174
   98SAPE   H5X 9861  -0.474   7.206   7.167 -1.0878  0.2824 -2.2690
   98SAPE   H5Y 9862  -0.406   7.367   7.219 -0.0654  2.0210 -0.4765
   98SAPE   C36 9863  -0.548   7.384   7.068 -0.1277  0.3934  0.5536
   98SAPE   H6X 9864  -0.552   7.494   7.080  2.0760  0.6733 -0.6583
   98SAPE   H6Y 9865  -0.639   7.336   7.027  0.0006 -0.7085  1.4917
   98SAPE   C37 9866  -0.434   7.381   6.955  0.2872  0.7588  0.2009
   98SAPE   H7X 9867  -0.411   7.276   6.930 -0.7468  0.6170 -0.1701
   98SAPE   H7Y 9868  -0.344   7.433   6.996  0.0660  0.7195  0.7425
   98SAPE   C38 9869  -0.478   7.457   6.833  0.1308 -0.7896 -0.3889
   98SAPE   H8X 9870  -0.459   7.566   6.832 -1.1627 -0.5394 -1.3737
   98SAPE   H8Y 9871  -0.588   7.450   6.819 -0.1135  0.6425  0.5880
   98SAPE   C39 9872  -0.408   7.415   6.701  0.0842 -0.0274  0.3583
   98SAPE   H9X 9873  -0.432   7.309   6.678  0.2920  0.0047 -0.0134
   98SAPE   H9Y 9874  -0.299   7.437   6.706  0.5480 -2.1704  0.5703
   98SAPE  C310 9875  -0.467   7.482   6.581  0.7409  0.3670 -1.1965
   98SAPE  H10X 9876  -0.484   7.585   6.618  2.1814 -0.0539  0.8047
   98SAPE  H10Y 9877  -0.570   7.449   6.555 -0.1259  0.8164  1.3994
   98SAPE  C311 9878  -0.375   7.479   6.452 -0.2583 -0.4594 -0.6420
   98SAPE  H11X 9879  -0.363   7.376   6.412 -0.8529 -0.8237  0.1005
   98SAPE  H11Y 9880  -0.276   7.522   6.478 -0.5601 -0.6795  0.9536
   98SAPE  C312 9881  -0.447   7.564   6.345  0.1793 -0.2969  0.5496
   98SAPE  H12X 9882  -0.465   7.664   6.391 -2.1485 -0.5186  0.2400
   98SAPE  H12Y 9883  -0.550   7.523   6.337 -1.8693  4.1330  1.2104
   98SAPE  C313 9884  -0.372   7.586   6.214 -0.8960  0.1976  0.1637
   98SAPE  H13X 9885  -0.403   7.674   6.153  0.6411  1.1467  0.7113
   98SAPE  H13Y 9886  -0.369   7.489   6.161 -2.8951  0.4572 -0.5303
   98SAPE  C314 9887  -0.224   7.638   6.234  1.3059 -0.0630  0.5853
   98SAPE  H14X 9888  -0.162   7.556   6.276  0.7706  0.0669  1.6505
   98SAPE  H14Y 9889  -0.234   7.720   6.308 -0.2935  1.4029 -1.1455
   98SAPE  C315 9890  -0.163   7.708   6.112 -0.2167 -0.5887 -0.2098
   98SAPE  H15X 9891  -0.053   7.712   6.119 -0.2152  1.3862 -0.6896
   98SAPE  H15Y 9892  -0.208   7.810   6.117 -1.4601 -1.1720  1.4375
   98SAPE  C316 9893  -0.179   7.636   5.983  0.1884 -0.3647  0.2627
   98SAPE  H16X 9894  -0.284   7.604   5.966 -0.6157  2.3326 -0.4277
   98SAPE  H16Y 9895  -0.122   7.542   5.999 -0.3069 -0.8322 -0.6642
   98SAPE  C317 9896  -0.125   7.708   5.854  0.8074  0.5186 -0.0206
   98SAPE  H17X 9897  -0.143   7.818   5.860  0.8497  0.6766 -1.9682
   98SAPE  H17Y 9898  -0.175   7.666   5.764 -0.7537  0.7676  0.7072
   98SAPE  C318 9899   0.023   7.687   5.830 -0.1801 -0.0008 -0.4995
   98SAPE  H18X 9900   0.079   7.738   5.911 -0.6133 -0.9124  0.3966
   98SAPE  H18Y 9901   0.047   7.724   5.728 -1.6333 -2.6976 -1.9370
   98SAPE  H18Z 9902   0.057   7.581   5.825  0.1761  0.0556  0.6325
   99SAPE     N 9903   2.880   6.069   7.857  0.1643 -0.0376 -0.2041
   99SAPE   HN1 9904   2.794   6.121   7.884 -0.7798 -1.0804 -1.1186
   99SAPE   HN2 9905   2.865   5.969   7.834  1.9631  0.1120 -2.3494
   99SAPE   HN3 9906   2.935   6.071   7.946 -1.4522  0.3305  0.8291
   99SAPE   C12 9907   2.972   6.134   7.760 -0.5055  0.2433  0.0983
   99SAPE  H12A 9908   2.914   6.172   7.673  0.1177  0.0838 -0.4009
   99SAPE  H12B 9909   3.051   6.060   7.733 -1.3580 -1.2296  1.4456
   99SAPE   C11 9910   3.043   6.257   7.815 -0.7842 -0.1786  0.1900
   99SAPE  H11A 9911   3.101   6.310   7.736 -0.9153 -2.1395 -1.2870
   99SAPE  H11B 9912   3.121   6.221   7.884 -2.2716 -1.2436  1.3835
   99SAPE     P 9913   2.895   6.472   7.801 -0.1023  0.3208  0.5069
   99SAPE   O13 9914   2.800   6.414   7.707  0.0487  0.4742  0.5326
   99SAPE   O14 9915   2.831   6.564   7.902 -0.1472 -0.3030 -0.0475
   99SAPE   O12 9916   2.953   6.353   7.878 -0.4184 -0.0692  0.0336
   99SAPE   O11 9917   3.027   6.537   7.728 -0.3399  0.1532  0.1665
   99SAPE    C1 9918   3.134   6.586   7.807  0.2489 -0.4464  0.0469
   99SAPE    HA 9919   3.110   6.665   7.882  3.9468  1.5210 -0.6297
   99SAPE    HB 9920   3.179   6.500   7.861 -1.2581 -0.2924  1.6740
   99SAPE    C2 9921   3.234   6.635   7.704 -0.0289 -0.2701 -0.0846
   99SAPE    HS 9922   3.320   6.682   7.757 -0.3020 -0.8220  0.8877
   99SAPE   O21 9923   3.177   6.727   7.616  1.2218  0.2065 -0.3800
   99SAPE   C21 9924   3.158   6.856   7.665 -0.0984  0.2289 -0.0907
   99SAPE   O22 9925   3.178   6.886   7.779 -0.4678  0.2677 -0.3674
   99SAPE   C22 9926   3.107   6.947   7.554  0.1507  0.4297 -0.6923
   99SAPE   H2R 9927   3.110   6.899   7.454 -1.2510 -0.4792 -0.3380
   99SAPE   H2S 9928   2.998   6.946   7.577  0.9190  0.1253  3.7326
   99SAPE    C3 9929   3.309   6.516   7.627 -0.4745  0.0187 -0.3283
   99SAPE    HX 9930   3.226   6.456   7.584 -1.1727  0.2003  0.7272
   99SAPE    HY 9931   3.374   6.455   7.694 -0.1603 -0.9626 -1.4773
   99SAPE   O31 9932   3.393   6.569   7.516 -0.1974 -0.2935 -0.1927
   99SAPE   C31 9933   3.337   6.577   7.394  0.2524 -0.8869  0.2283
   99SAPE   O32 9934   3.229   6.531   7.366  0.3422  0.0631  0.6162
   99SAPE   C32 9935   3.429   6.635   7.289 -0.1563 -0.4109 -0.1253
   99SAPE   H2X 9936   3.535   6.648   7.316 -0.5973  1.8043  0.7067
   99SAPE   H2Y 9937   3.385   6.735   7.268 -2.2100 -0.1223  4.5269
   99SAPE   C23 9938   3.157   7.094   7.557  0.9012  0.1630  0.2941
   99SAPE   H3R 9939   3.184   7.120   7.662 -1.2039  1.0519  0.6717
   99SAPE   H3S 9940   3.065   7.153   7.535  0.5990 -0.0574  0.9668
   99SAPE   C24 9941   3.267   7.133   7.458 -0.4860  0.0506 -0.4783
   99SAPE   H4R 9942   3.269   7.244   7.452  0.9085  0.0644 -0.2230
   99SAPE   H4S 9943   3.251   7.095   7.355  0.8423  2.8059 -1.8132
   99SAPE   C25 9944   3.406   7.083   7.508 -0.0824 -0.7624 -0.9092
   99SAPE   H5R 9945   3.402   7.050   7.613 -1.3551 -0.5125 -0.8627
   99SAPE   C26 9946   3.522   7.073   7.438  0.1859 -0.9427  1.6333
   99SAPE   H6R 9947   3.606   7.030   7.494  2.7599  2.1716  0.5208
   99SAPE   C27 9948   3.527   7.101   7.284  0.3325 -0.5736 -0.5759
   99SAPE   H7R 9949   3.601   7.171   7.239  0.2178  0.9110  1.3955
   99SAPE   H7S 9950   3.431   7.131   7.238  2.0780  0.6076 -3.7645
   99SAPE   C28 9951   3.556   6.962   7.225 -0.1203  0.1458  0.3962
   99SAPE   H8R 9952   3.635   6.912   7.281  3.8285  4.6165 -0.5259
   99SAPE   C29 9953   3.505   6.906   7.115 -0.7397  0.2366  0.0391
   99SAPE   H9R 9954   3.549   6.809   7.089  2.0393  1.4249 -0.0998
   99SAPE  C210 9955   3.412   6.957   7.005  0.0987 -0.2267  0.1499
   99SAPE  H10R 9956   3.379   7.062   7.020 -1.2331 -0.4045 -1.3273
   99SAPE  H10S 9957   3.317   6.901   7.011 -1.1114  1.6630 -0.6215
   99SAPE  C211 9958   3.483   6.953   6.871  0.4197  0.0230 -0.3463
   99SAPE  H11R 9959   3.569   7.022   6.862  2.0688 -1.5362  2.0147
   99SAPE  C212 9960   3.451   6.874   6.764  0.7142 -0.2926 -0.2396
   99SAPE  H12R 9961   3.524   6.873   6.683  0.3666 -2.3235 -0.5626
   99SAPE  C213 9962   3.331   6.776   6.748 -0.1472  0.6218 -0.4715
   99SAPE  H13R 9963   3.289   6.785   6.645  0.1167 -0.5144 -0.6874
   99SAPE  H13S 9964   3.248   6.813   6.812 -0.6608 -0.1047 -0.7065
   99SAPE  C214 9965   3.372   6.630   6.774 -0.2142 -0.5182 -0.0230
   99SAPE  H14R 9966   3.451   6.613   6.848 -0.0732 -1.3106 -0.3446
   99SAPE  C215 9967   3.312   6.526   6.714  0.1796 -0.3200  0.2256
   99SAPE  H15R 9968   3.347   6.424   6.735 -1.7217 -0.7608  1.5914
   99SAPE  C216 9969   3.193   6.540   6.622  1.1399 -0.0408  0.0818
   99SAPE  H16R 9970   3.127   6.630   6.627 -1.4681 -1.7181 -1.4530
   99SAPE  H16S 9971   3.125   6.457   6.651  0.6295  0.7215  1.1021
   99SAPE  C217 9972   3.229   6.538   6.476 -0.8141  0.3477  0.8164
   99SAPE  H17R 9973   3.253   6.430   6.462 -0.3471  0.3095  1.7798
   99SAPE  H17S 9974   3.314   6.600   6.438  1.0013 -2.5892 -0.3325
   99SAPE  C218 9975   3.111   6.563   6.376  0.6173 -0.6173  0.4545
   99SAPE  H18R 9976   3.082   6.670   6.365 -0.0578 -0.9322 -1.1663
   99SAPE  H18S 9977   3.019   6.512   6.412 -0.9284  1.6909 -0.0199
   99SAPE  C219 9978   3.139   6.522   6.235 -0.6017 -0.8987 -0.0942
   99SAPE  H19R 9979   3.167   6.416   6.223  1.1341 -0.4234 -0.4695
   99SAPE  H19S 9980   3.232   6.577   6.209 -2.2589  1.8968 -0.5218
   99SAPE  C220 9981   3.025   6.553   6.133  0.1724  0.1021 -0.2865
   99SAPE  H20R 9982   3.004   6.663   6.131  0.8817  0.2313 -1.0794
   99SAPE  H20S 9983   2.925   6.517   6.166 -0.7763  2.6179 -0.1352
   99SAPE  H20T 9984   3.045   6.508   6.033  0.7374  0.6171 -0.4167
   99SAPE   C33 9985   3.417   6.552   7.153  0.2188  0.1704  0.8169
   99SAPE   H3X 9986   3.477   6.600   7.074  0.7850 -0.2236  1.0036
   99SAPE   H3Y 9987   3.314   6.544   7.112  0.2209  1.5110  0.5147
   99SAPE   C34 9988   3.484   6.420   7.169 -0.4219  0.2111 -0.0718
   99SAPE   H4X 9989   3.437   6.369   7.256  1.0954 -1.3169 -0.0989
   99SAPE   H4Y 9990   3.591   6.434   7.196 -0.7663  1.3245  0.8142
   99SAPE   C35 9991   3.473   6.331   7.039  0.1377 -0.6391 -0.2161
   99SAPE   H5X 9992   3.505   6.393   6.952 -1.8806  1.3952  0.3848
   99SAPE   H5Y 9993   3.364   6.308   7.040 -0.3692  1.3901  2.7139
   99SAPE   C36 9994   3.540   6.199   7.032  0.1662 -0.1726 -0.0529
   99SAPE   H6X 9995   3.501   6.142   7.119  0.1068 -0.1716 -0.0786
   99SAPE   H6Y 9996   3.648   6.221   7.049 -0.0295  0.2257  0.7259
   99SAPE   C37 9997   3.511   6.126   6.900  0.3431 -0.4646  0.4985
   99SAPE   H7X 9998   3.401   6.132   6.891  0.4453  0.4359 -0.1601
   99SAPE   H7Y 9999   3.532   6.017   6.896 -3.5632 -1.3566 -3.4316
   99SAPE   C3810000   3.577   6.190   6.776 -0.5683  0.1255 -0.3542
   99SAPE   H8X10001   3.687   6.208   6.786 -0.6887  2.3491 -2.0868
   99SAPE   H8Y10002   3.542   6.295   6.775 -1.4876 -0.1502  0.8375
   99SAPE   C3910003   3.542   6.122   6.645 -0.3139 -0.7876  0.1479
   99SAPE   H9X10004   3.431   6.120   6.638 -0.2915  1.2245 -2.8521
   99SAPE   H9Y10005   3.574   6.015   6.646  1.6958 -0.2314  2.0604
   99SAPE  C31010006   3.591   6.205   6.526  0.1247  0.0318  0.3550
   99SAPE  H10X10007   3.698   6.200   6.497 -0.1407  0.9361 -0.8623
   99SAPE  H10Y10008   3.577   6.313   6.549  1.7614  0.2892  0.2285
   99SAPE  C31110009   3.516   6.163   6.393 -0.6083 -0.0935 -0.1471
   99SAPE  H11X10010   3.408   6.148   6.415 -0.4179  1.1234  1.9455
   99SAPE  H11Y10011   3.566   6.074   6.349 -0.3684  0.3892 -0.8628
   99SAPE  C31210012   3.515   6.278   6.290  0.4519 -0.1728 -0.1031
   99SAPE  H12X10013   3.618   6.309   6.261  0.6158 -2.7075 -2.6003
   99SAPE  H12Y10014   3.456   6.360   6.337  0.1123 -0.6616  0.3312
   99SAPE  C31310015   3.455   6.227   6.162  0.0508  1.1929  0.1066
   99SAPE  H13X10016   3.365   6.170   6.195  0.1717  1.8223  1.6191
   99SAPE  H13Y10017   3.517   6.148   6.115 -3.4480 -3.2811  2.2508
   99SAPE  C31410018   3.405   6.332   6.061 -0.6650  0.1634 -0.2440
   99SAPE  H14X10019   3.489   6.387   6.012  0.6568  0.2104  1.9616
   99SAPE  H14Y10020   3.354   6.409   6.122 -0.4605  0.5216 -0.5200
   99SAPE  C31510021   3.310   6.281   5.956 -0.0333 -0.0861  0.1157
   99SAPE  H15X10022   3.217   6.257   6.012 -0.5398  1.0841 -0.1856
   99SAPE  H15Y10023   3.348   6.186   5.914  0.5676  1.5467 -3.3692
   99SAPE  C31610024   3.282   6.372   5.843  0.1117 -0.0618  0.9650
   99SAPE  H16X10025   3.381   6.402   5.801  0.2722 -2.1555 -0.2919
   99SAPE  H16Y10026   3.232   6.462   5.884 -1.8951 -1.2690  1.3031
   99SAPE  C31710027   3.188   6.309   5.733  0.5223 -0.1832  0.7635
   99SAPE  H17X10028   3.101   6.268   5.788  1.2572  0.2371  2.2836
   99SAPE  H17Y10029   3.240   6.222   5.688 -0.3701  0.3407 -1.4417
   99SAPE  C31810030   3.143   6.399   5.627  0.4814 -0.2365 -0.2521
   99SAPE  H18X10031   3.041   6.369   5.595 -0.5787  1.9625  0.9140
   99SAPE  H18Y10032   3.226   6.410   5.553  1.3282  1.1768  0.8688
   99SAPE  H18Z10033   3.127   6.504   5.658  1.3910  0.4379 -1.9152
  100SAPE     N10034   5.644   4.742   7.430  0.1437  0.1856 -0.0487
  100SAPE   HN110035   5.573   4.817   7.436  0.1992  0.2315  0.0217
  100SAPE   HN210036   5.659   4.699   7.523  0.4805 -0.9813 -0.6153
  100SAPE   HN310037   5.739   4.777   7.403 -0.5996  1.4113 -1.1969
  100SAPE   C1210038   5.597   4.642   7.320  0.0236 -0.7143  0.0409
  100SAPE  H12A10039   5.637   4.667   7.219  0.0584  1.4458  0.5318
  100SAPE  H12B10040   5.487   4.648   7.328 -0.0455 -1.7050 -0.1359
  100SAPE   C1110041   5.645   4.500   7.353 -0.0847 -0.1765  0.1318
  100SAPE  H11A10042   5.631   4.432   7.266 -0.7034 -0.9907  0.8449
  100SAPE  H11B10043   5.576   4.464   7.432  1.1039  3.1531  2.8994
  100SAPE     P10044   5.868   4.363   7.377 -0.4592  0.2922  0.0301
  100SAPE   O1310045   5.990   4.379   7.461  0.3874 -0.3716 -0.3798
  100SAPE   O1410046   5.791   4.241   7.394 -0.3266 -0.2154 -0.5680
  100SAPE   O1210047   5.775   4.494   7.404 -0.2635  0.6806  0.2261
  100SAPE   O1110048   5.911   4.386   7.227  0.1114 -0.4891  0.2002
  100SAPE    C110049   5.958   4.522   7.188 -0.8382  0.3466  0.7033
  100SAPE    HA10050   5.939   4.599   7.264 -2.3619  0.6674  0.0242
  100SAPE    HB10051   6.066   4.519   7.161 -1.3642  0.6561 -1.6457
  100SAPE    C210052   5.884   4.562   7.057 -0.1043  0.7496  0.7128
  100SAPE    HS10053   5.777   4.581   7.081 -0.1146 -0.0100  1.2799
  100SAPE   O2110054   5.902   4.459   6.957  1.0109 -0.2557 -0.5412
  100SAPE   C2110055   5.811   4.479   6.854  0.3021 -0.2633  0.0022
  100SAPE   O2210056   5.712   4.548   6.862  0.1637  0.5363 -0.6478
  100SAPE   C2210057   5.845   4.383   6.740  0.0941 -0.2926  0.5449
  100SAPE   H2R10058   5.936   4.328   6.772  0.1542 -0.0946  0.7211
  100SAPE   H2S10059   5.754   4.320   6.741 -0.5658  0.6172  0.0891
  100SAPE    C310060   5.950   4.692   7.002  0.6947  0.0714 -0.1226
  100SAPE    HX10061   5.942   4.769   7.081  0.7974 -0.2040  0.1571
  100SAPE    HY10062   5.890   4.730   6.916 -0.1815 -0.3985  0.2688
  100SAPE   O3110063   6.090   4.659   6.962  0.5103 -0.1026  0.0025
  100SAPE   C3110064   6.121   4.668   6.830  0.0952 -0.0193  0.8006
  100SAPE   O3210065   6.050   4.727   6.748 -0.8378 -0.0371  0.2878
  100SAPE   C3210066   6.245   4.576   6.807  0.4409  0.6558 -0.3804
  100SAPE   H2X10067   6.250   4.486   6.872 -0.9644  0.0664 -1.0300
  100SAPE   H2Y10068   6.327   4.646   6.831 -0.8703  2.5943 -1.2516
  100SAPE   C2310069   5.860   4.454   6.603 -0.4902  0.5887 -0.3264
  100SAPE   H3R10070   5.905   4.555   6.615  2.1964 -0.7578  2.0508
  100SAPE   H3S10071   5.758   4.477   6.565 -0.0204  1.5980 -1.0319
  100SAPE   C2410072   5.927   4.369   6.495  0.3768 -0.2459 -0.4679
  100SAPE   H4R10073   6.035   4.350   6.511  1.0303  2.4585 -1.0602
  100SAPE   H4S10074   5.928   4.440   6.409  2.5472  0.1962 -0.1270
  100SAPE   C2510075   5.845   4.245   6.471 -1.1096  0.4339  0.3995
  100SAPE   H5R10076   5.843   4.177   6.558  0.7339 -0.7659 -0.4224
  100SAPE   C2610077   5.761   4.222   6.365  0.4363  0.0617  0.2879
  100SAPE   H6R10078   5.699   4.132   6.363 -0.6303  0.7681  0.6585
  100SAPE   C2710079   5.730   4.316   6.249 -0.5985 -0.2127  0.1020
  100SAPE   H7R10080   5.737   4.420   6.287 -1.9913 -0.2690  0.5668
  100SAPE   H7S10081   5.630   4.292   6.207 -0.5958 -0.6840  0.3559
  100SAPE   C2810082   5.832   4.299   6.146 -0.2640  0.0772  0.8970
  100SAPE   H8R10083   5.878   4.200   6.144 -1.2255 -0.3923  1.3340
  100SAPE   C2910084   5.870   4.397   6.061  0.5891 -0.3436  0.6494
  100SAPE   H9R10085   5.945   4.357   5.992 -0.8956 -2.7025  0.3158
  100SAPE  C21010086   5.825   4.542   6.041 -0.1515 -0.0336 -0.7241
  100SAPE  H10R10087   5.897   4.601   5.980 -0.0188  0.1125 -0.4301
  100SAPE  H10S10088   5.834   4.593   6.139 -2.3494  0.4395 -0.7293
  100SAPE  C21110089   5.681   4.543   5.988  0.0585  0.3367 -0.2083
  100SAPE  H11R10090   5.614   4.516   6.071  1.7103 -0.8209  0.8256
  100SAPE  C21210091   5.647   4.581   5.857 -0.6624 -0.0264 -0.1919
  100SAPE  H12R10092   5.540   4.572   5.837 -0.9757  0.0960  1.2989
  100SAPE  C21310093   5.728   4.639   5.740 -0.7264 -0.9773 -0.5851
  100SAPE  H13R10094   5.826   4.676   5.776  0.8879 -2.4699 -3.0857
  100SAPE  H13S10095   5.674   4.730   5.706  0.5094 -0.9427 -2.6188
  100SAPE  C21410096   5.770   4.536   5.642  0.0939  1.0309 -0.0376
  100SAPE  H14R10097   5.764   4.434   5.684  3.7373  0.9301  0.5568
  100SAPE  C21510098   5.827   4.561   5.517  0.8821  0.9225  0.1057
  100SAPE  H15R10099   5.842   4.476   5.448 -3.5622 -0.4531  0.5102
  100SAPE  C21610100   5.850   4.693   5.448  0.2674  1.1096 -0.4455
  100SAPE  H16R10101   5.960   4.702   5.436  0.6934 -2.0770  0.0291
  100SAPE  H16S10102   5.818   4.779   5.510  0.7254  1.1123 -0.2096
  100SAPE  C21710103   5.792   4.692   5.309 -0.4518 -0.7514  0.9299
  100SAPE  H17R10104   5.840   4.619   5.240 -3.5121  1.3441 -4.0613
  100SAPE  H17S10105   5.808   4.787   5.255  0.9977 -1.5606 -0.1276
  100SAPE  C21810106   5.639   4.678   5.305 -0.3003 -0.1340  0.3403
  100SAPE  H18R10107   5.595   4.770   5.349 -0.6813 -0.4594  0.6471
  100SAPE  H18S10108   5.604   4.593   5.367 -0.6141  0.3046  0.7760
  100SAPE  C21910109   5.578   4.673   5.166 -0.2287 -0.5721  0.5916
  100SAPE  H19R10110   5.621   4.596   5.099  2.3313  2.3125 -1.3984
  100SAPE  H19S10111   5.622   4.764   5.120  1.1607 -0.4173  2.1364
  100SAPE  C22010112   5.428   4.679   5.172 -0.0499  0.2091  0.3968
  100SAPE  H20R10113   5.389   4.706   5.072 -0.1885  0.8418  0.6124
  100SAPE  H20S10114   5.395   4.750   5.252 -0.5550 -0.5865  0.9087
  100SAPE  H20T10115   5.382   4.581   5.195 -3.5090  1.0485 -2.1614
  100SAPE   C3310116   6.266   4.527   6.657  0.7148 -0.2867 -0.7285
  100SAPE   H3X10117   6.244   4.612   6.589  1.4423  0.4435 -0.0696
  100SAPE   H3Y10118   6.183   4.452   6.658  0.2045  0.2334  1.1572
  100SAPE   C3410119   6.396   4.461   6.616 -0.0764 -0.5020  0.1658
  100SAPE   H4X10120   6.412   4.376   6.685  1.4088  0.7848  1.4699
  100SAPE   H4Y10121   6.481   4.531   6.629 -0.3496 -0.1200 -0.0553
  100SAPE   C3510122   6.379   4.411   6.473  0.1198 -0.2809  0.0524
  100SAPE   H5X10123   6.375   4.506   6.416 -1.1993 -0.7771 -0.7242
  100SAPE   H5Y10124   6.278   4.366   6.466 -0.5141  1.2613 -1.4077
  100SAPE   C3610125   6.486   4.319   6.415  0.8804  0.0846 -0.1793
  100SAPE   H6X10126   6.458   4.212   6.427  1.0128 -0.0252 -0.8371
  100SAPE   H6Y10127   6.584   4.340   6.463  0.1735  0.1298  1.3291
  100SAPE   C3710128   6.508   4.343   6.268  0.6580  0.3072  0.2922
  100SAPE   H7X10129   6.602   4.291   6.239  0.2186 -1.1088  1.2862
  100SAPE   H7Y10130   6.533   4.451   6.259  1.1397  0.2217  0.5350
  100SAPE   C3810131   6.394   4.290   6.170 -0.0694 -0.3208 -0.4944
  100SAPE   H8X10132   6.296   4.322   6.212 -0.4655  0.4599 -1.9262
  100SAPE   H8Y10133   6.387   4.179   6.174 -0.8513 -0.2833 -0.5712
  100SAPE   C3910134   6.417   4.330   6.022 -0.4493 -0.1308  0.0798
  100SAPE   H9X10135   6.514   4.286   5.988  0.7955  0.4504  2.5972
  100SAPE   H9Y10136   6.429   4.440   6.019  0.0792 -0.1033  1.9436
  100SAPE  C31010137   6.292   4.306   5.944  0.4073  0.2583 -0.0473
  100SAPE  H10X10138   6.201   4.358   5.981 -0.3489 -1.4882  0.6300
  100SAPE  H10Y10139   6.266   4.198   5.945  3.6752 -0.6738  1.7824
  100SAPE  C31110140   6.309   4.338   5.798 -0.3191 -0.1455 -0.0756
  100SAPE  H11X10141   6.403   4.287   5.768 -1.0112 -1.2301 -0.4689
  100SAPE  H11Y10142   6.330   4.447   5.796 -0.9222  0.1095  2.9847
  100SAPE  C31210143   6.194   4.293   5.713 -0.0502 -0.0477 -0.3315
  100SAPE  H12X10144   6.099   4.312   5.767  0.7201 -0.5873  1.2660
  100SAPE  H12Y10145   6.207   4.184   5.700  1.3748  0.3571 -3.0541
  100SAPE  C31310146   6.182   4.362   5.572  0.2491 -0.1334 -0.2933
  100SAPE  H13X10147   6.119   4.453   5.569  3.0095  1.9019 -2.6363
  100SAPE  H13Y10148   6.124   4.281   5.523 -0.1653 -2.7645  4.0149
  100SAPE  C31410149   6.311   4.397   5.506 -0.2511  0.0565 -0.2035
  100SAPE  H14X10150   6.390   4.318   5.506 -1.5405 -1.3214 -2.4158
  100SAPE  H14Y10151   6.361   4.485   5.554  1.9263 -0.6303 -1.0842
  100SAPE  C31510152   6.290   4.429   5.359  0.0487 -0.3065  0.0680
  100SAPE  H15X10153   6.249   4.336   5.315 -0.9850  0.6165 -0.9550
  100SAPE  H15Y10154   6.384   4.460   5.307 -0.9059  0.1462 -1.4342
  100SAPE  C31610155   6.195   4.547   5.331 -0.1277 -0.4468 -0.4676
  100SAPE  H16X10156   6.102   4.535   5.391 -1.0708 -0.0429 -1.7933
  100SAPE  H16Y10157   6.167   4.552   5.224  0.9090  4.2728 -0.7721
  100SAPE  C31710158   6.262   4.687   5.338 -0.2874  0.4181 -0.3876
  100SAPE  H17X10159   6.319   4.690   5.433 -0.0017  1.0335 -0.5761
  100SAPE  H17Y10160   6.181   4.763   5.332 -2.2002 -1.4637  0.1027
  100SAPE  C31810161   6.356   4.703   5.213  0.3795 -0.1060  0.1491
  100SAPE  H18X10162   6.388   4.604   5.175 -3.5782 -0.8515 -1.7354
  100SAPE  H18Y10163   6.440   4.768   5.246 -0.8608  1.6992 -0.0927
  100SAPE  H18Z10164   6.305   4.756   5.129  1.4680  0.7420 -0.0066
  101SAPE     N10165   6.518   5.885   7.339 -0.4051  0.0814 -0.1622
  101SAPE   HN110166   6.531   5.968   7.278  1.6314  0.0784  0.2090
  101SAPE   HN210167   6.431   5.896   7.396 -1.1517 -3.1163 -0.4609
  101SAPE   HN310168   6.596   5.873   7.408 -0.3327 -0.1372 -0.2810
  101SAPE   C1210169   6.500   5.758   7.255 -0.0427  0.2301  0.1301
  101SAPE  H12A10170   6.595   5.730   7.205 -0.3869 -1.1201  0.1691
  101SAPE  H12B10171   6.410   5.775   7.191 -0.4449  1.7695  1.0570
  101SAPE   C1110172   6.450   5.646   7.353  0.2380  0.1024  0.0900
  101SAPE  H11A10173   6.530   5.612   7.421 -0.4331 -0.3609  0.6570
  101SAPE  H11B10174   6.413   5.554   7.303  0.2284 -0.7886  1.7010
  101SAPE     P10175   6.243   5.610   7.505 -0.0822  0.0360  0.3809
  101SAPE   O1310176   6.299   5.534   7.619  0.0881  0.5680  0.0571
  101SAPE   O1410177   6.121   5.690   7.535  0.2006 -0.9533  0.2125
  101SAPE   O1210178   6.351   5.703   7.437 -0.6098  1.0007 -0.4898
  101SAPE   O1110179   6.199   5.502   7.393 -0.1077  0.2502  0.5092
  101SAPE    C110180   6.151   5.553   7.263 -0.0638  0.1603 -0.3916
  101SAPE    HA10181   6.065   5.622   7.269 -0.5926 -0.2420 -2.5925
  101SAPE    HB10182   6.232   5.597   7.202  1.7157 -0.7505  1.1887
  101SAPE    C210183   6.093   5.434   7.177  0.0622 -0.0159  0.4816
  101SAPE    HS10184   6.007   5.387   7.230  0.1445  0.2998  0.9010
  101SAPE   O2110185   6.196   5.343   7.139 -0.3411  0.2848  0.2067
  101SAPE   C2110186   6.155   5.233   7.090 -0.0831  0.0506 -0.2843
  101SAPE   O2210187   6.041   5.195   7.095  0.3423  0.5191 -0.0624
  101SAPE   C2210188   6.267   5.156   7.022  0.3586 -0.0741 -0.0077
  101SAPE   H2R10189   6.363   5.211   7.007  1.2419 -0.8869  2.1838
  101SAPE   H2S10190   6.292   5.082   7.101 -0.3142  0.7057  0.9769
  101SAPE    C310191   6.025   5.484   7.042  0.4967 -0.9004 -0.1097
  101SAPE    HX10192   5.941   5.548   7.075 -0.0093 -1.8171  0.4343
  101SAPE    HY10193   5.980   5.394   6.996  2.4934 -1.3740 -1.2635
  101SAPE   O3110194   6.107   5.540   6.941  0.1203  0.4489 -0.0498
  101SAPE   C3110195   6.118   5.678   6.958 -0.2024 -0.1756  0.7227
  101SAPE   O3210196   6.054   5.742   7.042 -0.2740 -0.2863 -0.3915
  101SAPE   C3210197   6.200   5.725   6.836 -0.4439  0.5992  0.1190
  101SAPE   H2X10198   6.181   5.656   6.750  2.0581 -1.2944  0.9633
  101SAPE   H2Y10199   6.307   5.725   6.867 -0.1958 -1.3951 -0.5660
  101SAPE   C2310200   6.207   5.089   6.892  0.9253 -0.8838  0.5142
  101SAPE   H3R10201   6.112   5.033   6.897  0.6207 -0.3514  0.8630
  101SAPE   H3S10202   6.287   5.017   6.867  0.8114  0.2344 -4.0009
  101SAPE   C2410203   6.179   5.177   6.763 -0.0681  1.0092  0.3745
  101SAPE   H4R10204   6.257   5.256   6.766 -0.2129  1.1453  2.7301
  101SAPE   H4S10205   6.077   5.219   6.777 -1.2635 -1.7517  0.6583
  101SAPE   C2510206   6.174   5.103   6.629 -0.2383 -0.1857  0.5841
  101SAPE   H5R10207   6.223   5.005   6.624  0.0733 -0.0412  0.7831
  101SAPE   C2610208   6.139   5.163   6.511 -0.2185 -0.2030  0.8303
  101SAPE   H6R10209   6.121   5.103   6.421 -2.6760  3.0383 -1.0418
  101SAPE   C2710210   6.095   5.304   6.481  1.2192  0.0621  0.2206
  101SAPE   H7R10211   6.056   5.352   6.574  0.6752 -2.0743  1.1608
  101SAPE   H7S10212   6.005   5.280   6.421  1.6829  1.1369 -0.9427
  101SAPE   C2810213   6.177   5.393   6.394  0.9503 -0.2432 -1.0184
  101SAPE   H8R10214   6.220   5.476   6.451  1.5562 -1.0082 -0.3418
  101SAPE   C2910215   6.189   5.381   6.258 -0.3511  0.4875 -0.3011
  101SAPE   H9R10216   6.266   5.439   6.206  2.1535 -2.1492  0.1488
  101SAPE  C21010217   6.134   5.263   6.182  0.6377 -0.1088 -0.0363
  101SAPE  H10R10218   6.025   5.253   6.200  0.8398  1.0958  2.2664
  101SAPE  H10S10219   6.173   5.170   6.229 -0.9842 -0.0236  1.6115
  101SAPE  C21110220   6.174   5.252   6.037  0.2324 -0.0805  0.3331
  101SAPE  H11R10221   6.240   5.334   6.005  0.6054 -0.7516 -0.6764
  101SAPE  C21210222   6.121   5.174   5.938 -0.5508  0.0332 -0.1092
  101SAPE  H12R10223   6.156   5.176   5.834 -0.6159  1.0512 -0.1189
  101SAPE  C21310224   6.015   5.066   5.963 -0.8363  0.3647 -0.2048
  101SAPE  H13R10225   5.911   5.105   5.962 -1.4785 -1.2479  0.1051
  101SAPE  H13S10226   6.013   5.021   6.065 -0.5367 -0.3668 -0.5109
  101SAPE  C21410227   6.017   4.951   5.867 -0.4287  0.0545 -0.6475
  101SAPE  H14R10228   5.926   4.954   5.805 -1.6352 -0.9285  0.9895
  101SAPE  C21510229   6.107   4.855   5.847 -0.2778 -0.2871  0.0737
  101SAPE  H15R10230   6.088   4.777   5.772 -1.8322 -0.0255  0.1691
  101SAPE  C21610231   6.242   4.834   5.919 -0.1528 -0.0810 -0.8878
  101SAPE  H16R10232   6.243   4.911   6.000 -0.9075  0.0948 -1.0356
  101SAPE  H16S10233   6.331   4.848   5.855 -1.0408 -2.2191 -2.6890
  101SAPE  C21710234   6.250   4.700   5.981  0.2615  0.3683 -0.8179
  101SAPE  H17R10235   6.354   4.664   5.991  0.2764  0.4399 -0.7203
  101SAPE  H17S10236   6.209   4.632   5.903  0.8437  0.8662 -1.5774
  101SAPE  C21810237   6.168   4.689   6.113  0.3282 -0.1310 -0.3233
  101SAPE  H18R10238   6.157   4.579   6.123 -0.6781  0.1334  2.0747
  101SAPE  H18S10239   6.071   4.741   6.102 -0.6667 -1.8299  0.0049
  101SAPE  C21910240   6.229   4.737   6.245  0.7312 -0.0906  0.1720
  101SAPE  H19R10241   6.263   4.841   6.228 -3.1483  1.3685  0.2696
  101SAPE  H19S10242   6.313   4.671   6.276  0.4543  0.3266  1.9316
  101SAPE  C22010243   6.128   4.735   6.365 -0.0297 -0.1238 -0.1128
  101SAPE  H20R10244   6.099   4.630   6.383  1.3970 -0.5718 -0.3252
  101SAPE  H20S10245   6.042   4.795   6.328 -0.2308 -2.2053 -3.3651
  101SAPE  H20T10246   6.180   4.785   6.450  0.7880  1.0962 -1.2840
  101SAPE   C3310247   6.155   5.869   6.804 -0.7088  0.6797  0.4557
  101SAPE   H3X10248   6.226   5.906   6.727 -0.4488 -0.9091 -0.1173
  101SAPE   H3Y10249   6.163   5.927   6.898  2.7536  1.2168 -0.0337
  101SAPE   C3410250   6.009   5.870   6.757 -0.1427  0.5308 -0.5777
  101SAPE   H4X10251   5.984   5.975   6.734 -3.5784 -0.2292 -0.8100
  101SAPE   H4Y10252   5.939   5.835   6.837  1.9025 -2.8308 -0.0419
  101SAPE   C3510253   5.972   5.795   6.627  0.2972 -0.3632 -0.6162
  101SAPE   H5X10254   5.865   5.807   6.598  0.6920 -0.0133 -1.9721
  101SAPE   H5Y10255   5.977   5.689   6.661 -0.9750 -0.2236  0.0823
  101SAPE   C3610256   6.061   5.832   6.513  0.3866 -0.4389 -0.1669
  101SAPE   H6X10257   6.156   5.781   6.537  0.4679 -0.0853  0.2731
  101SAPE   H6Y10258   6.081   5.941   6.503  1.2828 -0.7766 -2.7633
  101SAPE   C3710259   5.995   5.776   6.388  0.0353 -0.1361 -0.3219
  101SAPE   H7X10260   5.913   5.840   6.349  0.5481  0.3804 -0.5584
  101SAPE   H7Y10261   5.955   5.678   6.425 -0.0430  1.2042  3.6066
  101SAPE   C3810262   6.103   5.765   6.280  0.0283 -0.1954 -0.2186
  101SAPE   H8X10263   6.197   5.720   6.316  0.3078  0.7989  0.3203
  101SAPE   H8Y10264   6.134   5.870   6.259  1.3746 -0.5097  0.0971
  101SAPE   C3910265   6.056   5.696   6.149 -0.6100  0.3754  0.8546
  101SAPE   H9X10266   5.960   5.738   6.112 -1.1773 -0.0860  1.7668
  101SAPE   H9Y10267   6.048   5.587   6.169 -0.1463  0.5972  2.3518
  101SAPE  C31010268   6.156   5.706   6.035 -0.2477 -0.4835 -0.0446
  101SAPE  H10X10269   6.260   5.673   6.059 -0.0776 -0.9504 -1.3517
  101SAPE  H10Y10270   6.152   5.811   5.997 -2.5460 -0.5454 -0.0810
  101SAPE  C31110271   6.111   5.621   5.915 -0.0740  0.0188  0.3677
  101SAPE  H11X10272   6.012   5.655   5.879 -0.2760 -3.1135 -2.5424
  101SAPE  H11Y10273   6.099   5.514   5.943  3.1858 -0.4872  0.2225
  101SAPE  C31210274   6.217   5.624   5.803  0.0893  0.7439  0.4099
  101SAPE  H12X10275   6.311   5.584   5.846 -0.2165 -2.1764 -1.3290
  101SAPE  H12Y10276   6.240   5.729   5.777 -1.0210  0.6236 -1.2266
  101SAPE  C31310277   6.178   5.570   5.668  0.0679 -0.4943  0.1393
  101SAPE  H13X10278   6.257   5.593   5.593 -1.8452  0.7653 -1.6128
  101SAPE  H13Y10279   6.096   5.631   5.624 -0.0997 -1.3974 -0.8266
  101SAPE  C31410280   6.141   5.426   5.667  0.3271  0.8238  0.0815
  101SAPE  H14X10281   6.066   5.394   5.744 -0.1264 -1.0930 -1.0842
  101SAPE  H14Y10282   6.225   5.358   5.693 -1.1288 -1.0359  0.1595
  101SAPE  C31510283   6.104   5.376   5.528  0.0238 -0.0091  0.6179
  101SAPE  H15X10284   6.182   5.393   5.450 -0.7299 -2.9433 -0.9390
  101SAPE  H15Y10285   6.016   5.435   5.495  0.5991  0.2257 -0.5420
  101SAPE  C31610286   6.070   5.227   5.518 -0.5804  0.6750  0.1087
  101SAPE  H16X10287   6.038   5.209   5.413 -1.3973 -0.2731  0.4981
  101SAPE  H16Y10288   6.002   5.185   5.595  2.3549 -2.0015  1.5035
  101SAPE  C31710289   6.193   5.134   5.537  0.5659 -0.2609  0.1130
  101SAPE  H17X10290   6.209   5.127   5.647 -4.6410 -4.0223  1.0226
  101SAPE  H17Y10291   6.277   5.171   5.474  1.1889 -0.0449  1.0495
  101SAPE  C31810292   6.150   4.994   5.509 -0.1140  0.5122 -0.6353
  101SAPE  H18X10293   6.095   4.981   5.413 -1.9734 -3.6444  0.7760
  101SAPE  H18Y10294   6.077   4.964   5.587  0.1061 -0.0593 -0.6498
  101SAPE  H18Z10295   6.236   4.924   5.510 -1.7354 -1.5737 -0.2158
  102SAPE     N10296   4.238   4.999   7.646  0.2352  0.7292  0.3892
  102SAPE   HN110297   4.207   4.911   7.691 -0.0362  0.4038 -0.4058
  102SAPE   HN210298   4.338   5.027   7.650 -0.1248  3.2478 -3.0348
  102SAPE   HN310299   4.188   5.074   7.699 -1.8571  0.4471 -1.0608
  102SAPE   C1210300   4.192   5.003   7.499 -0.1995 -0.4201 -0.5774
  102SAPE  H12A10301   4.082   5.012   7.500 -0.0924  1.1431  1.2159
  102SAPE  H12B10302   4.228   4.907   7.455  1.2500  0.5014 -1.4913
  102SAPE   C1110303   4.239   5.132   7.431 -0.4776  0.4651  0.3248
  102SAPE  H11A10304   4.182   5.210   7.485 -1.4233 -0.5354  0.7888
  102SAPE  H11B10305   4.210   5.129   7.323 -1.7104 -1.0086  0.6663
  102SAPE     P10306   4.487   5.063   7.352  0.1404 -0.3114  0.2313
  102SAPE   O1310307   4.625   5.122   7.368  0.4010  0.1684  0.1662
  102SAPE   O1410308   4.465   4.924   7.387  0.1187 -0.3944  0.0989
  102SAPE   O1210309   4.380   5.148   7.444 -0.5378  0.4997  0.8053
  102SAPE   O1110310   4.428   5.086   7.201  0.1478  0.4093  0.0613
  102SAPE    C110311   4.490   5.191   7.125 -0.2949 -0.2823  0.5100
  102SAPE    HA10312   4.598   5.208   7.146 -0.8044  1.9770  1.6379
  102SAPE    HB10313   4.482   5.168   7.016 -1.2265  0.0881  0.4886
  102SAPE    C210314   4.424   5.330   7.151 -0.2162  0.4899 -0.2937
  102SAPE    HS10315   4.447   5.343   7.258  2.4655 -2.4392 -0.3689
  102SAPE   O2110316   4.282   5.313   7.116 -0.9326  0.1917 -0.2809
  102SAPE   C2110317   4.204   5.400   7.177  0.0009  0.5354  0.7054
  102SAPE   O2210318   4.239   5.476   7.266 -0.2039 -0.1143 -0.1896
  102SAPE   C2210319   4.070   5.386   7.126  0.5596  0.1140  0.0591
  102SAPE   H2R10320   4.019   5.291   7.154  1.1276 -0.7318 -1.6415
  102SAPE   H2S10321   4.007   5.468   7.165 -2.1681 -1.4819 -0.7424
  102SAPE    C310322   4.488   5.437   7.066 -0.2717 -1.4206 -0.6338
  102SAPE    HX10323   4.598   5.439   7.077 -0.2882 -1.7653 -0.4167
  102SAPE    HY10324   4.458   5.530   7.118 -0.6223 -0.3097 -2.6999
  102SAPE   O3110325   4.444   5.445   6.930  0.1337 -0.5561 -0.8998
  102SAPE   C3110326   4.517   5.403   6.836  0.2041  0.4537 -0.7286
  102SAPE   O3210327   4.631   5.351   6.856 -0.2404 -0.0843 -0.7459
  102SAPE   C3210328   4.444   5.417   6.702 -0.4795 -0.0804  0.5273
  102SAPE   H2X10329   4.519   5.378   6.630  0.2634 -1.0422  1.7693
  102SAPE   H2Y10330   4.419   5.520   6.670  1.5443 -0.0020 -1.0275
  102SAPE   C2310331   4.067   5.375   6.974  0.3212  0.0105  0.6438
  102SAPE   H3R10332   4.118   5.279   6.949 -0.8561 -0.6286  0.6409
  102SAPE   H3S10333   4.106   5.467   6.924  0.2017  0.9644  2.2621
  102SAPE   C2410334   3.923   5.333   6.938 -0.4775  0.4881 -0.6486
  102SAPE   H4R10335   3.856   5.415   6.971  0.4891  0.9501  0.2255
  102SAPE   H4S10336   3.899   5.242   6.997 -1.4124  1.9762  1.4238
  102SAPE   C2510337   3.918   5.304   6.793 -0.3999 -0.4882  0.1722
  102SAPE   H5R10338   3.970   5.375   6.726 -2.0634 -0.5637 -1.2627
  102SAPE   C2610339   3.840   5.215   6.735  0.7789 -0.1606 -0.5858
  102SAPE   H6R10340   3.846   5.223   6.625  2.8734 -0.4552 -0.5367
  102SAPE   C2710341   3.738   5.124   6.804  0.4780  0.8039 -0.6162
  102SAPE   H7R10342   3.657   5.102   6.731 -0.3930 -1.2080  0.8332
  102SAPE   H7S10343   3.703   5.182   6.892 -0.2785 -0.6519  0.0845
  102SAPE   C2810344   3.801   4.994   6.854  0.6091  0.3456  0.7831
  102SAPE   H8R10345   3.813   4.999   6.963  0.9790  0.1045  0.7571
  102SAPE   C2910346   3.837   4.890   6.775  0.9897 -0.0332 -0.2636
  102SAPE   H9R10347   3.888   4.810   6.831  2.7236  0.4558 -1.0760
  102SAPE  C21010348   3.832   4.876   6.624  0.3139  0.8892 -0.6243
  102SAPE  H10R10349   3.935   4.851   6.591  0.2220  2.2860 -2.0564
  102SAPE  H10S10350   3.799   4.972   6.580 -1.4145  1.7714  2.3442
  102SAPE  C21110351   3.734   4.771   6.581  0.0329 -0.2700 -0.0379
  102SAPE  H11R10352   3.665   4.729   6.655  0.4153 -0.3762  0.2557
  102SAPE  C21210353   3.728   4.746   6.450  0.1733  1.6114  0.5756
  102SAPE  H12R10354   3.659   4.672   6.407  2.3564 -0.0470 -0.2604
  102SAPE  C21310355   3.816   4.799   6.334  0.2406 -0.0309 -0.3074
  102SAPE  H13R10356   3.912   4.742   6.332  0.3774  0.1773  0.2504
  102SAPE  H13S10357   3.835   4.907   6.351  1.2908 -0.2184 -0.1795
  102SAPE  C21410358   3.751   4.815   6.196 -0.2410 -0.5533 -0.4506
  102SAPE  H14R10359   3.746   4.917   6.155 -1.0418 -1.2563 -2.1708
  102SAPE  C21510360   3.748   4.717   6.106 -0.0453 -0.7469 -0.0232
  102SAPE  H15R10361   3.696   4.740   6.012  1.6073  5.3238  0.1565
  102SAPE  C21610362   3.781   4.573   6.143 -0.1070  0.1685 -0.1123
  102SAPE  H16R10363   3.743   4.551   6.246  1.0752 -1.1328  0.0805
  102SAPE  H16S10364   3.891   4.558   6.134  0.0532  1.2880 -0.2150
  102SAPE  C21710365   3.709   4.480   6.046 -0.0561 -0.3700 -0.2150
  102SAPE  H17R10366   3.744   4.515   5.946  0.7764 -1.6076 -0.3822
  102SAPE  H17S10367   3.598   4.480   6.047 -0.0553 -0.1894 -0.1725
  102SAPE  C21810368   3.750   4.331   6.074 -0.1930  0.5417 -0.3993
  102SAPE  H18R10369   3.683   4.281   6.147  0.0263  0.7853 -0.0309
  102SAPE  H18S10370   3.851   4.334   6.121  0.3239  1.4153 -1.5104
  102SAPE  C21910371   3.744   4.239   5.947 -0.0016  0.6680  0.2141
  102SAPE  H19R10372   3.647   4.255   5.897 -0.2429 -1.4295 -0.0588
  102SAPE  H19S10373   3.741   4.132   5.976  1.1629  0.2225 -1.1934
  102SAPE  C22010374   3.852   4.264   5.851 -0.5474 -1.3658  0.0581
  102SAPE  H20R10375   3.949   4.220   5.885  1.5129  1.8473 -1.1386
  102SAPE  H20S10376   3.878   4.373   5.855 -2.7169 -0.8507  1.9301
  102SAPE  H20T10377   3.829   4.224   5.750 -1.1903 -1.6770  0.3231
  102SAPE   C3310378   4.322   5.332   6.678  0.1449  0.9471 -0.2320
  102SAPE   H3X10379   4.287   5.314   6.574 -1.4011 -0.9650  0.5511
  102SAPE   H3Y10380   4.236   5.375   6.734 -0.7927  0.7001 -1.4194
  102SAPE   C3410381   4.324   5.189   6.743 -0.0330 -0.3630 -0.3211
  102SAPE   H4X10382   4.309   5.202   6.852 -0.0475 -3.0918  0.0605
  102SAPE   H4Y10383   4.423   5.148   6.712 -0.1029  1.8917 -4.2200
  102SAPE   C3510384   4.213   5.097   6.686  1.0100 -0.0937 -0.0399
  102SAPE   H5X10385   4.136   5.152   6.628 -0.3181 -2.3062 -0.4877
  102SAPE   H5Y10386   4.165   5.060   6.779  3.2221 -4.1827 -0.2584
  102SAPE   C3610387   4.246   4.973   6.599  0.4600  0.4641 -0.1707
  102SAPE   H6X10388   4.151   4.918   6.579  0.8864 -0.6389  0.7293
  102SAPE   H6Y10389   4.301   4.892   6.650 -1.0981 -0.8561 -0.4991
  102SAPE   C3710390   4.328   5.019   6.476 -0.5276  0.3511 -0.2462
  102SAPE   H7X10391   4.417   5.075   6.511  0.6843 -2.4704  1.6345
  102SAPE   H7Y10392   4.264   5.091   6.422 -2.2275 -1.2776 -0.5233
  102SAPE   C3810393   4.353   4.906   6.370 -0.9611 -0.5477 -0.2045
  102SAPE   H8X10394   4.418   4.825   6.411 -1.6314 -0.1410  1.7548
  102SAPE   H8Y10395   4.398   4.945   6.276 -3.5198 -0.3696 -1.4568
  102SAPE   C3910396   4.233   4.846   6.306 -0.6838 -0.4503 -0.4496
  102SAPE   H9X10397   4.162   4.924   6.271  1.6882  1.2142 -1.8528
  102SAPE   H9Y10398   4.176   4.785   6.379 -3.5116  1.8785 -0.5542
  102SAPE  C31010399   4.261   4.774   6.172  0.8434  0.2878 -0.8565
  102SAPE  H10X10400   4.331   4.689   6.189 -0.0886 -0.2106  0.7944
  102SAPE  H10Y10401   4.312   4.857   6.119  0.2728  1.6607  0.6446
  102SAPE  C31110402   4.140   4.736   6.085 -0.0677 -0.3353 -0.2848
  102SAPE  H11X10403   4.053   4.787   6.130  0.1617 -0.3630  0.1940
  102SAPE  H11Y10404   4.118   4.628   6.100  1.3257 -0.3644  1.9508
  102SAPE  C31210405   4.146   4.758   5.939 -0.4868  0.0324  0.1873
  102SAPE  H12X10406   4.234   4.709   5.894  1.1262  2.2635  0.7317
  102SAPE  H12Y10407   4.157   4.862   5.904  0.4015 -0.4617 -1.0529
  102SAPE  C31310408   4.024   4.691   5.864 -0.8402  0.0094  0.0340
  102SAPE  H13X10409   3.943   4.766   5.876 -0.1359  0.7289  0.4327
  102SAPE  H13Y10410   4.001   4.594   5.913  1.2156 -0.0927  0.8864
  102SAPE  C31410411   4.072   4.657   5.716  0.0758 -0.4758 -0.0323
  102SAPE  H14X10412   4.180   4.632   5.710  1.3700  4.0208  0.6292
  102SAPE  H14Y10413   4.061   4.754   5.662 -0.3289 -0.6087 -0.1915
  102SAPE  C31510414   3.985   4.549   5.649 -0.4023 -0.3736 -0.5860
  102SAPE  H15X10415   3.882   4.562   5.687 -0.1814  1.9717 -0.6593
  102SAPE  H15Y10416   4.023   4.449   5.679  1.3584  0.4671  0.1544
  102SAPE  C31610417   4.003   4.554   5.503 -0.2855  0.4662  0.2697
  102SAPE  H16X10418   4.003   4.657   5.459  1.3054  0.1049 -0.6437
  102SAPE  H16Y10419   3.926   4.498   5.446  0.0977  1.6805 -1.5470
  102SAPE  C31710420   4.129   4.490   5.459  0.1171  0.0719  0.9832
  102SAPE  H17X10421   4.143   4.384   5.489 -0.6089  0.2013  1.7923
  102SAPE  H17Y10422   4.214   4.546   5.504 -0.3746  0.9347  0.8442
  102SAPE  C31810423   4.158   4.480   5.307 -0.3366 -0.7601  0.7517
  102SAPE  H18X10424   4.104   4.396   5.259 -0.9348 -0.6264  1.1830
  102SAPE  H18Y10425   4.266   4.459   5.287 -0.4477 -0.9303  0.3239
  102SAPE  H18Z10426   4.134   4.577   5.259  2.6408  0.3227  1.2132
  103SAPE     N10427   4.658   2.047   3.231 -0.3924 -0.5920  0.2558
  103SAPE   HN110428   4.568   2.073   3.185  0.8627  1.2796 -1.2757
  103SAPE   HN210429   4.679   1.948   3.208 -0.0339 -1.3883  3.5323
  103SAPE   HN310430   4.645   2.053   3.334 -0.0756  0.8196  0.2354
  103SAPE   C1210431   4.765   2.155   3.200  0.2854 -0.1413  0.2102
  103SAPE  H12A10432   4.724   2.249   3.244  0.2145  0.7380 -1.5953
  103SAPE  H12B10433   4.767   2.179   3.091 -1.5976  2.6766  0.6626
  103SAPE   C1110434   4.895   2.115   3.263  0.3162  0.1912  0.0012
  103SAPE  H11A10435   4.878   2.069   3.362 -1.5582  0.7769 -0.0032
  103SAPE  H11B10436   4.953   2.205   3.291 -1.0805  0.2366  3.1013
  103SAPE     P10437   5.106   2.035   3.120  0.2387 -0.1369 -0.1629
  103SAPE   O1310438   5.172   1.908   3.080 -0.5102  0.5160  0.6088
  103SAPE   O1410439   5.084   2.130   3.014  0.0153 -0.3428 -0.1495
  103SAPE   O1210440   4.964   2.008   3.183  0.2653  0.0802 -0.1888
  103SAPE   O1110441   5.182   2.107   3.228  0.4826 -0.3462 -0.4418
  103SAPE    C110442   5.260   2.028   3.328  0.6095  0.7791  0.5133
  103SAPE    HA10443   5.329   1.954   3.281 -2.5837 -2.1157 -0.0169
  103SAPE    HB10444   5.312   2.091   3.403 -1.3818  0.1042  2.5729
  103SAPE    C210445   5.177   1.935   3.425 -0.1634 -0.1234  0.2564
  103SAPE    HS10446   5.106   1.872   3.366 -1.2416  0.7471  0.5852
  103SAPE   O2110447   5.107   2.009   3.521 -0.3798  0.0444 -0.2037
  103SAPE   C2110448   5.015   1.944   3.588  0.0874  0.2439 -0.3784
  103SAPE   O2210449   4.971   1.835   3.557 -0.2981  0.6096 -1.1774
  103SAPE   C2210450   4.960   2.032   3.706 -0.0698  0.2748  0.2518
  103SAPE   H2R10451   5.052   2.066   3.758  0.8896 -0.8636 -0.6523
  103SAPE   H2S10452   4.925   2.123   3.652  0.2072  0.3463  0.1910
  103SAPE    C310453   5.275   1.839   3.497  0.3881 -0.0148  0.1173
  103SAPE    HX10454   5.324   1.778   3.418 -0.3798  0.3120 -0.6218
  103SAPE    HY10455   5.232   1.771   3.573  1.0402  0.5912  1.0538
  103SAPE   O3110456   5.380   1.919   3.565 -0.2095  0.6187 -0.0040
  103SAPE   C3110457   5.356   1.944   3.690 -0.2058  0.1228  0.4458
  103SAPE   O3210458   5.259   1.906   3.757  0.0330 -0.9315  0.4917
  103SAPE   C3210459   5.483   2.005   3.745  0.1569 -0.6755  0.4146
  103SAPE   H2X10460   5.508   2.096   3.685  0.8004 -0.7270  0.5963
  103SAPE   H2Y10461   5.567   1.938   3.718 -0.3470 -0.8984 -0.6517
  103SAPE   C2310462   4.864   1.960   3.801 -0.3173 -0.1110  0.2376
  103SAPE   H3R10463   4.782   1.907   3.747 -0.5021 -1.1588  1.4971
  103SAPE   H3S10464   4.817   2.035   3.868 -0.3724  0.9234 -0.9205
  103SAPE   C2410465   4.936   1.853   3.890  0.3498  0.5173  0.8245
  103SAPE   H4R10466   4.995   1.792   3.819 -0.1922 -0.2365  1.0117
  103SAPE   H4S10467   4.865   1.784   3.942  1.4616  0.6337  2.5823
  103SAPE   C2510468   5.031   1.889   3.994  0.2959 -0.1985 -0.6203
  103SAPE   H5R10469   5.139   1.891   3.971  1.0900  2.6327  2.5896
  103SAPE   C2610470   5.003   1.922   4.125 -0.4342 -0.7863 -0.7402
  103SAPE   H6R10471   5.084   1.953   4.191  0.3727  1.4633 -2.6384
  103SAPE   C2710472   4.869   1.927   4.187 -0.3053 -0.2365 -0.3402
  103SAPE   H7R10473   4.784   1.935   4.116 -0.6656 -0.0041  0.1054
  103SAPE   H7S10474   4.871   2.020   4.248 -0.2056  0.5044 -1.4596
  103SAPE   C2810475   4.844   1.809   4.277  0.1679 -0.1789 -0.0818
  103SAPE   H8R10476   4.810   1.716   4.230  1.3767 -0.5697 -0.2111
  103SAPE   C2910477   4.877   1.802   4.406  0.0061  0.0756 -0.2143
  103SAPE   H9R10478   4.856   1.705   4.453 -0.4197 -0.6796 -1.8916
  103SAPE  C21010479   4.945   1.904   4.492  0.2152  0.4892  0.4162
  103SAPE  H10R10480   5.024   1.943   4.425 -0.5167 -0.8143 -1.2702
  103SAPE  H10S10481   4.995   1.849   4.575  0.0058  0.6841  0.6728
  103SAPE  C21110482   4.854   2.005   4.551  0.1117 -1.2222  0.5450
  103SAPE  H11R10483   4.792   2.060   4.478  0.1141  0.2171  1.6005
  103SAPE  C21210484   4.833   2.037   4.682 -0.4488 -0.0579 -0.3965
  103SAPE  H12R10485   4.759   2.112   4.712  3.0210  3.3840  0.4014
  103SAPE  C21310486   4.899   1.962   4.799 -0.0117  0.3475 -0.3232
  103SAPE  H13R10487   4.915   2.034   4.881  1.9769  0.0128 -0.3604
  103SAPE  H13S10488   5.006   1.939   4.777  0.7063  2.7714  0.3967
  103SAPE  C21410489   4.835   1.831   4.842  0.6155  0.0381 -0.0907
  103SAPE  H14R10490   4.795   1.769   4.761 -0.6751 -1.2993  1.4980
  103SAPE  C21510491   4.835   1.783   4.975 -0.6693 -0.3542 -0.0310
  103SAPE  H15R10492   4.792   1.684   4.998 -0.3428 -0.4750  0.0717
  103SAPE  C21610493   4.883   1.853   5.102  0.9087  0.2722 -0.6647
  103SAPE  H16R10494   4.940   1.945   5.076 -1.8336  1.8389 -1.6469
  103SAPE  H16S10495   4.960   1.791   5.153 -0.5590 -2.4962 -1.5982
  103SAPE  C21710496   4.747   1.871   5.189 -0.0809  0.8299 -0.1356
  103SAPE  H17R10497   4.671   1.924   5.127 -0.4981  0.6678  0.2336
  103SAPE  H17S10498   4.772   1.929   5.280  0.0079 -1.9993  1.8041
  103SAPE  C21810499   4.687   1.748   5.245  0.4290 -0.4223  0.1473
  103SAPE  H18R10500   4.671   1.665   5.173  2.2026  0.7334 -1.6730
  103SAPE  H18S10501   4.582   1.767   5.275  1.0759 -0.2031  2.4786
  103SAPE  C21910502   4.764   1.706   5.368 -0.3062 -0.4032 -0.5558
  103SAPE  H19R10503   4.774   1.799   5.428  0.9889 -0.7289 -0.2400
  103SAPE  H19S10504   4.872   1.685   5.354 -0.3581  0.0664 -1.7203
  103SAPE  C22010505   4.698   1.593   5.436  0.3252 -0.0432  0.3054
  103SAPE  H20R10506   4.737   1.493   5.408  1.2671  0.2719  0.4693
  103SAPE  H20S10507   4.588   1.598   5.420  0.5120  2.7255 -0.6162
  103SAPE  H20T10508   4.712   1.590   5.546  1.2476  1.2239  0.2378
  103SAPE   C3310509   5.469   2.023   3.892  0.4005 -0.6276 -0.3801
  103SAPE   H3X10510   5.565   2.044   3.945 -0.4494 -0.0820  0.9997
  103SAPE   H3Y10511   5.432   1.927   3.934  0.1265 -0.6187 -0.6029
  103SAPE   C3410512   5.381   2.142   3.924  0.2247 -0.1015 -0.1355
  103SAPE   H4X10513   5.274   2.114   3.917 -0.4104  1.6411  1.8125
  103SAPE   H4Y10514   5.391   2.224   3.850  0.7501  3.3014  3.3787
  103SAPE   C3510515   5.412   2.217   4.050 -0.1135  0.4671 -0.1662
  103SAPE   H5X10516   5.403   2.328   4.048 -3.1534  0.3093 -0.2993
  103SAPE   H5Y10517   5.516   2.198   4.082 -0.9067  1.8002  3.8411
  103SAPE   C3610518   5.332   2.155   4.165  0.0800  0.1887  0.1872
  103SAPE   H6X10519   5.347   2.046   4.155 -0.2829  0.1552 -0.0249
  103SAPE   H6Y10520   5.224   2.173   4.145 -0.3250 -0.5129  1.5982
  103SAPE   C3710521   5.370   2.191   4.309 -0.0360  0.0998 -0.6930
  103SAPE   H7X10522   5.331   2.294   4.329 -2.0097 -0.4869 -1.2693
  103SAPE   H7Y10523   5.480   2.176   4.319 -0.0895  1.2122  3.0028
  103SAPE   C3810524   5.302   2.088   4.405  0.5723 -0.8262  0.1281
  103SAPE   H8X10525   5.330   1.983   4.384 -3.3414 -1.9709 -0.2359
  103SAPE   H8Y10526   5.191   2.095   4.400  0.6549 -0.3091 -3.0287
  103SAPE   C3910527   5.340   2.122   4.556  0.0486  0.0903  0.1636
  103SAPE   H9X10528   5.291   2.219   4.578  1.0627  0.4064  1.1779
  103SAPE   H9Y10529   5.447   2.148   4.575 -0.3698  3.0532 -1.0361
  103SAPE  C31010530   5.312   2.003   4.644 -0.0574  0.1903 -0.5588
  103SAPE  H10X10531   5.388   1.927   4.616 -0.1758 -0.0696 -0.1785
  103SAPE  H10Y10532   5.211   1.968   4.615 -0.0782  0.3115 -0.6337
  103SAPE  C31110533   5.320   2.048   4.795 -0.5346 -0.4244  0.1332
  103SAPE  H11X10534   5.228   2.102   4.826 -0.7510 -1.2747  1.0467
  103SAPE  H11Y10535   5.402   2.120   4.814 -1.5300  1.5072 -2.3465
  103SAPE  C31210536   5.331   1.925   4.895 -0.5772 -0.4012 -0.2938
  103SAPE  H12X10537   5.434   1.884   4.883 -0.2149  1.0946 -3.0851
  103SAPE  H12Y10538   5.272   1.848   4.842  0.2391  0.8300 -3.1717
  103SAPE  C31310539   5.294   1.952   5.044  0.4400  0.4337 -0.6966
  103SAPE  H13X10540   5.195   2.002   5.046  0.3395  0.2693 -1.2321
  103SAPE  H13Y10541   5.364   2.026   5.087  1.1990  0.0719 -1.2761
  103SAPE  C31410542   5.291   1.820   5.124  0.3054 -0.2234  0.1698
  103SAPE  H14X10543   5.384   1.761   5.108  0.0221 -1.2767  2.1043
  103SAPE  H14Y10544   5.203   1.764   5.085 -1.5869  1.0599  2.3246
  103SAPE  C31510545   5.276   1.832   5.274 -0.0975 -0.2524  0.1220
  103SAPE  H15X10546   5.200   1.911   5.290 -2.0212 -1.9193 -0.3589
  103SAPE  H15Y10547   5.375   1.871   5.305 -0.5244  2.7914 -1.9400
  103SAPE  C31610548   5.247   1.696   5.341 -0.0521 -0.0776  0.2765
  103SAPE  H16X10549   5.334   1.636   5.308  0.8004  1.2924 -0.0836
  103SAPE  H16Y10550   5.159   1.641   5.303  0.9301 -0.7982 -1.0428
  103SAPE  C31710551   5.251   1.714   5.492  1.3480 -0.8019 -0.0153
  103SAPE  H17X10552   5.178   1.795   5.516 -0.6343 -1.9464 -1.8092
  103SAPE  H17Y10553   5.350   1.757   5.518  0.0021  2.0090  1.0112
  103SAPE  C31810554   5.218   1.585   5.574  0.0035  0.2668  0.1178
  103SAPE  H18X10555   5.110   1.558   5.570  0.2825 -0.9526  0.1917
  103SAPE  H18Y10556   5.257   1.587   5.678  0.4312  1.0361 -0.0502
  103SAPE  H18Z10557   5.274   1.502   5.524  1.2680  1.2050 -0.0708
  104SAPE     N10558   4.632   2.512   2.760 -0.4571  0.3655  0.6496
  104SAPE   HN110559   4.539   2.551   2.734  0.3029  0.9313 -1.3910
  104SAPE   HN210560   4.648   2.434   2.693 -0.9178  0.2569  0.6602
  104SAPE   HN310561   4.635   2.475   2.857 -0.7890 -0.0184  0.5162
  104SAPE   C1210562   4.745   2.616   2.745 -0.1585  1.0110 -1.0762
  104SAPE  H12A10563   4.754   2.640   2.636  0.4363  0.8721 -1.0621
  104SAPE  H12B10564   4.835   2.562   2.780 -0.9047  0.5872  0.2550
  104SAPE   C1110565   4.716   2.748   2.824 -0.9231  0.1338  0.3611
  104SAPE  H11A10566   4.812   2.798   2.803  0.0677 -1.5239  0.7991
  104SAPE  H11B10567   4.718   2.732   2.934  0.1636  2.3309  0.7176
  104SAPE     P10568   4.445   2.787   2.818 -0.1265  0.4843  0.0178
  104SAPE   O1310569   4.371   2.905   2.783  0.1843 -0.0817  0.1246
  104SAPE   O1410570   4.409   2.654   2.761 -0.0368  0.5346 -0.4775
  104SAPE   O1210571   4.600   2.815   2.777  0.1401  0.2006 -0.4024
  104SAPE   O1110572   4.438   2.777   2.979 -0.7479  0.4641  0.5786
  104SAPE    C110573   4.513   2.869   3.058 -0.1478 -0.1801  0.2286
  104SAPE    HA10574   4.613   2.891   3.014 -0.0725 -1.6769 -0.4116
  104SAPE    HB10575   4.453   2.963   3.061  0.6155  0.3138  0.4515
  104SAPE    C210576   4.528   2.821   3.205 -0.6722 -0.0781 -0.2098
  104SAPE    HS10577   4.563   2.716   3.195 -0.3269  0.0960 -0.9382
  104SAPE   O2110578   4.401   2.824   3.266 -0.1881 -0.5358 -0.7254
  104SAPE   C2110579   4.374   2.745   3.365  0.5865 -0.4285 -0.5429
  104SAPE   O2210580   4.442   2.646   3.395  0.1355 -0.1669 -0.0366
  104SAPE   C2210581   4.260   2.802   3.453 -0.4703  0.0424  0.4161
  104SAPE   H2R10582   4.289   2.893   3.511  0.0889 -0.5590  1.0921
  104SAPE   H2S10583   4.166   2.814   3.395 -0.7540  0.0646  0.8803
  104SAPE    C310584   4.632   2.905   3.289 -0.3455  0.2499  0.3699
  104SAPE    HX10585   4.578   3.002   3.282 -0.9746 -0.0869  0.4663
  104SAPE    HY10586   4.728   2.921   3.236 -2.2103  0.2835 -3.2852
  104SAPE   O3110587   4.654   2.864   3.429  0.0247  0.3174  0.7476
  104SAPE   C3110588   4.713   2.745   3.442 -0.5405 -0.4530  0.5855
  104SAPE   O3210589   4.769   2.681   3.355 -0.7578 -0.5411 -0.4791
  104SAPE   C3210590   4.725   2.722   3.592  0.5677  0.4531 -0.5346
  104SAPE   H2X10591   4.823   2.683   3.625  2.0881  3.0105 -1.7471
  104SAPE   H2Y10592   4.656   2.638   3.614 -1.0025  2.3342  2.3716
  104SAPE   C2310593   4.224   2.703   3.564  0.4189  0.7264 -0.8437
  104SAPE   H3R10594   4.319   2.674   3.614 -0.6391  0.3049  1.0339
  104SAPE   H3S10595   4.194   2.600   3.536 -0.0305  0.3547  0.8780
  104SAPE   C2410596   4.136   2.769   3.673  0.2706 -0.1965 -0.9198
  104SAPE   H4R10597   4.157   2.874   3.701  1.0193 -0.5396 -0.1657
  104SAPE   H4S10598   4.156   2.715   3.768 -1.9486  2.5352  1.2836
  104SAPE   C2510599   3.991   2.741   3.635 -0.1297  0.3392 -0.4050
  104SAPE   H5R10600   3.978   2.737   3.526 -2.6508 -0.5188 -0.1318
  104SAPE   C2610601   3.887   2.734   3.724 -0.2473  0.2725  0.0096
  104SAPE   H6R10602   3.796   2.679   3.698  0.2660 -0.3163 -0.5824
  104SAPE   C2710603   3.890   2.758   3.872 -0.1433  0.1597 -0.7405
  104SAPE   H7R10604   3.788   2.791   3.902  0.8244  0.4579  2.6514
  104SAPE   H7S10605   3.952   2.849   3.889  0.7499 -0.2384 -1.7162
  104SAPE   C2810606   3.930   2.638   3.963  0.7948  0.2766  0.1374
  104SAPE   H8R10607   3.918   2.539   3.918 -0.4736  0.0882  0.8527
  104SAPE   C2910608   3.974   2.646   4.087  0.4753 -0.3720 -0.7921
  104SAPE   H9R10609   4.018   2.557   4.135  0.2042  0.4098  0.9681
  104SAPE  C21010610   3.990   2.777   4.160  0.2274  0.3330 -0.3282
  104SAPE  H10R10611   4.010   2.848   4.077  2.1704 -0.7960 -0.8840
  104SAPE  H10S10612   4.090   2.773   4.209 -0.0172 -0.9632  0.1154
  104SAPE  C21110613   3.904   2.828   4.272 -0.7054 -0.0604  0.4465
  104SAPE  H11R10614   3.839   2.912   4.242 -0.6606 -0.5102 -1.0160
  104SAPE  C21210615   3.915   2.785   4.399 -0.4306 -0.6288  0.2359
  104SAPE  H12R10616   3.839   2.814   4.473  0.9576 -1.6050  2.1249
  104SAPE  C21310617   4.008   2.672   4.447  0.1119  0.5989 -0.1385
  104SAPE  H13R10618   4.052   2.615   4.362 -0.0685  3.8013 -2.5344
  104SAPE  H13S10619   3.952   2.592   4.501  0.0924 -2.3407 -4.0883
  104SAPE  C21410620   4.111   2.721   4.541 -0.3462 -0.4044  0.8253
  104SAPE  H14R10621   4.193   2.773   4.488 -1.4425  1.4423  0.8332
  104SAPE  C21510622   4.115   2.711   4.675  0.3158 -0.5612  0.9583
  104SAPE  H15R10623   4.206   2.755   4.719  1.3183 -1.3941 -0.2208
  104SAPE  C21610624   4.022   2.637   4.762 -0.2887 -0.1965  0.0058
  104SAPE  H16R10625   4.066   2.537   4.783  0.5072 -0.5334 -2.7889
  104SAPE  H16S10626   3.927   2.602   4.717 -1.0103  1.2369  0.3466
  104SAPE  C21710627   3.980   2.711   4.890 -0.2170 -0.2162  0.2190
  104SAPE  H17R10628   3.910   2.642   4.943 -1.8263  3.2681  3.0680
  104SAPE  H17S10629   3.912   2.798   4.879 -0.9237 -0.2994  3.2243
  104SAPE  C21810630   4.097   2.751   4.990  0.1294  0.7272 -0.0728
  104SAPE  H18R10631   4.039   2.791   5.076 -1.1625  0.8254 -0.9543
  104SAPE  H18S10632   4.158   2.830   4.940 -1.2652  2.8747  1.4414
  104SAPE  C21910633   4.190   2.639   5.029 -0.4880  0.5773  0.7384
  104SAPE  H19R10634   4.241   2.608   4.935 -1.3305 -0.0260  0.4591
  104SAPE  H19S10635   4.150   2.542   5.066  1.0750 -0.0556  0.8550
  104SAPE  C22010636   4.290   2.683   5.135 -0.5704 -0.2161  0.8731
  104SAPE  H20R10637   4.325   2.592   5.188  0.9176  0.3685  0.9404
  104SAPE  H20S10638   4.242   2.752   5.207 -1.3578  1.1691 -0.9041
  104SAPE  H20T10639   4.376   2.740   5.094 -0.2459 -0.3154  1.4098
  104SAPE   C3310640   4.691   2.844   3.682 -0.3947  0.2191  0.1955
  104SAPE   H3X10641   4.724   2.940   3.637  0.1888 -1.7389 -4.0758
  104SAPE   H3Y10642   4.738   2.832   3.781  1.1910 -0.1997 -0.5828
  104SAPE   C3410643   4.541   2.851   3.710  0.0452 -0.5792 -0.0275
  104SAPE   H4X10644   4.487   2.832   3.615 -1.0166  0.9771  0.2299
  104SAPE   H4Y10645   4.519   2.956   3.741 -0.4063  0.3538 -3.2055
  104SAPE   C3510646   4.491   2.766   3.831 -0.3954  0.1151 -0.1102
  104SAPE   H5X10647   4.508   2.661   3.799  2.4633  0.7790 -1.1178
  104SAPE   H5Y10648   4.383   2.792   3.838  0.0894  2.5737 -0.7046
  104SAPE   C3610649   4.544   2.807   3.972 -0.3723  0.0583  0.2694
  104SAPE   H6X10650   4.546   2.917   3.992  1.2437 -0.2979  2.4545
  104SAPE   H6Y10651   4.650   2.776   3.983 -0.4191 -0.2860 -0.2047
  104SAPE   C3710652   4.454   2.747   4.071 -0.5929  0.1537 -0.1741
  104SAPE   H7X10653   4.450   2.638   4.047  0.0697 -0.0538  0.6261
  104SAPE   H7Y10654   4.349   2.782   4.069 -0.5689  0.4281  1.6750
  104SAPE   C3810655   4.515   2.749   4.215  0.0366  0.6836  0.0607
  104SAPE   H8X10656   4.523   2.857   4.243 -2.2049  0.3057  2.6299
  104SAPE   H8Y10657   4.613   2.698   4.222 -0.7435 -1.0896 -1.3333
  104SAPE   C3910658   4.417   2.693   4.320 -0.0023  0.4540 -0.0516
  104SAPE   H9X10659   4.389   2.587   4.300 -0.1680  0.0127  2.1893
  104SAPE   H9Y10660   4.332   2.765   4.326  0.3806  1.0605 -1.4834
  104SAPE  C31010661   4.482   2.670   4.460  0.7573 -0.1996  0.7005
  104SAPE  H10X10662   4.588   2.638   4.454  0.5623 -0.6668 -0.5308
  104SAPE  H10Y10663   4.434   2.584   4.512  0.9094 -0.4360  0.4475
  104SAPE  C31110664   4.467   2.789   4.553  0.2085 -0.3478 -0.3446
  104SAPE  H11X10665   4.363   2.790   4.593  0.3562  0.1244  0.0452
  104SAPE  H11Y10666   4.497   2.882   4.500  0.0696  0.9252  1.6713
  104SAPE  C31210667   4.563   2.769   4.668  0.6612  0.1811  0.5219
  104SAPE  H12X10668   4.662   2.736   4.632  0.4944  1.5397 -1.3250
  104SAPE  H12Y10669   4.524   2.693   4.740  0.8087 -0.1106  0.2978
  104SAPE  C31310670   4.584   2.903   4.743  0.0777 -0.5649 -0.0945
  104SAPE  H13X10671   4.488   2.935   4.790 -0.4211 -3.5979  1.1536
  104SAPE  H13Y10672   4.619   2.968   4.660 -1.7321  0.0536 -0.4426
  104SAPE  C31410673   4.681   2.886   4.852 -0.8937  0.4412  0.4015
  104SAPE  H14X10674   4.708   2.983   4.899  1.7216 -0.0810  0.1723
  104SAPE  H14Y10675   4.782   2.853   4.817 -1.1823  1.8143 -1.9847
  104SAPE  C31510676   4.626   2.803   4.971  0.4380 -0.4621  0.8434
  104SAPE  H15X10677   4.603   2.697   4.944 -2.3884  0.3916 -0.4930
  104SAPE  H15Y10678   4.528   2.852   4.989  0.3579 -0.7712  1.2860
  104SAPE  C31610679   4.709   2.817   5.097 -0.1036 -0.4009 -0.0085
  104SAPE  H16X10680   4.702   2.925   5.119 -1.5796 -0.9896  2.9914
  104SAPE  H16Y10681   4.817   2.791   5.090  0.1270  0.7004 -0.7072
  104SAPE  C31710682   4.650   2.747   5.220  0.1348 -0.3448 -0.9622
  104SAPE  H17X10683   4.634   2.643   5.183  0.3505 -0.4731 -0.6988
  104SAPE  H17Y10684   4.566   2.804   5.264  1.4952  0.4526  0.7440
  104SAPE  C31810685   4.749   2.744   5.334 -0.0597  0.4345 -0.5854
  104SAPE  H18X10686   4.772   2.851   5.355 -0.9690  0.0356  3.2802
  104SAPE  H18Y10687   4.840   2.687   5.305 -0.7761 -1.5491  0.8089
  104SAPE  H18Z10688   4.705   2.707   5.429  1.8898 -2.7886 -0.7929
  105SAPE     N10689   0.959   4.758   3.070 -0.3276 -0.1056 -0.2556
  105SAPE   HN110690   1.047   4.714   3.036  0.0848  2.1015 -2.3082
  105SAPE   HN210691   0.878   4.695   3.054 -0.0730 -0.3482 -0.6195
  105SAPE   HN310692   0.951   4.847   3.019  1.4280  1.2466  1.6304
  105SAPE   C1210693   0.965   4.802   3.212 -0.3178  0.8593  0.0929
  105SAPE  H12A10694   1.071   4.823   3.241 -0.2915 -0.3827  1.0199
  105SAPE  H12B10695   0.943   4.711   3.271 -1.1216  1.1677  0.2783
  105SAPE   C1110696   0.867   4.913   3.242  0.1642  0.3109 -0.0816
  105SAPE  H11A10697   0.886   4.975   3.332 -4.3810  3.4684 -0.9244
  105SAPE  H11B10698   0.766   4.867   3.253  0.2343  0.6547  2.5667
  105SAPE     P10699   0.938   5.118   3.093 -0.1923  0.3560  0.0086
  105SAPE   O1310700   1.073   5.069   3.055 -0.8725  0.1655 -0.1421
  105SAPE   O1410701   0.879   5.213   2.994 -0.6839 -0.4236 -0.5149
  105SAPE   O1210702   0.851   4.999   3.131  0.2326 -0.1317 -0.8185
  105SAPE   O1110703   0.944   5.195   3.236  0.3954  1.1401 -0.6907
  105SAPE    C110704   1.065   5.196   3.309 -1.0302  0.2021  0.5593
  105SAPE    HA10705   1.099   5.092   3.330 -1.4940 -0.2922 -0.9565
  105SAPE    HB10706   1.137   5.240   3.238 -1.3104 -1.4001 -0.7756
  105SAPE    C210707   1.058   5.282   3.435  0.5974 -0.4268 -0.0216
  105SAPE    HS10708   1.149   5.259   3.494  0.0919 -0.7497  0.6436
  105SAPE   O2110709   0.944   5.259   3.525 -0.1079 -0.3865 -0.3797
  105SAPE   C2110710   0.920   5.137   3.560 -0.1191 -0.5774 -0.5478
  105SAPE   O2210711   0.996   5.042   3.541  0.8059 -0.2930  0.6276
  105SAPE   C2210712   0.816   5.149   3.667 -0.4250 -0.4736 -0.1397
  105SAPE   H2R10713   0.824   5.245   3.722 -1.6906 -0.7694  0.5964
  105SAPE   H2S10714   0.715   5.146   3.622 -1.4080  0.1474  1.9116
  105SAPE    C310715   1.071   5.435   3.390 -0.0373  0.3551  0.5543
  105SAPE    HX10716   0.968   5.466   3.360  0.6201  0.8682 -1.3316
  105SAPE    HY10717   1.129   5.441   3.295 -0.0076 -2.3795  0.3255
  105SAPE   O3110718   1.141   5.524   3.485 -0.8390  0.5652 -0.5260
  105SAPE   C3110719   1.066   5.579   3.578  0.0970 -0.4730  0.1991
  105SAPE   O3210720   0.944   5.561   3.582 -0.1558  0.0181  0.3934
  105SAPE   C3210721   1.152   5.646   3.682 -0.4868  0.2869 -0.4301
  105SAPE   H2X10722   1.248   5.683   3.641 -0.0408 -0.7185 -0.3306
  105SAPE   H2Y10723   1.187   5.564   3.749  0.0435  1.5866  0.9167
  105SAPE   C2310724   0.843   5.038   3.780 -0.4837 -0.6675  0.2186
  105SAPE   H3R10725   0.945   5.056   3.821 -0.7601  3.2031 -0.4468
  105SAPE   H3S10726   0.840   4.937   3.734 -1.3241 -0.1308 -0.9359
  105SAPE   C2410727   0.732   5.042   3.893  0.0670 -0.4445  0.7346
  105SAPE   H4R10728   0.735   4.949   3.954 -1.8935 -0.7156  0.4804
  105SAPE   H4S10729   0.637   5.034   3.835  0.2656  1.8052 -0.0043
  105SAPE   C2510730   0.746   5.169   3.975 -0.0757  1.4203  0.5596
  105SAPE   H5R10731   0.733   5.263   3.919 -1.0485  0.2765 -1.2391
  105SAPE   C2610732   0.755   5.164   4.111  0.0197  0.1700 -0.0770
  105SAPE   H6R10733   0.778   5.249   4.177 -0.2606  1.1059 -1.1446
  105SAPE   C2710734   0.773   5.038   4.194 -0.5340  0.5774 -0.6764
  105SAPE   H7R10735   0.820   5.070   4.290 -0.2548  0.3661 -0.7418
  105SAPE   H7S10736   0.842   4.961   4.154  0.5320  2.0844 -1.8451
  105SAPE   C2810737   0.638   4.970   4.222 -0.5336 -0.6571  0.2965
  105SAPE   H8R10738   0.562   4.969   4.143  0.1041 -1.0653 -0.3214
  105SAPE   C2910739   0.615   4.905   4.335 -0.0023 -0.6520 -0.1087
  105SAPE   H9R10740   0.520   4.850   4.350 -0.1195  0.1115  2.3736
  105SAPE  C21010741   0.708   4.884   4.452  0.2650  0.3592 -0.4522
  105SAPE  H10R10742   0.633   4.874   4.533  2.5588 -0.3884  1.7029
  105SAPE  H10S10743   0.775   4.971   4.472 -1.6578  1.3306  2.4943
  105SAPE  C21110744   0.806   4.767   4.449  0.7229  0.7558 -0.5520
  105SAPE  H11R10745   0.862   4.755   4.355  1.2121 -0.9653 -0.0873
  105SAPE  C21210746   0.831   4.675   4.543 -0.3860 -0.0328 -0.6092
  105SAPE  H12R10747   0.910   4.600   4.528  0.3719  0.4808  0.6310
  105SAPE  C21310748   0.761   4.663   4.681  0.2280 -0.2451  0.9961
  105SAPE  H13R10749   0.689   4.746   4.695  0.0945 -0.4008  1.2432
  105SAPE  H13S10750   0.837   4.678   4.761 -0.6294  1.4522  1.5239
  105SAPE  C21410751   0.681   4.540   4.702  0.3585  0.0139 -0.0555
  105SAPE  H14R10752   0.673   4.462   4.625 -1.2683  0.4968 -0.4142
  105SAPE  C21510753   0.625   4.516   4.821  0.6340  0.3021  0.0576
  105SAPE  H15R10754   0.574   4.421   4.841  2.1815 -0.8414 -1.2759
  105SAPE  C21610755   0.610   4.610   4.940 -0.6157  0.3492 -0.9095
  105SAPE  H16R10756   0.508   4.651   4.960 -0.8612 -0.5781 -0.2090
  105SAPE  H16S10757   0.676   4.700   4.931 -2.1817  1.6176 -0.3005
  105SAPE  C21710758   0.665   4.530   5.070  0.4526 -0.4594  0.6397
  105SAPE  H17R10759   0.771   4.504   5.048  1.0000  1.3314  0.9333
  105SAPE  H17S10760   0.602   4.439   5.082  1.1861 -1.2843 -1.2996
  105SAPE  C21810761   0.660   4.618   5.194  0.4604  0.3268  0.6283
  105SAPE  H18R10762   0.561   4.667   5.202  0.5070  0.4245  0.6072
  105SAPE  H18S10763   0.734   4.700   5.178  1.3697 -0.6804 -0.4785
  105SAPE  C21910764   0.670   4.541   5.323 -0.5156 -0.1292 -0.3388
  105SAPE  H19R10765   0.742   4.462   5.294  0.7821  1.3219 -1.3050
  105SAPE  H19S10766   0.572   4.498   5.351  0.0994 -2.6849 -1.7855
  105SAPE  C22010767   0.726   4.620   5.444 -0.7745 -0.0843 -0.0294
  105SAPE  H20R10768   0.660   4.709   5.456 -0.3765  0.5055 -1.8485
  105SAPE  H20S10769   0.834   4.640   5.428 -0.5949 -1.9272 -1.6133
  105SAPE  H20T10770   0.728   4.555   5.534  2.0863 -1.9643 -1.3012
  105SAPE   C3310771   1.086   5.764   3.763  0.4524  0.0831 -0.1579
  105SAPE   H3X10772   1.045   5.836   3.690 -0.8916  0.0050  0.4854
  105SAPE   H3Y10773   1.161   5.809   3.833 -1.0053 -1.6557  2.7033
  105SAPE   C3410774   0.966   5.726   3.858 -0.3631 -0.3521 -0.1014
  105SAPE   H4X10775   0.873   5.698   3.804 -0.7415  1.1788 -0.2850
  105SAPE   H4Y10776   0.946   5.810   3.928 -0.7329 -0.5317  0.0106
  105SAPE   C3510777   1.012   5.618   3.945  0.0830 -0.3602 -0.6278
  105SAPE   H5X10778   1.114   5.646   3.978 -0.1833  1.9008 -1.5355
  105SAPE   H5Y10779   1.011   5.518   3.896  0.6148 -1.8642  2.2123
  105SAPE   C3610780   0.911   5.614   4.067 -0.3665  0.1682  0.3550
  105SAPE   H6X10781   0.808   5.599   4.029 -0.3654  0.6647  0.1525
  105SAPE   H6Y10782   0.918   5.706   4.128  2.3208 -0.1400  0.6392
  105SAPE   C3710783   0.941   5.499   4.164 -0.0749 -0.3565 -0.3541
  105SAPE   H7X10784   1.042   5.513   4.207  0.3643 -0.2194 -1.4077
  105SAPE   H7Y10785   0.942   5.399   4.115 -0.9192  0.1563 -1.4651
  105SAPE   C3810786   0.828   5.496   4.270 -0.1931 -0.1439  0.2075
  105SAPE   H8X10787   0.744   5.460   4.208  0.4892 -0.9615 -0.2641
  105SAPE   H8Y10788   0.812   5.599   4.310  2.8443  0.6458 -0.3706
  105SAPE   C3910789   0.865   5.407   4.393  0.5962 -0.0566  0.8927
  105SAPE   H9X10790   0.943   5.459   4.453 -0.7303  3.9922 -0.6127
  105SAPE   H9Y10791   0.918   5.322   4.343 -3.0423 -2.1380  0.1961
  105SAPE  C31010792   0.736   5.361   4.463  0.0882  0.8289 -0.2799
  105SAPE  H10X10793   0.659   5.316   4.398  1.3640 -2.3021  0.2045
  105SAPE  H10Y10794   0.688   5.450   4.510 -1.5389 -0.8639  1.4271
  105SAPE  C31110795   0.759   5.255   4.573 -0.2370 -0.1352 -0.1833
  105SAPE  H11X10796   0.843   5.284   4.639  0.1608 -1.3738 -0.1249
  105SAPE  H11Y10797   0.790   5.165   4.517 -1.8501  0.0023 -1.3968
  105SAPE  C31210798   0.631   5.224   4.651  0.1508 -0.0709  0.5627
  105SAPE  H12X10799   0.630   5.122   4.694 -0.0635 -0.4246 -0.2734
  105SAPE  H12Y10800   0.554   5.233   4.572  1.3043 -0.4744 -0.6320
  105SAPE  C31310801   0.593   5.328   4.763 -0.2910 -0.4568  0.4344
  105SAPE  H13X10802   0.486   5.311   4.787 -1.2343  1.5372 -1.9527
  105SAPE  H13Y10803   0.598   5.434   4.733  0.3976 -0.9513 -1.3285
  105SAPE  C31410804   0.680   5.303   4.887  0.4602  0.2083 -0.4050
  105SAPE  H14X10805   0.645   5.366   4.971  0.2039 -0.7211  0.2035
  105SAPE  H14Y10806   0.782   5.341   4.864  0.8735 -0.3372  0.4538
  105SAPE  C31510807   0.692   5.163   4.936 -0.4833  0.1422 -0.5574
  105SAPE  H15X10808   0.733   5.094   4.858 -0.7081  0.4340 -0.9359
  105SAPE  H15Y10809   0.587   5.137   4.960 -0.8512  4.0171  2.9113
  105SAPE  C31610810   0.769   5.135   5.071 -0.2783 -0.2833 -0.1083
  105SAPE  H16X10811   0.749   5.028   5.097 -2.7928  0.4524  1.3333
  105SAPE  H16Y10812   0.732   5.190   5.160 -0.2554  0.9116 -0.8155
  105SAPE  C31710813   0.915   5.159   5.068  0.5539 -0.2994  0.2943
  105SAPE  H17X10814   0.932   5.266   5.045 -0.3807 -0.5496 -1.7130
  105SAPE  H17Y10815   0.965   5.106   4.985 -0.2852 -0.6061 -0.0270
  105SAPE  C31810816   0.990   5.136   5.202  0.6937  0.0189 -0.0110
  105SAPE  H18X10817   0.976   5.034   5.243  0.9735  0.5664  1.5056
  105SAPE  H18Y10818   0.956   5.211   5.277  2.2257  0.7481 -0.0120
  105SAPE  H18Z10819   1.096   5.162   5.184  1.6391 -0.1505  4.2499
  106SAPE     N10820   1.419   2.360   3.174  0.4338 -0.1651 -0.4945
  106SAPE   HN110821   1.437   2.268   3.131 -0.6911 -0.7662  0.2702
  106SAPE   HN210822   1.340   2.349   3.241 -0.1430 -0.7080 -1.2486
  106SAPE   HN310823   1.387   2.433   3.107  0.8654  1.6384  1.1362
  106SAPE   C1210824   1.544   2.410   3.230 -0.5575  0.0621 -0.4551
  106SAPE  H12A10825   1.516   2.496   3.295 -0.9223 -1.4952  1.5447
  106SAPE  H12B10826   1.611   2.449   3.150  0.1047 -0.9744 -0.4196
  106SAPE   C1110827   1.615   2.302   3.315  0.1741 -0.3769  0.0085
  106SAPE  H11A10828   1.564   2.301   3.414  3.8012  1.1095  2.0772
  106SAPE  H11B10829   1.720   2.328   3.339 -0.4188  0.7740  1.5493
  106SAPE     P10830   1.545   2.053   3.320  0.0086  0.0029  0.1788
  106SAPE   O1310831   1.398   2.078   3.339 -0.5330 -0.4653 -0.2223
  106SAPE   O1410832   1.592   1.934   3.246  0.3319  0.4048  0.2943
  106SAPE   O1210833   1.608   2.171   3.248  0.0235  0.0174 -0.1728
  106SAPE   O1110834   1.616   2.071   3.463 -0.0776 -0.3148 -0.1009
  106SAPE    C110835   1.657   1.962   3.543 -0.0760 -0.1744 -0.4199
  106SAPE    HA10836   1.568   1.899   3.565 -0.8725  0.7663 -0.8863
  106SAPE    HB10837   1.735   1.904   3.488 -0.0041  0.1916 -0.7105
  106SAPE    C210838   1.710   2.009   3.680 -0.5915 -0.0917  0.3580
  106SAPE    HS10839   1.771   1.929   3.727  0.3194 -0.0916 -0.7646
  106SAPE   O2110840   1.601   2.033   3.770  0.2292 -0.2368  0.1301
  106SAPE   C2110841   1.536   1.923   3.822  0.7702 -0.2080  0.0432
  106SAPE   O2210842   1.567   1.809   3.792  0.1525  0.1945 -0.2650
  106SAPE   C2210843   1.413   1.968   3.901 -0.1227 -0.2450 -0.7364
  106SAPE   H2R10844   1.439   2.050   3.972  0.5713 -0.7635 -0.3771
  106SAPE   H2S10845   1.334   2.005   3.833  0.5592 -2.1797 -2.7147
  106SAPE    C310846   1.796   2.130   3.678  0.0066 -0.3373  0.6054
  106SAPE    HX10847   1.726   2.216   3.672  1.2430  0.6219 -2.8541
  106SAPE    HY10848   1.858   2.130   3.586  0.2160  0.4992  0.7325
  106SAPE   O3110849   1.884   2.125   3.789 -0.0588 -0.2309  0.0049
  106SAPE   C3110850   1.870   2.227   3.877 -0.1869  0.1390  0.3239
  106SAPE   O3210851   1.800   2.321   3.866 -0.3610 -0.4791 -0.0723
  106SAPE   C3210852   1.963   2.191   3.995 -0.3649 -0.8349 -0.3831
  106SAPE   H2X10853   1.961   2.276   4.066 -3.6296  1.1904 -2.5845
  106SAPE   H2Y10854   2.063   2.160   3.957  0.0507  0.0100  0.0029
  106SAPE   C2310855   1.340   1.856   3.979 -0.3559  0.4072 -0.2351
  106SAPE   H3R10856   1.396   1.812   4.066 -2.4251  0.1276  1.0165
  106SAPE   H3S10857   1.319   1.764   3.920 -1.7856 -1.5057  2.9557
  106SAPE   C2410858   1.196   1.905   4.016 -0.3879  0.0351 -0.0292
  106SAPE   H4R10859   1.142   1.949   3.930  3.1226  1.6774 -1.6273
  106SAPE   H4S10860   1.210   1.988   4.089 -1.3951 -1.6668  2.2328
  106SAPE   C2510861   1.105   1.790   4.071  0.0854 -0.1258  0.5571
  106SAPE   H5R10862   1.055   1.734   3.991  0.2307  0.5228  0.0031
  106SAPE   C2610863   1.087   1.761   4.200 -0.3607 -0.9736  0.2258
  106SAPE   H6R10864   1.021   1.679   4.230 -0.9569  0.0054  1.6740
  106SAPE   C2710865   1.144   1.845   4.313  0.4227  0.6190 -0.1613
  106SAPE   H7R10866   1.065   1.910   4.357 -0.8682 -1.6368  1.0032
  106SAPE   H7S10867   1.227   1.918   4.294 -0.8553  1.9450 -0.8741
  106SAPE   C2810868   1.210   1.755   4.414  0.0951  0.0611 -0.4750
  106SAPE   H8R10869   1.316   1.733   4.395  0.1548 -1.1118  1.0595
  106SAPE   C2910870   1.158   1.693   4.524 -0.3779 -0.3610  0.1266
  106SAPE   H9R10871   1.222   1.639   4.595 -0.9131 -2.2255 -0.7324
  106SAPE  C21010872   1.015   1.715   4.576 -0.3001  0.3619 -0.0924
  106SAPE  H10R10873   0.986   1.608   4.584  1.1540 -0.0010  0.7826
  106SAPE  H10S10874   0.949   1.757   4.497  0.6346  0.7776 -0.6696
  106SAPE  C21110875   1.017   1.783   4.710  0.1576  0.1360  0.1782
  106SAPE  H11R10876   1.031   1.892   4.703  0.1129  0.1638  0.5102
  106SAPE  C21210877   0.994   1.734   4.832 -0.5116 -0.9550 -0.0742
  106SAPE  H12R10878   1.008   1.790   4.926  1.7379 -0.9556 -0.3674
  106SAPE  C21310879   0.958   1.588   4.866 -0.0329  0.4844  0.8969
  106SAPE  H13R10880   1.039   1.552   4.934  1.9109 -2.0705 -2.4127
  106SAPE  H13S10881   0.959   1.523   4.776  1.2860 -0.8867  1.8399
  106SAPE  C21410882   0.818   1.577   4.912  0.5705 -0.1405  0.4424
  106SAPE  H14R10883   0.735   1.584   4.839  0.7161  0.9158  0.3643
  106SAPE  C21510884   0.783   1.552   5.043 -0.4799  0.4726 -0.3707
  106SAPE  H15R10885   0.677   1.553   5.070 -1.3148  1.8100 -3.2550
  106SAPE  C21610886   0.878   1.533   5.158 -0.8625 -0.0137 -0.2199
  106SAPE  H16R10887   0.896   1.631   5.207 -2.5360  0.5468 -0.6657
  106SAPE  H16S10888   0.983   1.508   5.133 -0.5992 -0.6406  1.3957
  106SAPE  C21710889   0.839   1.422   5.256 -0.1114 -0.2697 -0.2493
  106SAPE  H17R10890   0.746   1.443   5.313  0.4061 -1.9957  1.3473
  106SAPE  H17S10891   0.921   1.406   5.330 -1.2548 -1.1054  0.8867
  106SAPE  C21810892   0.818   1.286   5.190 -0.2321  0.0532 -0.0229
  106SAPE  H18R10893   0.747   1.291   5.105  0.1565 -2.0004 -0.5309
  106SAPE  H18S10894   0.787   1.209   5.265  2.4924 -3.0898 -1.8586
  106SAPE  C21910895   0.949   1.241   5.133 -0.5118  0.7187 -0.2768
  106SAPE  H19R10896   1.034   1.255   5.204  0.8719  2.7666 -2.2047
  106SAPE  H19S10897   0.982   1.300   5.045 -0.1258  0.7520 -0.1150
  106SAPE  C22010898   0.946   1.087   5.093  0.1539 -0.0044 -0.0874
  106SAPE  H20R10899   0.914   1.032   5.184  0.6013 -3.4839 -1.8887
  106SAPE  H20S10900   1.048   1.053   5.066  0.6677  1.9898 -0.8181
  106SAPE  H20T10901   0.864   1.073   5.020  0.0973 -0.7165  0.1070
  106SAPE   C3310902   1.927   2.067   4.076  0.4644  0.5700 -0.0374
  106SAPE   H3X10903   2.016   2.046   4.140  1.2942  1.7066 -0.7745
  106SAPE   H3Y10904   1.919   1.984   4.002 -0.6980  1.0725 -0.4927
  106SAPE   C3410905   1.795   2.083   4.146  0.5167 -0.0041  0.4370
  106SAPE   H4X10906   1.711   2.127   4.087  0.3208  1.7223  1.9200
  106SAPE   H4Y10907   1.813   2.144   4.237 -1.8471 -0.7124  1.4862
  106SAPE   C3510908   1.740   1.948   4.206  0.3108 -0.4881 -0.6719
  106SAPE   H5X10909   1.805   1.920   4.292 -0.7009  0.1553  0.3446
  106SAPE   H5Y10910   1.749   1.858   4.141  0.2303 -3.5171  3.1593
  106SAPE   C3610911   1.589   1.958   4.245 -1.1066 -0.0568 -0.1858
  106SAPE   H6X10912   1.535   1.861   4.235 -2.6282  0.8423 -1.2461
  106SAPE   H6Y10913   1.540   2.034   4.181 -0.6336 -0.3337 -0.8928
  106SAPE   C3710914   1.561   2.010   4.390 -0.1072  0.1131  0.0215
  106SAPE   H7X10915   1.453   1.990   4.406 -0.1550 -0.0483 -0.4994
  106SAPE   H7Y10916   1.583   2.119   4.393  0.1410  0.1724 -2.2287
  106SAPE   C3810917   1.619   1.950   4.524 -0.1672 -0.3250  0.3777
  106SAPE   H8X10918   1.589   2.017   4.608  3.3501  3.0984 -0.8013
  106SAPE   H8Y10919   1.729   1.958   4.532 -0.0585  0.2690 -1.4128
  106SAPE   C3910920   1.578   1.805   4.538 -0.0374 -0.1077 -0.4033
  106SAPE   H9X10921   1.582   1.763   4.435 -0.8623  0.9703 -0.8845
  106SAPE   H9Y10922   1.472   1.818   4.567 -0.0633 -1.4357  0.2113
  106SAPE  C31010923   1.649   1.716   4.639 -0.7213  0.0943 -0.2432
  106SAPE  H10X10924   1.759   1.705   4.626 -0.1387  2.9095  1.3248
  106SAPE  H10Y10925   1.614   1.611   4.631 -0.3603 -0.1198  0.8000
  106SAPE  C31110926   1.628   1.752   4.786  0.4415  0.2737  0.0496
  106SAPE  H11X10927   1.682   1.845   4.815 -2.3221  1.2741  2.5944
  106SAPE  H11Y10928   1.680   1.676   4.848 -0.6764 -1.3035 -0.8904
  106SAPE  C31210929   1.478   1.767   4.829 -0.2173 -1.1994  0.9295
  106SAPE  H12X10930   1.412   1.689   4.784 -3.3816  1.0822  1.2763
  106SAPE  H12Y10931   1.440   1.855   4.774 -1.1954 -0.9150  2.0209
  106SAPE  C31310932   1.456   1.788   4.978 -0.1457 -0.3957 -0.5393
  106SAPE  H13X10933   1.513   1.879   5.003  0.9180 -1.0800 -0.4164
  106SAPE  H13Y10934   1.500   1.705   5.038  0.0586  0.4605  0.5300
  106SAPE  C31410935   1.307   1.822   5.019  0.1011  0.8141 -0.9180
  106SAPE  H14X10936   1.236   1.751   4.970  1.6380 -1.3528 -0.1186
  106SAPE  H14Y10937   1.276   1.923   4.986 -4.2745  0.2725  0.8039
  106SAPE  C31510938   1.289   1.810   5.169 -0.0916 -0.4634 -0.8736
  106SAPE  H15X10939   1.384   1.852   5.210 -0.7800  1.7460 -1.4017
  106SAPE  H15Y10940   1.304   1.703   5.195  1.8745  0.0526  0.4118
  106SAPE  C31610941   1.162   1.873   5.227 -0.0238  0.2674  0.7291
  106SAPE  H16X10942   1.084   1.799   5.202  0.8699 -1.1465  1.9452
  106SAPE  H16Y10943   1.137   1.971   5.181 -0.8403 -0.6050 -0.7684
  106SAPE  C31710944   1.163   1.887   5.382 -0.1923 -0.5426 -0.1907
  106SAPE  H17X10945   1.068   1.939   5.407  0.7641  0.8187  0.7765
  106SAPE  H17Y10946   1.251   1.948   5.412 -0.4799  0.5004 -1.3973
  106SAPE  C31810947   1.177   1.755   5.454 -0.5097  0.4422 -0.1444
  106SAPE  H18X10948   1.090   1.695   5.419 -1.2529  1.0197  0.6675
  106SAPE  H18Y10949   1.177   1.760   5.565  0.8659 -0.6089 -0.0690
  106SAPE  H18Z10950   1.261   1.688   5.425 -1.0064 -0.8876  1.3344
  107SAPE     N10951   3.387   6.122   3.300 -0.5014 -0.3250  0.6574
  107SAPE   HN110952   3.352   6.170   3.215 -0.6971 -4.6552 -2.0187
  107SAPE   HN210953   3.489   6.104   3.294 -0.7930 -2.7012  1.6433
  107SAPE   HN310954   3.347   6.027   3.290  0.3642 -0.9813  2.7795
  107SAPE   C1210955   3.348   6.181   3.430  0.1958  0.3941 -0.5657
  107SAPE  H12A10956   3.399   6.278   3.449  0.9241  0.1991 -1.4377
  107SAPE  H12B10957   3.379   6.113   3.512  1.6932  1.7533  0.0422
  107SAPE   C1110958   3.193   6.204   3.429 -0.2724  0.1988  0.3650
  107SAPE  H11A10959   3.183   6.301   3.375 -0.8157 -0.5516 -0.9319
  107SAPE  H11B10960   3.156   6.223   3.532  1.0460 -2.0523  1.3284
  107SAPE     P10961   3.003   6.078   3.291 -0.1015  0.1825 -0.0405
  107SAPE   O1310962   3.048   6.074   3.148 -1.0130 -0.1493 -0.1776
  107SAPE   O1410963   2.908   5.973   3.334 -0.2407 -0.5198 -0.2355
  107SAPE   O1210964   3.126   6.078   3.382  0.0810 -0.5942 -0.9129
  107SAPE   O1110965   2.948   6.221   3.313  0.1395 -0.6368  0.2117
  107SAPE    C110966   2.862   6.242   3.426 -0.0366 -0.8515  0.1366
  107SAPE    HA10967   2.756   6.219   3.404  0.0234  0.7181 -2.1382
  107SAPE    HB10968   2.890   6.175   3.510 -0.2239 -1.3287 -0.1738
  107SAPE    C210969   2.879   6.387   3.471 -0.7428 -0.5616 -0.2136
  107SAPE    HS10970   2.910   6.436   3.376  0.9542 -1.9770 -0.4345
  107SAPE   O2110971   2.975   6.399   3.584 -0.4443 -0.1468 -0.3518
  107SAPE   C2110972   3.014   6.515   3.615  1.1648 -0.1794  0.1465
  107SAPE   O2210973   2.985   6.616   3.553  0.7104 -0.2998 -0.1064
  107SAPE   C2210974   3.094   6.508   3.745 -0.8777  0.3423  0.1351
  107SAPE   H2R10975   3.114   6.404   3.776 -1.9033  0.2229  0.4164
  107SAPE   H2S10976   3.191   6.548   3.709 -1.0380  0.1529 -0.5249
  107SAPE    C310977   2.735   6.447   3.503 -0.1200  0.6752  0.4035
  107SAPE    HX10978   2.681   6.461   3.407  0.8007  0.0387 -0.2270
  107SAPE    HY10979   2.744   6.553   3.538  1.5072  1.1009 -1.1415
  107SAPE   O3110980   2.672   6.374   3.604  0.2477  0.1280  0.1235
  107SAPE   C3110981   2.584   6.278   3.574 -0.2783 -0.0366  0.2736
  107SAPE   O3210982   2.527   6.259   3.467 -0.0851 -0.5083  0.0913
  107SAPE   C3210983   2.546   6.210   3.710  0.5040  0.6688 -0.3272
  107SAPE   H2X10984   2.454   6.149   3.700  1.9019 -1.3208 -1.8162
  107SAPE   H2Y10985   2.521   6.292   3.781  0.4554  0.2334  0.1636
  107SAPE   C2310986   3.035   6.593   3.861 -0.6011 -0.0272 -0.7164
  107SAPE   H3R10987   3.022   6.699   3.829 -1.2752  0.3748  0.7801
  107SAPE   H3S10988   3.105   6.597   3.948  0.4611 -0.2963 -1.5336
  107SAPE   C2410989   2.905   6.533   3.912 -0.1392 -0.1005  0.0100
  107SAPE   H4R10990   2.829   6.515   3.833  0.5524 -3.3434 -0.0531
  107SAPE   H4S10991   2.856   6.598   3.987 -0.7714  0.7359 -1.0932
  107SAPE   C2510992   2.923   6.390   3.959 -0.2745  0.0924  0.5548
  107SAPE   H5R10993   2.904   6.307   3.889 -3.1265 -0.5790  1.9842
  107SAPE   C2610994   2.942   6.358   4.092 -0.7819  0.3287  0.5818
  107SAPE   H6R10995   2.925   6.250   4.111 -1.1407  0.0112 -1.3365
  107SAPE   C2710996   2.974   6.462   4.198 -0.2063  0.2012 -0.1407
  107SAPE   H7R10997   2.923   6.557   4.171 -2.1061 -0.9670 -0.8632
  107SAPE   H7S10998   3.084   6.478   4.196 -0.0129 -1.0318 -0.3608
  107SAPE   C2810999   2.942   6.401   4.333 -0.2484  0.0177 -0.9732
  107SAPE   H8R11000   3.015   6.334   4.380 -1.3522  0.1305  1.0080
  107SAPE   C2911001   2.836   6.415   4.417 -0.4295  0.0851  0.1489
  107SAPE   H9R11002   2.834   6.357   4.511 -0.8363  2.8489  1.9881
  107SAPE  C21011003   2.712   6.507   4.409 -0.3043  0.6132  0.1840
  107SAPE  H10R11004   2.622   6.447   4.383 -1.1207  2.0884 -0.5306
  107SAPE  H10S11005   2.724   6.573   4.321 -1.7010 -1.1503 -1.4134
  107SAPE  C21111006   2.681   6.561   4.544  0.1051 -0.7233 -0.2765
  107SAPE  H11R11007   2.762   6.605   4.605 -1.7664  0.3973  1.5555
  107SAPE  C21211008   2.561   6.566   4.608  0.1865  0.0439  0.2761
  107SAPE  H12R11009   2.561   6.625   4.701  2.5442 -1.7871  1.5780
  107SAPE  C21311010   2.429   6.506   4.563  0.3082  0.2094  0.8544
  107SAPE  H13R11011   2.450   6.397   4.567  2.2775  0.4779 -0.9304
  107SAPE  H13S11012   2.406   6.519   4.455  0.3110 -1.2610  0.6480
  107SAPE  C21411013   2.314   6.557   4.644  0.1442 -0.1728  0.6079
  107SAPE  H14R11014   2.310   6.666   4.659  2.2943 -0.1392  1.2178
  107SAPE  C21511015   2.216   6.483   4.704  0.1132  0.0524 -0.0909
  107SAPE  H15R11016   2.141   6.540   4.762  1.6878  2.0488  0.0870
  107SAPE  C21611017   2.193   6.336   4.697  0.5060 -0.6602  0.1952
  107SAPE  H16R11018   2.272   6.284   4.640  1.8425  0.6848  0.7424
  107SAPE  H16S11019   2.096   6.313   4.647  1.3249  0.0892 -1.8033
  107SAPE  C21711020   2.191   6.262   4.829  0.0493  0.0641 -0.3666
  107SAPE  H17R11021   2.183   6.155   4.801  1.0706  0.0282 -0.5519
  107SAPE  H17S11022   2.105   6.289   4.894 -0.8256  1.2831 -1.9519
  107SAPE  C21811023   2.325   6.263   4.903 -0.0261  0.5116 -0.0460
  107SAPE  H18R11024   2.404   6.317   4.847  1.0436  1.1979  2.0249
  107SAPE  H18S11025   2.350   6.155   4.913  2.4922  0.9869 -0.4727
  107SAPE  C21911026   2.326   6.313   5.046  1.0296  0.1268 -0.1261
  107SAPE  H19R11027   2.258   6.255   5.111  0.8856  1.4373  0.9290
  107SAPE  H19S11028   2.304   6.421   5.033  0.6812 -0.1591 -2.3849
  107SAPE  C22011029   2.465   6.313   5.113  0.1592 -0.7315  0.4626
  107SAPE  H20R11030   2.540   6.357   5.043 -0.8449  0.4845  0.1170
  107SAPE  H20S11031   2.500   6.211   5.139  0.2008 -1.0835 -0.8721
  107SAPE  H20T11032   2.458   6.363   5.212  0.2647 -1.0403  0.6274
  107SAPE   C3311033   2.665   6.139   3.774  0.2695  0.5280  0.2675
  107SAPE   H3X11034   2.738   6.216   3.804  0.3888  0.4281  0.2357
  107SAPE   H3Y11035   2.724   6.074   3.706 -0.0790  2.0477 -1.5611
  107SAPE   C3411036   2.619   6.064   3.895 -0.2092 -0.0922  0.3276
  107SAPE   H4X11037   2.567   5.971   3.865 -2.4716 -0.8629  5.5694
  107SAPE   H4Y11038   2.543   6.119   3.954 -1.2830 -1.4272  0.2242
  107SAPE   C3511039   2.734   6.014   3.983 -0.5043 -0.5885 -0.8911
  107SAPE   H5X11040   2.795   6.106   3.990 -0.2636 -0.8543  1.0626
  107SAPE   H5Y11041   2.797   5.939   3.930 -1.5132 -2.8015  0.8435
  107SAPE   C3611042   2.689   5.972   4.121  0.8932 -0.0467 -0.1562
  107SAPE   H6X11043   2.607   5.897   4.117  0.2089  0.4730  2.1703
  107SAPE   H6Y11044   2.650   6.062   4.173  0.7010 -0.1387 -0.1374
  107SAPE   C3711045   2.795   5.913   4.209  0.0165  0.6434  0.7375
  107SAPE   H7X11046   2.885   5.970   4.177 -1.0587  0.9847 -1.9222
  107SAPE   H7Y11047   2.808   5.805   4.187 -3.7607 -0.0056  1.0758
  107SAPE   C3811048   2.760   5.904   4.362 -0.2009  0.4780 -0.1591
  107SAPE   H8X11049   2.802   5.811   4.405 -1.5505  0.9968  2.5048
  107SAPE   H8Y11050   2.649   5.895   4.369 -0.2804 -0.2334 -1.7875
  107SAPE   C3911051   2.801   6.032   4.436 -0.2364  0.0208 -0.5569
  107SAPE   H9X11052   2.771   6.108   4.361 -1.1382 -0.5675 -0.8116
  107SAPE   H9Y11053   2.910   6.034   4.454 -0.7488 -0.0640  3.7065
  107SAPE  C31011054   2.725   6.064   4.570 -0.4263  0.8496 -0.0726
  107SAPE  H10X11055   2.615   6.069   4.556 -0.5265 -1.3010 -0.4586
  107SAPE  H10Y11056   2.757   6.162   4.610 -0.8987  0.2167  1.9697
  107SAPE  C31111057   2.749   5.952   4.670  0.1576  0.3675 -0.1633
  107SAPE  H11X11058   2.855   5.937   4.698 -0.1428 -0.7321  0.4427
  107SAPE  H11Y11059   2.708   5.858   4.629  1.6251 -1.3874  2.1417
  107SAPE  C31211060   2.661   5.982   4.801  0.1339 -0.5169  0.9015
  107SAPE  H12X11061   2.554   5.993   4.774  0.8039 -1.4286 -2.6741
  107SAPE  H12Y11062   2.698   6.076   4.848  0.8339 -0.3635  0.0686
  107SAPE  C31311063   2.674   5.874   4.904  0.3267  0.1287 -0.0793
  107SAPE  H13X11064   2.780   5.846   4.921  0.3935  0.1519 -0.4569
  107SAPE  H13Y11065   2.621   5.782   4.872 -1.4446  1.5747 -1.5640
  107SAPE  C31411066   2.633   5.922   5.049 -0.1903 -0.1667  0.1751
  107SAPE  H14X11067   2.526   5.952   5.044 -0.1499  0.1759  1.2479
  107SAPE  H14Y11068   2.694   6.011   5.078 -1.8547  0.4050  2.1083
  107SAPE  C31511069   2.647   5.815   5.162  0.4656 -0.2891 -0.8471
  107SAPE  H15X11070   2.757   5.820   5.175  0.8940  2.4522 -4.0318
  107SAPE  H15Y11071   2.604   5.718   5.127  0.3401 -0.6797  0.3477
  107SAPE  C31611072   2.561   5.854   5.287  0.2987 -0.1151  0.2130
  107SAPE  H16X11073   2.451   5.855   5.270  0.1572  0.2052  1.1022
  107SAPE  H16Y11074   2.604   5.951   5.321 -0.1863 -0.2863  1.3453
  107SAPE  C31711075   2.572   5.761   5.402 -0.1612 -0.5061 -0.0612
  107SAPE  H17X11076   2.549   5.662   5.358 -0.4019  0.4885 -2.3195
  107SAPE  H17Y11077   2.498   5.782   5.482 -0.4770 -0.4200 -0.3741
  107SAPE  C31811078   2.716   5.762   5.470 -0.7075 -0.7198  0.4262
  107SAPE  H18X11079   2.797   5.742   5.397 -0.3899  0.0919  0.5466
  107SAPE  H18Y11080   2.726   5.681   5.546 -1.0095 -1.9273 -0.7937
  107SAPE  H18Z11081   2.722   5.859   5.524 -0.3884 -0.7659  0.4769
  108SAPE     N11082   6.766   6.389   3.256 -0.7759 -0.3232  0.2809
  108SAPE   HN111083   6.683   6.442   3.223  1.1343  1.6558 -1.6920
  108SAPE   HN211084   6.760   6.292   3.219  0.6771 -0.4925  0.4211
  108SAPE   HN311085   6.758   6.380   3.360 -0.8672  0.0362  0.3034
  108SAPE   C1211086   6.893   6.456   3.207 -0.2192 -0.0310 -0.1228
  108SAPE  H12A11087   6.893   6.451   3.097 -0.8962  1.6652 -0.2314
  108SAPE  H12B11088   6.976   6.389   3.237 -0.5460 -0.7616 -0.8416
  108SAPE   C1111089   6.915   6.603   3.253 -0.0098  0.2388 -1.3292
  108SAPE  H11A11090   6.851   6.660   3.183 -1.5180  0.3772  0.0867
  108SAPE  H11B11091   7.023   6.625   3.240  0.0854  0.2605 -0.5480
  108SAPE     P11092   6.762   6.713   3.447  0.5009 -0.1982 -0.2295
  108SAPE   O1311093   6.708   6.786   3.331 -0.0450  0.2731  0.4590
  108SAPE   O1411094   6.666   6.618   3.514 -0.2170  0.4578 -0.4783
  108SAPE   O1211095   6.885   6.628   3.393 -0.7980  0.4112 -0.5857
  108SAPE   O1111096   6.823   6.822   3.545  0.1054 -0.5656 -0.1358
  108SAPE    C111097   6.926   6.798   3.643  0.3730  0.5311  0.2604
  108SAPE    HA11098   7.004   6.729   3.607 -0.8930  1.3558 -4.7981
  108SAPE    HB11099   6.974   6.895   3.671  2.1860 -0.1727 -0.2871
  108SAPE    C211100   6.852   6.743   3.765  0.5596  0.1772 -0.2571
  108SAPE    HS11101   6.802   6.654   3.722  0.0237 -1.0847  2.7376
  108SAPE   O2111102   6.748   6.835   3.811 -0.1719 -0.3412  0.5280
  108SAPE   C2111103   6.790   6.937   3.884 -0.6236 -0.1268  0.5945
  108SAPE   O2211104   6.905   6.976   3.895 -0.2971  0.4765  0.1459
  108SAPE   C2211105   6.677   6.979   3.969  0.0271 -0.7234  0.1768
  108SAPE   H2R11106   6.600   7.035   3.912 -3.3594 -3.2864  1.8569
  108SAPE   H2S11107   6.616   6.891   4.000  1.0643 -2.1823 -1.7809
  108SAPE    C311108   6.948   6.691   3.875  0.1549 -0.4123  0.2657
  108SAPE    HX11109   6.889   6.640   3.954 -0.7188 -0.4977 -0.4237
  108SAPE    HY11110   7.013   6.762   3.930 -0.5030 -1.2241  2.1876
  108SAPE   O3111111   7.043   6.599   3.814 -0.1126  0.0652  0.0636
  108SAPE   C3111112   6.996   6.479   3.799  0.1339  0.4854 -0.0236
  108SAPE   O3211113   6.881   6.448   3.818  0.8097 -0.5600 -0.4527
  108SAPE   C3211114   7.100   6.375   3.733  0.2578 -0.0227  0.6174
  108SAPE   H2X11115   7.200   6.422   3.737  0.0024  1.0015 -2.2337
  108SAPE   H2Y11116   7.074   6.358   3.626  1.5835 -0.4772  0.3570
  108SAPE   C2311117   6.732   7.052   4.100  0.6509  0.4317 -0.1169
  108SAPE   H3R11118   6.780   7.149   4.073 -0.0601  0.0134 -3.3090
  108SAPE   H3S11119   6.815   6.997   4.148 -0.1533  0.2498  1.1119
  108SAPE   C2411120   6.618   7.079   4.196 -0.2009  0.1515 -0.8003
  108SAPE   H4R11121   6.530   7.127   4.147 -2.1273 -1.4075  0.9344
  108SAPE   H4S11122   6.653   7.155   4.268 -3.1784  0.4387  0.5136
  108SAPE   C2511123   6.563   6.966   4.275  0.3858 -0.0076 -0.4219
  108SAPE   H5R11124   6.490   6.915   4.211 -0.8406 -0.9580  1.6356
  108SAPE   C2611125   6.576   6.949   4.414  0.1509  0.2071  0.8724
  108SAPE   H6R11126   6.522   6.866   4.462 -0.7902 -0.9721 -2.0047
  108SAPE   C2711127   6.664   7.038   4.505 -0.1656 -0.3826  0.2359
  108SAPE   H7R11128   6.652   7.148   4.497 -0.0978 -0.3305  0.8239
  108SAPE   H7S11129   6.764   7.025   4.459 -0.7133 -1.8354 -0.6383
  108SAPE   C2811130   6.676   6.990   4.647  0.6094  0.4537 -0.0317
  108SAPE   H8R11131   6.769   6.938   4.672 -0.4944 -1.8205 -0.4167
  108SAPE   C2911132   6.585   7.002   4.743 -0.7166  0.2385  0.0563
  108SAPE   H9R11133   6.615   6.975   4.845 -0.3938 -1.3083 -0.4238
  108SAPE  C21011134   6.445   7.060   4.729 -0.3761 -0.2289 -0.8894
  108SAPE  H10R11135   6.374   6.978   4.752  0.9981 -1.1401  0.2268
  108SAPE  H10S11136   6.432   7.091   4.623  2.5020  1.4510 -0.8712
  108SAPE  C21111137   6.429   7.177   4.825 -0.7308 -0.6971  0.1576
  108SAPE  H11R11138   6.455   7.272   4.776 -0.1069 -1.7191 -1.5617
  108SAPE  C21211139   6.383   7.171   4.954  1.0912 -0.0027 -0.4320
  108SAPE  H12R11140   6.371   7.261   5.016 -1.7364 -1.6367  1.6333
  108SAPE  C21311141   6.342   7.044   5.020 -0.2128 -0.3747  0.4622
  108SAPE  H13R11142   6.421   7.019   5.095 -1.0840  1.4486  2.0942
  108SAPE  H13S11143   6.342   6.963   4.944 -1.7510  1.8552 -2.0979
  108SAPE  C21411144   6.208   7.043   5.088  0.7019 -0.7820  1.0422
  108SAPE  H14R11145   6.129   7.090   5.026  1.5157  0.3334  0.8156
  108SAPE  C21511146   6.191   7.038   5.222  0.0170  0.6257  0.4322
  108SAPE  H15R11147   6.092   7.051   5.268  0.7424  1.0229  1.9386
  108SAPE  C21611148   6.300   6.996   5.308  0.3027  0.1182  0.6600
  108SAPE  H16R11149   6.355   6.915   5.255 -1.0186  0.2704 -1.0519
  108SAPE  H16S11150   6.259   6.937   5.392 -0.4989 -1.9084 -1.0567
  108SAPE  C21711151   6.405   7.105   5.345  0.0497  0.4275  0.0418
  108SAPE  H17R11152   6.438   7.147   5.248  2.0531 -2.2120 -0.5190
  108SAPE  H17S11153   6.498   7.055   5.380  1.4933  1.3425 -2.2513
  108SAPE  C21811154   6.361   7.209   5.446  0.1794 -0.4964 -0.1371
  108SAPE  H18R11155   6.313   7.163   5.535 -1.2510 -0.9713 -1.1180
  108SAPE  H18S11156   6.287   7.279   5.402  0.2659 -0.8024 -0.7713
  108SAPE  C21911157   6.476   7.312   5.475  0.5059  0.0996  0.3428
  108SAPE  H19R11158   6.523   7.339   5.378  0.6617  0.3293  0.4789
  108SAPE  H19S11159   6.545   7.262   5.547 -0.1347  0.8843  1.5449
  108SAPE  C22011160   6.428   7.441   5.555 -0.0083 -0.9376  0.1470
  108SAPE  H20R11161   6.352   7.418   5.633 -2.2329 -0.0561 -1.6258
  108SAPE  H20S11162   6.397   7.514   5.477  2.3161 -1.6233 -1.5388
  108SAPE  H20T11163   6.518   7.478   5.607  0.0543  1.1448 -1.3507
  108SAPE   C3311164   7.098   6.236   3.805  0.1763 -0.5613  0.2643
  108SAPE   H3X11165   7.168   6.171   3.749 -0.3672 -0.1396 -0.9507
  108SAPE   H3Y11166   7.009   6.172   3.786 -0.7328  0.4870  0.8624
  108SAPE   C3411167   7.131   6.232   3.956 -0.3526  0.1726  0.2370
  108SAPE   H4X11168   7.146   6.125   3.984 -2.0736 -0.0878  0.2851
  108SAPE   H4Y11169   7.040   6.267   4.008 -0.1032 -0.5624  1.1968
  108SAPE   C3511170   7.249   6.323   3.996 -0.2008  0.2330  0.1844
  108SAPE   H5X11171   7.347   6.271   3.981 -0.4232 -0.9111  2.2140
  108SAPE   H5Y11172   7.243   6.409   3.927  1.0617  0.3272  0.1608
  108SAPE   C3611173   7.242   6.379   4.132 -0.6156  0.6362 -0.2862
  108SAPE   H6X11174   7.143   6.429   4.143 -0.7814  0.1464  0.5350
  108SAPE   H6Y11175   7.321   6.456   4.147 -1.7660  1.4093  2.3790
  108SAPE   C3711176   7.251   6.261   4.239  1.1725 -0.3436 -1.0929
  108SAPE   H7X11177   7.339   6.193   4.232  0.2927 -1.5242 -0.8961
  108SAPE   H7Y11178   7.164   6.196   4.219  1.4907 -0.1315 -3.4580
  108SAPE   C3811179   7.233   6.303   4.392  0.3841 -0.2720  0.0169
  108SAPE   H8X11180   7.131   6.336   4.420  0.6388  1.2383 -0.7527
  108SAPE   H8Y11181   7.303   6.386   4.410  0.0740  0.6796 -2.6650
  108SAPE   C3911182   7.278   6.189   4.487  0.4351  0.3794  0.6408
  108SAPE   H9X11183   7.388   6.180   4.472  0.5300  3.0484 -0.7161
  108SAPE   H9Y11184   7.237   6.089   4.460 -1.3640  1.2913 -0.1790
  108SAPE  C31011185   7.238   6.215   4.634 -0.0160 -0.7274 -0.5540
  108SAPE  H10X11186   7.274   6.133   4.700  2.0020  1.2423  0.9518
  108SAPE  H10Y11187   7.129   6.229   4.647  0.0635 -1.2355  0.8391
  108SAPE  C31111188   7.313   6.341   4.688  0.3254  0.1123  0.2127
  108SAPE  H11X11189   7.272   6.432   4.640 -1.0545 -0.5686  0.0298
  108SAPE  H11Y11190   7.420   6.339   4.660 -0.1044 -2.2162 -1.6528
  108SAPE  C31211191   7.294   6.368   4.838 -0.0151 -0.4211 -0.4492
  108SAPE  H12X11192   7.342   6.467   4.852 -0.1481 -0.0894 -2.1231
  108SAPE  H12Y11193   7.357   6.293   4.890 -0.5049 -0.2719  0.3842
  108SAPE  C31311194   7.151   6.351   4.901 -0.5275 -0.7142  0.3550
  108SAPE  H13X11195   7.117   6.246   4.888  2.5643 -1.9997  1.6611
  108SAPE  H13Y11196   7.076   6.420   4.855 -0.1631 -0.4562  0.1363
  108SAPE  C31411197   7.147   6.382   5.050  0.2051  0.1923  0.6221
  108SAPE  H14X11198   7.161   6.491   5.064  1.2112  0.2497 -0.6672
  108SAPE  H14Y11199   7.241   6.344   5.097  1.3085  2.0962  0.0337
  108SAPE  C31511200   7.011   6.341   5.108  0.3605 -0.1333  0.0815
  108SAPE  H15X11201   6.984   6.233   5.105  0.8175 -0.2417 -0.1497
  108SAPE  H15Y11202   6.930   6.392   5.051  0.4962 -2.2455 -2.1593
  108SAPE  C31611203   6.995   6.390   5.249 -0.2898 -0.4526 -0.1075
  108SAPE  H16X11204   7.012   6.500   5.247  3.0496 -0.9084 -1.9425
  108SAPE  H16Y11205   7.076   6.355   5.316 -0.5712  2.2986  1.8723
  108SAPE  C31711206   6.868   6.354   5.318 -0.0433  0.0921 -0.4271
  108SAPE  H17X11207   6.775   6.400   5.278  0.4029  0.6556 -0.8220
  108SAPE  H17Y11208   6.874   6.391   5.423 -1.8756 -1.6403  0.3542
  108SAPE  C31811209   6.834   6.205   5.325 -0.5357  0.8996  0.4937
  108SAPE  H18X11210   6.764   6.180   5.407  2.5479 -0.6915  2.8490
  108SAPE  H18Y11211   6.930   6.159   5.356 -1.5497  0.0969  2.6136
  108SAPE  H18Z11212   6.808   6.159   5.227  2.0307 -1.7696  0.9347
  109SAPE     N11213   3.863   4.955   2.964  0.1590  0.8191 -0.4701
  109SAPE   HN111214   3.875   4.915   2.869 -0.6472 -2.0606  0.5534
  109SAPE   HN211215   3.764   4.960   2.996 -0.0635 -0.2388 -0.9584
  109SAPE   HN311216   3.893   5.054   2.973 -1.6790  1.3667  0.1592
  109SAPE   C1211217   3.951   4.866   3.045 -0.7711 -0.2398 -0.6804
  109SAPE  H12A11218   3.921   4.764   3.015 -0.5016 -1.6161  3.1857
  109SAPE  H12B11219   3.929   4.886   3.152  1.9220 -0.4694  0.0071
  109SAPE   C1111220   4.098   4.874   3.017  0.4349 -0.1403  0.0533
  109SAPE  H11A11221   4.114   4.854   2.909 -2.9546 -0.6238 -0.4648
  109SAPE  H11B11222   4.143   4.787   3.070  1.2489 -0.2554 -0.8069
  109SAPE     P11223   4.270   5.036   3.140 -0.2445 -0.2930 -0.1656
  109SAPE   O1311224   4.385   4.953   3.100 -0.5470 -0.1679 -0.0799
  109SAPE   O1411225   4.291   5.180   3.124 -0.3564 -0.1767  0.0038
  109SAPE   O1211226   4.142   5.008   3.056  0.3501  0.1952  0.4390
  109SAPE   O1111227   4.224   5.014   3.289  1.1633 -0.2186 -1.0783
  109SAPE    C111228   4.127   5.107   3.351 -0.4584  0.7025  0.1936
  109SAPE    HA11229   4.110   5.197   3.288  1.0706 -1.1400 -3.1389
  109SAPE    HB11230   4.031   5.059   3.382 -0.3801  0.7796  0.5564
  109SAPE    C211231   4.166   5.153   3.496 -0.7497 -0.3292  0.0127
  109SAPE    HS11232   4.270   5.188   3.505 -1.8590  2.8090  2.5251
  109SAPE   O2111233   4.137   5.048   3.588 -0.2945 -0.0433  0.9841
  109SAPE   C2111234   4.245   4.989   3.644 -0.2771 -0.3878 -0.7425
  109SAPE   O2211235   4.360   5.035   3.645 -0.6074 -0.7444 -0.1910
  109SAPE   C2211236   4.193   4.872   3.724 -0.0388  0.1630 -0.5058
  109SAPE   H2R11237   4.128   4.916   3.802  0.6122  0.7444 -0.2793
  109SAPE   H2S11238   4.134   4.806   3.656  1.5511 -0.2946 -1.5181
  109SAPE    C311239   4.079   5.274   3.534 -0.3928 -0.1652 -0.0551
  109SAPE    HX11240   3.974   5.252   3.506 -0.4541 -0.5994  0.5210
  109SAPE    HY11241   4.112   5.363   3.475 -2.0565  0.1359 -0.5883
  109SAPE   O3111242   4.093   5.303   3.679 -0.5760  0.8856 -0.2059
  109SAPE   C3111243   4.218   5.346   3.715 -0.4531 -1.0662  0.7477
  109SAPE   O3211244   4.302   5.385   3.633  0.0396  0.0738  0.2243
  109SAPE   C3211245   4.230   5.357   3.866 -0.0899  0.2804 -0.2206
  109SAPE   H2X11246   4.140   5.394   3.919  0.9544  0.1359  1.7408
  109SAPE   H2Y11247   4.301   5.438   3.891 -0.6738  0.2920  1.5576
  109SAPE   C2311248   4.317   4.797   3.772  0.5721  0.1016  0.3943
  109SAPE   H3R11249   4.395   4.794   3.693 -1.4404 -2.6539 -1.6969
  109SAPE   H3S11250   4.287   4.691   3.786 -0.2280 -0.4497 -3.9931
  109SAPE   C2411251   4.375   4.848   3.908  0.4011 -0.7079 -0.5394
  109SAPE   H4R11252   4.407   4.953   3.898 -0.1894 -0.6144 -1.5558
  109SAPE   H4S11253   4.474   4.801   3.923  0.5902  0.1908  1.3044
  109SAPE   C2511254   4.273   4.841   4.017 -0.1167 -0.3360 -0.2228
  109SAPE   H5R11255   4.192   4.915   4.023  0.8917  0.7609  0.3173
  109SAPE   C2611256   4.281   4.761   4.130 -0.2949 -0.8404 -0.3829
  109SAPE   H6R11257   4.194   4.758   4.197 -0.2247 -1.6976 -0.3129
  109SAPE   C2711258   4.383   4.659   4.173 -0.4083 -0.2368  0.0440
  109SAPE   H7R11259   4.443   4.627   4.085 -1.5229 -2.1681 -0.0616
  109SAPE   H7S11260   4.329   4.568   4.208 -0.3853 -0.1258  0.3759
  109SAPE   C2811261   4.489   4.712   4.273  0.0163  0.4921  0.2902
  109SAPE   H8R11262   4.559   4.781   4.224  1.9512 -0.3798  1.6937
  109SAPE   C2911263   4.498   4.658   4.394 -0.5877  0.2502  0.1606
  109SAPE   H9R11264   4.583   4.692   4.454 -0.6610  1.4122 -0.3802
  109SAPE  C21011265   4.403   4.570   4.463 -0.0749  0.2097 -0.3290
  109SAPE  H10R11266   4.314   4.551   4.400  0.2149  0.5128 -0.8331
  109SAPE  H10S11267   4.365   4.631   4.548 -0.8500 -1.6539  0.7279
  109SAPE  C21111268   4.477   4.451   4.521  0.4594  0.2905 -0.0423
  109SAPE  H11R11269   4.477   4.362   4.456  0.7069 -1.2842  2.0096
  109SAPE  C21211270   4.534   4.442   4.643 -0.3368 -0.3720  0.6263
  109SAPE  H12R11271   4.576   4.347   4.678 -4.0199 -2.0888  0.8638
  109SAPE  C21311272   4.543   4.566   4.733  0.4928 -0.3961  0.0357
  109SAPE  H13R11273   4.534   4.659   4.674  0.2921 -0.0422  0.6074
  109SAPE  H13S11274   4.641   4.578   4.783  0.6057  0.7772 -0.4504
  109SAPE  C21411275   4.434   4.563   4.846  0.9609 -0.7695 -0.0465
  109SAPE  H14R11276   4.332   4.560   4.804  0.1664 -1.4001  1.8103
  109SAPE  C21511277   4.445   4.582   4.981  0.0246 -0.1865 -0.3068
  109SAPE  H15R11278   4.356   4.562   5.042  1.0310 -2.3607  0.5525
  109SAPE  C21611279   4.575   4.601   5.053 -0.2177  0.0215 -0.4973
  109SAPE  H16R11280   4.657   4.618   4.981  0.4834  2.1513  0.7124
  109SAPE  H16S11281   4.591   4.511   5.116 -3.0174  1.5516  2.7810
  109SAPE  C21711282   4.589   4.725   5.149 -0.2615 -0.1444 -0.1731
  109SAPE  H17R11283   4.558   4.819   5.099 -1.7569 -0.6050 -0.1685
  109SAPE  H17S11284   4.694   4.736   5.182  0.7709 -1.8409 -2.6192
  109SAPE  C21811285   4.499   4.715   5.275 -0.0255  0.0776 -0.3312
  109SAPE  H18R11286   4.543   4.633   5.335 -0.4135 -0.5247 -0.8501
  109SAPE  H18S11287   4.393   4.684   5.262  0.1340 -1.9219  2.3749
  109SAPE  C21911288   4.509   4.837   5.356  0.1114  1.3499 -0.2982
  109SAPE  H19R11289   4.496   4.929   5.295  1.5024  1.3299 -0.6719
  109SAPE  H19S11290   4.610   4.832   5.402 -0.4540 -0.3428  0.8265
  109SAPE  C22011291   4.420   4.825   5.481 -0.7074  0.5225  0.4201
  109SAPE  H20R11292   4.311   4.822   5.460 -0.6018  0.4568 -0.1274
  109SAPE  H20S11293   4.447   4.907   5.551 -1.7429 -0.1108  1.6138
  109SAPE  H20T11294   4.448   4.728   5.528 -2.4793 -0.7539 -1.0135
  109SAPE   C3311295   4.276   5.218   3.915  0.4358 -0.2974  0.4202
  109SAPE   H3X11296   4.353   5.175   3.847  1.3010  0.3435  0.9795
  109SAPE   H3Y11297   4.191   5.147   3.907 -0.3510  0.6638  0.0949
  109SAPE   C3411298   4.338   5.228   4.052 -0.7787  0.0120 -0.1746
  109SAPE   H4X11299   4.384   5.328   4.066 -2.0753  0.5384  0.5392
  109SAPE   H4Y11300   4.407   5.142   4.060 -0.2582  0.2290 -1.8686
  109SAPE   C3511301   4.227   5.213   4.162 -0.1882  0.2624 -0.2898
  109SAPE   H5X11302   4.168   5.122   4.137  1.0207 -1.0697  1.4217
  109SAPE   H5Y11303   4.168   5.305   4.147  0.3881  0.6321 -0.3337
  109SAPE   C3611304   4.286   5.219   4.303  1.0198 -0.0133 -0.2634
  109SAPE   H6X11305   4.373   5.288   4.305  1.0637  0.0082 -1.7600
  109SAPE   H6Y11306   4.331   5.122   4.334  1.5721  0.2626 -0.1844
  109SAPE   C3711307   4.176   5.253   4.405  0.3300  0.2341 -0.1097
  109SAPE   H7X11308   4.117   5.159   4.410  0.6901 -0.0845 -1.4221
  109SAPE   H7Y11309   4.108   5.326   4.356  1.5947  0.7379 -1.2010
  109SAPE   C3811310   4.229   5.287   4.538  0.3077 -0.2383  1.0571
  109SAPE   H8X11311   4.277   5.387   4.527 -0.3438  0.0319  0.5985
  109SAPE   H8Y11312   4.315   5.224   4.570  1.3311  0.6114  0.0989
  109SAPE   C3911313   4.109   5.300   4.642 -0.1682 -0.6858 -0.4329
  109SAPE   H9X11314   4.075   5.199   4.671  0.3927 -1.0526 -1.0481
  109SAPE   H9Y11315   4.031   5.367   4.598  2.4229  3.0456  0.1667
  109SAPE  C31011316   4.159   5.360   4.777 -0.0509  0.0692  0.3861
  109SAPE  H10X11317   4.236   5.436   4.751  1.5367 -1.7040 -0.4029
  109SAPE  H10Y11318   4.205   5.281   4.841 -1.3743 -0.1474  1.1010
  109SAPE  C31111319   4.042   5.420   4.856  0.4267  0.3441 -0.1022
  109SAPE  H11X11320   3.966   5.339   4.855  1.3806 -0.5781 -1.0579
  109SAPE  H11Y11321   3.993   5.506   4.807 -2.2396 -0.8546  0.3072
  109SAPE  C31211322   4.081   5.461   5.001 -0.0682 -0.0763  0.0439
  109SAPE  H12X11323   4.162   5.535   4.992  0.3072 -0.4791  0.0899
  109SAPE  H12Y11324   4.132   5.370   5.037 -0.5001  0.1948  1.3767
  109SAPE  C31311325   3.963   5.495   5.086  0.7337  0.0537 -0.3238
  109SAPE  H13X11326   3.881   5.420   5.079 -0.5463  1.2837  0.8570
  109SAPE  H13Y11327   3.915   5.586   5.043  0.8892  0.0024 -0.6095
  109SAPE  C31411328   3.989   5.517   5.235 -0.2808  0.5757  0.5430
  109SAPE  H14X11329   4.052   5.440   5.285  0.1415  2.3300  2.9242
  109SAPE  H14Y11330   3.891   5.514   5.287 -0.2202 -1.7994  0.6385
  109SAPE  C31511331   4.069   5.644   5.278 -0.3554 -0.6212  0.2763
  109SAPE  H15X11332   4.145   5.674   5.202  0.8438 -2.3673  0.7166
  109SAPE  H15Y11333   4.119   5.629   5.376  0.6268 -0.7940 -0.2376
  109SAPE  C31611334   3.966   5.758   5.298  0.7663 -0.4332 -0.1843
  109SAPE  H16X11335   3.900   5.733   5.383  0.0290 -1.3115 -0.9974
  109SAPE  H16Y11336   3.905   5.772   5.206 -0.5701 -2.0200  0.4093
  109SAPE  C31711337   4.033   5.888   5.346 -0.3024  0.1564 -0.2118
  109SAPE  H17X11338   3.960   5.972   5.340  1.8253  2.5490  3.6422
  109SAPE  H17Y11339   4.109   5.916   5.270 -0.9945  1.9075 -0.3000
  109SAPE  C31811340   4.101   5.907   5.479 -0.1934 -0.7097 -0.0178
  109SAPE  H18X11341   4.143   6.010   5.482  0.2287 -0.8165 -1.4842
  109SAPE  H18Y11342   4.185   5.838   5.502 -0.3177 -0.9458 -0.2707
  109SAPE  H18Z11343   4.023   5.915   5.557 -0.1768 -0.4795 -0.0252
  110SAPE     N11344   4.223   3.727   3.262  0.1663  0.3219  0.2703
  110SAPE   HN111345   4.314   3.769   3.235 -0.1852  0.8723 -0.0833
  110SAPE   HN211346   4.159   3.806   3.286 -2.1641 -0.6743 -2.1676
  110SAPE   HN311347   4.232   3.669   3.347 -2.6046 -0.6699 -0.0244
  110SAPE   C1211348   4.153   3.640   3.153 -0.7632 -0.7704  0.1640
  110SAPE  H12A11349   4.156   3.705   3.063  0.3847 -0.3338  0.5026
  110SAPE  H12B11350   4.047   3.622   3.180 -1.7472  1.1066 -2.1492
  110SAPE   C1111351   4.227   3.510   3.127 -0.1471  0.2429  0.2245
  110SAPE  H11A11352   4.322   3.517   3.069 -1.2485 -0.7314 -1.8082
  110SAPE  H11B11353   4.163   3.466   3.047  0.6969  0.1227 -0.4035
  110SAPE     P11354   4.270   3.267   3.199 -0.3572 -0.0776  0.0590
  110SAPE   O1311355   4.154   3.180   3.230  0.0515  0.6806 -0.2256
  110SAPE   O1411356   4.329   3.263   3.063 -0.0684  0.1780  0.1399
  110SAPE   O1211357   4.240   3.421   3.231 -0.6726 -0.3721 -0.5372
  110SAPE   O1111358   4.384   3.230   3.304 -0.2042  0.6982  0.0951
  110SAPE    C111359   4.434   3.314   3.401 -0.2877 -0.8855 -0.3483
  110SAPE    HA11360   4.536   3.292   3.439 -0.2216 -0.2761 -0.1573
  110SAPE    HB11361   4.457   3.415   3.358 -2.6576 -0.1002  0.0819
  110SAPE    C211362   4.349   3.336   3.524  0.0423  0.0323  0.0800
  110SAPE    HS11363   4.243   3.365   3.504  0.5037  1.4608 -0.3961
  110SAPE   O2111364   4.412   3.428   3.617  0.3867  1.1020 -0.4455
  110SAPE   C2111365   4.388   3.551   3.590 -0.0189  0.1480 -0.2174
  110SAPE   O2211366   4.303   3.595   3.513  0.1676 -0.4464 -0.2466
  110SAPE   C2211367   4.479   3.650   3.672 -0.6022 -0.0688 -0.2662
  110SAPE   H2R11368   4.567   3.667   3.607  0.2433 -2.2783  0.2269
  110SAPE   H2S11369   4.425   3.747   3.677 -0.2152  0.1986 -1.2182
  110SAPE    C311370   4.349   3.189   3.587 -0.2354 -0.5840  0.3048
  110SAPE    HX11371   4.292   3.129   3.512 -3.3629  0.4979  1.6635
  110SAPE    HY11372   4.455   3.163   3.609 -0.2288  1.4081  3.1044
  110SAPE   O3111373   4.296   3.189   3.721  0.1508  1.0318  0.0494
  110SAPE   C3111374   4.167   3.178   3.720 -0.6741  0.1536 -0.0803
  110SAPE   O3211375   4.090   3.174   3.624 -0.2599 -0.1553 -0.1046
  110SAPE   C3211376   4.127   3.162   3.864  0.5609 -0.5803  0.4306
  110SAPE   H2X11377   4.180   3.234   3.931 -0.8999  1.4810 -0.5089
  110SAPE   H2Y11378   4.166   3.060   3.886 -1.1581 -1.4036 -0.1903
  110SAPE   C2311379   4.518   3.613   3.821 -0.0795 -0.6048 -0.4997
  110SAPE   H3R11380   4.579   3.698   3.858 -0.5453 -1.2752  1.9781
  110SAPE   H3S11381   4.594   3.532   3.822  0.9789  0.3435 -1.2171
  110SAPE   C2411382   4.397   3.612   3.912  0.0212  0.8857  0.1718
  110SAPE   H4R11383   4.327   3.532   3.880 -0.3281  1.1873  0.1724
  110SAPE   H4S11384   4.335   3.703   3.912 -0.4933  0.5515 -0.9924
  110SAPE   C2511385   4.457   3.592   4.049  0.5211 -0.1806  0.3122
  110SAPE   H5R11386   4.538   3.664   4.069  1.5667 -0.7771 -1.5516
  110SAPE   C2611387   4.431   3.504   4.145  0.0683  0.3158  0.5757
  110SAPE   H6R11388   4.476   3.509   4.245  1.2213 -2.1975  0.2627
  110SAPE   C2711389   4.328   3.392   4.124 -0.2358  1.1078  0.2248
  110SAPE   H7R11390   4.248   3.410   4.048 -1.4683  2.5543  1.7835
  110SAPE   H7S11391   4.269   3.391   4.218 -0.6057 -0.5279  0.0123
  110SAPE   C2811392   4.408   3.268   4.096 -0.0240 -0.1579 -0.4754
  110SAPE   H8R11393   4.446   3.261   3.993  0.7968 -2.4045 -0.0845
  110SAPE   C2911394   4.432   3.163   4.185  0.4347 -1.0472  0.3357
  110SAPE   H9R11395   4.488   3.080   4.141  1.5270  0.2797 -0.8883
  110SAPE  C21011396   4.377   3.156   4.324  0.4963  0.5845 -0.0086
  110SAPE  H10R11397   4.344   3.247   4.380 -0.0261 -0.1182  0.8617
  110SAPE  H10S11398   4.456   3.109   4.388  1.6602  2.1014 -0.2791
  110SAPE  C21111399   4.255   3.062   4.312 -0.1662  0.0831  0.2377
  110SAPE  H11R11400   4.239   3.001   4.222  1.1336 -1.0743  0.7407
  110SAPE  C21211401   4.157   3.059   4.404  0.1222  0.5102 -0.9521
  110SAPE  H12R11402   4.076   2.987   4.383  2.1061 -2.4325  0.6870
  110SAPE  C21311403   4.145   3.129   4.535  0.2681  0.7665  0.3565
  110SAPE  H13R11404   4.107   3.231   4.510  0.8212  0.9735  0.3475
  110SAPE  H13S11405   4.244   3.151   4.580  0.9349  2.8105 -1.8453
  110SAPE  C21411406   4.059   3.066   4.636  0.0764  0.1165 -0.0555
  110SAPE  H14R11407   4.011   2.975   4.596  0.0215  0.6508 -1.2419
  110SAPE  C21511408   4.049   3.079   4.767  0.4567  0.3836 -0.0130
  110SAPE  H15R11409   3.968   3.026   4.820 -1.1578  2.1575 -0.6243
  110SAPE  C21611410   4.126   3.182   4.851  0.0905  0.4355  0.2213
  110SAPE  H16R11411   4.157   3.269   4.788 -1.0292 -1.1208 -2.6393
  110SAPE  H16S11412   4.220   3.137   4.889  0.7605  0.4080 -1.3919
  110SAPE  C21711413   4.039   3.246   4.964  0.0501 -0.2859 -0.1406
  110SAPE  H17R11414   3.950   3.182   4.982  1.1458 -1.0540  3.2557
  110SAPE  H17S11415   4.011   3.349   4.932  1.0707 -0.6061 -2.2594
  110SAPE  C21811416   4.117   3.255   5.099 -0.4953 -0.0325 -0.5522
  110SAPE  H18R11417   4.062   3.324   5.166 -0.3429 -1.3737  1.0236
  110SAPE  H18S11418   4.212   3.310   5.083 -0.7816  0.2022 -1.4923
  110SAPE  C21911419   4.148   3.119   5.175  0.5070  0.2899 -0.2692
  110SAPE  H19R11420   4.212   3.054   5.113  1.0368 -0.4675  1.0363
  110SAPE  H19S11421   4.054   3.059   5.175  2.8686 -3.7527 -0.2015
  110SAPE  C22011422   4.198   3.126   5.314  0.0070 -0.0146 -0.7004
  110SAPE  H20R11423   4.216   3.026   5.358  3.1494  0.6709 -0.1527
  110SAPE  H20S11424   4.118   3.184   5.366  1.1136  1.3619 -0.4522
  110SAPE  H20T11425   4.293   3.184   5.312 -0.7689  1.3810  0.3789
  110SAPE   C3311426   3.978   3.173   3.878  0.6265  0.1181  0.1291
  110SAPE   H3X11427   3.923   3.101   3.813 -0.2815  1.5777 -0.7852
  110SAPE   H3Y11428   3.942   3.272   3.843  2.1887  0.1361 -1.5557
  110SAPE   C3411429   3.919   3.158   4.017  0.2425 -0.0864  0.0844
  110SAPE   H4X11430   3.951   3.063   4.064  3.3840  0.0226 -1.5552
  110SAPE   H4Y11431   3.811   3.180   4.000  0.2680  1.1525  1.3124
  110SAPE   C3511432   3.973   3.265   4.117 -0.6953 -0.0433  0.4439
  110SAPE   H5X11433   3.965   3.365   4.069  2.0022  0.8792  1.6676
  110SAPE   H5Y11434   4.081   3.244   4.132 -0.2371 -0.0379 -2.3793
  110SAPE   C3611435   3.910   3.274   4.259  0.0660 -0.3273  0.5135
  110SAPE   H6X11436   3.978   3.326   4.329 -1.1013 -0.3585  1.6887
  110SAPE   H6Y11437   3.914   3.166   4.285 -0.7402 -1.3129 -2.8869
  110SAPE   C3711438   3.767   3.339   4.252 -0.5314  0.3134  0.2945
  110SAPE   H7X11439   3.697   3.269   4.202 -0.3192 -0.3515  0.9108
  110SAPE   H7Y11440   3.775   3.434   4.196  0.7103 -0.4130 -0.7998
  110SAPE   C3811441   3.714   3.368   4.392 -0.5381  0.3041  0.2086
  110SAPE   H8X11442   3.624   3.433   4.391 -0.7525  0.0071  0.1898
  110SAPE   H8Y11443   3.792   3.426   4.446  0.6928 -0.0459 -1.1481
  110SAPE   C3911444   3.668   3.243   4.462  0.7269 -0.2573 -1.3183
  110SAPE   H9X11445   3.744   3.162   4.460 -2.0991 -3.1810 -0.0848
  110SAPE   H9Y11446   3.596   3.187   4.398  1.8582 -1.5089 -1.5439
  110SAPE  C31011447   3.620   3.276   4.604 -0.0924 -0.2896 -0.2566
  110SAPE  H10X11448   3.540   3.352   4.617 -0.3468 -0.9839  3.0155
  110SAPE  H10Y11449   3.701   3.327   4.660 -0.7084  1.0668 -0.5667
  110SAPE  C31111450   3.573   3.153   4.685 -0.2437  0.1683  1.0560
  110SAPE  H11X11451   3.481   3.118   4.634  0.1751  2.5212 -1.6124
  110SAPE  H11Y11452   3.550   3.176   4.791 -0.5194 -1.5444  1.4017
  110SAPE  C31211453   3.664   3.031   4.687 -0.7429 -0.2458 -0.7165
  110SAPE  H12X11454   3.764   3.069   4.718 -1.2082 -0.7661  1.6227
  110SAPE  H12Y11455   3.671   2.987   4.585  0.8737  0.7817 -1.0958
  110SAPE  C31311456   3.610   2.931   4.799  0.2721 -0.9453 -0.1296
  110SAPE  H13X11457   3.656   2.838   4.760  3.0904  1.2256 -2.5418
  110SAPE  H13Y11458   3.499   2.937   4.797  0.3196  4.0333 -0.2544
  110SAPE  C31411459   3.663   2.964   4.929 -0.5228  0.5372 -0.7416
  110SAPE  H14X11460   3.651   3.072   4.952 -2.2341  0.0025  1.2181
  110SAPE  H14Y11461   3.768   2.929   4.923 -0.2379  1.5284 -1.8423
  110SAPE  C31511462   3.595   2.896   5.060 -0.7473 -0.1205 -0.4780
  110SAPE  H15X11463   3.587   2.786   5.047 -0.3781 -0.0689 -1.1843
  110SAPE  H15Y11464   3.492   2.936   5.072 -0.1393  1.2856  0.3365
  110SAPE  C31611465   3.676   2.926   5.189  0.0771 -0.0283 -0.4583
  110SAPE  H16X11466   3.770   2.868   5.196  0.7228  1.0396  0.1235
  110SAPE  H16Y11467   3.606   2.899   5.271 -1.0064  2.6294 -0.3979
  110SAPE  C31711468   3.697   3.077   5.209  0.8183  0.6394 -0.2905
  110SAPE  H17X11469   3.607   3.142   5.204  0.2665 -0.1360 -0.8154
  110SAPE  H17Y11470   3.772   3.111   5.135  0.0909  3.3057  0.1003
  110SAPE  C31811471   3.756   3.110   5.352 -0.2119  1.0443 -0.0701
  110SAPE  H18X11472   3.681   3.114   5.434  0.4862 -0.8611  0.7071
  110SAPE  H18Y11473   3.802   3.212   5.357  0.6572  0.6112  2.8572
  110SAPE  H18Z11474   3.837   3.037   5.370 -0.6954  0.6250  0.4405
  111SAPE     N11475   4.248   5.993   2.668  0.0359 -0.6206 -0.0751
  111SAPE   HN111476   4.247   5.908   2.608 -0.0825 -0.5554 -0.1656
  111SAPE   HN211477   4.169   6.048   2.631  0.5770 -0.0051 -0.3449
  111SAPE   HN311478   4.334   6.048   2.647 -0.3149 -0.9354 -2.7192
  111SAPE   C1211479   4.230   5.963   2.810  0.0166  0.4741 -0.0863
  111SAPE  H12A11480   4.312   5.891   2.832 -0.2734  0.7686  2.2099
  111SAPE  H12B11481   4.140   5.902   2.830 -0.2034  0.7612 -0.1962
  111SAPE   C1111482   4.240   6.090   2.903  0.0630 -0.2990 -0.0529
  111SAPE  H11A11483   4.345   6.128   2.904 -0.1401  0.5037  3.0268
  111SAPE  H11B11484   4.218   6.059   3.008 -2.2523 -1.6953 -0.8882
  111SAPE     P11485   4.051   6.278   2.950  0.0840 -0.0937 -0.2352
  111SAPE   O1311486   4.081   6.416   2.911  0.3518 -1.0456  0.3410
  111SAPE   O1411487   3.919   6.224   2.927  0.1239  0.0535 -0.5044
  111SAPE   O1211488   4.150   6.193   2.860  0.5014 -0.2298  0.2841
  111SAPE   O1111489   4.104   6.236   3.089 -0.3440  0.0564 -0.6336
  111SAPE    C111490   4.228   6.289   3.144 -0.2158  0.2650  0.5697
  111SAPE    HA11491   4.312   6.298   3.072 -0.7198  0.7250  0.0248
  111SAPE    HB11492   4.209   6.392   3.183 -2.0527 -1.0108  3.4272
  111SAPE    C211493   4.291   6.203   3.259  0.2328 -0.1116  0.6027
  111SAPE    HS11494   4.295   6.098   3.221  0.7579  0.4787 -1.0523
  111SAPE   O2111495   4.200   6.219   3.365 -0.0440 -0.1799 -0.0843
  111SAPE   C2111496   4.192   6.104   3.444 -0.4896 -0.0043  0.1627
  111SAPE   O2211497   4.249   5.995   3.426  0.2384  0.2050  0.1618
  111SAPE   C2211498   4.091   6.129   3.557 -0.1520 -1.1081  0.3849
  111SAPE   H2R11499   4.085   6.237   3.581  1.7792 -0.4138 -1.8764
  111SAPE   H2S11500   3.998   6.092   3.509 -0.1929  1.1917 -1.4971
  111SAPE    C311501   4.438   6.256   3.289  0.1870 -0.4310  0.4211
  111SAPE    HX11502   4.415   6.361   3.319 -2.9341 -0.5393 -1.2410
  111SAPE    HY11503   4.503   6.259   3.199 -0.6997  1.7868 -0.2120
  111SAPE   O3111504   4.500   6.188   3.404  0.2353 -0.0909 -0.1657
  111SAPE   C3111505   4.568   6.076   3.376  0.2195 -1.0877  0.3999
  111SAPE   O3211506   4.579   6.026   3.267 -0.1193 -0.1916 -0.4310
  111SAPE   C3211507   4.631   6.021   3.504  0.4882 -0.0151  0.1994
  111SAPE   H2X11508   4.729   6.072   3.504 -0.7790  2.5878  0.2005
  111SAPE   H2Y11509   4.652   5.913   3.489  1.1741 -0.2464  2.4393
  111SAPE   C2311510   4.123   6.054   3.685  0.0253  0.2376  0.2837
  111SAPE   H3R11511   4.206   6.096   3.746 -0.0629  0.2612  0.3878
  111SAPE   H3S11512   4.151   5.952   3.650  0.4036  0.0015  1.2404
  111SAPE   C2411513   4.010   6.043   3.788  0.2889  0.3206 -0.1380
  111SAPE   H4R11514   4.057   5.991   3.874 -2.5690 -2.3834 -0.0229
  111SAPE   H4S11515   3.937   5.968   3.749  1.3089  0.3517 -2.2738
  111SAPE   C2511516   3.949   6.184   3.819  1.0983  0.2949  0.5504
  111SAPE   H5R11517   3.909   6.235   3.730 -2.0491 -0.1328  1.5864
  111SAPE   C2611518   3.938   6.232   3.940 -0.3705 -0.2436 -0.2683
  111SAPE   H6R11519   3.901   6.336   3.947 -2.6162 -0.9836 -0.4425
  111SAPE   C2711520   3.990   6.171   4.070 -0.1740 -0.6504 -0.1198
  111SAPE   H7R11521   4.101   6.184   4.075 -0.1961 -0.6716  0.5124
  111SAPE   H7S11522   3.965   6.063   4.059 -0.8096 -0.4502 -0.6556
  111SAPE   C2811523   3.920   6.234   4.185  0.9594 -0.7361  0.1763
  111SAPE   H8R11524   3.831   6.294   4.162  0.2785 -1.4895  0.7931
  111SAPE   C2911525   3.952   6.222   4.314  0.4594 -0.4716 -0.2556
  111SAPE   H9R11526   3.899   6.275   4.394  0.4886 -1.4918  0.4503
  111SAPE  C21011527   4.059   6.138   4.369  0.2381 -0.1111  0.1257
  111SAPE  H10R11528   4.128   6.097   4.293  1.5180  0.9404  0.6659
  111SAPE  H10S11529   4.027   6.050   4.430 -0.1670 -1.3701 -1.8325
  111SAPE  C21111530   4.145   6.232   4.455  0.3693 -0.1407  0.3297
  111SAPE  H11R11531   4.225   6.280   4.396  0.9684 -2.5921 -1.0268
  111SAPE  C21211532   4.143   6.239   4.593  0.3786  0.1021 -0.0928
  111SAPE  H12R11533   4.217   6.304   4.642  0.4962 -0.2460  0.1958
  111SAPE  C21311534   4.049   6.155   4.681 -0.5927  0.0097  0.6918
  111SAPE  H13R11535   4.114   6.095   4.749  0.0623 -0.8745 -0.6612
  111SAPE  H13S11536   3.997   6.072   4.628 -1.8922 -0.1822  2.2119
  111SAPE  C21411537   3.943   6.238   4.743 -0.4352 -0.1349  0.4569
  111SAPE  H14R11538   3.918   6.323   4.678 -1.6395 -0.4142  0.5294
  111SAPE  C21511539   3.879   6.221   4.862  0.5616 -0.5695  0.3848
  111SAPE  H15R11540   3.807   6.296   4.896  1.7777 -0.0091  1.8663
  111SAPE  C21611541   3.882   6.102   4.949 -0.2142  0.4855 -0.4958
  111SAPE  H16R11542   3.949   6.024   4.906  1.9397 -0.1104  3.4929
  111SAPE  H16S11543   3.784   6.054   4.971  0.4279 -0.2691  0.8765
  111SAPE  C21711544   3.955   6.144   5.080 -0.4710 -0.2488 -0.2416
  111SAPE  H17R11545   3.927   6.064   5.151 -2.0063 -1.3884 -2.0012
  111SAPE  H17S11546   3.911   6.240   5.116  1.0530  0.1871  0.5240
  111SAPE  C21811547   4.110   6.160   5.080 -0.7357 -0.5566 -0.1314
  111SAPE  H18R11548   4.147   6.245   5.019 -2.7303  0.9408  0.6394
  111SAPE  H18S11549   4.169   6.069   5.058 -1.1363 -0.7529 -0.4163
  111SAPE  C21911550   4.157   6.206   5.225 -0.0306 -0.1856 -0.6279
  111SAPE  H19R11551   4.143   6.117   5.291 -3.4529 -1.5837 -2.9358
  111SAPE  H19S11552   4.093   6.280   5.276  1.0306 -0.4503  1.1918
  111SAPE  C22011553   4.301   6.267   5.240  0.3257 -0.6312  0.5158
  111SAPE  H20R11554   4.326   6.276   5.348  2.2276  0.5262  0.0297
  111SAPE  H20S11555   4.304   6.363   5.184 -0.5910 -0.4853  0.7148
  111SAPE  H20T11556   4.376   6.203   5.189  1.7071 -0.4428  2.2163
  111SAPE   C3311557   4.556   6.055   3.636  0.6078  0.2502 -0.3680
  111SAPE   H3X11558   4.450   6.033   3.611  1.0058 -1.7868 -0.4191
  111SAPE   H3Y11559   4.565   6.163   3.660  0.2376 -0.1982  2.0542
  111SAPE   C3411560   4.604   5.976   3.764  0.2889  0.7173  0.2729
  111SAPE   H4X11561   4.535   5.889   3.767  0.1746  0.7267 -1.1224
  111SAPE   H4Y11562   4.602   6.049   3.848  0.3068 -0.5771  1.4281
  111SAPE   C3511563   4.749   5.931   3.754  0.2862  0.4048 -0.1459
  111SAPE   H5X11564   4.812   6.012   3.712  3.0487 -1.3937  0.2473
  111SAPE   H5Y11565   4.765   5.838   3.695  1.3430 -0.9489  2.1366
  111SAPE   C3611566   4.795   5.895   3.902  0.5717 -0.2844  0.2550
  111SAPE   H6X11567   4.741   5.802   3.930 -0.2579 -0.4711 -1.8020
  111SAPE   H6Y11568   4.759   5.976   3.968 -1.9449 -1.2332  0.1655
  111SAPE   C3711569   4.949   5.887   3.918 -0.9289 -0.0244  0.0436
  111SAPE   H7X11570   4.998   5.987   3.915 -1.1241  0.1069  0.9257
  111SAPE   H7Y11571   4.986   5.822   3.837  0.9007 -3.3792  3.2855
  111SAPE   C3811572   4.990   5.831   4.051  0.7637 -0.1507  0.0397
  111SAPE   H8X11573   5.094   5.791   4.053  1.4785  1.6729  1.2233
  111SAPE   H8Y11574   4.933   5.736   4.055  0.8065 -0.1377  1.1737
  111SAPE   C3911575   4.961   5.922   4.170 -0.1584 -0.2279 -0.8831
  111SAPE   H9X11576   4.853   5.950   4.164 -0.3153 -0.4098  0.6300
  111SAPE   H9Y11577   5.019   6.016   4.159 -0.8652  0.3760  0.2943
  111SAPE  C31011578   5.002   5.872   4.308 -0.2287  0.6499 -0.3206
  111SAPE  H10X11579   5.091   5.806   4.296 -0.9261 -0.4308  0.3595
  111SAPE  H10Y11580   4.923   5.800   4.338 -0.2649  0.7868 -0.0893
  111SAPE  C31111581   5.017   5.970   4.418 -0.5083  0.0873 -0.1927
  111SAPE  H11X11582   4.917   6.019   4.420 -0.6466 -0.1419 -1.0610
  111SAPE  H11Y11583   5.085   6.056   4.403 -0.4753  0.3398  1.2672
  111SAPE  C31211584   5.040   5.909   4.553 -0.2928  0.0551  0.3431
  111SAPE  H12X11585   5.125   5.838   4.539  0.3595  0.5640  1.5139
  111SAPE  H12Y11586   4.957   5.840   4.578  0.6437 -1.0919  0.3828
  111SAPE  C31311587   5.058   6.013   4.670 -0.1239 -0.2110 -0.1690
  111SAPE  H13X11588   4.964   6.071   4.675 -0.2811 -0.4192 -0.6749
  111SAPE  H13Y11589   5.158   6.059   4.654 -0.0680 -0.6566 -1.1447
  111SAPE  C31411590   5.089   5.946   4.806  0.5296 -0.1934 -0.7587
  111SAPE  H14X11591   5.124   6.026   4.874  2.1779 -2.7965  1.6973
  111SAPE  H14Y11592   5.179   5.880   4.804  2.8310  2.6238  1.6097
  111SAPE  C31511593   4.976   5.868   4.870  0.2947 -0.3411  0.0496
  111SAPE  H15X11594   4.945   5.785   4.803  0.5880  1.8400 -3.0104
  111SAPE  H15Y11595   4.890   5.938   4.884  0.3878 -0.2510  0.1705
  111SAPE  C31611596   4.995   5.828   5.016  0.1152  0.3971  0.0358
  111SAPE  H16X11597   4.997   5.923   5.072 -2.3036 -0.7154  2.1915
  111SAPE  H16Y11598   5.085   5.763   5.025 -1.1831 -2.0438 -2.6784
  111SAPE  C31711599   4.878   5.748   5.065 -0.9976  0.0316 -0.3840
  111SAPE  H17X11600   4.875   5.648   5.017  0.8298 -1.1214  1.6905
  111SAPE  H17Y11601   4.781   5.786   5.027 -0.7681  0.4025 -0.6051
  111SAPE  C31811602   4.877   5.714   5.216 -1.4601 -0.5776 -0.3596
  111SAPE  H18X11603   4.807   5.631   5.240 -0.2304 -1.4913  0.1913
  111SAPE  H18Y11604   4.854   5.804   5.277  0.6809  0.8730 -1.5790
  111SAPE  H18Z11605   4.979   5.678   5.242 -1.0002 -0.7526 -2.2539
  112SAPE     N11606   2.597   2.185   3.242 -0.3306  0.1181  0.5345
  112SAPE   HN111607   2.511   2.173   3.183 -1.2481 -1.4116  2.0865
  112SAPE   HN211608   2.589   2.271   3.301  2.9445  2.3377 -1.8985
  112SAPE   HN311609   2.673   2.206   3.175  0.1187 -3.2444 -0.1828
  112SAPE   C1211610   2.648   2.076   3.335 -0.1175 -0.1456  0.8903
  112SAPE  H12A11611   2.706   2.013   3.264 -0.7902 -0.3930  0.5508
  112SAPE  H12B11612   2.561   2.017   3.370 -1.0108 -0.1732 -1.2366
  112SAPE   C1111613   2.737   2.129   3.444 -0.6702  0.4793  0.0923
  112SAPE  H11A11614   2.755   2.042   3.510 -0.7734 -1.1813 -1.9761
  112SAPE  H11B11615   2.696   2.219   3.495 -1.0521 -0.5332  1.6513
  112SAPE     P11616   2.961   2.259   3.448  0.4107 -0.0288  0.1883
  112SAPE   O1311617   3.086   2.188   3.473  0.3539  0.4322  0.1505
  112SAPE   O1411618   2.974   2.382   3.364  0.0543  0.0808 -0.8802
  112SAPE   O1211619   2.863   2.157   3.377  0.1847  0.0925 -0.2802
  112SAPE   O1111620   2.893   2.299   3.587 -0.0864  0.2554  0.2072
  112SAPE    C111621   2.956   2.373   3.689 -0.2732  0.8156 -0.5340
  112SAPE    HA11622   3.021   2.306   3.748  1.1558  1.9722 -0.7503
  112SAPE    HB11623   3.023   2.454   3.654  0.4792  1.6226  2.4751
  112SAPE    C211624   2.843   2.445   3.767 -0.1202  0.4357  0.0978
  112SAPE    HS11625   2.894   2.536   3.804  1.4260 -0.7869  1.1371
  112SAPE   O2111626   2.798   2.360   3.879  0.3204  0.4586  0.7503
  112SAPE   C2111627   2.875   2.360   3.984 -0.3335 -0.0751 -0.0243
  112SAPE   O2211628   2.986   2.412   3.986  0.1196  0.4000  0.2140
  112SAPE   C2211629   2.802   2.289   4.112 -0.3904  0.8647 -0.0553
  112SAPE   H2R11630   2.697   2.324   4.114  0.1605  2.6587 -0.9799
  112SAPE   H2S11631   2.816   2.179   4.103  1.7138  1.2968 -3.4201
  112SAPE    C311632   2.723   2.498   3.684  0.2295 -0.0783 -0.3082
  112SAPE    HX11633   2.690   2.411   3.624  1.0345  0.6575 -1.8848
  112SAPE    HY11634   2.770   2.574   3.617 -1.1198  1.2853  0.2153
  112SAPE   O3111635   2.626   2.571   3.764 -0.3177  0.9551  1.0495
  112SAPE   C3111636   2.500   2.532   3.746  0.9351 -0.0565 -1.0331
  112SAPE   O3211637   2.466   2.446   3.667 -0.4504  0.0654 -0.5973
  112SAPE   C3211638   2.408   2.607   3.838 -0.3492 -0.1070 -0.0849
  112SAPE   H2X11639   2.343   2.672   3.775 -0.2215  0.3658  0.2696
  112SAPE   H2Y11640   2.477   2.668   3.900  1.2667 -0.0387 -1.8356
  112SAPE   C2311641   2.872   2.341   4.240 -1.2081 -0.0588 -0.7059
  112SAPE   H3R11642   2.874   2.452   4.244 -0.3059 -0.0653  3.1678
  112SAPE   H3S11643   2.980   2.318   4.250 -0.7470  1.9525 -0.6865
  112SAPE   C2411644   2.790   2.294   4.356 -0.4497  0.5246  0.2956
  112SAPE   H4R11645   2.689   2.337   4.340 -0.3702  1.8855  2.8996
  112SAPE   H4S11646   2.833   2.342   4.447  1.9964 -0.4324 -0.2828
  112SAPE   C2511647   2.791   2.148   4.376  0.1630  0.0937  0.0252
  112SAPE   H5R11648   2.777   2.082   4.289  2.3990 -0.0481 -0.3065
  112SAPE   C2611649   2.820   2.096   4.492 -0.6166  0.3403  0.2488
  112SAPE   H6R11650   2.829   1.987   4.496  1.4168  0.5002  1.2317
  112SAPE   C2711651   2.859   2.161   4.623  0.3250 -0.5847  0.1856
  112SAPE   H7R11652   2.844   2.083   4.700  1.0011  1.1756  2.2064
  112SAPE   H7S11653   2.780   2.237   4.644 -1.0901 -1.5418 -1.4722
  112SAPE   C2811654   2.996   2.229   4.631  0.0405 -0.2852 -0.1872
  112SAPE   H8R11655   3.022   2.305   4.555  0.5122  1.0872  1.2929
  112SAPE   C2911656   3.088   2.198   4.720 -1.3286 -0.2060 -0.2058
  112SAPE   H9R11657   3.181   2.256   4.727 -2.0920  0.8294  3.1962
  112SAPE  C21011658   3.072   2.103   4.840 -0.5050 -0.5884 -0.3405
  112SAPE  H10R11659   2.979   2.043   4.832 -1.2779  0.7478 -2.1373
  112SAPE  H10S11660   3.074   2.161   4.935  0.0937 -1.1904  0.0188
  112SAPE  C21111661   3.185   2.005   4.829  0.1334  0.4486 -0.0089
  112SAPE  H11R11662   3.206   1.965   4.728 -0.2071  1.4388 -0.4839
  112SAPE  C21211663   3.251   1.944   4.928  0.1667 -0.3742  0.6004
  112SAPE  H12R11664   3.336   1.879   4.903  0.1667 -0.1988  0.1386
  112SAPE  C21311665   3.252   1.950   5.078 -0.0598  0.4020 -0.2362
  112SAPE  H13R11666   3.203   1.858   5.116 -1.4391  0.0838 -2.5545
  112SAPE  H13S11667   3.187   2.031   5.116  0.8684  1.5914 -1.1197
  112SAPE  C21411668   3.379   1.977   5.157 -0.0579 -0.7358  0.3497
  112SAPE  H14R11669   3.443   2.056   5.115 -2.2457  1.6195  1.1832
  112SAPE  C21511670   3.395   1.953   5.282 -0.5064 -0.4831  0.0547
  112SAPE  H15R11671   3.492   1.982   5.326 -0.3122 -1.1670  0.0910
  112SAPE  C21611672   3.315   1.862   5.367  0.9884 -0.0441  0.1595
  112SAPE  H16R11673   3.210   1.861   5.331  0.9891  0.9311  0.1134
  112SAPE  H16S11674   3.310   1.898   5.472 -1.1724  1.2429 -0.3267
  112SAPE  C21711675   3.358   1.717   5.397 -0.2854  0.3333  0.3062
  112SAPE  H17R11676   3.454   1.733   5.450 -0.1274 -0.1535  0.1702
  112SAPE  H17S11677   3.361   1.653   5.306  0.2869 -0.1631  0.6651
  112SAPE  C21811678   3.270   1.637   5.494 -0.4235 -0.4714  0.1528
  112SAPE  H18R11679   3.176   1.611   5.440 -0.8358  0.3611  0.4503
  112SAPE  H18S11680   3.253   1.709   5.577  3.6577  2.0477 -0.8904
  112SAPE  C21911681   3.334   1.514   5.557 -0.4271 -0.2471  0.2807
  112SAPE  H19R11682   3.311   1.432   5.486  0.2494  0.5552 -0.8937
  112SAPE  H19S11683   3.285   1.481   5.652 -1.2251  1.3242  0.4491
  112SAPE  C22011684   3.487   1.515   5.571 -0.1413  0.1927 -0.4249
  112SAPE  H20R11685   3.533   1.548   5.475  0.7504  0.7194  0.1685
  112SAPE  H20S11686   3.531   1.414   5.582  1.3710  0.9773  1.3670
  112SAPE  H20T11687   3.531   1.588   5.642  2.5058 -0.4622 -1.2949
  112SAPE   C3311688   2.317   2.519   3.926 -1.0789 -0.1390  0.2468
  112SAPE   H3X11689   2.260   2.436   3.878 -3.2289 -0.0895  2.4613
  112SAPE   H3Y11690   2.237   2.583   3.969 -0.3198  0.6415  0.5018
  112SAPE   C3411691   2.397   2.465   4.035  0.0906  0.3750 -0.1671
  112SAPE   H4X11692   2.432   2.535   4.114  2.6119  0.0683 -0.9408
  112SAPE   H4Y11693   2.481   2.406   3.993 -0.4260  0.5975 -1.5738
  112SAPE   C3511694   2.306   2.359   4.104  0.2367 -0.6601  0.1983
  112SAPE   H5X11695   2.285   2.271   4.040  0.7992 -1.4216  1.0315
  112SAPE   H5Y11696   2.209   2.406   4.128  0.0680 -0.7119 -0.3632
  112SAPE   C3611697   2.375   2.288   4.222  0.1241  0.0389  0.0309
  112SAPE   H6X11698   2.485   2.283   4.207  0.0082  1.1416 -1.4174
  112SAPE   H6Y11699   2.329   2.187   4.228 -0.5489  0.1439 -2.2701
  112SAPE   C3711700   2.352   2.361   4.357  0.1933 -0.2644 -0.7067
  112SAPE   H7X11701   2.245   2.383   4.371 -0.8191 -2.9515 -3.0980
  112SAPE   H7Y11702   2.393   2.464   4.347 -1.4510  0.2755 -2.4003
  112SAPE   C3811703   2.394   2.280   4.485 -0.0118 -0.3293 -0.7111
  112SAPE   H8X11704   2.490   2.233   4.455 -0.0128 -1.1680  0.5133
  112SAPE   H8Y11705   2.329   2.195   4.516 -0.2002  1.4048  4.5780
  112SAPE   C3911706   2.413   2.366   4.617 -0.4842 -0.0223  0.1650
  112SAPE   H9X11707   2.317   2.406   4.657  1.4342  2.5957  2.5110
  112SAPE   H9Y11708   2.483   2.442   4.576 -1.4192 -1.0062 -3.6564
  112SAPE  C31011709   2.475   2.279   4.732  0.0080 -0.5784 -0.0907
  112SAPE  H10X11710   2.574   2.243   4.698 -0.1238 -1.3413  0.2942
  112SAPE  H10Y11711   2.416   2.186   4.751 -1.1034  0.4714  1.9164
  112SAPE  C31111712   2.487   2.352   4.865  0.3643  0.2334 -0.5319
  112SAPE  H11X11713   2.526   2.453   4.840 -1.7592  0.6868 -2.2979
  112SAPE  H11Y11714   2.543   2.287   4.935 -0.1298 -0.4871 -0.7958
  112SAPE  C31211715   2.358   2.359   4.944 -0.5482 -0.8253 -0.1744
  112SAPE  H12X11716   2.320   2.254   4.937 -0.2179 -0.9580  0.0105
  112SAPE  H12Y11717   2.281   2.428   4.906  0.1933  0.7931  1.1474
  112SAPE  C31311718   2.377   2.378   5.098 -0.7000  0.1322  0.0668
  112SAPE  H13X11719   2.433   2.290   5.134 -0.3603  1.3880  2.8428
  112SAPE  H13Y11720   2.280   2.388   5.152 -1.2421  0.1420 -0.8771
  112SAPE  C31411721   2.462   2.497   5.133  0.0131 -0.2235 -0.1403
  112SAPE  H14X11722   2.407   2.582   5.087 -1.8634  0.3177  2.8240
  112SAPE  H14Y11723   2.563   2.498   5.087  0.3224  1.3397  0.4749
  112SAPE  C31511724   2.464   2.535   5.284  0.0763 -0.2331 -0.5740
  112SAPE  H15X11725   2.556   2.481   5.315  0.9959  0.8054 -1.4019
  112SAPE  H15Y11726   2.373   2.509   5.341  1.7736 -0.0392  2.4398
  112SAPE  C31611727   2.494   2.681   5.308  1.1468  0.2325 -0.3430
  112SAPE  H16X11728   2.424   2.725   5.234 -1.4184 -4.1791 -0.8866
  112SAPE  H16Y11729   2.597   2.697   5.269  1.3838 -1.2878 -0.3719
  112SAPE  C31711730   2.462   2.741   5.442  0.8251 -0.1402  0.3069
  112SAPE  H17X11731   2.507   2.689   5.528 -1.1682 -0.7003  1.0673
  112SAPE  H17Y11732   2.351   2.740   5.454  0.3644 -1.5442 -2.9638
  112SAPE  C31811733   2.488   2.889   5.457 -0.2882  0.7521  0.6390
  112SAPE  H18X11734   2.596   2.901   5.434 -0.3661 -2.1877 -2.0863
  112SAPE  H18Y11735   2.459   2.940   5.551 -0.1359  0.3874  0.8866
  112SAPE  H18Z11736   2.441   2.944   5.373  0.9992 -0.5569 -1.0341
  113SAPE     N11737   2.360   6.474   3.079 -0.6035 -1.0354 -0.4329
  113SAPE   HN111738   2.456   6.490   3.117 -0.3273 -3.0453 -0.1715
  113SAPE   HN211739   2.382   6.412   2.998 -1.3707  1.3562 -2.6446
  113SAPE   HN311740   2.340   6.568   3.039  2.0085 -0.3455 -0.3170
  113SAPE   C1211741   2.252   6.417   3.168  0.2592  0.3186 -0.1562
  113SAPE  H12A11742   2.229   6.495   3.244  1.4229 -0.8534  1.4477
  113SAPE  H12B11743   2.302   6.333   3.220  0.4925  1.1413  0.9773
  113SAPE   C1111744   2.132   6.371   3.090  0.9233 -0.0477  1.1193
  113SAPE  H11A11745   2.075   6.456   3.047 -0.9423 -2.0613 -0.5972
  113SAPE  H11B11746   2.066   6.328   3.167 -0.4180 -0.6327 -0.3241
  113SAPE     P11747   2.144   6.125   3.025 -0.1670  0.0856  0.1448
  113SAPE   O1311748   2.002   6.098   3.012 -0.0033  0.0554  0.1796
  113SAPE   O1411749   2.240   6.033   2.953 -0.2011 -0.8712  0.3900
  113SAPE   O1211750   2.164   6.277   2.983 -0.2453  0.0726  0.1490
  113SAPE   O1111751   2.183   6.121   3.178  0.0990 -0.2217 -0.0935
  113SAPE    C111752   2.147   6.022   3.270 -0.2675  0.0345  0.6015
  113SAPE    HA11753   2.132   5.928   3.213  0.4817  0.6551 -0.6819
  113SAPE    HB11754   2.237   5.996   3.329  0.1638 -1.4808 -0.6399
  113SAPE    C211755   2.017   6.064   3.352 -0.0701  0.2105  0.1254
  113SAPE    HS11756   1.924   6.065   3.291 -0.9460 -0.0781  1.4139
  113SAPE   O2111757   2.035   6.192   3.410  0.1876 -0.0081 -0.2070
  113SAPE   C2111758   1.925   6.261   3.429 -0.8053 -0.3370 -0.1572
  113SAPE   O2211759   1.814   6.228   3.403  1.0573  0.0026 -0.2951
  113SAPE   C2211760   1.963   6.400   3.472  0.6632  0.0947 -0.3956
  113SAPE   H2R11761   2.029   6.450   3.399  1.9226  1.3106  1.4893
  113SAPE   H2S11762   1.872   6.459   3.496  0.4859 -0.5259  0.5259
  113SAPE    C311763   2.002   5.961   3.473  0.2394  0.5228 -0.3363
  113SAPE    HX11764   2.099   5.967   3.527 -0.9810  0.9210  1.9429
  113SAPE    HY11765   1.986   5.856   3.439  2.1305 -0.5777  1.8754
  113SAPE   O3111766   1.896   6.004   3.568  0.1815  0.2806  0.4181
  113SAPE   C3111767   1.773   5.971   3.543 -0.5780  0.3579 -0.5106
  113SAPE   O3211768   1.734   5.892   3.459 -0.6221 -0.0961 -0.1470
  113SAPE   C3211769   1.683   6.021   3.654 -0.0216  0.1667 -0.7807
  113SAPE   H2X11770   1.581   6.046   3.616 -1.0147 -1.1335  0.8960
  113SAPE   H2Y11771   1.731   6.117   3.681 -1.9926  1.0938 -0.4352
  113SAPE   C2311772   2.041   6.394   3.608 -0.1505 -0.3170  0.3057
  113SAPE   H3R11773   2.088   6.493   3.622 -0.3937  0.2915 -2.6437
  113SAPE   H3S11774   2.123   6.319   3.604 -0.7235 -0.9740  0.5819
  113SAPE   C2411775   1.946   6.374   3.730  0.3388  0.3366 -0.0807
  113SAPE   H4R11776   1.869   6.297   3.710 -1.2012  1.4865  1.1698
  113SAPE   H4S11777   1.889   6.468   3.744  1.0122  0.6601  0.5587
  113SAPE   C2511778   2.011   6.340   3.860 -0.2891  0.5557  0.1134
  113SAPE   H5R11779   2.113   6.302   3.852  0.7771  2.9563  1.1523
  113SAPE   C2611780   1.959   6.350   3.984  0.3066 -0.1089  0.9495
  113SAPE   H6R11781   2.029   6.333   4.067 -1.6761 -0.7006  2.5780
  113SAPE   C2711782   1.825   6.385   4.032  0.0570 -0.4158 -0.0590
  113SAPE   H7R11783   1.780   6.451   3.954  1.0276  0.4573  0.1034
  113SAPE   H7S11784   1.833   6.449   4.122  1.0808  1.6776 -1.5460
  113SAPE   C2811785   1.733   6.265   4.063  0.1456  0.6624  0.1124
  113SAPE   H8R11786   1.746   6.179   3.996  0.0396  1.2535 -0.6934
  113SAPE   C2911787   1.666   6.250   4.182  0.2567  0.3066 -1.5883
  113SAPE   H9R11788   1.604   6.162   4.204  0.0688  1.0330  1.1202
  113SAPE  C21011789   1.667   6.348   4.301  0.0112  0.0266  0.2724
  113SAPE  H10R11790   1.567   6.328   4.347 -0.4918 -0.6191 -1.0514
  113SAPE  H10S11791   1.673   6.454   4.269  0.1444 -0.4612 -1.3926
  113SAPE  C21111792   1.781   6.324   4.388 -0.7396  0.2016  0.0294
  113SAPE  H11R11793   1.876   6.288   4.343  0.9345 -0.6585  3.8754
  113SAPE  C21211794   1.777   6.341   4.523  0.0643 -0.2577 -0.3496
  113SAPE  H12R11795   1.865   6.305   4.577  0.0382  0.2707  0.0605
  113SAPE  C21311796   1.662   6.407   4.596  0.7993  0.3515 -0.2492
  113SAPE  H13R11797   1.578   6.335   4.606  0.1295  1.4089  3.8066
  113SAPE  H13S11798   1.609   6.490   4.543 -0.8504  0.2101  1.0903
  113SAPE  C21411799   1.707   6.460   4.726 -0.3581  0.4035  0.1058
  113SAPE  H14R11800   1.775   6.545   4.710 -2.0406  1.5761 -1.1082
  113SAPE  C21511801   1.675   6.421   4.851 -0.3273  0.1348 -0.1406
  113SAPE  H15R11802   1.723   6.470   4.937 -2.3959  0.7591  0.7237
  113SAPE  C21611803   1.582   6.308   4.881  0.0303 -1.4923 -0.2038
  113SAPE  H16R11804   1.514   6.289   4.795  1.3957 -0.7720 -1.4742
  113SAPE  H16S11805   1.513   6.350   4.957  0.5373 -2.2598  0.7131
  113SAPE  C21711806   1.644   6.174   4.926  0.3936 -0.6405 -0.7129
  113SAPE  H17R11807   1.553   6.111   4.940 -1.5189  1.8828 -0.8918
  113SAPE  H17S11808   1.694   6.191   5.024 -0.6927 -0.5466 -0.1506
  113SAPE  C21811809   1.733   6.119   4.818  0.0620 -0.1379 -1.1307
  113SAPE  H18R11810   1.813   6.190   4.789 -1.0389  0.0704 -4.0643
  113SAPE  H18S11811   1.672   6.101   4.727  0.3868 -0.1451 -1.3476
  113SAPE  C21911812   1.790   5.983   4.862  0.1146  0.8675  0.0139
  113SAPE  H19R11813   1.844   5.940   4.775 -1.0417  0.0352 -0.3108
  113SAPE  H19S11814   1.698   5.927   4.890  1.1024 -0.3466  0.8934
  113SAPE  C22011815   1.888   5.972   4.979  0.0356 -0.2306  0.3830
  113SAPE  H20R11816   1.825   5.952   5.068  1.4409 -1.7562  1.0966
  113SAPE  H20S11817   1.954   6.061   4.984  0.1588 -0.3887  3.1020
  113SAPE  H20T11818   1.947   5.878   4.981 -1.5092 -1.2427  0.0100
  113SAPE   C3311819   1.668   5.926   3.772 -0.3584 -0.5915 -0.4437
  113SAPE   H3X11820   1.606   5.979   3.848  0.1865 -0.8750  0.2069
  113SAPE   H3Y11821   1.766   5.904   3.820 -1.0342  0.2127  1.4046
  113SAPE   C3411822   1.596   5.790   3.747  0.3149 -0.3370  0.2384
  113SAPE   H4X11823   1.674   5.714   3.729  1.1078 -0.0481  2.2472
  113SAPE   H4Y11824   1.530   5.792   3.657 -0.9030 -1.3302  1.0727
  113SAPE   C3511825   1.513   5.743   3.868  0.0151  0.0608 -0.2290
  113SAPE   H5X11826   1.452   5.653   3.849  1.4397 -1.0989  0.4834
  113SAPE   H5Y11827   1.454   5.833   3.896  0.4715  0.6108 -0.9680
  113SAPE   C3611828   1.600   5.699   3.993  0.3363 -0.1030 -0.1599
  113SAPE   H6X11829   1.653   5.790   4.030 -0.4858  0.5056 -0.4439
  113SAPE   H6Y11830   1.683   5.633   3.961  0.6283 -0.0777  0.5435
  113SAPE   C3711831   1.519   5.627   4.104 -0.1985 -0.2202  0.8889
  113SAPE   H7X11832   1.590   5.588   4.179 -1.9947 -0.5787  2.4928
  113SAPE   H7Y11833   1.469   5.543   4.050  0.1342  1.1512 -1.7095
  113SAPE   C3811834   1.401   5.695   4.176 -0.2539 -0.1523  0.8549
  113SAPE   H8X11835   1.443   5.780   4.233 -0.1827 -0.6662  1.5819
  113SAPE   H8Y11836   1.322   5.734   4.108  1.2260 -2.0818 -2.1793
  113SAPE   C3911837   1.344   5.613   4.292  0.7442 -0.8822 -0.3045
  113SAPE   H9X11838   1.431   5.617   4.361 -0.7445 -1.0479  1.6295
  113SAPE   H9Y11839   1.336   5.507   4.260  1.8332 -0.5399 -1.8759
  113SAPE  C31011840   1.227   5.687   4.362  0.1286 -0.3053 -0.2837
  113SAPE  H10X11841   1.158   5.708   4.277  0.4565 -0.7334 -0.6644
  113SAPE  H10Y11842   1.251   5.787   4.404 -1.2717  0.1758 -0.5565
  113SAPE  C31111843   1.176   5.597   4.471  0.6704  0.8510  0.2050
  113SAPE  H11X11844   1.172   5.492   4.434 -0.2429  0.5918  1.0059
  113SAPE  H11Y11845   1.072   5.616   4.505  1.1188 -0.4931  2.5897
  113SAPE  C31211846   1.261   5.610   4.601  0.3250  0.1765  0.6697
  113SAPE  H12X11847   1.287   5.714   4.628 -0.3949  1.2293 -2.2668
  113SAPE  H12Y11848   1.358   5.560   4.582  0.6841  0.3846  1.8799
  113SAPE  C31311849   1.191   5.540   4.710  0.4600  0.2220 -0.4791
  113SAPE  H13X11850   1.123   5.461   4.670 -2.4218  2.0421  0.5234
  113SAPE  H13Y11851   1.139   5.622   4.762  1.0835 -0.9976  2.2135
  113SAPE  C31411852   1.295   5.463   4.797  0.3188  0.0837 -0.2066
  113SAPE  H14X11853   1.371   5.532   4.837  1.4978  0.4551 -2.8380
  113SAPE  H14Y11854   1.338   5.378   4.739  2.1429 -1.2442  2.8259
  113SAPE  C31511855   1.213   5.404   4.915  0.2745  0.2903 -0.3536
  113SAPE  H15X11856   1.156   5.313   4.888 -0.1072 -0.1728  1.7971
  113SAPE  H15Y11857   1.143   5.485   4.946  1.9258  1.5641  0.1706
  113SAPE  C31611858   1.298   5.371   5.046 -0.4957 -0.1235  0.6205
  113SAPE  H16X11859   1.228   5.342   5.126 -1.9061 -0.3096 -0.6399
  113SAPE  H16Y11860   1.352   5.466   5.070 -2.1246  1.5453 -1.7686
  113SAPE  C31711861   1.399   5.254   5.036 -0.6452  0.4726  0.5430
  113SAPE  H17X11862   1.482   5.282   4.967  1.1608  1.2485  2.8932
  113SAPE  H17Y11863   1.347   5.162   5.003  0.1471  0.8345 -1.9529
  113SAPE  C31811864   1.470   5.224   5.169  0.0273 -0.3779  0.6719
  113SAPE  H18X11865   1.529   5.130   5.179 -0.2909 -0.4962  1.4721
  113SAPE  H18Y11866   1.389   5.203   5.241  0.8855 -1.7783  1.2654
  113SAPE  H18Z11867   1.542   5.306   5.194  1.3207 -1.1274 -0.4428
  114SAPE     N11868   3.498   3.935   3.248  0.1747  0.0589  0.1641
  114SAPE   HN111869   3.489   3.888   3.156 -1.1684  1.1809 -0.3190
  114SAPE   HN211870   3.528   3.871   3.324 -1.6462 -0.5277  0.4318
  114SAPE   HN311871   3.409   3.977   3.280  0.7762  0.9413  0.7485
  114SAPE   C1211872   3.595   4.051   3.222 -0.1440 -0.0566 -0.5476
  114SAPE  H12A11873   3.552   4.110   3.137 -0.6096  0.7422  0.2272
  114SAPE  H12B11874   3.693   4.012   3.187  0.6066  0.6095  0.7385
  114SAPE   C1111875   3.606   4.149   3.335  0.4088 -0.4931 -0.5705
  114SAPE  H11A11876   3.658   4.092   3.415 -0.1511  3.1093  2.6393
  114SAPE  H11B11877   3.510   4.183   3.378  0.4630 -2.0160  0.8593
  114SAPE     P11878   3.843   4.257   3.338 -0.5511 -0.0837  0.3335
  114SAPE   O1311879   3.896   4.118   3.354 -0.1511  0.1768 -0.9887
  114SAPE   O1411880   3.932   4.335   3.247  0.1004 -0.2411 -0.2052
  114SAPE   O1211881   3.696   4.252   3.295  0.2652  0.5165 -0.2828
  114SAPE   O1111882   3.823   4.328   3.479 -0.3616  0.3479  0.5156
  114SAPE    C111883   3.923   4.424   3.524  0.1363 -0.2296  0.9389
  114SAPE    HA11884   4.011   4.423   3.456  0.0125  2.5486  0.6080
  114SAPE    HB11885   3.884   4.528   3.515  0.3043 -0.3304 -3.4170
  114SAPE    C211886   3.973   4.391   3.663 -0.2745 -0.6879 -0.0301
  114SAPE    HS11887   4.030   4.296   3.647  0.3405 -0.6317  1.6571
  114SAPE   O2111888   3.869   4.367   3.759  0.0102 -0.3377 -0.5042
  114SAPE   C2111889   3.897   4.288   3.864 -0.2646 -0.2796  0.2821
  114SAPE   O2211890   4.002   4.224   3.876  0.3843  0.0694  0.5790
  114SAPE   C2211891   3.782   4.297   3.957  1.2666 -0.3713  0.3560
  114SAPE   H2R11892   3.700   4.230   3.922  1.0341  0.3867 -0.5710
  114SAPE   H2S11893   3.802   4.248   4.055  0.0477 -1.5073  0.0689
  114SAPE    C311894   4.070   4.508   3.720  0.4401  0.4905  0.2168
  114SAPE    HX11895   4.007   4.594   3.751  0.3142  0.3736  0.2875
  114SAPE    HY11896   4.144   4.542   3.645 -0.5491  1.5116 -0.3401
  114SAPE   O3111897   4.135   4.478   3.844 -0.1479  0.2243  0.4445
  114SAPE   C3111898   4.251   4.408   3.831 -0.2497 -0.3157 -0.1898
  114SAPE   O3211899   4.299   4.367   3.728  0.2156 -0.4891 -0.5920
  114SAPE   C3211900   4.311   4.387   3.974  0.0749  0.3659 -0.8099
  114SAPE   H2X11901   4.247   4.440   4.047 -0.0337 -2.4294  1.2539
  114SAPE   H2Y11902   4.414   4.429   3.975  0.8723 -1.5080 -0.7234
  114SAPE   C2311903   3.723   4.434   3.986 -0.4557 -0.4365  0.8788
  114SAPE   H3R11904   3.658   4.458   3.899 -0.0664 -1.7070  0.2162
  114SAPE   H3S11905   3.805   4.505   4.010 -2.3563  2.1710  0.1797
  114SAPE   C2411906   3.627   4.415   4.106  0.3950  0.1673 -0.3130
  114SAPE   H4R11907   3.650   4.317   4.151  0.0555  0.5324  0.7085
  114SAPE   H4S11908   3.522   4.413   4.068 -0.6806  0.9790  2.3544
  114SAPE   C2511909   3.634   4.528   4.203 -0.5971 -0.9851 -0.2578
  114SAPE   H5R11910   3.577   4.611   4.159 -2.1096 -2.6970 -1.7173
  114SAPE   C2611911   3.713   4.545   4.312  0.2245 -0.9092 -0.0841
  114SAPE   H6R11912   3.699   4.634   4.375 -0.4371 -0.5738 -0.6927
  114SAPE   C2711913   3.804   4.444   4.372  0.0601  0.7773 -0.1115
  114SAPE   H7R11914   3.753   4.366   4.433 -0.4746  3.2965  2.8945
  114SAPE   H7S11915   3.852   4.492   4.460  1.7680  2.6701 -1.9791
  114SAPE   C2811916   3.918   4.381   4.287  0.4673  0.3434 -0.0266
  114SAPE   H8R11917   3.894   4.387   4.180  0.1233  0.9127  0.0790
  114SAPE   C2911918   4.033   4.329   4.325 -0.1703 -0.4924  0.0505
  114SAPE   H9R11919   4.100   4.292   4.247  1.2076  2.0042 -0.0434
  114SAPE  C21011920   4.083   4.340   4.472  0.7418 -0.2519 -0.1641
  114SAPE  H10R11921   3.996   4.341   4.542  0.8776  1.1807 -0.0008
  114SAPE  H10S11922   4.128   4.437   4.501  0.2876 -0.3684  0.9793
  114SAPE  C21111923   4.171   4.225   4.498 -0.5320  0.2942 -0.3435
  114SAPE  H11R11924   4.235   4.203   4.411 -1.6818  3.3266 -2.1231
  114SAPE  C21211925   4.170   4.141   4.607  0.7235  0.4677 -0.0130
  114SAPE  H12R11926   4.239   4.056   4.604  1.2001  0.8101  0.9755
  114SAPE  C21311927   4.103   4.144   4.745 -0.1117  0.0032 -0.1485
  114SAPE  H13R11928   4.126   4.045   4.791  0.6120 -0.2770 -1.0860
  114SAPE  H13S11929   3.994   4.138   4.721  0.0372  0.7729 -1.0743
  114SAPE  C21411930   4.144   4.265   4.830  0.4214 -0.0160  0.1608
  114SAPE  H14R11931   4.159   4.364   4.785  0.4044  0.6939  1.6464
  114SAPE  C21511932   4.163   4.265   4.964 -0.0002  0.2458  0.3130
  114SAPE  H15R11933   4.183   4.362   5.011 -0.6949 -0.4297  2.0861
  114SAPE  C21611934   4.153   4.144   5.057  0.1143 -0.2108 -0.0946
  114SAPE  H16R11935   4.090   4.067   5.007 -1.6330  2.2972 -1.9900
  114SAPE  H16S11936   4.097   4.171   5.149 -1.0172 -2.2112 -0.1233
  114SAPE  C21711937   4.290   4.094   5.097 -0.5418 -0.3951  0.0483
  114SAPE  H17R11938   4.353   4.073   5.008  0.6143 -0.1447  0.7860
  114SAPE  H17S11939   4.268   3.997   5.148  2.7758  0.1955  3.0065
  114SAPE  C21811940   4.375   4.190   5.186 -0.0029  0.4520  0.0296
  114SAPE  H18R11941   4.315   4.218   5.276  0.3222 -0.2605  0.4804
  114SAPE  H18S11942   4.389   4.285   5.131  2.1239 -0.2288 -0.7028
  114SAPE  C21911943   4.517   4.132   5.226  0.3406  0.1687  0.3757
  114SAPE  H19R11944   4.593   4.211   5.236  2.6151 -1.9352  0.7418
  114SAPE  H19S11945   4.545   4.071   5.137 -0.3816  0.9895 -0.4232
  114SAPE  C22011946   4.500   4.037   5.342 -0.3236  0.4083 -0.0166
  114SAPE  H20R11947   4.513   4.098   5.434  1.5208 -0.1518  0.1390
  114SAPE  H20S11948   4.584   3.965   5.350 -0.6345  0.0506  0.0867
  114SAPE  H20T11949   4.402   3.985   5.350 -0.0003 -0.2641 -0.3043
  114SAPE   C3311950   4.332   4.237   4.009  0.6831  0.4355 -0.3965
  114SAPE   H3X11951   4.400   4.191   3.933  0.8981  0.9916 -0.5426
  114SAPE   H3Y11952   4.233   4.187   4.007  0.5057  0.7420  0.2622
  114SAPE   C3411953   4.408   4.217   4.144  0.3933 -0.4858  0.4147
  114SAPE   H4X11954   4.353   4.273   4.223 -2.2484 -1.6436 -0.4823
  114SAPE   H4Y11955   4.502   4.276   4.145 -0.2385  0.5880  2.4277
  114SAPE   C3511956   4.427   4.069   4.187  0.1178 -0.1168 -0.5020
  114SAPE   H5X11957   4.495   4.084   4.273 -2.4283  1.3807  1.3929
  114SAPE   H5Y11958   4.475   4.008   4.107  0.7367  1.3324 -1.2737
  114SAPE   C3611959   4.303   3.996   4.246 -0.0868 -0.2969 -0.5598
  114SAPE   H6X11960   4.271   3.931   4.162 -0.1647  0.2538 -0.9593
  114SAPE   H6Y11961   4.220   4.069   4.256 -0.2566 -0.4844 -0.6006
  114SAPE   C3711962   4.336   3.913   4.359 -0.1127  0.0487 -0.3949
  114SAPE   H7X11963   4.384   3.964   4.445  2.7242 -3.0781  0.0886
  114SAPE   H7Y11964   4.418   3.843   4.330  0.7914  2.1079 -3.3357
  114SAPE   C3811965   4.214   3.834   4.402  0.5936  0.0321  0.1793
  114SAPE   H8X11966   4.174   3.771   4.319 -4.2708  2.0028  0.6437
  114SAPE   H8Y11967   4.126   3.893   4.436  0.8953  0.1950  0.6811
  114SAPE   C3911968   4.269   3.731   4.503  0.4438 -0.6302  0.0527
  114SAPE   H9X11969   4.375   3.707   4.477  0.2903 -0.7468 -0.4605
  114SAPE   H9Y11970   4.217   3.634   4.496 -1.5423  0.3053  0.8746
  114SAPE  C31011971   4.245   3.772   4.647  0.2230  0.2535  0.8237
  114SAPE  H10X11972   4.138   3.798   4.654 -0.3347 -1.7358  0.2546
  114SAPE  H10Y11973   4.307   3.865   4.657  1.3977 -0.4802  0.5882
  114SAPE  C31111974   4.280   3.663   4.759  0.7028  1.0871 -0.7804
  114SAPE  H11X11975   4.378   3.614   4.738  0.1948  0.8922 -2.9811
  114SAPE  H11Y11976   4.196   3.591   4.755 -0.7073  2.5887  0.5911
  114SAPE  C31211977   4.279   3.726   4.899  0.6559  0.0102 -0.0221
  114SAPE  H12X11978   4.180   3.772   4.918  0.6486 -0.3028  0.7231
  114SAPE  H12Y11979   4.352   3.810   4.899  2.9863 -1.8595 -1.6902
  114SAPE  C31311980   4.295   3.621   5.001 -0.1963 -0.4782  0.1268
  114SAPE  H13X11981   4.385   3.563   4.973  1.2475  0.8948  1.7050
  114SAPE  H13Y11982   4.207   3.555   4.988  0.6718 -2.2141  2.4265
  114SAPE  C31411983   4.300   3.684   5.145  0.1896  0.2149  0.2533
  114SAPE  H14X11984   4.212   3.751   5.158  0.5002  0.4204  1.4028
  114SAPE  H14Y11985   4.381   3.758   5.160 -0.3896  0.9037  0.0539
  114SAPE  C31511986   4.299   3.579   5.256 -0.5116 -0.3966  0.5065
  114SAPE  H15X11987   4.397   3.527   5.271  0.8028  1.6207 -0.6477
  114SAPE  H15Y11988   4.231   3.495   5.231 -1.1189  0.1105  0.4496
  114SAPE  C31611989   4.258   3.645   5.388 -0.4390  0.2474  1.0460
  114SAPE  H16X11990   4.173   3.716   5.381  0.4468  1.1629 -1.2120
  114SAPE  H16Y11991   4.351   3.695   5.425  0.5867 -0.5485 -0.3850
  114SAPE  C31711992   4.204   3.524   5.474  0.4769 -0.6525 -0.0901
  114SAPE  H17X11993   4.281   3.443   5.481  1.2929  0.2427  3.0572
  114SAPE  H17Y11994   4.107   3.499   5.427  1.0079 -1.2180 -0.9281
  114SAPE  C31811995   4.174   3.582   5.612  0.0553 -0.3402 -1.0291
  114SAPE  H18X11996   4.235   3.667   5.651 -1.0841 -0.4617  1.1837
  114SAPE  H18Y11997   4.181   3.496   5.682 -0.4498 -0.1665 -0.7585
  114SAPE  H18Z11998   4.067   3.607   5.625  0.2491  0.7469 -1.4070
  115SAPE     N11999   2.396   3.057   3.204  0.2808  0.1109  0.5899
  115SAPE   HN112000   2.452   2.973   3.225 -0.1689  0.0069  1.4289
  115SAPE   HN212001   2.454   3.139   3.231  1.1853 -0.7890  1.4289
  115SAPE   HN312002   2.313   3.051   3.267  0.2797 -0.5620  0.5327
  115SAPE   C1212003   2.362   3.064   3.057 -0.3106  0.0988 -0.3396
  115SAPE  H12A12004   2.280   2.990   3.046 -1.1052  0.7221  1.0764
  115SAPE  H12B12005   2.459   3.039   3.008  0.6193  1.4776  0.7253
  115SAPE   C1112006   2.335   3.205   3.006 -0.8533  0.1946 -0.4845
  115SAPE  H11A12007   2.339   3.211   2.895  0.0642 -2.7269 -0.6849
  115SAPE  H11B12008   2.422   3.269   3.032 -0.0553 -1.3806  0.8918
  115SAPE     P12009   2.083   3.218   2.992 -0.2104  0.2220  0.0150
  115SAPE   O1312010   2.069   3.301   2.868 -0.8214 -0.3119 -0.4698
  115SAPE   O1412011   2.073   3.070   2.969 -0.0916  0.3887 -0.0097
  115SAPE   O1212012   2.217   3.254   3.069 -0.4943 -0.3789  0.4093
  115SAPE   O1112013   1.970   3.261   3.097  0.4632  0.2472 -0.4747
  115SAPE    C112014   1.963   3.196   3.227 -0.5561  0.7470  0.6383
  115SAPE    HA12015   1.985   3.088   3.219  3.3947  1.3635  0.9613
  115SAPE    HB12016   2.041   3.234   3.296 -0.8979  1.3312  0.7101
  115SAPE    C212017   1.832   3.204   3.301 -0.0035 -0.9231 -0.2677
  115SAPE    HS12018   1.769   3.137   3.239 -0.5489 -0.1085 -0.6046
  115SAPE   O2112019   1.796   3.346   3.300 -0.4686  0.1232 -0.6055
  115SAPE   C2112020   1.668   3.366   3.318 -0.1533 -0.5507  0.4591
  115SAPE   O2212021   1.586   3.274   3.326  0.6656  0.4343 -0.2125
  115SAPE   C2212022   1.628   3.509   3.317 -1.0669  0.6854 -0.2753
  115SAPE   H2R12023   1.687   3.565   3.241 -0.7381  1.6015  0.6245
  115SAPE   H2S12024   1.520   3.508   3.293 -0.8258  0.3046 -1.4057
  115SAPE    C312025   1.845   3.157   3.453 -0.6216  0.5410 -0.1826
  115SAPE    HX12026   1.911   3.228   3.505  0.3436  0.4432 -1.2386
  115SAPE    HY12027   1.896   3.058   3.454 -0.8799  0.4075 -0.0779
  115SAPE   O3112028   1.716   3.153   3.515 -0.0944 -0.2330 -0.2251
  115SAPE   C3112029   1.652   3.034   3.524 -0.9860  0.4950 -0.1870
  115SAPE   O3212030   1.704   2.927   3.492  0.0097 -0.5810  0.6366
  115SAPE   C3212031   1.518   3.050   3.604  0.0717 -0.6429 -0.1094
  115SAPE   H2X12032   1.432   3.041   3.533 -0.1189  1.6021 -0.2292
  115SAPE   H2Y12033   1.513   3.158   3.631 -0.1301 -0.6803  0.0130
  115SAPE   C2312034   1.643   3.551   3.470  0.3237  0.0468  0.2192
  115SAPE   H3R12035   1.749   3.528   3.497  0.7926  0.4960 -1.1305
  115SAPE   H3S12036   1.580   3.483   3.529  0.9931 -3.1488 -2.4145
  115SAPE   C2412037   1.620   3.700   3.478  0.0134  0.4731  0.1046
  115SAPE   H4R12038   1.693   3.752   3.413  1.2581  0.5451  1.5160
  115SAPE   H4S12039   1.645   3.741   3.577  0.8859 -0.1866  0.1694
  115SAPE   C2512040   1.476   3.743   3.439  0.0841  0.0955  0.4531
  115SAPE   H5R12041   1.458   3.715   3.334  0.0022  0.3777  0.3899
  115SAPE   C2612042   1.378   3.797   3.510  0.3039  0.0247  0.0759
  115SAPE   H6R12043   1.276   3.806   3.468  0.4718 -1.3140 -0.6870
  115SAPE   C2712044   1.388   3.840   3.654  0.1321  0.4953 -0.3003
  115SAPE   H7R12045   1.457   3.765   3.699 -0.9535 -0.2967  0.0933
  115SAPE   H7S12046   1.281   3.832   3.684 -0.1322  2.5151 -0.5673
  115SAPE   C2812047   1.453   3.972   3.675  0.4154 -0.1532 -0.9355
  115SAPE   H8R12048   1.501   4.020   3.588  0.9833  0.2953 -0.3788
  115SAPE   C2912049   1.444   4.044   3.789 -0.1509  0.0107  0.3621
  115SAPE   H9R12050   1.508   4.133   3.795 -0.9811  0.7554 -1.2240
  115SAPE  C21012051   1.381   4.006   3.916 -0.1138  0.1362 -0.0252
  115SAPE  H10R12052   1.375   3.897   3.935  0.8040  0.3377  1.6250
  115SAPE  H10S12053   1.288   4.066   3.917  0.2553  0.7984 -1.7708
  115SAPE  C21112054   1.455   4.046   4.043 -0.3197 -0.2460 -0.7574
  115SAPE  H11R12055   1.548   4.103   4.028 -2.4931  3.7531 -0.4576
  115SAPE  C21212056   1.406   4.027   4.167 -0.3702 -0.1687  0.3736
  115SAPE  H12R12057   1.475   4.047   4.251  0.9659 -1.3562 -0.3785
  115SAPE  C21312058   1.279   3.956   4.208  0.1197 -0.3058 -0.4880
  115SAPE  H13R12059   1.296   3.847   4.214  0.9854 -0.2629 -1.7831
  115SAPE  H13S12060   1.207   3.982   4.127  1.2140  1.3542 -0.9934
  115SAPE  C21412061   1.204   3.997   4.338 -0.6573  0.4770 -0.5961
  115SAPE  H14R12062   1.107   4.046   4.320 -1.5432 -1.5396 -1.6654
  115SAPE  C21512063   1.252   3.981   4.463 -0.6269 -0.2708 -0.5037
  115SAPE  H15R12064   1.196   4.026   4.547 -0.3198 -1.1055  0.1613
  115SAPE  C21612065   1.373   3.906   4.512  0.1658  0.2730 -0.0460
  115SAPE  H16R12066   1.448   3.872   4.438  0.1360  0.3988 -0.1342
  115SAPE  H16S12067   1.338   3.816   4.567 -2.9302  2.3500  1.6962
  115SAPE  C21712068   1.462   3.989   4.607  0.4563 -0.2437  0.4069
  115SAPE  H17R12069   1.423   4.093   4.612 -0.7970 -0.6613 -0.2613
  115SAPE  H17S12070   1.562   3.995   4.560  1.3040 -0.7651  2.0910
  115SAPE  C21812071   1.463   3.943   4.753 -0.2605 -0.2477 -0.3596
  115SAPE  H18R12072   1.482   3.834   4.755  0.4535 -0.1506 -1.1387
  115SAPE  H18S12073   1.362   3.960   4.796 -0.1129 -0.6005  0.1303
  115SAPE  C21912074   1.562   4.008   4.850 -0.0666 -0.2855  0.6045
  115SAPE  H19R12075   1.536   4.115   4.834  2.2053  0.0417 -1.5105
  115SAPE  H19S12076   1.667   4.002   4.815 -0.2339  0.4013 -0.0505
  115SAPE  C22012077   1.540   3.959   4.994 -0.4351 -0.0481  0.1672
  115SAPE  H20R12078   1.435   3.928   5.012  0.3328 -2.7838  0.4326
  115SAPE  H20S12079   1.574   4.046   5.055 -0.3782  1.8498 -2.4243
  115SAPE  H20T12080   1.606   3.872   5.017 -1.4756 -1.0233 -0.4233
  115SAPE   C3312081   1.508   2.959   3.726  0.0230 -0.8615 -0.6754
  115SAPE   H3X12082   1.580   2.875   3.714  1.1211 -0.5722  2.8088
  115SAPE   H3Y12083   1.405   2.918   3.734  0.4689 -2.1070 -1.1218
  115SAPE   C3412084   1.535   3.038   3.854  0.3447 -0.0352  0.2081
  115SAPE   H4X12085   1.459   3.111   3.889  0.2602  0.1825 -0.4259
  115SAPE   H4Y12086   1.624   3.102   3.834 -1.9480  3.2698 -0.1915
  115SAPE   C3512087   1.548   2.934   3.962  0.2399  0.9228  0.5640
  115SAPE   H5X12088   1.634   2.865   3.945 -0.4269 -0.2110  1.6563
  115SAPE   H5Y12089   1.451   2.882   3.961 -0.4158  2.0292 -1.7373
  115SAPE   C3612090   1.561   2.994   4.103  0.7401 -0.3268  0.4236
  115SAPE   H6X12091   1.490   2.951   4.177  1.5423 -0.9492  0.8541
  115SAPE   H6Y12092   1.533   3.101   4.092 -4.0310 -1.2892  0.9513
  115SAPE   C3712093   1.695   2.987   4.175 -0.3096 -0.1511 -0.9672
  115SAPE   H7X12094   1.675   3.016   4.281 -0.3678 -1.5069 -0.5825
  115SAPE   H7Y12095   1.766   3.056   4.126 -0.8434  2.3479  1.5244
  115SAPE   C3812096   1.759   2.844   4.180 -0.1946  0.1558  0.0618
  115SAPE   H8X12097   1.798   2.831   4.077  2.1142 -0.6217  0.9656
  115SAPE   H8Y12098   1.691   2.763   4.212 -3.1495  1.8306 -1.5747
  115SAPE   C3912099   1.892   2.846   4.263  0.5411  0.9018 -0.2322
  115SAPE   H9X12100   1.882   2.899   4.361  0.3656  0.3914  0.0277
  115SAPE   H9Y12101   1.974   2.906   4.217  2.0843 -0.5489  0.5519
  115SAPE  C31012102   1.953   2.707   4.293 -0.2087  0.4553 -0.1470
  115SAPE  H10X12103   2.043   2.713   4.358  0.2060  0.2163 -0.6877
  115SAPE  H10Y12104   1.982   2.663   4.195  0.5016 -1.4248  0.8322
  115SAPE  C31112105   1.863   2.593   4.353 -0.1238  1.3650 -0.3787
  115SAPE  H11X12106   1.829   2.524   4.272  1.6236  0.5096 -0.4466
  115SAPE  H11Y12107   1.775   2.634   4.406 -2.5688 -1.2906 -2.0519
  115SAPE  C31212108   1.938   2.512   4.455  0.5518  0.5317 -0.0526
  115SAPE  H12X12109   1.983   2.582   4.529  0.2020 -0.0568  0.7371
  115SAPE  H12Y12110   2.023   2.465   4.401 -0.8456 -0.6807 -1.2946
  115SAPE  C31312111   1.850   2.402   4.533 -0.5276 -0.6609 -0.0389
  115SAPE  H13X12112   1.786   2.349   4.459  1.8733 -0.3031 -2.5345
  115SAPE  H13Y12113   1.796   2.466   4.606  2.2218 -1.9630  3.4103
  115SAPE  C31412114   1.941   2.298   4.597 -0.1752  0.5650  0.2594
  115SAPE  H14X12115   2.012   2.248   4.528  1.8965 -1.7464  3.7000
  115SAPE  H14Y12116   1.874   2.218   4.635  0.7623 -0.0325  0.6836
  115SAPE  C31512117   2.029   2.344   4.712 -0.0342  0.1024 -0.7365
  115SAPE  H15X12118   1.986   2.437   4.754  1.8968  0.6931 -0.0034
  115SAPE  H15Y12119   2.131   2.368   4.675  0.5221 -1.4865 -0.3149
  115SAPE  C31612120   2.041   2.239   4.820  0.3151  0.5004  0.1873
  115SAPE  H16X12121   1.942   2.203   4.854  0.6840  1.5551  2.5837
  115SAPE  H16Y12122   2.085   2.284   4.912 -1.0593  0.2658  0.9876
  115SAPE  C31712123   2.130   2.117   4.776 -0.6714 -0.2541  0.1962
  115SAPE  H17X12124   2.200   2.078   4.853  5.0938  1.2828 -3.6393
  115SAPE  H17Y12125   2.203   2.157   4.703 -0.7125 -0.7219 -0.1089
  115SAPE  C31812126   2.064   1.992   4.722  0.5965 -0.3239  0.5043
  115SAPE  H18X12127   1.994   1.948   4.795  0.0422  0.4369  0.4491
  115SAPE  H18Y12128   2.139   1.915   4.694 -0.8943 -1.5018 -0.4020
  115SAPE  H18Z12129   2.005   2.023   4.633 -0.6489 -1.3541  0.9441
  116SAPE     N12130   5.800   5.454   2.841  0.0732  0.5760 -0.0290
  116SAPE   HN112131   5.889   5.408   2.867 -0.0617  0.2676 -0.1194
  116SAPE   HN212132   5.742   5.452   2.927 -0.5362  0.3811 -0.4381
  116SAPE   HN312133   5.758   5.402   2.762  2.5889  1.3825 -2.0219
  116SAPE   C1212134   5.833   5.597   2.813  0.5891 -0.0702 -0.1997
  116SAPE  H12A12135   5.740   5.652   2.836 -0.0731 -0.6590 -1.3702
  116SAPE  H12B12136   5.860   5.612   2.706 -2.0555  1.6162 -0.7296
  116SAPE   C1112137   5.946   5.629   2.906 -0.2225 -0.8213  0.5612
  116SAPE  H11A12138   5.919   5.609   3.012 -2.2704 -0.4688  0.1391
  116SAPE  H11B12139   5.959   5.739   2.898 -2.6411 -0.4586  0.8474
  116SAPE     P12140   6.202   5.593   2.918 -0.1784 -0.1273 -0.0278
  116SAPE   O1312141   6.307   5.493   2.898  0.5575 -0.0536  0.2962
  116SAPE   O1412142   6.224   5.726   2.861 -0.0868  0.1887  0.2178
  116SAPE   O1212143   6.058   5.550   2.865 -0.6999  0.0152 -0.0382
  116SAPE   O1112144   6.179   5.615   3.069 -0.3631 -0.2319 -0.9168
  116SAPE    C112145   6.160   5.494   3.145  0.2087 -0.0752  0.1814
  116SAPE    HA12146   6.075   5.504   3.215 -0.7805 -3.0952 -0.4213
  116SAPE    HB12147   6.113   5.409   3.090  1.2981  0.7208 -2.1234
  116SAPE    C212148   6.291   5.440   3.215  0.3103  0.1510 -0.3748
  116SAPE    HS12149   6.349   5.374   3.147 -0.2877 -1.1235  0.3355
  116SAPE   O2112150   6.249   5.377   3.338  0.1383 -0.2202  0.2578
  116SAPE   C2112151   6.307   5.263   3.362  0.0468  0.4416  0.4855
  116SAPE   O2212152   6.383   5.199   3.289 -0.0685  0.2899 -0.4284
  116SAPE   C2212153   6.261   5.210   3.504  0.2374 -0.6239  0.2187
  116SAPE   H2R12154   6.305   5.281   3.577  1.5716 -0.9135 -0.2701
  116SAPE   H2S12155   6.150   5.207   3.501  0.1767  1.1406 -1.1461
  116SAPE    C312156   6.384   5.568   3.250 -0.7313  0.7165 -0.4264
  116SAPE    HX12157   6.328   5.643   3.308  0.3240 -0.8338  2.8413
  116SAPE    HY12158   6.413   5.620   3.156 -2.0487  0.3506 -1.0734
  116SAPE   O3112159   6.488   5.529   3.338  0.2804 -0.4067 -0.2692
  116SAPE   C3112160   6.600   5.496   3.269  0.6901 -0.3102  0.1869
  116SAPE   O3212161   6.610   5.497   3.149  0.4050 -0.0283 -0.0729
  116SAPE   C3212162   6.719   5.483   3.356  0.2173 -0.1243  0.4412
  116SAPE   H2X12163   6.793   5.559   3.323  0.1059 -0.0598  0.3379
  116SAPE   H2Y12164   6.759   5.380   3.343  0.6806  0.0875  0.1739
  116SAPE   C2312165   6.320   5.072   3.545  0.3587  0.7285  0.2522
  116SAPE   H3R12166   6.431   5.074   3.544  0.3999 -0.3742 -1.7220
  116SAPE   H3S12167   6.282   4.996   3.474 -0.6804 -0.5541  2.0941
  116SAPE   C2412168   6.280   5.044   3.696 -0.0549 -0.4192 -0.4230
  116SAPE   H4R12169   6.332   4.950   3.724  0.5715 -0.1571 -0.6774
  116SAPE   H4S12170   6.171   5.023   3.692 -0.4741  1.3726  0.4211
  116SAPE   C2512171   6.303   5.152   3.798  0.2189  0.0416 -0.5022
  116SAPE   H5R12172   6.250   5.245   3.772 -0.7884 -0.4368 -0.2364
  116SAPE   C2612173   6.375   5.134   3.909 -0.5689  0.0762  0.0065
  116SAPE   H6R12174   6.371   5.220   3.979 -0.6809 -0.1394  0.2663
  116SAPE   C2712175   6.449   5.021   3.966  0.5598 -0.0741 -0.4528
  116SAPE   H7R12176   6.555   5.043   3.942 -0.2404  4.8766 -0.3534
  116SAPE   H7S12177   6.414   4.932   3.909 -2.0885  0.6273 -0.0463
  116SAPE   C2812178   6.422   4.976   4.109  0.1465 -0.2859 -0.7910
  116SAPE   H8R12179   6.351   4.896   4.132  0.9818 -0.3441  1.9676
  116SAPE   C2912180   6.509   4.999   4.212  0.7185  0.2344 -0.1242
  116SAPE   H9R12181   6.483   4.954   4.308  0.8109 -0.7710 -0.5561
  116SAPE  C21012182   6.634   5.076   4.204 -0.2303 -0.1344 -1.0461
  116SAPE  H10R12183   6.629   5.151   4.122 -0.3371 -0.0681 -0.9793
  116SAPE  H10S12184   6.720   5.008   4.189  1.4622  1.8297 -0.7906
  116SAPE  C21112185   6.652   5.152   4.327  0.3539  0.0260 -0.4083
  116SAPE  H11R12186   6.609   5.253   4.318 -0.7446 -0.3435  0.4548
  116SAPE  C21212187   6.693   5.104   4.449 -0.4084 -1.0117 -0.3114
  116SAPE  H12R12188   6.680   5.175   4.531 -2.9035 -0.9010 -0.7231
  116SAPE  C21312189   6.741   4.960   4.481  0.3340 -0.1611  0.0800
  116SAPE  H13R12190   6.851   4.959   4.489  0.3768  0.7211 -0.2648
  116SAPE  H13S12191   6.719   4.885   4.402  1.4270 -0.9324  0.4826
  116SAPE  C21412192   6.676   4.909   4.607  0.5570 -0.1984 -0.5173
  116SAPE  H14R12193   6.570   4.886   4.592  0.4091  0.4855 -0.5533
  116SAPE  C21512194   6.725   4.895   4.730  0.0695  0.6603  0.0437
  116SAPE  H15R12195   6.668   4.856   4.816  1.7913 -0.5520  0.6976
  116SAPE  C21612196   6.869   4.926   4.770 -0.1780 -0.1200 -0.2846
  116SAPE  H16R12197   6.934   4.961   4.687 -2.3817  0.1123 -1.9966
  116SAPE  H16S12198   6.916   4.835   4.812 -0.1507 -0.7998 -1.7096
  116SAPE  C21712199   6.874   5.040   4.871 -0.5671 -0.0196  0.2157
  116SAPE  H17R12200   6.826   5.126   4.819  0.1093  1.1122  1.3940
  116SAPE  H17S12201   6.980   5.071   4.888  0.0630 -1.9822  0.0214
  116SAPE  C21812202   6.816   5.002   5.011 -0.0774 -0.4936  1.0101
  116SAPE  H18R12203   6.713   4.967   4.987  0.0956  1.2814 -3.1713
  116SAPE  H18S12204   6.807   5.095   5.071  1.5115 -0.6845  1.5965
  116SAPE  C21912205   6.890   4.893   5.092  0.1427  1.1271  0.5552
  116SAPE  H19R12206   6.951   4.951   5.165  1.2322  2.4551 -1.2986
  116SAPE  H19S12207   6.957   4.843   5.018 -2.1856 -1.6562  0.1646
  116SAPE  C22012208   6.794   4.800   5.162  1.1113 -0.8631 -0.3277
  116SAPE  H20R12209   6.755   4.724   5.091 -2.0438 -0.9490  1.3271
  116SAPE  H20S12210   6.712   4.852   5.216  0.5194 -2.9528  0.9192
  116SAPE  H20T12211   6.853   4.743   5.237  2.6554  1.6687  0.5194
  116SAPE   C3312212   6.696   5.509   3.510 -1.0347 -0.1163  0.2991
  116SAPE   H3X12213   6.647   5.609   3.514  0.6333  0.6972  1.5303
  116SAPE   H3Y12214   6.800   5.516   3.547 -0.6614 -0.1937 -0.7187
  116SAPE   C3412215   6.630   5.390   3.578  0.9740  0.2837  0.0392
  116SAPE   H4X12216   6.704   5.308   3.588  0.4251 -0.0579  1.4931
  116SAPE   H4Y12217   6.544   5.352   3.518  0.1119  0.8829  0.8502
  116SAPE   C3512218   6.593   5.404   3.721  0.4168 -0.3499 -0.0728
  116SAPE   H5X12219   6.569   5.303   3.761  0.7665  0.4041  2.2208
  116SAPE   H5Y12220   6.502   5.464   3.742  2.1517  1.5361  2.7562
  116SAPE   C3612221   6.699   5.452   3.817 -0.1474 -0.5720  0.2356
  116SAPE   H6X12222   6.750   5.549   3.797  0.7030 -0.8446  0.9693
  116SAPE   H6Y12223   6.777   5.372   3.816 -0.4920 -0.9149 -1.4321
  116SAPE   C3712224   6.646   5.460   3.964 -0.1730  0.4553 -0.0558
  116SAPE   H7X12225   6.601   5.366   4.001 -0.7676  0.5570 -0.5052
  116SAPE   H7Y12226   6.566   5.538   3.970 -0.2782  0.2054  3.3725
  116SAPE   C3812227   6.758   5.513   4.057  0.0313  0.2734  0.3121
  116SAPE   H8X12228   6.801   5.611   4.028  1.6836 -0.5399 -0.0438
  116SAPE   H8Y12229   6.827   5.427   4.056 -0.9205 -0.6359 -3.4747
  116SAPE   C3912230   6.710   5.535   4.201 -0.4557  0.1901 -0.4211
  116SAPE   H9X12231   6.661   5.440   4.228 -0.9568  0.6841  0.4483
  116SAPE   H9Y12232   6.629   5.611   4.202 -1.1278 -0.4556  2.6007
  116SAPE  C31012233   6.824   5.572   4.302 -0.2274  0.3985 -0.3540
  116SAPE  H10X12234   6.883   5.656   4.262  1.2026 -0.0289  0.7735
  116SAPE  H10Y12235   6.890   5.482   4.305 -1.1248 -0.2615  0.3534
  116SAPE  C31112236   6.773   5.598   4.448  0.2586  0.5326  0.3499
  116SAPE  H11X12237   6.712   5.691   4.449  1.4749  1.3507  0.4641
  116SAPE  H11Y12238   6.858   5.630   4.511 -1.1207  1.5678  1.7685
  116SAPE  C31212239   6.704   5.482   4.520  0.0277  0.3611 -0.2307
  116SAPE  H12X12240   6.772   5.394   4.511 -1.0352 -0.4806 -0.2943
  116SAPE  H12Y12241   6.610   5.466   4.463 -0.1775  0.7836 -0.0094
  116SAPE  C31312242   6.663   5.511   4.665  0.0735 -0.0993  0.2359
  116SAPE  H13X12243   6.611   5.608   4.686  1.1940  0.9253 -1.5069
  116SAPE  H13Y12244   6.754   5.517   4.728  0.0197  0.2496  0.2829
  116SAPE  C31412245   6.590   5.385   4.732 -1.0779 -0.3514  0.3025
  116SAPE  H14X12246   6.662   5.300   4.732 -0.2093  0.3678  0.2700
  116SAPE  H14Y12247   6.490   5.369   4.687 -1.7953  1.9780  0.9432
  116SAPE  C31512248   6.552   5.416   4.873 -0.3074  0.4618 -0.8088
  116SAPE  H15X12249   6.493   5.508   4.892  0.8418  0.5706  2.9908
  116SAPE  H15Y12250   6.645   5.436   4.930  0.7027 -1.9717 -1.4592
  116SAPE  C31612251   6.480   5.302   4.950 -0.5339 -0.3285  0.1239
  116SAPE  H16X12252   6.540   5.209   4.956  3.5568  1.7999 -2.9659
  116SAPE  H16Y12253   6.382   5.298   4.898  0.6853 -2.0823 -2.2077
  116SAPE  C31712254   6.462   5.346   5.096 -0.7487 -0.5287 -0.2309
  116SAPE  H17X12255   6.403   5.441   5.099  1.0729  0.6453 -0.2479
  116SAPE  H17Y12256   6.559   5.371   5.143  0.6434  0.0525 -3.1856
  116SAPE  C31812257   6.405   5.239   5.195  0.8996  0.2014  0.1314
  116SAPE  H18X12258   6.404   5.270   5.302  1.9984 -2.1655  0.9030
  116SAPE  H18Y12259   6.471   5.150   5.194  1.2977  0.4793  0.9873
  116SAPE  H18Z12260   6.302   5.214   5.161  0.9261  0.7174 -0.3370
  117SOPE     N12261   1.148   1.686   7.935 -0.2093  0.7154 -0.5276
  117SOPE   HN112262   1.097   1.605   7.895 -0.4911  1.0700 -0.8994
  117SOPE   HN212263   1.132   1.684   8.038 -0.2677 -0.7531 -0.5494
  117SOPE   HN312264   1.098   1.773   7.908 -1.5807  0.3846  0.8191
  117SOPE   C1212265   1.292   1.683   7.888 -0.3384  0.4044 -0.1171
  117SOPE  H12A12266   1.335   1.587   7.924 -0.8391  0.3479  0.3467
  117SOPE  H12B12267   1.351   1.770   7.923 -2.6805  1.3913  1.6678
  117SOPE   C1112268   1.290   1.679   7.734  0.1866  0.2667  0.1797
  117SOPE  H11A12269   1.390   1.646   7.700 -0.2641 -0.6005 -0.3239
  117SOPE  H11B12270   1.275   1.783   7.700  1.7466  0.4409 -0.0415
  117SOPE     P12271   1.197   1.552   7.525  0.1053 -0.2081 -0.0869
  117SOPE   O1312272   1.060   1.559   7.467  0.0992  0.0867  0.2586
  117SOPE   O1412273   1.258   1.411   7.532 -0.4161 -0.1617 -0.5254
  117SOPE   O1212274   1.185   1.594   7.681 -0.3122 -0.2404  0.7135
  117SOPE   O1112275   1.301   1.659   7.461  0.7949  0.5604  0.4792
  117SOPE    C112276   1.432   1.609   7.411 -0.1398 -0.8074 -0.1220
  117SOPE    HA12277   1.472   1.541   7.489 -0.2663 -0.5749  0.1451
  117SOPE    HB12278   1.513   1.685   7.415  0.6102 -1.6364  2.5810
  117SOPE    C212279   1.427   1.560   7.266  0.1981  0.4366 -0.1487
  117SOPE    HS12280   1.397   1.650   7.208  0.5576  0.7992  0.2198
  117SOPE   O2112281   1.350   1.444   7.253 -0.9902  0.0460 -0.0734
  117SOPE   C2112282   1.270   1.447   7.148 -0.1257 -0.2210  0.6883
  117SOPE   O2212283   1.271   1.533   7.064 -0.3360 -0.6389  0.1969
  117SOPE   C2212284   1.181   1.329   7.159  0.5030 -0.2965 -0.4527
  117SOPE   H2R12285   1.104   1.350   7.236  0.1563 -1.9311 -0.3102
  117SOPE   H2S12286   1.237   1.239   7.192 -1.1238 -0.6358  1.5898
  117SOPE    C312287   1.577   1.528   7.220 -0.0182  0.5812 -0.5368
  117SOPE    HX12288   1.628   1.457   7.289  0.6031  2.3611  0.9517
  117SOPE    HY12289   1.637   1.620   7.241  0.3133  0.3592 -0.5141
  117SOPE   O3112290   1.583   1.489   7.079 -0.3304  0.3792  0.6738
  117SOPE   C3112291   1.589   1.357   7.061  0.6175  0.5737  0.0225
  117SOPE   O3212292   1.562   1.270   7.143 -0.0774 -0.2459  0.4567
  117SOPE   C3212293   1.634   1.323   6.916 -0.5286 -0.2207 -0.2899
  117SOPE   H2X12294   1.584   1.226   6.893 -1.3537  0.0925  0.1171
  117SOPE   H2Y12295   1.741   1.298   6.928 -0.7951 -0.9594  0.6718
  117SOPE   C2312296   1.102   1.292   7.037 -0.1279  1.1328  0.0216
  117SOPE   H3R12297   1.040   1.373   6.992 -0.4876  0.6281 -0.3970
  117SOPE   H3S12298   1.040   1.210   7.079  1.9233  1.1567  3.4369
  117SOPE   C2412299   1.188   1.234   6.927 -0.5749 -0.3833  0.0772
  117SOPE   H4R12300   1.269   1.304   6.899 -0.6451 -0.0328  0.7311
  117SOPE   H4S12301   1.233   1.141   6.968  0.5479  0.6782  1.3348
  117SOPE   C2512302   1.117   1.207   6.797  0.1220  0.7778 -0.5703
  117SOPE   H5R12303   1.048   1.123   6.815 -0.4118  1.6373  1.7163
  117SOPE   H5S12304   1.061   1.294   6.755 -0.2887  0.8344  0.0766
  117SOPE   C2612305   1.223   1.162   6.698 -0.3472 -0.7169 -0.3513
  117SOPE   H6R12306   1.298   1.238   6.668 -1.8883  0.8574 -0.4225
  117SOPE   H6S12307   1.288   1.090   6.752 -0.7641  0.1229  1.3508
  117SOPE   C2712308   1.157   1.108   6.568 -0.6345  0.1277 -0.2337
  117SOPE   H7R12309   1.217   1.030   6.515 -1.7671 -0.2301 -1.0241
  117SOPE   H7S12310   1.063   1.052   6.586 -0.6457  1.0021  3.0848
  117SOPE   C2812311   1.116   1.215   6.467  0.9129  0.2330 -0.4846
  117SOPE   H8R12312   1.037   1.179   6.398  0.3430  0.7808 -0.1363
  117SOPE   H8S12313   1.071   1.294   6.532  0.6127  1.0142 -1.6081
  117SOPE   C2912314   1.243   1.251   6.398  0.3247  0.3905  0.3361
  117SOPE   H9112315   1.339   1.215   6.440  0.5558  0.1203 -0.4119
  117SOPE  C21012316   1.255   1.315   6.284 -0.0421  0.5020  0.3379
  117SOPE  H10112317   1.353   1.333   6.238  0.1749  1.3613  1.1026
  117SOPE  C21112318   1.142   1.389   6.213  0.1555  0.3576 -0.3372
  117SOPE  H11R12319   1.131   1.488   6.263  2.1762  1.2400 -1.5110
  117SOPE  H11S12320   1.042   1.340   6.218 -0.0137  0.7882  1.5671
  117SOPE  C21212321   1.158   1.403   6.060  0.1619  0.2131  0.2521
  117SOPE  H12R12322   1.252   1.461   6.047  0.3460 -0.2679 -0.6600
  117SOPE  H12S12323   1.069   1.454   6.016 -0.0956 -0.9148 -0.5903
  117SOPE  C21312324   1.173   1.270   5.985  0.3013  0.2707  0.6294
  117SOPE  H13R12325   1.083   1.208   6.006  1.1613 -1.3548 -0.3030
  117SOPE  H13S12326   1.261   1.217   6.028  3.0392  3.3124 -0.7984
  117SOPE  C21412327   1.199   1.285   5.838 -1.2722  0.0931 -0.0201
  117SOPE  H14R12328   1.195   1.185   5.790  2.2095 -0.1190 -0.1159
  117SOPE  H14S12329   1.302   1.328   5.830 -1.0359 -0.5312 -0.4014
  117SOPE  C21512330   1.102   1.374   5.759 -0.2058 -0.0269 -0.4530
  117SOPE  H15R12331   1.074   1.469   5.809 -0.5795  1.3685 -3.1030
  117SOPE  H15S12332   1.007   1.318   5.743 -1.1147  1.4088 -0.2286
  117SOPE  C21612333   1.150   1.435   5.624 -0.7266  0.5498  0.2349
  117SOPE  H16R12334   1.232   1.509   5.636 -1.2076  1.6953 -2.6396
  117SOPE  H16S12335   1.058   1.489   5.592 -1.6483  0.1760  2.1401
  117SOPE  C21712336   1.173   1.317   5.525 -0.3740 -0.3097  0.3487
  117SOPE  H17R12337   1.079   1.257   5.516 -1.0114  0.5954  0.7476
  117SOPE  H17S12338   1.240   1.237   5.563 -2.2481 -1.6253  1.0624
  117SOPE  C21812339   1.219   1.360   5.382 -0.0131 -0.0099 -0.0448
  117SOPE  H18R12340   1.150   1.434   5.337 -0.6465 -0.3603  0.3446
  117SOPE  H18S12341   1.206   1.271   5.317  0.0873 -1.5655  1.9489
  117SOPE  H18T12342   1.321   1.404   5.392  0.2171 -0.3024 -1.0329
  117SOPE   C3312343   1.609   1.423   6.807  0.1892 -0.2986  1.4572
  117SOPE   H3X12344   1.648   1.526   6.821  1.9481 -0.3994 -1.7988
  117SOPE   H3Y12345   1.499   1.428   6.790  0.2479  0.0696  1.1891
  117SOPE   C3412346   1.679   1.363   6.690 -0.0352 -0.0848 -1.0116
  117SOPE   H4X12347   1.635   1.262   6.673 -0.5350 -0.6111  2.6454
  117SOPE   H4Y12348   1.784   1.348   6.722 -0.6213  1.8914  2.2279
  117SOPE   C3512349   1.674   1.440   6.558  0.2797  0.1093 -0.2057
  117SOPE   H5X12350   1.689   1.544   6.596 -3.2356 -0.1518  2.5225
  117SOPE   H5Y12351   1.567   1.437   6.526 -1.1008 -0.6345  3.8768
  117SOPE   C3612352   1.759   1.378   6.455 -0.0237  0.1214  0.3235
  117SOPE   H6X12353   1.717   1.279   6.430  0.6573 -0.1806  0.3490
  117SOPE   H6Y12354   1.865   1.366   6.488  0.1661  0.1602 -0.2674
  117SOPE   C3712355   1.767   1.477   6.343 -1.1897  0.1110  0.4257
  117SOPE   H7X12356   1.769   1.582   6.380 -0.9429  0.5901 -0.9123
  117SOPE   H7Y12357   1.674   1.468   6.284 -0.2126  0.5510 -1.2497
  117SOPE   C3812358   1.891   1.468   6.250  0.1833  0.2117 -0.3357
  117SOPE   H8X12359   1.885   1.363   6.213 -0.6421 -0.3796  1.3717
  117SOPE   H8Y12360   1.988   1.491   6.298  0.1278 -0.1456 -0.0490
  117SOPE   C3912361   1.876   1.561   6.126  0.1127 -0.6271  0.4272
  117SOPE   H9X12362   1.854   1.659   6.174 -4.3208  0.1740 -2.5898
  117SOPE   H9Y12363   1.787   1.531   6.067  1.7961 -1.9834 -1.6037
  117SOPE  C31012364   2.002   1.565   6.037 -0.6186  0.6913 -0.0846
  117SOPE  H10X12365   2.008   1.463   5.992  0.5201  1.4283 -1.7420
  117SOPE  H10Y12366   2.098   1.583   6.091  0.2573  0.0909 -1.3729
  117SOPE  C31112367   2.001   1.677   5.928 -0.9585  0.0809  0.8264
  117SOPE  H11X12368   1.982   1.778   5.971  0.3164  0.0640  1.4697
  117SOPE  H11Y12369   1.918   1.652   5.858  0.3078 -0.3591 -0.5820
  117SOPE  C31212370   2.134   1.683   5.849 -0.1444 -0.1446 -0.1542
  117SOPE  H12X12371   2.168   1.582   5.818  2.2393  0.5244  0.0801
  117SOPE  H12Y12372   2.219   1.715   5.913  0.5108  1.3333 -1.6718
  117SOPE  C31312373   2.127   1.774   5.727 -0.2962  0.3604 -0.5122
  117SOPE  H13X12374   2.121   1.874   5.774 -1.6403  0.4771 -0.8776
  117SOPE  H13Y12375   2.035   1.746   5.671 -0.7979  0.8979  0.0273
  117SOPE  C31412376   2.248   1.756   5.636  0.3043  0.1260 -0.1565
  117SOPE  H14X12377   2.264   1.649   5.612  1.4477  0.8728 -3.0145
  117SOPE  H14Y12378   2.339   1.785   5.693 -0.0014  0.5474  0.1244
  117SOPE  C31512379   2.231   1.821   5.498 -0.8481  0.1019 -0.1264
  117SOPE  H15X12380   2.217   1.931   5.501  0.0823  0.2257  2.4034
  117SOPE  H15Y12381   2.140   1.780   5.449  0.1930 -0.8655 -1.3071
  117SOPE  C31612382   2.360   1.794   5.415 -1.0453 -0.2263 -0.1551
  117SOPE  H16X12383   2.368   1.684   5.412  1.2848 -0.1705  1.3007
  117SOPE  H16Y12384   2.448   1.843   5.462 -1.0536 -0.2860 -0.0781
  117SOPE  C31712385   2.354   1.854   5.273 -1.1110 -0.2806 -0.0914
  117SOPE  H17X12386   2.270   1.801   5.223  0.0479 -0.3984 -1.9892
  117SOPE  H17Y12387   2.441   1.812   5.219 -0.6610 -1.0261  1.1698
  117SOPE  C31812388   2.370   2.003   5.250  0.0852 -0.1091 -0.1328
  117SOPE  H18X12389   2.321   2.059   5.333 -1.6291 -1.2207 -0.3429
  117SOPE  H18Y12390   2.328   2.035   5.152  0.2122  0.6928  0.0688
  117SOPE  H18Z12391   2.477   2.028   5.265  0.4431 -1.4100 -0.3822
  118SOPE     N12392   6.787   4.873   7.540  0.2217 -0.5505 -0.4860
  118SOPE   HN112393   6.778   4.788   7.482 -3.0554 -0.5542 -0.1664
  118SOPE   HN212394   6.849   4.852   7.621  1.5433 -0.9456 -1.5591
  118SOPE   HN312395   6.693   4.881   7.585 -0.2479 -3.1547 -0.8499
  118SOPE   C1212396   6.842   4.998   7.482 -0.1733  0.4368 -0.2601
  118SOPE  H12A12397   6.883   5.062   7.564  1.4057 -0.9936  0.1252
  118SOPE  H12B12398   6.766   5.056   7.426 -0.3536 -0.0582 -0.5332
  118SOPE   C1112399   6.957   4.958   7.391  0.2515  0.0905 -0.1304
  118SOPE  H11A12400   7.014   5.042   7.347 -0.2750 -0.0852 -1.1788
  118SOPE  H11B12401   6.908   4.910   7.304  1.8172  0.8883 -1.5003
  118SOPE     P12402   7.173   4.910   7.531  0.0355  0.1774 -0.1673
  118SOPE   O1312403   7.214   4.804   7.625 -0.0041  1.2016 -0.2012
  118SOPE   O1412404   7.155   5.047   7.592 -0.7458  0.0545  0.2909
  118SOPE   O1212405   7.043   4.862   7.455  0.5187 -0.5245  0.2619
  118SOPE   O1112406   7.283   4.913   7.415  0.3723  0.4772  0.3819
  118SOPE    C112407   7.270   4.814   7.304 -0.2407 -0.0147  0.0676
  118SOPE    HA12408   7.205   4.730   7.335 -1.1495  0.5032 -0.3970
  118SOPE    HB12409   7.369   4.763   7.298  0.8917  2.0810 -0.1593
  118SOPE    C212410   7.228   4.890   7.177 -0.0507  0.1043 -0.0662
  118SOPE    HS12411   7.129   4.936   7.193  0.5426  0.5517  3.0855
  118SOPE   O2112412   7.217   4.810   7.061 -0.0491  0.4494  0.5927
  118SOPE   C2112413   7.114   4.719   7.060 -0.6659 -0.8496  0.5225
  118SOPE   O2212414   7.028   4.720   7.145 -0.1836  0.3464 -0.0736
  118SOPE   C2212415   7.113   4.648   6.934  0.8886 -0.8447  0.3449
  118SOPE   H2R12416   7.005   4.635   6.911  0.8439 -0.4448  0.3217
  118SOPE   H2S12417   7.156   4.547   6.950 -1.2382 -1.8367  0.2004
  118SOPE    C312418   7.328   5.003   7.130  0.5864  0.5629  0.5966
  118SOPE    HX12419   7.430   4.969   7.159  1.8231  2.4978 -1.2098
  118SOPE    HY12420   7.297   5.089   7.193  0.9500 -0.8447  2.8254
  118SOPE   O3112421   7.333   5.027   6.982  0.2179 -0.2296  0.0310
  118SOPE   C3112422   7.226   5.107   6.942 -0.2759  0.7679 -0.4513
  118SOPE   O3212423   7.132   5.133   7.012 -0.5151  1.0049  0.3351
  118SOPE   C3212424   7.256   5.154   6.797  0.0477  0.0042 -0.0164
  118SOPE   H2X12425   7.309   5.073   6.743  0.1758  1.3524 -2.0247
  118SOPE   H2Y12426   7.337   5.229   6.796  0.9640 -0.9579 -0.9293
  118SOPE   C2312427   7.185   4.722   6.817  0.5474  0.4075 -0.3010
  118SOPE   H3R12428   7.295   4.709   6.822  0.2994 -2.1996 -0.2701
  118SOPE   H3S12429   7.170   4.831   6.807  3.7258  0.8153 -1.7565
  118SOPE   C2412430   7.136   4.674   6.676 -0.4439 -0.4328 -0.0096
  118SOPE   H4R12431   7.136   4.563   6.668  0.2718 -0.3759 -1.2184
  118SOPE   H4S12432   7.031   4.706   6.659 -0.2780 -0.9256 -2.2869
  118SOPE   C2512433   7.216   4.733   6.559  0.0197 -0.8300 -0.6929
  118SOPE   H5R12434   7.252   4.830   6.599 -4.0751  0.0567  1.4797
  118SOPE   H5S12435   7.299   4.665   6.531 -0.7663 -1.5649 -1.2888
  118SOPE   C2612436   7.132   4.757   6.437  0.4574 -0.3602 -0.6135
  118SOPE   H6R12437   7.075   4.669   6.401 -0.8992  0.0420  0.4429
  118SOPE   H6S12438   7.055   4.835   6.457  2.6654  1.9481 -0.6013
  118SOPE   C2712439   7.204   4.797   6.309  0.4566 -0.4524 -0.0651
  118SOPE   H7R12440   7.295   4.852   6.342 -0.2024 -0.6868  2.4070
  118SOPE   H7S12441   7.242   4.707   6.256  0.4900  0.9937 -2.6673
  118SOPE   C2812442   7.128   4.867   6.199 -0.3026  0.4215 -0.8805
  118SOPE   H8R12443   7.200   4.884   6.115  1.2905  0.3830  0.4215
  118SOPE   H8S12444   7.046   4.802   6.163  0.0046  0.6492 -2.0503
  118SOPE   C2912445   7.060   4.999   6.246  0.0815  0.5695 -0.0626
  118SOPE   H9112446   6.994   4.984   6.333  0.5863 -0.4356  0.1722
  118SOPE  C21012447   7.076   5.127   6.201 -0.4902  0.2217 -0.1753
  118SOPE  H10112448   7.009   5.206   6.238 -2.3228 -1.0222 -0.6860
  118SOPE  C21112449   7.162   5.190   6.092  0.2918 -0.3138  0.0565
  118SOPE  H11R12450   7.201   5.104   6.034 -2.4097 -1.2304 -0.5430
  118SOPE  H11S12451   7.243   5.242   6.147  0.7302 -1.1471  0.2214
  118SOPE  C21212452   7.101   5.294   5.994 -0.5400 -0.3438 -0.7917
  118SOPE  H12R12453   7.089   5.385   6.057  1.8658 -0.8918  0.5860
  118SOPE  H12S12454   6.998   5.264   5.965 -0.9244  1.8957 -1.9270
  118SOPE  C21312455   7.198   5.318   5.878 -0.5111 -0.6733  0.1840
  118SOPE  H13R12456   7.202   5.236   5.803  2.3819  0.1188 -0.6740
  118SOPE  H13S12457   7.301   5.324   5.921 -0.7029 -2.6712  0.9896
  118SOPE  C21412458   7.146   5.445   5.807 -0.1889 -0.1506  0.3618
  118SOPE  H14R12459   7.194   5.524   5.869  2.4818 -0.1754 -1.5065
  118SOPE  H14S12460   7.037   5.447   5.826 -0.5687  1.7794 -1.5721
  118SOPE  C21512461   7.219   5.446   5.669  0.1080  0.0440  0.3429
  118SOPE  H15R12462   7.158   5.380   5.603 -1.3203  1.3581  0.2649
  118SOPE  H15S12463   7.322   5.405   5.671 -0.0124 -0.3233 -0.4490
  118SOPE  C21612464   7.223   5.584   5.608  0.6235 -0.1168  0.6033
  118SOPE  H16R12465   7.278   5.651   5.677 -0.2605  0.3528  0.8733
  118SOPE  H16S12466   7.122   5.627   5.591  0.5990  0.1975  1.5052
  118SOPE  C21712467   7.298   5.584   5.471  0.0566 -0.1817  0.3288
  118SOPE  H17R12468   7.403   5.552   5.489  0.5611  1.5357  0.5507
  118SOPE  H17S12469   7.306   5.688   5.434 -0.4031 -0.6996 -1.3250
  118SOPE  C21812470   7.223   5.501   5.363 -0.3729  0.5397  0.0729
  118SOPE  H18R12471   7.246   5.399   5.399  0.9066  0.8911  0.3162
  118SOPE  H18S12472   7.272   5.520   5.265 -0.2230 -2.1707 -0.4635
  118SOPE  H18T12473   7.117   5.531   5.353 -0.2695  0.5964 -1.0275
  118SOPE   C3312474   7.117   5.177   6.731  0.3637 -0.2557 -0.6055
  118SOPE   H3X12475   7.060   5.263   6.772  2.0453  0.8892 -0.5319
  118SOPE   H3Y12476   7.058   5.086   6.755 -0.2486  0.5894  1.3055
  118SOPE   C3412477   7.121   5.189   6.576 -0.2182  0.0238 -0.1828
  118SOPE   H4X12478   7.023   5.161   6.530 -0.8701  0.6959  0.7508
  118SOPE   H4Y12479   7.196   5.121   6.531  1.4630  0.2603  2.0765
  118SOPE   C3512480   7.153   5.333   6.537  0.4497  0.0135  0.0681
  118SOPE   H5X12481   7.206   5.329   6.440  0.0047  2.4203 -0.3389
  118SOPE   H5Y12482   7.224   5.378   6.609  1.6478 -0.9468 -0.4800
  118SOPE   C3612483   7.038   5.421   6.497  0.2297 -0.3980  0.5576
  118SOPE   H6X12484   6.965   5.433   6.580  0.5053 -0.2933  0.7867
  118SOPE   H6Y12485   6.983   5.373   6.414  1.8332 -0.8348 -0.2767
  118SOPE   C3712486   7.073   5.556   6.449 -0.3646  0.3635  0.0004
  118SOPE   H7X12487   7.150   5.597   6.519  1.0420 -2.6485  0.3761
  118SOPE   H7Y12488   6.986   5.624   6.459 -2.0027 -1.4992 -1.0587
  118SOPE   C3812489   7.126   5.563   6.305  1.1872  0.1605 -0.1033
  118SOPE   H8X12490   7.057   5.524   6.227  2.3366  0.8842 -1.5333
  118SOPE   H8Y12491   7.204   5.484   6.307  0.3716 -0.7041  3.0911
  118SOPE   C3912492   7.181   5.700   6.270 -0.0569 -0.3684  0.6144
  118SOPE   H9X12493   7.259   5.729   6.344 -1.2825 -0.8355  2.1173
  118SOPE   H9Y12494   7.095   5.770   6.272 -1.5849 -2.1476  0.1238
  118SOPE  C31012495   7.243   5.702   6.132 -0.8705  0.1476 -0.5591
  118SOPE  H10X12496   7.188   5.650   6.051 -0.7380  1.8131 -1.7551
  118SOPE  H10Y12497   7.347   5.664   6.140 -0.7098  0.4982 -0.9884
  118SOPE  C31112498   7.238   5.853   6.076  0.4392 -0.2031 -0.2643
  118SOPE  H11X12499   7.312   5.920   6.124 -0.3872  0.5514  0.0001
  118SOPE  H11Y12500   7.145   5.906   6.109  0.7081 -0.3756  0.7931
  118SOPE  C31212501   7.243   5.866   5.929  1.1447  0.1584 -0.2887
  118SOPE  H12X12502   7.167   5.809   5.871  0.4514  1.5161 -0.7506
  118SOPE  H12Y12503   7.344   5.831   5.901  0.4676 -2.9602  0.7569
  118SOPE  C31312504   7.220   6.006   5.878  0.0400 -0.1999  0.2458
  118SOPE  H13X12505   7.280   6.075   5.941  1.9342  1.4030 -3.0473
  118SOPE  H13Y12506   7.112   6.030   5.887 -0.0023 -0.4860  0.5169
  118SOPE  C31412507   7.270   6.028   5.731  0.2171  0.0962 -0.8421
  118SOPE  H14X12508   7.377   5.999   5.728  0.4130  0.7052 -0.1049
  118SOPE  H14Y12509   7.262   6.132   5.695 -1.3361  0.9679  1.7191
  118SOPE  C31512510   7.195   5.937   5.636  0.3740  0.1688  0.0083
  118SOPE  H15X12511   7.170   5.836   5.672  0.4002  0.6278  1.3486
  118SOPE  H15Y12512   7.262   5.905   5.554 -0.1576 -0.2634 -0.2643
  118SOPE  C31612513   7.059   5.997   5.590 -0.2134  0.6406 -0.3899
  118SOPE  H16X12514   7.075   6.097   5.543  1.6488  0.3804 -0.3894
  118SOPE  H16Y12515   6.998   6.009   5.682  1.5226  3.0217  0.5614
  118SOPE  C31712516   6.978   5.911   5.493 -0.4083 -0.0903  0.4045
  118SOPE  H17X12517   6.888   5.973   5.475 -0.3866  1.0864  3.6939
  118SOPE  H17Y12518   6.942   5.823   5.550  0.6178  0.3587  1.8126
  118SOPE  C31812519   7.040   5.882   5.362 -0.0937 -0.3095  0.8258
  118SOPE  H18X12520   7.134   5.823   5.369 -1.1375 -2.2624 -0.6627
  118SOPE  H18Y12521   7.045   5.968   5.290 -0.3722 -0.4502  0.6350
  118SOPE  H18Z12522   6.968   5.818   5.307  1.8013  0.2808 -2.7000
  119SOPE     N12523   4.026   6.034   7.886  0.2895 -0.8808  0.5268
  119SOPE   HN112524   3.985   6.127   7.908 -0.6022 -1.4177  1.2355
  119SOPE   HN212525   4.082   6.014   7.971  0.7124  0.1625  0.5107
  119SOPE   HN312526   4.076   6.054   7.797 -0.3216  1.1726  0.5810
  119SOPE   C1212527   3.921   5.925   7.864 -0.5259  0.1619 -0.0067
  119SOPE  H12A12528   3.850   5.928   7.950 -1.8525  1.6524 -1.0899
  119SOPE  H12B12529   3.970   5.826   7.851  1.2593  0.6276  2.4573
  119SOPE   C1112530   3.846   5.959   7.741  0.0050  0.3781 -0.3421
  119SOPE  H11A12531   3.779   5.877   7.704  2.6995 -2.8084  1.3636
  119SOPE  H11B12532   3.921   5.960   7.659 -0.2412  2.2036 -0.5829
  119SOPE     P12533   3.652   6.114   7.819  0.0210 -0.1412 -0.0097
  119SOPE   O1312534   3.628   6.241   7.893  0.2354  0.2424  0.1596
  119SOPE   O1412535   3.623   5.995   7.905  0.0639 -0.6746  0.4537
  119SOPE   O1212536   3.791   6.091   7.770 -0.2376 -0.4507  0.5064
  119SOPE   O1112537   3.565   6.104   7.687  0.1175 -0.8462 -1.0870
  119SOPE    C112538   3.545   5.983   7.612  0.2374  0.0227  0.1543
  119SOPE    HA12539   3.503   5.900   7.674 -0.5829 -0.2903 -0.7867
  119SOPE    HB12540   3.640   5.956   7.562  0.5733  0.3539  0.5975
  119SOPE    C212541   3.437   6.007   7.503  0.0921 -0.1508  0.4797
  119SOPE    HS12542   3.341   6.006   7.558  0.6021  0.5222  1.4193
  119SOPE   O2112543   3.441   5.908   7.403  0.0882  0.3566  0.1866
  119SOPE   C2112544   3.330   5.847   7.363  0.2046 -0.0861 -0.3172
  119SOPE   O2212545   3.218   5.861   7.412  0.5637  0.3412 -0.4031
  119SOPE   C2212546   3.361   5.753   7.253  0.2744  0.3145  0.7571
  119SOPE   H2R12547   3.406   5.661   7.295  1.1727  0.3829 -0.0133
  119SOPE   H2S12548   3.448   5.790   7.194  0.0838 -0.0927  0.2186
  119SOPE    C312549   3.430   6.153   7.429 -0.4346 -0.0608  0.7754
  119SOPE    HX12550   3.521   6.155   7.365 -1.3136 -0.9117 -0.5542
  119SOPE    HY12551   3.437   6.235   7.503  0.2732 -0.3971  1.0891
  119SOPE   O3112552   3.315   6.185   7.343  0.1295  0.4857  0.4646
  119SOPE   C3112553   3.204   6.197   7.416 -0.2827  0.3645 -0.6179
  119SOPE   O3212554   3.204   6.200   7.536  0.3948  0.3632 -0.4030
  119SOPE   C3212555   3.079   6.224   7.330 -0.3440 -0.2563  0.1708
  119SOPE   H2X12556   3.005   6.286   7.385 -0.1103 -0.7120  1.0093
  119SOPE   H2Y12557   3.023   6.129   7.312  0.7338 -1.0051  0.6942
  119SOPE   C2312558   3.225   5.720   7.171 -0.5066 -1.2606  0.8636
  119SOPE   H3R12559   3.156   5.807   7.168  0.1656 -0.7518 -0.8386
  119SOPE   H3S12560   3.179   5.626   7.208  0.7808 -2.4393 -0.3798
  119SOPE   C2412561   3.261   5.708   7.018 -0.2302 -0.2031 -0.0776
  119SOPE   H4R12562   3.346   5.638   7.004  0.0250  0.1472 -0.2709
  119SOPE   H4S12563   3.166   5.681   6.968 -0.4054 -1.4414  0.8742
  119SOPE   C2512564   3.288   5.851   6.959 -0.7509 -0.3769 -0.2591
  119SOPE   H5R12565   3.204   5.920   6.983  0.1964  1.0571 -0.8936
  119SOPE   H5S12566   3.375   5.898   7.011 -1.6043  0.1047  0.7768
  119SOPE   C2612567   3.300   5.869   6.807 -0.2073  0.0157  0.2213
  119SOPE   H6R12568   3.310   5.977   6.786 -1.8802 -0.4233 -3.9093
  119SOPE   H6S12569   3.404   5.841   6.778  1.0815  1.5622  3.0398
  119SOPE   C2712570   3.193   5.818   6.716 -0.2837 -0.2297  0.3313
  119SOPE   H7R12571   3.189   5.707   6.721  0.2298 -0.6768 -4.1936
  119SOPE   H7S12572   3.093   5.860   6.742 -0.6064 -0.0792 -1.0564
  119SOPE   C2812573   3.218   5.844   6.568  0.5786 -0.2208 -0.4310
  119SOPE   H8R12574   3.203   5.953   6.550  1.0789  0.4997  2.9566
  119SOPE   H8S12575   3.322   5.815   6.543  0.0619 -0.4974 -2.4640
  119SOPE   C2912576   3.143   5.755   6.470 -0.1451 -0.7635  0.3307
  119SOPE   H9112577   3.152   5.647   6.489 -0.9402 -0.7448  0.8333
  119SOPE  C21012578   3.062   5.800   6.375  1.1254  0.2246 -0.7100
  119SOPE  H10112579   3.019   5.723   6.309  0.6294 -0.2866  0.1808
  119SOPE  C21112580   3.009   5.939   6.344 -0.3999 -0.2764 -0.5032
  119SOPE  H11R12581   3.024   6.008   6.430  2.5633 -0.2255 -0.9349
  119SOPE  H11S12582   2.900   5.940   6.325 -0.2509  1.0729 -1.4518
  119SOPE  C21212583   3.081   5.991   6.222  0.3012 -0.0242 -0.4969
  119SOPE  H12R12584   3.191   5.975   6.231  0.3668 -0.0706 -1.3394
  119SOPE  H12S12585   3.074   6.101   6.217 -0.3408 -0.0101  0.4074
  119SOPE  C21312586   3.034   5.929   6.084  0.4450 -0.5246  0.1429
  119SOPE  H13R12587   2.927   5.956   6.081  0.9354  1.6819  0.8183
  119SOPE  H13S12588   3.041   5.819   6.099 -0.2002 -0.7838 -1.3132
  119SOPE  C21412589   3.114   5.987   5.970 -0.3347  0.9591  0.1733
  119SOPE  H14R12590   3.219   6.008   5.999  0.2459 -0.4841 -0.7547
  119SOPE  H14S12591   3.062   6.080   5.937  1.0969  2.1032  1.0203
  119SOPE  C21512592   3.132   5.892   5.854 -0.6018  0.6721  0.0162
  119SOPE  H15R12593   3.032   5.854   5.825  0.3484 -2.7863  0.8105
  119SOPE  H15S12594   3.185   5.805   5.898  0.1376  1.0623 -0.0893
  119SOPE  C21612595   3.196   5.954   5.726  1.2092  0.3102  0.2371
  119SOPE  H16R12596   3.304   5.978   5.738  1.7592 -0.8038 -1.9683
  119SOPE  H16S12597   3.141   6.045   5.693 -0.2223 -1.0706 -1.3354
  119SOPE  C21712598   3.183   5.855   5.608 -0.3771  0.7194  1.3716
  119SOPE  H17R12599   3.217   5.754   5.640 -1.3372  0.0313  0.2783
  119SOPE  H17S12600   3.252   5.896   5.531  0.3325 -2.2504  0.3106
  119SOPE  C21812601   3.043   5.853   5.547 -0.3408 -0.3494  0.0540
  119SOPE  H18R12602   2.997   5.953   5.548  0.7658  0.2499 -2.1737
  119SOPE  H18S12603   2.966   5.789   5.595 -1.3471  1.8346  1.5141
  119SOPE  H18T12604   3.057   5.832   5.438  1.7590  1.2087 -0.0488
  119SOPE   C3312605   3.108   6.283   7.186  0.3893  0.5266 -0.2241
  119SOPE   H3X12606   3.195   6.235   7.136  0.1281 -0.2629  0.0756
  119SOPE   H3Y12607   3.139   6.390   7.197 -1.5166  0.9665  1.2838
  119SOPE   C3412608   2.985   6.283   7.097 -0.7201  0.4185  0.8518
  119SOPE   H4X12609   2.925   6.367   7.138 -0.3513  0.1799  1.9179
  119SOPE   H4Y12610   2.916   6.196   7.096  1.8325 -1.7201  1.4732
  119SOPE   C3512611   3.028   6.310   6.944  0.4890  0.3534 -0.3069
  119SOPE   H5X12612   3.098   6.229   6.915  0.1169 -0.4702  0.9809
  119SOPE   H5Y12613   3.064   6.414   6.932 -0.2894  0.9713  2.0827
  119SOPE   C3612614   2.900   6.307   6.856 -0.6769  0.4407  0.3374
  119SOPE   H6X12615   2.859   6.409   6.841  1.9081  1.7823  1.7286
  119SOPE   H6Y12616   2.810   6.269   6.910 -0.1116 -0.3734  0.7335
  119SOPE   C3712617   2.918   6.232   6.725 -0.0611  0.3793 -0.0080
  119SOPE   H7X12618   2.918   6.124   6.747  0.3711  0.3994  0.0930
  119SOPE   H7Y12619   3.013   6.269   6.680  1.8575 -0.5053  3.0226
  119SOPE   C3812620   2.799   6.261   6.629  0.9921 -0.0206  0.7412
  119SOPE   H8X12621   2.804   6.369   6.604 -1.6477 -0.3959 -1.9623
  119SOPE   H8Y12622   2.710   6.240   6.692 -1.5399 -0.5566 -2.7582
  119SOPE   C3912623   2.796   6.180   6.495  0.9435 -0.7788 -0.0694
  119SOPE   H9X12624   2.785   6.076   6.533  0.7845  0.1285  2.5306
  119SOPE   H9Y12625   2.886   6.194   6.432  0.4720 -1.3908 -0.9022
  119SOPE  C31012626   2.686   6.227   6.395 -0.2781 -0.4483 -0.5741
  119SOPE  H10X12627   2.686   6.338   6.392  2.6381 -0.3157  0.8665
  119SOPE  H10Y12628   2.587   6.194   6.432 -1.3726  1.8167 -1.3298
  119SOPE  C31112629   2.721   6.162   6.263  0.3204  0.0576  0.6955
  119SOPE  H11X12630   2.700   6.053   6.264  0.7693 -0.0652 -0.7921
  119SOPE  H11Y12631   2.825   6.180   6.227 -0.7678 -0.4045 -3.0923
  119SOPE  C31212632   2.630   6.210   6.147 -0.1618 -0.3692 -0.0422
  119SOPE  H12X12633   2.641   6.320   6.158  0.5780 -0.2611 -1.5822
  119SOPE  H12Y12634   2.522   6.184   6.148  0.0397 -1.2261 -0.0513
  119SOPE  C31312635   2.696   6.182   6.010 -0.1267  0.1286  0.0316
  119SOPE  H13X12636   2.805   6.203   6.004  1.2354 -5.7942 -2.1871
  119SOPE  H13Y12637   2.637   6.240   5.936  0.0025  1.0833  0.6581
  119SOPE  C31412638   2.676   6.038   5.954  0.4320 -0.3645 -0.1232
  119SOPE  H14X12639   2.740   5.972   6.016  1.9823  1.9820  0.9233
  119SOPE  H14Y12640   2.706   6.031   5.847 -2.9349 -1.3486 -1.1030
  119SOPE  C31512641   2.536   5.996   5.944  0.5029 -0.1906  0.4872
  119SOPE  H15X12642   2.479   6.064   5.877  0.6508  1.0635  1.5914
  119SOPE  H15Y12643   2.496   6.005   6.047  0.1257 -1.1332  0.4340
  119SOPE  C31612644   2.512   5.852   5.887 -0.1312  0.0518 -0.5659
  119SOPE  H16X12645   2.603   5.794   5.915 -1.9719 -2.1778  1.1570
  119SOPE  H16Y12646   2.504   5.855   5.777  0.4869 -1.7043 -0.6989
  119SOPE  C31712647   2.394   5.781   5.961 -0.0167 -0.0732 -0.3255
  119SOPE  H17X12648   2.303   5.829   5.920  0.0550  1.8543  1.5600
  119SOPE  H17Y12649   2.398   5.799   6.071  1.4464  0.4187 -0.4390
  119SOPE  C31812650   2.384   5.635   5.932  0.0647 -0.1213 -0.2295
  119SOPE  H18X12651   2.435   5.619   5.835  1.0718 -0.1245  0.2900
  119SOPE  H18Y12652   2.279   5.600   5.933 -0.2942  0.8234  2.1732
  119SOPE  H18Z12653   2.438   5.576   6.010 -0.7798 -3.5928 -2.0834
  120SOPE     N12654   3.402   0.174   8.111  0.6662  0.1084  0.2051
  120SOPE   HN112655   3.462   0.113   8.170 -0.6137 -1.4145  0.0048
  120SOPE   HN212656   3.472   0.243   8.077  2.7758 -1.9290  0.2007
  120SOPE   HN312657   3.335   0.217   8.178  1.4906 -0.4126  1.3969
  120SOPE   C1212658   3.355   0.092   7.988  0.4791 -0.3395 -0.5975
  120SOPE  H12A12659   3.275   0.156   7.946 -1.4422 -0.4096  2.5779
  120SOPE  H12B12660   3.303  -0.001   8.022 -0.3535  0.9497  1.9640
  120SOPE   C1112661   3.478   0.064   7.905  0.0665  0.4428 -0.1921
  120SOPE  H11A12662   3.526   0.156   7.865 -0.6142  0.2250 -1.5562
  120SOPE  H11B12663   3.442   0.030   7.806 -0.9377  1.1923 -0.0984
  120SOPE     P12664   3.714  -0.063   7.907  0.1766  0.2811 -0.1430
  120SOPE   O1312665   3.772  -0.193   7.942  0.1753  0.0451 -0.3417
  120SOPE   O1412666   3.797   0.055   7.935  0.3009  0.1652  0.3614
  120SOPE   O1212667   3.565  -0.035   7.968  0.0446  0.4054 -0.2069
  120SOPE   O1112668   3.702  -0.057   7.745 -0.0601 -0.0656 -0.6305
  120SOPE    C112669   3.642  -0.168   7.675 -0.1323 -0.0942 -0.0302
  120SOPE    HA12670   3.568  -0.146   7.594  0.0949 -0.6806 -0.4038
  120SOPE    HB12671   3.576  -0.227   7.742  0.9264  0.8270  1.8809
  120SOPE    C212672   3.752  -0.269   7.623 -0.2976  0.1612  0.7296
  120SOPE    HS12673   3.842  -0.246   7.685  0.0411  0.0992  0.2656
  120SOPE   O2112674   3.780  -0.245   7.483  0.2762  0.2892  0.3898
  120SOPE   C2112675   3.911  -0.217   7.449  0.3628 -0.3671 -0.0343
  120SOPE   O2212676   4.002  -0.235   7.524  0.3028  0.2064  0.4710
  120SOPE   C2212677   3.919  -0.153   7.308 -0.4231  0.1776 -0.2781
  120SOPE   H2R12678   4.028  -0.138   7.290 -0.0774 -2.2282 -0.6197
  120SOPE   H2S12679   3.871  -0.055   7.327  1.0298  0.4504  2.4584
  120SOPE    C312680   3.722  -0.416   7.644 -1.1459  0.2359  0.0086
  120SOPE    HX12681   3.622  -0.421   7.595 -0.6999  0.4557 -0.9436
  120SOPE    HY12682   3.710  -0.439   7.752 -0.3683 -0.2558 -0.0045
  120SOPE   O3112683   3.818  -0.505   7.589 -0.0740  0.5897 -0.5235
  120SOPE   C3112684   3.784  -0.587   7.490  0.1259  0.9300 -0.5532
  120SOPE   O3212685   3.680  -0.583   7.430  0.0932  0.2854 -0.6785
  120SOPE   C3212686   3.898  -0.683   7.453  0.5659 -0.4389 -0.0880
  120SOPE   H2X12687   3.845  -0.778   7.427  0.0204  0.2861 -1.7465
  120SOPE   H2Y12688   3.955  -0.697   7.547  1.0186 -2.0492 -0.5658
  120SOPE   C2312689   3.858  -0.239   7.195 -0.2058  0.1808 -0.3874
  120SOPE   H3R12690   3.755  -0.262   7.228 -0.0613  1.4003  1.0249
  120SOPE   H3S12691   3.923  -0.329   7.186  2.3452  1.8595  0.2488
  120SOPE   C2412692   3.854  -0.163   7.058 -0.1494 -0.5283  0.3276
  120SOPE   H4R12693   3.790  -0.073   7.063 -2.3182 -1.9794  0.2722
  120SOPE   H4S12694   3.955  -0.128   7.028 -1.0921  0.4024 -1.9900
  120SOPE   C2512695   3.811  -0.258   6.940  0.5427 -0.5429  0.2864
  120SOPE   H5R12696   3.877  -0.347   6.956  0.7002 -0.6233 -0.7345
  120SOPE   H5S12697   3.709  -0.293   6.968  0.4769  0.4526  1.3436
  120SOPE   C2612698   3.829  -0.198   6.799 -0.1104  0.4459  0.3739
  120SOPE   H6R12699   3.783  -0.097   6.806 -1.3728 -0.0423 -0.6065
  120SOPE   H6S12700   3.935  -0.191   6.766 -0.2022  0.5687  0.1030
  120SOPE   C2712701   3.740  -0.280   6.703 -0.0015  0.2975 -0.1400
  120SOPE   H7R12702   3.775  -0.385   6.696  2.5157  1.1804 -2.4633
  120SOPE   H7S12703   3.634  -0.259   6.729  0.3937  0.6993  1.2155
  120SOPE   C2812704   3.741  -0.221   6.567  0.5265  0.5965  0.1854
  120SOPE   H8R12705   3.684  -0.126   6.560  0.5171  0.4963 -1.4648
  120SOPE   H8S12706   3.845  -0.207   6.532  0.1207 -0.1786 -1.4433
  120SOPE   C2912707   3.650  -0.303   6.469  0.1872  0.1614 -0.3569
  120SOPE   H9112708   3.570  -0.364   6.515 -0.3270  1.7349  0.9502
  120SOPE  C21012709   3.656  -0.308   6.333  0.5086  0.0074  0.4721
  120SOPE  H10112710   3.591  -0.370   6.270  0.2381 -1.9090  2.5472
  120SOPE  C21112711   3.752  -0.220   6.253 -0.3089  0.0495 -0.4315
  120SOPE  H11R12712   3.782  -0.123   6.298  0.5710 -0.7123  0.6816
  120SOPE  H11S12713   3.725  -0.205   6.146 -0.7779  2.3945 -0.0560
  120SOPE  C21212714   3.884  -0.297   6.242 -0.1315 -0.1775  0.6872
  120SOPE  H12R12715   3.930  -0.322   6.340  1.4850 -0.2223 -0.0560
  120SOPE  H12S12716   3.957  -0.227   6.197 -2.7447  1.2708 -1.6765
  120SOPE  C21312717   3.870  -0.423   6.147  0.0484  0.2570 -0.5214
  120SOPE  H13R12718   3.775  -0.474   6.175 -2.3948  4.4509 -0.2052
  120SOPE  H13S12719   3.946  -0.501   6.168 -3.0912 -2.3253  2.3726
  120SOPE  C21412720   3.866  -0.384   6.001  0.0283 -0.8236 -0.1966
  120SOPE  H14R12721   3.949  -0.317   5.970  0.6603 -0.7739  1.5170
  120SOPE  H14S12722   3.765  -0.339   5.987 -0.5534 -2.0207 -0.0734
  120SOPE  C21512723   3.873  -0.505   5.909  0.2291 -0.2807 -0.1422
  120SOPE  H15R12724   3.789  -0.573   5.936  0.9015 -0.8729  0.4601
  120SOPE  H15S12725   3.974  -0.549   5.920  1.3507  2.1112 -0.2417
  120SOPE  C21612726   3.883  -0.450   5.761 -0.9385 -0.1040 -0.1019
  120SOPE  H16R12727   3.981  -0.399   5.752 -2.1027  2.8605  2.2156
  120SOPE  H16S12728   3.811  -0.366   5.755 -0.0272  0.6707 -0.2479
  120SOPE  C21712729   3.856  -0.553   5.660  0.3977  0.2832  0.7005
  120SOPE  H17R12730   3.897  -0.524   5.561 -1.7523  1.9200  0.2275
  120SOPE  H17S12731   3.750  -0.584   5.648  0.8121 -0.2170 -2.9898
  120SOPE  C21812732   3.934  -0.686   5.688 -0.0354 -0.1842  0.5008
  120SOPE  H18R12733   4.043  -0.665   5.685  0.1094 -0.7726  1.2232
  120SOPE  H18S12734   3.907  -0.758   5.608  0.3827  1.0433 -0.7933
  120SOPE  H18T12735   3.909  -0.727   5.788 -4.7028  1.3802  0.2336
  120SOPE   C3312736   3.987  -0.628   7.344 -0.0569 -0.0578 -0.1301
  120SOPE   H3X12737   4.082  -0.685   7.345  1.6693  2.6480  0.6841
  120SOPE   H3Y12738   4.013  -0.520   7.355  0.7744 -0.2440 -0.2084
  120SOPE   C3412739   3.920  -0.645   7.210 -0.2092 -0.0252  0.2616
  120SOPE   H4X12740   3.822  -0.592   7.220 -0.7198 -0.7496 -0.6969
  120SOPE   H4Y12741   3.897  -0.753   7.196 -0.1355 -0.1912  1.3728
  120SOPE   C3512742   4.012  -0.604   7.096 -1.0929 -0.1460  0.0640
  120SOPE   H5X12743   4.114  -0.641   7.119 -1.3915 -1.4744 -0.6520
  120SOPE   H5Y12744   4.019  -0.494   7.104  0.7007 -0.0911 -1.5802
  120SOPE   C3612745   3.955  -0.634   6.954  0.1562 -0.2401 -0.1440
  120SOPE   H6X12746   3.852  -0.592   6.952  0.8982  1.7481  0.8422
  120SOPE   H6Y12747   3.953  -0.743   6.929  2.3717 -0.9603  2.4042
  120SOPE   C3712748   4.024  -0.569   6.835 -0.1045 -0.1588 -0.3841
  120SOPE   H7X12749   4.133  -0.579   6.849 -0.2272  0.6363  1.5397
  120SOPE   H7Y12750   4.013  -0.458   6.843  0.6276 -0.1198  0.1704
  120SOPE   C3812751   3.970  -0.609   6.692 -0.9743 -0.5028 -0.4828
  120SOPE   H8X12752   3.866  -0.573   6.674 -0.3503  0.8414 -1.5937
  120SOPE   H8Y12753   3.976  -0.718   6.671 -2.5324 -0.3060 -2.2456
  120SOPE   C3912754   4.044  -0.543   6.573 -0.0627 -0.4068  0.1307
  120SOPE   H9X12755   4.154  -0.555   6.585 -0.3578 -2.0210  1.6008
  120SOPE   H9Y12756   4.011  -0.437   6.570 -0.3841 -0.5169 -2.4452
  120SOPE  C31012757   3.987  -0.585   6.437 -0.1613  0.1988  0.0552
  120SOPE  H10X12758   4.037  -0.536   6.351 -0.3629 -1.0716 -0.8169
  120SOPE  H10Y12759   3.881  -0.554   6.429 -0.0177  0.5267 -0.6021
  120SOPE  C31112760   3.992  -0.736   6.408  0.1930 -0.0036  0.3326
  120SOPE  H11X12761   3.943  -0.788   6.493  0.2533  0.9815  0.9893
  120SOPE  H11Y12762   4.101  -0.756   6.411 -0.1400 -1.9899  0.7310
  120SOPE  C31212763   3.924  -0.788   6.283 -0.2713 -0.6413 -0.6142
  120SOPE  H12X12764   3.973  -0.766   6.186  0.8345 -1.1990 -0.2029
  120SOPE  H12Y12765   3.826  -0.739   6.265  0.4645  0.4425 -1.7895
  120SOPE  C31312766   3.904  -0.942   6.294  1.1072  0.5604  0.4108
  120SOPE  H13X12767   3.852  -0.966   6.389  2.0741 -3.2948  0.1068
  120SOPE  H13Y12768   4.005  -0.987   6.298  0.6152 -0.9421 -2.1412
  120SOPE  C31412769   3.818  -1.004   6.191  0.0934  0.1830  0.4103
  120SOPE  H14X12770   3.720  -0.952   6.184 -0.1341  0.0030  2.0062
  120SOPE  H14Y12771   3.798  -1.112   6.209 -0.0971  0.1742  0.1603
  120SOPE  C31512772   3.878  -1.010   6.043 -0.3735 -0.0130 -0.3462
  120SOPE  H15X12773   3.913  -0.906   6.023 -1.2537  1.0289  2.9851
  120SOPE  H15Y12774   3.800  -1.047   5.972  0.4287  1.5518 -2.1410
  120SOPE  C31612775   4.000  -1.097   6.048 -0.4267 -0.2286  0.0008
  120SOPE  H16X12776   3.985  -1.201   6.085 -2.3554  0.3972  1.1780
  120SOPE  H16Y12777   4.078  -1.061   6.118 -0.7858  0.1779  0.2015
  120SOPE  C31712778   4.057  -1.109   5.909  0.1504 -0.3295 -0.5766
  120SOPE  H17X12779   4.101  -1.010   5.881 -1.3995  0.2043 -1.2315
  120SOPE  H17Y12780   3.970  -1.130   5.843 -0.8373  0.4173  0.4433
  120SOPE  C31812781   4.168  -1.213   5.896 -0.3246  0.5965  0.8393
  120SOPE  H18X12782   4.137  -1.310   5.940  3.6579 -1.8420 -1.0848
  120SOPE  H18Y12783   4.256  -1.183   5.956  0.9684 -0.5937 -0.3579
  120SOPE  H18Z12784   4.195  -1.234   5.790  1.1916 -2.1935  1.6617
  121SOPE     N12785   0.928   0.027   7.687 -0.0055 -0.7140 -0.2261
  121SOPE   HN112786   0.934   0.104   7.758 -0.0733 -1.2325  0.3500
  121SOPE   HN212787   0.901   0.063   7.593 -0.1679 -0.5920 -0.1321
  121SOPE   HN312788   0.858  -0.048   7.701  1.4713 -2.6857 -2.5769
  121SOPE   C1212789   1.066  -0.043   7.675  0.2300  0.3225 -0.9997
  121SOPE  H12A12790   1.081  -0.091   7.774 -0.5769 -1.0041 -1.4858
  121SOPE  H12B12791   1.134   0.044   7.669 -1.4570  1.9819  1.8605
  121SOPE   C1112792   1.068  -0.155   7.569  0.1821  0.6225 -0.3803
  121SOPE  H11A12793   1.153  -0.219   7.600 -0.2865  1.0609  2.0433
  121SOPE  H11B12794   1.092  -0.107   7.472  2.9927  0.1822  0.0261
  121SOPE     P12795   0.954  -0.383   7.524 -0.1771  0.1833  0.2343
  121SOPE   O1312796   0.819  -0.440   7.485 -0.3614 -0.3370 -0.2130
  121SOPE   O1412797   1.021  -0.465   7.625 -0.2923  0.5741 -0.3311
  121SOPE   O1212798   0.948  -0.228   7.565  0.1887 -0.1496 -0.5067
  121SOPE   O1112799   1.048  -0.370   7.407  0.8285  0.3163  0.2057
  121SOPE    C112800   1.029  -0.452   7.285  0.6027 -1.0065 -0.0876
  121SOPE    HA12801   0.924  -0.480   7.260 -0.5068  2.3931  0.2631
  121SOPE    HB12802   1.086  -0.545   7.305  0.9334 -0.7014  0.4339
  121SOPE    C212803   1.084  -0.375   7.165  0.3823  0.2387  0.6420
  121SOPE    HS12804   1.193  -0.361   7.182  0.5415  0.5666 -0.5331
  121SOPE   O2112805   1.015  -0.252   7.149 -0.0166  0.0969  0.0399
  121SOPE   C2112806   1.078  -0.155   7.093 -0.0917  0.1477 -0.1394
  121SOPE   O2212807   1.190  -0.162   7.049 -0.3991 -0.0242  0.2017
  121SOPE   C2212808   0.987  -0.029   7.095 -0.5236 -0.4210  0.1578
  121SOPE   H2R12809   1.004   0.022   7.193  0.7198 -1.0050  0.2695
  121SOPE   H2S12810   0.878  -0.050   7.086 -0.7430 -0.2654  1.9338
  121SOPE    C312811   1.067  -0.463   7.034  0.1010 -0.1905 -0.4657
  121SOPE    HX12812   0.958  -0.472   7.014 -0.0207  1.5554 -0.7626
  121SOPE    HY12813   1.114  -0.562   7.054  0.4986  0.3159  1.2414
  121SOPE   O3112814   1.115  -0.396   6.913 -0.4155  0.3998  0.1098
  121SOPE   C3112815   1.232  -0.441   6.876  0.7794 -0.3991  0.3768
  121SOPE   O3212816   1.300  -0.518   6.935 -0.5349 -0.2264  0.1441
  121SOPE   C3212817   1.269  -0.391   6.737  0.6537 -0.6080  0.5704
  121SOPE   H2X12818   1.377  -0.409   6.721  0.7460  0.2033  0.2483
  121SOPE   H2Y12819   1.260  -0.280   6.739  1.5886 -0.5276  0.5514
  121SOPE   C2312820   1.022   0.076   6.989  0.2216  0.0404 -0.8252
  121SOPE   H3R12821   1.133   0.085   6.988  0.2506 -0.3046 -0.7906
  121SOPE   H3S12822   0.983   0.177   7.016 -0.5577 -0.6855  0.9491
  121SOPE   C2412823   0.974   0.038   6.846  0.3577  0.0309 -0.3188
  121SOPE   H4R12824   0.997  -0.066   6.816  0.8527  0.3085 -0.9235
  121SOPE   H4S12825   0.864   0.050   6.837  0.3271 -0.7082 -1.0139
  121SOPE   C2512826   1.035   0.138   6.747 -0.0347  0.5342  0.0807
  121SOPE   H5R12827   0.965   0.223   6.740  1.0033  1.3723 -0.4521
  121SOPE   H5S12828   1.137   0.165   6.781 -0.4731  1.2171  0.8877
  121SOPE   C2612829   1.042   0.093   6.608  0.0773 -0.2722  1.2530
  121SOPE   H6R12830   1.084   0.166   6.536  0.6868 -2.3797 -0.6263
  121SOPE   H6S12831   1.123   0.017   6.611 -0.0479 -0.7393 -2.4366
  121SOPE   C2712832   0.920   0.025   6.545 -0.5277  0.0387 -0.3381
  121SOPE   H7R12833   0.898  -0.071   6.597 -2.3729  0.2899 -0.5589
  121SOPE   H7S12834   0.831   0.092   6.549 -1.5129 -1.2785  0.8603
  121SOPE   C2812835   0.931  -0.025   6.401  0.1976  0.7869 -0.6252
  121SOPE   H8R12836   0.836  -0.072   6.367 -0.2948  0.8321  0.6314
  121SOPE   H8S12837   0.937   0.076   6.354  0.7929  1.5264  0.9454
  121SOPE   C2912838   1.053  -0.113   6.384 -0.3940 -0.1657  0.0347
  121SOPE   H9112839   1.078  -0.182   6.466  2.1691  0.5610 -0.0598
  121SOPE  C21012840   1.146  -0.104   6.287 -0.4570 -0.6161  0.5263
  121SOPE  H10112841   1.239  -0.163   6.280  0.1575  0.5084 -1.5963
  121SOPE  C21112842   1.126  -0.015   6.173 -0.2735 -0.0575 -0.4577
  121SOPE  H11R12843   1.214   0.052   6.170 -0.3815  0.0874 -0.4137
  121SOPE  H11S12844   1.037   0.051   6.178 -0.5496 -0.4424 -0.2099
  121SOPE  C21212845   1.097  -0.093   6.041 -0.4960  0.4603  0.3741
  121SOPE  H12R12846   1.009  -0.161   6.049 -0.2467  0.2824  2.0823
  121SOPE  H12S12847   1.186  -0.159   6.034  1.1070  2.3850  1.7218
  121SOPE  C21312848   1.092   0.012   5.921  0.3017  0.0983  0.9705
  121SOPE  H13R12849   1.183   0.075   5.931  1.7931 -1.7499 -0.2489
  121SOPE  H13S12850   1.006   0.081   5.928  0.1840 -0.0034  0.5349
  121SOPE  C21412851   1.090  -0.058   5.783  0.8648 -1.0907 -0.0886
  121SOPE  H14R12852   1.056   0.017   5.708 -0.3114 -1.3560  0.1691
  121SOPE  H14S12853   1.016  -0.138   5.801 -0.9116  0.7133  1.1186
  121SOPE  C21512854   1.223  -0.108   5.740  0.9277 -0.0472 -0.0714
  121SOPE  H15R12855   1.248  -0.187   5.815  0.1886 -0.2260 -0.0003
  121SOPE  H15S12856   1.308  -0.037   5.743 -0.2763  1.4268  0.3259
  121SOPE  C21612857   1.204  -0.160   5.597 -0.4943  0.4489  0.2629
  121SOPE  H16R12858   1.110  -0.218   5.606 -0.9241  1.0135 -0.5032
  121SOPE  H16S12859   1.282  -0.233   5.566  0.5532  1.4102  0.5593
  121SOPE  C21712860   1.191  -0.050   5.493 -0.7685 -1.0616 -0.6476
  121SOPE  H17R12861   1.282   0.011   5.473 -1.5927  0.6667  0.6125
  121SOPE  H17S12862   1.111   0.024   5.516 -1.0139 -1.0079 -1.6201
  121SOPE  C21812863   1.154  -0.121   5.362  0.2035 -0.4904  0.2717
  121SOPE  H18R12864   1.078  -0.200   5.382 -1.6298  0.4580 -2.4633
  121SOPE  H18S12865   1.245  -0.175   5.327 -0.1780 -1.0549  0.1348
  121SOPE  H18T12866   1.121  -0.036   5.300 -1.1634  0.5945  2.3479
  121SOPE   C3312867   1.183  -0.455   6.626  0.0309 -0.1942  0.7135
  121SOPE   H3X12868   1.095  -0.388   6.636  1.4317  1.7300  0.8370
  121SOPE   H3Y12869   1.151  -0.559   6.647  0.3997 -0.1600  1.5267
  121SOPE   C3412870   1.247  -0.432   6.484  0.8082 -0.5253 -0.1445
  121SOPE   H4X12871   1.341  -0.491   6.482  1.0880 -0.0700 -0.4725
  121SOPE   H4Y12872   1.277  -0.325   6.478 -0.6619 -0.0351  0.7437
  121SOPE   C3512873   1.161  -0.453   6.358 -0.0675 -0.1566 -0.5423
  121SOPE   H5X12874   1.077  -0.381   6.352  0.3969  0.3308 -1.3650
  121SOPE   H5Y12875   1.100  -0.545   6.374 -1.6344  0.9056 -0.1768
  121SOPE   C3612876   1.240  -0.481   6.231  0.2052 -0.2434  0.2660
  121SOPE   H6X12877   1.290  -0.580   6.239 -0.2336 -0.4859  0.0423
  121SOPE   H6Y12878   1.315  -0.401   6.214  0.1991 -0.3783 -0.4217
  121SOPE   C3712879   1.156  -0.468   6.100 -0.0278  0.1166 -0.0858
  121SOPE   H7X12880   1.103  -0.372   6.083  0.0169 -0.1508 -1.8657
  121SOPE   H7Y12881   1.086  -0.553   6.092  2.3192 -1.9524  0.1376
  121SOPE   C3812882   1.244  -0.494   5.976  0.1944  0.0603  0.1840
  121SOPE   H8X12883   1.284  -0.598   5.980  1.2809  0.4831  1.1013
  121SOPE   H8Y12884   1.328  -0.421   5.971 -0.7430  1.2818  1.5282
  121SOPE   C3912885   1.164  -0.504   5.848  0.7253 -0.3396 -0.2642
  121SOPE   H9X12886   1.118  -0.404   5.836 -1.0688 -1.1108 -0.1869
  121SOPE   H9Y12887   1.079  -0.576   5.846  0.3940  0.0565 -0.8704
  121SOPE  C31012888   1.248  -0.553   5.729 -0.5695  0.3219  0.3232
  121SOPE  H10X12889   1.288  -0.654   5.755 -0.3204  0.5912  0.9985
  121SOPE  H10Y12890   1.325  -0.478   5.700  0.5397 -0.8828  0.0564
  121SOPE  C31112891   1.174  -0.582   5.591 -0.0637 -0.3277  0.3166
  121SOPE  H11X12892   1.122  -0.492   5.551 -1.3801 -1.3544 -0.3846
  121SOPE  H11Y12893   1.109  -0.669   5.616  1.5608 -1.4407  0.8266
  121SOPE  C31212894   1.255  -0.651   5.478 -1.3386 -0.4729  0.4408
  121SOPE  H12X12895   1.269  -0.761   5.493  1.0479 -0.5618 -1.6414
  121SOPE  H12Y12896   1.359  -0.612   5.483 -1.5263 -0.1319  2.6940
  121SOPE  C31312897   1.210  -0.621   5.338  0.4438 -0.0164 -0.7694
  121SOPE  H13X12898   1.283  -0.651   5.260 -0.0577 -0.4417 -1.0880
  121SOPE  H13Y12899   1.196  -0.511   5.325  0.6569  0.0708 -0.2788
  121SOPE  C31412900   1.070  -0.697   5.309 -0.2592  0.4482 -0.4515
  121SOPE  H14X12901   1.002  -0.660   5.389 -0.1638  2.2207 -1.1307
  121SOPE  H14Y12902   1.091  -0.806   5.311  1.6594  0.7725 -0.7627
  121SOPE  C31512903   1.019  -0.657   5.171 -0.1929  0.1481  0.6502
  121SOPE  H15X12904   1.104  -0.671   5.101  0.7159 -2.0127  2.0697
  121SOPE  H15Y12905   0.988  -0.551   5.163 -1.8172 -0.3986 -1.1585
  121SOPE  C31612906   0.917  -0.750   5.122 -0.3488  0.7022  0.7916
  121SOPE  H16X12907   0.825  -0.729   5.181 -0.0369  0.8266  1.2375
  121SOPE  H16Y12908   0.952  -0.853   5.144 -0.0097  0.5357 -0.4637
  121SOPE  C31712909   0.878  -0.745   4.972  0.4410  0.3564  0.3109
  121SOPE  H17X12910   0.792  -0.812   4.954 -0.0290  0.0610  3.2309
  121SOPE  H17Y12911   0.965  -0.784   4.915  1.0075  1.6272  0.2572
  121SOPE  C31812912   0.847  -0.606   4.911 -0.4244  0.1665 -0.3527
  121SOPE  H18X12913   0.743  -0.578   4.941 -1.1522 -0.3584 -2.2085
  121SOPE  H18Y12914   0.851  -0.608   4.800  1.0440  1.2105 -0.3349
  121SOPE  H18Z12915   0.925  -0.538   4.950  0.9893 -0.3785 -2.1052
  122SOPE     N12916   1.860   6.228   7.605  0.0401 -0.1091 -0.0784
  122SOPE   HN112917   1.764   6.268   7.603 -0.3957 -0.8159  3.0359
  122SOPE   HN212918   1.906   6.258   7.516  0.1025 -2.8594 -1.0491
  122SOPE   HN312919   1.852   6.125   7.601  0.5123 -0.1254 -0.8892
  122SOPE   C1212920   1.951   6.270   7.709 -0.0725 -0.0810  0.3121
  122SOPE  H12A12921   1.915   6.233   7.807 -0.5701  0.3344  0.2902
  122SOPE  H12B12922   1.952   6.381   7.716  1.6831 -0.0584  0.1528
  122SOPE   C1112923   2.090   6.219   7.686  0.5965 -0.3374 -0.3608
  122SOPE  H11A12924   2.096   6.108   7.691  2.8319 -0.2352  0.6553
  122SOPE  H11B12925   2.136   6.260   7.778 -1.4437  0.8942  0.1710
  122SOPE     P12926   2.299   6.255   7.533  0.3577 -0.3830 -0.1158
  122SOPE   O1312927   2.378   6.269   7.652 -0.3307 -0.1749  0.3129
  122SOPE   O1412928   2.332   6.330   7.409 -0.3713 -0.2017 -0.0033
  122SOPE   O1212929   2.146   6.285   7.576 -0.2254  0.4752  0.2210
  122SOPE   O1112930   2.286   6.102   7.499  0.3318  0.1273  0.0827
  122SOPE    C112931   2.188   6.061   7.403 -0.0848  0.8687  0.6419
  122SOPE    HA12932   2.141   6.139   7.340  0.2802  1.2004  0.7731
  122SOPE    HB12933   2.107   6.011   7.461  0.9708 -2.7209 -0.7430
  122SOPE    C212934   2.245   5.957   7.304 -0.0196 -0.3070 -0.2099
  122SOPE    HS12935   2.274   5.865   7.358  1.6078 -1.4352 -2.7883
  122SOPE   O2112936   2.355   6.017   7.233  0.3815  0.4827  0.4822
  122SOPE   C2112937   2.471   6.020   7.294 -0.9064  0.3939 -0.1287
  122SOPE   O2212938   2.502   5.954   7.393  0.4205 -0.4088 -0.4271
  122SOPE   C2212939   2.560   6.124   7.236  0.0942 -0.7209 -0.9792
  122SOPE   H2R12940   2.614   6.168   7.323 -0.8977 -0.8949 -0.2595
  122SOPE   H2S12941   2.500   6.212   7.205  0.1089  0.0645  1.0505
  122SOPE    C312942   2.130   5.904   7.212 -0.1345  0.5432  0.2585
  122SOPE    HX12943   2.048   5.872   7.280 -0.4065  0.9024  0.1059
  122SOPE    HY12944   2.181   5.815   7.170  0.4312  0.6587  0.6907
  122SOPE   O3112945   2.085   5.999   7.114 -0.0518 -0.3461 -0.5624
  122SOPE   C3112946   1.996   5.944   7.036  0.4479  0.4702 -0.3128
  122SOPE   O3212947   1.956   5.827   7.049  0.7461 -0.8304  0.1173
  122SOPE   C3212948   1.952   6.049   6.935  0.1404 -0.4554  0.2872
  122SOPE   H2X12949   2.040   6.075   6.872 -1.7437  0.1084 -2.2865
  122SOPE   H2Y12950   1.930   6.145   6.985  0.0771 -0.6713  0.6802
  122SOPE   C2312951   2.659   6.085   7.130  0.1906  0.1557 -0.7262
  122SOPE   H3R12952   2.726   6.007   7.172  0.4640  0.0150 -1.4040
  122SOPE   H3S12953   2.726   6.172   7.115  1.8621 -0.9920 -0.2685
  122SOPE   C2412954   2.589   6.038   6.998  0.1401  0.0470  0.4900
  122SOPE   H4R12955   2.512   5.960   7.012 -1.2184  1.2189 -0.1877
  122SOPE   H4S12956   2.546   6.128   6.948  1.0894  0.0652 -0.3402
  122SOPE   C2512957   2.697   5.973   6.911  0.1838 -0.1094  0.0460
  122SOPE   H5R12958   2.783   6.043   6.903 -1.1466  1.7515  1.3128
  122SOPE   H5S12959   2.729   5.882   6.966  0.4596 -0.0686 -0.0433
  122SOPE   C2612960   2.642   5.927   6.778  0.0010  0.1557  0.1522
  122SOPE   H6R12961   2.540   5.890   6.799  0.2403  0.1742  1.4149
  122SOPE   H6S12962   2.640   6.010   6.704  1.2849 -2.0756 -2.6200
  122SOPE   C2712963   2.708   5.806   6.708 -0.1794 -0.0458  0.3758
  122SOPE   H7R12964   2.793   5.855   6.656 -1.7840  2.0974 -0.4139
  122SOPE   H7S12965   2.768   5.747   6.780  2.1743 -1.6262 -2.6584
  122SOPE   C2812966   2.620   5.714   6.620  0.3829 -0.2394 -0.1967
  122SOPE   H8R12967   2.682   5.652   6.552  0.7364  0.5889 -0.6417
  122SOPE   H8S12968   2.568   5.645   6.690  0.6964  0.4254  0.7151
  122SOPE   C2912969   2.512   5.787   6.538 -0.3528 -0.5894  0.3916
  122SOPE   H9112970   2.460   5.866   6.595  1.0541  0.8281 -0.2014
  122SOPE  C21012971   2.480   5.757   6.406 -0.4366  0.2405  0.0809
  122SOPE  H10112972   2.400   5.817   6.360  0.5348  2.7264  1.4233
  122SOPE  C21112973   2.537   5.640   6.326 -0.5349 -0.5158  0.2554
  122SOPE  H11R12974   2.456   5.595   6.264 -1.7708  0.2411  1.2690
  122SOPE  H11S12975   2.574   5.563   6.397 -1.4811 -0.6294  0.6441
  122SOPE  C21212976   2.655   5.687   6.244 -0.9104  0.3410 -0.3677
  122SOPE  H12R12977   2.722   5.728   6.323 -0.3541  0.8681 -1.0992
  122SOPE  H12S12978   2.617   5.770   6.179 -3.7651  0.2122  0.9642
  122SOPE  C21312979   2.713   5.576   6.159 -0.1770  0.0083 -0.0973
  122SOPE  H13R12980   2.633   5.534   6.094 -1.3301  0.0335  1.2646
  122SOPE  H13S12981   2.752   5.494   6.222  0.9565 -0.5733 -1.4893
  122SOPE  C21412982   2.817   5.625   6.060 -0.0945  0.1418 -0.0827
  122SOPE  H14R12983   2.902   5.684   6.099  0.5002 -0.8373  0.1293
  122SOPE  H14S12984   2.770   5.698   5.990  0.7349 -0.0592 -0.8590
  122SOPE  C21512985   2.875   5.506   5.976  0.3624 -0.1011 -0.0694
  122SOPE  H15R12986   2.793   5.470   5.911  1.2019 -1.1883 -0.5615
  122SOPE  H15S12987   2.915   5.431   6.048  1.9671  0.0834 -0.7140
  122SOPE  C21612988   2.995   5.547   5.884  0.4790  0.4388  0.3341
  122SOPE  H16R12989   3.072   5.603   5.941  0.2125  0.7002  0.4376
  122SOPE  H16S12990   2.964   5.606   5.796  0.9952 -0.9634 -0.8320
  122SOPE  C21712991   3.062   5.420   5.829 -0.7839  0.3044  0.2694
  122SOPE  H17R12992   2.989   5.368   5.763  0.1617  0.0385 -0.6056
  122SOPE  H17S12993   3.082   5.351   5.914 -1.2816 -0.9027 -0.5493
  122SOPE  C21812994   3.194   5.450   5.753  0.6095  0.3874 -0.4671
  122SOPE  H18R12995   3.272   5.499   5.816 -1.0578 -0.0556  2.1261
  122SOPE  H18S12996   3.171   5.506   5.660  2.3951 -0.7258 -1.6408
  122SOPE  H18T12997   3.234   5.354   5.716  1.9168  1.0280 -0.7732
  122SOPE   C3312998   1.840   5.998   6.846  0.1349 -0.1211 -0.1394
  122SOPE   H3X12999   1.743   6.051   6.861  0.0839  0.0431 -1.0325
  122SOPE   H3Y13000   1.831   5.888   6.856  0.8451 -0.3078 -1.3647
  122SOPE   C3413001   1.872   6.034   6.699  0.2278  0.5082 -0.0261
  122SOPE   H4X13002   1.972   5.992   6.675  0.6964  1.7027 -0.2856
  122SOPE   H4Y13003   1.887   6.144   6.705  0.3432  0.5238 -0.5221
  122SOPE   C3513004   1.758   5.997   6.600  0.2004 -0.3016  0.5227
  122SOPE   H5X13005   1.666   6.054   6.627  0.0890 -0.6791  0.9641
  122SOPE   H5Y13006   1.725   5.893   6.625 -1.4004  0.4907  1.9571
  122SOPE   C3613007   1.794   6.014   6.457 -1.2459  0.5413 -0.7157
  122SOPE   H6X13008   1.881   5.952   6.428 -0.5935  1.5027 -0.8378
  122SOPE   H6Y13009   1.841   6.114   6.442  0.5629 -0.2105 -0.2635
  122SOPE   C3713010   1.682   5.991   6.359 -0.4726 -0.0520  0.3033
  122SOPE   H7X13011   1.604   6.060   6.396 -1.6192 -0.1364 -1.8315
  122SOPE   H7Y13012   1.646   5.886   6.366 -2.5219  0.3152 -2.6669
  122SOPE   C3813013   1.714   6.034   6.212  0.4168 -0.6762  0.8484
  122SOPE   H8X13014   1.803   5.977   6.176  0.9065  0.4005  0.2697
  122SOPE   H8Y13015   1.759   6.136   6.215  1.6389 -1.1026 -0.9313
  122SOPE   C3913016   1.595   5.998   6.116  0.2560 -0.2931 -0.0893
  122SOPE   H9X13017   1.513   6.072   6.127  1.1634  0.4602  1.9611
  122SOPE   H9Y13018   1.557   5.900   6.154  0.6125  0.5421  2.6037
  122SOPE  C31013019   1.641   5.988   5.969  0.0102  0.6642  0.3005
  122SOPE  H10X13020   1.663   5.885   5.934 -4.2930  0.1915 -1.7434
  122SOPE  H10Y13021   1.739   6.037   5.950  0.0019  0.3751 -0.5509
  122SOPE  C31113022   1.527   6.033   5.875  1.0167 -0.1215 -0.1023
  122SOPE  H11X13023   1.500   6.140   5.891 -1.6129 -0.8742  0.9863
  122SOPE  H11Y13024   1.446   5.964   5.907  1.5239 -0.0870  1.3627
  122SOPE  C31213025   1.562   5.996   5.727 -0.2406 -0.2083 -0.0683
  122SOPE  H12X13026   1.475   6.034   5.669  0.6983  3.6088  0.7371
  122SOPE  H12Y13027   1.574   5.886   5.716  1.9897 -0.1108  0.8722
  122SOPE  C31313028   1.671   6.087   5.674 -0.8457  0.2063  0.3193
  122SOPE  H13X13029   1.767   6.062   5.726 -0.5454  0.5553 -0.0634
  122SOPE  H13Y13030   1.645   6.190   5.706 -1.7374 -0.4195  1.7290
  122SOPE  C31413031   1.681   6.081   5.522 -0.8883 -0.0606 -0.0539
  122SOPE  H14X13032   1.580   6.101   5.481 -0.3615  0.2933 -1.2298
  122SOPE  H14Y13033   1.722   5.980   5.504  1.5847  0.5494  1.4892
  122SOPE  C31513034   1.787   6.187   5.473  0.0888 -1.3324 -0.2753
  122SOPE  H15X13035   1.891   6.155   5.497  0.0337 -1.0577  0.3545
  122SOPE  H15Y13036   1.762   6.280   5.529  1.6560 -1.0201 -0.0640
  122SOPE  C31613037   1.777   6.186   5.324  0.1042 -0.0622 -0.2549
  122SOPE  H16X13038   1.671   6.214   5.301 -0.2002  0.1734  1.3355
  122SOPE  H16Y13039   1.793   6.086   5.280  1.3729 -0.2279  0.5403
  122SOPE  C31713040   1.857   6.298   5.259 -0.0424  0.6570  0.2913
  122SOPE  H17X13041   1.831   6.394   5.307 -1.8136  0.9400 -1.1090
  122SOPE  H17Y13042   1.806   6.310   5.161  1.2854 -0.2865 -0.5557
  122SOPE  C31813043   2.005   6.264   5.249  0.2409  0.1729 -0.1551
  122SOPE  H18X13044   2.057   6.352   5.206 -0.9684  0.1131 -1.8535
  122SOPE  H18Y13045   2.012   6.165   5.198  1.7008 -0.0714  0.4525
  122SOPE  H18Z13046   2.053   6.248   5.348  0.9589  1.1924 -0.3210
  123SOPE     N13047   0.491   6.826   3.018  0.0099 -0.2136  0.0162
  123SOPE   HN113048   0.451   6.809   2.924 -1.4915 -0.3908  0.6562
  123SOPE   HN213049   0.508   6.927   3.040 -0.7957 -0.2182  0.7400
  123SOPE   HN313050   0.584   6.783   3.033 -0.1266 -0.3429  0.5219
  123SOPE   C1213051   0.393   6.780   3.120  0.0424  0.1887  0.0763
  123SOPE  H12A13052   0.404   6.670   3.133 -2.3904  0.1677  3.2968
  123SOPE  H12B13053   0.287   6.794   3.091  0.1308  0.4153 -0.1357
  123SOPE   C1113054   0.420   6.866   3.242 -0.4184  0.4761  0.2548
  123SOPE  H11A13055   0.515   6.835   3.291 -0.9372 -2.3084 -0.3196
  123SOPE  H11B13056   0.343   6.843   3.318  2.0823 -1.8096  2.3391
  123SOPE     P13057   0.301   7.107   3.236 -0.4849  0.2747  0.0856
  123SOPE   O1313058   0.177   7.047   3.180  0.0258 -0.3652 -0.4123
  123SOPE   O1413059   0.343   7.239   3.190  0.1829  0.3740  0.1726
  123SOPE   O1213060   0.422   7.002   3.211 -0.2124 -0.6109 -0.0426
  123SOPE   O1113061   0.298   7.110   3.391  1.2023  0.7734 -0.3419
  123SOPE    C113062   0.427   7.123   3.459  0.5104 -0.1627  1.0156
  123SOPE    HA13063   0.468   7.224   3.433 -2.4698  0.8132 -0.3460
  123SOPE    HB13064   0.493   7.037   3.433  0.4976 -0.1710  1.0120
  123SOPE    C213065   0.415   7.115   3.609 -0.2706  0.6871 -0.0394
  123SOPE    HS13066   0.515   7.144   3.647  0.2740 -0.0342 -0.8834
  123SOPE   O2113067   0.366   6.990   3.651  0.5074 -0.2649 -1.1896
  123SOPE   C2113068   0.456   6.894   3.657 -0.5357  0.0179  0.3445
  123SOPE   O2213069   0.578   6.912   3.635  0.0374 -0.2327 -0.2408
  123SOPE   C2213070   0.388   6.764   3.702  0.5138 -0.1680 -0.1619
  123SOPE   H2R13071   0.377   6.691   3.619  1.1886 -0.4157 -0.0454
  123SOPE   H2S13072   0.281   6.784   3.722 -0.1891 -1.8234 -1.9122
  123SOPE    C313073   0.319   7.228   3.660  0.5139  0.5185  0.4148
  123SOPE    HX13074   0.225   7.193   3.613  1.2432 -0.0052 -0.6727
  123SOPE    HY13075   0.351   7.322   3.611 -0.9566  1.1688  0.6514
  123SOPE   O3113076   0.311   7.248   3.806  0.2381 -0.5308  0.2919
  123SOPE   C3113077   0.186   7.267   3.850 -0.7597 -0.1731 -0.7263
  123SOPE   O3213078   0.090   7.294   3.774  0.2188  0.5240  0.1136
  123SOPE   C3213079   0.185   7.265   4.007  0.1145  0.5080  0.3228
  123SOPE   H2X13080   0.288   7.288   4.039 -0.3014 -0.5844  2.7223
  123SOPE   H2Y13081   0.171   7.159   4.038  1.4211  0.1260 -0.3399
  123SOPE   C2313082   0.463   6.701   3.824  0.2524 -0.3247 -0.3964
  123SOPE   H3R13083   0.567   6.675   3.793  1.0211  0.9959  0.9092
  123SOPE   H3S13084   0.406   6.609   3.849  0.2903 -1.0812 -2.8648
  123SOPE   C2413085   0.460   6.800   3.944  0.1264 -0.0521 -0.0507
  123SOPE   H4R13086   0.553   6.861   3.945  0.3457 -0.3887  0.6241
  123SOPE   H4S13087   0.371   6.864   3.930 -0.4085 -0.7473  0.1298
  123SOPE   C2513088   0.437   6.722   4.073 -0.2131  0.2960  0.6961
  123SOPE   H5R13089   0.354   6.652   4.048 -1.0780  1.4979  0.0967
  123SOPE   H5S13090   0.533   6.677   4.105 -0.3669 -1.0205 -0.5765
  123SOPE   C2613091   0.383   6.804   4.189 -0.7098  0.7393 -0.7446
  123SOPE   H6R13092   0.432   6.900   4.215 -2.4139  1.3799  0.2617
  123SOPE   H6S13093   0.275   6.827   4.174 -0.6365  1.4921 -0.1644
  123SOPE   C2713094   0.364   6.723   4.319 -0.6331 -0.1151 -0.1071
  123SOPE   H7R13095   0.308   6.632   4.288  0.4486 -0.8768  0.1152
  123SOPE   H7S13096   0.466   6.693   4.352 -0.9912  1.0866  2.2904
  123SOPE   C2813097   0.302   6.804   4.430 -0.1924 -0.3986 -0.0055
  123SOPE   H8R13098   0.364   6.896   4.446  0.7555 -0.4490 -2.8682
  123SOPE   H8S13099   0.196   6.837   4.419 -0.8650 -1.3809  2.7455
  123SOPE   C2913100   0.309   6.715   4.554  0.4082 -0.8536 -1.1603
  123SOPE   H9113101   0.413   6.694   4.583  0.4048  2.3113  1.7781
  123SOPE  C21013102   0.209   6.690   4.644 -0.0854 -0.3931  0.7912
  123SOPE  H10113103   0.243   6.636   4.733 -1.0855 -1.4149  0.5707
  123SOPE  C21113104   0.063   6.723   4.637  0.4059 -0.8868  1.0923
  123SOPE  H11R13105   0.044   6.818   4.582 -0.1183 -1.2861  0.5737
  123SOPE  H11S13106   0.032   6.747   4.741 -1.3623  1.9324  0.0331
  123SOPE  C21213107  -0.020   6.608   4.583 -0.4940  0.0467  0.8110
  123SOPE  H12R13108  -0.125   6.644   4.575  0.2135  3.2179  3.3447
  123SOPE  H12S13109  -0.015   6.517   4.646  1.7255 -1.3554 -1.2096
  123SOPE  C21313110   0.020   6.567   4.436 -0.2358 -0.3286 -0.8665
  123SOPE  H13R13111   0.121   6.523   4.452  0.9706  2.5906  0.0881
  123SOPE  H13S13112   0.045   6.660   4.382 -1.4959 -0.1361 -1.1556
  123SOPE  C21413113  -0.086   6.479   4.370 -0.3385  0.5443 -0.1166
  123SOPE  H14R13114  -0.132   6.401   4.435  0.2423  0.3479  0.0590
  123SOPE  H14S13115  -0.044   6.424   4.283 -0.8775 -0.0443 -0.0160
  123SOPE  C21513116  -0.206   6.565   4.326  0.2693 -0.1573  0.3373
  123SOPE  H15R13117  -0.167   6.643   4.257 -0.7809 -1.7993 -2.2678
  123SOPE  H15S13118  -0.252   6.613   4.415  1.5932  0.4635  0.7148
  123SOPE  C21613119  -0.315   6.476   4.267 -0.3293  0.5177  0.1280
  123SOPE  H16R13120  -0.368   6.419   4.346  1.0062 -0.2095  0.5402
  123SOPE  H16S13121  -0.270   6.402   4.197  0.5042  1.0416  0.0990
  123SOPE  C21713122  -0.418   6.567   4.199 -0.4256  0.4651 -0.1623
  123SOPE  H17R13123  -0.437   6.654   4.264  0.1850  2.8843 -3.0104
  123SOPE  H17S13124  -0.510   6.505   4.192  0.3257 -0.7793  0.5151
  123SOPE  C21813125  -0.369   6.616   4.072 -0.7636 -0.5037  0.0664
  123SOPE  H18R13126  -0.334   6.538   4.001 -2.7095 -1.2251 -0.1639
  123SOPE  H18S13127  -0.286   6.689   4.084 -2.1614  1.0930  0.3791
  123SOPE  H18T13128  -0.450   6.673   4.021  0.0343  1.9741  1.3797
  123SOPE   C3313129   0.084   7.362   4.070 -0.9081 -0.5740  0.2254
  123SOPE   H3X13130  -0.017   7.317   4.063 -1.5998  1.1331 -1.4770
  123SOPE   H3Y13131   0.079   7.456   4.011 -1.3034 -0.1346  0.9403
  123SOPE   C3413132   0.132   7.394   4.214 -0.6658  0.2536  0.2992
  123SOPE   H4X13133   0.068   7.479   4.245  2.0177  3.0887 -1.3164
  123SOPE   H4Y13134   0.235   7.436   4.219 -0.4931 -0.2017  0.7339
  123SOPE   C3513135   0.103   7.275   4.316  0.1695  0.4931  0.2035
  123SOPE   H5X13136   0.170   7.189   4.294  1.4148  0.6832  2.8046
  123SOPE   H5Y13137   0.001   7.237   4.297  1.3890 -2.1788 -1.5269
  123SOPE   C3613138   0.131   7.322   4.457 -0.3437  0.2037  0.3293
  123SOPE   H6X13139   0.070   7.412   4.477 -2.1805 -0.7764 -0.6533
  123SOPE   H6Y13140   0.236   7.354   4.475 -0.6961  0.6107  1.7901
  123SOPE   C3713141   0.083   7.221   4.556  1.1004 -0.0486  0.6970
  123SOPE   H7X13142   0.128   7.121   4.537 -0.5254 -1.2238  2.5431
  123SOPE   H7Y13143  -0.028   7.218   4.544  1.3211  1.2813 -2.8773
  123SOPE   C3813144   0.097   7.279   4.702 -0.7414 -0.1189  0.1307
  123SOPE   H8X13145   0.063   7.384   4.692  2.8460  1.0131 -2.1737
  123SOPE   H8Y13146   0.203   7.293   4.732 -1.3004  1.6530  1.4456
  123SOPE   C3913147   0.022   7.194   4.809 -0.8322 -0.2701 -0.4900
  123SOPE   H9X13148   0.073   7.095   4.812  0.8942  0.5363 -1.5495
  123SOPE   H9Y13149  -0.085   7.174   4.788 -1.1755  0.0974  0.8555
  123SOPE  C31013150   0.022   7.251   4.950  0.1626  0.3848 -0.1043
  123SOPE  H10X13151   0.004   7.361   4.949 -0.5612  0.3368 -3.3023
  123SOPE  H10Y13152   0.129   7.239   4.979  0.3557 -1.3850 -1.4122
  123SOPE  C31113153  -0.079   7.180   5.046 -0.1252 -0.0049 -0.5811
  123SOPE  H11X13154  -0.083   7.077   5.003  0.8749  0.2585 -1.3571
  123SOPE  H11Y13155  -0.178   7.228   5.035  0.3917  0.9978 -0.9511
  123SOPE  C31213156  -0.036   7.197   5.196 -0.0646 -0.0270 -0.2543
  123SOPE  H12X13157   0.065   7.153   5.203 -0.4666 -1.0169 -0.5090
  123SOPE  H12Y13158  -0.097   7.145   5.273  2.3481  0.7506  2.3656
  123SOPE  C31313159  -0.018   7.338   5.247 -0.0151  0.2754 -0.3759
  123SOPE  H13X13160  -0.121   7.376   5.232 -0.5328 -1.2363 -0.8930
  123SOPE  H13Y13161   0.054   7.397   5.186 -1.4142  0.3294 -2.0138
  123SOPE  C31413162   0.037   7.330   5.399 -0.0378 -0.0749  0.2613
  123SOPE  H14X13163   0.134   7.280   5.421 -0.6892 -1.1684  0.7321
  123SOPE  H14Y13164  -0.034   7.264   5.453 -1.6555 -1.0519 -2.8125
  123SOPE  C31513165   0.038   7.464   5.477 -0.3308 -0.5414  0.6174
  123SOPE  H15X13166   0.091   7.442   5.573 -0.9961 -0.4635  1.0053
  123SOPE  H15Y13167  -0.062   7.505   5.499  0.1998  0.6502  0.8674
  123SOPE  C31613168   0.116   7.566   5.394 -0.4502  0.2437 -0.5061
  123SOPE  H16X13169   0.074   7.603   5.299  0.1761  0.3664 -0.7438
  123SOPE  H16Y13170   0.221   7.532   5.377  0.1028  1.2575  0.6736
  123SOPE  C31713171   0.132   7.701   5.471  0.1669 -0.5105  0.0841
  123SOPE  H17X13172   0.216   7.684   5.542 -0.9624 -0.2297  1.5218
  123SOPE  H17Y13173   0.033   7.725   5.514  0.9035  2.3320  0.4050
  123SOPE  C31813174   0.177   7.814   5.376 -1.1675 -0.5066  0.1294
  123SOPE  H18X13175   0.093   7.843   5.309  1.1723 -1.2247 -3.3882
  123SOPE  H18Y13176   0.257   7.786   5.305 -1.9524 -1.2468 -0.4984
  123SOPE  H18Z13177   0.205   7.897   5.445 -2.4198 -0.9840  1.2697
  124SOPE     N13178   3.342   6.822   3.268  0.6466 -0.0538  0.0885
  124SOPE   HN113179   3.324   6.894   3.341  2.4466  2.9035 -2.1135
  124SOPE   HN213180   3.391   6.740   3.309 -0.7815 -1.6036 -1.1681
  124SOPE   HN313181   3.396   6.872   3.194 -0.2059  0.5332 -0.1427
  124SOPE   C1213182   3.203   6.781   3.228  0.0234 -0.1294  0.6552
  124SOPE  H12A13183   3.197   6.671   3.210 -0.7558  0.1168 -0.7976
  124SOPE  H12B13184   3.162   6.843   3.145  2.4404  1.0085  0.2429
  124SOPE   C1113185   3.116   6.806   3.347 -0.4265 -0.1250  0.3606
  124SOPE  H11A13186   3.149   6.746   3.435 -3.5937  1.5270  2.8597
  124SOPE  H11B13187   3.013   6.771   3.326 -0.9417  1.3801  0.2556
  124SOPE     P13188   3.014   7.050   3.358  0.6380 -0.2025  0.2557
  124SOPE   O1313189   2.994   7.058   3.213  0.0988  0.0250  0.7229
  124SOPE   O1413190   3.033   7.180   3.425 -0.0426  0.1248  0.0864
  124SOPE   O1213191   3.128   6.948   3.384 -0.6523 -0.0898  0.2495
  124SOPE   O1113192   2.893   6.983   3.424  0.1880 -0.1954  0.2360
  124SOPE    C113193   2.891   6.937   3.558  0.6162  0.2159 -0.1152
  124SOPE    HA13194   2.994   6.944   3.599  0.6096  1.7853 -0.3026
  124SOPE    HB13195   2.860   6.831   3.568  1.0849 -0.1051 -1.7254
  124SOPE    C213196   2.796   7.031   3.643 -0.3572 -0.0592  0.1989
  124SOPE    HS13197   2.850   7.128   3.646 -0.7493  0.2331 -1.2452
  124SOPE   O2113198   2.776   6.983   3.774  0.2989  0.2823 -0.4197
  124SOPE   C2113199   2.871   7.021   3.861  0.3181  0.5225 -0.0496
  124SOPE   O2213200   2.979   7.077   3.841  0.1164 -0.5913 -0.0766
  124SOPE   C2213201   2.828   6.969   3.998  0.7014  0.0630 -0.0308
  124SOPE   H2R13202   2.791   6.865   3.987 -0.6184  0.5521 -0.4399
  124SOPE   H2S13203   2.746   7.032   4.038  0.4220  0.9998 -1.9727
  124SOPE    C313204   2.656   7.064   3.580 -0.0687  0.2527 -0.1831
  124SOPE    HX13205   2.597   6.971   3.598 -1.8372  1.0330 -1.6424
  124SOPE    HY13206   2.666   7.085   3.472  0.0682 -1.9032 -0.6412
  124SOPE   O3113207   2.591   7.172   3.649 -0.1684  0.1476 -0.1258
  124SOPE   C3113208   2.641   7.285   3.621 -0.2174 -0.4720 -0.3827
  124SOPE   O3213209   2.746   7.317   3.561  0.6179 -0.3700 -0.3982
  124SOPE   C3213210   2.554   7.393   3.690  0.0774  0.4242 -0.0445
  124SOPE   H2X13211   2.449   7.364   3.668  0.2343  0.0178 -0.2577
  124SOPE   H2Y13212   2.578   7.489   3.640  1.0286 -1.2086 -3.0194
  124SOPE   C2313213   2.944   6.975   4.096 -0.0664  0.5970 -0.6789
  124SOPE   H3R13214   2.971   7.080   4.120  0.3273  0.9236 -2.4542
  124SOPE   H3S13215   3.028   6.928   4.041 -0.0866 -0.9553  0.5229
  124SOPE   C2413216   2.904   6.893   4.229 -0.4849 -0.0212 -0.0609
  124SOPE   H4R13217   2.823   6.943   4.286 -0.4044  0.6027 -0.4831
  124SOPE   H4S13218   2.866   6.796   4.191 -0.2630  0.9038 -2.8873
  124SOPE   C2513219   3.031   6.863   4.311 -0.0828  0.2550  0.4256
  124SOPE   H5R13220   3.114   6.820   4.251  0.2643  2.4266 -0.7360
  124SOPE   H5S13221   3.070   6.957   4.355 -1.1601  1.1259 -0.4105
  124SOPE   C2613222   2.991   6.774   4.436  0.1604 -0.3177 -0.7963
  124SOPE   H6R13223   2.892   6.801   4.481  0.1275 -1.5358 -0.0746
  124SOPE   H6S13224   2.978   6.676   4.386 -0.5031 -0.5161 -0.2538
  124SOPE   C2713225   3.092   6.752   4.552  0.2523 -0.1216  0.3137
  124SOPE   H7R13226   3.177   6.691   4.515  0.1781  0.3288 -0.6222
  124SOPE   H7S13227   3.127   6.855   4.573 -0.5169  0.4329 -1.0212
  124SOPE   C2813228   3.034   6.701   4.689 -0.8388  0.0631  0.0450
  124SOPE   H8R13229   3.104   6.743   4.764 -0.5265 -1.7001  0.7655
  124SOPE   H8S13230   2.941   6.759   4.712 -2.4808 -1.7591 -1.6250
  124SOPE   C2913231   3.007   6.552   4.707 -0.2852  0.8341  0.3552
  124SOPE   H9113232   2.942   6.510   4.629  0.7737 -1.6178  0.7012
  124SOPE  C21013233   3.045   6.480   4.818  0.5102  0.0985  0.3127
  124SOPE  H10113234   3.020   6.373   4.830  1.8685 -0.2094  0.5733
  124SOPE  C21113235   3.138   6.528   4.932 -0.6834 -0.8978 -0.3052
  124SOPE  H11R13236   3.213   6.601   4.895  0.1168 -0.2775  2.3266
  124SOPE  H11S13237   3.186   6.439   4.977 -0.4431  0.4062  2.1491
  124SOPE  C21213238   3.056   6.600   5.046  1.0623 -1.0262  0.6691
  124SOPE  H12R13239   2.990   6.680   5.006  0.6874 -1.2747  0.7825
  124SOPE  H12S13240   3.121   6.646   5.123  0.0010  1.1566  0.3506
  124SOPE  C21313241   2.962   6.506   5.126 -0.3744  0.2315 -0.5386
  124SOPE  H13R13242   3.026   6.431   5.178  0.7340 -0.2171 -2.4526
  124SOPE  H13S13243   2.905   6.452   5.048 -2.0432  2.3245 -0.8611
  124SOPE  C21413244   2.893   6.585   5.230  0.2833 -0.3683 -0.4391
  124SOPE  H14R13245   2.820   6.657   5.188  0.7119  0.8125  0.7578
  124SOPE  H14S13246   2.963   6.654   5.283  2.0943 -1.5838 -1.1673
  124SOPE  C21513247   2.815   6.499   5.331  0.2653 -0.7707  0.0684
  124SOPE  H15R13248   2.889   6.434   5.383 -0.1936  0.2681  2.1178
  124SOPE  H15S13249   2.745   6.437   5.272 -0.1411 -0.8811  0.6512
  124SOPE  C21613250   2.727   6.575   5.429 -0.8539 -0.3115  0.6448
  124SOPE  H16R13251   2.659   6.641   5.370  1.4846  1.1843 -0.5430
  124SOPE  H16S13252   2.790   6.636   5.497  1.3266 -3.2066  1.4002
  124SOPE  C21713253   2.637   6.491   5.521 -0.2213 -0.2749 -0.2444
  124SOPE  H17R13254   2.596   6.404   5.465  0.5122  0.1577 -1.4948
  124SOPE  H17S13255   2.556   6.556   5.559  0.1170  0.1626 -0.2750
  124SOPE  C21813256   2.705   6.434   5.646 -0.5350 -0.7726  0.4416
  124SOPE  H18R13257   2.799   6.381   5.620  0.6016  1.1055  0.4911
  124SOPE  H18S13258   2.632   6.367   5.697 -3.3874  3.0554  1.8684
  124SOPE  H18T13259   2.730   6.522   5.710 -1.0014  0.4749 -1.0307
  124SOPE   C3313260   2.594   7.387   3.840 -0.0674  0.0189  0.6882
  124SOPE   H3X13261   2.577   7.283   3.875 -0.2130 -0.6043 -1.1268
  124SOPE   H3Y13262   2.527   7.450   3.903 -0.8982 -1.1823  1.0588
  124SOPE   C3413263   2.743   7.422   3.856 -0.7511 -0.1429 -0.1501
  124SOPE   H4X13264   2.771   7.512   3.797  0.7341 -0.8158 -0.5278
  124SOPE   H4Y13265   2.810   7.346   3.810  2.0018  2.5337 -0.9296
  124SOPE   C3513266   2.768   7.443   4.011  0.1916  0.4915  0.5199
  124SOPE   H5X13267   2.689   7.504   4.060 -1.3922 -0.4507 -0.7619
  124SOPE   H5Y13268   2.861   7.502   4.024  1.5426 -2.1856  5.4183
  124SOPE   C3613269   2.791   7.320   4.094  0.0905  0.5020 -0.4834
  124SOPE   H6X13270   2.892   7.274   4.079  0.5717  1.1605  0.6043
  124SOPE   H6Y13271   2.718   7.242   4.062 -0.8030  1.4296 -0.7487
  124SOPE   C3713272   2.762   7.352   4.247  0.0726 -0.7621 -0.4434
  124SOPE   H7X13273   2.666   7.404   4.267  0.2688 -0.5129 -0.1520
  124SOPE   H7Y13274   2.838   7.423   4.283 -0.6266  0.2691 -0.9483
  124SOPE   C3813275   2.756   7.230   4.344  0.4472 -0.6730  0.2210
  124SOPE   H8X13276   2.849   7.180   4.311  1.0952  1.4864 -1.4046
  124SOPE   H8Y13277   2.678   7.153   4.323  0.1339 -0.3838  0.3092
  124SOPE   C3913278   2.764   7.266   4.496  0.0320  0.0868 -0.0031
  124SOPE   H9X13279   2.668   7.297   4.541  1.2016  2.6219  0.9519
  124SOPE   H9Y13280   2.829   7.356   4.504 -1.6074  1.2488  0.5382
  124SOPE  C31013281   2.820   7.145   4.568 -0.3507  0.3553  0.1187
  124SOPE  H10X13282   2.921   7.117   4.532 -0.0733  0.3678  0.8743
  124SOPE  H10Y13283   2.751   7.058   4.562 -0.0478  0.2027 -2.1550
  124SOPE  C31113284   2.834   7.175   4.725  0.3094 -0.1491  0.2650
  124SOPE  H11X13285   2.737   7.214   4.761  0.3614  1.3337 -1.0868
  124SOPE  H11Y13286   2.898   7.266   4.728 -1.7561  1.3834 -0.2310
  124SOPE  C31213287   2.885   7.053   4.809 -0.2017 -0.4162 -0.0876
  124SOPE  H12X13288   2.983   7.020   4.770  0.9671  0.5501  1.8990
  124SOPE  H12Y13289   2.812   6.971   4.791  0.8061 -1.0096 -1.6484
  124SOPE  C31313290   2.885   7.076   4.960  0.5130  0.0828 -0.8118
  124SOPE  H13X13291   2.783   7.103   4.995  0.5498 -1.6961  0.8234
  124SOPE  H13Y13292   2.957   7.159   4.980 -0.7771  1.1615 -0.4764
  124SOPE  C31413293   2.933   6.949   5.043 -0.1101 -0.2451  0.2245
  124SOPE  H14X13294   3.017   6.897   4.991  0.2061 -1.0344  1.4662
  124SOPE  H14Y13295   2.859   6.866   5.043  1.2526 -1.5065  0.8387
  124SOPE  C31513296   2.969   6.983   5.185  0.3108  0.0585 -0.8899
  124SOPE  H15X13297   3.047   7.061   5.175 -1.7100  2.0836 -1.4931
  124SOPE  H15Y13298   3.000   6.891   5.239  0.1967  0.7247  0.3262
  124SOPE  C31613299   2.858   7.045   5.273 -0.0014 -0.1382 -1.2492
  124SOPE  H16X13300   2.765   6.988   5.249 -0.5466  0.7410 -1.2964
  124SOPE  H16Y13301   2.834   7.152   5.252 -0.9061 -0.3126 -1.1377
  124SOPE  C31713302   2.889   7.030   5.430 -0.6219  0.3727  0.4828
  124SOPE  H17X13303   2.901   6.923   5.458  0.8687  0.1823 -0.7879
  124SOPE  H17Y13304   2.816   7.081   5.496  0.7397 -1.6153  3.7705
  124SOPE  C31813305   3.023   7.099   5.463 -0.8321  0.0656  0.3207
  124SOPE  H18X13306   3.027   7.200   5.417 -0.6599 -0.5746 -1.1223
  124SOPE  H18Y13307   3.104   7.043   5.413  0.3874  0.3238  1.9406
  124SOPE  H18Z13308   3.030   7.108   5.574  0.9029  1.6471  0.1455
  125SOPE     N13309   3.686   6.692   2.901 -0.6925  0.2078  0.0192
  125SOPE   HN113310   3.681   6.774   2.838 -1.3466 -0.2057 -0.4808
  125SOPE   HN213311   3.746   6.619   2.858  0.0045  0.9141 -0.2251
  125SOPE   HN313312   3.592   6.647   2.901 -0.9884  0.8141  0.5682
  125SOPE   C1213313   3.736   6.732   3.037  0.1966 -0.6614  0.7684
  125SOPE  H12A13314   3.714   6.649   3.109 -0.9662 -0.8957  0.1650
  125SOPE  H12B13315   3.678   6.825   3.054 -0.7254 -0.7366 -1.6044
  125SOPE   C1113316   3.883   6.776   3.035  0.3810  0.3269  1.2014
  125SOPE  H11A13317   3.940   6.701   2.977 -1.4927  0.2110 -0.6323
  125SOPE  H11B13318   3.944   6.783   3.127 -1.1818 -2.4685  2.5681
  125SOPE     P13319   3.881   7.044   3.015 -0.2548  0.6003 -0.2892
  125SOPE   O1313320   3.806   7.132   2.917 -0.0788  0.2045  0.3780
  125SOPE   O1413321   4.014   7.095   3.048 -0.2711  0.0460  0.1789
  125SOPE   O1213322   3.891   6.893   2.960 -0.4989 -0.5428 -0.2239
  125SOPE   O1113323   3.799   7.046   3.148 -0.1055  0.1827 -0.1383
  125SOPE    C113324   3.750   7.170   3.198  0.0515 -0.0221 -0.0970
  125SOPE    HA13325   3.645   7.168   3.234  0.9432 -0.0188  2.7934
  125SOPE    HB13326   3.767   7.261   3.136  0.3369  1.0611  1.5070
  125SOPE    C213327   3.832   7.191   3.333  0.2148  0.2133 -0.1514
  125SOPE    HS13328   3.938   7.167   3.312  0.0486 -0.9394  0.2461
  125SOPE   O2113329   3.775   7.104   3.434  0.1707  0.4169  0.2808
  125SOPE   C2113330   3.850   7.067   3.535 -0.4017 -0.2990  0.2233
  125SOPE   O2213331   3.968   7.097   3.554  0.5874 -0.0960 -0.0245
  125SOPE   C2213332   3.770   6.978   3.632 -0.0051 -0.2117 -0.3178
  125SOPE   H2R13333   3.746   6.891   3.568 -0.0324 -0.4537  0.0178
  125SOPE   H2S13334   3.683   7.041   3.658 -0.1604 -0.2363 -0.7708
  125SOPE    C313335   3.833   7.335   3.376  0.0397 -0.3675  0.0847
  125SOPE    HX13336   3.729   7.370   3.385  0.9630  2.4545  0.8340
  125SOPE    HY13337   3.878   7.397   3.294  1.2554 -1.2343  0.0636
  125SOPE   O3113338   3.887   7.368   3.505  0.3177 -0.0605 -0.8123
  125SOPE   C3113339   4.018   7.369   3.516  0.9224  0.2997 -0.2143
  125SOPE   O3213340   4.104   7.352   3.433  0.5592  0.0170  0.3462
  125SOPE   C3213341   4.048   7.424   3.656  0.1738 -0.0514  0.8524
  125SOPE   H2X13342   4.013   7.348   3.729 -0.8109 -0.7047 -0.2487
  125SOPE   H2Y13343   3.991   7.519   3.656 -1.4040 -0.8511 -2.2866
  125SOPE   C2313344   3.844   6.937   3.758  0.2632  0.4798 -1.6045
  125SOPE   H3R13345   3.815   7.001   3.844  0.2396 -0.1807 -1.1110
  125SOPE   H3S13346   3.954   6.923   3.758  0.5108  1.4189  2.1581
  125SOPE   C2413347   3.786   6.795   3.801 -0.2009  0.6050 -0.4035
  125SOPE   H4R13348   3.681   6.789   3.836 -0.0388  0.1062  0.0250
  125SOPE   H4S13349   3.795   6.731   3.711  0.6745  0.9139 -0.5495
  125SOPE   C2513350   3.865   6.710   3.903 -0.3677  0.5222 -0.0400
  125SOPE   H5R13351   3.825   6.607   3.908  0.5677  0.1983  1.2218
  125SOPE   H5S13352   3.971   6.713   3.872 -0.1255  0.1805  0.7448
  125SOPE   C2613353   3.848   6.765   4.050 -0.1349 -0.5186 -0.4126
  125SOPE   H6R13354   3.890   6.867   4.059 -1.5158 -0.0510  1.3154
  125SOPE   H6S13355   3.741   6.773   4.079  0.3655  1.4074  1.0765
  125SOPE   C2713356   3.906   6.673   4.151 -0.1963 -0.0102  0.7346
  125SOPE   H7R13357   3.883   6.567   4.126 -0.2917  0.3065 -0.5755
  125SOPE   H7S13358   4.016   6.680   4.132 -0.5238 -0.3615 -1.5335
  125SOPE   C2813359   3.863   6.704   4.296  0.0340 -0.0397  0.2583
  125SOPE   H8R13360   3.899   6.799   4.341  0.0200  0.0007  0.1838
  125SOPE   H8S13361   3.753   6.720   4.289  0.1051  1.5507  1.8741
  125SOPE   C2913362   3.889   6.583   4.380  0.3230 -0.1027 -0.0910
  125SOPE   H9113363   3.839   6.493   4.343  0.9532  0.3059 -2.0600
  125SOPE  C21013364   3.966   6.579   4.489 -0.3984 -0.2112 -0.2743
  125SOPE  H10113365   3.984   6.486   4.545 -1.3939  0.8178  1.8785
  125SOPE  C21113366   4.049   6.700   4.549 -0.4002 -0.2858 -0.2746
  125SOPE  H11R13367   4.077   6.766   4.465 -0.4633  1.3023  0.9146
  125SOPE  H11S13368   4.151   6.667   4.579 -1.5269 -1.2089  3.0721
  125SOPE  C21213369   3.971   6.770   4.666 -0.5635  0.1396 -0.3993
  125SOPE  H12R13370   3.869   6.803   4.637 -0.7695  0.1032  0.2526
  125SOPE  H12S13371   4.024   6.865   4.690 -1.0348 -0.4028  3.4506
  125SOPE  C21313372   3.959   6.691   4.805  0.2794  0.3358  0.7992
  125SOPE  H13R13373   3.924   6.588   4.780  1.7927  0.0592 -0.3470
  125SOPE  H13S13374   3.874   6.734   4.861 -0.0591 -1.2628  1.5790
  125SOPE  C21413375   4.078   6.691   4.895 -0.1019 -0.0331  0.0546
  125SOPE  H14R13376   4.113   6.793   4.920  0.3584 -0.0244 -0.5952
  125SOPE  H14S13377   4.156   6.642   4.834  1.2909  0.1317  1.6368
  125SOPE  C21513378   4.065   6.613   5.025  0.4910 -0.2739  0.2768
  125SOPE  H15R13379   4.164   6.614   5.075  1.7121 -1.2076 -1.9846
  125SOPE  H15S13380   4.032   6.508   5.009  0.5905 -0.4893  1.4233
  125SOPE  C21613381   3.975   6.678   5.123  0.0759 -0.1298  0.1627
  125SOPE  H16R13382   3.879   6.713   5.079 -0.3367 -1.7936 -0.3250
  125SOPE  H16S13383   4.032   6.767   5.155  2.7859 -1.6369 -0.1318
  125SOPE  C21713384   3.945   6.591   5.248  0.0352 -0.3460  0.5215
  125SOPE  H17R13385   4.032   6.541   5.296  0.5346 -0.1017 -0.1102
  125SOPE  H17S13386   3.885   6.509   5.203 -1.7249  2.4356 -2.5972
  125SOPE  C21813387   3.849   6.653   5.353  0.2232  0.0766  0.2758
  125SOPE  H18R13388   3.774   6.720   5.305 -0.9196 -0.4181  1.3125
  125SOPE  H18S13389   3.916   6.711   5.420  2.6144 -1.9114 -0.2652
  125SOPE  H18T13390   3.797   6.576   5.413  0.8677 -0.5832 -0.0013
  125SOPE   C3313391   4.192   7.472   3.679  0.0208 -0.0598 -0.0537
  125SOPE   H3X13392   4.220   7.542   3.597 -0.3899 -0.1579 -0.2833
  125SOPE   H3Y13393   4.273   7.396   3.676  0.8041  0.5774  2.5807
  125SOPE   C3413394   4.213   7.554   3.809 -0.5739  0.1719 -0.1646
  125SOPE   H4X13395   4.127   7.622   3.825  0.6864  1.6537  0.6609
  125SOPE   H4Y13396   4.307   7.613   3.802 -0.9905  0.8357 -0.2788
  125SOPE   C3513397   4.217   7.458   3.920 -0.1467 -0.4814 -0.1078
  125SOPE   H5X13398   4.316   7.411   3.902  0.5521  1.0653 -0.4858
  125SOPE   H5Y13399   4.139   7.379   3.914 -0.0481 -0.9366  3.2119
  125SOPE   C3613400   4.233   7.517   4.061 -0.7474  0.1550 -0.0840
  125SOPE   H6X13401   4.152   7.593   4.070 -1.3393 -0.1576 -2.1141
  125SOPE   H6Y13402   4.331   7.567   4.075  0.8959 -2.8397  0.0409
  125SOPE   C3713403   4.222   7.405   4.168 -0.1902 -0.0280  0.5772
  125SOPE   H7X13404   4.308   7.340   4.140  0.9913  2.2993 -1.6334
  125SOPE   H7Y13405   4.123   7.355   4.168 -0.1197 -0.2685  2.6813
  125SOPE   C3813406   4.240   7.471   4.303  0.4460  0.1935 -0.0319
  125SOPE   H8X13407   4.174   7.560   4.307 -0.5647 -0.5530  0.4284
  125SOPE   H8Y13408   4.342   7.513   4.315  0.3430 -0.3288  3.8314
  125SOPE   C3913409   4.211   7.371   4.412 -0.5888 -0.3475 -0.0852
  125SOPE   H9X13410   4.243   7.266   4.397  0.3129 -0.5145  2.4835
  125SOPE   H9Y13411   4.101   7.383   4.424 -0.6350  0.6409 -1.3402
  125SOPE  C31013412   4.288   7.411   4.537 -0.2966  0.2333 -1.0264
  125SOPE  H10X13413   4.282   7.522   4.549  0.9647  0.2264 -0.1238
  125SOPE  H10Y13414   4.396   7.389   4.522  0.8715  0.5648  4.6255
  125SOPE  C31113415   4.253   7.337   4.669  0.1501  0.1393 -0.2509
  125SOPE  H11X13416   4.278   7.233   4.639 -0.5268  0.3706 -1.6461
  125SOPE  H11Y13417   4.147   7.355   4.694  0.3502  1.1355 -0.0625
  125SOPE  C31213418   4.349   7.382   4.781 -0.0429 -0.2673 -0.2079
  125SOPE  H12X13419   4.310   7.478   4.820 -0.0068 -0.0145 -0.7739
  125SOPE  H12Y13420   4.441   7.396   4.720 -1.9965 -1.0187 -3.6534
  125SOPE  C31313421   4.362   7.285   4.891 -0.1261  0.1991  0.0601
  125SOPE  H13X13422   4.435   7.327   4.964  0.9434 -0.2643 -0.7093
  125SOPE  H13Y13423   4.407   7.192   4.849  0.1577  0.6812 -0.7255
  125SOPE  C31413424   4.232   7.246   4.967 -0.4165 -0.2742  0.5953
  125SOPE  H14X13425   4.184   7.169   4.903 -0.8199  0.2641  0.2411
  125SOPE  H14Y13426   4.162   7.332   4.979 -2.0071 -1.2843 -0.9935
  125SOPE  C31513427   4.249   7.187   5.111  0.0618 -0.4136 -0.0748
  125SOPE  H15X13428   4.148   7.189   5.158  0.1033 -2.7436  0.2090
  125SOPE  H15Y13429   4.321   7.253   5.164  0.4344 -0.0877 -0.9678
  125SOPE  C31613430   4.289   7.039   5.126  0.7289  0.6913  0.1452
  125SOPE  H16X13431   4.394   7.033   5.089  0.6358  0.0685 -0.0253
  125SOPE  H16Y13432   4.234   6.969   5.060 -0.7775  0.5026  1.5509
  125SOPE  C31713433   4.287   6.982   5.270 -0.2238 -0.3432  0.2143
  125SOPE  H17X13434   4.202   7.001   5.338 -0.1072 -1.6650  0.7567
  125SOPE  H17Y13435   4.369   7.031   5.327  0.6531 -0.3205 -1.0219
  125SOPE  C31813436   4.305   6.832   5.271 -0.0744 -0.6047  0.4317
  125SOPE  H18X13437   4.240   6.776   5.201  0.6028 -0.7086 -0.1289
  125SOPE  H18Y13438   4.298   6.792   5.375  1.0210 -0.3782  0.6134
  125SOPE  H18Z13439   4.413   6.811   5.256 -0.4341 -2.9161  0.6163
  126SOPE     N13440   6.529   2.484   3.041  0.4103 -0.1735  0.4761
  126SOPE   HN113441   6.453   2.552   3.020  1.9058  0.9248 -1.7733
  126SOPE   HN213442   6.606   2.519   3.103  0.4908 -1.0943  0.9067
  126SOPE   HN313443   6.584   2.447   2.961  0.9573 -0.3676  0.9340
  126SOPE   C1213444   6.458   2.361   3.101  0.1554  0.4330 -0.4803
  126SOPE  H12A13445   6.427   2.302   3.013  0.6323 -0.2843 -0.1796
  126SOPE  H12B13446   6.366   2.388   3.157 -1.0869 -0.2227 -2.1500
  126SOPE   C1113447   6.565   2.272   3.169  0.3346  0.0989  0.5630
  126SOPE  H11A13448   6.649   2.254   3.099 -0.7407  0.8531 -1.0004
  126SOPE  H11B13449   6.502   2.183   3.192  1.5712 -0.8973  0.2036
  126SOPE     P13450   6.707   2.282   3.394 -0.1589 -0.1145  0.1024
  126SOPE   O1313451   6.711   2.379   3.513  0.2296 -0.2442 -0.2126
  126SOPE   O1413452   6.833   2.254   3.317  0.9757  0.0688 -0.0431
  126SOPE   O1213453   6.603   2.337   3.289 -0.8156 -0.4363 -0.4443
  126SOPE   O1113454   6.639   2.142   3.424 -0.2822 -0.0741 -0.4838
  126SOPE    C113455   6.513   2.151   3.496 -0.0723 -0.2904  0.7689
  126SOPE    HA13456   6.435   2.145   3.418 -0.5862  0.5577  1.2016
  126SOPE    HB13457   6.497   2.243   3.557  0.9844 -0.2512  1.0149
  126SOPE    C213458   6.497   2.018   3.587  0.2696 -0.3572  0.6031
  126SOPE    HS13459   6.400   2.039   3.637 -1.1156  1.2778 -2.4438
  126SOPE   O2113460   6.604   2.007   3.674  0.1303  0.3287  0.1704
  126SOPE   C2113461   6.618   2.096   3.768  0.6526  0.1707 -1.0091
  126SOPE   O2213462   6.545   2.197   3.790 -0.4093  0.4870  0.1397
  126SOPE   C2213463   6.731   2.058   3.858 -0.3650 -0.1854  0.0619
  126SOPE   H2R13464   6.818   2.081   3.793 -0.6632 -0.2537 -0.3679
  126SOPE   H2S13465   6.726   1.951   3.889 -0.1426  0.2161  1.6031
  126SOPE    C313466   6.497   1.883   3.501  0.6664  0.1591  0.3815
  126SOPE    HX13467   6.595   1.867   3.451 -0.6319 -1.4989 -1.8061
  126SOPE    HY13468   6.415   1.889   3.427  0.9447  0.5780  0.1031
  126SOPE   O3113469   6.482   1.764   3.584  0.2638  0.2697 -0.1959
  126SOPE   C3113470   6.359   1.750   3.634 -0.0780  0.1293  0.0266
  126SOPE   O3213471   6.262   1.823   3.608 -0.0547 -0.3503  0.1250
  126SOPE   C3213472   6.359   1.630   3.725 -0.2127 -0.2705  0.7534
  126SOPE   H2X13473   6.382   1.543   3.659 -2.8837 -1.0498  0.7534
  126SOPE   H2Y13474   6.254   1.616   3.759 -0.2649 -4.9463 -0.6199
  126SOPE   C2313475   6.757   2.139   3.986 -0.7267  0.8501 -0.3981
  126SOPE   H3R13476   6.654   2.167   4.019 -1.1365  0.6505 -1.4736
  126SOPE   H3S13477   6.820   2.225   3.956  1.4472 -1.1056 -1.8051
  126SOPE   C2413478   6.819   2.067   4.109 -0.7717  0.0931  0.8440
  126SOPE   H4R13479   6.922   2.040   4.078 -0.8567 -0.4764  1.0383
  126SOPE   H4S13480   6.827   2.132   4.199  0.1367  0.6108  0.3927
  126SOPE   C2513481   6.747   1.939   4.152  0.0021  0.0241  0.7289
  126SOPE   H5R13482   6.647   1.940   4.103  0.2359  0.0431  0.2430
  126SOPE   H5S13483   6.803   1.860   4.096 -1.8273 -1.3887  0.7884
  126SOPE   C2613484   6.733   1.914   4.302  0.0982  0.6621  0.1334
  126SOPE   H6R13485   6.839   1.910   4.334  1.1824  2.2356 -2.8366
  126SOPE   H6S13486   6.688   2.003   4.350 -3.5674 -0.6094 -0.6257
  126SOPE   C2713487   6.656   1.784   4.348 -0.3159  0.2966  0.9184
  126SOPE   H7R13488   6.556   1.796   4.300 -0.1619  3.1825  1.1574
  126SOPE   H7S13489   6.708   1.699   4.297  1.1109  0.4154  2.1044
  126SOPE   C2813490   6.645   1.759   4.495  0.2050 -0.2442  0.3014
  126SOPE   H8R13491   6.570   1.829   4.538  1.7531  1.6698  0.0246
  126SOPE   H8S13492   6.611   1.654   4.505 -2.9916  0.6653  0.1535
  126SOPE   C2913493   6.779   1.778   4.562 -0.3719  0.5315 -0.3140
  126SOPE   H9113494   6.871   1.783   4.501 -0.5287 -1.6410 -0.8026
  126SOPE  C21013495   6.785   1.787   4.697 -0.1064 -0.1972 -0.0180
  126SOPE  H10113496   6.886   1.796   4.741 -0.4528  0.0071  0.7482
  126SOPE  C21113497   6.674   1.800   4.804  0.2185 -0.9601  0.0277
  126SOPE  H11R13498   6.578   1.763   4.763  0.7485  0.4584 -2.7282
  126SOPE  H11S13499   6.656   1.908   4.821  3.7752  0.0232 -1.5046
  126SOPE  C21213500   6.700   1.743   4.942 -0.0583 -0.2554 -0.4753
  126SOPE  H12R13501   6.732   1.637   4.929  2.2063 -0.0434  2.3990
  126SOPE  H12S13502   6.602   1.736   4.995 -0.6141  0.0355 -1.4312
  126SOPE  C21313503   6.815   1.801   5.027  0.3632 -0.2422 -0.0916
  126SOPE  H13R13504   6.805   1.909   5.050  3.4374 -0.2418  1.6977
  126SOPE  H13S13505   6.904   1.787   4.963  1.3368  2.6445  0.4908
  126SOPE  C21413506   6.838   1.735   5.162 -0.4747 -0.8592  0.0794
  126SOPE  H14R13507   6.877   1.631   5.155 -2.6984 -1.6777 -1.3636
  126SOPE  H14S13508   6.740   1.739   5.215  0.3680  1.0141  1.6256
  126SOPE  C21513509   6.940   1.814   5.259  0.8779  0.2772 -0.0527
  126SOPE  H15R13510   6.886   1.907   5.288 -0.2964 -1.0636  2.3593
  126SOPE  H15S13511   7.029   1.841   5.199  0.5879  0.5351 -0.3754
  126SOPE  C21613512   6.967   1.736   5.388  0.3792 -0.2148  0.2133
  126SOPE  H16R13513   7.042   1.657   5.364  1.0837  0.4438  0.2122
  126SOPE  H16S13514   6.869   1.689   5.413 -0.9603  0.8763 -2.5055
  126SOPE  C21713515   7.024   1.815   5.508  0.3694 -0.0278 -0.0277
  126SOPE  H17R13516   6.962   1.903   5.538 -0.1374 -0.3028 -0.2488
  126SOPE  H17S13517   7.114   1.868   5.470  0.5345  0.8643  1.5294
  126SOPE  C21813518   7.057   1.730   5.630  0.0052 -0.8777  0.3210
  126SOPE  H18R13519   6.964   1.679   5.665  0.2328 -2.4217 -1.1877
  126SOPE  H18S13520   7.092   1.789   5.718 -0.4616 -0.4755  0.2403
  126SOPE  H18T13521   7.132   1.657   5.595 -0.0150 -0.5180 -0.4834
  126SOPE   C3313522   6.455   1.650   3.837  0.0630  0.4610 -0.2743
  126SOPE   H3X13523   6.555   1.683   3.801 -0.0099 -0.3725 -1.3160
  126SOPE   H3Y13524   6.486   1.548   3.870  0.0409  0.9230  1.2420
  126SOPE   C3413525   6.407   1.724   3.959 -0.0442  0.3229  0.5244
  126SOPE   H4X13526   6.465   1.682   4.044 -0.7615 -0.8491  0.4564
  126SOPE   H4Y13527   6.304   1.684   3.973 -0.6945  0.6239 -2.7457
  126SOPE   C3513528   6.400   1.877   3.948  0.0653  0.5309 -0.1674
  126SOPE   H5X13529   6.365   1.905   3.846 -1.4520  1.0736  0.4710
  126SOPE   H5Y13530   6.500   1.924   3.962 -0.4321  1.9486 -1.1005
  126SOPE   C3613531   6.293   1.938   4.042 -0.2196 -0.2383  0.5553
  126SOPE   H6X13532   6.191   1.903   4.018 -0.3983  0.9786 -0.5561
  126SOPE   H6Y13533   6.288   2.049   4.043 -0.4035 -0.2402  0.0754
  126SOPE   C3713534   6.322   1.910   4.191 -0.4887  0.2994  0.5782
  126SOPE   H7X13535   6.409   1.976   4.211  0.7449 -1.4692  1.2507
  126SOPE   H7Y13536   6.352   1.803   4.202 -1.6915 -0.0877  0.2183
  126SOPE   C3813537   6.220   1.950   4.289 -0.0067  0.0198  0.1841
  126SOPE   H8X13538   6.126   1.895   4.270 -0.0240  0.2638 -0.4544
  126SOPE   H8Y13539   6.184   2.054   4.275  0.7472  0.0513 -1.7400
  126SOPE   C3913540   6.275   1.914   4.426 -0.3328 -0.3918 -0.0845
  126SOPE   H9X13541   6.370   1.966   4.451 -0.9431  0.2191  1.0237
  126SOPE   H9Y13542   6.281   1.804   4.433  0.9688 -0.3517 -0.3510
  126SOPE  C31013543   6.170   1.951   4.540 -1.1013  0.0636 -0.1703
  126SOPE  H10X13544   6.076   1.896   4.520 -0.1841 -1.3518 -0.7869
  126SOPE  H10Y13545   6.161   2.062   4.542 -1.7067  0.0141  1.5142
  126SOPE  C31113546   6.221   1.916   4.678 -0.3576 -0.0085 -1.0705
  126SOPE  H11X13547   6.145   1.938   4.756  1.2683  0.8952  0.3099
  126SOPE  H11Y13548   6.301   1.990   4.699  0.7698 -2.1325  3.2652
  126SOPE  C31213549   6.270   1.770   4.679 -0.0562  0.6586  0.6474
  126SOPE  H12X13550   6.368   1.750   4.632  0.4593 -0.3706  2.0785
  126SOPE  H12Y13551   6.189   1.711   4.630 -0.2996  0.5014  1.2310
  126SOPE  C31313552   6.272   1.712   4.823  0.6136  0.1645 -0.5954
  126SOPE  H13X13553   6.280   1.793   4.899 -1.1565 -1.6893  1.7486
  126SOPE  H13Y13554   6.364   1.651   4.835 -0.3501 -0.9300  2.0914
  126SOPE  C31413555   6.148   1.628   4.860 -0.7375 -0.1033  0.1901
  126SOPE  H14X13556   6.133   1.542   4.791 -1.8496 -1.9877  2.6362
  126SOPE  H14Y13557   6.060   1.692   4.837 -2.0910 -1.1237  2.3283
  126SOPE  C31513558   6.143   1.596   5.010 -0.6918  0.1543 -0.4752
  126SOPE  H15X13559   6.152   1.697   5.057 -1.0107 -0.6844  1.4926
  126SOPE  H15Y13560   6.235   1.537   5.030 -1.1855 -0.1385  1.0983
  126SOPE  C31613561   6.016   1.520   5.058  0.0868  0.4817 -0.2914
  126SOPE  H16X13562   5.928   1.584   5.036 -0.1284  0.5068  0.6085
  126SOPE  H16Y13563   6.003   1.514   5.168  0.6142 -0.2624 -0.2590
  126SOPE  C31713564   6.007   1.381   4.991  0.0644 -0.7523  0.6065
  126SOPE  H17X13565   6.091   1.316   5.024 -0.5244 -2.7351 -1.4728
  126SOPE  H17Y13566   6.017   1.391   4.880 -1.5741 -0.7478  0.4229
  126SOPE  C31813567   5.887   1.297   5.035  0.0965 -0.3157 -0.8335
  126SOPE  H18X13568   5.880   1.299   5.146 -3.7027  3.1050 -0.8566
  126SOPE  H18Y13569   5.905   1.198   4.988  0.7399 -0.2584 -0.7132
  126SOPE  H18Z13570   5.784   1.327   5.005 -0.4885 -1.2938  0.1207
  127SOPE     N13571   6.350   4.349   3.053  0.0647 -0.2643 -0.6084
  127SOPE   HN113572   6.434   4.410   3.044 -0.4490  0.3779 -1.2618
  127SOPE   HN213573   6.355   4.278   2.977  3.1488  2.2525 -3.0735
  127SOPE   HN313574   6.286   4.425   3.022 -0.1329 -0.2359 -0.1394
  127SOPE   C1213575   6.312   4.297   3.194  0.1910 -0.5140 -0.4627
  127SOPE  H12A13576   6.401   4.243   3.234  1.4838  2.4356  0.9612
  127SOPE  H12B13577   6.240   4.213   3.190 -3.0217  1.9581  1.0882
  127SOPE   C1113578   6.271   4.421   3.276  0.0870  0.2355 -0.2933
  127SOPE  H11A13579   6.259   4.389   3.382  2.2922  1.3173  0.3587
  127SOPE  H11B13580   6.175   4.459   3.235  0.3022  3.0760  1.5152
  127SOPE     P13581   6.519   4.527   3.309  0.0101  0.0020 -0.3804
  127SOPE   O1313582   6.596   4.539   3.186  0.3995 -0.3026  0.1835
  127SOPE   O1413583   6.534   4.411   3.398 -0.1404  0.2362 -0.3033
  127SOPE   O1213584   6.366   4.531   3.263  0.7883 -0.1771 -0.1994
  127SOPE   O1113585   6.519   4.659   3.398 -0.3630 -0.5556  0.3734
  127SOPE    C113586   6.430   4.658   3.509  0.3889  0.3314  0.7939
  127SOPE    HA13587   6.368   4.565   3.512 -1.2274  1.3089 -0.4880
  127SOPE    HB13588   6.358   4.738   3.479  0.7901  0.3824 -0.0657
  127SOPE    C213589   6.502   4.672   3.640  0.0317 -0.1014  0.0587
  127SOPE    HS13590   6.554   4.576   3.662  0.3743 -0.0008 -0.2904
  127SOPE   O2113591   6.400   4.704   3.732  0.5223  0.0090 -0.4514
  127SOPE   C2113592   6.322   4.607   3.782 -0.1328  0.3877 -0.1845
  127SOPE   O2213593   6.346   4.489   3.762  0.2334  0.7018 -0.0334
  127SOPE   C2213594   6.219   4.666   3.884  0.8656 -0.2625 -0.2003
  127SOPE   H2R13595   6.117   4.654   3.842  0.8368 -1.7634  0.2246
  127SOPE   H2S13596   6.247   4.773   3.896  1.7390 -0.5090  0.0383
  127SOPE    C313597   6.616   4.772   3.643  0.5882  0.0182  0.1218
  127SOPE    HX13598   6.584   4.863   3.588 -0.6149 -0.7206 -0.4558
  127SOPE    HY13599   6.708   4.745   3.587  1.6183 -0.5420  1.9910
  127SOPE   O3113600   6.651   4.826   3.777  0.0364  0.6123  0.6231
  127SOPE   C3113601   6.725   4.738   3.842  0.3225  0.2493 -0.0165
  127SOPE   O3213602   6.766   4.628   3.803 -0.1644 -0.3808 -0.8530
  127SOPE   C3213603   6.760   4.803   3.976  0.6036 -0.5767  0.7047
  127SOPE   H2X13604   6.686   4.880   4.004  2.9265  0.7614  3.7767
  127SOPE   H2Y13605   6.857   4.856   3.961  0.8726 -1.2061  0.1559
  127SOPE   C2313606   6.217   4.594   4.018  0.0181 -0.3625  0.2490
  127SOPE   H3R13607   6.318   4.579   4.061 -0.5053  0.1193  1.6939
  127SOPE   H3S13608   6.166   4.500   3.988 -0.1899  0.5549 -2.6388
  127SOPE   C2413609   6.133   4.682   4.118 -0.4952  0.3701 -0.3039
  127SOPE   H4R13610   6.196   4.767   4.151  1.6836 -1.0151 -0.6992
  127SOPE   H4S13611   6.042   4.722   4.069 -1.5015 -1.2055  0.2077
  127SOPE   C2513612   6.074   4.591   4.227 -0.3104 -0.4021  0.2958
  127SOPE   H5R13613   6.027   4.501   4.182 -2.3258  0.7057  0.0566
  127SOPE   H5S13614   6.158   4.558   4.292 -0.5909  2.2556  2.1892
  127SOPE   C2613615   5.980   4.667   4.315  0.6636 -0.0161 -0.4299
  127SOPE   H6R13616   6.028   4.750   4.370 -0.3049  0.2689  0.0098
  127SOPE   H6S13617   5.901   4.718   4.255  0.5443  2.5984  1.7562
  127SOPE   C2713618   5.926   4.583   4.431 -0.1032 -0.2618  0.2893
  127SOPE   H7R13619   5.864   4.500   4.390  1.4495 -0.9077 -0.8704
  127SOPE   H7S13620   6.003   4.541   4.499 -1.5926 -1.1195  1.5249
  127SOPE   C2813621   5.831   4.656   4.527 -0.2570  0.2861  0.1793
  127SOPE   H8R13622   5.746   4.698   4.468  0.0868  1.2656  0.3648
  127SOPE   H8S13623   5.806   4.576   4.600  1.7571  0.2299  0.8804
  127SOPE   C2913624   5.903   4.763   4.606  0.3676  1.2485 -0.6160
  127SOPE   H9113625   6.004   4.795   4.576  0.9080 -0.2478 -0.4603
  127SOPE  C21013626   5.853   4.815   4.716  0.0946 -0.0050 -0.4720
  127SOPE  H10113627   5.918   4.880   4.776 -2.4949  0.7721  1.7025
  127SOPE  C21113628   5.724   4.784   4.791  0.4010  0.3098  0.2991
  127SOPE  H11R13629   5.758   4.748   4.890 -0.1854 -0.7316  0.1440
  127SOPE  H11S13630   5.664   4.701   4.746  0.7249 -1.0388  2.2483
  127SOPE  C21213631   5.634   4.912   4.815 -0.3604 -0.2791 -0.2790
  127SOPE  H12R13632   5.607   4.953   4.716 -0.0908  1.4304  0.3248
  127SOPE  H12S13633   5.693   4.991   4.866 -1.7350  0.7777 -0.2563
  127SOPE  C21313634   5.494   4.901   4.882  0.3924 -0.0123  0.3325
  127SOPE  H13R13635   5.493   4.930   4.990 -1.1905 -0.1975  0.3889
  127SOPE  H13S13636   5.449   4.800   4.884  0.0723  0.1291  0.4861
  127SOPE  C21413637   5.375   4.991   4.825 -0.3260 -0.5649 -0.3113
  127SOPE  H14R13638   5.418   5.094   4.826  0.8965 -1.0596 -0.7282
  127SOPE  H14S13639   5.296   4.979   4.902 -0.3470  1.2145 -0.0073
  127SOPE  C21513640   5.324   4.954   4.684 -0.3395 -0.3740  0.2950
  127SOPE  H15R13641   5.308   4.844   4.688 -1.8244 -0.2001 -0.2897
  127SOPE  H15S13642   5.397   4.987   4.608  2.3255 -1.8121  2.0752
  127SOPE  C21613643   5.189   5.021   4.652  0.1209 -0.1240 -0.1114
  127SOPE  H16R13644   5.192   5.132   4.663  1.6788 -0.2954  1.7906
  127SOPE  H16S13645   5.110   4.991   4.725  0.4888  0.8386  0.7167
  127SOPE  C21713646   5.155   4.966   4.505  0.0479  0.2090 -0.7779
  127SOPE  H17R13647   5.146   4.855   4.514  1.1459  0.1824  0.3339
  127SOPE  H17S13648   5.230   4.992   4.427  1.7418  0.5862  0.9016
  127SOPE  C21813649   5.017   5.020   4.472  0.3360 -0.2555 -0.3899
  127SOPE  H18R13650   4.954   5.007   4.562 -1.4465  0.7639 -1.4365
  127SOPE  H18S13651   4.979   4.948   4.397  0.4585 -6.0202  4.4192
  127SOPE  H18T13652   5.018   5.130   4.452 -2.3210  0.5572  2.9965
  127SOPE   C3313653   6.782   4.701   4.090 -0.4661  0.5794  0.0735
  127SOPE   H3X13654   6.832   4.742   4.181 -0.3651 -1.1753  0.8527
  127SOPE   H3Y13655   6.841   4.614   4.053  0.9665  1.5075  0.0749
  127SOPE   C3413656   6.646   4.651   4.137 -0.5426  0.5013  0.2487
  127SOPE   H4X13657   6.578   4.625   4.054 -2.0812  0.1873  1.5459
  127SOPE   H4Y13658   6.595   4.730   4.197 -4.0156 -0.8146 -0.7561
  127SOPE   C3513659   6.640   4.534   4.226  0.4638 -0.1008 -0.7810
  127SOPE   H5X13660   6.697   4.446   4.190 -0.0485 -1.9814  2.5672
  127SOPE   H5Y13661   6.532   4.507   4.228  0.0817  0.8969 -3.6424
  127SOPE   C3613662   6.701   4.563   4.366 -0.0676  0.3766 -0.7242
  127SOPE   H6X13663   6.665   4.657   4.411 -0.5754 -0.0969 -0.1306
  127SOPE   H6Y13664   6.810   4.563   4.345  0.5090  2.4410  1.7876
  127SOPE   C3713665   6.666   4.446   4.460  0.7489 -0.2497 -0.2761
  127SOPE   H7X13666   6.733   4.364   4.427 -0.0277 -0.3460 -1.6612
  127SOPE   H7Y13667   6.558   4.426   4.442 -0.3433  3.9544  0.6075
  127SOPE   C3813668   6.683   4.467   4.609 -1.6394  0.2486  0.4013
  127SOPE   H8X13669   6.642   4.380   4.663 -2.3049  1.0954  1.2768
  127SOPE   H8Y13670   6.634   4.557   4.650 -1.1509  0.6982  0.0193
  127SOPE   C3913671   6.830   4.473   4.656 -0.0245  0.6604 -0.5093
  127SOPE   H9X13672   6.864   4.572   4.617 -2.1069  1.5992 -0.0469
  127SOPE   H9Y13673   6.887   4.387   4.614  0.5015 -1.1439  3.4472
  127SOPE  C31013674   6.839   4.471   4.819 -0.0265 -0.3555  0.9063
  127SOPE  H10X13675   6.820   4.368   4.857 -0.0464 -0.3156  1.0049
  127SOPE  H10Y13676   6.760   4.543   4.849 -0.1886  0.5244 -1.4449
  127SOPE  C31113677   6.971   4.517   4.884  0.5472 -0.2048 -1.0348
  127SOPE  H11X13678   6.986   4.627   4.876  2.1235 -0.2183  0.9918
  127SOPE  H11Y13679   7.055   4.481   4.820  0.9805  0.1056 -0.6480
  127SOPE  C31213680   6.988   4.471   5.024  0.4897 -0.1099 -0.4425
  127SOPE  H12X13681   6.958   4.367   5.048  0.5044  0.0286  0.1776
  127SOPE  H12Y13682   6.925   4.536   5.087  2.4402  0.7632  0.6816
  127SOPE  C31313683   7.132   4.506   5.058  0.4975 -0.6692  0.0629
  127SOPE  H13X13684   7.130   4.616   5.074 -2.3058 -0.5983 -0.1867
  127SOPE  H13Y13685   7.212   4.473   4.989  0.1075  0.0615 -0.7592
  127SOPE  C31413686   7.175   4.450   5.197 -0.1290 -0.2639 -0.1630
  127SOPE  H14X13687   7.277   4.486   5.218  0.4204 -1.3185 -0.9380
  127SOPE  H14Y13688   7.172   4.340   5.184 -1.4626 -0.4499  1.3219
  127SOPE  C31513689   7.083   4.474   5.317  0.1067  0.3635  0.1800
  127SOPE  H15X13690   6.986   4.420   5.308 -0.1627  0.7013  0.9217
  127SOPE  H15Y13691   7.065   4.584   5.325 -1.3465  0.1264  0.4716
  127SOPE  C31613692   7.156   4.439   5.448  0.0024  0.1381 -0.0048
  127SOPE  H16X13693   7.258   4.479   5.428  0.1961 -0.8816 -1.2048
  127SOPE  H16Y13694   7.149   4.328   5.459 -0.6795  0.0483 -1.2274
  127SOPE  C31713695   7.088   4.500   5.571  0.6940 -0.5951 -0.0639
  127SOPE  H17X13696   6.979   4.491   5.550  0.7272  0.0962 -0.5554
  127SOPE  H17Y13697   7.121   4.606   5.569  1.7145 -0.8792  0.5987
  127SOPE  C31813698   7.118   4.432   5.702  0.1079 -0.2282 -0.1290
  127SOPE  H18X13699   7.226   4.408   5.708  0.6730  1.8133 -1.0414
  127SOPE  H18Y13700   7.064   4.336   5.708  0.9531 -0.6305  1.3529
  127SOPE  H18Z13701   7.075   4.498   5.780  1.6965  1.1685 -0.3710
  128SOPE     N13702   2.396   4.834   3.326 -0.4772  0.4393  0.0570
  128SOPE   HN113703   2.448   4.743   3.326 -0.1809  0.6054 -0.6631
  128SOPE   HN213704   2.296   4.818   3.302 -0.3365 -1.3163  0.4717
  128SOPE   HN313705   2.435   4.878   3.240 -0.2150 -1.0939 -0.6545
  128SOPE   C1213706   2.413   4.906   3.447  0.0401  0.1511 -0.4770
  128SOPE  H12A13707   2.356   4.857   3.529  1.1712  1.8618  1.4626
  128SOPE  H12B13708   2.374   5.010   3.440 -1.7313 -0.4498 -0.2017
  128SOPE   C1113709   2.567   4.896   3.498  0.3575 -0.6709 -0.0872
  128SOPE  H11A13710   2.591   4.987   3.557  2.1815 -1.6171  0.6936
  128SOPE  H11B13711   2.626   4.896   3.404 -1.9911  2.7652 -1.7954
  128SOPE     P13712   2.636   4.641   3.519  0.2676  0.0411  0.2026
  128SOPE   O1313713   2.784   4.646   3.510  0.7084 -0.1500  0.5851
  128SOPE   O1413714   2.565   4.603   3.395 -0.3331 -0.1980 -0.1303
  128SOPE   O1213715   2.583   4.781   3.576 -0.2681  0.5150 -0.0219
  128SOPE   O1113716   2.601   4.534   3.634  0.5591 -0.3126 -0.1709
  128SOPE    C113717   2.609   4.589   3.765 -0.4415 -0.1220 -0.6187
  128SOPE    HA13718   2.527   4.660   3.788 -1.7378 -1.4610 -0.9772
  128SOPE    HB13719   2.707   4.639   3.780 -0.6174 -0.2699  1.2944
  128SOPE    C213720   2.614   4.484   3.880  0.6817  0.3259  0.9128
  128SOPE    HS13721   2.674   4.401   3.839 -2.4111 -2.7669  2.1370
  128SOPE   O2113722   2.478   4.445   3.893  0.4562  0.0969  0.4644
  128SOPE   C2113723   2.458   4.318   3.921  0.2502  0.7499 -0.0806
  128SOPE   O2213724   2.549   4.235   3.941 -0.5503 -0.4325  0.0546
  128SOPE   C2213725   2.314   4.286   3.933  0.5450 -0.1718 -0.0429
  128SOPE   H2R13726   2.288   4.211   3.855  0.7517 -1.1935  0.8399
  128SOPE   H2S13727   2.251   4.372   3.902 -1.3586 -2.2590 -2.2966
  128SOPE    C313728   2.669   4.546   4.013  0.8933  0.2103 -0.1480
  128SOPE    HX13729   2.598   4.622   4.054 -0.1912  0.4473 -2.3126
  128SOPE    HY13730   2.764   4.595   3.982  0.2560  1.2824 -0.4807
  128SOPE   O3113731   2.669   4.444   4.117  0.0620  0.0221  0.4177
  128SOPE   C3113732   2.786   4.396   4.157 -0.5300  0.0105 -0.6803
  128SOPE   O3213733   2.896   4.415   4.109  0.1912 -0.1926 -0.0509
  128SOPE   C3213734   2.764   4.326   4.294 -0.2422 -0.2373 -0.2319
  128SOPE   H2X13735   2.662   4.357   4.325  0.3047  2.0906 -0.5492
  128SOPE   H2Y13736   2.835   4.384   4.358  0.0279  0.8807 -1.5062
  128SOPE   C2313737   2.283   4.224   4.070 -0.1757 -0.3547  0.4325
  128SOPE   H3R13738   2.345   4.134   4.091 -0.9448 -0.8868  0.4610
  128SOPE   H3S13739   2.181   4.180   4.065  0.5018 -1.9629 -0.3139
  128SOPE   C2413740   2.289   4.315   4.196 -0.5259 -0.0320  0.2059
  128SOPE   H4R13741   2.370   4.387   4.174 -0.8312  0.5593  0.9507
  128SOPE   H4S13742   2.188   4.361   4.187 -0.3828 -0.0157 -1.6968
  128SOPE   C2513743   2.326   4.246   4.328  0.5598 -0.1242 -0.5229
  128SOPE   H5R13744   2.247   4.172   4.353  1.4295 -0.5732  1.0806
  128SOPE   H5S13745   2.418   4.184   4.325 -0.2388 -1.3330 -1.1883
  128SOPE   C2613746   2.345   4.354   4.442 -0.1086 -0.3667  0.9423
  128SOPE   H6R13747   2.412   4.429   4.396 -1.4245 -0.1880 -0.7686
  128SOPE   H6S13748   2.250   4.407   4.466 -2.0667 -3.3028  0.1938
  128SOPE   C2713749   2.405   4.305   4.571  0.2264  0.3644  0.0681
  128SOPE   H7R13750   2.329   4.239   4.620  0.1626  0.1154 -0.3668
  128SOPE   H7S13751   2.497   4.244   4.560 -0.3021 -0.5060  0.3444
  128SOPE   C2813752   2.433   4.412   4.675  0.3162 -0.2706  0.1982
  128SOPE   H8R13753   2.340   4.468   4.698 -0.0640 -0.8208  0.0071
  128SOPE   H8S13754   2.472   4.363   4.767  2.6289  1.5482  0.3044
  128SOPE   C2913755   2.538   4.521   4.645 -0.2544 -0.8036  0.6381
  128SOPE   H9113756   2.517   4.576   4.552  4.4509 -0.6163 -0.6136
  128SOPE  C21013757   2.663   4.542   4.700  0.7892  0.3310 -0.3186
  128SOPE  H10113758   2.720   4.628   4.661  0.3727  1.6689  1.8196
  128SOPE  C21113759   2.718   4.473   4.814 -0.2677  0.4257 -0.7495
  128SOPE  H11R13760   2.824   4.443   4.798 -0.5363 -0.3884 -1.0407
  128SOPE  H11S13761   2.674   4.372   4.824  2.1378 -0.5417  1.1783
  128SOPE  C21213762   2.709   4.537   4.947  1.4962 -0.2053 -0.6431
  128SOPE  H12R13763   2.605   4.562   4.975  1.8107  1.6973 -1.0418
  128SOPE  H12S13764   2.772   4.628   4.949 -0.5900  1.4644 -3.3285
  128SOPE  C21313765   2.769   4.436   5.051  0.1247  0.5944 -0.7241
  128SOPE  H13R13766   2.864   4.385   5.025  0.1149  0.1398  0.1247
  128SOPE  H13S13767   2.690   4.358   5.053  1.2620 -0.6288 -1.7516
  128SOPE  C21413768   2.794   4.489   5.196  0.1217 -0.1664 -0.8300
  128SOPE  H14R13769   2.709   4.558   5.213  0.6175  0.1960  0.2659
  128SOPE  H14S13770   2.887   4.549   5.207 -0.7770  0.8102  2.4816
  128SOPE  C21513771   2.812   4.376   5.292 -0.1374 -0.5309 -0.4468
  128SOPE  H15R13772   2.898   4.312   5.265  1.4578  0.8434  1.1498
  128SOPE  H15S13773   2.728   4.303   5.280 -0.0214 -1.0096  1.3808
  128SOPE  C21613774   2.835   4.412   5.439  0.0277 -0.0087  0.0554
  128SOPE  H16R13775   2.834   4.316   5.495 -1.0798  0.7524  1.4336
  128SOPE  H16S13776   2.741   4.457   5.477  0.0797 -0.2553  0.4871
  128SOPE  C21713777   2.947   4.510   5.469 -0.6088 -0.9408  0.5214
  128SOPE  H17R13778   2.952   4.594   5.396 -0.3400 -1.1737  0.2697
  128SOPE  H17S13779   3.043   4.454   5.460 -0.8438 -1.4913  1.3643
  128SOPE  C21813780   2.931   4.577   5.605  0.0646  0.7016 -0.1684
  128SOPE  H18R13781   2.943   4.503   5.687 -3.2542  0.6584  0.4405
  128SOPE  H18S13782   2.832   4.627   5.610 -0.5243 -0.3737 -0.7508
  128SOPE  H18T13783   3.006   4.658   5.619  1.5464 -0.4547 -1.0693
  128SOPE   C3313784   2.795   4.177   4.311  0.5507  0.0747  0.3465
  128SOPE   H3X13785   2.789   4.119   4.216  0.2953 -0.5600  0.7490
  128SOPE   H3Y13786   2.714   4.139   4.377  0.9122 -1.9066 -0.2790
  128SOPE   C3413787   2.927   4.150   4.376 -0.8253 -0.5368 -0.2797
  128SOPE   H4X13788   2.919   4.199   4.475 -1.7513  1.3391 -1.2272
  128SOPE   H4Y13789   3.001   4.209   4.317  1.1498 -0.0473  2.4520
  128SOPE   C3513790   2.969   4.002   4.399 -0.3886  0.3082  0.3474
  128SOPE   H5X13791   3.061   4.018   4.459  0.1217  0.6003 -0.5041
  128SOPE   H5Y13792   2.980   3.950   4.302 -1.2709  1.9146 -0.6759
  128SOPE   C3613793   2.873   3.927   4.490  1.1673  0.2453 -0.1825
  128SOPE   H6X13794   2.773   3.911   4.443  0.8839 -1.3224  0.9042
  128SOPE   H6Y13795   2.843   3.985   4.580  1.1205  3.4680 -2.1068
  128SOPE   C3713796   2.930   3.789   4.519 -0.2818 -0.1153 -0.1702
  128SOPE   H7X13797   3.020   3.808   4.582 -0.8860  0.1250  0.6292
  128SOPE   H7Y13798   2.964   3.735   4.428 -1.9608  0.4259 -1.1558
  128SOPE   C3813799   2.831   3.693   4.582 -0.1224  0.1892 -0.5812
  128SOPE   H8X13800   2.746   3.665   4.517 -0.2890  1.6668 -1.0385
  128SOPE   H8Y13801   2.782   3.749   4.665 -0.4477  0.1389 -0.7414
  128SOPE   C3913802   2.898   3.564   4.623  0.2223  0.6710 -0.7066
  128SOPE   H9X13803   3.004   3.589   4.644 -0.0820 -0.0604  2.0608
  128SOPE   H9Y13804   2.900   3.491   4.540  0.6913  2.0631 -1.9600
  128SOPE  C31013805   2.818   3.500   4.742 -0.3451  0.0398 -0.4004
  128SOPE  H10X13806   2.807   3.577   4.822  0.3185  0.6296 -0.8608
  128SOPE  H10Y13807   2.874   3.421   4.795 -1.6086 -1.5247 -1.3077
  128SOPE  C31113808   2.672   3.447   4.714  0.0923 -0.0606  0.1659
  128SOPE  H11X13809   2.690   3.347   4.670  2.7718  0.5169 -0.2001
  128SOPE  H11Y13810   2.614   3.509   4.643 -0.1432  0.1493  0.5401
  128SOPE  C31213811   2.600   3.428   4.850  0.0303  0.1596 -0.9661
  128SOPE  H12X13812   2.611   3.517   4.916  0.8473 -1.4096  1.1241
  128SOPE  H12Y13813   2.654   3.350   4.906 -1.5143 -0.5399 -0.3913
  128SOPE  C31313814   2.452   3.392   4.833  0.5541  0.5313 -0.2144
  128SOPE  H13X13815   2.449   3.310   4.758 -1.0822 -0.6096  1.0284
  128SOPE  H13Y13816   2.382   3.467   4.790 -0.5514  0.0263  0.6679
  128SOPE  C31413817   2.390   3.345   4.968  0.0717 -0.1305  0.0878
  128SOPE  H14X13818   2.403   3.432   5.036 -0.2592  0.6541 -0.8242
  128SOPE  H14Y13819   2.451   3.262   5.009  1.0642  0.5777  0.0873
  128SOPE  C31513820   2.247   3.295   4.947 -0.6147  0.2891 -0.2320
  128SOPE  H15X13821   2.265   3.199   4.896  3.8753  1.6041 -1.5699
  128SOPE  H15Y13822   2.194   3.374   4.889  1.2519  2.3101  0.6675
  128SOPE  C31613823   2.182   3.280   5.079  0.3830  0.0775 -0.7513
  128SOPE  H16X13824   2.188   3.375   5.137 -1.7792  0.6398 -1.3615
  128SOPE  H16Y13825   2.243   3.205   5.134  0.4845 -0.9003 -2.1474
  128SOPE  C31713826   2.038   3.232   5.081 -1.0152 -0.4480 -0.1841
  128SOPE  H17X13827   2.051   3.125   5.057 -0.2315 -0.4318  0.1569
  128SOPE  H17Y13828   1.969   3.286   5.012 -2.4556 -3.2918 -1.1071
  128SOPE  C31813829   1.976   3.227   5.217  0.1843 -0.5236 -0.2854
  128SOPE  H18X13830   1.866   3.218   5.220  0.1254  0.2000 -0.0715
  128SOPE  H18Y13831   1.992   3.327   5.264  0.8352 -0.7763  0.0486
  128SOPE  H18Z13832   2.023   3.142   5.270  0.5895 -0.4600 -0.5344
  129OSM      N13833   1.878   2.041   7.669  0.7632 -0.3477 -0.1203
  129OSM    C1513834   1.728   2.073   7.659 -0.1324  0.5340 -0.4415
  129OSM   H15A13835   1.683   2.002   7.591 -1.1131  1.6040 -0.9449
  129OSM   H15B13836   1.714   2.173   7.621 -0.1886  0.4135 -0.7393
  129OSM   H15C13837   1.686   2.075   7.758  1.7087 -2.8472  0.5759
  129OSM    C1413838   1.947   2.124   7.776  0.1025 -0.0483 -0.7457
  129OSM   H14A13839   2.050   2.098   7.796  0.5907  0.4721 -2.4191
  129OSM   H14B13840   1.899   2.113   7.872  1.0905 -0.3054 -0.2681
  129OSM   H14C13841   1.945   2.228   7.748  0.2349  0.4513  1.0079
  129OSM    C1313842   1.903   1.902   7.696 -0.3734  0.3962 -0.7093
  129OSM   H13A13843   1.844   1.835   7.634 -1.4650  0.1406  0.5387
  129OSM   H13B13844   1.875   1.881   7.798 -2.6655  1.9932 -0.9349
  129OSM   H13C13845   2.005   1.880   7.671  0.5051  2.7948  0.4750
  129OSM    C1213846   1.936   2.089   7.541 -0.5184  0.1770 -0.0860
  129OSM   H12A13847   2.042   2.068   7.540 -0.4555  0.2882  1.7150
  129OSM   H12B13848   1.933   2.196   7.531 -2.3616 -0.0180 -2.9824
  129OSM    C1113849   1.885   2.031   7.401 -0.2835  0.4437 -0.3559
  129OSM   H11A13850   1.931   2.091   7.319 -2.4080  0.8885 -1.2730
  129OSM   H11B13851   1.777   2.051   7.389 -0.1590  2.1749  0.9280
  129OSM      P13852   1.824   1.780   7.371  0.0739 -0.5949  0.0743
  129OSM    O1313853   1.880   1.651   7.344 -0.0130 -0.0473  1.0601
  129OSM    O1413854   1.718   1.789   7.474  0.1397 -0.2638 -0.7801
  129OSM    O1113855   1.757   1.826   7.235 -0.3548  0.7571  0.8748
  129OSM    O1213856   1.932   1.891   7.388  0.4059  0.0661  0.2130
  129OSM    C1S13857   1.822   1.865   7.111  0.2926  0.1993 -1.2417
  129OSM    H1S13858   1.918   1.810   7.100 -0.9348 -2.0116 -1.4384
  129OSM    H1T13859   1.838   1.975   7.110  0.1569  0.2194 -1.2317
  129OSM     NF13860   1.827   1.814   6.859  0.0028 -0.5263  0.9952
  129OSM    HNF13861   1.806   1.888   6.795 -0.4695 -0.4839  1.1982
  129OSM    C2S13862   1.744   1.813   6.980 -0.7876  0.4257  0.3839
  129OSM    H2S13863   1.719   1.706   7.000  0.5721 -0.1181 -0.6297
  129OSM    C3S13864   1.609   1.887   6.959 -0.3384  0.2636 -0.0131
  129OSM    H3S13865   1.631   1.994   6.939 -2.5674  0.7453 -0.1471
  129OSM     O313866   1.535   1.902   7.082 -0.5433  0.5249  0.1841
  129OSM    HO313867   1.600   1.894   7.152  0.4512  1.9222 -0.5236
  129OSM    C4S13868   1.528   1.842   6.845  0.2389 -0.2391 -0.0056
  129OSM    H4S13869   1.537   1.916   6.764  1.1545 -0.1457  0.1701
  129OSM    C5S13870   1.436   1.736   6.837 -1.1348  0.3452 -0.1768
  129OSM    H5S13871   1.414   1.671   6.922 -2.4419  0.3564 -0.4971
  129OSM    C6S13872   1.361   1.694   6.709 -0.2653 -0.0107 -0.3606
  129OSM    H6S13873   1.255   1.721   6.727 -0.9198 -2.1639 -0.7097
  129OSM    H6T13874   1.378   1.585   6.702  0.3219 -0.0312  1.0141
  129OSM    C7S13875   1.433   1.759   6.584 -0.2742 -0.1450 -0.3395
  129OSM    H7S13876   1.543   1.746   6.592 -0.5020 -3.0736 -0.8544
  129OSM    H7T13877   1.416   1.869   6.583 -2.3177 -0.4155 -2.2461
  129OSM    C8S13878   1.394   1.691   6.448  0.4271  0.1525 -0.3929
  129OSM    H8S13879   1.287   1.713   6.430  0.1514 -0.6710  0.1862
  129OSM    H8T13880   1.413   1.582   6.450 -2.5232 -0.4605 -1.7161
  129OSM    C9S13881   1.486   1.738   6.334  0.5523  0.6349  0.1926
  129OSM    H9S13882   1.592   1.726   6.365  1.6748  0.6105 -3.2468
  129OSM    H9T13883   1.474   1.848   6.336 -0.0571  0.5631  1.3919
  129OSM   C10S13884   1.446   1.673   6.197  0.1441  0.1211  0.0904
  129OSM   H10S13885   1.335   1.663   6.196  0.0686  0.8919 -0.2202
  129OSM   H10T13886   1.480   1.567   6.189  0.7030  0.3228 -0.2338
  129OSM   C11S13887   1.488   1.752   6.068 -0.4084 -0.0059 -0.6342
  129OSM   H11S13888   1.595   1.772   6.085 -0.6084  0.3082  0.2781
  129OSM   H11T13889   1.446   1.854   6.062  1.6249  0.8888 -0.3677
  129OSM   C12S13890   1.480   1.673   5.939  0.2528 -0.5802  0.0404
  129OSM   H12S13891   1.377   1.647   5.906 -0.3278  1.0925  0.4331
  129OSM   H12T13892   1.535   1.580   5.964  2.2092  0.9991  2.0647
  129OSM   C13S13893   1.543   1.751   5.821  0.0180 -0.4638 -0.3122
  129OSM   H13S13894   1.641   1.782   5.863 -0.8125 -1.1422  2.3075
  129OSM   H13T13895   1.481   1.841   5.801 -0.2478 -0.7021 -0.5671
  129OSM   C14S13896   1.549   1.681   5.690  0.5125  0.2834  0.0149
  129OSM   H14S13897   1.451   1.629   5.683  0.5379  0.1225  0.7563
  129OSM   H14T13898   1.635   1.612   5.694  1.9171  1.9871  0.3902
  129OSM   C15S13899   1.567   1.784   5.584  0.0116 -0.0407  0.2004
  129OSM   H15S13900   1.631   1.870   5.614  2.1548 -1.5092  0.0081
  129OSM   H15T13901   1.468   1.825   5.552  1.5706  3.4882 -0.5733
  129OSM   C16S13902   1.632   1.728   5.456  0.9150 -0.4817  0.9263
  129OSM   H16S13903   1.739   1.704   5.473  2.2886  2.1058 -2.7101
  129OSM   H16T13904   1.636   1.826   5.402 -0.9506 -0.3714  0.9208
  129OSM   C17S13905   1.552   1.624   5.368 -0.2330  0.1537 -0.7779
  129OSM   H17S13906   1.470   1.659   5.302  0.3896 -0.7297 -2.0426
  129OSM   H17T13907   1.513   1.553   5.444  1.7027 -2.0446 -1.7210
  129OSM   C18S13908   1.645   1.543   5.284 -0.3187  0.2031 -0.8615
  129OSM   H18S13909   1.605   1.443   5.254 -0.1687  0.0163 -0.4538
  129OSM   H18T13910   1.730   1.518   5.352  0.2682  2.7198 -0.5961
  129OSM   H18U13911   1.681   1.608   5.202  0.8581  2.0575  0.9986
  129OSM    C1F13912   1.922   1.724   6.835  0.0571 -0.2546  0.2199
  129OSM     OF13913   1.921   1.623   6.899 -0.0383  0.3095 -0.2491
  129OSM    C2F13914   2.026   1.753   6.736  0.2889  0.3540  0.5274
  129OSM    H2F13915   2.123   1.787   6.778  0.0360  0.6174  0.8960
  129OSM    H2G13916   1.984   1.823   6.661  0.3686 -0.3210 -0.1596
  129OSM    C3F13917   2.052   1.625   6.654 -0.2211 -0.5482 -0.2827
  129OSM    H3F13918   1.963   1.575   6.612 -0.5290 -1.5792  1.5142
  129OSM    H3G13919   2.075   1.548   6.730 -0.6361 -0.9914 -0.6009
  129OSM    C4F13920   2.164   1.629   6.550  0.1509  0.3563  0.0097
  129OSM    H4F13921   2.120   1.688   6.467 -0.2019  0.6991  0.4388
  129OSM    H4G13922   2.187   1.526   6.515  1.8608  0.5354  0.4838
  129OSM    C5F13923   2.294   1.676   6.600  0.0716 -0.1046 -0.6614
  129OSM    H5F13924   2.289   1.782   6.634  1.5512 -0.2989  0.2881
  129OSM    H5G13925   2.376   1.675   6.525 -1.3346  0.5078 -2.2551
  129OSM    C6F13926   2.339   1.587   6.724 -0.0739  0.6133  0.1241
  129OSM    H6F13927   2.336   1.483   6.686  0.2108  1.0187 -1.0430
  129OSM    H6G13928   2.289   1.599   6.822  1.0107  0.0563  0.7681
  129OSM    C7F13929   2.487   1.608   6.761  0.1622 -0.0962 -0.4884
  129OSM    H7F13930   2.489   1.710   6.806 -0.8620 -0.2043 -0.1731
  129OSM    H7G13931   2.555   1.611   6.673  1.5796 -2.7758  0.3882
  129OSM    C8F13932   2.544   1.505   6.868 -0.4347 -0.5354 -0.7644
  129OSM    H8F13933   2.491   1.526   6.964  0.0580  2.1296 -0.9987
  129OSM    H8G13934   2.649   1.538   6.883  0.6803 -4.0905  0.2400
  129OSM    C9F13935   2.535   1.364   6.826 -0.2375 -0.5649  0.2428
  129OSM    H9F13936   2.461   1.304   6.881 -0.2439 -1.9995 -1.2693
  129OSM   C10F13937   2.611   1.304   6.734 -0.4944 -0.3160  0.7177
  129OSM   H10F13938   2.587   1.201   6.706 -1.3369  0.2154 -0.6574
  129OSM   C11F13939   2.729   1.358   6.652 -0.0642 -0.1530  0.3223
  129OSM   H11F13940   2.817   1.293   6.669  0.3499  0.4022  0.3289
  129OSM   H11G13941   2.752   1.462   6.683 -3.3763  1.1425 -1.1326
  129OSM   C12F13942   2.709   1.369   6.496 -0.1264 -0.0754 -0.2437
  129OSM   H12F13943   2.678   1.273   6.449  0.3607 -0.3048 -0.1075
  129OSM   H12G13944   2.813   1.382   6.458  0.8970 -1.9738  1.6784
  129OSM   C13F13945   2.612   1.475   6.453 -0.0297 -0.0458 -1.1486
  129OSM   H13F13946   2.655   1.575   6.473  0.5987 -0.4103 -0.6161
  129OSM   H13G13947   2.518   1.472   6.514  0.7867 -0.3872  0.1337
  129OSM   C14F13948   2.565   1.462   6.308 -0.2471  1.2076  0.7758
  129OSM   H14F13949   2.548   1.361   6.265  0.9637  2.3862 -2.8473
  129OSM   H14G13950   2.644   1.500   6.239 -0.5169 -1.0282 -0.8913
  129OSM   C15F13951   2.437   1.542   6.283 -0.5181 -0.6573  0.8071
  129OSM   H15F13952   2.444   1.652   6.281  0.7395 -0.7397  0.2727
  129OSM   H15G13953   2.363   1.516   6.362 -0.9129  1.3137  1.1223
  129OSM   C16F13954   2.380   1.500   6.146 -0.0604  0.8105 -0.4550
  129OSM   H16F13955   2.277   1.542   6.145  0.0108  1.0790  0.9703
  129OSM   H16G13956   2.368   1.389   6.143  0.3930  0.7927 -2.3049
  129OSM   C17F13957   2.460   1.548   6.026  0.5318 -0.0426 -0.5441
  129OSM   H17F13958   2.528   1.632   6.052  0.0690 -0.0392  0.7127
  129OSM   H17G13959   2.390   1.591   5.950 -0.8496  0.4026  0.9287
  129OSM   C18F13960   2.544   1.436   5.966  0.2205 -0.5876  0.8962
  129OSM   H18F13961   2.472   1.354   5.944 -0.1621 -0.2087  0.6958
  129OSM   H18G13962   2.633   1.408   6.025  1.6362 -1.3850 -1.4939
  129OSM   H18H13963   2.588   1.453   5.865  0.5236 -1.4486  0.8764
  130OSM      N13964   0.976   2.817   7.875 -0.2812 -0.1201  0.1623
  130OSM    C1513965   0.921   2.673   7.884 -0.3008  0.3380 -0.0765
  130OSM   H15A13966   0.874   2.637   7.793  0.9761 -3.6029  0.6553
  130OSM   H15B13967   0.853   2.665   7.968  1.1255  0.0584  1.0808
  130OSM   H15C13968   0.999   2.603   7.909 -1.9472 -0.9736  1.6442
  130OSM    C1413969   0.882   2.909   7.934 -0.3125  0.2604 -0.5856
  130OSM   H14A13970   0.883   2.900   8.041  0.5228 -0.2348 -0.6250
  130OSM   H14B13971   0.781   2.881   7.906  0.6457 -2.0098 -2.0830
  130OSM   H14C13972   0.892   3.013   7.906 -0.0685 -0.2398 -2.4829
  130OSM    C1313973   1.100   2.819   7.961 -0.0135 -0.0248  0.3007
  130OSM   H13A13974   1.149   2.914   7.948  1.1905 -0.6323  0.2678
  130OSM   H13B13975   1.162   2.732   7.942  1.2018  1.0443 -0.8749
  130OSM   H13C13976   1.071   2.817   8.065  2.6547 -2.3814  1.1205
  130OSM    C1213977   1.007   2.840   7.727  0.2720 -0.3894 -0.0159
  130OSM   H12A13978   0.913   2.815   7.682  0.3010 -0.8532  0.1844
  130OSM   H12B13979   1.080   2.769   7.691 -2.0153 -1.3211 -3.2924
  130OSM    C1113980   1.041   2.978   7.677 -0.4464  0.1685 -0.1070
  130OSM   H11A13981   0.968   3.040   7.732 -0.3909  0.4670 -0.3669
  130OSM   H11B13982   1.039   2.988   7.566  1.6199 -0.0403 -0.2125
  130OSM      P13983   1.296   2.952   7.683  0.0050  0.5294  0.2456
  130OSM    O1313984   1.413   3.019   7.747  0.2768  0.6135  0.7011
  130OSM    O1413985   1.281   2.804   7.695  0.4802  0.1342  0.1479
  130OSM    O1113986   1.295   2.980   7.531 -0.5273  0.6421 -1.1451
  130OSM    O1213987   1.168   3.023   7.729  0.0368 -0.4331  0.6451
  130OSM    C1S13988   1.304   3.117   7.491 -0.8152 -0.1646 -0.3283
  130OSM    H1S13989   1.399   3.157   7.529 -0.2173 -2.0640  0.3146
  130OSM    H1T13990   1.218   3.173   7.532 -0.7262  1.2620 -1.9723
  130OSM     NF13991   1.301   3.272   7.296 -0.0207 -0.7928  0.2492
  130OSM    HNF13992   1.213   3.288   7.252 -0.1492 -0.3387  0.6608
  130OSM    C2S13993   1.304   3.133   7.336  0.3368 -0.5809  0.2908
  130OSM    H2S13994   1.402   3.088   7.309 -0.5355 -1.5179 -1.4146
  130OSM    C3S13995   1.199   3.045   7.266 -0.3983  0.2455  0.0126
  130OSM    H3S13996   1.103   3.091   7.298  1.0227  2.0690  1.9269
  130OSM     O313997   1.198   2.908   7.314 -0.3085  0.0142  0.4003
  130OSM    HO313998   1.247   2.921   7.396  0.0939 -1.4132  0.4229
  130OSM    C4S13999   1.207   3.052   7.119 -0.4937 -0.2351 -0.5219
  130OSM    H4S14000   1.152   3.137   7.075  1.8288  0.6572 -1.8441
  130OSM    C5S14001   1.279   2.970   7.041  0.7639 -0.3664  0.3131
  130OSM    H5S14002   1.345   2.891   7.080  0.3639  0.0493  1.8909
  130OSM    C6S14003   1.271   2.991   6.891 -0.5077  0.4834 -0.3132
  130OSM    H6S14004   1.336   3.074   6.856  1.2621 -1.0919 -0.9445
  130OSM    H6T14005   1.165   3.006   6.862 -1.2865 -1.0772  1.4518
  130OSM    C7S14006   1.319   2.858   6.827 -0.2300 -0.2377 -0.0681
  130OSM    H7S14007   1.423   2.832   6.858  0.2970  0.0124 -1.5184
  130OSM    H7T14008   1.327   2.879   6.718 -2.1206 -1.0353 -0.3962
  130OSM    C8S14009   1.237   2.734   6.835 -0.2205 -0.2638 -0.2207
  130OSM    H8S14010   1.131   2.765   6.832 -0.3196 -0.0817  2.6933
  130OSM    H8T14011   1.253   2.680   6.931 -2.7418 -0.0723  0.3848
  130OSM    C9S14012   1.261   2.628   6.719 -0.4469  0.6573 -0.9385
  130OSM    H9S14013   1.191   2.544   6.734  2.4768 -1.4656  2.1409
  130OSM    H9T14014   1.365   2.592   6.736 -1.6253 -0.9679  4.8743
  130OSM   C10S14015   1.235   2.680   6.581 -0.1270  0.3162  0.5260
  130OSM   H10S14016   1.312   2.755   6.553  0.0729 -0.6654 -1.7138
  130OSM   H10T14017   1.142   2.741   6.583 -0.8618 -0.7091 -0.7986
  130OSM   C11S14018   1.210   2.566   6.474 -0.1200 -0.3104 -0.4322
  130OSM   H11S14019   1.154   2.485   6.527  0.8330  0.6927  2.3258
  130OSM   H11T14020   1.307   2.513   6.469 -1.0768 -2.2944  0.7300
  130OSM   C12S14021   1.149   2.616   6.352 -0.0743  0.6837  0.1234
  130OSM   H12S14022   1.219   2.693   6.313  1.5111 -0.5351  0.4248
  130OSM   H12T14023   1.048   2.660   6.364 -0.4486  0.7866 -2.6908
  130OSM   C13S14024   1.134   2.516   6.242  0.3946 -0.0283  0.1182
  130OSM   H13S14025   1.107   2.420   6.290  3.6472 -0.5490  1.1635
  130OSM   H13T14026   1.239   2.504   6.208 -0.7096 -0.3853 -3.5981
  130OSM   C14S14027   1.039   2.550   6.121 -0.2759  0.4354  0.0374
  130OSM   H14S14028   1.086   2.628   6.058 -1.4955  1.1208 -0.0433
  130OSM   H14T14029   0.941   2.582   6.161  0.0706 -0.5483  1.8301
  130OSM   C15S14030   1.056   2.419   6.038 -0.8994  0.0958 -0.2344
  130OSM   H15S14031   1.007   2.337   6.095 -0.8084 -1.0229 -1.7276
  130OSM   H15T14032   1.164   2.392   6.042 -0.5433  1.3515 -0.9406
  130OSM   C16S14033   1.007   2.417   5.896  0.9021  0.2014 -0.1947
  130OSM   H16S14034   0.905   2.457   5.913  1.6515  1.7062  0.9852
  130OSM   H16T14035   1.007   2.310   5.864  2.3586  0.9257 -2.9387
  130OSM   C17S14036   1.097   2.492   5.804  0.7874 -0.1257  0.1817
  130OSM   H17S14037   1.204   2.466   5.820  0.9862  0.6349  0.1161
  130OSM   H17T14038   1.079   2.601   5.812 -0.1931  0.1735 -4.0126
  130OSM   C18S14039   1.068   2.466   5.652  0.7027  0.1715  0.0003
  130OSM   H18S14040   1.121   2.536   5.583  1.3308 -1.2065 -0.9676
  130OSM   H18T14041   0.959   2.456   5.636  0.9613 -0.2724 -1.6796
  130OSM   H18U14042   1.113   2.365   5.643 -0.4641 -0.5669  1.8326
  130OSM    C1F14043   1.379   3.374   7.329  0.0597 -0.0790  0.9783
  130OSM     OF14044   1.488   3.348   7.373  0.2822  0.1512 -0.3064
  130OSM    C2F14045   1.327   3.511   7.312  0.2548 -1.1204 -0.0043
  130OSM    H2F14046   1.312   3.566   7.407  1.4834 -0.0737 -0.3896
  130OSM    H2G14047   1.232   3.516   7.254  0.4657  0.9864 -0.2623
  130OSM    C3F14048   1.427   3.590   7.220 -0.2140  0.5524  0.2172
  130OSM    H3F14049   1.515   3.607   7.285 -0.1871  2.7527 -0.3246
  130OSM    H3G14050   1.391   3.694   7.215 -0.5689  0.3801 -0.9382
  130OSM    C4F14051   1.457   3.531   7.080  0.2803  0.4526  0.0522
  130OSM    H4F14052   1.506   3.431   7.086 -0.0686  0.2886  0.1819
  130OSM    H4G14053   1.542   3.582   7.030  1.9716 -2.4158 -0.2794
  130OSM    C5F14054   1.342   3.521   6.977  0.1365  0.0776  0.3984
  130OSM    H5F14055   1.282   3.613   6.995 -0.4339  0.7152 -3.8045
  130OSM    H5G14056   1.284   3.432   7.009  0.3110 -0.1127  0.1833
  130OSM    C6F14057   1.387   3.515   6.831 -0.5656 -0.6590 -0.3513
  130OSM    H6F14058   1.464   3.593   6.812 -1.6112  0.1253 -1.4863
  130OSM    H6G14059   1.299   3.531   6.766 -0.5114 -0.2586 -0.3235
  130OSM    C7F14060   1.454   3.377   6.801 -0.7527 -0.0989 -0.0516
  130OSM    H7F14061   1.390   3.294   6.839 -1.7968 -0.8018 -3.0771
  130OSM    H7G14062   1.551   3.371   6.856 -0.1181  0.4276 -1.0751
  130OSM    C8F14063   1.478   3.347   6.653  0.3792  0.5299  0.7344
  130OSM    H8F14064   1.538   3.429   6.608 -1.4939  1.8866  0.6092
  130OSM    H8G14065   1.375   3.348   6.614  0.3827 -4.6227 -0.1850
  130OSM    C9F14066   1.533   3.212   6.630 -0.0579  1.2651  0.4836
  130OSM    H9F14067   1.625   3.190   6.686 -0.1026 -1.5223 -0.4138
  130OSM   C10F14068   1.487   3.101   6.561  0.2001 -0.2550 -0.3548
  130OSM   H10F14069   1.551   3.011   6.557 -1.2885 -1.3055 -2.4701
  130OSM   C11F14070   1.368   3.098   6.476  0.2724  0.6988 -0.0277
  130OSM   H11F14071   1.289   3.164   6.518 -1.6416 -1.4180 -0.1328
  130OSM   H11G14072   1.329   2.994   6.477  2.2887 -0.1351 -1.3409
  130OSM   C12F14073   1.395   3.138   6.331 -1.0264 -0.2350 -0.7063
  130OSM   H12F14074   1.456   3.062   6.276 -1.4748 -1.0851 -0.0665
  130OSM   H12G14075   1.465   3.224   6.340  1.1612 -2.0120  0.7043
  130OSM   C13F14076   1.273   3.167   6.245 -0.6500  0.4925 -0.1550
  130OSM   H13F14077   1.200   3.240   6.287  0.9349  2.2899 -0.3458
  130OSM   H13G14078   1.219   3.071   6.231  1.3760 -0.5310 -1.3650
  130OSM   C14F14079   1.310   3.227   6.106  0.3567  0.0261 -0.7225
  130OSM   H14F14080   1.331   3.149   6.030  1.8110  1.2291 -1.6162
  130OSM   H14G14081   1.394   3.297   6.123  0.3772 -0.0390 -0.5499
  130OSM   C15F14082   1.190   3.301   6.034  0.3227 -0.4034 -0.0007
  130OSM   H15F14083   1.146   3.374   6.106  0.1922  0.2478 -0.7333
  130OSM   H15G14084   1.124   3.216   6.007  0.7904 -0.8139  0.1401
  130OSM   C16F14085   1.225   3.368   5.904  0.8121  0.5393 -0.0398
  130OSM   H16F14086   1.270   3.285   5.845 -0.4462 -0.3903  0.2692
  130OSM   H16G14087   1.307   3.442   5.918 -0.8799  2.5974 -0.6145
  130OSM   C17F14088   1.104   3.429   5.835 -0.9906 -0.3546 -0.2662
  130OSM   H17F14089   1.034   3.343   5.835  1.5520 -2.5845  0.0087
  130OSM   H17G14090   1.126   3.458   5.730 -2.6949 -0.1251 -0.5853
  130OSM   C18F14091   1.055   3.556   5.900 -0.0458 -0.9897 -0.7542
  130OSM   H18F14092   1.141   3.614   5.940  1.2588 -3.2700 -0.0562
  130OSM   H18G14093   0.975   3.527   5.971  0.6485 -1.9147 -0.3328
  130OSM   H18H14094   1.008   3.632   5.833  3.3045  0.7882 -1.3140
  131OSM      N14095   1.928   0.660   7.691  0.7314  0.9958 -0.0901
  131OSM    C1514096   2.070   0.645   7.726  0.8379  0.0306  0.1772
  131OSM   H15A14097   2.120   0.741   7.725 -0.1854  0.6007  1.0241
  131OSM   H15B14098   2.122   0.578   7.659 -0.3085 -1.9329  1.1541
  131OSM   H15C14099   2.073   0.598   7.823  0.6403 -0.5162 -0.0803
  131OSM    C1414100   1.865   0.515   7.704  0.1218 -1.0573 -0.3992
  131OSM   H14A14101   1.760   0.516   7.682 -0.1826 -0.5466  0.9386
  131OSM   H14B14102   1.878   0.472   7.802 -2.9057 -2.9344 -0.7181
  131OSM   H14C14103   1.914   0.447   7.636  2.9204  0.7089 -0.3532
  131OSM    C1314104   1.870   0.752   7.797  0.8256  0.3117  0.0628
  131OSM   H13A14105   1.765   0.756   7.772  0.2328 -1.1772  2.0614
  131OSM   H13B14106   1.919   0.848   7.786  2.1260 -0.2071  1.1153
  131OSM   H13C14107   1.886   0.714   7.896 -0.4108 -0.3762  0.0159
  131OSM    C1214108   1.921   0.711   7.552  0.9762 -0.4456 -0.6577
  131OSM   H12A14109   1.979   0.801   7.537  0.7349 -0.5469 -2.4999
  131OSM   H12B14110   1.817   0.732   7.532  0.5786 -1.0449  0.6454
  131OSM    C1114111   1.966   0.617   7.439  0.2859  0.2848 -0.0539
  131OSM   H11A14112   1.939   0.648   7.336 -2.6360 -1.9928 -0.1251
  131OSM   H11B14113   1.898   0.529   7.450  0.7819 -0.1163 -0.1215
  131OSM      P14114   2.211   0.699   7.384  0.3162  0.0918  0.0711
  131OSM    O1314115   2.146   0.833   7.368  0.2158 -0.2073 -0.1700
  131OSM    O1414116   2.324   0.695   7.474 -0.1435 -0.3699 -0.4616
  131OSM    O1114117   2.245   0.646   7.240 -0.0900  0.5543 -0.1938
  131OSM    O1214118   2.107   0.591   7.444  0.3413  0.7490 -0.2193
  131OSM    C1S14119   2.227   0.510   7.222  0.1419  0.3962 -0.4013
  131OSM    H1S14120   2.123   0.475   7.238  0.8557 -0.4959  3.1075
  131OSM    H1T14121   2.295   0.455   7.290  0.1600  1.2801  0.3164
  131OSM     NF14122   2.218   0.336   7.027  0.5018  0.2223 -0.4107
  131OSM    HNF14123   2.278   0.259   7.008 -0.8542 -1.3707  1.3197
  131OSM    C2S14124   2.261   0.465   7.073  0.1273 -0.2505 -0.3212
  131OSM    H2S14125   2.206   0.537   7.009  0.7519  0.4050 -0.1322
  131OSM    C3S14126   2.409   0.494   7.047  0.6879 -0.6269 -0.1502
  131OSM    H3S14127   2.469   0.440   7.124  3.0302 -1.1189 -2.1824
  131OSM     O314128   2.443   0.631   7.071  0.1555 -0.1494  0.0352
  131OSM    HO314129   2.383   0.669   7.134 -0.2432  0.2115 -0.5577
  131OSM    C4S14130   2.450   0.452   6.909 -0.3193 -0.1168  0.3037
  131OSM    H4S14131   2.493   0.351   6.917 -0.6145 -0.1029  3.0214
  131OSM    C5S14132   2.449   0.530   6.796  0.2956  0.3250  0.2696
  131OSM    H5S14133   2.423   0.636   6.804 -0.5995  0.2928 -1.6827
  131OSM    C6S14134   2.479   0.491   6.659 -0.4979 -0.6141  0.0964
  131OSM    H6S14135   2.388   0.488   6.596  0.4615 -0.0272 -1.3819
  131OSM    H6T14136   2.508   0.384   6.664  1.1612 -0.1563  1.0479
  131OSM    C7S14137   2.587   0.579   6.599  0.0187 -0.7209  0.1026
  131OSM    H7S14138   2.665   0.593   6.677  0.9043 -0.6101 -0.7804
  131OSM    H7T14139   2.541   0.679   6.579  0.6568 -0.6145 -0.8739
  131OSM    C8S14140   2.635   0.527   6.466  0.4912  0.1581  0.3837
  131OSM    H8S14141   2.636   0.416   6.463 -0.9399  0.1036  1.4020
  131OSM    H8T14142   2.745   0.547   6.459  0.3129  0.4909 -3.5521
  131OSM    C9S14143   2.569   0.575   6.338 -0.1830 -0.2984 -0.1874
  131OSM    H9S14144   2.500   0.650   6.381  0.8653 -0.7619  2.5235
  131OSM    H9T14145   2.517   0.493   6.285 -3.0683  0.9582  0.4965
  131OSM   C10S14146   2.673   0.642   6.253 -0.1002  0.2077  0.5522
  131OSM   H10S14147   2.736   0.709   6.316 -0.0247 -1.8521  2.8031
  131OSM   H10T14148   2.609   0.694   6.178  0.3322  0.4123  0.3240
  131OSM   C11S14149   2.768   0.544   6.178  0.2698 -0.0465  0.1691
  131OSM   H11S14150   2.707   0.487   6.104 -2.4918  1.5869  1.0341
  131OSM   H11T14151   2.806   0.471   6.253  3.8635  0.4417 -0.9742
  131OSM   C12S14152   2.889   0.615   6.117 -0.7692 -0.5793  0.2219
  131OSM   H12S14153   2.975   0.549   6.093  2.5940  2.9997  1.2648
  131OSM   H12T14154   2.924   0.673   6.205  1.8359 -0.8328 -0.5394
  131OSM   C13S14155   2.852   0.711   5.999  0.2340  0.1113 -0.7222
  131OSM   H13S14156   2.938   0.762   5.951  1.3627 -1.0734 -0.0315
  131OSM   H13T14157   2.781   0.786   6.039 -0.3496 -0.9159  0.2113
  131OSM   C14S14158   2.774   0.633   5.893 -0.1832 -0.0807  0.6009
  131OSM   H14S14159   2.676   0.617   5.943 -1.3220  1.1990 -1.1156
  131OSM   H14T14160   2.817   0.538   5.854 -1.3558 -0.0762 -0.7437
  131OSM   C15S14161   2.735   0.740   5.784 -0.6843 -0.2961  0.3841
  131OSM   H15S14162   2.825   0.749   5.719 -0.7057  0.0707  0.4034
  131OSM   H15T14163   2.712   0.830   5.845  2.4021 -0.2742  1.6799
  131OSM   C16S14164   2.616   0.698   5.694 -0.4602  0.1779 -0.2803
  131OSM   H16S14165   2.546   0.651   5.766 -0.0781  0.3321  0.1990
  131OSM   H16T14166   2.653   0.621   5.623 -1.2427 -0.2014 -0.2801
  131OSM   C17S14167   2.552   0.815   5.617  0.0805  0.3693 -0.5844
  131OSM   H17S14168   2.575   0.908   5.674  0.1079 -1.2668  2.2493
  131OSM   H17T14169   2.443   0.797   5.620  0.1640 -0.1218 -0.2510
  131OSM   C18S14170   2.601   0.829   5.472  0.3240 -0.9386  0.0853
  131OSM   H18S14171   2.583   0.731   5.424  1.4377  0.1287 -2.7237
  131OSM   H18T14172   2.707   0.860   5.476 -0.4025  1.7838  2.6101
  131OSM   H18U14173   2.551   0.913   5.418 -0.2537 -2.6032 -2.0837
  131OSM    C1F14174   2.097   0.302   7.020  0.1223  0.0356 -0.0301
  131OSM     OF14175   2.002   0.382   7.038  0.3232 -0.0084  0.0344
  131OSM    C2F14176   2.074   0.160   6.985 -0.1467  0.9418  0.1423
  131OSM    H2F14177   2.066   0.097   7.076 -1.9748  1.2476  0.2357
  131OSM    H2G14178   2.160   0.124   6.925  1.2804  2.0863  1.4086
  131OSM    C3F14179   1.940   0.139   6.905 -0.5270 -0.4805 -0.4158
  131OSM    H3F14180   1.952   0.203   6.815  0.9692 -0.5125 -0.2692
  131OSM    H3G14181   1.862   0.186   6.968  2.3007  0.8663  2.3368
  131OSM    C4F14182   1.913   0.000   6.857 -0.2971 -0.9210 -0.4508
  131OSM    H4F14183   1.807  -0.018   6.828  0.2179  1.7066 -4.9601
  131OSM    H4G14184   1.933  -0.055   6.951  2.2702  0.6226  0.0004
  131OSM    C5F14185   2.002  -0.057   6.744 -0.4290  0.2758 -0.2379
  131OSM    H5F14186   2.014  -0.165   6.766  0.7531  0.6087  0.9061
  131OSM    H5G14187   2.107  -0.021   6.752 -0.2576  0.0334 -1.2922
  131OSM    C6F14188   1.940  -0.037   6.608  0.1654 -0.0517  0.0486
  131OSM    H6F14189   1.946   0.073   6.591  0.1527  0.2767  1.9883
  131OSM    H6G14190   1.834  -0.067   6.621  1.0606 -2.5457  2.2807
  131OSM    C7F14191   2.006  -0.126   6.508 -0.0364 -0.4976  0.1389
  131OSM    H7F14192   1.976  -0.227   6.543 -0.7507  0.3978  2.2948
  131OSM    H7G14193   2.117  -0.120   6.508 -0.0511  3.2662 -1.8754
  131OSM    C8F14194   1.965  -0.104   6.360  0.0363  0.0151  0.3181
  131OSM    H8F14195   1.856  -0.126   6.354  0.0593  0.1507 -0.8631
  131OSM    H8G14196   2.012  -0.184   6.299  0.8550  0.6936  0.0246
  131OSM    C9F14197   2.014   0.028   6.312  0.3414 -1.3390 -0.0275
  131OSM    H9F14198   2.076   0.083   6.384 -3.5573  1.9776  1.1786
  131OSM   C10F14199   2.016   0.072   6.189  0.4605 -0.1169 -0.3223
  131OSM   H10F14200   2.045   0.177   6.173  1.2142 -0.3469 -0.5452
  131OSM   C11F14201   1.935   0.016   6.075  0.5309 -0.1051  0.4467
  131OSM   H11F14202   1.871   0.084   6.015 -1.0425 -1.5890  0.3808
  131OSM   H11G14203   1.873  -0.069   6.110  0.9959 -0.9585 -0.7206
  131OSM   C12F14204   2.014  -0.069   5.966 -0.0743  0.0129  0.3580
  131OSM   H12F14205   1.942  -0.113   5.894  0.8882 -1.7685  0.4450
  131OSM   H12G14206   2.071  -0.149   6.017  0.2513  1.5523  2.5299
  131OSM   C13F14207   2.107   0.023   5.885 -0.3871 -0.3960  0.3458
  131OSM   H13F14208   2.192   0.048   5.953 -0.3727 -0.2284  0.2665
  131OSM   H13G14209   2.048   0.109   5.848 -1.6433 -1.6506 -0.6630
  131OSM   C14F14210   2.167  -0.054   5.767  0.0209  0.5279  0.3709
  131OSM   H14F14211   2.201  -0.155   5.799 -0.8725 -0.1778 -0.8147
  131OSM   H14G14212   2.251  -0.001   5.718 -0.6556  0.1467 -1.2490
  131OSM   C15F14213   2.073  -0.089   5.652  1.6273 -0.1515  0.3452
  131OSM   H15F14214   2.019   0.002   5.618  0.1657 -1.5785 -1.3786
  131OSM   H15G14215   1.990  -0.155   5.686  0.9137 -0.3993 -1.7388
  131OSM   C16F14216   2.141  -0.161   5.530  0.1247  0.2805 -0.5664
  131OSM   H16F14217   2.234  -0.116   5.491  2.7981 -2.3583  2.1495
  131OSM   H16G14218   2.073  -0.143   5.444  0.7315  0.4134 -1.0258
  131OSM   C17F14219   2.157  -0.318   5.543  0.5044  0.0473  0.4086
  131OSM   H17F14220   2.057  -0.355   5.575  0.6936 -1.4002 -0.5807
  131OSM   H17G14221   2.225  -0.339   5.628  0.1110 -0.2878  0.6443
  131OSM   C18F14222   2.201  -0.394   5.419  0.4221  0.4970 -0.2408
  131OSM   H18F14223   2.209  -0.501   5.448 -1.3827 -0.1729 -2.0392
  131OSM   H18G14224   2.308  -0.374   5.394  0.9447 -0.9438  0.6999
  131OSM   H18H14225   2.137  -0.383   5.329 -0.4020 -1.3928  0.0654
  132OSM      N14226   6.238   2.924   7.755  0.4578 -0.0650 -0.4812
  132OSM    C1514227   6.251   2.898   7.610 -0.0414  0.4142  0.0378
  132OSM   H15A14228   6.214   2.980   7.550 -0.9267 -1.6555 -2.4111
  132OSM   H15B14229   6.198   2.808   7.585  0.9296  0.0823 -0.9250
  132OSM   H15C14230   6.352   2.875   7.581 -0.1349 -2.0488  1.4173
  132OSM    C1414231   6.299   2.817   7.838  0.2972  0.1579 -0.2604
  132OSM   H14A14232   6.345   2.863   7.925 -1.1276 -0.2747  0.7721
  132OSM   H14B14233   6.375   2.762   7.784 -0.6432 -0.4079 -1.0445
  132OSM   H14C14234   6.221   2.750   7.873  0.4113  0.0539 -0.2019
  132OSM    C1314235   6.320   3.045   7.784 -0.1314 -0.2430 -0.3677
  132OSM   H13A14236   6.304   3.081   7.885  0.3088  1.5797 -0.9112
  132OSM   H13B14237   6.292   3.125   7.718 -4.4368 -1.5669 -0.4397
  132OSM   H13C14238   6.424   3.018   7.772  0.1572 -0.5483  2.1474
  132OSM    C1214239   6.087   2.938   7.796 -0.5843  0.1489  0.1655
  132OSM   H12A14240   6.089   2.978   7.896 -0.2670 -0.3641  0.3674
  132OSM   H12B14241   6.033   2.845   7.796 -0.5643  0.1348 -0.2839
  132OSM    C1114242   6.005   3.043   7.716 -0.1540 -0.6178 -0.0538
  132OSM   H11A14243   5.898   3.032   7.745 -0.4224  1.6435 -0.0345
  132OSM   H11B14244   6.014   3.020   7.608  0.6652 -1.6526  0.2084
  132OSM      P14245   5.991   3.301   7.684  0.3406 -0.0384  0.2503
  132OSM    O1314246   5.852   3.319   7.731 -0.5578 -0.3458 -0.3558
  132OSM    O1414247   6.089   3.414   7.698  0.1481 -0.2116  0.1086
  132OSM    O1114248   5.983   3.267   7.530 -0.4155 -0.3088 -0.5786
  132OSM    O1214249   6.042   3.177   7.755  0.2083 -0.0750 -0.2894
  132OSM    C1S14250   5.896   3.338   7.446  0.1133 -0.4894  0.0573
  132OSM    H1S14251   5.915   3.447   7.439 -3.6803  0.2353 -2.2038
  132OSM    H1T14252   5.789   3.328   7.474 -0.0065 -0.1334 -0.2588
  132OSM     NF14253   5.819   3.387   7.223 -0.3856  0.9313  0.0805
  132OSM    HNF14254   5.724   3.364   7.202 -0.7284  0.3671  2.1216
  132OSM    C2S14255   5.906   3.296   7.301  0.1416 -0.1013  0.1276
  132OSM    H2S14256   6.011   3.309   7.268  0.6156 -2.4182  0.5665
  132OSM    C3S14257   5.871   3.140   7.291 -1.0641 -0.8020  0.1854
  132OSM    H3S14258   5.770   3.117   7.331 -1.2102 -1.5293 -0.5807
  132OSM     O314259   5.954   3.058   7.367 -0.1753 -0.0924 -0.3124
  132OSM    HO314260   5.980   3.125   7.431  1.4622 -1.8370  0.9813
  132OSM    C4S14261   5.884   3.092   7.154 -0.1574 -0.3337 -0.1514
  132OSM    H4S14262   5.988   3.084   7.119 -0.1285  2.0438 -0.8146
  132OSM    C5S14263   5.784   3.076   7.063  0.3377  1.5780 -0.5524
  132OSM    H5S14264   5.682   3.107   7.092 -0.5263 -0.0908 -1.6827
  132OSM    C6S14265   5.795   3.028   6.920  0.1845  0.5909 -0.2551
  132OSM    H6S14266   5.722   2.947   6.898  0.2985  0.4447 -0.1024
  132OSM    H6T14267   5.894   2.984   6.894 -0.8845 -1.1055 -1.7167
  132OSM    C7S14268   5.789   3.152   6.828  0.1156 -0.1929  0.0863
  132OSM    H7S14269   5.890   3.199   6.828  0.6075 -1.0810  2.4729
  132OSM    H7T14270   5.704   3.217   6.858 -1.1291 -1.3637 -0.8066
  132OSM    C8S14271   5.751   3.124   6.684  0.8320 -0.3843  0.7215
  132OSM    H8S14272   5.645   3.093   6.675  0.4727  1.0180 -0.2220
  132OSM    H8T14273   5.818   3.042   6.648  0.3327 -0.4437 -0.0861
  132OSM    C9S14274   5.775   3.240   6.582  0.7031  0.7106 -0.0243
  132OSM    H9S14275   5.881   3.266   6.604  1.0247 -1.2509  1.0059
  132OSM    H9T14276   5.701   3.317   6.613 -1.3281 -0.0786 -2.6159
  132OSM   C10S14277   5.741   3.203   6.437 -0.0730  0.0908  0.2240
  132OSM   H10S14278   5.636   3.168   6.444 -0.2032  0.1575 -1.0612
  132OSM   H10T14279   5.801   3.120   6.393  0.4275 -0.7868  2.4397
  132OSM   C11S14280   5.748   3.330   6.345  1.0234  0.0950 -0.3587
  132OSM   H11S14281   5.853   3.368   6.346  0.5289  1.5310 -0.6189
  132OSM   H11T14282   5.680   3.411   6.378 -0.3038 -1.1589  0.0851
  132OSM   C12S14283   5.718   3.290   6.198 -0.3687 -0.2555 -0.2492
  132OSM   H12S14284   5.622   3.235   6.190 -0.5698 -0.0151  0.4729
  132OSM   H12T14285   5.800   3.226   6.159 -0.3524 -0.3563 -0.0519
  132OSM   C13S14286   5.709   3.417   6.115  0.0360 -0.1596  0.5002
  132OSM   H13S14287   5.815   3.449   6.106  0.0220 -0.1969  0.1820
  132OSM   H13T14288   5.659   3.501   6.167  1.5720  0.1850  1.4943
  132OSM   C14S14289   5.657   3.403   5.967 -0.1779  0.1806 -0.2399
  132OSM   H14S14290   5.554   3.362   5.965 -1.5336  3.1576  1.7074
  132OSM   H14T14291   5.712   3.329   5.905  0.0025  1.3664 -1.5451
  132OSM   C15S14292   5.657   3.540   5.894 -0.7939 -0.5102  0.6208
  132OSM   H15S14293   5.758   3.585   5.891 -0.5334 -1.1165 -1.8585
  132OSM   H15T14294   5.585   3.606   5.947 -2.6061 -1.8401 -0.0772
  132OSM   C16S14295   5.614   3.529   5.747  0.1251 -0.2078 -0.2916
  132OSM   H16S14296   5.516   3.476   5.750  0.2375 -0.4045 -0.0221
  132OSM   H16T14297   5.675   3.460   5.685 -1.1333 -0.6504 -1.0793
  132OSM   C17S14298   5.586   3.657   5.667 -0.0124 -0.0562  0.0281
  132OSM   H17S14299   5.679   3.718   5.661  1.4185 -2.1165  0.2222
  132OSM   H17T14300   5.509   3.711   5.726  0.4931  1.0575 -0.3069
  132OSM   C18S14301   5.528   3.632   5.521 -0.3946  0.2415 -0.4521
  132OSM   H18S14302   5.536   3.719   5.453  2.1498 -0.2007 -0.7893
  132OSM   H18T14303   5.419   3.609   5.533 -0.6902  1.4683 -0.6433
  132OSM   H18U14304   5.586   3.553   5.469  1.7152  0.4544  1.4787
  132OSM    C1F14305   5.856   3.501   7.174 -0.0953  0.2586 -0.1567
  132OSM     OF14306   5.962   3.552   7.194  0.3161  0.7925 -0.2962
  132OSM    C2F14307   5.754   3.575   7.091 -1.1136  0.1901  0.3313
  132OSM    H2F14308   5.739   3.677   7.131  0.5277 -0.1848  2.0145
  132OSM    H2G14309   5.661   3.514   7.084  0.1986 -1.9390  0.3955
  132OSM    C3F14310   5.813   3.605   6.948  0.0925 -0.4189  0.2246
  132OSM    H3F14311   5.846   3.508   6.905 -1.9220 -1.8793  1.7405
  132OSM    H3G14312   5.895   3.680   6.952 -0.4614  0.1558  1.2654
  132OSM    C4F14313   5.701   3.662   6.845 -0.5335 -0.1561  0.9943
  132OSM    H4F14314   5.694   3.772   6.865 -1.7558  0.4056 -2.0002
  132OSM    H4G14315   5.604   3.617   6.873 -1.4463  0.6481 -0.7371
  132OSM    C5F14316   5.752   3.661   6.701 -1.0009  0.6871 -0.0442
  132OSM    H5F14317   5.772   3.552   6.695  2.1919  1.1871 -0.0903
  132OSM    H5G14318   5.841   3.723   6.678 -0.0384  0.0578  1.7851
  132OSM    C6F14319   5.659   3.708   6.598  0.1252 -0.0479 -0.2963
  132OSM    H6F14320   5.622   3.803   6.642 -1.3027 -0.8975  0.3956
  132OSM    H6G14321   5.580   3.631   6.597  0.4663 -0.4202  0.5605
  132OSM    C7F14322   5.723   3.730   6.460 -0.1194 -0.1729  0.1667
  132OSM    H7F14323   5.767   3.636   6.421  0.9055  0.8892 -1.3662
  132OSM    H7G14324   5.812   3.797   6.458  0.2788 -0.7101 -0.5619
  132OSM    C8F14325   5.631   3.796   6.356  0.6538  0.0346 -0.0461
  132OSM    H8F14326   5.608   3.897   6.397 -1.9510 -0.4733 -0.0914
  132OSM    H8G14327   5.533   3.745   6.347  0.7074  0.2914 -2.8419
  132OSM    C9F14328   5.688   3.796   6.215  0.4801  0.0260  0.5965
  132OSM    H9F14329   5.764   3.720   6.189 -1.7349 -1.3818 -2.3859
  132OSM   C10F14330   5.650   3.868   6.112  0.2528  0.1114  0.2546
  132OSM   H10F14331   5.717   3.872   6.025 -0.5739  2.3003 -0.3466
  132OSM   C11F14332   5.545   3.981   6.107  0.2498  0.3282  0.6796
  132OSM   H11F14333   5.598   4.074   6.137  1.7740 -0.2087 -0.2254
  132OSM   H11G14334   5.454   3.957   6.167  1.0680  0.0428  1.8407
  132OSM   C12F14335   5.493   4.010   5.963  0.1855 -0.0641  1.0043
  132OSM   H12F14336   5.401   4.071   5.971 -0.2151 -0.0660 -2.3291
  132OSM   H12G14337   5.455   3.918   5.914 -1.0149  0.2052  1.3929
  132OSM   C13F14338   5.599   4.089   5.884  0.7714 -0.1020 -0.2240
  132OSM   H13F14339   5.695   4.034   5.895 -0.2513 -1.7295  1.0469
  132OSM   H13G14340   5.609   4.178   5.950 -2.2676 -0.9686  1.5912
  132OSM   C14F14341   5.573   4.114   5.732 -0.2461  0.0806 -0.2634
  132OSM   H14F14342   5.529   4.017   5.702  0.7939 -0.0678 -1.4127
  132OSM   H14G14343   5.668   4.145   5.682 -0.9344  0.8178 -1.1550
  132OSM   C15F14344   5.461   4.214   5.691  0.5255  0.1668 -1.1332
  132OSM   H15F14345   5.489   4.319   5.714 -2.0211  0.5507  0.5882
  132OSM   H15G14346   5.377   4.188   5.759  2.2878 -2.1297  0.3508
  132OSM   C16F14347   5.421   4.201   5.552 -0.1585 -0.0686  0.6754
  132OSM   H16F14348   5.313   4.225   5.550 -0.2954 -0.6847  0.3561
  132OSM   H16G14349   5.444   4.100   5.512  1.3463  1.2118 -1.9350
  132OSM   C17F14350   5.494   4.308   5.466 -0.4227 -0.1265 -0.6589
  132OSM   H17F14351   5.601   4.282   5.471  0.0512  1.9005  1.0499
  132OSM   H17G14352   5.491   4.410   5.509  0.3888 -1.3687  2.5982
  132OSM   C18F14353   5.442   4.317   5.326  0.3211 -0.3416  0.5160
  132OSM   H18F14354   5.502   4.387   5.264  1.1184 -0.8258  0.7331
  132OSM   H18G14355   5.339   4.358   5.322 -0.6918 -2.6761  0.6863
  132OSM   H18H14356   5.440   4.219   5.272  1.1248 -0.4396  0.6480
  133OSM      N14357   1.746   5.403   7.725 -0.2286 -0.7083 -0.4324
  133OSM    C1514358   1.704   5.489   7.608 -0.7212 -0.2729  0.0258
  133OSM   H15A14359   1.788   5.556   7.600 -1.0506 -0.0180 -1.5657
  133OSM   H15B14360   1.617   5.547   7.635  0.7160  1.8305  0.3459
  133OSM   H15C14361   1.681   5.435   7.517 -2.1672  0.9495 -0.3756
  133OSM    C1414362   1.870   5.324   7.683 -0.3262  0.5037 -0.6319
  133OSM   H14A14363   1.924   5.282   7.766 -0.5179  2.8661  0.7702
  133OSM   H14B14364   1.939   5.380   7.622 -0.4430 -0.0439 -1.2790
  133OSM   H14C14365   1.831   5.240   7.628  0.3545  0.3916 -0.9577
  133OSM    C1314366   1.782   5.503   7.835 -0.2347 -0.4313  0.5697
  133OSM   H13A14367   1.810   5.439   7.917 -1.3732 -1.0256  0.5234
  133OSM   H13B14368   1.692   5.552   7.870 -0.1377 -0.5249  0.9581
  133OSM   H13C14369   1.876   5.553   7.820 -0.6113  1.3080  3.3274
  133OSM    C1214370   1.638   5.311   7.761 -0.1123  0.3284 -0.0914
  133OSM   H12A14371   1.552   5.364   7.800 -1.2556 -0.5750 -1.2834
  133OSM   H12B14372   1.665   5.262   7.853 -1.0711 -3.6630 -1.7225
  133OSM    C1114373   1.584   5.202   7.656 -0.4436  0.0057 -0.2463
  133OSM   H11A14374   1.558   5.261   7.566  2.5619  2.7994  0.5389
  133OSM   H11B14375   1.493   5.161   7.705 -1.1968  0.1755 -1.4576
  133OSM      P14376   1.672   5.023   7.490  0.2324 -0.6104 -0.3406
  133OSM    O1314377   1.799   4.953   7.479 -0.9613  0.0702  0.1831
  133OSM    O1414378   1.552   4.939   7.498  0.2914 -0.1216 -1.5367
  133OSM    O1114379   1.640   5.133   7.381 -0.4963 -0.1066 -0.0969
  133OSM    O1214380   1.684   5.103   7.627  0.6066  0.0281 -0.0022
  133OSM    C1S14381   1.652   5.092   7.244  0.3197  0.1388  0.8323
  133OSM    H1S14382   1.599   4.996   7.228  0.6693 -0.0926  1.0557
  133OSM    H1T14383   1.753   5.069   7.205 -1.2517 -1.2055 -2.9775
  133OSM     NF14384   1.631   5.162   7.008  0.7406  0.4310 -0.2114
  133OSM    HNF14385   1.710   5.203   6.963  1.2305 -1.0915 -0.7725
  133OSM    C2S14386   1.601   5.209   7.153 -0.7120  0.0051 -0.2795
  133OSM    H2S14387   1.493   5.226   7.168 -0.7300 -0.4332  0.0857
  133OSM    C3S14388   1.669   5.349   7.178  0.1192 -0.8395  0.1994
  133OSM    H3S14389   1.773   5.334   7.143  0.4874  0.3035  0.7595
  133OSM     O314390   1.691   5.385   7.317  0.0552 -0.4414  0.3816
  133OSM    HO314391   1.686   5.295   7.351 -0.3764  0.8004  3.9909
  133OSM    C4S14392   1.604   5.459   7.096 -0.8560  0.4677  0.1549
  133OSM    H4S14393   1.507   5.431   7.054 -2.1047 -1.5946  4.0281
  133OSM    C5S14394   1.673   5.558   7.030 -0.0289 -0.3203 -0.3678
  133OSM    H5S14395   1.777   5.583   7.058 -0.3987  2.2938 -1.0672
  133OSM    C6S14396   1.613   5.663   6.942  1.0108 -0.2420  0.5203
  133OSM    H6S14397   1.640   5.765   6.976 -1.8104  0.4828  0.8712
  133OSM    H6T14398   1.504   5.652   6.923  1.3510  0.8025 -2.4149
  133OSM    C7S14399   1.654   5.640   6.788 -0.2600  0.0372 -0.9089
  133OSM    H7S14400   1.765   5.641   6.787 -0.2379 -0.4388 -0.2089
  133OSM    H7T14401   1.614   5.721   6.725  0.0853  2.1258  1.4239
  133OSM    C8S14402   1.613   5.499   6.730 -0.0819 -0.6654  0.6733
  133OSM    H8S14403   1.509   5.479   6.765 -0.6788  2.2456  0.7765
  133OSM    H8T14404   1.681   5.437   6.792  0.4473  1.1649  2.0221
  133OSM    C9S14405   1.627   5.494   6.579 -0.1489  0.4426 -0.2223
  133OSM    H9S14406   1.598   5.391   6.552 -0.0681  0.8034 -1.8068
  133OSM    H9T14407   1.735   5.516   6.559  0.1639  0.0484  0.9811
  133OSM   C10S14408   1.540   5.582   6.490 -0.2932  0.0002 -0.2494
  133OSM   H10S14409   1.567   5.688   6.506 -1.9978  0.2778  1.1226
  133OSM   H10T14410   1.431   5.581   6.512 -0.4168  2.0613 -0.6296
  133OSM   C11S14411   1.565   5.533   6.347 -0.3161 -0.1800 -0.0687
  133OSM   H11S14412   1.537   5.425   6.342  0.1148 -0.2780 -0.4609
  133OSM   H11T14413   1.672   5.545   6.323  0.0943  1.0234  2.1262
  133OSM   C12S14414   1.488   5.611   6.243  0.1748 -0.1063  0.0488
  133OSM   H12S14415   1.527   5.714   6.257  2.0910 -0.9150  1.0334
  133OSM   H12T14416   1.381   5.614   6.273  0.1959 -1.4451  0.3010
  133OSM   C13S14417   1.508   5.575   6.102  0.1678  1.1274 -0.2986
  133OSM   H13S14418   1.489   5.468   6.079  2.1529  0.1511  2.1747
  133OSM   H13T14419   1.617   5.581   6.081  0.2976  0.6078  0.2031
  133OSM   C14S14420   1.431   5.661   5.999 -0.1162 -0.4365 -0.0606
  133OSM   H14S14421   1.454   5.769   6.008 -0.3862 -0.2482 -1.3665
  133OSM   H14T14422   1.323   5.647   6.023  0.4246 -2.0180  1.6187
  133OSM   C15S14423   1.472   5.613   5.864  0.2498  0.6318  1.2037
  133OSM   H15S14424   1.448   5.505   5.864  1.3969  0.2204 -2.3948
  133OSM   H15T14425   1.582   5.626   5.858  0.4456 -0.0486  2.8145
  133OSM   C16S14426   1.390   5.661   5.731  0.0771 -0.4104 -0.6755
  133OSM   H16S14427   1.381   5.772   5.739  0.5524 -0.5010  2.9369
  133OSM   H16T14428   1.284   5.630   5.727  0.1151 -0.8047  0.8479
  133OSM   C17S14429   1.472   5.625   5.601 -0.8566  0.0191  0.4512
  133OSM   H17S14430   1.470   5.514   5.594  1.2113 -0.0085 -0.3153
  133OSM   H17T14431   1.579   5.654   5.610 -0.9506  0.9034 -0.9450
  133OSM   C18S14432   1.401   5.681   5.475 -0.3469 -0.3127  0.8275
  133OSM   H18S14433   1.293   5.666   5.491  0.1490 -3.4493  1.9288
  133OSM   H18T14434   1.424   5.620   5.386  0.4648  0.8863  0.1758
  133OSM   H18U14435   1.428   5.787   5.454  0.0980 -0.6190 -0.1896
  133OSM    C1F14436   1.544   5.069   6.951  0.1260  0.2111 -0.0440
  133OSM     OF14437   1.446   5.039   7.010 -0.1614  0.7622 -0.5305
  133OSM    C2F14438   1.580   5.019   6.806 -0.4082 -0.2200 -0.9811
  133OSM    H2F14439   1.689   5.040   6.796 -0.1426 -0.1479  1.5379
  133OSM    H2G14440   1.531   5.073   6.722 -0.8130 -0.8515 -1.1625
  133OSM    C3F14441   1.536   4.876   6.796 -0.0432 -0.4941  0.3950
  133OSM    H3F14442   1.429   4.853   6.815  0.2471 -3.2147 -0.7221
  133OSM    H3G14443   1.598   4.811   6.862  1.1123  0.4532  0.2885
  133OSM    C4F14444   1.566   4.820   6.653  0.5481  0.1929  0.0688
  133OSM    H4F14445   1.539   4.713   6.646  0.0931  0.2959  0.1989
  133OSM    H4G14446   1.675   4.839   6.639  0.9080 -1.4309  0.4600
  133OSM    C5F14447   1.485   4.889   6.537 -0.5521  0.0189  0.1330
  133OSM    H5F14448   1.491   4.999   6.551  1.3762 -0.0731  0.3663
  133OSM    H5G14449   1.380   4.853   6.541  0.0791 -2.0502 -0.7581
  133OSM    C6F14450   1.553   4.862   6.402 -0.7125 -0.1400 -0.2938
  133OSM    H6F14451   1.562   4.754   6.378  1.8787 -0.0213 -0.1707
  133OSM    H6G14452   1.662   4.887   6.403 -0.3202 -1.7507 -0.5751
  133OSM    C7F14453   1.484   4.930   6.279  0.2763 -0.6849 -0.6823
  133OSM    H7F14454   1.483   5.039   6.302 -1.1880 -1.2312  2.2319
  133OSM    H7G14455   1.376   4.904   6.278  0.1445 -0.1743 -0.0682
  133OSM    C8F14456   1.567   4.905   6.151  0.6678  0.1006  0.4313
  133OSM    H8F14457   1.676   4.923   6.167  0.8286 -0.0911 -0.4014
  133OSM    H8G14458   1.536   4.976   6.072  0.0282 -0.8472 -0.2019
  133OSM    C9F14459   1.544   4.764   6.093  0.0757  0.0083 -0.8828
  133OSM    H9F14460   1.546   4.685   6.168 -2.2437 -1.4789 -2.2616
  133OSM   C10F14461   1.528   4.729   5.965  0.1394 -0.2053 -0.2597
  133OSM   H10F14462   1.515   4.621   5.947  1.4269 -0.4082 -0.0732
  133OSM   C11F14463   1.530   4.809   5.839 -0.7229  0.0281 -0.6283
  133OSM   H11F14464   1.572   4.748   5.756  0.1946 -1.2707  0.7202
  133OSM   H11G14465   1.601   4.891   5.863  0.6098 -1.7568  2.0402
  133OSM   C12F14466   1.386   4.857   5.794  0.1380  0.6382 -0.1256
  133OSM   H12F14467   1.343   4.911   5.880 -1.4691 -2.0108  0.8717
  133OSM   H12G14468   1.318   4.771   5.780 -0.0187  0.8473 -0.6689
  133OSM   C13F14469   1.388   4.947   5.668  0.0952 -0.3116  0.0955
  133OSM   H13F14470   1.406   4.884   5.579 -1.9891 -1.1378  0.1853
  133OSM   H13G14471   1.467   5.022   5.689  0.6237 -1.4638  2.6737
  133OSM   C14F14472   1.252   5.010   5.648  0.1903  0.6429  0.0300
  133OSM   H14F14473   1.227   5.047   5.750  1.3159  0.1600  0.5001
  133OSM   H14G14474   1.179   4.930   5.624  0.6836 -0.5828  2.2871
  133OSM   C15F14475   1.251   5.125   5.548  0.3881  0.6089  0.1981
  133OSM   H15F14476   1.249   5.083   5.445  0.9204 -0.7670  0.7321
  133OSM   H15G14477   1.335   5.197   5.556  1.2624 -0.0457 -2.1810
  133OSM   C16F14478   1.125   5.207   5.562 -0.4476 -0.1968  0.1541
  133OSM   H16F14479   1.109   5.247   5.665 -2.0765  2.0083 -0.8618
  133OSM   H16G14480   1.036   5.144   5.547 -0.0916 -0.3793 -1.2842
  133OSM   C17F14481   1.129   5.327   5.455  0.4119  0.4872  0.0960
  133OSM   H17F14482   1.140   5.296   5.349 -0.7147 -1.3513  0.4867
  133OSM   H17G14483   1.211   5.398   5.482  2.4103 -1.4033 -0.7285
  133OSM   C18F14484   1.008   5.413   5.477  0.3850 -0.1447 -0.1763
  133OSM   H18F14485   1.006   5.460   5.578 -0.5508  0.6886 -0.5676
  133OSM   H18G14486   0.916   5.353   5.464  0.1312 -0.1749  1.5537
  133OSM   H18H14487   1.000   5.501   5.409  2.9179  0.0887 -0.2706
  134OSM      N14488   5.805   2.007   7.671 -0.4016  0.0263 -0.8492
  134OSM    C1514489   5.867   1.947   7.792  0.0827 -0.3659  0.8061
  134OSM   H15A14490   5.861   2.012   7.878  1.2731  1.7842 -0.6360
  134OSM   H15B14491   5.973   1.927   7.782 -0.3432 -1.7444 -1.7453
  134OSM   H15C14492   5.821   1.851   7.811  0.2748 -0.7705 -0.6042
  134OSM    C1414493   5.830   1.900   7.560  0.0188  0.2233  0.1363
  134OSM   H14A14494   5.932   1.871   7.580  0.0208  1.2708  1.8982
  134OSM   H14B14495   5.823   1.949   7.464 -0.9001  0.4706  0.3197
  134OSM   H14C14496   5.757   1.821   7.571 -0.4716  0.9144  2.5193
  134OSM    C1314497   5.660   2.014   7.684 -0.0979  0.3885  0.2027
  134OSM   H13A14498   5.629   2.076   7.767  0.7658  1.5524 -0.3097
  134OSM   H13B14499   5.615   1.916   7.695  2.9084 -1.2038 -0.5288
  134OSM   H13C14500   5.610   2.058   7.599 -1.0569 -1.5950 -0.3309
  134OSM    C1214501   5.863   2.145   7.647 -1.0817 -0.3379 -0.1131
  134OSM   H12A14502   5.809   2.191   7.566  0.5159  1.4239 -0.2466
  134OSM   H12B14503   5.966   2.147   7.614 -0.6130  0.2254  1.3300
  134OSM    C1114504   5.859   2.253   7.758 -0.6422 -0.2417 -0.3626
  134OSM   H11A14505   5.902   2.351   7.728  0.2691 -0.4184  0.3312
  134OSM   H11B14506   5.932   2.222   7.836  3.1424  4.1157 -1.7415
  134OSM      P14507   5.644   2.401   7.737  0.0958  0.0275 -0.0972
  134OSM    O1314508   5.498   2.391   7.759  0.6542 -0.4797 -0.4249
  134OSM    O1414509   5.709   2.523   7.786 -0.3589  0.2691 -0.3799
  134OSM    O1114510   5.667   2.376   7.585  0.0103 -0.3877 -0.0902
  134OSM    O1214511   5.717   2.285   7.806 -0.3105 -0.0324  0.0793
  134OSM    C1S14512   5.578   2.449   7.503  0.2106  0.3095 -0.3652
  134OSM    H1S14513   5.600   2.558   7.510  1.1368  0.0697  0.6863
  134OSM    H1T14514   5.471   2.425   7.520  0.3166  0.8268  1.2608
  134OSM     NF14515   5.552   2.500   7.259 -0.0957 -0.1310  0.2329
  134OSM    HNF14516   5.472   2.471   7.208 -0.0806  0.5669 -0.2041
  134OSM    C2S14517   5.598   2.404   7.353 -0.0007  0.0993 -0.6769
  134OSM    H2S14518   5.708   2.397   7.341  0.1300 -1.6671  0.9799
  134OSM    C3S14519   5.535   2.262   7.330  0.2272  0.1252 -0.3641
  134OSM    H3S14520   5.426   2.281   7.331  0.3762  0.9900  0.4840
  134OSM     O314521   5.564   2.171   7.434  0.3714 -0.4165  0.2358
  134OSM    HO314522   5.582   2.232   7.506  1.1708  1.2073 -1.2840
  134OSM    C4S14523   5.579   2.199   7.205  0.1074  0.0470  1.1858
  134OSM    H4S14524   5.688   2.183   7.200  0.1132 -0.0110  1.4791
  134OSM    C5S14525   5.514   2.165   7.094 -0.1539  0.1357 -0.2747
  134OSM    H5S14526   5.410   2.199   7.082  0.9188  3.6498 -0.8841
  134OSM    C6S14527   5.571   2.120   6.962 -0.5547  0.1048  0.1330
  134OSM    H6S14528   5.534   2.019   6.934  1.4229 -0.6373  0.0581
  134OSM    H6T14529   5.681   2.112   6.972 -0.2965  2.9948  0.2608
  134OSM    C7S14530   5.549   2.209   6.839 -1.0684  0.8362 -0.1464
  134OSM    H7S14531   5.588   2.309   6.867 -0.3687  0.4317  0.3939
  134OSM    H7T14532   5.442   2.227   6.816  0.0271  2.6608 -4.8027
  134OSM    C8S14533   5.622   2.161   6.715  0.2673 -0.2952  0.1759
  134OSM    H8S14534   5.573   2.064   6.690 -0.3671  0.1290 -0.2714
  134OSM    H8T14535   5.731   2.148   6.733  0.5979 -0.1472 -1.5609
  134OSM    C9S14536   5.603   2.247   6.591  0.1546 -0.2252 -0.4072
  134OSM    H9S14537   5.627   2.353   6.613  1.4638 -0.6052  0.1224
  134OSM    H9T14538   5.496   2.247   6.563 -0.0865 -2.9829  0.1614
  134OSM   C10S14539   5.674   2.192   6.468 -0.3929  0.5647  0.7613
  134OSM   H10S14540   5.638   2.100   6.418  0.9744  0.3871  0.0491
  134OSM   H10T14541   5.777   2.167   6.501 -0.4087 -1.5434 -0.6114
  134OSM   C11S14542   5.689   2.297   6.365  0.5355 -0.7412 -0.5362
  134OSM   H11S14543   5.777   2.353   6.404 -0.5785  0.6978 -0.0100
  134OSM   H11T14544   5.605   2.369   6.364  1.7295  0.9950  3.4683
  134OSM   C12S14545   5.717   2.239   6.223 -0.0320  0.1889 -0.6521
  134OSM   H12S14546   5.629   2.186   6.181  1.6060 -1.0065 -2.7678
  134OSM   H12T14547   5.791   2.159   6.240  0.3811  0.4720 -1.0762
  134OSM   C13S14548   5.778   2.338   6.117 -0.4273 -0.2531 -0.6115
  134OSM   H13S14549   5.867   2.380   6.168  0.7164 -0.7984 -2.0692
  134OSM   H13T14550   5.713   2.427   6.102 -0.4176 -0.1523 -0.0776
  134OSM   C14S14551   5.809   2.271   5.978  0.3023  0.1033 -0.0685
  134OSM   H14S14552   5.717   2.243   5.923 -0.9091 -0.4617  2.0918
  134OSM   H14T14553   5.874   2.181   5.984 -0.7597 -0.6288  0.9961
  134OSM   C15S14554   5.894   2.359   5.895 -0.1151 -0.1703  0.2133
  134OSM   H15S14555   5.989   2.380   5.949 -0.4922 -0.6855  1.0946
  134OSM   H15T14556   5.847   2.451   5.856  1.2475 -0.7868 -3.1935
  134OSM   C16S14557   5.936   2.284   5.765  0.1595 -0.3644 -0.1529
  134OSM   H16S14558   5.839   2.263   5.715 -0.5690 -0.8294  1.3785
  134OSM   H16T14559   5.984   2.184   5.777  0.8767 -0.0387 -0.2376
  134OSM   C17S14560   6.023   2.370   5.674 -0.1031  0.2395  0.2936
  134OSM   H17S14561   6.121   2.398   5.719  0.9997 -1.3138 -1.0095
  134OSM   H17T14562   5.971   2.464   5.644 -0.4213  0.2719  0.9267
  134OSM   C18S14563   6.057   2.296   5.538  0.8443 -0.1495  0.5399
  134OSM   H18S14564   5.955   2.283   5.496  1.2886 -0.5484 -0.4478
  134OSM   H18T14565   6.121   2.206   5.545  0.6468 -0.2656  0.9341
  134OSM   H18U14566   6.113   2.364   5.470 -0.7677  2.8633  1.9690
  134OSM    C1F14567   5.604   2.626   7.245  0.1260  0.1459  0.3933
  134OSM     OF14568   5.703   2.654   7.308 -0.3054 -0.2677  0.8384
  134OSM    C2F14569   5.539   2.729   7.168 -0.2082  0.0057  0.0320
  134OSM    H2F14570   5.618   2.794   7.125 -1.8230  0.0241 -3.2022
  134OSM    H2G14571   5.473   2.792   7.232  2.6587  1.2448  1.9822
  134OSM    C3F14572   5.465   2.668   7.050 -0.3082 -0.3084  0.6253
  134OSM    H3F14573   5.434   2.760   6.997  1.1460 -0.0362  0.1829
  134OSM    H3G14574   5.365   2.627   7.074 -0.0403 -2.4471 -1.5454
  134OSM    C4F14575   5.547   2.567   6.962  0.6778 -0.0883 -0.5691
  134OSM    H4F14576   5.486   2.568   6.869  0.9692 -0.1076 -0.7658
  134OSM    H4G14577   5.549   2.464   7.005  3.3523 -0.5950 -1.6543
  134OSM    C5F14578   5.682   2.626   6.922  0.3765 -0.2230 -0.6155
  134OSM    H5F14579   5.757   2.631   7.004 -1.2558  2.1822  0.8906
  134OSM    H5G14580   5.683   2.736   6.904  5.9350  0.2639  0.6562
  134OSM    C6F14581   5.745   2.561   6.797 -0.1028 -0.5672 -0.2226
  134OSM    H6F14582   5.667   2.588   6.724  0.2253  2.4462  0.3989
  134OSM    H6G14583   5.749   2.455   6.829 -1.7283 -0.5733  0.0317
  134OSM    C7F14584   5.895   2.605   6.768 -0.3549 -0.3347  0.6816
  134OSM    H7F14585   5.964   2.575   6.850  1.6017  0.2718 -0.6639
  134OSM    H7G14586   5.895   2.716   6.763  0.0499 -0.3675 -0.3965
  134OSM    C8F14587   5.952   2.562   6.635  0.3692  0.4705  0.1377
  134OSM    H8F14588   5.941   2.452   6.639 -0.7403  0.6043  1.9603
  134OSM    H8G14589   6.060   2.584   6.620  0.2730  0.4691 -0.6377
  134OSM    C9F14590   5.869   2.595   6.515 -0.4100  0.4183  0.2357
  134OSM    H9F14591   5.766   2.623   6.541  0.1312 -0.6332  4.1329
  134OSM   C10F14592   5.913   2.607   6.383 -0.0609  0.1979 -0.6544
  134OSM   H10F14593   5.852   2.662   6.310 -0.7591  1.0627  0.5315
  134OSM   C11F14594   6.052   2.573   6.335 -0.6143 -0.3854 -0.8110
  134OSM   H11F14595   6.075   2.466   6.354 -1.5440 -0.6253 -0.9964
  134OSM   H11G14596   6.130   2.626   6.393  0.8274 -1.5364 -1.6229
  134OSM   C12F14597   6.077   2.605   6.182 -0.5088 -0.0775 -0.2131
  134OSM   H12F14598   6.033   2.706   6.169 -0.1648  0.4130  2.0049
  134OSM   H12G14599   6.034   2.524   6.119  1.7215 -1.2194 -0.3917
  134OSM   C13F14600   6.224   2.605   6.140 -0.4265 -0.4672 -0.6755
  134OSM   H13F14601   6.267   2.505   6.162  0.4083  0.3586  1.8852
  134OSM   H13G14602   6.282   2.677   6.202  0.9628 -0.1257 -2.3090
  134OSM   C14F14603   6.256   2.652   5.997 -0.3378 -0.1559  0.5838
  134OSM   H14F14604   6.227   2.759   5.993  0.2917 -0.0201 -1.5058
  134OSM   H14G14605   6.194   2.594   5.925 -1.9910  2.5904 -0.3399
  134OSM   C15F14606   6.402   2.624   5.956  0.2125 -0.3229 -0.4014
  134OSM   H15F14607   6.417   2.513   5.958 -2.9027 -0.8165 -0.0052
  134OSM   H15G14608   6.470   2.668   6.032 -0.8575  0.5931  0.0528
  134OSM   C16F14609   6.427   2.668   5.810  0.0115 -0.4695  0.3909
  134OSM   H16F14610   6.416   2.778   5.816  0.5020 -0.4113  0.3003
  134OSM   H16G14611   6.355   2.631   5.734  2.3652 -4.4460 -0.2386
  134OSM   C17F14612   6.577   2.650   5.761  0.0167  0.1092 -0.0493
  134OSM   H17F14613   6.643   2.696   5.838 -0.6962  1.3305 -0.1351
  134OSM   H17G14614   6.601   2.697   5.663 -1.7319 -0.3409 -0.7257
  134OSM   C18F14615   6.618   2.506   5.746  0.2180  0.6880 -0.2670
  134OSM   H18F14616   6.725   2.489   5.721  0.3947 -1.2018  1.5424
  134OSM   H18G14617   6.563   2.451   5.666 -0.9670  0.9313  0.3583
  134OSM   H18H14618   6.593   2.444   5.834  2.9581 -0.1814 -0.0267
  135OSM      N14619   5.061   1.670   7.635  0.5457  0.0586  0.9824
  135OSM    C1514620   5.120   1.794   7.589  0.3814 -0.1355 -0.0514
  135OSM   H15A14621   5.191   1.775   7.509  1.6672  2.7036  0.2838
  135OSM   H15B14622   5.178   1.843   7.666 -2.0777 -1.0426  2.5313
  135OSM   H15C14623   5.060   1.870   7.541  4.0535  2.4298 -1.1137
  135OSM    C1414624   4.993   1.606   7.516 -0.0360  0.4915  0.3161
  135OSM   H14A14625   4.905   1.659   7.483  0.6151  2.1909  1.1487
  135OSM   H14B14626   4.950   1.512   7.544 -0.2548  0.2029 -0.9381
  135OSM   H14C14627   5.069   1.599   7.439  0.9952 -2.2473  1.4643
  135OSM    C1314628   5.173   1.596   7.698 -0.8079 -0.0137 -0.6737
  135OSM   H13A14629   5.131   1.501   7.730 -2.4705  0.2490 -1.9512
  135OSM   H13B14630   5.208   1.650   7.785  1.4323 -1.0169 -0.8716
  135OSM   H13C14631   5.260   1.578   7.637  0.1850  0.5592  0.5240
  135OSM    C1214632   4.950   1.691   7.743  0.4444 -0.3236  0.1363
  135OSM   H12A14633   4.876   1.752   7.696  0.2605 -0.1671  0.6240
  135OSM   H12B14634   5.003   1.746   7.820  2.3691 -0.7133 -0.8475
  135OSM    C1114635   4.885   1.574   7.814 -0.5001  0.1659 -0.1184
  135OSM   H11A14636   4.828   1.508   7.745  2.1336 -0.7662 -1.5663
  135OSM   H11B14637   4.814   1.612   7.890 -0.1892  0.2810  0.1147
  135OSM      P14638   4.975   1.343   7.889 -0.2880 -0.0473  0.1671
  135OSM    O1314639   5.059   1.289   8.005  0.6312  0.0100 -0.3468
  135OSM    O1414640   4.831   1.296   7.885 -0.6673  0.3046  0.5967
  135OSM    O1114641   5.045   1.308   7.746 -0.2566  0.0504  0.4284
  135OSM    O1214642   4.975   1.502   7.895 -0.3062  0.8073  0.1329
  135OSM    C1S14643   4.960   1.229   7.660 -0.2347  0.1971 -0.3191
  135OSM    H1S14644   4.882   1.292   7.613  2.9220  3.6968 -1.3920
  135OSM    H1T14645   4.921   1.138   7.712 -0.3497  0.7067  0.5015
  135OSM     NF14646   4.963   1.105   7.446  1.1405  0.2410  0.2926
  135OSM    HNF14647   4.969   1.006   7.454 -0.0640  0.2641  2.1160
  135OSM    C2S14648   5.050   1.176   7.534  0.3003  0.0204  0.1793
  135OSM    H2S14649   5.074   1.275   7.490 -2.1026  0.9913  0.9009
  135OSM    C3S14650   5.185   1.103   7.567  0.4469  0.0390  0.9110
  135OSM    H3S14651   5.155   1.014   7.627 -2.9645  1.4282  1.4956
  135OSM     O314652   5.265   1.168   7.664  0.0331 -0.5630 -0.0169
  135OSM    HO314653   5.200   1.229   7.699  1.6333  1.0794  0.2074
  135OSM    C4S14654   5.261   1.076   7.443 -0.1925 -0.5465  0.1985
  135OSM    H4S14655   5.290   1.168   7.390 -1.3309  0.3021  1.0005
  135OSM    C5S14656   5.281   0.955   7.381 -0.5980 -0.1850  0.7259
  135OSM    H5S14657   5.243   0.858   7.415 -0.8650 -0.7924 -1.2066
  135OSM    C6S14658   5.338   0.943   7.240  0.0770  0.3946  0.0892
  135OSM    H6S14659   5.355   0.834   7.225  0.7030  0.3312  1.1681
  135OSM    H6T14660   5.440   0.986   7.228  0.2565 -0.5057 -2.1738
  135OSM    C7S14661   5.242   0.984   7.126  0.3943 -0.1108 -0.2220
  135OSM    H7S14662   5.240   1.094   7.133 -2.0612 -0.0528 -0.8487
  135OSM    H7T14663   5.134   0.958   7.128  0.2619 -0.2808 -3.5825
  135OSM    C8S14664   5.292   0.941   6.983 -0.4457  0.4375 -0.2768
  135OSM    H8S14665   5.292   0.830   6.974 -1.4875  0.5624 -2.4778
  135OSM    H8T14666   5.396   0.977   6.974  0.6213 -2.4530 -0.5019
  135OSM    C9S14667   5.200   0.993   6.868 -1.2609 -0.4675 -0.7410
  135OSM    H9S14668   5.190   1.104   6.869 -2.1417 -0.5430 -0.0544
  135OSM    H9T14669   5.102   0.943   6.883 -0.2351 -2.7375 -1.2353
  135OSM   C10S14670   5.250   0.938   6.729  0.3124 -0.0055 -0.2707
  135OSM   H10S14671   5.280   0.832   6.743  0.2677  0.0651  0.4253
  135OSM   H10T14672   5.344   0.998   6.727 -1.8583  3.7904  0.1795
  135OSM   C11S14673   5.155   0.970   6.618  0.4379 -0.4262 -0.1530
  135OSM   H11S14674   5.128   1.078   6.622 -0.3962 -0.6324  0.0893
  135OSM   H11T14675   5.058   0.916   6.617 -0.3492  0.8850  1.2906
  135OSM   C12S14676   5.225   0.944   6.486 -0.4913  0.3082  0.0926
  135OSM   H12S14677   5.245   0.834   6.479  0.3134  0.5393 -1.9260
  135OSM   H12T14678   5.316   1.008   6.490 -1.4063  1.6015  0.8033
  135OSM   C13S14679   5.140   0.983   6.363  1.0676 -0.1456  0.1765
  135OSM   H13S14680   5.112   1.090   6.373 -0.7127 -0.7748  3.1547
  135OSM   H13T14681   5.046   0.926   6.349 -0.1858  1.6669  0.9069
  135OSM   C14S14682   5.227   0.969   6.241  0.4240 -0.6128 -0.3092
  135OSM   H14S14683   5.263   0.865   6.229  1.2899 -0.1476 -1.9356
  135OSM   H14T14684   5.320   1.026   6.262  0.3840 -1.2765  2.0426
  135OSM   C15S14685   5.168   1.027   6.114 -0.3596 -0.4218 -0.0302
  135OSM   H15S14686   5.133   1.130   6.138 -2.6160 -0.7616 -1.5673
  135OSM   H15T14687   5.078   0.970   6.083 -0.4838  0.2940 -1.0439
  135OSM   C16S14688   5.273   1.011   6.001  0.5587 -0.3812  0.6993
  135OSM   H16S14689   5.285   0.901   6.001 -0.0524 -0.4637  1.6196
  135OSM   H16T14690   5.369   1.066   6.015  0.9411 -1.1537  1.1825
  135OSM   C17S14691   5.216   1.058   5.872  0.3579 -0.2651 -0.1306
  135OSM   H17S14692   5.222   1.169   5.877  2.5620 -0.3384 -0.4176
  135OSM   H17T14693   5.112   1.019   5.882  0.3109  0.5501  3.7496
  135OSM   C18S14694   5.281   1.004   5.749 -0.3887 -0.3620  0.3953
  135OSM   H18S14695   5.247   1.061   5.660  1.6809  0.6826  0.2046
  135OSM   H18T14696   5.245   0.901   5.729  1.7421 -1.6964  2.7628
  135OSM   H18U14697   5.392   1.007   5.749 -0.4102  2.3268 -0.0786
  135OSM    C1F14698   4.859   1.152   7.369 -0.0673 -0.2072  0.3125
  135OSM     OF14699   4.828   1.268   7.369 -0.1884 -0.7348 -0.2798
  135OSM    C2F14700   4.789   1.052   7.282 -1.2539 -0.5361  0.0153
  135OSM    H2F14701   4.711   1.007   7.347 -0.3960 -0.7443  0.9107
  135OSM    H2G14702   4.856   0.967   7.259 -0.4484  0.1383 -0.1885
  135OSM    C3F14703   4.719   1.114   7.159  0.4195  0.5565 -0.2650
  135OSM    H3F14704   4.648   1.191   7.196  1.0929 -0.4824  3.5938
  135OSM    H3G14705   4.669   1.027   7.112  2.3793 -0.2226 -1.0638
  135OSM    C4F14706   4.819   1.161   7.058 -0.1030 -0.0965  0.1392
  135OSM    H4F14707   4.885   1.238   7.104  0.5507  0.4453 -1.6192
  135OSM    H4G14708   4.890   1.078   7.038 -0.6091 -1.2696  2.7979
  135OSM    C5F14709   4.749   1.205   6.925 -0.0442 -0.0113 -0.1924
  135OSM    H5F14710   4.680   1.290   6.943 -1.4466 -1.5651  2.2996
  135OSM    H5G14711   4.699   1.108   6.904 -0.3654  0.1270 -0.0647
  135OSM    C6F14712   4.833   1.233   6.798 -0.1268  0.2647  0.0197
  135OSM    H6F14713   4.763   1.251   6.714 -0.5786 -0.2405  0.2866
  135OSM    H6G14714   4.874   1.133   6.772  0.9775 -0.3617  3.6384
  135OSM    C7F14715   4.931   1.350   6.807  0.5032 -0.3603  0.0292
  135OSM    H7F14716   4.976   1.366   6.707 -0.8992  2.0196 -0.3016
  135OSM    H7G14717   5.007   1.324   6.884  0.4510  1.6303  0.8135
  135OSM    C8F14718   4.861   1.477   6.863 -0.5823 -0.0506 -0.0189
  135OSM    H8F14719   4.877   1.485   6.973  1.0135  3.8065 -0.3761
  135OSM    H8G14720   4.751   1.471   6.844 -0.5139 -1.0297 -0.1546
  135OSM    C9F14721   4.921   1.599   6.790  0.3941  0.5496  0.2291
  135OSM    H9F14722   4.985   1.669   6.846 -2.1000  1.9905  1.4171
  135OSM   C10F14723   4.892   1.644   6.668 -0.0892 -0.1306 -0.2114
  135OSM   H10F14724   4.951   1.723   6.620 -1.4422 -0.3023 -2.3143
  135OSM   C11F14725   4.803   1.567   6.569 -0.4552  0.3152  0.0299
  135OSM   H11F14726   4.698   1.564   6.606 -0.3258 -0.1953  0.3750
  135OSM   H11G14727   4.836   1.461   6.562 -1.2897  0.1409 -2.1161
  135OSM   C12F14728   4.815   1.633   6.436 -0.0649 -0.5302  0.0399
  135OSM   H12F14729   4.802   1.743   6.444  0.1055 -0.6289  2.6277
  135OSM   H12G14730   4.734   1.587   6.375  0.0680 -0.3281 -0.2858
  135OSM   C13F14731   4.948   1.601   6.355 -0.5475  0.0776  0.5394
  135OSM   H13F14732   4.955   1.493   6.330  1.7264  0.1080  0.8092
  135OSM   H13G14733   5.030   1.604   6.430 -0.1869 -0.7856  0.1927
  135OSM   C14F14734   4.984   1.697   6.232  0.2064  0.3327 -0.3349
  135OSM   H14F14735   5.095   1.694   6.228  0.4335 -0.9909  3.4724
  135OSM   H14G14736   4.959   1.804   6.250  1.7465  0.3031  2.4872
  135OSM   C15F14737   4.924   1.653   6.097  0.5819 -0.2928 -0.2610
  135OSM   H15F14738   4.818   1.685   6.093  0.8819  0.6220 -1.8173
  135OSM   H15G14739   4.943   1.544   6.083  1.2354 -0.0371 -1.5874
  135OSM   C16F14740   4.994   1.733   5.986  1.0539  0.6917 -0.0697
  135OSM   H16F14741   5.102   1.717   6.006  1.1819  0.0278 -1.2262
  135OSM   H16G14742   4.974   1.842   5.980 -2.5089  0.1242 -0.5653
  135OSM   C17F14743   4.944   1.680   5.851 -0.0561 -0.2524  0.4078
  135OSM   H17F14744   4.833   1.671   5.843 -0.1282  0.7844  0.0542
  135OSM   H17G14745   4.971   1.574   5.830  0.3697 -0.0472 -0.0868
  135OSM   C18F14746   4.988   1.780   5.741  0.1043 -0.3616  0.1539
  135OSM   H18F14747   4.909   1.859   5.740 -0.2746 -0.6865 -2.5190
  135OSM   H18G14748   4.987   1.750   5.634 -0.7607 -0.0760  0.0691
  135OSM   H18H14749   5.087   1.826   5.761  0.6922 -0.6307 -1.8882
  136OSM      N14750   2.383   4.665   7.591  0.3950  0.4783 -0.1185
  136OSM    C1514751   2.495   4.596   7.668 -0.1053 -0.2988  0.5438
  136OSM   H15A14752   2.574   4.559   7.605 -0.5059 -0.1132 -0.0739
  136OSM   H15B14753   2.470   4.513   7.733  0.5485 -1.0132 -0.1000
  136OSM   H15C14754   2.541   4.670   7.731 -1.5491  1.3753 -0.2620
  136OSM    C1414755   2.296   4.558   7.538  0.7116 -0.4698  0.4053
  136OSM   H14A14756   2.350   4.491   7.473 -0.7340  0.5255 -1.9671
  136OSM   H14B14757   2.219   4.608   7.481  2.0191 -0.0342 -1.0434
  136OSM   H14C14758   2.247   4.516   7.624 -1.9952  0.2796 -0.6823
  136OSM    C1314759   2.303   4.746   7.692 -0.0187 -0.4890  0.3647
  136OSM   H13A14760   2.364   4.805   7.758 -0.6959  2.3855 -1.3939
  136OSM   H13B14761   2.219   4.698   7.742 -0.6874 -1.6716 -1.7477
  136OSM   H13C14762   2.266   4.832   7.639 -0.5270  0.3259  1.9896
  136OSM    C1214763   2.434   4.758   7.483 -0.5475  0.6611  0.6305
  136OSM   H12A14764   2.496   4.839   7.518  1.5802 -0.7343  0.3431
  136OSM   H12B14765   2.350   4.817   7.451  0.8297  2.6914  0.6205
  136OSM    C1114766   2.512   4.696   7.361  0.4542  0.8095  0.6604
  136OSM   H11A14767   2.524   4.763   7.273  0.1652  1.9376  1.4516
  136OSM   H11B14768   2.452   4.610   7.324  0.7831 -0.0448  2.0537
  136OSM      P14769   2.760   4.740   7.391  0.2557 -0.1167 -0.0459
  136OSM    O1314770   2.734   4.868   7.457  0.7281 -0.5282 -0.3388
  136OSM    O1414771   2.881   4.674   7.446 -0.3548  0.0600  0.2086
  136OSM    O1114772   2.776   4.768   7.232 -0.0358  0.5183 -0.1773
  136OSM    O1214773   2.636   4.640   7.404 -0.0592  0.0278  0.6496
  136OSM    C1S14774   2.791   4.640   7.158 -1.0743 -0.2282 -0.0584
  136OSM    H1S14775   2.694   4.586   7.160 -0.9371 -0.5665 -1.3317
  136OSM    H1T14776   2.872   4.576   7.200 -0.5855  0.5360  0.1845
  136OSM     NF14777   2.838   4.533   6.936  0.0279  0.3612  0.2992
  136OSM    HNF14778   2.928   4.511   6.898  1.3455  0.3580  3.1946
  136OSM    C2S14779   2.818   4.656   7.006  0.1567 -0.3779 -0.9456
  136OSM    H2S14780   2.729   4.709   6.966 -0.0431 -0.3347 -0.4607
  136OSM    C3S14781   2.936   4.756   6.975 -0.3218 -0.2412  0.5161
  136OSM    H3S14782   3.033   4.712   7.008 -0.4243 -0.6582  0.2720
  136OSM     O314783   2.925   4.881   7.043 -0.0462  1.0985  0.2066
  136OSM    HO314784   2.846   4.876   7.098  1.3451 -0.9740  2.1832
  136OSM    C4S14785   2.962   4.774   6.819 -0.2774  0.1465 -0.7353
  136OSM    H4S14786   3.032   4.704   6.771 -1.4878  0.3051 -2.8633
  136OSM    C5S14787   2.922   4.867   6.736  0.4059 -0.7968  0.3036
  136OSM    H5S14788   2.860   4.949   6.776 -0.0894  0.5427 -2.9290
  136OSM    C6S14789   2.949   4.884   6.583 -0.7073  0.7333 -0.3089
  136OSM    H6S14790   2.986   4.795   6.527 -1.5901  0.5501 -0.6216
  136OSM    H6T14791   3.032   4.958   6.584  0.8575 -0.9489  0.3421
  136OSM    C7S14792   2.826   4.932   6.499  0.1043  0.3323 -0.3060
  136OSM    H7S14793   2.778   5.013   6.557  0.9409  0.5416  0.1038
  136OSM    H7T14794   2.749   4.855   6.477  0.6815  0.3993 -2.9975
  136OSM    C8S14795   2.859   4.999   6.370  0.7978  0.6050  0.6748
  136OSM    H8S14796   2.899   4.920   6.303 -1.1440  0.5008 -0.4437
  136OSM    H8T14797   2.927   5.086   6.387  1.8509  0.2340 -1.2356
  136OSM    C9S14798   2.738   5.055   6.301  0.4557  0.2143  0.1646
  136OSM    H9S14799   2.688   5.125   6.371 -0.8651 -1.6580  1.1558
  136OSM    H9T14800   2.666   4.972   6.288 -1.4246  1.9296 -1.1175
  136OSM   C10S14801   2.762   5.116   6.166 -0.3555 -0.3272  0.9851
  136OSM   H10S14802   2.834   5.200   6.159  0.1717 -0.8976 -4.0171
  136OSM   H10T14803   2.666   5.157   6.129 -0.2382  0.4928  1.5890
  136OSM   C11S14804   2.817   5.016   6.055 -0.0884 -0.6223  0.2362
  136OSM   H11S14805   2.755   4.926   6.035  0.1555 -0.9191  0.8058
  136OSM   H11T14806   2.913   4.978   6.095  0.4399  0.8053  0.4012
  136OSM   C12S14807   2.831   5.084   5.920  0.8215  0.4520  0.5071
  136OSM   H12S14808   2.905   5.166   5.927  0.3258  1.0147 -0.6980
  136OSM   H12T14809   2.732   5.120   5.885  0.2865 -1.1377  0.2594
  136OSM   C13S14810   2.872   4.985   5.814  0.1521 -0.7568  0.2888
  136OSM   H13S14811   2.792   4.908   5.809  0.0675 -0.5930 -1.1884
  136OSM   H13T14812   2.966   4.932   5.841 -0.4919 -2.1431 -0.1228
  136OSM   C14S14813   2.887   5.045   5.671 -0.2053  0.2654 -0.6990
  136OSM   H14S14814   2.973   5.115   5.678 -0.8849  0.9649  1.9837
  136OSM   H14T14815   2.800   5.104   5.636  0.0515  1.4455  0.5786
  136OSM   C15S14816   2.934   4.946   5.569 -0.4251  0.4625  0.0575
  136OSM   H15S14817   2.847   4.889   5.530 -0.3178  1.5891 -1.9373
  136OSM   H15T14818   3.014   4.874   5.599 -0.5258 -0.6317 -2.1462
  136OSM   C16S14819   2.988   5.015   5.437  0.4241 -0.4057 -0.4967
  136OSM   H16S14820   3.081   5.071   5.461 -0.1169 -0.1031  1.0368
  136OSM   H16T14821   2.906   5.088   5.417  1.9227  1.7736  0.8246
  136OSM   C17S14822   3.001   4.926   5.319  0.5484 -0.2458  0.0476
  136OSM   H17S14823   3.013   4.988   5.228 -0.2365 -0.6706 -0.3551
  136OSM   H17T14824   2.907   4.869   5.304  0.5017 -0.3553  0.7068
  136OSM   C18S14825   3.132   4.847   5.321 -0.7818  0.3930  0.4486
  136OSM   H18S14826   3.223   4.911   5.316 -0.4602 -0.1439 -1.3073
  136OSM   H18T14827   3.132   4.765   5.245 -0.5918  0.8998 -0.1088
  136OSM   H18U14828   3.133   4.794   5.419 -2.5462  0.3857  0.5033
  136OSM    C1F14829   2.756   4.430   6.940 -0.2339 -0.4670 -0.5219
  136OSM     OF14830   2.657   4.437   7.010  0.5111  0.0085 -0.4329
  136OSM    C2F14831   2.804   4.304   6.861  0.7527 -0.4563  0.5442
  136OSM    H2F14832   2.792   4.208   6.914  1.6208 -0.4704  0.7378
  136OSM    H2G14833   2.914   4.315   6.846  0.8976 -0.7403  1.3345
  136OSM    C3F14834   2.731   4.307   6.728 -0.0687  0.4477  0.2221
  136OSM    H3F14835   2.621   4.302   6.747 -0.1875  1.8132 -0.0388
  136OSM    H3G14836   2.751   4.213   6.673 -1.4954  0.6716 -0.7383
  136OSM    C4F14837   2.766   4.421   6.627  0.0106  0.3707 -0.6175
  136OSM    H4F14838   2.876   4.437   6.635  0.2320 -0.7282 -1.2508
  136OSM    H4G14839   2.725   4.518   6.661 -0.8935 -0.2654  0.1724
  136OSM    C5F14840   2.715   4.396   6.484 -0.3959  0.7823  0.1692
  136OSM    H5F14841   2.606   4.409   6.497 -0.7519 -1.4937 -0.2664
  136OSM    H5G14842   2.735   4.290   6.461 -2.9875 -0.0072  1.2253
  136OSM    C6F14843   2.781   4.488   6.387  0.1201 -0.0056  0.2282
  136OSM    H6F14844   2.889   4.498   6.412  0.5275 -0.3879 -1.3241
  136OSM    H6G14845   2.742   4.592   6.397 -1.1576 -0.3797 -0.5977
  136OSM    C7F14846   2.754   4.451   6.238  0.9270 -0.5595 -0.3995
  136OSM    H7F14847   2.643   4.449   6.231  0.9954 -1.7481 -1.3249
  136OSM    H7G14848   2.797   4.350   6.226  1.8193 -0.2034 -0.2767
  136OSM    C8F14849   2.813   4.547   6.137  0.3468 -0.3006 -0.3170
  136OSM    H8F14850   2.922   4.553   6.157  0.2610 -0.3562  0.2012
  136OSM    H8G14851   2.780   4.653   6.147 -0.6948 -0.6533  0.1093
  136OSM    C9F14852   2.803   4.500   5.992 -0.4013 -0.4128 -0.2882
  136OSM    H9F14853   2.861   4.411   5.964  0.8208  0.5933 -1.0689
  136OSM   C10F14854   2.720   4.552   5.896  0.7824  0.3207 -0.4426
  136OSM   H10F14855   2.713   4.510   5.794  0.0115 -0.4080 -0.0985
  136OSM   C11F14856   2.627   4.668   5.918 -0.6212  0.2847 -0.5490
  136OSM   H11F14857   2.681   4.756   5.878  2.3023 -0.9047  0.5114
  136OSM   H11G14858   2.627   4.693   6.027  3.4468  1.3780 -0.6368
  136OSM   C12F14859   2.488   4.651   5.855 -0.7692 -0.3036 -0.4114
  136OSM   H12F14860   2.429   4.745   5.865  1.8570  1.2056  3.0010
  136OSM   H12G14861   2.427   4.577   5.912 -1.9051  1.0818  0.2300
  136OSM   C13F14862   2.484   4.596   5.716 -0.0345 -0.3546  0.0180
  136OSM   H13F14863   2.377   4.568   5.702  0.0923 -0.8699  0.0682
  136OSM   H13G14864   2.542   4.502   5.703  1.4301  0.1900  2.1212
  136OSM   C14F14865   2.519   4.701   5.611 -0.3327 -0.7507  0.2613
  136OSM   H14F14866   2.630   4.706   5.621 -0.5591  0.1000  4.0954
  136OSM   H14G14867   2.490   4.807   5.628  1.8185  0.1621 -1.2755
  136OSM   C15F14868   2.473   4.663   5.474 -0.7685  0.2698 -0.7762
  136OSM   H15F14869   2.369   4.635   5.500 -0.2847  0.0522  1.0293
  136OSM   H15G14870   2.522   4.570   5.438  1.0699  0.2098  1.6653
  136OSM   C16F14871   2.485   4.775   5.371  0.2587  0.6260  0.0058
  136OSM   H16F14872   2.593   4.797   5.363  0.2259  0.4034 -1.2141
  136OSM   H16G14873   2.431   4.868   5.400 -1.7030 -0.5958  0.4373
  136OSM   C17F14874   2.412   4.733   5.236 -0.3710 -0.2256 -0.2005
  136OSM   H17F14875   2.463   4.639   5.205  1.3552  1.0873 -1.5138
  136OSM   H17G14876   2.438   4.819   5.171  0.0235  1.4475  2.0411
  136OSM   C18F14877   2.262   4.714   5.227  0.0194 -0.4404 -0.2123
  136OSM   H18F14878   2.233   4.641   5.306 -1.9098 -1.0055 -1.3895
  136OSM   H18G14879   2.221   4.668   5.135 -1.3820 -0.2987  0.3101
  136OSM   H18H14880   2.205   4.804   5.256 -3.3748 -2.4138 -0.2344
  137OSM      N14881   6.051   1.343   8.168  0.6216 -0.7256 -0.4251
  137OSM    C1514882   6.047   1.236   8.065  0.1093 -0.6253  0.4011
  137OSM   H15A14883   6.018   1.265   7.965  1.4160 -2.3075 -0.5197
  137OSM   H15B14884   5.968   1.168   8.095 -0.6892 -0.0170 -0.2709
  137OSM   H15C14885   6.140   1.183   8.052  1.9931  2.4436  0.1857
  137OSM    C1414886   5.906   1.395   8.178 -0.2849  0.4837  0.0202
  137OSM   H14A14887   5.829   1.320   8.175 -0.8378  0.9237  1.9833
  137OSM   H14B14888   5.889   1.469   8.102  0.0437  1.8854  1.2590
  137OSM   H14C14889   5.890   1.441   8.275 -2.4419 -0.3316  0.1072
  137OSM    C1314890   6.075   1.270   8.298  0.4463  0.0453  1.0110
  137OSM   H13A14891   5.992   1.201   8.306 -1.4288  2.3090  2.1314
  137OSM   H13B14892   6.074   1.343   8.377 -2.9830  2.9433 -1.3591
  137OSM   H13C14893   6.168   1.217   8.295  1.0465  1.0726 -2.1658
  137OSM    C1214894   6.147   1.454   8.148 -0.3966 -0.3791  0.4884
  137OSM   H12A14895   6.136   1.514   8.237 -0.7893 -0.0851  0.2468
  137OSM   H12B14896   6.124   1.526   8.071  1.8198  1.0187  1.0211
  137OSM    C1114897   6.292   1.412   8.109 -0.6137 -0.3378 -0.1830
  137OSM   H11A14898   6.319   1.327   8.175 -1.5310  0.4423  1.2748
  137OSM   H11B14899   6.359   1.494   8.143  0.7981 -1.8017  0.7323
  137OSM      P14900   6.346   1.506   7.864  0.3863 -0.1217  0.0832
  137OSM    O1314901   6.237   1.594   7.813 -0.0665 -0.4418  0.4879
  137OSM    O1414902   6.463   1.566   7.923  0.5080 -0.1688 -0.0644
  137OSM    O1114903   6.385   1.421   7.738 -0.3087  0.6021 -0.3114
  137OSM    O1214904   6.292   1.395   7.966 -0.3638  0.5369  0.2146
  137OSM    C1S14905   6.522   1.431   7.704  0.0535 -0.1738  0.6821
  137OSM    H1S14906   6.577   1.352   7.759 -0.7795 -0.3838  1.2320
  137OSM    H1T14907   6.572   1.529   7.717  1.5671 -0.4728 -2.0512
  137OSM     NF14908   6.663   1.365   7.511  0.5304  0.2025 -0.1399
  137OSM    HNF14909   6.711   1.424   7.447 -1.2563  0.7949 -1.0036
  137OSM    C2S14910   6.530   1.403   7.554  0.5992  0.0507  0.3601
  137OSM    H2S14911   6.476   1.307   7.537 -0.7639  0.9551 -0.6430
  137OSM    C3S14912   6.458   1.515   7.478  0.5557 -0.2362  0.5283
  137OSM    H3S14913   6.511   1.610   7.501  0.3598  0.8126 -2.8442
  137OSM     O314914   6.316   1.517   7.509 -0.1960 -0.0572 -0.1304
  137OSM    HO314915   6.305   1.465   7.589  0.1140 -1.9347 -1.2468
  137OSM    C4S14916   6.485   1.513   7.330  0.0779  0.0775  0.9459
  137OSM    H4S14917   6.573   1.569   7.295 -0.9482  1.5444  0.6001
  137OSM    C5S14918   6.400   1.470   7.242 -0.7975  0.4532  0.2694
  137OSM    H5S14919   6.309   1.417   7.272 -0.1885 -1.7541 -1.4796
  137OSM    C6S14920   6.428   1.476   7.094 -0.0941 -0.4581  0.4650
  137OSM    H6S14921   6.419   1.378   7.042  0.1942  0.9914 -2.5338
  137OSM    H6T14922   6.536   1.501   7.082  0.1291 -1.9944 -1.3927
  137OSM    C7S14923   6.317   1.568   7.033 -0.4557  0.4311 -0.0602
  137OSM    H7S14924   6.337   1.664   7.087  0.1310  0.0465  0.4152
  137OSM    H7T14925   6.216   1.525   7.046 -0.9511  2.2844  3.2068
  137OSM    C8S14926   6.342   1.585   6.882 -0.6277  0.4146 -0.6181
  137OSM    H8S14927   6.329   1.488   6.829  1.8634  0.5222 -1.5492
  137OSM    H8T14928   6.449   1.607   6.867  0.0675  1.7134  4.4802
  137OSM    C9S14929   6.258   1.694   6.827  0.0957 -0.1405  0.6742
  137OSM    H9S14930   6.264   1.784   6.891 -2.3658 -2.0764  3.9116
  137OSM    H9T14931   6.152   1.663   6.831 -0.0264  0.1018 -0.3395
  137OSM   C10S14932   6.284   1.723   6.678 -0.7179  0.1403  0.1472
  137OSM   H10S14933   6.395   1.726   6.672 -0.7397 -0.6843 -0.8496
  137OSM   H10T14934   6.238   1.816   6.638 -1.3749  0.1920  0.9707
  137OSM   C11S14935   6.248   1.605   6.578 -0.3575 -0.3150 -0.5364
  137OSM   H11S14936   6.138   1.602   6.563 -0.5395  2.3555 -0.2313
  137OSM   H11T14937   6.297   1.512   6.615  2.2592  0.4884 -1.7502
  137OSM   C12S14938   6.306   1.633   6.435 -0.5302  0.1723 -0.4460
  137OSM   H12S14939   6.254   1.718   6.388  0.5064  2.6304  2.4934
  137OSM   H12T14940   6.280   1.539   6.382 -0.8975  0.7822 -1.3688
  137OSM   C13S14941   6.458   1.659   6.420 -0.2589 -1.3192  0.0129
  137OSM   H13S14942   6.506   1.571   6.467 -2.3455 -2.4877  0.0556
  137OSM   H13T14943   6.479   1.755   6.473 -1.1649 -1.4527  0.6274
  137OSM   C14S14944   6.514   1.671   6.271  0.8809  0.2061  0.3127
  137OSM   H14S14945   6.452   1.750   6.225 -0.1148 -1.3841 -1.2018
  137OSM   H14T14946   6.491   1.576   6.219  2.2775  0.0857 -0.1415
  137OSM   C15S14947   6.666   1.695   6.275  0.2439 -0.1251 -0.4059
  137OSM   H15S14948   6.699   1.609   6.336 -0.5119 -0.2291 -0.1315
  137OSM   H15T14949   6.684   1.788   6.333 -0.2598 -0.6254  0.5777
  137OSM   C16S14950   6.730   1.703   6.140 -0.1497  0.0216 -0.4175
  137OSM   H16S14951   6.670   1.779   6.086  1.3281  0.8073 -1.0111
  137OSM   H16T14952   6.726   1.605   6.088 -0.4506  0.4000 -1.1181
  137OSM   C17S14953   6.880   1.753   6.152  0.3749  0.0364  0.7835
  137OSM   H17S14954   6.893   1.836   6.224 -0.2052  1.0847 -0.2954
  137OSM   H17T14955   6.910   1.794   6.053 -1.6396  0.2599  0.2269
  137OSM   C18S14956   6.978   1.641   6.189  0.4948 -0.2395 -0.0666
  137OSM   H18S14957   6.942   1.611   6.289  0.3987  0.0322 -0.0197
  137OSM   H18T14958   7.076   1.693   6.197  0.6684 -0.4048 -0.9716
  137OSM   H18U14959   6.978   1.571   6.103 -3.2482  0.0039 -0.4238
  137OSM    C1F14960   6.730   1.265   7.560 -0.4434  0.0329  0.2592
  137OSM     OF14961   6.668   1.169   7.597 -0.4122  0.3633 -0.0040
  137OSM    C2F14962   6.881   1.264   7.559  0.1767 -0.3139 -0.3454
  137OSM    H2F14963   6.898   1.277   7.668 -2.0054 -0.9077  0.1247
  137OSM    H2G14964   6.935   1.347   7.509  0.9706  1.1863  2.7502
  137OSM    C3F14965   6.947   1.131   7.513 -0.8166 -0.1434  0.0635
  137OSM    H3F14966   6.909   1.045   7.572 -0.9806 -1.2504 -1.5802
  137OSM    H3G14967   7.054   1.144   7.539 -1.1675  0.2500  1.4144
  137OSM    C4F14968   6.933   1.095   7.359 -0.0907 -0.4877  0.3616
  137OSM    H4F14969   6.937   1.192   7.305 -0.1702 -0.6516  0.0593
  137OSM    H4G14970   6.832   1.047   7.353 -0.4308  0.2501  0.0698
  137OSM    C5F14971   7.038   1.003   7.307  0.0454  0.1348  0.1957
  137OSM    H5F14972   7.034   0.903   7.354  0.3865 -0.5733 -1.2225
  137OSM    H5G14973   7.139   1.040   7.336 -0.1525  0.2599  0.7285
  137OSM    C6F14974   7.033   0.976   7.156  0.5851 -0.5412 -0.5544
  137OSM    H6F14975   6.927   0.973   7.122  0.9267 -1.1372 -1.6139
  137OSM    H6G14976   7.084   0.877   7.150  1.0117 -0.4194  0.6575
  137OSM    C7F14977   7.111   1.082   7.078  0.1426 -0.2158  0.0541
  137OSM    H7F14978   7.209   1.099   7.127  0.0210  1.2882 -0.1816
  137OSM    H7G14979   7.048   1.174   7.077  0.5286  0.0638  0.6987
  137OSM    C8F14980   7.132   1.026   6.937  0.1307 -0.6878 -0.1447
  137OSM    H8F14981   7.165   1.115   6.880  1.6530 -0.2986  1.2702
  137OSM    H8G14982   7.035   0.991   6.894  0.0206 -0.5083 -0.0429
  137OSM    C9F14983   7.243   0.926   6.931  0.0214 -0.0222 -0.0939
  137OSM    H9F14984   7.291   0.930   7.030 -2.3577  0.0161  1.1224
  137OSM   C10F14985   7.269   0.831   6.838  0.5432 -0.0722 -0.1395
  137OSM   H10F14986   7.349   0.757   6.852  1.4840  0.8220 -0.7017
  137OSM   C11F14987   7.185   0.804   6.715 -0.1903  0.5885 -0.3730
  137OSM   H11F14988   7.101   0.876   6.705  0.1916  1.2925  1.1894
  137OSM   H11G14989   7.146   0.700   6.720 -1.4462  1.0807  0.4820
  137OSM   C12F14990   7.265   0.821   6.581  0.1359  0.4910  0.0633
  137OSM   H12F14991   7.348   0.747   6.581 -0.8080 -0.6264  1.4176
  137OSM   H12G14992   7.300   0.925   6.567 -0.8609  1.0296  1.3425
  137OSM   C13F14993   7.177   0.786   6.460  0.6821 -0.3475 -0.2808
  137OSM   H13F14994   7.094   0.858   6.444  1.3311 -0.0528 -2.7555
  137OSM   H13G14995   7.143   0.680   6.466 -5.4972  1.2277  0.4222
  137OSM   C14F14996   7.253   0.791   6.331 -0.5525  0.5446  0.2408
  137OSM   H14F14997   7.348   0.733   6.342 -1.5276 -0.7410  2.5723
  137OSM   H14G14998   7.278   0.898   6.318  2.2425 -0.1499 -0.9657
  137OSM   C15F14999   7.165   0.751   6.208  0.6940  0.1272  0.0929
  137OSM   H15F15000   7.092   0.832   6.186 -0.6073 -0.9147  0.5094
  137OSM   H15G15001   7.109   0.661   6.240  0.6948  0.5056  1.1955
  137OSM   C16F15002   7.238   0.705   6.083  0.5882 -0.3362 -0.5293
  137OSM   H16F15003   7.345   0.699   6.111  0.5073 -1.0349 -0.3386
  137OSM   H16G15004   7.227   0.786   6.009  1.4746  1.6565  1.4062
  137OSM   C17F15005   7.193   0.576   6.019  0.4540  0.3857  0.6497
  137OSM   H17F15006   7.082   0.570   6.016  0.5627 -2.4306 -0.0433
  137OSM   H17G15007   7.229   0.485   6.071 -0.9712 -0.1915  0.6526
  137OSM   C18F15008   7.237   0.559   5.873  0.0139  0.4889  0.4622
  137OSM   H18F15009   7.196   0.638   5.807  1.4177 -0.2959 -1.4410
  137OSM   H18G15010   7.197   0.462   5.836  2.5384 -1.3359  2.2224
  137OSM   H18H15011   7.347   0.554   5.860 -0.0908  0.4687 -0.5376
  138OSM      N15012   1.555   6.743   7.848  0.3562  0.1880  0.2714
  138OSM    C1515013   1.547   6.626   7.942 -0.4883 -0.2129  0.4457
  138OSM   H15A15014   1.639   6.603   7.995 -1.0447 -1.2399  0.9898
  138OSM   H15B15015   1.515   6.535   7.894  1.0112 -0.0965 -0.8891
  138OSM   H15C15016   1.477   6.650   8.019  0.0367 -0.1292  0.9026
  138OSM    C1415017   1.537   6.861   7.933 -0.3253  0.2103 -0.0193
  138OSM   H14A15018   1.438   6.881   7.972  0.1098  0.9677  0.7270
  138OSM   H14B15019   1.565   6.951   7.881 -1.3168  1.1292  0.9814
  138OSM   H14C15020   1.595   6.847   8.023 -0.2180  0.2440 -0.0828
  138OSM    C1315021   1.695   6.762   7.793  0.4251 -0.3305  0.7036
  138OSM   H13A15022   1.771   6.767   7.869  0.3033 -0.6881  0.8546
  138OSM   H13B15023   1.703   6.854   7.737  0.5713 -0.3644  0.6695
  138OSM   H13C15024   1.720   6.680   7.728 -0.8187  0.6306 -1.0689
  138OSM    C1215025   1.453   6.731   7.736 -0.2509 -0.6680  0.3161
  138OSM   H12A15026   1.447   6.827   7.689  0.2014 -0.7922  0.0027
  138OSM   H12B15027   1.354   6.716   7.777 -0.5256 -0.1763 -0.1624
  138OSM    C1115028   1.468   6.625   7.625  0.0664  0.3968 -0.5918
  138OSM   H11A15029   1.567   6.634   7.574  0.0409  0.8621 -0.5642
  138OSM   H11B15030   1.387   6.654   7.555 -1.2169  0.2637  0.7917
  138OSM      P15031   1.521   6.366   7.623  0.2571 -0.0082 -0.0536
  138OSM    O1315032   1.660   6.395   7.587 -0.2252 -0.1615  0.5956
  138OSM    O1415033   1.503   6.250   7.716  0.2204 -0.0648 -0.1260
  138OSM    O1115034   1.448   6.335   7.491  0.1220  0.2227 -0.4152
  138OSM    O1215035   1.452   6.495   7.680  0.7125 -0.8087 -0.6481
  138OSM    C1S15036   1.473   6.398   7.365 -0.0569  0.2162 -0.2005
  138OSM    H1S15037   1.548   6.480   7.374 -1.3539  1.2262  2.3218
  138OSM    H1T15038   1.384   6.449   7.324  1.5071  1.2283 -2.5283
  138OSM     NF15039   1.539   6.363   7.126 -0.2290 -0.5424 -0.8718
  138OSM    HNF15040   1.467   6.378   7.059 -0.2041 -0.2583 -0.8365
  138OSM    C2S15041   1.516   6.288   7.251 -0.1129 -0.0145  1.5122
  138OSM    H2S15042   1.615   6.246   7.279  0.1947  1.0484  2.0856
  138OSM    C3S15043   1.414   6.178   7.244 -0.0228 -0.7341  0.2189
  138OSM    H3S15044   1.316   6.228   7.230  0.5565  2.0332  4.4282
  138OSM     O315045   1.406   6.087   7.351  0.2440 -0.0859  0.2151
  138OSM    HO315046   1.440   6.146   7.419  0.6495 -0.4236  0.3142
  138OSM    C4S15047   1.443   6.097   7.120  0.6647  0.1937 -0.5561
  138OSM    H4S15048   1.546   6.064   7.106  0.5824 -0.2296 -0.1702
  138OSM    C5S15049   1.356   6.068   7.019 -0.4086 -0.1863  0.4217
  138OSM    H5S15050   1.249   6.086   7.037 -0.1241  0.4186  1.6474
  138OSM    C6S15051   1.397   6.014   6.882  0.4755  0.7470  1.0631
  138OSM    H6S15052   1.364   5.909   6.871  0.1628  0.6104  3.0890
  138OSM    H6T15053   1.506   6.025   6.865  0.5492 -0.6813  0.5218
  138OSM    C7S15054   1.316   6.069   6.764  0.0352  0.0221  0.8024
  138OSM    H7S15055   1.341   6.176   6.744 -0.1580 -0.2497 -1.0838
  138OSM    H7T15056   1.206   6.059   6.772 -0.1071 -0.6098 -1.2477
  138OSM    C8S15057   1.349   5.999   6.637  0.0147  1.0508  0.5513
  138OSM    H8S15058   1.336   5.889   6.645  3.6983  0.5996  2.4588
  138OSM    H8T15059   1.456   6.002   6.606 -0.2974  1.3195 -0.5513
  138OSM    C9S15060   1.267   6.059   6.525  0.1837 -0.0427  0.0555
  138OSM    H9S15061   1.308   6.157   6.490 -0.2025 -0.9051 -3.0741
  138OSM    H9T15062   1.167   6.078   6.569 -0.4602 -2.7576 -0.0728
  138OSM   C10S15063   1.260   5.975   6.393 -0.5371  0.2165 -0.2002
  138OSM   H10S15064   1.214   5.881   6.429 -0.7694  1.1757  2.2450
  138OSM   H10T15065   1.365   5.952   6.363 -0.4427  0.1316  0.1823
  138OSM   C11S15066   1.174   6.045   6.284  0.0097  0.3614  1.1385
  138OSM   H11S15067   1.191   6.155   6.291 -0.0860  0.3602  1.3736
  138OSM   H11T15068   1.067   6.017   6.292 -0.5491  1.2428 -1.9014
  138OSM   C12S15069   1.215   5.982   6.151  0.4579  0.2406 -0.2749
  138OSM   H12S15070   1.223   5.872   6.164  1.0308  0.4194  1.1009
  138OSM   H12T15071   1.319   6.009   6.123  1.0205  0.2776  1.6720
  138OSM   C13S15072   1.134   6.021   6.031  0.5384 -0.0809  0.2393
  138OSM   H13S15073   1.149   6.129   6.008 -2.9330  0.7962  1.3996
  138OSM   H13T15074   1.027   6.013   6.058  0.4913 -0.2272  0.0149
  138OSM   C14S15075   1.156   5.936   5.906  0.0801 -0.5583 -0.2573
  138OSM   H14S15076   1.140   5.830   5.933 -0.7205 -0.0296  1.4585
  138OSM   H14T15077   1.260   5.959   5.874 -0.1471 -0.7436 -1.1547
  138OSM   C15S15078   1.076   5.990   5.785 -0.0278  0.0336  0.1579
  138OSM   H15S15079   1.127   6.083   5.752 -1.4754  1.7847  2.4869
  138OSM   H15T15080   0.970   6.017   5.805  0.5292  1.6392  1.1717
  138OSM   C16S15081   1.088   5.892   5.672  0.4628  0.0994 -0.3886
  138OSM   H16S15082   1.059   5.793   5.712  2.1744 -0.0918  0.5196
  138OSM   H16T15083   1.195   5.875   5.647  0.2863 -1.0080 -0.4130
  138OSM   C17S15084   1.003   5.924   5.549  0.4081 -0.1788 -0.0635
  138OSM   H17S15085   1.033   6.028   5.523 -0.5695  0.0327 -0.3638
  138OSM   H17T15086   0.894   5.915   5.568  0.6510 -1.8468  0.6899
  138OSM   C18S15087   1.042   5.831   5.436  0.2087 -0.0197 -0.5290
  138OSM   H18S15088   1.144   5.861   5.401  0.3918 -1.5347 -1.3978
  138OSM   H18T15089   0.977   5.831   5.346  0.1376  2.0391 -0.5047
  138OSM   H18U15090   1.040   5.723   5.464  1.7897  0.2993  0.9987
  138OSM    C1F15091   1.647   6.438   7.108  0.5270  0.6884 -0.0798
  138OSM     OF15092   1.736   6.441   7.193 -0.4105 -0.3308 -0.3628
  138OSM    C2F15093   1.652   6.506   6.976  1.1835 -1.1075  0.1352
  138OSM    H2F15094   1.733   6.582   6.973 -2.8421  3.8853  1.6918
  138OSM    H2G15095   1.556   6.563   6.976  1.3011 -0.7827  2.7488
  138OSM    C3F15096   1.654   6.419   6.857 -0.2667 -0.4417 -0.5591
  138OSM    H3F15097   1.561   6.358   6.847 -2.1207  2.4346 -2.4001
  138OSM    H3G15098   1.738   6.346   6.861 -0.4204 -0.5783  0.1519
  138OSM    C4F15099   1.666   6.501   6.729  0.7369  0.5792 -0.5593
  138OSM    H4F15100   1.751   6.572   6.737  0.1189  1.0826  3.7322
  138OSM    H4G15101   1.574   6.563   6.737 -0.3216 -1.0137  0.3355
  138OSM    C5F15102   1.670   6.421   6.598  0.2036  0.3358  0.0359
  138OSM    H5F15103   1.587   6.348   6.590 -0.3995  1.1146 -1.3094
  138OSM    H5G15104   1.763   6.361   6.599 -0.4585 -0.7826  2.3621
  138OSM    C6F15105   1.645   6.513   6.482 -0.1277 -0.4824 -0.6573
  138OSM    H6F15106   1.728   6.585   6.464 -0.0147 -0.7449 -1.2209
  138OSM    H6G15107   1.545   6.560   6.481  0.0408 -0.1266 -0.9158
  138OSM    C7F15108   1.624   6.429   6.359 -0.5861 -0.0775  0.9779
  138OSM    H7F15109   1.520   6.392   6.357 -0.5121 -0.4114 -1.6780
  138OSM    H7G15110   1.706   6.353   6.361 -2.3872 -2.1536  0.4749
  138OSM    C8F15111   1.636   6.510   6.227  0.2169  1.0591  0.2477
  138OSM    H8F15112   1.726   6.575   6.232  1.7750 -0.9575 -0.3766
  138OSM    H8G15113   1.541   6.567   6.224 -2.4712 -3.0536 -0.4903
  138OSM    C9F15114   1.644   6.413   6.109 -0.3372  0.2892  0.1824
  138OSM    H9F15115   1.592   6.317   6.124 -2.5474  1.2655 -0.7683
  138OSM   C10F15116   1.691   6.444   5.988 -0.6376  0.2734 -0.3564
  138OSM   H10F15117   1.696   6.355   5.923  0.4533 -0.7263  1.0332
  138OSM   C11F15118   1.761   6.575   5.946  0.1141 -0.1183  0.8565
  138OSM   H11F15119   1.858   6.570   5.893 -0.2361 -0.3893  0.2225
  138OSM   H11G15120   1.774   6.643   6.032 -2.4891 -0.3311  1.5140
  138OSM   C12F15121   1.665   6.665   5.863  0.0172 -0.1696 -0.0315
  138OSM   H12F15122   1.730   6.752   5.844 -0.5070  0.6068  1.5110
  138OSM   H12G15123   1.571   6.687   5.919 -0.2002 -0.2757 -0.3489
  138OSM   C13F15124   1.630   6.603   5.734  0.6868 -0.4127  0.6890
  138OSM   H13F15125   1.550   6.668   5.694  0.5512  0.0700  1.7135
  138OSM   H13G15126   1.578   6.510   5.764  0.4456  0.5415  3.5414
  138OSM   C14F15127   1.741   6.579   5.635  0.4632  0.0539  0.4204
  138OSM   H14F15128   1.783   6.480   5.663 -0.7468 -0.2453  1.2534
  138OSM   H14G15129   1.825   6.650   5.650  0.3093  0.1808  0.6909
  138OSM   C15F15130   1.690   6.575   5.497  0.0323 -0.5350  0.0146
  138OSM   H15F15131   1.766   6.554   5.419 -0.2305 -1.8305  0.0752
  138OSM   H15G15132   1.650   6.677   5.479 -1.5495 -0.3825  3.5227
  138OSM   C16F15133   1.574   6.481   5.470  0.7653  0.3543  0.2854
  138OSM   H16F15134   1.515   6.455   5.561 -0.7108  2.4653  0.0030
  138OSM   H16G15135   1.604   6.383   5.426  1.4866  0.7232 -0.0520
  138OSM   C17F15136   1.476   6.547   5.358  0.2788  0.5544 -0.1239
  138OSM   H17F15137   1.449   6.644   5.405  1.7297  1.2218 -0.6106
  138OSM   H17G15138   1.404   6.471   5.319 -0.2432  0.0961  1.6339
  138OSM   C18F15139   1.558   6.582   5.234  0.0495  0.6375  0.1403
  138OSM   H18F15140   1.622   6.670   5.254  0.4147 -0.0568  2.3203
  138OSM   H18G15141   1.487   6.614   5.155 -1.2366 -2.4797 -0.1201
  138OSM   H18H15142   1.626   6.508   5.185  1.2370 -0.5066  3.2293
  139OSM      N15143   4.885   4.813   7.550 -0.7963  0.3049  0.1973
  139OSM    C1515144   4.930   4.957   7.569  0.0915 -0.2752  0.3747
  139OSM   H15A15145   4.980   4.982   7.476 -0.3618 -1.5610 -0.2357
  139OSM   H15B15146   5.003   4.970   7.648  0.4938 -0.5013  0.0474
  139OSM   H15C15147   4.843   5.020   7.569 -0.4032 -0.9455  0.1602
  139OSM    C1415148   4.835   4.761   7.683  0.2796  0.0550  0.1643
  139OSM   H14A15149   4.906   4.749   7.763  1.6363  2.5547 -0.5717
  139OSM   H14B15150   4.801   4.660   7.662  0.4193  0.0298  0.0572
  139OSM   H14C15151   4.746   4.813   7.716 -0.1622 -1.2867  1.1639
  139OSM    C1315152   4.773   4.809   7.446  0.8986 -0.2681 -0.5791
  139OSM   H13A15153   4.724   4.713   7.439  1.3775 -0.5275 -0.4452
  139OSM   H13B15154   4.827   4.836   7.356  1.5840 -0.9697 -0.3907
  139OSM   H13C15155   4.700   4.885   7.466  0.6667 -0.9865  1.5702
  139OSM    C1215156   4.992   4.721   7.498  0.2244  0.0055  0.7483
  139OSM   H12A15157   5.017   4.745   7.396 -0.3503  0.6681  0.7561
  139OSM   H12B15158   4.947   4.623   7.492 -0.0390  0.1004  1.1091
  139OSM    C1115159   5.123   4.702   7.571 -0.9018 -0.0829 -0.4798
  139OSM   H11A15160   5.178   4.623   7.516  0.3912  1.9100 -2.1896
  139OSM   H11B15161   5.098   4.660   7.671  3.7190 -3.2431 -0.3212
  139OSM      P15162   5.276   4.887   7.454  0.1730 -0.0050 -0.4273
  139OSM    O1315163   5.234   5.030   7.431  0.0555  0.1549 -0.0342
  139OSM    O1415164   5.423   4.872   7.468 -0.7062 -0.0472  0.0930
  139OSM    O1115165   5.228   4.784   7.336 -0.1467 -0.2784  0.2084
  139OSM    O1215166   5.205   4.823   7.585 -0.0972 -0.0289  0.4741
  139OSM    C1S15167   5.154   4.835   7.221 -0.5006  0.5418  0.1787
  139OSM    H1S15168   5.176   4.943   7.211  1.0171  0.2771  0.4132
  139OSM    H1T15169   5.044   4.823   7.233 -0.4964 -0.9014 -0.9354
  139OSM     NF15170   5.124   4.817   6.987 -0.0295  0.4127 -1.3902
  139OSM    HNF15171   5.043   4.763   6.966 -0.9063  2.2998 -3.2199
  139OSM    C2S15172   5.192   4.760   7.093 -0.5450  0.0327 -0.1427
  139OSM    H2S15173   5.301   4.764   7.072 -0.5640  2.2884 -0.0888
  139OSM    C3S15174   5.157   4.614   7.117 -0.5067 -0.1279  0.6523
  139OSM    H3S15175   5.056   4.619   7.162 -0.8044  4.3845 -0.0998
  139OSM     O315176   5.242   4.553   7.217  0.4091  0.3650  0.2540
  139OSM    HO315177   5.254   4.622   7.282 -1.8830  0.9493  0.1324
  139OSM    C4S15178   5.148   4.549   6.987 -0.2948 -0.0539 -0.3917
  139OSM    H4S15179   5.238   4.576   6.929 -0.4257  2.1436  0.3460
  139OSM    C5S15180   5.042   4.487   6.930 -0.0158  0.4872  0.4905
  139OSM    H5S15181   4.951   4.487   6.991  1.4977  0.0657  2.8933
  139OSM    C6S15182   5.040   4.455   6.779  0.0195  1.1153  0.5248
  139OSM    H6S15183   4.987   4.357   6.780  0.6375  0.7670 -0.0440
  139OSM    H6T15184   5.140   4.433   6.736 -0.8917  0.3831 -1.3846
  139OSM    C7S15185   4.951   4.559   6.707 -0.4492  0.3144 -0.0973
  139OSM    H7S15186   4.994   4.661   6.698 -2.5292  1.2201 -0.3511
  139OSM    H7T15187   4.851   4.570   6.756 -0.0451 -1.2519  1.1963
  139OSM    C8S15188   4.928   4.518   6.559  0.7395 -0.0035  0.9427
  139OSM    H8S15189   4.893   4.414   6.544  2.4227 -0.2612 -2.1788
  139OSM    H8T15190   5.027   4.529   6.508 -0.8556  3.0568 -1.8897
  139OSM    C9S15191   4.824   4.612   6.493  0.4967  0.2914 -0.1552
  139OSM    H9S15192   4.855   4.715   6.521 -0.3995  0.8422 -1.1376
  139OSM    H9T15193   4.726   4.589   6.541  0.4411 -0.8016 -0.7800
  139OSM   C10S15194   4.800   4.598   6.340  0.3351  0.1601  0.0812
  139OSM   H10S15195   4.791   4.489   6.320 -1.8538  0.6573 -2.0690
  139OSM   H10T15196   4.890   4.632   6.285  0.0490  0.7894 -0.0128
  139OSM   C11S15197   4.670   4.673   6.300  0.3624  0.1297  0.1532
  139OSM   H11S15198   4.658   4.775   6.342 -0.1624  0.1257  0.0213
  139OSM   H11T15199   4.587   4.606   6.330  3.1085 -2.6661  2.2322
  139OSM   C12S15200   4.666   4.695   6.150 -0.0795 -0.5227 -0.4530
  139OSM   H12S15201   4.751   4.761   6.124 -2.2241  1.7053 -2.4495
  139OSM   H12T15202   4.582   4.767   6.137  1.9383  2.2070  0.5418
  139OSM   C13S15203   4.669   4.573   6.066  0.8011  0.6677  0.1785
  139OSM   H13S15204   4.598   4.497   6.104 -0.7136  2.2301  0.5823
  139OSM   H13T15205   4.763   4.515   6.080 -0.5889 -1.6492  0.4524
  139OSM   C14S15206   4.643   4.612   5.922  0.9534  0.0516  1.3705
  139OSM   H14S15207   4.722   4.680   5.883 -1.0890  0.3698 -2.7027
  139OSM   H14T15208   4.546   4.666   5.924  0.6027 -0.5324  0.5456
  139OSM   C15S15209   4.648   4.493   5.827  0.2699  0.7359  0.4988
  139OSM   H15S15210   4.567   4.418   5.840  1.4843 -0.9367 -1.0016
  139OSM   H15T15211   4.736   4.431   5.855  1.0113 -0.2971 -3.4141
  139OSM   C16S15212   4.660   4.516   5.670 -0.1545  0.2312 -0.9534
  139OSM   H16S15213   4.764   4.554   5.658 -0.0076 -0.7317 -3.1584
  139OSM   H16T15214   4.599   4.600   5.631 -1.7065 -1.0395 -1.3639
  139OSM   C17S15215   4.630   4.384   5.591  0.3510 -0.1512  0.0490
  139OSM   H17S15216   4.696   4.391   5.502  1.4386 -1.0346  0.7637
  139OSM   H17T15217   4.521   4.383   5.571  0.2386 -0.7139  0.6290
  139OSM   C18S15218   4.667   4.250   5.655  0.3994  0.3335  0.0305
  139OSM   H18S15219   4.614   4.239   5.752 -0.8256  3.6575 -0.1336
  139OSM   H18T15220   4.778   4.242   5.661  0.6164  2.9206  0.6412
  139OSM   H18U15221   4.638   4.158   5.600 -1.0750  0.1262  1.1036
  139OSM    C1F15222   5.151   4.936   6.939  0.4703  0.3323 -0.3392
  139OSM     OF15223   5.255   4.995   6.967 -0.3171  0.1514  0.1030
  139OSM    C2F15224   5.062   4.990   6.837 -0.2127 -0.4574  0.2271
  139OSM    H2F15225   5.062   5.101   6.843 -0.3392 -0.2155 -2.8419
  139OSM    H2G15226   4.955   4.965   6.847 -0.3119  0.6524  2.7807
  139OSM    C3F15227   5.111   4.964   6.687 -0.4617 -0.1999 -0.1365
  139OSM    H3F15228   5.039   5.009   6.617  1.2471  2.4078 -0.3405
  139OSM    H3G15229   5.109   4.855   6.667 -1.1961 -0.5670  1.6577
  139OSM    C4F15230   5.253   5.021   6.657 -0.1560 -1.2411  0.1628
  139OSM    H4F15231   5.320   4.986   6.738  0.2190 -0.4619  0.2045
  139OSM    H4G15232   5.241   5.132   6.656 -0.1699 -1.1912 -2.7938
  139OSM    C5F15233   5.302   4.988   6.508 -0.1963 -0.0434  0.1744
  139OSM    H5F15234   5.302   4.877   6.506  4.1489 -0.2072 -0.4378
  139OSM    H5G15235   5.408   5.021   6.510 -0.2970  0.4506 -1.5330
  139OSM    C6F15236   5.220   5.043   6.388  0.4129 -0.2226  0.9720
  139OSM    H6F15237   5.114   5.063   6.416  0.6056  2.2267  0.2075
  139OSM    H6G15238   5.239   4.965   6.311  1.5726  1.0419 -0.0811
  139OSM    C7F15239   5.279   5.170   6.333 -0.1728 -0.8252 -0.1774
  139OSM    H7F15240   5.377   5.149   6.284 -0.1577  0.1870 -0.5935
  139OSM    H7G15241   5.288   5.237   6.421 -1.2397 -0.0863 -0.6104
  139OSM    C8F15242   5.181   5.228   6.231 -0.4475  0.0002 -0.2322
  139OSM    H8F15243   5.224   5.327   6.201 -0.1667 -0.3200 -0.9291
  139OSM    H8G15244   5.083   5.246   6.279 -0.3362  0.8064 -0.2830
  139OSM    C9F15245   5.183   5.146   6.107  0.8613 -0.4410 -0.2134
  139OSM    H9F15246   5.280   5.137   6.056  1.6327  0.2300  1.0910
  139OSM   C10F15247   5.077   5.083   6.056  0.2647 -0.5924  0.1770
  139OSM   H10F15248   5.089   5.026   5.963 -1.4799  0.4217 -0.7088
  139OSM   C11F15249   4.937   5.105   6.103 -0.4459 -0.0633 -0.3226
  139OSM   H11F15250   4.913   5.204   6.148 -0.4891 -0.7300  1.1582
  139OSM   H11G15251   4.912   5.033   6.183 -1.1432  2.1848  1.5814
  139OSM   C12F15252   4.823   5.077   5.997  0.2067  0.4944 -0.3441
  139OSM   H12F15253   4.842   4.973   5.966 -0.2933  0.6593 -1.2378
  139OSM   H12G15254   4.835   5.136   5.904  1.9222 -0.0540 -0.4950
  139OSM   C13F15255   4.684   5.070   6.046  0.3136  0.1019  0.2849
  139OSM   H13F15256   4.650   5.176   6.056  1.5270  0.6100 -0.6387
  139OSM   H13G15257   4.678   5.027   6.149  1.1230  0.7505  0.6198
  139OSM   C14F15258   4.566   5.010   5.972  0.0133 -0.0698 -0.7452
  139OSM   H14F15259   4.479   5.003   6.041  0.4386 -3.1076 -0.4051
  139OSM   H14G15260   4.585   4.910   5.929 -1.1084 -2.0632  2.9440
  139OSM   C15F15261   4.527   5.095   5.846  1.0345  1.1488 -0.2406
  139OSM   H15F15262   4.603   5.074   5.768  1.5871  1.3064  0.2472
  139OSM   H15G15263   4.530   5.204   5.866  0.3007  1.2069 -0.3952
  139OSM   C16F15264   4.383   5.066   5.792 -0.2437  0.1591  0.3637
  139OSM   H16F15265   4.316   5.052   5.880  1.0986 -1.1305  1.2192
  139OSM   H16G15266   4.381   4.976   5.727  0.5821  0.5818 -0.2631
  139OSM   C17F15267   4.318   5.174   5.701  0.4862 -0.2675  0.1725
  139OSM   H17F15268   4.218   5.136   5.669 -0.0472 -1.4507  2.9389
  139OSM   H17G15269   4.389   5.203   5.621 -0.5415 -1.5250 -1.2734
  139OSM   C18F15270   4.279   5.308   5.773 -0.1289 -0.2460 -0.7003
  139OSM   H18F15271   4.226   5.301   5.870  1.5875  1.6810  0.4777
  139OSM   H18G15272   4.221   5.380   5.712 -1.3145 -0.9197 -0.3959
  139OSM   H18H15273   4.373   5.362   5.798 -0.1622 -1.0668  1.4236
  140OSM      N15274   6.265   6.840   8.215 -0.5671  0.1528  0.4359
  140OSM    C1515275   6.320   6.971   8.170  0.2716  0.5789  0.2670
  140OSM   H15A15276   6.427   6.981   8.183  0.6018  0.1961 -1.7406
  140OSM   H15B15277   6.271   7.058   8.209  0.8746  0.8819  0.3647
  140OSM   H15C15278   6.304   6.972   8.063  0.0080 -2.0893  0.2003
  140OSM    C1415279   6.322   6.732   8.128 -0.6429  0.6309  0.2008
  140OSM   H14A15280   6.429   6.732   8.136 -0.3365 -1.5506 -2.2772
  140OSM   H14B15281   6.308   6.737   8.021 -0.4226 -1.1437  0.0635
  140OSM   H14C15282   6.282   6.634   8.150 -0.6742  0.4758 -0.5102
  140OSM    C1315283   6.317   6.822   8.353  0.0314 -0.3147  0.2085
  140OSM   H13A15284   6.280   6.906   8.411  3.8711  2.3754 -0.8855
  140OSM   H13B15285   6.424   6.831   8.356  0.2845 -2.4618  3.6591
  140OSM   H13C15286   6.296   6.727   8.399  2.5266 -0.8715  0.3041
  140OSM    C1215287   6.117   6.841   8.210  0.9691 -1.0288 -0.3675
  140OSM   H12A15288   6.086   6.739   8.224  1.5298 -1.3282 -1.2476
  140OSM   H12B15289   6.083   6.876   8.114 -0.2332  1.2978  0.8181
  140OSM    C1115290   6.045   6.933   8.313  0.2960  0.6232  0.1695
  140OSM   H11A15291   6.066   6.892   8.413 -1.1277 -0.5317  0.0277
  140OSM   H11B15292   5.939   6.910   8.290  0.7876 -1.6751 -0.0731
  140OSM      P15293   5.952   7.171   8.241  0.1693  0.4413 -0.1902
  140OSM    O1315294   5.826   7.156   8.318  0.2544 -0.2338  0.5962
  140OSM    O1415295   6.011   7.307   8.240  0.3927  1.4284  0.0029
  140OSM    O1115296   5.939   7.122   8.095  0.2166 -0.2481  0.0949
  140OSM    O1215297   6.065   7.074   8.295 -0.1369  0.4901  0.6701
  140OSM    C1S15298   5.881   7.209   7.994  0.2554 -0.1140  0.1526
  140OSM    H1S15299   5.925   7.311   7.992 -4.3766  2.1391 -0.4064
  140OSM    H1T15300   5.774   7.230   8.018  0.5527 -0.4437  1.8949
  140OSM     NF15301   5.797   7.223   7.748  0.6684 -0.1663  0.2887
  140OSM    HNF15302   5.728   7.169   7.699 -0.8080  1.0928  0.8972
  140OSM    C2S15303   5.884   7.158   7.841 -0.3904  0.2594  0.6775
  140OSM    H2S15304   5.983   7.187   7.798 -1.1576 -0.6181 -1.8526
  140OSM    C3S15305   5.880   6.998   7.824 -0.0502 -0.5988 -0.2714
  140OSM    H3S15306   5.778   6.965   7.852  0.3483 -0.4410  1.4867
  140OSM     O315307   5.968   6.928   7.909  0.6613 -0.0417 -0.6007
  140OSM    HO315308   6.016   6.993   7.961  0.9125 -1.0042  0.4015
  140OSM    C4S15309   5.899   6.961   7.678  1.0260  0.0901 -0.5119
  140OSM    H4S15310   5.808   6.937   7.622  0.5583  0.3727  0.1061
  140OSM    C5S15311   6.015   6.954   7.611 -0.9010  0.4522 -0.3671
  140OSM    H5S15312   6.105   6.985   7.666 -0.3156  2.8308 -2.4743
  140OSM    C6S15313   6.046   6.935   7.463 -0.1350  0.0681  0.8802
  140OSM    H6S15314   6.064   6.828   7.436  3.2455  0.4995  0.9151
  140OSM    H6T15315   6.142   6.980   7.430 -0.8245  0.9245 -0.0269
  140OSM    C7S15316   5.948   6.992   7.353  0.2251 -0.5560  0.1418
  140OSM    H7S15317   5.929   7.100   7.370  0.4402 -0.2462 -1.4148
  140OSM    H7T15318   5.849   6.948   7.377 -0.5540  2.3321  2.8828
  140OSM    C8S15319   5.995   6.976   7.204 -0.7203  0.2301  0.1518
  140OSM    H8S15320   6.036   6.877   7.175  0.8681  0.4342  1.5522
  140OSM    H8T15321   6.085   7.041   7.204 -1.7500  1.7120  0.3044
  140OSM    C9S15322   5.884   7.014   7.098  0.4238  0.9957 -0.5849
  140OSM    H9S15323   5.848   7.119   7.107 -2.0679  0.2987 -1.6621
  140OSM    H9T15324   5.804   6.941   7.122  1.3886  0.7686  2.4195
  140OSM   C10S15325   5.925   7.012   6.945 -0.2813  0.0141 -1.1422
  140OSM   H10S15326   5.925   6.906   6.911 -1.1525  0.2406 -1.8743
  140OSM   H10T15327   6.029   7.049   6.943  0.0716 -0.6319  1.2551
  140OSM   C11S15328   5.830   7.088   6.853 -0.6937  0.4973  0.3199
  140OSM   H11S15329   5.837   7.198   6.868 -1.8465  1.2418 -3.4806
  140OSM   H11T15330   5.723   7.061   6.865 -0.4816 -1.6784 -1.9331
  140OSM   C12S15331   5.861   7.059   6.699 -0.9365  0.0353  0.2539
  140OSM   H12S15332   5.958   7.095   6.659 -1.2820  1.1378  0.3721
  140OSM   H12T15333   5.784   7.113   6.641  0.5149  0.7838 -1.0592
  140OSM   C13S15334   5.838   6.909   6.663 -0.0592 -0.3490 -0.3095
  140OSM   H13S15335   5.743   6.875   6.708  0.0534  1.1003  1.1225
  140OSM   H13T15336   5.920   6.846   6.704  0.2518  0.1715 -0.1213
  140OSM   C14S15337   5.820   6.900   6.508  0.5302  0.3434 -0.2302
  140OSM   H14S15338   5.824   6.793   6.478 -2.6228  0.9948 -3.7875
  140OSM   H14T15339   5.888   6.971   6.456 -2.4943  1.4690 -2.9683
  140OSM   C15S15340   5.682   6.930   6.452 -0.6509 -0.1873 -0.8050
  140OSM   H15S15341   5.646   7.034   6.464 -2.9608 -0.9315 -0.7351
  140OSM   H15T15342   5.604   6.871   6.506 -1.0057  1.2990  0.3783
  140OSM   C16S15343   5.683   6.890   6.304 -0.3952 -0.5300 -0.6219
  140OSM   H16S15344   5.731   6.792   6.286  0.2603 -0.2020 -0.7008
  140OSM   H16T15345   5.741   6.970   6.253  0.3032 -0.7172 -0.1388
  140OSM   C17S15346   5.547   6.890   6.233  0.9350  0.0700 -0.2658
  140OSM   H17S15347   5.486   6.976   6.266  1.1422 -0.3223  1.2152
  140OSM   H17T15348   5.481   6.812   6.278 -1.1449  0.9698 -1.6045
  140OSM   C18S15349   5.563   6.878   6.081  0.5460  0.3038  0.1151
  140OSM   H18S15350   5.458   6.879   6.045 -0.0322 -0.9389  1.6124
  140OSM   H18T15351   5.607   6.778   6.060 -1.4567 -0.3791 -1.1037
  140OSM   H18U15352   5.626   6.956   6.033 -1.8939  1.1712 -1.8298
  140OSM    C1F15353   5.797   7.357   7.725 -0.3808  0.5599  0.2119
  140OSM     OF15354   5.884   7.426   7.780 -0.1771  0.0116  0.3592
  140OSM    C2F15355   5.686   7.422   7.644  0.4258 -0.1569  0.2722
  140OSM    H2F15356   5.657   7.510   7.706  1.0007  2.5891 -3.0653
  140OSM    H2G15357   5.599   7.353   7.642  0.8498 -0.6749 -0.8984
  140OSM    C3F15358   5.746   7.466   7.511 -0.4369 -0.7509  0.0895
  140OSM    H3F15359   5.839   7.518   7.541 -0.3183 -0.8072 -0.1769
  140OSM    H3G15360   5.681   7.537   7.456 -1.2432  0.4005  2.4292
  140OSM    C4F15361   5.788   7.339   7.426 -0.3563  0.3842  0.1401
  140OSM    H4F15362   5.698   7.277   7.404 -0.4335  0.0458  1.3431
  140OSM    H4G15363   5.860   7.275   7.480 -0.9535 -0.4015  0.0148
  140OSM    C5F15364   5.856   7.381   7.298  0.4456 -0.1043 -0.1485
  140OSM    H5F15365   5.786   7.445   7.241 -0.9642 -1.2711  0.2103
  140OSM    H5G15366   5.872   7.292   7.234  1.4416  0.0524 -0.1256
  140OSM    C6F15367   5.983   7.458   7.327  0.1758  1.3430  0.6675
  140OSM    H6F15368   6.050   7.392   7.386  0.0707  0.1032 -0.5491
  140OSM    H6G15369   5.968   7.551   7.386 -1.6392  1.1760  0.5275
  140OSM    C7F15370   6.067   7.499   7.201  0.1307 -0.1142  0.4008
  140OSM    H7F15371   6.105   7.409   7.148 -2.5335 -1.2185  0.1816
  140OSM    H7G15372   6.147   7.569   7.234  1.4551 -2.0388  1.4879
  140OSM    C8F15373   5.977   7.553   7.091  0.4348 -0.2437  0.1113
  140OSM    H8F15374   5.915   7.641   7.119 -1.2679 -0.5447 -2.4283
  140OSM    H8G15375   5.903   7.477   7.058 -1.5032  0.5863  2.2767
  140OSM    C9F15376   6.061   7.607   6.974 -0.5044  0.4778  0.0811
  140OSM    H9F15377   6.159   7.642   7.010  0.6483 -2.3952 -0.0665
  140OSM   C10F15378   6.035   7.595   6.843 -0.7548 -0.2777 -0.4236
  140OSM   H10F15379   6.104   7.649   6.776 -0.9836  0.6918  0.0990
  140OSM   C11F15380   5.909   7.540   6.780  0.6169  0.1585  0.0584
  140OSM   H11F15381   5.854   7.628   6.740  1.7398  0.9071  0.1314
  140OSM   H11G15382   5.850   7.479   6.852  0.0298  0.3289 -0.2659
  140OSM   C12F15383   5.946   7.458   6.655  0.4993 -0.1166 -0.1017
  140OSM   H12F15384   5.850   7.422   6.612 -0.2506  0.5995  0.9314
  140OSM   H12G15385   5.992   7.359   6.674 -0.5227 -0.6892 -0.4785
  140OSM   C13F15386   6.028   7.527   6.541  0.1211  0.5195 -0.1646
  140OSM   H13F15387   6.120   7.575   6.581  1.5068 -2.4907  0.5758
  140OSM   H13G15388   5.962   7.602   6.494  0.8938  1.8353  0.7886
  140OSM   C14F15389   6.064   7.438   6.432 -0.6155  0.1268  0.1862
  140OSM   H14F15390   6.104   7.343   6.474  1.2094 -0.6007 -2.8912
  140OSM   H14G15391   6.152   7.472   6.373 -1.5628 -1.1014 -2.0343
  140OSM   C15F15392   5.949   7.410   6.336  0.5122  0.1152  0.3406
  140OSM   H15F15393   5.917   7.502   6.283 -1.0779 -0.1100  0.8535
  140OSM   H15G15394   5.868   7.363   6.395  0.9149  1.6428  2.2032
  140OSM   C16F15395   5.998   7.303   6.242 -0.3969  0.3318  0.1100
  140OSM   H16F15396   6.046   7.221   6.300  1.3594  1.3913  0.2344
  140OSM   H16G15397   6.077   7.352   6.181  0.0720  0.1383  0.5489
  140OSM   C17F15398   5.887   7.261   6.147  0.8049  0.1053  0.1784
  140OSM   H17F15399   5.806   7.207   6.200  1.3898 -1.5363 -0.5218
  140OSM   H17G15400   5.935   7.204   6.064  1.3558  0.5153  0.2107
  140OSM   C18F15401   5.802   7.374   6.083  0.1898 -0.0709  0.2891
  140OSM   H18F15402   5.875   7.442   6.036  0.8123  0.0292  1.3696
  140OSM   H18G15403   5.747   7.435   6.159 -1.7081  0.1053 -1.1442
  140OSM   H18H15404   5.726   7.339   6.010 -0.2379 -0.9672  1.1403
  141OSM      N15405   4.911   0.457   8.059 -0.2510  0.1096 -0.1611
  141OSM    C1515406   4.947   0.313   8.073  0.1054  0.1684 -0.0364
  141OSM   H15A15407   5.049   0.291   8.043 -0.8458 -3.2656 -1.2216
  141OSM   H15B15408   4.877   0.251   8.018  0.2213  0.4787 -0.5470
  141OSM   H15C15409   4.946   0.284   8.177  2.7843 -1.7311 -0.4186
  141OSM    C1415410   4.909   0.488   7.914  0.2172 -0.7625 -0.0039
  141OSM   H14A15411   4.848   0.418   7.859 -0.2580  0.5960 -1.3006
  141OSM   H14B15412   5.010   0.486   7.877 -0.8837  1.5286 -3.7640
  141OSM   H14C15413   4.867   0.585   7.892  0.7609 -0.8852 -1.6957
  141OSM    C1315414   4.775   0.498   8.109  0.2784 -0.3661 -0.5139
  141OSM   H13A15415   4.766   0.605   8.103  0.3853 -0.1761  1.7785
  141OSM   H13B15416   4.753   0.469   8.211  1.1754  1.5346  0.2664
  141OSM   H13C15417   4.699   0.459   8.043 -1.9692  1.5567  0.7699
  141OSM    C1215418   5.016   0.536   8.132  0.1311 -0.2277  0.7271
  141OSM   H12A15419   5.001   0.531   8.239 -0.3518  2.3734  0.8442
  141OSM   H12B15420   5.001   0.641   8.109 -1.3850 -0.7087 -0.6036
  141OSM    C1115421   5.163   0.504   8.107  0.0226 -0.1309  0.2427
  141OSM   H11A15422   5.176   0.399   8.144 -0.0685 -1.0383 -2.1326
  141OSM   H11B15423   5.221   0.572   8.173 -0.0060 -0.4726  0.6263
  141OSM      P15424   5.343   0.500   7.918 -0.2191 -0.1516 -0.3922
  141OSM    O1315425   5.363   0.579   7.796  0.2664 -0.3419  0.1538
  141OSM    O1415426   5.439   0.524   8.023 -0.4596  0.0329 -0.6462
  141OSM    O1115427   5.345   0.346   7.881 -0.0612 -0.4106  0.7646
  141OSM    O1215428   5.196   0.521   7.970 -0.8538 -0.0498 -0.5509
  141OSM    C1S15429   5.256   0.278   7.789 -0.2550 -0.0331 -0.9862
  141OSM    H1S15430   5.154   0.322   7.799 -0.3443 -0.5841  0.9549
  141OSM    H1T15431   5.232   0.179   7.834  0.8287 -0.4691 -1.3481
  141OSM     NF15432   5.199   0.222   7.558  0.8784 -0.0711 -0.1874
  141OSM    HNF15433   5.179   0.132   7.522 -2.9142  1.1398 -1.6550
  141OSM    C2S15434   5.303   0.254   7.648 -0.2832 -0.0845  0.1950
  141OSM    H2S15435   5.353   0.347   7.612  0.2359 -0.1559  0.7088
  141OSM    C3S15436   5.424   0.145   7.649  0.9902  0.1500  0.7438
  141OSM    H3S15437   5.381   0.052   7.693 -1.5767  1.0377  0.2450
  141OSM     O315438   5.531   0.184   7.735  0.4114  0.1065  0.9288
  141OSM    HO315439   5.509   0.268   7.776 -2.8899  1.5078 -3.0283
  141OSM    C4S15440   5.494   0.133   7.513 -0.2251 -0.6783  0.5253
  141OSM    H4S15441   5.555   0.223   7.500 -2.2322  0.7395  0.3441
  141OSM    C5S15442   5.484   0.037   7.419 -0.1822  0.2622 -0.2468
  141OSM    H5S15443   5.409  -0.041   7.438 -0.3539  1.0177  2.6829
  141OSM    C6S15444   5.555   0.031   7.285  0.0214 -0.3117 -0.2294
  141OSM    H6S15445   5.617  -0.060   7.270  1.1479  0.3954 -0.0348
  141OSM    H6T15446   5.628   0.113   7.264  1.2872 -1.5490 -0.8243
  141OSM    C7S15447   5.454   0.029   7.163  1.0341  0.1949  0.3029
  141OSM    H7S15448   5.511   0.043   7.068 -1.3522  0.6334 -1.1622
  141OSM    H7T15449   5.410   0.131   7.166  0.7527  0.1238 -0.8551
  141OSM    C8S15450   5.351  -0.086   7.151 -0.5442 -0.3863 -0.0157
  141OSM    H8S15451   5.287  -0.086   7.242 -0.3986  0.0867  0.0866
  141OSM    H8T15452   5.400  -0.186   7.147 -0.6335 -0.5348  1.6817
  141OSM    C9S15453   5.255  -0.066   7.029 -0.6618  0.6176 -0.6470
  141OSM    H9S15454   5.190   0.021   7.051 -2.0412 -0.5128 -0.0756
  141OSM    H9T15455   5.187  -0.154   7.016  3.3367 -3.2076  1.6075
  141OSM   C10S15456   5.328  -0.047   6.899  0.2142  0.2977 -0.5752
  141OSM   H10S15457   5.402  -0.129   6.900  0.6515  0.6498  1.8484
  141OSM   H10T15458   5.390   0.045   6.896  1.7408 -0.7072 -1.1778
  141OSM   C11S15459   5.226  -0.055   6.786  0.4162  0.4290  0.7676
  141OSM   H11S15460   5.150   0.025   6.797 -1.1339 -1.2095  2.9210
  141OSM   H11T15461   5.165  -0.147   6.797 -1.4125  1.4011 -0.6375
  141OSM   C12S15462   5.277  -0.052   6.651 -0.0129  0.2618  0.1350
  141OSM   H12S15463   5.340  -0.141   6.627  2.4943  1.6798  1.0309
  141OSM   H12T15464   5.351   0.030   6.639  0.1845 -0.0752 -1.1494
  141OSM   C13S15465   5.159  -0.040   6.548  0.2906 -0.9359 -0.3258
  141OSM   H13S15466   5.110   0.055   6.578 -0.7098 -1.3406 -0.6493
  141OSM   H13T15467   5.092  -0.128   6.558  2.2353 -2.3756  0.8569
  141OSM   C14S15468   5.207  -0.034   6.407 -0.3426  0.0435  0.5137
  141OSM   H14S15469   5.272  -0.121   6.384  0.1602  0.5584 -0.0594
  141OSM   H14T15470   5.266   0.058   6.383  1.1644 -0.5112  1.9160
  141OSM   C15S15471   5.075  -0.034   6.323  0.0113 -1.3048  0.5057
  141OSM   H15S15472   5.018   0.060   6.336  1.6649 -0.1099 -0.4121
  141OSM   H15T15473   5.002  -0.102   6.371 -3.5590  1.4874 -0.5658
  141OSM   C16S15474   5.103  -0.065   6.176  0.9475 -0.6274 -0.1022
  141OSM   H16S15475   5.123  -0.174   6.167  1.3923 -0.4915 -0.8605
  141OSM   H16T15476   5.198  -0.022   6.137  0.9345 -1.6775 -1.3579
  141OSM   C17S15477   4.992  -0.022   6.073  0.4248  0.7623  0.0956
  141OSM   H17S15478   4.895  -0.069   6.101  1.4528 -2.0261 -0.6977
  141OSM   H17T15479   5.019  -0.065   5.974 -2.0894  2.0307 -1.2393
  141OSM   C18S15480   4.989   0.128   6.070 -0.8365  0.3805 -0.3791
  141OSM   H18S15481   4.942   0.177   6.158 -0.1154  1.0169 -0.3377
  141OSM   H18T15482   4.933   0.165   5.981 -1.9513  0.5407  0.3619
  141OSM   H18U15483   5.095   0.161   6.061 -0.3265 -1.3848 -1.3490
  141OSM    C1F15484   5.100   0.311   7.544  0.6653 -0.1433  0.2752
  141OSM     OF15485   5.117   0.432   7.573 -0.2825 -0.5092  0.6282
  141OSM    C2F15486   4.964   0.251   7.501 -0.6641  0.2802  0.7246
  141OSM    H2F15487   4.909   0.221   7.592 -3.1200  1.1817 -0.3474
  141OSM    H2G15488   4.974   0.164   7.433  0.2766  0.5083  0.5527
  141OSM    C3F15489   4.864   0.344   7.429 -0.4911 -0.0254 -0.6042
  141OSM    H3F15490   4.835   0.426   7.499 -0.0583  0.0589 -0.5244
  141OSM    H3G15491   4.777   0.279   7.408 -0.8523  0.2104  0.1182
  141OSM    C4F15492   4.922   0.409   7.304  0.2672 -0.4036 -0.7459
  141OSM    H4F15493   4.947   0.322   7.239 -1.3034 -0.9795 -0.6306
  141OSM    H4G15494   5.019   0.456   7.328  0.5319 -1.7401  0.9869
  141OSM    C5F15495   4.826   0.493   7.219  0.0328  0.3152  0.1603
  141OSM    H5F15496   4.818   0.592   7.268  2.3862  0.5755  0.1334
  141OSM    H5G15497   4.729   0.439   7.209  1.5449 -3.0648  1.8522
  141OSM    C6F15498   4.879   0.521   7.079  0.0386 -0.6213 -0.0301
  141OSM    H6F15499   4.787   0.561   7.031 -0.5624 -1.4085  0.4335
  141OSM    H6G15500   4.908   0.428   7.026  0.6624 -0.4716  0.0482
  141OSM    C7F15501   4.995   0.623   7.079  0.0134  0.3071  0.5132
  141OSM    H7F15502   5.081   0.566   7.119  0.4632  1.7554  1.6967
  141OSM    H7G15503   4.965   0.713   7.137 -3.5941 -0.5192  0.1528
  141OSM    C8F15504   5.029   0.662   6.935 -0.4860 -1.0103  0.6792
  141OSM    H8F15505   5.022   0.568   6.877 -0.4033 -1.1386  0.8768
  141OSM    H8G15506   5.126   0.717   6.932  0.4002 -2.4189  2.1650
  141OSM    C9F15507   4.923   0.757   6.880 -0.2461 -0.3226  0.8033
  141OSM    H9F15508   4.925   0.859   6.922  1.5551 -0.6592  1.6318
  141OSM   C10F15509   4.824   0.734   6.793  0.7079  0.2396  0.2093
  141OSM   H10F15510   4.775   0.824   6.753  0.1660  0.6943  1.8323
  141OSM   C11F15511   4.821   0.604   6.715  0.9123 -0.9079 -0.4101
  141OSM   H11F15512   4.715   0.591   6.685  0.0000  2.7772  0.6924
  141OSM   H11G15513   4.861   0.518   6.774  1.5775 -0.2059  0.1689
  141OSM   C12F15514   4.901   0.609   6.584  0.5701 -0.1230 -0.2740
  141OSM   H12F15515   4.951   0.513   6.560  3.4728  0.5567  2.4049
  141OSM   H12G15516   4.989   0.675   6.599 -0.1811  0.7298  0.5596
  141OSM   C13F15517   4.830   0.666   6.468 -0.3393  0.3389  0.1562
  141OSM   H13F15518   4.794   0.767   6.498 -0.0254  0.8063 -1.0119
  141OSM   H13G15519   4.735   0.612   6.452  1.0047 -1.9139 -0.6803
  141OSM   C14F15520   4.918   0.665   6.337  0.0436  0.3588  0.9548
  141OSM   H14F15521   4.937   0.561   6.304  0.9313  1.2398 -1.6167
  141OSM   H14G15522   5.017   0.712   6.354 -0.6273  1.4959  1.9179
  141OSM   C15F15523   4.851   0.734   6.215  0.2740 -0.0209 -0.7054
  141OSM   H15F15524   4.817   0.835   6.247 -1.7131 -0.4281 -1.4205
  141OSM   H15G15525   4.759   0.674   6.199 -0.2234  0.1230  1.4230
  141OSM   C16F15526   4.944   0.733   6.090  0.1022  0.2902  0.3816
  141OSM   H16F15527   5.045   0.751   6.131  0.1270  1.6347 -0.2200
  141OSM   H16G15528   4.911   0.806   6.012 -1.1858  0.1309  0.7558
  141OSM   C17F15529   4.944   0.597   6.017 -0.4795  0.5703 -0.2946
  141OSM   H17F15530   4.982   0.514   6.080  2.0964  0.2987 -2.0473
  141OSM   H17G15531   5.014   0.605   5.931 -0.4809 -0.6018 -0.4238
  141OSM   C18F15532   4.815   0.557   5.958  0.1262 -0.2212 -0.0657
  141OSM   H18F15533   4.756   0.636   5.906 -2.2430  0.5257  3.4059
  141OSM   H18G15534   4.747   0.526   6.040 -1.2295 -0.1642 -1.1396
  141OSM   H18H15535   4.816   0.469   5.891 -1.2071 -2.1513  2.3091
  142OSM      N15536   4.943   5.752   7.714  0.1223  0.6979 -0.2939
  142OSM    C1515537   4.929   5.899   7.697 -0.6095  0.5832  0.2724
  142OSM   H15A15538   4.833   5.933   7.659  0.5205  2.4089 -1.0801
  142OSM   H15B15539   5.007   5.932   7.631  1.4221 -0.7380  1.8982
  142OSM   H15C15540   4.944   5.951   7.790 -0.3213  0.3892  0.3367
  142OSM    C1415541   4.835   5.717   7.813  0.6478  0.5525 -0.3927
  142OSM   H14A15542   4.847   5.753   7.914 -0.1340 -0.9911  0.2718
  142OSM   H14B15543   4.829   5.610   7.823 -0.7147  0.5666 -0.8428
  142OSM   H14C15544   4.740   5.751   7.776  0.0712 -1.7976 -1.2396
  142OSM    C1315545   4.912   5.675   7.587  0.2399  0.1871  0.1085
  142OSM   H13A15546   4.897   5.571   7.613  1.1350  0.2726  1.0555
  142OSM   H13B15547   4.992   5.677   7.515  1.0094 -3.3404  0.7171
  142OSM   H13C15548   4.818   5.706   7.543  0.7577  0.9979 -0.4628
  142OSM    C1215549   5.081   5.706   7.764 -0.0009  0.4235  0.3150
  142OSM   H12A15550   5.155   5.715   7.686  1.8747 -2.5665  1.5737
  142OSM   H12B15551   5.073   5.603   7.793 -0.2279  0.5593  0.7465
  142OSM    C1115552   5.145   5.784   7.883  0.1075  0.0544 -0.6940
  142OSM   H11A15553   5.225   5.722   7.930 -0.4198 -0.4535 -0.4424
  142OSM   H11B15554   5.075   5.798   7.969  1.7152 -0.0201  0.6722
  142OSM      P15555   5.325   5.928   7.760  0.1786 -0.2786  0.2392
  142OSM    O1315556   5.404   6.044   7.799 -0.3174 -0.2713  0.5519
  142OSM    O1415557   5.404   5.804   7.762 -0.8051  0.1269  0.4315
  142OSM    O1115558   5.258   5.950   7.615  0.4442 -0.3413 -0.3499
  142OSM    O1215559   5.196   5.915   7.852  0.4627  0.0943 -0.3068
  142OSM    C1S15560   5.310   6.056   7.528 -0.5227 -0.4451  0.1257
  142OSM    H1S15561   5.410   6.095   7.558  0.0314  0.6607 -2.8024
  142OSM    H1T15562   5.238   6.140   7.516 -1.4375 -1.2617 -0.2518
  142OSM     NF15563   5.444   6.073   7.319 -0.1900 -0.5053  0.5007
  142OSM    HNF15564   5.432   6.148   7.255 -0.2582 -0.7016  0.2807
  142OSM    C2S15565   5.337   6.000   7.383 -0.0407 -0.5961  0.0263
  142OSM    H2S15566   5.365   5.897   7.412 -2.1013 -0.7909  1.6216
  142OSM    C3S15567   5.199   5.998   7.312  0.1552 -0.4224 -0.6434
  142OSM    H3S15568   5.158   6.100   7.297 -1.4379 -1.2211 -2.1073
  142OSM     O315569   5.111   5.908   7.382 -0.4415  0.0273 -0.3734
  142OSM    HO315570   5.155   5.886   7.464  0.1240  0.4501 -0.5580
  142OSM    C4S15571   5.205   5.947   7.173 -0.3311 -0.2198  0.5266
  142OSM    H4S15572   5.209   5.838   7.165  1.0365 -0.1834  0.3390
  142OSM    C5S15573   5.244   6.021   7.065 -0.2793 -0.4346 -0.2181
  142OSM    H5S15574   5.263   6.128   7.084  2.0509 -0.8744  0.1955
  142OSM    C6S15575   5.274   5.977   6.922  0.3257 -0.0228  0.2412
  142OSM    H6S15576   5.249   5.869   6.916 -4.6869  0.7946  1.8761
  142OSM    H6T15577   5.374   6.012   6.888  0.0330  0.0726 -0.5385
  142OSM    C7S15578   5.183   6.038   6.812  0.1621  0.0970  0.0452
  142OSM    H7S15579   5.204   6.147   6.811 -0.3859  0.2263 -1.4915
  142OSM    H7T15580   5.078   6.016   6.840  0.0133 -0.1057 -0.6418
  142OSM    C8S15581   5.202   5.968   6.674 -0.9681 -0.2378  0.1492
  142OSM    H8S15582   5.181   5.859   6.672  1.0181 -0.6693  0.5113
  142OSM    H8T15583   5.312   5.979   6.660 -1.0342 -1.5682 -1.8153
  142OSM    C9S15584   5.146   6.049   6.548  0.1345  0.0275 -0.1296
  142OSM    H9S15585   5.181   6.154   6.547  0.3471  0.0523 -3.8228
  142OSM    H9T15586   5.035   6.047   6.559 -0.0945  0.0285 -1.9688
  142OSM   C10S15587   5.171   5.987   6.406  0.1674  0.0173 -0.5302
  142OSM   H10S15588   5.079   6.005   6.346 -0.1347 -1.7841 -0.6585
  142OSM   H10T15589   5.164   5.876   6.407  1.5082 -0.1180 -2.3321
  142OSM   C11S15590   5.305   6.039   6.352  0.0618 -0.0871  0.6467
  142OSM   H11S15591   5.388   6.025   6.425  0.6092 -1.8452 -0.2584
  142OSM   H11T15592   5.300   6.147   6.326 -1.2929 -0.1751  0.4935
  142OSM   C12S15593   5.329   5.967   6.221 -0.1447  0.0715 -0.2464
  142OSM   H12S15594   5.293   5.862   6.235 -0.6531  0.1709 -0.7811
  142OSM   H12T15595   5.437   5.968   6.192 -0.2122 -0.9173 -0.5913
  142OSM   C13S15596   5.235   6.020   6.106 -0.7151 -0.6075  0.7101
  142OSM   H13S15597   5.254   6.129   6.098 -0.8498 -0.6047  0.3994
  142OSM   H13T15598   5.129   6.003   6.137 -0.8727  1.2617  1.3365
  142OSM   C14S15599   5.248   5.957   5.966  0.0882  0.5972  0.4042
  142OSM   H14S15600   5.173   5.995   5.893  1.2793 -1.0304 -1.8249
  142OSM   H14T15601   5.248   5.846   5.961  2.8270  0.5873 -1.9073
  142OSM   C15S15602   5.380   5.994   5.900 -0.2387  0.2932  0.5782
  142OSM   H15S15603   5.469   5.989   5.966  0.4372  1.0379 -0.2600
  142OSM   H15T15604   5.372   6.102   5.878 -1.5608  0.2009  0.5227
  142OSM   C16S15605   5.416   5.933   5.766 -0.5567  0.2005  1.4872
  142OSM   H16S15606   5.349   5.984   5.694  3.1881  2.0100 -1.0176
  142OSM   H16T15607   5.402   5.823   5.758  0.7102  0.1396 -0.6289
  142OSM   C17S15608   5.558   5.957   5.722 -0.0579  0.6378  0.2814
  142OSM   H17S15609   5.635   5.904   5.783 -0.8609 -1.6512 -0.5984
  142OSM   H17T15610   5.582   6.065   5.732  0.8488  0.4941 -0.2625
  142OSM   C18S15611   5.585   5.917   5.577 -0.5029  0.0659  0.1205
  142OSM   H18S15612   5.554   5.815   5.546  1.3447 -0.2538 -0.8188
  142OSM   H18T15613   5.692   5.930   5.550 -0.8443 -1.9372 -2.5897
  142OSM   H18U15614   5.527   5.992   5.521 -0.4392  1.7515  2.1888
  142OSM    C1F15615   5.574   6.049   7.366  0.5938 -0.2893 -0.3497
  142OSM     OF15616   5.601   5.995   7.469 -0.3019 -0.5044 -0.2144
  142OSM    C2F15617   5.676   6.127   7.292 -0.4876 -0.4960  0.2958
  142OSM    H2F15618   5.738   6.195   7.355  1.5183 -0.2762 -1.7974
  142OSM    H2G15619   5.616   6.188   7.221 -3.6688 -4.1756 -0.5043
  142OSM    C3F15620   5.770   6.040   7.203 -0.3137  0.3698  0.7043
  142OSM    H3F15621   5.797   5.952   7.266 -0.9996 -0.4480 -0.1097
  142OSM    H3G15622   5.861   6.098   7.176  0.0489 -0.5651 -0.1339
  142OSM    C4F15623   5.718   5.991   7.071  0.1393 -0.2417  0.6401
  142OSM    H4F15624   5.644   5.911   7.096  0.0867 -0.4044 -0.0157
  142OSM    H4G15625   5.799   5.937   7.018 -1.2641 -1.7379 -0.0628
  142OSM    C5F15626   5.657   6.098   6.979  0.3769  0.3169 -0.1804
  142OSM    H5F15627   5.719   6.191   6.987 -0.1501  0.7601 -1.0947
  142OSM    H5G15628   5.552   6.113   7.012  0.5162 -3.5754  2.7068
  142OSM    C6F15629   5.662   6.060   6.828 -0.6096  0.7597 -0.1567
  142OSM    H6F15630   5.588   5.978   6.822 -0.5187  0.4188  2.2056
  142OSM    H6G15631   5.757   6.013   6.797 -1.1810  1.0236 -2.4757
  142OSM    C7F15632   5.622   6.165   6.726 -0.4185  0.0912 -0.8011
  142OSM    H7F15633   5.672   6.264   6.739 -0.6165  0.1664 -0.6039
  142OSM    H7G15634   5.518   6.193   6.755 -0.2873 -1.9007  1.9883
  142OSM    C8F15635   5.628   6.111   6.576  0.1864 -1.0428  0.1117
  142OSM    H8F15636   5.574   6.186   6.513 -0.9371 -2.0784 -0.1933
  142OSM    H8G15637   5.584   6.009   6.570 -1.0033 -0.5181 -0.5673
  142OSM    C9F15638   5.771   6.098   6.527  0.3433  0.3442 -0.2530
  142OSM    H9F15639   5.845   6.089   6.608 -2.0166  2.5722  2.3714
  142OSM   C10F15640   5.805   6.119   6.397 -0.7561 -0.1212  0.5842
  142OSM   H10F15641   5.909   6.104   6.365 -1.2305 -1.7742 -0.3326
  142OSM   C11F15642   5.708   6.146   6.282 -0.8296 -0.9307 -0.0038
  142OSM   H11F15643   5.710   6.251   6.248 -0.7277 -0.8104  0.3747
  142OSM   H11G15644   5.602   6.119   6.305 -1.2663  0.2820 -0.5215
  142OSM   C12F15645   5.738   6.048   6.166 -0.0264 -1.3321  0.1118
  142OSM   H12F15646   5.648   6.034   6.102 -1.4528 -1.6839  2.0980
  142OSM   H12G15647   5.750   5.943   6.201  0.7293 -1.7632 -1.3576
  142OSM   C13F15648   5.875   6.085   6.092 -0.2836  0.5772  0.2639
  142OSM   H13F15649   5.952   6.071   6.170 -0.3508  3.6298  1.0264
  142OSM   H13G15650   5.879   6.195   6.072 -2.8826  0.5891 -0.6996
  142OSM   C14F15651   5.895   6.005   5.968 -0.4971 -0.3207  0.1713
  142OSM   H14F15652   5.805   6.029   5.908  0.1462  1.2258 -0.2390
  142OSM   H14G15653   5.904   5.896   5.986  2.6727  0.0299  1.4991
  142OSM   C15F15654   6.000   6.061   5.875 -0.3461 -0.1986  0.3150
  142OSM   H15F15655   6.102   6.035   5.910  0.0360  0.4900 -0.2582
  142OSM   H15G15656   6.000   6.171   5.863 -1.9320 -0.4676 -3.7303
  142OSM   C16F15657   5.991   6.003   5.729 -0.0218 -0.3334 -0.0093
  142OSM   H16F15658   5.893   6.014   5.678  2.1696 -0.3725 -4.7863
  142OSM   H16G15659   6.008   5.894   5.733 -0.2037 -0.3959 -0.7521
  142OSM   C17F15660   6.083   6.081   5.635  0.2731  0.4066  0.2168
  142OSM   H17F15661   6.116   6.177   5.681 -3.0858  1.3121  1.0354
  142OSM   H17G15662   6.035   6.099   5.537 -3.0044 -0.2210  1.5691
  142OSM   C18F15663   6.217   6.002   5.620  0.4747  0.4116  0.2818
  142OSM   H18F15664   6.288   6.013   5.704  1.3638 -1.2887 -0.2109
  142OSM   H18G15665   6.275   6.038   5.533 -1.3209 -0.2609 -1.2788
  142OSM   H18H15666   6.197   5.895   5.599 -1.5553  0.9240 -0.6943
  143OSM      N15667   5.737   5.606   7.625 -0.0621  0.5871  0.4994
  143OSM    C1515668   5.729   5.754   7.614  0.2819 -0.0130  0.1255
  143OSM   H15A15669   5.756   5.786   7.515  0.8617  1.1651  0.6369
  143OSM   H15B15670   5.792   5.801   7.689 -0.5594  1.1509  0.1344
  143OSM   H15C15671   5.626   5.779   7.632 -0.0996 -2.3190  1.6329
  143OSM    C1415672   5.740   5.562   7.768  0.3024 -0.5083 -0.1470
  143OSM   H14A15673   5.823   5.609   7.817 -2.7152  2.5518  2.5653
  143OSM   H14B15674   5.733   5.455   7.780 -0.6029 -0.5341 -0.7789
  143OSM   H14C15675   5.659   5.609   7.823  0.0624  0.6470 -1.4338
  143OSM    C1315676   5.617   5.546   7.560  0.6745 -0.4429  0.4881
  143OSM   H13A15677   5.527   5.557   7.618  0.9811 -0.8036  1.0387
  143OSM   H13B15678   5.632   5.440   7.546 -1.9046 -0.6222 -1.9214
  143OSM   H13C15679   5.614   5.583   7.458  1.1314 -0.1334  0.5810
  143OSM    C1215680   5.862   5.553   7.552  0.2355 -0.3193  0.1211
  143OSM   H12A15681   5.947   5.603   7.596 -0.4098  1.3827 -0.4597
  143OSM   H12B15682   5.860   5.603   7.456  1.8588 -0.2100  0.1102
  143OSM    C1115683   5.890   5.406   7.542 -1.2002  0.2204 -0.2152
  143OSM   H11A15684   5.891   5.346   7.636  0.0561 -2.2587 -1.6936
  143OSM   H11B15685   5.994   5.401   7.503 -1.6607 -1.9259 -1.3213
  143OSM      P15686   5.729   5.217   7.473 -0.0847  0.3969  0.1662
  143OSM    O1315687   5.811   5.109   7.538  0.3624  0.3325  0.1640
  143OSM    O1415688   5.606   5.255   7.546 -0.1061 -0.3400  0.2739
  143OSM    O1115689   5.680   5.151   7.341 -0.2288 -0.0585 -0.0713
  143OSM    O1215690   5.809   5.347   7.440  0.3086 -0.7581  0.2165
  143OSM    C1S15691   5.552   5.167   7.285  0.0518 -0.5018 -0.4351
  143OSM    H1S15692   5.510   5.268   7.304 -0.3472 -0.6927 -0.3067
  143OSM    H1T15693   5.477   5.097   7.326  0.3059 -0.8527 -0.5591
  143OSM     NF15694   5.422   5.200   7.070 -0.0314  0.2921  0.2118
  143OSM    HNF15695   5.351   5.132   7.053  0.2182 -0.1085  0.7690
  143OSM    C2S15696   5.552   5.151   7.134  0.5136 -0.3007  0.3458
  143OSM    H2S15697   5.622   5.226   7.094 -1.4757  0.5698 -1.7392
  143OSM    C3S15698   5.586   5.001   7.096 -0.0523  0.1295 -0.4841
  143OSM    H3S15699   5.495   4.938   7.105 -0.6635  1.0146 -0.3377
  143OSM     O315700   5.678   4.934   7.180  0.0331 -0.0621 -0.1331
  143OSM    HO315701   5.691   4.991   7.256  1.6067 -0.3263 -0.1628
  143OSM    C4S15702   5.629   4.989   6.952  0.1696 -0.0117 -0.5245
  143OSM    H4S15703   5.541   4.991   6.885 -0.9889 -1.2733  0.8915
  143OSM    C5S15704   5.756   4.978   6.903 -0.0214  0.1123  0.3528
  143OSM    H5S15705   5.846   4.996   6.964  1.0740 -0.4241 -1.0535
  143OSM    C6S15706   5.797   4.970   6.750  0.7901  0.6471 -0.7763
  143OSM    H6S15707   5.846   4.872   6.733  2.3003  0.8624  1.7743
  143OSM    H6T15708   5.869   5.052   6.731  1.7884 -0.7091 -3.1868
  143OSM    C7S15709   5.678   5.006   6.657  0.0156 -0.5910 -0.3613
  143OSM    H7S15710   5.631   5.104   6.680  0.7698 -0.3480  0.1619
  143OSM    H7T15711   5.604   4.925   6.676  1.2492 -2.8289 -4.0238
  143OSM    C8S15712   5.695   4.996   6.500  0.1558 -0.0764 -0.4160
  143OSM    H8S15713   5.791   5.052   6.494  1.2013 -1.1977  3.1448
  143OSM    H8T15714   5.612   5.051   6.451 -2.4684  0.5244  4.1225
  143OSM    C9S15715   5.703   4.858   6.436 -0.2054 -0.1040  0.1040
  143OSM    H9S15716   5.609   4.802   6.456 -2.3965  2.8980 -1.1065
  143OSM    H9T15717   5.777   4.790   6.483 -0.5191  0.4806  1.4689
  143OSM   C10S15718   5.728   4.864   6.286  0.6278  0.5773  0.4153
  143OSM   H10S15719   5.716   4.760   6.250 -0.6367  0.7133  0.3967
  143OSM   H10T15720   5.835   4.879   6.263 -0.0583  1.0036 -2.9750
  143OSM   C11S15721   5.625   4.958   6.206 -0.4190 -0.4828  0.2712
  143OSM   H11S15722   5.659   5.063   6.214 -3.0528  0.3161  2.4901
  143OSM   H11T15723   5.525   4.937   6.250 -0.6290 -0.0269  0.0135
  143OSM   C12S15724   5.617   4.914   6.061 -0.2187  0.1433  0.1729
  143OSM   H12S15725   5.581   4.809   6.069 -1.3879  0.3281 -2.0298
  143OSM   H12T15726   5.712   4.923   6.006 -0.3358  0.4534  0.0178
  143OSM   C13S15727   5.511   4.991   5.991 -0.0564  0.2669 -1.0007
  143OSM   H13S15728   5.531   5.100   5.995 -3.7333  1.0434 -0.2121
  143OSM   H13T15729   5.412   4.972   6.039  0.6905 -0.2775  0.3934
  143OSM   C14S15730   5.497   4.954   5.841 -0.1947  0.5796 -0.0331
  143OSM   H14S15731   5.499   4.843   5.843 -1.2251  0.5589  0.9840
  143OSM   H14T15732   5.589   4.999   5.800  0.1807  2.1947  2.4406
  143OSM   C15S15733   5.373   5.002   5.767  0.6949  0.3637 -0.6544
  143OSM   H15S15734   5.286   4.963   5.826 -0.9493  1.0627 -2.4959
  143OSM   H15T15735   5.369   4.944   5.672 -2.8895 -0.4091 -0.1888
  143OSM   C16S15736   5.381   5.154   5.740 -0.0407  0.1260 -0.1489
  143OSM   H16S15737   5.479   5.176   5.694  0.5863 -0.0729  1.0531
  143OSM   H16T15738   5.377   5.209   5.836  2.1854 -0.1673  0.1585
  143OSM   C17S15739   5.282   5.200   5.640  0.4587  0.1112  0.5034
  143OSM   H17S15740   5.276   5.132   5.553 -0.7882 -0.1802  0.8042
  143OSM   H17T15741   5.300   5.305   5.610 -1.2633  0.4191  0.4310
  143OSM   C18S15742   5.138   5.204   5.699  0.6887  0.0035  0.2178
  143OSM   H18S15743   5.114   5.097   5.720  0.7978  0.0547  0.6135
  143OSM   H18T15744   5.067   5.245   5.624 -1.3512  0.3779  2.2378
  143OSM   H18U15745   5.125   5.255   5.797  2.1152 -0.7915  0.8541
  143OSM    C1F15746   5.384   5.329   7.069 -0.3978  0.3353  0.2223
  143OSM     OF15747   5.446   5.420   7.118  1.1435 -0.0390 -0.0625
  143OSM    C2F15748   5.247   5.356   7.016 -0.3188 -0.0618 -0.0545
  143OSM    H2F15749   5.179   5.340   7.102  1.2510 -0.9308  1.0764
  143OSM    H2G15750   5.235   5.282   6.934  1.5840 -2.0325  1.3328
  143OSM    C3F15751   5.219   5.501   6.978  0.1482 -0.2136  0.7804
  143OSM    H3F15752   5.298   5.528   6.905  0.1021  2.4428  1.5819
  143OSM    H3G15753   5.240   5.570   7.062  0.8904  0.1995  0.2648
  143OSM    C4F15754   5.076   5.523   6.925  0.0658  0.4537 -0.2406
  143OSM    H4F15755   5.068   5.631   6.900  1.7113  0.1509 -2.4340
  143OSM    H4G15756   5.012   5.486   7.007  2.8411 -1.9322  1.0136
  143OSM    C5F15757   5.056   5.451   6.790  0.2794 -0.1076 -0.1273
  143OSM    H5F15758   4.948   5.442   6.764 -0.4018  3.5360  0.8934
  143OSM    H5G15759   5.104   5.352   6.799  0.8248  0.0636 -1.0627
  143OSM    C6F15760   5.116   5.533   6.671 -0.2805 -0.0684 -0.5454
  143OSM    H6F15761   5.213   5.582   6.694  0.2694  0.8266 -4.2095
  143OSM    H6G15762   5.035   5.607   6.654 -2.6221 -2.1448  0.8851
  143OSM    C7F15763   5.141   5.450   6.549 -0.6641  0.2757 -0.4005
  143OSM    H7F15764   5.048   5.394   6.525  0.6065 -1.9346 -0.4123
  143OSM    H7G15765   5.218   5.372   6.568 -1.3038 -0.9387 -2.4093
  143OSM    C8F15766   5.190   5.526   6.429 -0.4371 -0.8145  0.3137
  143OSM    H8F15767   5.234   5.457   6.355 -0.8881 -0.6640 -0.0964
  143OSM    H8G15768   5.275   5.592   6.457 -1.7293  0.8217  0.5311
  143OSM    C9F15769   5.077   5.607   6.375  0.4960 -0.6994  0.6519
  143OSM    H9F15770   4.998   5.636   6.446 -0.9362  0.2562 -1.2224
  143OSM   C10F15771   5.062   5.648   6.246 -0.2599 -0.6946  0.1278
  143OSM   H10F15772   4.969   5.703   6.228 -0.7140 -1.1014  1.1730
  143OSM   C11F15773   5.156   5.621   6.133 -0.3220 -1.0649 -0.0471
  143OSM   H11F15774   5.239   5.551   6.157  0.6802  0.9252  2.8011
  143OSM   H11G15775   5.200   5.720   6.108  0.0088 -0.6255  2.0842
  143OSM   C12F15776   5.092   5.571   6.004  1.5160 -0.3122 -0.1614
  143OSM   H12F15777   5.034   5.482   6.035 -2.0197  2.5759  2.5272
  143OSM   H12G15778   5.176   5.540   5.938  2.0202  0.4572  0.1062
  143OSM   C13F15779   5.004   5.662   5.921 -0.0813  0.8439 -0.9789
  143OSM   H13F15780   5.060   5.753   5.889  0.0902  0.6525 -1.2257
  143OSM   H13G15781   4.921   5.694   5.987 -1.2547  2.0785 -2.9598
  143OSM   C14F15782   4.952   5.599   5.795 -0.1820 -0.0958 -0.6346
  143OSM   H14F15783   5.038   5.560   5.735  1.5687  0.5466  1.3633
  143OSM   H14G15784   4.888   5.675   5.746  1.2393  0.8731 -1.0264
  143OSM   C15F15785   4.858   5.481   5.828 -0.0553  1.0417 -0.0579
  143OSM   H15F15786   4.875   5.434   5.927  0.7568  0.8293 -0.2981
  143OSM   H15G15787   4.866   5.411   5.742  1.3302  0.6879  0.3385
  143OSM   C16F15788   4.698   5.512   5.840 -0.0194  0.1853 -0.1113
  143OSM   H16F15789   4.649   5.425   5.889  0.3075 -0.1669 -0.3992
  143OSM   H16G15790   4.673   5.506   5.732 -0.4419 -1.7054  0.0609
  143OSM   C17F15791   4.651   5.647   5.891 -0.0884 -0.3653  0.2832
  143OSM   H17F15792   4.702   5.734   5.842  1.2782  0.3049  2.7256
  143OSM   H17G15793   4.676   5.680   5.994  0.4237 -0.1186  0.0870
  143OSM   C18F15794   4.502   5.651   5.863  0.1862 -0.0517 -0.2192
  143OSM   H18F15795   4.466   5.747   5.904 -1.5644  0.6578 -3.1301
  143OSM   H18G15796   4.444   5.574   5.919 -1.1693  1.8392  1.0662
  143OSM   H18H15797   4.489   5.654   5.753  0.1999  3.2823 -0.2147
  144OSM      N15798   4.273   4.226   7.562  0.4435  0.5133 -0.1567
  144OSM    C1515799   4.329   4.301   7.675  0.8490 -0.0201 -0.2638
  144OSM   H15A15800   4.413   4.254   7.724  0.6393  0.9260  1.0743
  144OSM   H15B15801   4.250   4.304   7.749 -1.3307  0.2990 -2.4845
  144OSM   H15C15802   4.356   4.400   7.640  1.7786 -0.2797 -0.3023
  144OSM    C1415803   4.255   4.083   7.598 -0.7164 -0.2365  0.7424
  144OSM   H14A15804   4.175   4.067   7.669  0.0784  1.5764  2.1378
  144OSM   H14B15805   4.349   4.057   7.645 -0.5473  0.5296  0.8474
  144OSM   H14C15806   4.243   4.023   7.510  1.9658  0.6350 -0.3172
  144OSM    C1315807   4.136   4.267   7.524 -0.1416  0.6878  0.3785
  144OSM   H13A15808   4.063   4.255   7.602 -1.1706  0.4170 -0.5996
  144OSM   H13B15809   4.110   4.205   7.439  2.3362 -0.6483  0.4838
  144OSM   H13C15810   4.144   4.372   7.501  0.0194  0.8549  1.1802
  144OSM    C1215811   4.376   4.238   7.453 -0.3837  0.0724 -0.2694
  144OSM   H12A15812   4.387   4.341   7.422  1.7097  1.0832  3.2894
  144OSM   H12B15813   4.331   4.182   7.372 -0.9079  0.0084  0.0571
  144OSM    C1115814   4.527   4.196   7.484 -0.3616 -0.6767  0.4198
  144OSM   H11A15815   4.575   4.182   7.385 -0.3398 -3.8448  0.7631
  144OSM   H11B15816   4.538   4.098   7.536 -0.2311 -1.0798 -0.3645
  144OSM      P15817   4.649   4.440   7.498 -0.1196 -0.0878 -0.0190
  144OSM    O1315818   4.599   4.557   7.579  0.2215 -0.6060 -0.2619
  144OSM    O1415819   4.800   4.436   7.481  0.5999  0.6979  0.4237
  144OSM    O1115820   4.585   4.438   7.352 -0.8586 -0.0667 -0.3249
  144OSM    O1215821   4.600   4.299   7.556  0.1303  0.1510  0.2562
  144OSM    C1S15822   4.573   4.559   7.270 -0.1696  0.2145  0.5134
  144OSM    H1S15823   4.647   4.638   7.294  1.9587 -0.3071 -3.4451
  144OSM    H1T15824   4.470   4.599   7.282 -1.0921 -0.7730 -2.8834
  144OSM     NF15825   4.582   4.652   7.043  0.0377  0.2476 -0.0687
  144OSM    HNF15826   4.496   4.678   6.999 -0.5004 -0.9247  0.2510
  144OSM    C2S15827   4.574   4.527   7.117 -0.6673 -0.9126  0.2857
  144OSM    H2S15828   4.673   4.479   7.104  0.9618  2.3933 -0.8255
  144OSM    C3S15829   4.457   4.428   7.069 -0.2594  0.0995  0.1270
  144OSM    H3S15830   4.357   4.476   7.080  0.1150  1.2320 -1.1800
  144OSM     O315831   4.441   4.318   7.151 -0.0157  0.3338 -0.1968
  144OSM    HO315832   4.498   4.343   7.224  2.4543 -0.7043 -1.6307
  144OSM    C4S15833   4.471   4.391   6.926  0.1407 -1.0593 -0.3287
  144OSM    H4S15834   4.412   4.447   6.852  1.9007 -2.5879 -3.0768
  144OSM    C5S15835   4.534   4.288   6.872 -0.0681 -0.2561 -0.6680
  144OSM    H5S15836   4.592   4.227   6.942 -1.7623  1.5370  2.5259
  144OSM    C6S15837   4.541   4.247   6.727  0.3173 -0.2867 -0.2871
  144OSM    H6S15838   4.487   4.317   6.660  0.9647  0.7833  0.2922
  144OSM    H6T15839   4.501   4.144   6.737  1.2612 -0.7522 -1.1037
  144OSM    C7S15840   4.679   4.223   6.671  0.2467 -0.6537 -0.2713
  144OSM    H7S15841   4.729   4.135   6.717 -0.0158 -0.8173 -0.2933
  144OSM    H7T15842   4.746   4.310   6.688 -1.6203  1.4369 -2.7498
  144OSM    C8S15843   4.671   4.192   6.525  0.0510  0.3619 -0.0557
  144OSM    H8S15844   4.638   4.282   6.469  0.9291  0.3058 -0.6933
  144OSM    H8T15845   4.600   4.107   6.522 -0.2828  0.6043  0.8554
  144OSM    C9S15846   4.803   4.131   6.472 -0.1113 -0.2298  0.7894
  144OSM    H9S15847   4.827   4.042   6.533  0.5214 -0.4910  0.1785
  144OSM    H9T15848   4.890   4.199   6.479 -0.5664  0.6567 -1.2359
  144OSM   C10S15849   4.800   4.080   6.330  0.3727  0.0561  0.7355
  144OSM   H10S15850   4.709   4.018   6.315  0.0351  0.7536 -0.1712
  144OSM   H10T15851   4.886   4.012   6.310  0.1996  0.1900 -0.5563
  144OSM   C11S15852   4.813   4.196   6.231 -0.0183  0.0519 -0.7250
  144OSM   H11S15853   4.902   4.254   6.264 -0.8486  0.4854  0.9016
  144OSM   H11T15854   4.728   4.265   6.251  1.1637  1.1928  0.5338
  144OSM   C12S15855   4.798   4.170   6.083  0.0071 -0.3881  0.7060
  144OSM   H12S15856   4.792   4.267   6.030 -0.3933 -0.9496 -0.3031
  144OSM   H12T15857   4.703   4.118   6.059  0.5386 -1.4207  0.7999
  144OSM   C13S15858   4.909   4.094   6.020 -0.2220 -0.4509  0.3924
  144OSM   H13S15859   4.913   3.997   6.074 -1.7023 -0.1617  1.0765
  144OSM   H13T15860   4.998   4.150   6.055 -0.4747 -0.3112  0.8247
  144OSM   C14S15861   4.917   4.076   5.864  0.2917  0.1364  0.7025
  144OSM   H14S15862   4.913   4.176   5.815  0.5656 -0.6441 -1.0044
  144OSM   H14T15863   4.830   4.021   5.823  1.3697 -0.0135 -1.5632
  144OSM   C15S15864   5.043   4.005   5.823 -0.4885  0.2114  0.9707
  144OSM   H15S15865   5.029   3.905   5.869 -2.2053  0.4625  1.0923
  144OSM   H15T15866   5.134   4.052   5.867 -0.7226  1.2342  0.3980
  144OSM   C16S15867   5.071   4.000   5.669  0.2124  0.3043  0.2630
  144OSM   H16S15868   5.070   4.107   5.640  0.0554  1.0873  2.8617
  144OSM   H16T15869   4.986   3.944   5.623  0.8363  1.0148 -1.8610
  144OSM   C17S15870   5.193   3.910   5.634  0.0384  0.5712 -0.0096
  144OSM   H17S15871   5.169   3.807   5.665 -0.6807  0.8242  0.2902
  144OSM   H17T15872   5.287   3.945   5.682  0.6091  3.0978 -2.6676
  144OSM   C18S15873   5.227   3.907   5.476 -0.0413  0.6560 -0.0838
  144OSM   H18S15874   5.279   3.999   5.442  3.3266 -0.4571  1.6334
  144OSM   H18T15875   5.131   3.895   5.422  0.5450  0.7797 -1.1869
  144OSM   H18U15876   5.300   3.824   5.461  0.2536  0.4968  2.0028
  144OSM    C1F15877   4.684   4.733   7.063 -0.1353 -0.5711  0.0822
  144OSM     OF15878   4.789   4.693   7.097  0.2350 -0.3348 -0.3476
  144OSM    C2F15879   4.657   4.878   7.041  0.2132 -0.2719  0.6171
  144OSM    H2F15880   4.720   4.937   7.111  0.2513  0.5007 -0.0436
  144OSM    H2G15881   4.550   4.906   7.053  0.6861  2.3770 -0.6855
  144OSM    C3F15882   4.711   4.914   6.901 -0.4858  0.0620  0.1068
  144OSM    H3F15883   4.806   4.857   6.890 -0.4583  0.0339  0.4770
  144OSM    H3G15884   4.739   5.022   6.903 -0.5719  0.1354 -1.3620
  144OSM    C4F15885   4.612   4.889   6.789  0.2748  0.1080 -0.2220
  144OSM    H4F15886   4.525   4.958   6.796  0.1836  0.0257 -0.5339
  144OSM    H4G15887   4.583   4.782   6.788 -0.3555  0.2675 -2.3232
  144OSM    C5F15888   4.668   4.913   6.648  0.4678  0.1087 -0.0115
  144OSM    H5F15889   4.593   4.894   6.568  0.1623 -1.3289  0.5910
  144OSM    H5G15890   4.745   4.832   6.642  1.7477  1.2917 -0.1485
  144OSM    C6F15891   4.728   5.054   6.629  0.1625  0.2432  0.5177
  144OSM    H6F15892   4.819   5.059   6.692  0.4423  0.1812  0.1279
  144OSM    H6G15893   4.663   5.130   6.677 -0.0836 -0.4937  1.3703
  144OSM    C7F15894   4.758   5.078   6.482 -0.0841 -0.0572  0.1144
  144OSM    H7F15895   4.664   5.077   6.422 -0.3694  0.9977  0.5360
  144OSM    H7G15896   4.815   4.995   6.433 -1.0722  0.4772 -2.0635
  144OSM    C8F15897   4.823   5.220   6.462 -0.3155  0.4810  0.6356
  144OSM    H8F15898   4.832   5.239   6.352 -0.1145  1.3617  0.7909
  144OSM    H8G15899   4.927   5.218   6.501 -0.0694 -2.4218  0.0366
  144OSM    C9F15900   4.757   5.348   6.520  0.2816 -0.4181 -0.2055
  144OSM    H9F15901   4.742   5.352   6.629  0.9663  1.6872 -0.1426
  144OSM   C10F15902   4.696   5.445   6.446 -0.5648 -0.7168  0.1970
  144OSM   H10F15903   4.637   5.518   6.504 -1.6728 -1.7962  0.4518
  144OSM   C11F15904   4.704   5.465   6.298  0.1900  0.6301 -0.4390
  144OSM   H11F15905   4.801   5.428   6.258 -0.2392 -0.8160 -0.1994
  144OSM   H11G15906   4.698   5.571   6.263  0.9764  1.4394  1.7160
  144OSM   C12F15907   4.583   5.392   6.231 -0.0254 -0.8348  0.2718
  144OSM   H12F15908   4.576   5.281   6.234  2.1513 -1.0517 -1.1435
  144OSM   H12G15909   4.582   5.414   6.123 -0.3884  3.8345  1.0059
  144OSM   C13F15910   4.444   5.456   6.274 -0.3874  0.0458 -0.0873
  144OSM   H13F15911   4.440   5.563   6.246 -0.5486 -0.2660 -1.2789
  144OSM   H13G15912   4.438   5.450   6.385 -1.0101  0.3518 -0.1005
  144OSM   C14F15913   4.331   5.386   6.199 -0.1954 -1.1707  0.1710
  144OSM   H14F15914   4.363   5.281   6.213  2.1883 -0.5595 -0.3150
  144OSM   H14G15915   4.322   5.409   6.091  0.2689 -0.2004  0.3259
  144OSM   C15F15916   4.197   5.415   6.269  0.8575 -0.4756  0.5593
  144OSM   H15F15917   4.177   5.522   6.291 -2.1851 -0.6812 -0.6402
  144OSM   H15G15918   4.194   5.359   6.365  1.3669 -1.5533 -0.0338
  144OSM   C16F15919   4.079   5.365   6.182 -0.1268 -0.0351  0.4928
  144OSM   H16F15920   4.107   5.280   6.116  1.2381  1.1733 -0.5448
  144OSM   H16G15921   4.044   5.447   6.115  0.9504 -0.3735 -0.5099
  144OSM   C17F15922   3.948   5.326   6.265  0.6453 -0.1826 -0.0366
  144OSM   H17F15923   3.863   5.313   6.195 -0.6631  4.2806  0.4300
  144OSM   H17G15924   3.935   5.406   6.341 -0.4337 -0.6028  0.2437
  144OSM   C18F15925   3.955   5.205   6.359  0.3299  0.9101 -0.4304
  144OSM   H18F15926   3.986   5.119   6.297 -2.2118 -1.9435  1.9558
  144OSM   H18G15927   3.856   5.180   6.404  1.7341 -2.3057  1.1688
  144OSM   H18H15928   4.017   5.215   6.451 -1.5173  0.2435  0.9419
  145OSM      N15929   1.183   3.557   7.914 -0.4773  0.0136 -0.2645
  145OSM    C1515930   1.051   3.623   7.894  0.0774  0.1865 -0.4734
  145OSM   H15A15931   1.036   3.645   7.789  0.0944  1.9253 -0.1361
  145OSM   H15B15932   1.046   3.717   7.946 -1.8677 -0.3863  0.4595
  145OSM   H15C15933   0.968   3.559   7.921 -0.9873  2.8736  3.3342
  145OSM    C1415934   1.277   3.627   7.818 -0.2424  0.2743 -0.7645
  145OSM   H14A15935   1.217   3.648   7.730 -0.6260 -1.9756 -1.0878
  145OSM   H14B15936   1.359   3.560   7.798 -0.4281 -0.8680  1.8650
  145OSM   H14C15937   1.321   3.719   7.854 -0.5215  0.4287 -0.8127
  145OSM    C1315938   1.231   3.584   8.057 -0.1471 -0.1309 -0.2514
  145OSM   H13A15939   1.272   3.684   8.062 -1.3898  0.5278 -2.0547
  145OSM   H13B15940   1.308   3.517   8.092  0.9787 -0.2509 -2.7773
  145OSM   H13C15941   1.149   3.570   8.126  0.1896 -0.5823  0.0581
  145OSM    C1215942   1.173   3.416   7.871 -0.4481 -0.0092  0.0685
  145OSM   H12A15943   1.104   3.366   7.937  0.3418 -2.5854 -0.9522
  145OSM   H12B15944   1.266   3.364   7.886 -0.2677  0.0224 -0.8661
  145OSM    C1115945   1.139   3.390   7.725  0.3445 -0.3578 -0.0363
  145OSM   H11A15946   1.162   3.281   7.721 -1.5821 -0.9458  2.6513
  145OSM   H11B15947   1.206   3.442   7.653 -0.1331  0.2216 -0.0690
  145OSM      P15948   0.883   3.336   7.741  0.1094  0.1681 -0.2550
  145OSM    O1315949   0.919   3.256   7.863  0.9585 -0.2585  0.7229
  145OSM    O1415950   0.764   3.425   7.750  0.2573 -0.3846 -0.5263
  145OSM    O1115951   0.851   3.233   7.628 -0.6215 -0.1918  0.3161
  145OSM    O1215952   1.002   3.423   7.695 -0.0345  0.6607  0.5630
  145OSM    C1S15953   0.837   3.294   7.494  0.1091  0.0402  0.3432
  145OSM    H1S15954   0.925   3.361   7.482 -0.0633  0.0852 -0.8008
  145OSM    H1T15955   0.743   3.352   7.486  0.4118  0.5316  0.2740
  145OSM     NF15956   0.826   3.268   7.260 -0.3704  0.3766 -0.3617
  145OSM    HNF15957   0.737   3.268   7.215 -0.8237  2.7748  0.3827
  145OSM    C2S15958   0.840   3.191   7.380  0.2194 -0.4460 -0.2436
  145OSM    H2S15959   0.939   3.141   7.388  1.0714  1.4682  3.2934
  145OSM    C3S15960   0.737   3.075   7.395 -0.8675 -0.0342  0.5731
  145OSM    H3S15961   0.634   3.115   7.383 -0.9368 -0.4445 -0.2435
  145OSM     O315962   0.739   3.005   7.520  0.2375 -0.3794  0.5821
  145OSM    HO315963   0.789   3.067   7.574  0.2672  0.5233 -0.4548
  145OSM    C4S15964   0.756   2.983   7.277  0.2635  0.3600 -0.7424
  145OSM    H4S15965   0.714   3.023   7.184  0.5727  4.2824  0.6031
  145OSM    C5S15966   0.826   2.867   7.279  0.2064  0.1648  0.2749
  145OSM    H5S15967   0.870   2.838   7.375 -2.3691  2.5648  2.3743
  145OSM    C6S15968   0.846   2.784   7.155  0.3358  0.4228 -0.5617
  145OSM    H6S15969   0.783   2.694   7.170  1.4362  0.0338  2.5816
  145OSM    H6T15970   0.953   2.754   7.157  0.5698  1.2626  0.0374
  145OSM    C7S15971   0.807   2.842   7.014  0.0997  0.5416  0.1802
  145OSM    H7S15972   0.698   2.863   7.009 -0.0151 -0.1881 -0.4892
  145OSM    H7T15973   0.825   2.763   6.938 -1.4932 -1.6241  1.9535
  145OSM    C8S15974   0.893   2.961   6.967 -1.0743  0.2801 -0.2184
  145OSM    H8S15975   0.995   2.922   6.946 -1.4668 -0.2289 -1.2429
  145OSM    H8T15976   0.901   3.041   7.044 -1.4883  0.1134  0.0034
  145OSM    C9S15977   0.821   3.022   6.843  1.0431  0.1058  0.0781
  145OSM    H9S15978   0.739   3.077   6.894  0.8268  0.8072 -1.0051
  145OSM    H9T15979   0.776   2.939   6.785  1.1946  2.4968 -3.8455
  145OSM   C10S15980   0.904   3.116   6.745 -0.3517  0.0905 -0.4312
  145OSM   H10S15981   0.844   3.159   6.662  1.1032  0.9219 -1.0899
  145OSM   H10T15982   0.976   3.053   6.687 -1.0897 -1.4761  0.2935
  145OSM   C11S15983   0.968   3.240   6.805  0.0547 -0.2401 -0.0168
  145OSM   H11S15984   1.005   3.210   6.906  0.9432  0.0832 -0.2366
  145OSM   H11T15985   0.889   3.317   6.817 -0.2428 -0.1165 -2.3932
  145OSM   C12S15986   1.074   3.303   6.714  0.6535 -0.5733  0.3376
  145OSM   H12S15987   1.143   3.221   6.686 -2.1466 -3.1070  0.2752
  145OSM   H12T15988   1.119   3.393   6.759  2.0727 -1.2870  0.3832
  145OSM   C13S15989   1.005   3.369   6.592  0.2863  0.2380  0.0660
  145OSM   H13S15990   0.912   3.425   6.617 -1.5406 -1.9679 -1.3611
  145OSM   H13T15991   0.972   3.285   6.527 -0.2886  1.6205 -1.4760
  145OSM   C14S15992   1.114   3.449   6.517 -0.1889  0.3743  0.1302
  145OSM   H14S15993   1.192   3.373   6.498  1.0739  1.6457  0.0782
  145OSM   H14T15994   1.145   3.533   6.582 -0.1727  1.7844 -1.6241
  145OSM   C15S15995   1.071   3.504   6.379  0.1994  0.3864 -0.8179
  145OSM   H15S15996   0.978   3.566   6.384 -0.2635 -0.3017 -0.7481
  145OSM   H15T15997   1.041   3.420   6.312 -2.8882 -0.1687  1.0314
  145OSM   C16S15998   1.182   3.596   6.311  0.6019  0.3585 -0.1703
  145OSM   H16S15999   1.177   3.692   6.368 -3.8337 -0.6709  1.5775
  145OSM   H16T16000   1.153   3.612   6.205  1.2315 -0.1349 -0.4243
  145OSM   C17S16001   1.332   3.546   6.318 -0.1250 -0.1497 -0.0464
  145OSM   H17S16002   1.335   3.450   6.262 -0.4732 -0.6170  0.7307
  145OSM   H17T16003   1.360   3.541   6.425  0.3026  1.3211 -0.0625
  145OSM   C18S16004   1.435   3.646   6.260  0.4881  0.3394 -0.1112
  145OSM   H18S16005   1.537   3.603   6.271  2.0600  3.5370 -0.8160
  145OSM   H18T16006   1.417   3.743   6.311 -3.5237  0.2440 -1.0378
  145OSM   H18U16007   1.414   3.664   6.152  2.4168  0.7454 -0.4639
  145OSM    C1F16008   0.915   3.359   7.208  0.1946 -0.0649 -0.2619
  145OSM     OF16009   1.038   3.355   7.240 -0.2693 -0.0296  0.6965
  145OSM    C2F16010   0.860   3.461   7.111  0.2512  0.0463 -0.1343
  145OSM    H2F16011   0.812   3.537   7.176  2.1835 -0.6215  2.2099
  145OSM    H2G16012   0.790   3.405   7.044  1.5919 -1.5155 -0.3010
  145OSM    C3F16013   0.967   3.536   7.025  0.3437  0.2629  0.0670
  145OSM    H3F16014   1.051   3.468   7.002  0.1501  0.2215 -0.5467
  145OSM    H3G16015   1.001   3.615   7.095  1.0419  0.3539 -0.3739
  145OSM    C4F16016   0.918   3.609   6.904 -0.5607 -0.1278 -0.2959
  145OSM    H4F16017   0.824   3.662   6.931 -1.7984 -2.5765  0.4506
  145OSM    H4G16018   0.892   3.533   6.827 -1.8046 -1.0185  0.9717
  145OSM    C5F16019   1.021   3.711   6.852  0.1838 -0.3208  0.0999
  145OSM    H5F16020   1.120   3.661   6.842 -0.8279 -2.1393 -1.2957
  145OSM    H5G16021   1.022   3.792   6.929 -1.3996 -0.1014 -0.0855
  145OSM    C6F16022   0.978   3.762   6.714  0.2318  0.3689 -0.1816
  145OSM    H6F16023   0.874   3.800   6.731 -0.3544 -0.6079 -1.4012
  145OSM    H6G16024   0.968   3.676   6.645  0.4241 -1.6899  2.1866
  145OSM    C7F16025   1.078   3.861   6.660 -0.0327  0.0526  0.4556
  145OSM    H7F16026   1.182   3.829   6.686  0.6496  2.6863  1.2190
  145OSM    H7G16027   1.060   3.951   6.722 -0.5826 -0.6377  1.3202
  145OSM    C8F16028   1.062   3.908   6.516 -0.4619 -0.0932 -0.5581
  145OSM    H8F16029   1.026   3.815   6.466 -0.9667 -0.6676  0.8054
  145OSM    H8G16030   1.162   3.920   6.470  1.3822 -1.3815  2.7505
  145OSM    C9F16031   0.967   4.022   6.480  0.4348 -0.2316  0.5206
  145OSM    H9F16032   1.005   4.117   6.523 -1.2364 -0.3501  2.3777
  145OSM   C10F16033   0.851   4.032   6.418  0.1931  0.3723 -0.0891
  145OSM   H10F16034   0.811   4.134   6.404 -2.8092 -0.3453  2.3115
  145OSM   C11F16035   0.777   3.914   6.369  0.3508 -0.3080  0.3324
  145OSM   H11F16036   0.667   3.921   6.380  0.4738 -0.2604  1.7743
  145OSM   H11G16037   0.813   3.824   6.423  0.3605 -0.0711  0.7244
  145OSM   C12F16038   0.798   3.875   6.222 -0.0867  0.2600  0.0390
  145OSM   H12F16039   0.738   3.785   6.196  0.1649  0.0627  0.1393
  145OSM   H12G16040   0.909   3.869   6.216  0.1762  2.6404  1.3466
  145OSM   C13F16041   0.771   3.992   6.119 -0.0714  0.4112  0.0262
  145OSM   H13F16042   0.774   3.953   6.015 -1.7488 -0.3484  0.2363
  145OSM   H13G16043   0.847   4.074   6.123  1.6780 -1.0589 -1.1947
  145OSM   C14F16044   0.630   4.065   6.135 -1.0019  0.3317 -0.9090
  145OSM   H14F16045   0.645   4.118   6.232  1.6305 -0.5444 -0.7679
  145OSM   H14G16046   0.550   3.988   6.147 -1.7859  1.3822  1.1730
  145OSM   C15F16047   0.581   4.162   6.028  0.2299 -0.2411  0.0020
  145OSM   H15F16048   0.652   4.245   6.009  0.1736 -0.4821 -1.3331
  145OSM   H15G16049   0.486   4.205   6.066  1.1419  1.7370  0.1710
  145OSM   C16F16050   0.546   4.081   5.899 -0.7063 -0.3138  0.2004
  145OSM   H16F16051   0.485   3.993   5.927 -1.2409 -0.0755 -0.1921
  145OSM   H16G16052   0.638   4.044   5.849 -1.2952  0.1702 -1.3213
  145OSM   C17F16053   0.466   4.179   5.801  0.0458 -0.4363  0.2443
  145OSM   H17F16054   0.539   4.262   5.785  0.8385 -1.0767  0.4465
  145OSM   H17G16055   0.381   4.216   5.863  0.3619 -0.0818  0.4733
  145OSM   C18F16056   0.411   4.104   5.673 -0.2185 -0.5078  0.3692
  145OSM   H18F16057   0.358   4.168   5.599 -0.5738 -0.3530  0.7523
  145OSM   H18G16058   0.349   4.020   5.709 -1.2652 -0.0245 -0.2472
  145OSM   H18H16059   0.495   4.057   5.617  0.1147 -0.3038  0.6874
  146OSM      N16060   2.434   6.654   7.669  0.5622 -0.4100  0.3663
  146OSM    C1516061   2.578   6.617   7.679  0.2695 -0.0664 -0.2013
  146OSM   H15A16062   2.636   6.688   7.622  0.3010  0.5820  0.6233
  146OSM   H15B16063   2.593   6.517   7.640 -1.0760 -1.3989  2.4540
  146OSM   H15C16064   2.612   6.621   7.781  1.5779  1.6126 -0.6717
  146OSM    C1416065   2.353   6.567   7.759 -0.3173  0.6041  0.3487
  146OSM   H14A16066   2.390   6.579   7.860  0.6650 -0.6331  0.1536
  146OSM   H14B16067   2.363   6.465   7.726  0.7264  1.1031 -0.9773
  146OSM   H14C16068   2.249   6.591   7.748 -1.0205 -2.0629  0.4631
  146OSM    C1316069   2.420   6.799   7.710  0.0757 -0.6352  0.1168
  146OSM   H13A16070   2.444   6.816   7.814  1.4794  0.4735 -0.3494
  146OSM   H13B16071   2.318   6.834   7.699 -0.6280 -2.8118 -0.7419
  146OSM   H13C16072   2.491   6.854   7.649 -1.2727  0.6955 -0.3130
  146OSM    C1216073   2.392   6.633   7.522 -0.6557  0.1715 -0.9867
  146OSM   H12A16074   2.419   6.532   7.498  1.3039 -0.6327  3.5327
  146OSM   H12B16075   2.443   6.707   7.461 -0.8890  2.4050  1.3338
  146OSM    C1116076   2.249   6.659   7.489  1.2451 -0.0992 -0.2958
  146OSM   H11A16077   2.169   6.591   7.526 -1.2412  1.7921 -1.8537
  146OSM   H11B16078   2.238   6.631   7.383 -1.2901  0.1273 -0.1468
  146OSM      P16079   2.196   6.905   7.417  0.0169  0.3117  0.5016
  146OSM    O1316080   2.110   6.861   7.308  0.4281  0.3405 -0.9407
  146OSM    O1416081   2.158   7.029   7.483 -0.2518 -0.0427 -0.7381
  146OSM    O1116082   2.341   6.905   7.364 -0.5869 -0.1221  0.2159
  146OSM    O1216083   2.205   6.790   7.518  0.6080 -0.0526  0.4810
  146OSM    C1S16084   2.367   6.870   7.225  0.7104  0.3406  0.1414
  146OSM    H1S16085   2.300   6.916   7.149 -0.1585 -0.0042  0.6875
  146OSM    H1T16086   2.357   6.760   7.218 -2.5335  0.6150 -1.3563
  146OSM     NF16087   2.531   6.866   7.045  1.1612  0.8650 -0.7844
  146OSM    HNF16088   2.580   6.783   7.019  1.6360  1.3158 -1.3745
  146OSM    C2S16089   2.515   6.894   7.193  0.8555  0.1686  0.1687
  146OSM    H2S16090   2.539   7.001   7.210  2.8040  0.1160 -1.8078
  146OSM    C3S16091   2.616   6.809   7.289  0.1813 -0.0702  0.1450
  146OSM    H3S16092   2.570   6.708   7.277 -0.0007  0.2399 -2.4793
  146OSM     O316093   2.606   6.839   7.426  0.3760  0.0866 -0.2600
  146OSM    HO316094   2.535   6.904   7.421  1.7282  1.6072 -0.3797
  146OSM    C4S16095   2.761   6.822   7.253 -0.3792  0.0966 -0.2580
  146OSM    H4S16096   2.788   6.927   7.235  1.6922 -0.5291 -1.0882
  146OSM    C5S16097   2.844   6.719   7.222  0.3523  0.8488 -0.4818
  146OSM    H5S16098   2.809   6.615   7.226  1.5870  0.4465  0.1969
  146OSM    C6S16099   2.979   6.732   7.172  0.2174 -0.5608 -0.4094
  146OSM    H6S16100   3.012   6.627   7.162 -0.0518 -0.6095 -0.8356
  146OSM    H6T16101   3.041   6.784   7.248 -0.7605 -0.2131  0.1655
  146OSM    C7S16102   2.985   6.789   7.024 -0.3643 -0.2469 -1.5446
  146OSM    H7S16103   3.091   6.777   6.995  0.1645  0.3446  0.0261
  146OSM    H7T16104   2.958   6.896   7.024 -1.4338 -0.4299  1.1875
  146OSM    C8S16105   2.897   6.708   6.932  0.2744 -0.5621  0.4280
  146OSM    H8S16106   2.791   6.713   6.966  0.3295  1.8796  0.4728
  146OSM    H8T16107   2.939   6.606   6.935  1.8121  0.0609  1.1360
  146OSM    C9S16108   2.898   6.768   6.785 -0.2277  0.5781 -0.4097
  146OSM    H9S16109   3.005   6.782   6.756 -0.0585  0.5194  0.1625
  146OSM    H9T16110   2.853   6.870   6.788  2.5093  1.8860  1.8910
  146OSM   C10S16111   2.832   6.663   6.692  0.2558 -0.3755 -0.0689
  146OSM   H10S16112   2.731   6.629   6.723  0.0486 -0.4636 -0.8058
  146OSM   H10T16113   2.885   6.566   6.682 -1.3874 -1.3081 -0.1089
  146OSM   C11S16114   2.817   6.713   6.547  0.2790 -0.3000 -0.2093
  146OSM   H11S16115   2.918   6.722   6.500 -0.4931  0.8928 -1.7315
  146OSM   H11T16116   2.771   6.813   6.533 -0.9860 -1.1555 -2.8000
  146OSM   C12S16117   2.738   6.623   6.451 -0.1868 -0.1985  0.6902
  146OSM   H12S16118   2.646   6.586   6.502 -0.0494 -0.1175  0.9943
  146OSM   H12T16119   2.800   6.540   6.410  3.1252  2.7917 -0.8720
  146OSM   C13S16120   2.688   6.700   6.328  0.1189  0.9896  0.2235
  146OSM   H13S16121   2.776   6.748   6.279  0.4028 -0.4115 -0.7103
  146OSM   H13T16122   2.615   6.769   6.376  0.5650  0.2712  2.0083
  146OSM   C14S16123   2.627   6.611   6.225  0.8701  0.8347 -0.1710
  146OSM   H14S16124   2.534   6.570   6.270  2.9248 -1.2823  2.4760
  146OSM   H14T16125   2.693   6.525   6.199 -0.8793 -1.1548  1.6094
  146OSM   C15S16126   2.585   6.678   6.098 -0.4041  0.4831 -0.3051
  146OSM   H15S16127   2.681   6.714   6.055  0.8125 -2.7192 -0.5410
  146OSM   H15T16128   2.512   6.760   6.117 -1.2499 -0.5721  1.1842
  146OSM   C16S16129   2.536   6.575   5.990  0.1517  0.3710  0.4290
  146OSM   H16S16130   2.464   6.514   6.049  2.2951 -0.5604  2.2344
  146OSM   H16T16131   2.618   6.504   5.965 -0.2741 -0.3845  1.1045
  146OSM   C17S16132   2.478   6.627   5.867  0.2367 -0.7453 -0.0833
  146OSM   H17S16133   2.372   6.656   5.887  0.3699 -0.5642  0.3728
  146OSM   H17T16134   2.475   6.548   5.789  0.4222 -1.6371  0.7969
  146OSM   C18S16135   2.528   6.765   5.813 -0.7352  0.1660  0.8232
  146OSM   H18S16136   2.495   6.781   5.708  0.8273  1.4232  0.4929
  146OSM   H18T16137   2.638   6.753   5.809 -0.9074 -1.3113 -0.2083
  146OSM   H18U16138   2.507   6.856   5.874 -1.0989  0.4445  0.2910
  146OSM    C1F16139   2.471   6.939   6.943  0.6822  0.5053 -0.5839
  146OSM     OF16140   2.408   7.036   6.964  0.6986  0.2789  0.2171
  146OSM    C2F16141   2.487   6.878   6.809  0.9746 -0.5306 -0.2061
  146OSM    H2F16142   2.419   6.793   6.788 -0.0299  0.6610 -2.1389
  146OSM    H2G16143   2.593   6.847   6.798  1.8748  2.3194 -0.3104
  146OSM    C3F16144   2.439   6.982   6.704  0.2017  0.0954 -0.3227
  146OSM    H3F16145   2.504   7.072   6.702  0.3614 -0.0215 -0.4944
  146OSM    H3G16146   2.339   7.025   6.724 -0.6711 -1.5696 -0.9298
  146OSM    C4F16147   2.457   6.921   6.563 -0.3109  0.0711  0.6902
  146OSM    H4F16148   2.406   6.824   6.547  1.9322 -0.9036 -1.0919
  146OSM    H4G16149   2.562   6.912   6.526  0.2450  2.0511  1.6112
  146OSM    C5F16150   2.405   7.024   6.459 -0.3579 -0.2267  0.1379
  146OSM    H5F16151   2.449   7.125   6.469  1.3991 -1.0733  1.3704
  146OSM    H5G16152   2.294   7.022   6.468 -0.2221 -1.8617  2.0241
  146OSM    C6F16153   2.448   6.989   6.313  0.3882  0.6278  0.1764
  146OSM    H6F16154   2.389   6.897   6.292 -0.6250  1.0999  0.8684
  146OSM    H6G16155   2.555   6.960   6.311 -0.1129 -1.3512 -1.1779
  146OSM    C7F16156   2.412   7.110   6.226  0.2264 -0.2463  1.2296
  146OSM    H7F16157   2.463   7.204   6.255  0.2915  0.5222 -1.2351
  146OSM    H7G16158   2.304   7.132   6.241  0.9388  2.2724  3.4876
  146OSM    C8F16159   2.442   7.095   6.072  0.2666 -0.0180  0.1333
  146OSM    H8F16160   2.394   7.186   6.032  0.3845 -1.0541 -2.5355
  146OSM    H8G16161   2.377   7.011   6.038  0.4243 -0.7482  1.5072
  146OSM    C9F16162   2.588   7.080   6.031 -0.0620 -0.1211 -0.7419
  146OSM    H9F16163   2.643   7.028   6.111 -2.5371  0.0914  1.2475
  146OSM   C10F16164   2.656   7.139   5.932  0.7912 -0.7347  0.4144
  146OSM   H10F16165   2.762   7.113   5.924  1.2838  1.1177  0.6711
  146OSM   C11F16166   2.586   7.216   5.817  0.5659 -0.4838  0.1734
  146OSM   H11F16167   2.656   7.291   5.774 -1.4055  1.9523  0.9538
  146OSM   H11G16168   2.500   7.273   5.856  1.5075 -0.0731  1.7641
  146OSM   C12F16169   2.548   7.124   5.704  0.2322 -0.0118  0.1012
  146OSM   H12F16170   2.480   7.049   5.750 -0.5400  0.6046 -0.0036
  146OSM   H12G16171   2.628   7.061   5.660  0.5661  0.8664 -0.5913
  146OSM   C13F16172   2.469   7.194   5.591 -0.4727 -0.3232  0.5969
  146OSM   H13F16173   2.545   7.243   5.527 -1.5967 -0.7069 -1.1287
  146OSM   H13G16174   2.404   7.273   5.635  1.2469  1.1824  0.5212
  146OSM   C14F16175   2.380   7.103   5.505  0.7052 -0.6141 -0.2001
  146OSM   H14F16176   2.449   7.042   5.444  0.3481 -2.4685  1.1946
  146OSM   H14G16177   2.319   7.026   5.557 -0.5841  0.4096 -0.1189
  146OSM   C15F16178   2.279   7.173   5.404 -0.4255  0.1034 -0.3036
  146OSM   H15F16179   2.323   7.220   5.313 -0.2266 -1.1820 -0.8910
  146OSM   H15G16180   2.227   7.254   5.460  0.0654  0.1952  0.0239
  146OSM   C16F16181   2.171   7.083   5.349 -0.4467  0.2570 -0.4564
  146OSM   H16F16182   2.148   7.007   5.428 -3.4046  1.2015 -0.2615
  146OSM   H16G16183   2.204   7.027   5.259 -1.8278 -0.3687 -0.6124
  146OSM   C17F16184   2.039   7.150   5.316  0.0517 -0.0196  1.0771
  146OSM   H17F16185   2.022   7.234   5.387  0.6988 -0.7316  2.1108
  146OSM   H17G16186   1.951   7.083   5.313 -1.5974  2.0075  1.9787
  146OSM   C18F16187   2.051   7.205   5.168 -0.1803 -0.5265 -0.2626
  146OSM   H18F16188   1.953   7.226   5.119 -0.3391  0.3283  0.3954
  146OSM   H18G16189   2.104   7.139   5.096  3.6145  0.9687  0.9354
  146OSM   H18H16190   2.114   7.295   5.177 -1.0907  0.1891 -0.8449
  147OSM      N16191   0.356   1.210   2.841  0.2591  0.3238 -0.3485
  147OSM    C1516192   0.386   1.107   2.735 -0.1137  0.5300  0.4861
  147OSM   H15A16193   0.430   1.145   2.644 -2.1620 -1.6715 -1.5860
  147OSM   H15B16194   0.295   1.057   2.704 -0.8637  1.2353  1.4654
  147OSM   H15C16195   0.445   1.027   2.779 -3.2803 -0.5881  3.1162
  147OSM    C1416196   0.488   1.261   2.882 -0.1139 -1.1356  0.4139
  147OSM   H14A16197   0.494   1.346   2.949  0.8793 -3.0028  2.8445
  147OSM   H14B16198   0.540   1.285   2.790 -1.3344 -0.8366 -0.2144
  147OSM   H14C16199   0.539   1.189   2.944  0.3736  0.0665  1.4728
  147OSM    C1316200   0.275   1.319   2.776  0.6754 -0.1074 -0.1194
  147OSM   H13A16201   0.190   1.280   2.722 -0.5503  1.3227  0.6934
  147OSM   H13B16202   0.338   1.371   2.705 -1.5544  0.5807 -1.7164
  147OSM   H13C16203   0.238   1.398   2.840  0.0052  0.9072 -1.6921
  147OSM    C1216204   0.283   1.134   2.951  0.0237 -0.4066  0.1293
  147OSM   H12A16205   0.268   1.193   3.040  0.2835 -2.0692  1.3368
  147OSM   H12B16206   0.358   1.063   2.982  0.8432 -0.0572 -1.0270
  147OSM    C1116207   0.153   1.050   2.919 -0.2322 -0.6945  0.1600
  147OSM   H11A16208   0.086   1.111   2.855  0.5792  1.4402  1.2445
  147OSM   H11B16209   0.112   1.042   3.021  0.3247 -1.5964  0.3273
  147OSM      P16210   0.188   0.791   2.930  0.3193 -0.2228  0.1427
  147OSM    O1316211   0.061   0.773   2.998  0.4942  0.2300 -0.0149
  147OSM    O1416212   0.243   0.690   2.836  0.2043 -0.3398  0.1695
  147OSM    O1116213   0.296   0.832   3.044  0.7141 -0.0597 -0.6359
  147OSM    O1216214   0.178   0.926   2.854 -0.4172  0.2042  0.3797
  147OSM    C1S16215   0.264   0.843   3.177  0.8047  0.3604 -0.7406
  147OSM    H1S16216   0.222   0.747   3.212 -0.0407  0.4917 -1.3340
  147OSM    H1T16217   0.182   0.918   3.192  1.1393  0.8127 -1.1432
  147OSM     NF16218   0.346   0.895   3.403 -0.9761  0.3296 -0.0339
  147OSM    HNF16219   0.313   0.987   3.425 -0.1669  0.4011  0.9459
  147OSM    C2S16220   0.388   0.878   3.264 -0.3402  0.0181 -0.3758
  147OSM    H2S16221   0.456   0.790   3.260 -1.0244 -0.4597 -2.3488
  147OSM    C3S16222   0.473   0.999   3.205 -0.6403  0.7002 -0.2159
  147OSM    H3S16223   0.412   1.092   3.194 -1.4658  0.0747 -1.1111
  147OSM     O316224   0.523   0.973   3.073 -0.6086  0.0661 -0.3151
  147OSM    HO316225   0.481   0.888   3.060  0.0928 -0.7296  2.0077
  147OSM    C4S16226   0.587   1.044   3.296 -0.4308  0.0733 -0.8236
  147OSM    H4S16227   0.662   0.965   3.309 -1.4590 -0.8808 -0.4689
  147OSM    C5S16228   0.599   1.156   3.377 -0.2470  0.1229  0.6593
  147OSM    H5S16229   0.515   1.227   3.385  0.4056  0.6922  3.9531
  147OSM    C6S16230   0.719   1.185   3.460  0.1507  0.2189 -0.3092
  147OSM    H6S16231   0.717   1.289   3.501  1.1608  0.6924 -1.3796
  147OSM    H6T16232   0.810   1.198   3.398  1.0210 -1.8685  0.4619
  147OSM    C7S16233   0.752   1.076   3.566  0.2644 -0.0535  0.3720
  147OSM    H7S16234   0.857   1.093   3.600  0.2489 -1.4538  1.2157
  147OSM    H7T16235   0.760   0.977   3.515  1.7843 -0.7689  1.8728
  147OSM    C8S16236   0.663   1.095   3.681 -0.5771 -0.4741  0.8863
  147OSM    H8S16237   0.577   1.032   3.650  1.5329 -1.7660 -2.9905
  147OSM    H8T16238   0.605   1.189   3.695  0.7292  0.3759  0.6707
  147OSM    C9S16239   0.721   1.040   3.810  0.0967 -0.0945  0.2102
  147OSM    H9S16240   0.796   1.114   3.847 -0.4116 -0.1345  1.3715
  147OSM    H9T16241   0.771   0.944   3.786  0.8854  0.5118 -0.6269
  147OSM   C10S16242   0.616   1.012   3.919 -0.4694 -0.6742 -0.6384
  147OSM   H10S16243   0.528   0.953   3.884  0.2642 -1.7229 -0.7350
  147OSM   H10T16244   0.585   1.110   3.962 -0.4507 -0.0076 -2.0536
  147OSM   C11S16245   0.678   0.927   4.030  0.2164  0.0759 -0.8403
  147OSM   H11S16246   0.732   0.993   4.102  0.5733 -0.0586 -0.9788
  147OSM   H11T16247   0.745   0.851   3.983 -2.8440 -2.8642 -0.7976
  147OSM   C12S16248   0.573   0.867   4.122  0.2396 -0.1965 -0.1885
  147OSM   H12S16249   0.500   0.803   4.069  0.4539  0.0390 -0.7743
  147OSM   H12T16250   0.520   0.961   4.150  3.0254  2.7562 -3.6653
  147OSM   C13S16251   0.637   0.786   4.238 -0.5318 -0.1634 -0.6198
  147OSM   H13S16252   0.679   0.863   4.305 -0.3757 -0.0760 -0.8162
  147OSM   H13T16253   0.727   0.729   4.206 -1.4049 -2.5338  0.8431
  147OSM   C14S16254   0.552   0.690   4.320 -0.1462  0.7614 -0.0818
  147OSM   H14S16255   0.533   0.611   4.244  1.3046  0.7552 -0.4740
  147OSM   H14T16256   0.458   0.742   4.345 -0.6466  0.4290 -1.2148
  147OSM   C15S16257   0.631   0.623   4.430 -0.4088  0.2034  0.5779
  147OSM   H15S16258   0.681   0.704   4.487  1.6441  0.7905 -1.8543
  147OSM   H15T16259   0.716   0.565   4.389 -0.7773 -1.6065  2.2554
  147OSM   C16S16260   0.553   0.523   4.513  0.1357 -0.2386 -0.2037
  147OSM   H16S16261   0.500   0.447   4.453 -0.8127 -2.0335  2.7108
  147OSM   H16T16262   0.481   0.583   4.573 -0.6717 -0.4065 -0.9860
  147OSM   C17S16263   0.641   0.445   4.610 -0.5650 -0.5997 -0.5998
  147OSM   H17S16264   0.658   0.504   4.703 -1.0316 -0.5791 -0.5235
  147OSM   H17T16265   0.739   0.437   4.558  0.2164  4.0079 -0.2189
  147OSM   C18S16266   0.588   0.303   4.647 -1.0468  0.1996  0.1799
  147OSM   H18S16267   0.664   0.245   4.705  0.9639  1.4186 -1.1224
  147OSM   H18T16268   0.577   0.251   4.550 -0.8040  1.6838 -0.6843
  147OSM   H18U16269   0.488   0.297   4.694  0.3041  0.8005  3.4472
  147OSM    C1F16270   0.302   0.794   3.476  0.0099 -0.3108  0.0360
  147OSM     OF16271   0.302   0.676   3.442  1.5588 -0.2534  0.0079
  147OSM    C2F16272   0.248   0.832   3.613  0.2054  0.0985 -0.3116
  147OSM    H2F16273   0.210   0.936   3.609  2.8137  1.0947 -0.9595
  147OSM    H2G16274   0.334   0.844   3.681  1.8817 -1.6720 -1.9659
  147OSM    C3F16275   0.131   0.742   3.663  0.4897 -0.4212 -0.3656
  147OSM    H3F16276   0.172   0.642   3.689  1.7928  0.2084  0.1122
  147OSM    H3G16277   0.049   0.744   3.589  0.1681  0.8710  0.0057
  147OSM    C4F16278   0.070   0.790   3.804  0.1599 -0.6056  0.6581
  147OSM    H4F16279  -0.004   0.711   3.829  0.3869 -2.1762 -2.9834
  147OSM    H4G16280   0.005   0.880   3.805 -2.7224 -2.5189 -0.0975
  147OSM    C5F16281   0.170   0.807   3.921  0.7168  0.1586 -0.4447
  147OSM    H5F16282   0.243   0.887   3.895 -0.9418  0.8998 -3.1449
  147OSM    H5G16283   0.223   0.710   3.923  0.2043 -0.1199 -0.2093
  147OSM    C6F16284   0.111   0.833   4.065 -0.4014 -0.3547  0.3570
  147OSM    H6F16285   0.043   0.749   4.091  0.5525 -1.1461  0.3869
  147OSM    H6G16286   0.063   0.932   4.068  0.0738 -0.1225  0.4499
  147OSM    C7F16287   0.227   0.847   4.175 -0.1107 -0.2266  0.4989
  147OSM    H7F16288   0.309   0.903   4.127 -0.7115  0.4919  0.2877
  147OSM    H7G16289   0.265   0.745   4.199 -0.0760 -0.2704  0.2520
  147OSM    C8F16290   0.185   0.932   4.294  0.5877 -0.2861  0.1058
  147OSM    H8F16291   0.123   1.022   4.273  1.9995  0.8431  0.6009
  147OSM    H8G16292   0.277   0.979   4.335 -0.0731  1.4911 -0.3602
  147OSM    C9F16293   0.114   0.846   4.395  0.0974  1.0868  0.2067
  147OSM    H9F16294   0.051   0.762   4.361  0.6675  0.6272  0.2794
  147OSM   C10F16295   0.155   0.823   4.522  0.5548 -0.5535  0.8925
  147OSM   H10F16296   0.110   0.742   4.581 -0.4840 -2.7908 -2.6795
  147OSM   C11F16297   0.268   0.902   4.591  0.2393 -0.2313  0.0050
  147OSM   H11F16298   0.283   0.998   4.537  1.0807  0.0690  0.7403
  147OSM   H11G16299   0.368   0.855   4.596  1.1415  0.9735 -3.4484
  147OSM   C12F16300   0.234   0.939   4.740 -0.0576  0.3290  0.3085
  147OSM   H12F16301   0.142   1.001   4.750 -0.9223 -0.4717 -2.0367
  147OSM   H12G16302   0.327   0.992   4.769 -0.8332  1.5607  0.6501
  147OSM   C13F16303   0.217   0.820   4.831  0.7448  0.9511 -0.6842
  147OSM   H13F16304   0.123   0.764   4.812  0.9884  0.2552  0.0779
  147OSM   H13G16305   0.205   0.858   4.935 -1.6533 -1.0237 -0.1393
  147OSM   C14F16306   0.335   0.722   4.821 -0.3952  0.1724  0.5213
  147OSM   H14F16307   0.429   0.779   4.833 -0.2741 -0.2118  1.4701
  147OSM   H14G16308   0.338   0.673   4.721 -0.7732  2.0022 -0.4449
  147OSM   C15F16309   0.332   0.628   4.944 -0.5794  0.1267  0.0965
  147OSM   H15F16310   0.229   0.585   4.947 -1.2526  1.4488 -2.1732
  147OSM   H15G16311   0.355   0.692   5.032  0.8855  0.0767 -0.2356
  147OSM   C16F16312   0.445   0.520   4.947  1.1231  0.1572 -0.0705
  147OSM   H16F16313   0.549   0.559   4.943  1.2069 -0.0959 -0.4316
  147OSM   H16G16314   0.442   0.459   4.854 -0.0999 -0.9625  0.6612
  147OSM   C17F16315   0.433   0.420   5.056 -0.1214 -0.1561  0.7371
  147OSM   H17F16316   0.330   0.378   5.062 -0.5371  0.8096  0.4881
  147OSM   H17G16317   0.449   0.466   5.156 -1.3531  0.2919  0.7376
  147OSM   C18F16318   0.540   0.310   5.035  0.2322  0.5808 -0.2862
  147OSM   H18F16319   0.637   0.364   5.030 -0.1673  1.2694 -0.9513
  147OSM   H18G16320   0.514   0.248   4.947 -3.6786  1.0957  0.2904
  147OSM   H18H16321   0.526   0.238   5.118 -1.3398  0.2602 -0.7912
  148OSM      N16322   3.472   1.427   2.924 -0.0432  0.0077  0.1617
  148OSM    C1516323   3.433   1.465   2.784  0.4412  0.0763 -0.1871
  148OSM   H15A16324   3.348   1.531   2.781 -0.4425 -0.9568  0.9078
  148OSM   H15B16325   3.414   1.381   2.718 -1.7793  0.7105 -0.4381
  148OSM   H15C16326   3.514   1.518   2.736  0.6549  0.2459  0.3572
  148OSM    C1416327   3.569   1.311   2.924 -0.2487 -0.0478  0.0335
  148OSM   H14A16328   3.655   1.345   2.869 -1.4461  1.5756 -0.9319
  148OSM   H14B16329   3.527   1.228   2.868  2.1608 -0.3047 -1.5541
  148OSM   H14C16330   3.597   1.274   3.021 -0.6636  1.2035  0.6407
  148OSM    C1316331   3.549   1.534   2.985  0.0497 -0.2727  0.5264
  148OSM   H13A16332   3.601   1.499   3.073 -0.0585 -0.6489  0.4450
  148OSM   H13B16333   3.488   1.620   3.010  0.3975  0.4405 -0.9836
  148OSM   H13C16334   3.624   1.571   2.918 -1.3475 -1.0011 -1.5497
  148OSM    C1216335   3.351   1.410   3.010 -0.0176 -1.0329 -0.0172
  148OSM   H12A16336   3.282   1.342   2.962  0.1073 -1.1190 -0.0742
  148OSM   H12B16337   3.299   1.503   3.023  0.4961 -0.7927  0.3834
  148OSM    C1116338   3.384   1.360   3.154  0.0717 -0.3035 -0.4136
  148OSM   H11A16339   3.292   1.388   3.207 -1.0054 -1.7219 -1.4312
  148OSM   H11B16340   3.460   1.420   3.209  0.3939  1.2300 -2.4030
  148OSM      P16341   3.296   1.120   3.120 -0.2300  0.1023 -0.7625
  148OSM    O1316342   3.193   1.189   3.041 -0.4458 -0.0043  0.1402
  148OSM    O1416343   3.355   1.000   3.053  0.1312 -0.2035 -0.1918
  148OSM    O1116344   3.228   1.076   3.251  0.1849  0.3284 -0.3896
  148OSM    O1216345   3.409   1.213   3.169 -0.5109  0.1578 -0.1534
  148OSM    C1S16346   3.300   1.009   3.359 -0.2258 -0.4816 -0.7561
  148OSM    H1S16347   3.408   1.001   3.335 -0.3874  0.0002 -1.6991
  148OSM    H1T16348   3.262   0.905   3.370  0.2817 -0.7140 -1.1320
  148OSM     NF16349   3.361   1.038   3.595 -0.2959  0.8690  0.3043
  148OSM    HNF16350   3.326   0.954   3.637 -0.7350 -0.2845 -2.1989
  148OSM    C2S16351   3.281   1.096   3.489  0.4644 -0.1763 -0.3540
  148OSM    H2S16352   3.311   1.199   3.459 -1.0382  0.1927 -0.6683
  148OSM    C3S16353   3.129   1.099   3.526  0.3740  0.0249 -0.4191
  148OSM    H3S16354   3.095   0.994   3.532 -0.2341  0.2768  0.7577
  148OSM     O316355   3.043   1.158   3.431 -0.3270 -0.5434  0.4403
  148OSM    HO316356   3.100   1.148   3.355 -0.4825  0.7134  0.1440
  148OSM    C4S16357   3.099   1.151   3.670  0.0611 -0.1398 -0.1596
  148OSM    H4S16358   3.136   1.078   3.744 -0.8298  1.5393  2.0280
  148OSM    C5S16359   3.048   1.279   3.703 -0.6373  0.6146  1.2272
  148OSM    H5S16360   3.034   1.355   3.625 -1.1551  0.4715  1.1736
  148OSM    C6S16361   3.033   1.326   3.839 -0.1894  0.6502  0.0537
  148OSM    H6S16362   2.933   1.374   3.846 -1.2152 -1.1847 -1.2624
  148OSM    H6T16363   3.101   1.409   3.868  0.4146  0.4843 -0.8460
  148OSM    C7S16364   3.050   1.216   3.943  0.2020  0.1314 -0.0700
  148OSM    H7S16365   3.156   1.182   3.943 -0.2372 -1.4160 -2.2882
  148OSM    H7T16366   2.989   1.130   3.908  1.0868 -0.4629 -0.1723
  148OSM    C8S16367   2.997   1.264   4.083  0.3268  0.2606  0.3059
  148OSM    H8S16368   2.897   1.296   4.046  0.4012  1.2624  0.9321
  148OSM    H8T16369   3.054   1.352   4.120 -2.0377  1.9932  0.1139
  148OSM    C9S16370   2.988   1.153   4.183  0.6899 -0.0897 -0.4005
  148OSM    H9S16371   3.088   1.105   4.183  0.0807 -1.4386 -2.0482
  148OSM    H9T16372   2.921   1.076   4.140  0.7746  0.1554 -0.9823
  148OSM   C10S16373   2.948   1.203   4.321 -0.9600 -0.2493 -0.5363
  148OSM   H10S16374   2.847   1.248   4.321 -0.6371  0.4838 -0.9885
  148OSM   H10T16375   3.020   1.283   4.352 -1.8047  0.1652  0.4226
  148OSM   C11S16376   2.949   1.098   4.427 -0.3620 -0.3335  0.3988
  148OSM   H11S16377   3.048   1.049   4.441  0.4836  1.4467  0.9416
  148OSM   H11T16378   2.888   1.011   4.394  0.7864 -0.6288 -1.0043
  148OSM   C12S16379   2.909   1.154   4.565 -0.3138  0.2194  0.0048
  148OSM   H12S16380   2.813   1.207   4.550 -0.4854  0.1642  0.8486
  148OSM   H12T16381   2.985   1.230   4.597 -1.3396  0.8685  0.9836
  148OSM   C13S16382   2.879   1.050   4.675 -0.0573  0.4348 -0.3684
  148OSM   H13S16383   2.810   0.966   4.651 -0.1193  1.1204 -2.7612
  148OSM   H13T16384   2.831   1.110   4.756  1.2648  1.7556 -0.5364
  148OSM   C14S16385   3.002   0.993   4.734 -0.5493  0.5538  0.0844
  148OSM   H14S16386   3.055   1.080   4.778 -0.1913  0.1371  0.4850
  148OSM   H14T16387   3.061   0.951   4.650 -1.4782  0.5849 -0.6016
  148OSM   C15S16388   2.990   0.880   4.836  0.2159  0.0342  1.2913
  148OSM   H15S16389   3.094   0.861   4.872 -0.6172 -0.7869  3.4831
  148OSM   H15T16390   2.972   0.794   4.769 -0.2145  1.0590  0.0503
  148OSM   C16S16391   2.879   0.893   4.942 -0.7178 -0.3209  0.6704
  148OSM   H16S16392   2.846   0.791   4.974  1.1454 -0.8866  0.8786
  148OSM   H16T16393   2.787   0.941   4.901 -1.4259 -1.9498  0.2615
  148OSM   C17S16394   2.924   0.978   5.061  0.1912  0.3781  0.0447
  148OSM   H17S16395   2.951   1.081   5.031 -1.6002  0.4629 -1.4439
  148OSM   H17T16396   3.009   0.921   5.106 -1.6111 -3.1105 -0.6000
  148OSM   C18S16397   2.803   0.975   5.161 -0.0814 -0.2582  0.2896
  148OSM   H18S16398   2.776   0.870   5.184  1.4444 -1.2264 -1.9088
  148OSM   H18T16399   2.722   1.043   5.128  1.2559  1.0881 -0.3178
  148OSM   H18U16400   2.845   1.017   5.255  1.9484  0.4925 -0.9001
  148OSM    C1F16401   3.489   1.058   3.608  0.5424  0.0978 -0.1428
  148OSM     OF16402   3.553   1.140   3.544  0.3505 -0.2297 -0.4523
  148OSM    C2F16403   3.549   0.960   3.709  0.0842  0.4556  0.4319
  148OSM    H2F16404   3.508   0.861   3.676  0.7122  0.4947 -0.5286
  148OSM    H2G16405   3.514   0.988   3.810 -0.4124 -0.9169  0.6629
  148OSM    C3F16406   3.704   0.968   3.712 -0.6830 -0.1824 -0.1399
  148OSM    H3F16407   3.746   1.070   3.729  0.0890 -0.5423  0.1257
  148OSM    H3G16408   3.738   0.960   3.607  1.7887  4.1035  0.1102
  148OSM    C4F16409   3.772   0.857   3.797 -0.6344 -0.3573  0.2612
  148OSM    H4F16410   3.871   0.822   3.761 -0.9946 -0.8402 -0.2594
  148OSM    H4G16411   3.701   0.772   3.799  0.7051 -1.5002  0.9025
  148OSM    C5F16412   3.784   0.910   3.940  0.6002 -0.1047  0.1800
  148OSM    H5F16413   3.691   0.963   3.969  1.4943  1.9130 -0.4872
  148OSM    H5G16414   3.864   0.986   3.950 -0.3213  0.7358  1.5800
  148OSM    C6F16415   3.809   0.796   4.037 -0.0484  0.2561 -0.2262
  148OSM    H6F16416   3.886   0.732   3.991 -0.0680  0.2332 -0.2273
  148OSM    H6G16417   3.721   0.728   4.038 -0.1871  0.3805  1.9472
  148OSM    C7F16418   3.844   0.853   4.177 -0.5810 -0.7451  0.5069
  148OSM    H7F16419   3.761   0.915   4.217  1.6125  2.8465 -0.0667
  148OSM    H7G16420   3.925   0.929   4.180 -0.9438 -0.3392  0.1354
  148OSM    C8F16421   3.881   0.746   4.277 -0.2223 -0.2405 -0.5183
  148OSM    H8F16422   3.932   0.801   4.359 -1.1290  0.1224 -0.1859
  148OSM    H8G16423   3.958   0.674   4.243 -0.4056 -0.2769 -0.8636
  148OSM    C9F16424   3.764   0.669   4.326  0.6226 -1.0237 -0.8896
  148OSM    H9F16425   3.700   0.633   4.244  1.5211 -1.3752 -1.4441
  148OSM   C10F16426   3.727   0.651   4.452  0.3116  0.6734 -0.6938
  148OSM   H10F16427   3.639   0.590   4.477  0.3869  0.7165 -0.3172
  148OSM   C11F16428   3.796   0.711   4.575 -0.0509  0.4676 -0.0941
  148OSM   H11F16429   3.816   0.819   4.554  0.8215  0.3163 -0.0782
  148OSM   H11G16430   3.894   0.665   4.599 -0.1953  0.8734  1.4020
  148OSM   C12F16431   3.709   0.722   4.699 -0.0950 -0.1990 -0.0572
  148OSM   H12F16432   3.680   0.625   4.745  0.7826 -0.1856  0.5510
  148OSM   H12G16433   3.615   0.777   4.677  0.5661  1.7711  1.6776
  148OSM   C13F16434   3.781   0.790   4.812  0.1935  0.3413 -0.7208
  148OSM   H13F16435   3.793   0.895   4.778 -2.3225  1.2162  0.7991
  148OSM   H13G16436   3.875   0.742   4.846 -0.3100 -0.2208 -0.0819
  148OSM   C14F16437   3.681   0.793   4.935 -0.2191  0.0180 -0.1745
  148OSM   H14F16438   3.578   0.764   4.905 -0.7194 -3.0194  3.6745
  148OSM   H14G16439   3.688   0.898   4.971 -0.2043 -0.4327  1.1803
  148OSM   C15F16440   3.725   0.692   5.044  0.4315 -0.0382  0.4536
  148OSM   H15F16441   3.833   0.709   5.067 -0.4193  2.8367  2.9800
  148OSM   H15G16442   3.716   0.591   5.000  0.2918 -0.2378  0.9403
  148OSM   C16F16443   3.638   0.703   5.173  0.0362 -0.0478 -0.1928
  148OSM   H16F16444   3.529   0.710   5.153 -0.1161 -0.8399  0.3350
  148OSM   H16G16445   3.664   0.801   5.218 -2.4300  0.1942  0.8539
  148OSM   C17F16446   3.676   0.593   5.278  0.6378  0.1082  0.1524
  148OSM   H17F16447   3.787   0.580   5.279  0.8361  1.5269 -0.6336
  148OSM   H17G16448   3.632   0.503   5.231  1.4638  0.8470 -2.2121
  148OSM   C18F16449   3.627   0.618   5.417 -0.2003 -0.1287  0.0132
  148OSM   H18F16450   3.615   0.521   5.470 -2.7303  0.8856  1.5108
  148OSM   H18G16451   3.526   0.663   5.427 -1.1352 -2.3678  1.4938
  148OSM   H18H16452   3.697   0.679   5.479  0.9316 -0.7662 -0.6195
  149OSM      N16453   6.794   0.240   3.445  0.3444 -0.2106 -1.1400
  149OSM    C1516454   6.699   0.188   3.551  0.4254 -0.8006 -0.1319
  149OSM   H15A16455   6.714   0.083   3.574  0.7068 -0.6928  0.1645
  149OSM   H15B16456   6.601   0.200   3.506  1.2139 -2.4851 -2.4747
  149OSM   H15C16457   6.695   0.252   3.638  0.3604 -0.6996 -0.2098
  149OSM    C1416458   6.927   0.209   3.505  0.4512  1.1750 -0.1216
  149OSM   H14A16459   6.941   0.239   3.607 -1.9467 -0.7573  0.8741
  149OSM   H14B16460   7.010   0.232   3.440  0.2739 -0.4602 -0.9792
  149OSM   H14C16461   6.928   0.101   3.517  0.0332  1.4333  3.1606
  149OSM    C1316462   6.792   0.155   3.322  0.3217  0.3604 -0.7486
  149OSM   H13A16463   6.701   0.176   3.268 -0.6910  1.3368  1.2489
  149OSM   H13B16464   6.799   0.051   3.348  1.0684  0.4035 -0.7493
  149OSM   H13C16465   6.879   0.164   3.259  0.1630 -1.0452 -1.2085
  149OSM    C1216466   6.779   0.389   3.428  0.0288 -0.9026  0.6399
  149OSM   H12A16467   6.867   0.427   3.379  1.2281 -0.6336  2.8769
  149OSM   H12B16468   6.784   0.445   3.520 -1.4504  0.0788  0.1643
  149OSM    C1116469   6.649   0.434   3.348 -0.0233 -0.1966 -0.1353
  149OSM   H11A16470   6.668   0.395   3.246  0.6447 -1.4502  0.4434
  149OSM   H11B16471   6.655   0.545   3.337  0.1165 -0.2443 -0.5677
  149OSM      P16472   6.394   0.408   3.335 -0.3664 -0.0228 -0.1783
  149OSM    O1316473   6.384   0.539   3.274  0.0309 -0.3311  0.0822
  149OSM    O1416474   6.360   0.289   3.254  0.0452 -0.0565 -0.0922
  149OSM    O1116475   6.301   0.411   3.463  0.1660 -0.0943  0.3907
  149OSM    O1216476   6.532   0.387   3.411  0.4978  0.3326 -0.1406
  149OSM    C1S16477   6.326   0.519   3.555  0.3129 -0.6569 -0.3736
  149OSM    H1S16478   6.264   0.607   3.526  0.1352 -0.5574  0.2971
  149OSM    H1T16479   6.432   0.549   3.571 -0.1816  1.4050 -0.5965
  149OSM     NF16480   6.302   0.592   3.792  1.3734  0.2683 -0.1360
  149OSM    HNF16481   6.388   0.600   3.842 -0.6112 -0.5098  3.8415
  149OSM    C2S16482   6.290   0.476   3.700  0.1646  0.4591 -0.1925
  149OSM    H2S16483   6.182   0.450   3.703 -0.0870  1.4967  0.3676
  149OSM    C3S16484   6.378   0.348   3.744  0.4204 -0.2236  0.4487
  149OSM    H3S16485   6.484   0.381   3.751  0.9173 -1.7741  0.7059
  149OSM     O316486   6.394   0.238   3.643  0.4969  0.0238 -0.3833
  149OSM    HO316487   6.360   0.286   3.567  2.3475  1.3540 -0.4472
  149OSM    C4S16488   6.348   0.306   3.885 -0.1740 -0.2884 -0.0958
  149OSM    H4S16489   6.419   0.348   3.958  0.5005 -1.4223 -0.0723
  149OSM    C5S16490   6.247   0.226   3.927  0.2444 -0.0065 -0.8203
  149OSM    H5S16491   6.178   0.186   3.851  0.9825  0.9156 -2.0226
  149OSM    C6S16492   6.217   0.192   4.072 -0.0803  0.9998 -0.3595
  149OSM    H6S16493   6.277   0.105   4.106  0.1535  1.6304  0.8890
  149OSM    H6T16494   6.108   0.178   4.082 -0.2782  2.6690  0.0610
  149OSM    C7S16495   6.237   0.310   4.176  0.1786  0.4752 -0.4877
  149OSM    H7S16496   6.170   0.389   4.137  1.2263  0.6594 -2.0082
  149OSM    H7T16497   6.339   0.350   4.195 -0.3229  1.8715 -0.6767
  149OSM    C8S16498   6.179   0.281   4.317 -0.4465  0.3360  0.0850
  149OSM    H8S16499   6.226   0.193   4.366 -1.9542 -0.4259  0.2172
  149OSM    H8T16500   6.073   0.247   4.308 -0.3327 -0.7916  2.3249
  149OSM    C9S16501   6.177   0.393   4.417 -0.3527  0.0671  0.2647
  149OSM    H9S16502   6.120   0.480   4.378 -1.3160 -1.4783 -1.9889
  149OSM    H9T16503   6.283   0.423   4.432 -0.2337  0.7766 -1.6488
  149OSM   C10S16504   6.112   0.344   4.552 -0.5085  0.6501  0.7061
  149OSM   H10S16505   6.154   0.245   4.582  2.4343  1.0434 -1.6042
  149OSM   H10T16506   6.003   0.327   4.537 -0.4663  0.2776  0.8123
  149OSM   C11S16507   6.128   0.449   4.659  0.3798 -0.0538 -0.7960
  149OSM   H11S16508   6.101   0.548   4.616 -0.7570 -0.1641 -0.3892
  149OSM   H11T16509   6.233   0.447   4.694  0.3045 -2.0700 -0.5330
  149OSM   C12S16510   6.016   0.439   4.765 -0.0341 -0.3980 -0.2023
  149OSM   H12S16511   5.986   0.333   4.777 -0.3222 -0.2308  0.6371
  149OSM   H12T16512   5.925   0.491   4.728  0.1942  1.4561  1.6255
  149OSM   C13S16513   6.056   0.487   4.904 -0.6261 -0.5180  0.1424
  149OSM   H13S16514   6.102   0.586   4.885 -1.9607 -0.2721 -2.2446
  149OSM   H13T16515   6.131   0.418   4.948 -0.4142  0.7800  1.9102
  149OSM   C14S16516   5.945   0.484   5.008  0.4665  0.8378  0.1566
  149OSM   H14S16517   5.881   0.395   4.991  2.1841 -0.4932  0.3999
  149OSM   H14T16518   5.880   0.573   4.994 -0.1618  0.5952  1.4013
  149OSM   C15S16519   5.999   0.487   5.150 -0.4741  0.1343  0.0239
  149OSM   H15S16520   6.039   0.589   5.167 -0.2054  0.1515 -0.6592
  149OSM   H15T16521   6.087   0.420   5.154  0.7475  1.6623 -0.1202
  149OSM   C16S16522   5.896   0.459   5.251  0.0814 -0.3910 -0.4747
  149OSM   H16S16523   5.838   0.365   5.241 -0.8553  0.1769 -0.5273
  149OSM   H16T16524   5.815   0.535   5.242 -1.9447 -2.4034  0.0430
  149OSM   C17S16525   5.956   0.468   5.390  0.4982 -0.3524 -0.8100
  149OSM   H17S16526   6.027   0.552   5.400  0.2246 -0.2334  0.2377
  149OSM   H17T16527   6.003   0.371   5.416  0.5116  0.0361  0.6946
  149OSM   C18S16528   5.848   0.492   5.499 -0.1619 -0.2557  1.2345
  149OSM   H18S16529   5.794   0.589   5.501  0.8348  0.3044  2.8238
  149OSM   H18T16530   5.902   0.467   5.593 -2.2262 -1.7769  2.1057
  149OSM   H18U16531   5.775   0.409   5.489  0.5536 -0.7128 -0.8791
  149OSM    C1F16532   6.216   0.699   3.786  0.1329  0.1610 -0.3664
  149OSM     OF16533   6.118   0.704   3.707 -0.2127 -0.1269 -0.1800
  149OSM    C2F16534   6.234   0.807   3.885 -0.2208 -0.0393  0.0062
  149OSM    H2F16535   6.336   0.845   3.865  0.4641 -1.9419 -0.3488
  149OSM    H2G16536   6.211   0.759   3.983 -1.6258 -1.2909 -0.8830
  149OSM    C3F16537   6.127   0.917   3.882 -0.3586  0.7426  0.3111
  149OSM    H3F16538   6.023   0.881   3.891  0.0678 -0.6648 -0.1374
  149OSM    H3G16539   6.133   0.966   3.782  0.6893  2.6726  1.2690
  149OSM    C4F16540   6.154   1.025   3.985 -0.2926  0.3042 -0.2242
  149OSM    H4F16541   6.081   1.108   3.987  0.2273  0.7552  1.4694
  149OSM    H4G16542   6.258   1.059   3.966 -0.0957 -0.2877 -0.2138
  149OSM    C5F16543   6.158   0.980   4.130 -0.5126  0.9578  0.0222
  149OSM    H5F16544   6.244   0.911   4.143  0.4013  2.0478 -0.1656
  149OSM    H5G16545   6.078   0.906   4.151 -0.0291 -0.8039 -3.5843
  149OSM    C6F16546   6.175   1.090   4.235  1.4213  0.3546 -0.0680
  149OSM    H6F16547   6.075   1.137   4.247  1.5075  0.9801 -1.6006
  149OSM    H6G16548   6.241   1.165   4.186 -0.4087  1.7884 -0.4710
  149OSM    C7F16549   6.247   1.043   4.356 -0.0481 -0.8902 -0.1049
  149OSM    H7F16550   6.349   1.000   4.337  1.2346  1.0378  2.0006
  149OSM    H7G16551   6.187   0.958   4.397 -1.1570 -0.8332 -1.5368
  149OSM    C8F16552   6.255   1.156   4.466 -1.0080  0.2246  0.7280
  149OSM    H8F16553   6.339   1.216   4.427  1.7546 -2.1657  2.5743
  149OSM    H8G16554   6.301   1.125   4.562  0.4762  0.2989  0.0594
  149OSM    C9F16555   6.119   1.225   4.500 -0.2333  0.2616  0.1183
  149OSM    H9F16556   6.043   1.155   4.538  0.2175 -0.2653  0.0507
  149OSM   C10F16557   6.071   1.344   4.475 -0.4923 -0.5670 -0.0136
  149OSM   H10F16558   5.972   1.362   4.519  0.6022 -0.0939  2.4809
  149OSM   C11F16559   6.140   1.462   4.408  0.0502 -0.2105  0.5354
  149OSM   H11F16560   6.241   1.435   4.371  0.1193 -1.1561  1.3927
  149OSM   H11G16561   6.169   1.540   4.482  1.0199  1.4351 -1.4712
  149OSM   C12F16562   6.066   1.536   4.298  0.0748  0.1063  0.6600
  149OSM   H12F16563   6.087   1.645   4.289  0.2805  0.0038 -0.1919
  149OSM   H12G16564   5.961   1.543   4.334  0.4252  1.1429  1.5298
  149OSM   C13F16565   6.075   1.471   4.160  0.0230  0.1605  0.5651
  149OSM   H13F16566   6.085   1.362   4.178  2.8415  0.2581  0.0093
  149OSM   H13G16567   6.172   1.500   4.114  0.2135 -0.0936  0.8096
  149OSM   C14F16568   5.953   1.517   4.087  0.5467 -0.1507 -0.1888
  149OSM   H14F16569   5.944   1.627   4.070  0.6942 -0.1271 -0.1197
  149OSM   H14G16570   5.870   1.489   4.155  1.6190 -0.0114  1.2179
  149OSM   C15F16571   5.940   1.442   3.947  0.2001  1.1169  0.1217
  149OSM   H15F16572   5.845   1.476   3.899  0.9574  1.2986 -1.3065
  149OSM   H15G16573   5.944   1.333   3.966 -0.1897  0.9645 -0.6029
  149OSM   C16F16574   6.063   1.466   3.861 -0.6675 -0.2860 -0.3524
  149OSM   H16F16575   6.152   1.414   3.901 -1.2196 -4.6645 -4.0070
  149OSM   H16G16576   6.087   1.575   3.866 -0.8270 -0.3111  1.6531
  149OSM   C17F16577   6.076   1.429   3.710  0.0498 -0.2001  0.0511
  149OSM   H17F16578   6.178   1.456   3.675  0.4705 -0.7700  0.7989
  149OSM   H17G16579   5.992   1.484   3.663  1.2194  0.9831 -0.7276
  149OSM   C18F16580   6.069   1.278   3.682  0.0558 -0.2655 -0.5400
  149OSM   H18F16581   6.067   1.255   3.574  1.1963  0.2185 -0.6770
  149OSM   H18G16582   5.966   1.250   3.714 -0.1879  0.1523 -0.9549
  149OSM   H18H16583   6.140   1.230   3.753 -0.3241  0.5987  0.4443
  150OSM      N16584   2.583   1.108   2.863  0.5384  0.7716 -0.7183
  150OSM    C1516585   2.725   1.098   2.829  0.2891  0.3324 -0.7638
  150OSM   H15A16586   2.777   1.193   2.833 -0.9929  1.0384  0.0392
  150OSM   H15B16587   2.746   1.043   2.738  0.9427 -1.4523  0.4233
  150OSM   H15C16588   2.771   1.041   2.908  0.7368 -0.0277 -1.2796
  150OSM    C1416589   2.573   1.162   2.998  0.1981  0.6406  0.3227
  150OSM   H14A16590   2.472   1.162   3.037 -0.3117  0.4429 -0.9477
  150OSM   H14B16591   2.608   1.264   3.007 -0.7615  0.9740  0.3690
  150OSM   H14C16592   2.610   1.092   3.071 -1.4778  0.3881  0.9647
  150OSM    C1316593   2.518   1.192   2.760  0.4502  0.3215 -0.3608
  150OSM   H13A16594   2.539   1.297   2.777  0.6074  0.0020  1.7416
  150OSM   H13B16595   2.411   1.189   2.753  0.4882  0.0405 -0.8665
  150OSM   H13C16596   2.566   1.154   2.671  0.1168 -0.2747 -0.2906
  150OSM    C1216597   2.517   0.971   2.854  0.1266 -0.3578  0.0265
  150OSM   H12A16598   2.514   0.947   2.749 -0.8964  0.0079 -0.0386
  150OSM   H12B16599   2.414   0.971   2.888 -0.1398 -1.2647 -0.7252
  150OSM    C1116600   2.602   0.851   2.910  0.2824 -1.0430 -0.2247
  150OSM   H11A16601   2.699   0.848   2.856 -0.2088  0.8885 -1.3143
  150OSM   H11B16602   2.542   0.761   2.884 -1.2559  0.1212 -0.8907
  150OSM      P16603   2.543   0.796   3.165 -0.0416  0.5770  0.2642
  150OSM    O1316604   2.401   0.850   3.165 -0.5987  0.1839 -0.0031
  150OSM    O1416605   2.565   0.646   3.161 -0.5743  0.0945  0.2156
  150OSM    O1116606   2.619   0.846   3.299 -0.3591 -0.1355 -0.3297
  150OSM    O1216607   2.631   0.863   3.053  0.4673  0.2021  0.1333
  150OSM    C1S16608   2.666   0.984   3.314 -0.0620  0.3948  0.0040
  150OSM    H1S16609   2.617   1.049   3.239  1.8353  0.2751 -1.4258
  150OSM    H1T16610   2.777   0.983   3.315  0.0297 -0.6080 -2.5987
  150OSM     NF16611   2.649   1.181   3.484 -0.5865  0.3954  0.0588
  150OSM    HNF16612   2.701   1.213   3.563 -0.1046 -3.8771  1.7486
  150OSM    C2S16613   2.645   1.035   3.463  0.6916 -0.3809 -0.1754
  150OSM    H2S16614   2.540   1.008   3.486  0.8716 -1.3317 -0.4339
  150OSM    C3S16615   2.733   0.962   3.560 -0.2258 -1.0008  0.4668
  150OSM    H3S16616   2.827   1.020   3.555 -0.8141 -0.1064 -0.7870
  150OSM     O316617   2.766   0.828   3.534 -0.0478  0.5269  0.4238
  150OSM    HO316618   2.723   0.814   3.449 -0.0458  1.5528  0.2332
  150OSM    C4S16619   2.689   0.978   3.703  1.0358 -0.3562  0.4570
  150OSM    H4S16620   2.579   0.974   3.712  0.8466  3.0235  1.3994
  150OSM    C5S16621   2.764   1.002   3.807 -0.2596  0.6894 -0.8364
  150OSM    H5S16622   2.872   0.999   3.786 -0.1057 -2.4056 -0.0164
  150OSM    C6S16623   2.710   1.037   3.949  0.1811  0.2917  0.2947
  150OSM    H6S16624   2.718   1.144   3.978 -0.8634  0.2292  0.8936
  150OSM    H6T16625   2.775   0.977   4.017 -0.4928 -0.2392  0.4821
  150OSM    C7S16626   2.564   0.998   3.987 -0.8302 -0.0913 -0.0808
  150OSM    H7S16627   2.553   0.894   3.951 -0.0021 -0.0223 -0.5456
  150OSM    H7T16628   2.486   1.064   3.943  0.1376  1.3825  0.3403
  150OSM    C8S16629   2.538   0.997   4.145  0.4716  0.6936  0.3601
  150OSM    H8S16630   2.429   1.012   4.165  0.0939  1.0905 -1.7798
  150OSM    H8T16631   2.602   1.066   4.203  0.7418  1.0983 -0.4125
  150OSM    C9S16632   2.572   0.857   4.211  0.0028  0.1917 -0.5410
  150OSM    H9S16633   2.682   0.844   4.197  1.0162  1.7572  4.1631
  150OSM    H9T16634   2.516   0.776   4.160  2.5972 -1.6536 -0.6292
  150OSM   C10S16635   2.524   0.859   4.362 -0.1986  0.3542  0.1397
  150OSM   H10S16636   2.417   0.871   4.389 -0.1982  1.2810 -0.2603
  150OSM   H10T16637   2.577   0.948   4.401  1.4368 -0.3958 -0.2692
  150OSM   C11S16638   2.601   0.746   4.441  0.1083 -0.2668  0.3892
  150OSM   H11S16639   2.707   0.759   4.408  0.6773 -1.6546  1.5584
  150OSM   H11T16640   2.556   0.649   4.409  0.5176 -0.0128 -1.0325
  150OSM   C12S16641   2.589   0.761   4.590  0.4506 -0.8896 -0.0242
  150OSM   H12S16642   2.482   0.779   4.616  0.7736 -1.8583  2.2747
  150OSM   H12T16643   2.633   0.857   4.625  0.8514 -1.6675  1.7646
  150OSM   C13S16644   2.647   0.639   4.670  0.1573 -0.7555  0.5996
  150OSM   H13S16645   2.758   0.640   4.664  0.1485  1.5518 -0.1281
  150OSM   H13T16646   2.619   0.544   4.621 -0.0033  0.1224 -1.0962
  150OSM   C14S16647   2.617   0.660   4.816 -0.5370  0.4179  0.3191
  150OSM   H14S16648   2.506   0.672   4.823 -1.1198 -2.8291 -1.1799
  150OSM   H14T16649   2.673   0.752   4.845  0.5773 -0.3266  0.5885
  150OSM   C15S16650   2.654   0.535   4.894  0.5458  0.2216  0.5525
  150OSM   H15S16651   2.757   0.493   4.884  0.0408 -1.0129  0.3236
  150OSM   H15T16652   2.584   0.457   4.858 -0.3051  1.1435  0.1637
  150OSM   C16S16653   2.637   0.554   5.050  0.0204 -0.6760  0.3538
  150OSM   H16S16654   2.560   0.633   5.065  1.5401  0.6362  1.4845
  150OSM   H16T16655   2.732   0.598   5.087  0.7485 -1.3561 -0.6482
  150OSM   C17S16656   2.611   0.424   5.128 -0.4593 -0.4746 -0.0857
  150OSM   H17S16657   2.686   0.348   5.096  0.6469  0.2910  0.6331
  150OSM   H17T16658   2.508   0.387   5.110 -0.1887 -1.4763  0.3467
  150OSM   C18S16659   2.648   0.444   5.269 -0.0325 -0.7402 -0.0839
  150OSM   H18S16660   2.758   0.462   5.263 -0.1430  0.1917  0.3522
  150OSM   H18T16661   2.624   0.347   5.317 -0.8892 -0.2870  0.4443
  150OSM   H18U16662   2.592   0.529   5.314  0.5444 -0.2339 -0.2898
  150OSM    C1F16663   2.592   1.267   3.404 -0.2845  0.6445 -0.7368
  150OSM     OF16664   2.502   1.227   3.336 -0.2861 -0.0915 -0.0434
  150OSM    C2F16665   2.642   1.410   3.405  0.0884 -0.2717  0.6116
  150OSM    H2F16666   2.559   1.477   3.374 -0.7297 -0.5370  2.1271
  150OSM    H2G16667   2.730   1.417   3.338 -0.4600 -0.1763 -0.1101
  150OSM    C3F16668   2.691   1.467   3.537 -0.2353  0.0609 -0.1787
  150OSM    H3F16669   2.734   1.567   3.514  0.5517 -0.5668 -1.6018
  150OSM    H3G16670   2.784   1.406   3.547 -1.1982 -1.9374 -2.3724
  150OSM    C4F16671   2.607   1.464   3.668 -0.9103  0.4809  0.6996
  150OSM    H4F16672   2.605   1.361   3.711 -2.3060  1.1293  2.3459
  150OSM    H4G16673   2.501   1.482   3.639 -0.5090 -0.7912 -1.8160
  150OSM    C5F16674   2.656   1.564   3.772  0.2186  0.2672  1.0644
  150OSM    H5F16675   2.656   1.665   3.725 -1.9666  1.0642  2.6188
  150OSM    H5G16676   2.757   1.542   3.814 -1.5924 -2.1629  4.6241
  150OSM    C6F16677   2.584   1.562   3.905  0.0478  0.1230 -0.1297
  150OSM    H6F16678   2.475   1.571   3.883 -0.0250  0.1603  0.2495
  150OSM    H6G16679   2.610   1.650   3.967 -0.3783  0.6082 -0.6313
  150OSM    C7F16680   2.617   1.431   3.990  0.2384 -0.5341  0.1181
  150OSM    H7F16681   2.709   1.441   4.052 -0.2146 -1.0367  0.8902
  150OSM    H7G16682   2.638   1.355   3.911  0.4660  1.6140 -1.9971
  150OSM    C8F16683   2.520   1.374   4.095  0.1060  1.0095  0.3123
  150OSM    H8F16684   2.563   1.281   4.137  0.2936 -0.1628 -2.3312
  150OSM    H8G16685   2.432   1.352   4.032  1.7798  3.3729 -3.1840
  150OSM    C9F16686   2.480   1.471   4.196  0.4831 -0.8642 -0.9244
  150OSM    H9F16687   2.433   1.560   4.153  4.1480  1.0684 -1.2456
  150OSM   C10F16688   2.484   1.461   4.325 -0.1829 -0.6802 -0.8518
  150OSM   H10F16689   2.466   1.552   4.384  4.0459 -0.0503 -0.2232
  150OSM   C11F16690   2.547   1.350   4.417 -0.3091 -0.5486 -0.0592
  150OSM   H11F16691   2.609   1.405   4.492  0.1339 -0.4760 -0.4725
  150OSM   H11G16692   2.616   1.281   4.364  0.9057  0.5487  0.0174
  150OSM   C12F16693   2.439   1.268   4.487  0.1981 -0.1631  0.0500
  150OSM   H12F16694   2.394   1.199   4.412  0.5379  0.5593 -0.8371
  150OSM   H12G16695   2.363   1.335   4.531  1.7290  1.1494  0.7769
  150OSM   C13F16696   2.503   1.184   4.600  0.4285  0.0938 -0.2350
  150OSM   H13F16697   2.555   1.258   4.666 -0.0689  1.6640 -1.5382
  150OSM   H13G16698   2.574   1.106   4.565 -0.3786 -0.9780  0.4456
  150OSM   C14F16699   2.407   1.112   4.695  0.9235  0.1604  0.9588
  150OSM   H14F16700   2.365   1.024   4.642  2.8048 -0.1500 -0.1304
  150OSM   H14G16701   2.317   1.172   4.720 -0.7690 -1.7763 -0.1872
  150OSM   C15F16702   2.471   1.066   4.822 -0.1619  0.2839 -0.4616
  150OSM   H15F16703   2.518   1.150   4.878 -1.5549  0.5429  0.3669
  150OSM   H15G16704   2.549   0.993   4.793  0.9271  0.3206  2.1837
  150OSM   C16F16705   2.374   0.998   4.917 -0.7401 -0.3998  0.4642
  150OSM   H16F16706   2.361   0.896   4.874 -2.7516  0.5739 -1.4546
  150OSM   H16G16707   2.275   1.048   4.927 -0.3575  0.6377 -0.7055
  150OSM   C17F16708   2.431   0.989   5.053 -0.0262 -0.0278  0.1622
  150OSM   H17F16709   2.427   1.093   5.092 -0.2707  1.1257 -2.7374
  150OSM   H17G16710   2.538   0.959   5.044  0.2009  0.8849 -0.2321
  150OSM   C18F16711   2.369   0.895   5.153  0.1990  0.3211  0.1043
  150OSM   H18F16712   2.434   0.889   5.243 -1.2363  0.0398  1.1594
  150OSM   H18G16713   2.359   0.796   5.102 -0.6747  0.3388  0.2191
  150OSM   H18H16714   2.268   0.923   5.188  0.2018 -1.1430  1.3829
  151OSM      N16715   2.983   0.587   3.239 -0.5211  0.0625  0.1701
  151OSM    C1516716   2.865   0.536   3.317  1.0111  0.1518 -0.2143
  151OSM   H15A16717   2.841   0.606   3.395 -1.5830  1.9889 -2.4686
  151OSM   H15B16718   2.885   0.436   3.353  1.3680 -0.0843 -1.0365
  151OSM   H15C16719   2.777   0.524   3.255  1.5059 -1.9696 -0.6049
  151OSM    C1416720   3.011   0.501   3.125 -0.1357  0.3021  0.5258
  151OSM   H14A16721   2.994   0.398   3.153  3.7323 -0.2768  1.3483
  151OSM   H14B16722   3.118   0.512   3.110  0.2656 -1.8641  1.3437
  151OSM   H14C16723   2.968   0.535   3.032  2.1630  0.0066 -0.7251
  151OSM    C1316724   2.939   0.713   3.174 -0.3239 -0.1623 -0.2544
  151OSM   H13A16725   2.850   0.703   3.114 -0.1412  0.5189 -0.6520
  151OSM   H13B16726   3.018   0.739   3.105 -0.1192 -1.2673 -0.4591
  151OSM   H13C16727   2.930   0.789   3.251  2.7746  0.0690  0.0026
  151OSM    C1216728   3.106   0.592   3.334 -0.2355 -0.0763  0.0150
  151OSM   H12A16729   3.137   0.489   3.346  1.5234  0.2423 -1.3754
  151OSM   H12B16730   3.081   0.626   3.434 -0.1316  1.2683 -0.4065
  151OSM    C1116731   3.236   0.658   3.273  0.5605 -0.5967  0.3324
  151OSM   H11A16732   3.318   0.663   3.347  0.0623  1.9663  0.8221
  151OSM   H11B16733   3.203   0.763   3.254 -1.0806 -0.3869  3.6536
  151OSM      P16734   3.386   0.489   3.122 -0.5795  0.1401 -0.3962
  151OSM    O1316735   3.338   0.360   3.064  0.1144  0.4601  0.0414
  151OSM    O1416736   3.490   0.563   3.050  0.5517 -0.5971 -0.2640
  151OSM    O1116737   3.445   0.449   3.268  0.0138 -0.1477  0.0460
  151OSM    O1216738   3.266   0.586   3.152 -0.3172  0.5444 -0.2133
  151OSM    C1S16739   3.381   0.362   3.355  0.2529  0.6266 -1.0794
  151OSM    H1S16740   3.394   0.259   3.315 -0.6377 -0.3017  0.9046
  151OSM    H1T16741   3.271   0.370   3.360  0.1794 -0.5836 -0.2296
  151OSM     NF16742   3.369   0.259   3.578  0.1985  0.2082  0.1152
  151OSM    HNF16743   3.298   0.277   3.645 -1.7123 -1.8907 -1.1841
  151OSM    C2S16744   3.438   0.358   3.498  1.2721  0.8954 -0.5492
  151OSM    H2S16745   3.539   0.313   3.490  1.1181  0.0360  1.7473
  151OSM    C3S16746   3.446   0.500   3.557  0.6496 -0.2269  0.3442
  151OSM    H3S16747   3.341   0.535   3.564  1.3112  1.9964 -0.0874
  151OSM     O316748   3.518   0.595   3.477  0.5629 -0.5218  0.1846
  151OSM    HO316749   3.509   0.557   3.389 -0.9162 -0.1472  0.1548
  151OSM    C4S16750   3.502   0.488   3.694 -0.0008 -0.2409  0.1968
  151OSM    H4S16751   3.424   0.500   3.770  0.2727  0.3401  0.3893
  151OSM    C5S16752   3.627   0.482   3.745 -0.4673 -0.0752 -0.2285
  151OSM    H5S16753   3.713   0.483   3.676  0.5978  1.4157  1.0381
  151OSM    C6S16754   3.655   0.471   3.889 -0.3973 -0.0105 -0.2499
  151OSM    H6S16755   3.594   0.552   3.935 -0.0049  0.6054 -0.7993
  151OSM    H6T16756   3.756   0.503   3.922 -0.3967  1.3288 -1.4632
  151OSM    C7S16757   3.623   0.328   3.931 -0.1664  0.0955 -0.1028
  151OSM    H7S16758   3.680   0.251   3.877 -0.4289 -0.6678  0.6895
  151OSM    H7T16759   3.515   0.302   3.920 -0.5497  1.0501  1.1489
  151OSM    C8S16760   3.669   0.293   4.076 -0.2109  0.0964 -0.0889
  151OSM    H8S16761   3.654   0.185   4.095 -3.4119  0.7814  2.1666
  151OSM    H8T16762   3.609   0.356   4.146 -0.7303 -0.2865 -0.1788
  151OSM    C9S16763   3.823   0.313   4.104 -0.0890 -0.0447  0.5784
  151OSM    H9S16764   3.861   0.417   4.109 -1.9084  0.6583  0.4217
  151OSM    H9T16765   3.871   0.261   4.019 -0.2842 -1.0302  1.0556
  151OSM   C10S16766   3.872   0.246   4.232 -0.3747  0.7041  0.5202
  151OSM   H10S16767   3.981   0.232   4.213 -0.4297  2.4926 -1.5404
  151OSM   H10T16768   3.824   0.146   4.235 -0.2578  0.6573  0.8895
  151OSM   C11S16769   3.850   0.325   4.360  0.3016 -0.7311  0.0215
  151OSM   H11S16770   3.741   0.340   4.378 -0.3916 -2.9187 -1.7645
  151OSM   H11T16771   3.903   0.422   4.352 -1.4765  0.6335  2.9989
  151OSM   C12S16772   3.911   0.244   4.471  0.0499  0.4437 -0.5206
  151OSM   H12S16773   4.020   0.226   4.458  0.4880  2.6930 -0.4172
  151OSM   H12T16774   3.867   0.142   4.465  1.5329 -0.2369 -0.2292
  151OSM   C13S16775   3.885   0.321   4.604  0.1691  0.3026  0.3869
  151OSM   H13S16776   3.774   0.332   4.601  0.0321 -0.8833 -2.5492
  151OSM   H13T16777   3.931   0.421   4.614  0.8857  0.0421 -0.2165
  151OSM   C14S16778   3.928   0.241   4.717 -0.2149  0.6844 -0.2021
  151OSM   H14S16779   4.032   0.203   4.702 -1.1966 -2.4884  0.3186
  151OSM   H14T16780   3.862   0.152   4.714 -0.4257  0.8530 -0.7332
  151OSM   C15S16781   3.913   0.305   4.857 -0.5725 -0.5939  0.1254
  151OSM   H15S16782   3.816   0.359   4.852 -0.5511 -0.6011 -0.3950
  151OSM   H15T16783   3.996   0.377   4.869 -0.2133 -1.1134  0.8737
  151OSM   C16S16784   3.897   0.200   4.970 -0.3543 -0.1994 -0.1869
  151OSM   H16S16785   3.993   0.145   4.963  0.2687  1.0285 -1.6932
  151OSM   H16T16786   3.822   0.130   4.928  2.0102 -1.2351 -2.9983
  151OSM   C17S16787   3.866   0.262   5.100  0.7738  0.9647 -0.4713
  151OSM   H17S16788   3.789   0.342   5.090 -0.6830 -0.0988  1.4948
  151OSM   H17T16789   3.953   0.320   5.139 -0.1360  1.9912  0.1020
  151OSM   C18S16790   3.818   0.158   5.206  0.0035 -0.4770 -0.2863
  151OSM   H18S16791   3.736   0.097   5.163 -1.1500  1.8617 -1.6141
  151OSM   H18T16792   3.780   0.210   5.296 -0.5774 -0.5330 -0.4973
  151OSM   H18U16793   3.898   0.089   5.241 -0.4557 -0.0530  1.6818
  151OSM    C1F16794   3.387   0.129   3.557 -0.7461  0.2620 -0.6496
  151OSM     OF16795   3.452   0.085   3.461 -0.2973  0.4451  0.0211
  151OSM    C2F16796   3.324   0.039   3.665  0.2648 -0.5218  0.7167
  151OSM    H2F16797   3.257  -0.032   3.612 -0.7103  0.5498  0.4665
  151OSM    H2G16798   3.262   0.097   3.736 -2.8109 -1.8657 -0.7187
  151OSM    C3F16799   3.429  -0.042   3.749  0.0955 -0.4748  0.3227
  151OSM    H3F16800   3.502   0.031   3.791 -0.8224  0.6375  0.0257
  151OSM    H3G16801   3.485  -0.118   3.689  1.1305  1.6703 -1.5532
  151OSM    C4F16802   3.366  -0.117   3.866 -0.5756  0.3097 -0.6115
  151OSM    H4F16803   3.441  -0.194   3.894  1.0413  1.7634 -0.8274
  151OSM    H4G16804   3.267  -0.165   3.845  0.2636 -2.6760  1.4508
  151OSM    C5F16805   3.340  -0.024   3.997 -0.4503 -0.4663  0.5039
  151OSM    H5F16806   3.241  -0.052   4.038 -0.1253 -1.9736  0.3112
  151OSM    H5G16807   3.333   0.085   3.976  1.2788 -0.5449 -0.7213
  151OSM    C6F16808   3.457  -0.023   4.099  0.2743  0.3635  0.4689
  151OSM    H6F16809   3.556   0.002   4.055  0.2067 -1.4219 -0.8182
  151OSM    H6G16810   3.463  -0.128   4.137 -1.1836 -0.2595 -0.9001
  151OSM    C7F16811   3.436   0.062   4.230  0.4332 -0.6199  0.5973
  151OSM    H7F16812   3.339   0.035   4.278 -0.2302  0.3106 -0.1702
  151OSM    H7G16813   3.442   0.168   4.198  2.0321 -1.2995 -1.5682
  151OSM    C8F16814   3.547   0.034   4.322  0.5861  0.0007 -0.2975
  151OSM    H8F16815   3.633   0.051   4.254 -0.5644 -2.0151 -2.4201
  151OSM    H8G16816   3.551  -0.071   4.358 -1.4499  0.3192  1.0044
  151OSM    C9F16817   3.545   0.130   4.432 -0.6467 -0.4675  0.5455
  151OSM    H9F16818   3.541   0.230   4.386  1.0477 -0.4616  0.3417
  151OSM   C10F16819   3.571   0.119   4.562  0.2984  0.2117 -0.1719
  151OSM   H10F16820   3.573   0.213   4.620 -1.0168  0.1459  0.0203
  151OSM   C11F16821   3.586   0.003   4.654  0.0992  0.1084 -0.3071
  151OSM   H11F16822   3.678  -0.045   4.613  2.4713  3.5730  0.4768
  151OSM   H11G16823   3.501  -0.068   4.656  1.3797 -1.5481  2.4004
  151OSM   C12F16824   3.602   0.046   4.806 -1.5099  0.2738 -0.2757
  151OSM   H12F16825   3.638   0.151   4.805  1.7804 -0.6957 -3.0895
  151OSM   H12G16826   3.683  -0.020   4.846 -0.9657 -0.9437 -3.0996
  151OSM   C13F16827   3.482   0.028   4.887  0.2146 -0.3244 -0.0017
  151OSM   H13F16828   3.434  -0.070   4.865  0.4427 -0.3630 -0.3418
  151OSM   H13G16829   3.409   0.106   4.857  1.0847 -0.0354 -1.4756
  151OSM   C14F16830   3.497   0.049   5.039 -0.7875  0.0261 -0.0514
  151OSM   H14F16831   3.543   0.149   5.045  1.1582 -0.4092 -4.2357
  151OSM   H14G16832   3.563  -0.026   5.088  1.3551  0.8945 -1.4717
  151OSM   C15F16833   3.365   0.032   5.124 -0.4258  0.5921  0.3805
  151OSM   H15F16834   3.317  -0.063   5.093  0.6762 -0.6505  2.2418
  151OSM   H15G16835   3.304   0.118   5.089 -3.0132 -0.7544  1.3648
  151OSM   C16F16836   3.379   0.031   5.277 -0.3819 -0.2832  0.2359
  151OSM   H16F16837   3.455  -0.048   5.296  1.0972 -0.3327 -4.3906
  151OSM   H16G16838   3.284   0.003   5.325 -1.2229 -0.0177 -1.2108
  151OSM   C17F16839   3.425   0.162   5.332  0.0295  0.2659 -0.3659
  151OSM   H17F16840   3.358   0.233   5.279 -4.1703 -3.7399 -1.1432
  151OSM   H17G16841   3.526   0.197   5.303  0.5114  0.8678  1.8723
  151OSM   C18F16842   3.403   0.168   5.486  0.0292  0.2318 -0.3409
  151OSM   H18F16843   3.299   0.134   5.506  0.2294  0.0660  0.4419
  151OSM   H18G16844   3.422   0.268   5.530 -1.4228 -0.2604  1.4850
  151OSM   H18H16845   3.466   0.090   5.535  0.7793  1.0584  0.0403
  152OSM      N16846   4.012   2.427   2.862 -0.2839 -0.0691  0.0598
  152OSM    C1516847   4.133   2.487   2.798  0.4162  0.0989 -0.0919
  152OSM   H15A16848   4.184   2.402   2.754 -1.1757 -0.7473 -0.3948
  152OSM   H15B16849   4.200   2.530   2.870 -0.4036 -0.5497  1.0814
  152OSM   H15C16850   4.109   2.557   2.719  1.9935  0.6205 -0.1266
  152OSM    C1416851   3.949   2.537   2.937  0.1749 -0.1957 -0.7495
  152OSM   H14A16852   3.925   2.625   2.879  0.7919  0.4902  0.0263
  152OSM   H14B16853   4.023   2.566   3.009  1.0822 -2.0014 -0.9054
  152OSM   H14C16854   3.854   2.516   2.984 -0.0745  1.6713 -0.3367
  152OSM    C1316855   3.915   2.371   2.761  0.1820 -0.3337 -0.0880
  152OSM   H13A16856   3.950   2.271   2.740 -0.0596 -0.4979  0.2752
  152OSM   H13B16857   3.892   2.426   2.671 -0.8164  1.4754  1.1987
  152OSM   H13C16858   3.827   2.360   2.823  0.4083 -0.1074  0.2797
  152OSM    C1216859   4.044   2.313   2.958 -0.9709  0.3320  0.0261
  152OSM   H12A16860   3.952   2.283   3.006 -0.2639  1.0417  1.9246
  152OSM   H12B16861   4.087   2.348   3.051  1.9479 -0.7692 -0.8211
  152OSM    C1116862   4.133   2.191   2.902  0.6026 -0.2988 -0.2314
  152OSM   H11A16863   4.126   2.189   2.792  0.6549 -0.9623 -0.2318
  152OSM   H11B16864   4.100   2.092   2.942  0.2935 -0.5840 -1.1674
  152OSM      P16865   4.316   2.201   3.091  0.0370  0.1640 -0.4907
  152OSM    O1316866   4.448   2.143   3.092  0.2861 -0.0729 -0.5830
  152OSM    O1416867   4.290   2.341   3.151  0.0912  0.5857  0.1092
  152OSM    O1116868   4.220   2.101   3.163  0.6624 -0.2037  0.2839
  152OSM    O1216869   4.267   2.213   2.945 -0.3438 -0.2599 -0.0230
  152OSM    C1S16870   4.254   2.014   3.271 -0.1002  0.4938  0.2138
  152OSM    H1S16871   4.357   2.036   3.307 -0.7228 -0.9382  3.1481
  152OSM    H1T16872   4.259   1.909   3.235  0.3934  0.7096 -0.3717
  152OSM     NF16873   4.188   1.949   3.506 -0.0461 -0.3238 -1.0599
  152OSM    HNF16874   4.150   1.859   3.529  0.4588 -0.5345 -1.0406
  152OSM    C2S16875   4.149   2.023   3.385  0.5921  0.5112  0.0927
  152OSM    H2S16876   4.136   2.128   3.419  0.2407  0.3644  0.4258
  152OSM    C3S16877   4.007   1.977   3.337 -0.1470 -0.5345 -0.3395
  152OSM    H3S16878   4.022   1.876   3.294 -0.2432 -0.0461 -1.5870
  152OSM     O316879   3.957   2.049   3.222  0.4351  0.1206 -0.1491
  152OSM    HO316880   4.036   2.086   3.181  1.0418  0.1340  0.9939
  152OSM    C4S16881   3.912   1.983   3.450 -0.4338  0.6584  0.2390
  152OSM    H4S16882   3.859   2.076   3.474 -0.1333  0.4522  1.7750
  152OSM    C5S16883   3.871   1.869   3.515 -0.3237 -0.3675  0.4368
  152OSM    H5S16884   3.905   1.768   3.486 -1.5098 -0.9208  0.9110
  152OSM    C6S16885   3.756   1.865   3.615 -0.2700 -0.0647  0.3798
  152OSM    H6S16886   3.686   1.786   3.581  0.1660 -0.7847  1.1281
  152OSM    H6T16887   3.698   1.960   3.621 -0.8005 -0.0687 -2.8986
  152OSM    C7S16888   3.794   1.841   3.755 -0.4202 -0.1873  0.1802
  152OSM    H7S16889   3.875   1.914   3.779 -0.3020 -0.8812  2.0395
  152OSM    H7T16890   3.827   1.738   3.780 -0.2412 -0.0757  0.4131
  152OSM    C8S16891   3.688   1.870   3.860  0.1120 -0.1151  0.2261
  152OSM    H8S16892   3.589   1.833   3.827 -0.5203  2.2045 -0.6759
  152OSM    H8T16893   3.672   1.979   3.871  1.6039  0.1688 -0.1881
  152OSM    C9S16894   3.734   1.818   3.997 -0.1801  0.2607  0.2275
  152OSM    H9S16895   3.829   1.866   4.028  1.2822 -1.0026 -2.0561
  152OSM    H9T16896   3.761   1.711   3.986  1.3564  0.7277 -0.8270
  152OSM   C10S16897   3.619   1.836   4.097  0.5487 -0.3542  0.1854
  152OSM   H10S16898   3.528   1.777   4.071  0.0482  0.0545  0.9513
  152OSM   H10T16899   3.586   1.942   4.100 -0.7142 -0.6861 -1.1754
  152OSM   C11S16900   3.660   1.794   4.240 -0.0668 -0.6601  0.1746
  152OSM   H11S16901   3.749   1.842   4.284 -0.3488  0.2545 -0.2244
  152OSM   H11T16902   3.682   1.686   4.248 -2.6947 -1.2638  0.2116
  152OSM   C12S16903   3.544   1.794   4.340  0.2016  0.2579  0.3955
  152OSM   H12S16904   3.461   1.739   4.292  0.7466 -0.3918  0.1710
  152OSM   H12T16905   3.513   1.900   4.351  0.0622  0.4093 -1.3063
  152OSM   C13S16906   3.576   1.723   4.467  0.1823 -0.5632 -0.3888
  152OSM   H13S16907   3.679   1.741   4.504 -0.0330 -0.3627  0.1325
  152OSM   H13T16908   3.573   1.613   4.452  1.2194 -0.4039 -1.8533
  152OSM   C14S16909   3.472   1.761   4.571 -0.8409  0.0725 -0.7975
  152OSM   H14S16910   3.374   1.750   4.520 -0.8269 -2.4328 -0.4377
  152OSM   H14T16911   3.491   1.868   4.591  2.2166  0.0863 -2.9853
  152OSM   C15S16912   3.481   1.684   4.704  0.9320  0.2819 -0.0500
  152OSM   H15S16913   3.444   1.579   4.699 -3.5793  1.5667  1.5460
  152OSM   H15T16914   3.402   1.723   4.770 -0.1227 -2.7066  0.6149
  152OSM   C16S16915   3.609   1.703   4.777 -0.4400 -0.0900 -0.1540
  152OSM   H16S16916   3.623   1.801   4.827 -1.3336 -0.7485  1.4818
  152OSM   H16T16917   3.686   1.675   4.703  0.8365  1.5078  0.5104
  152OSM   C17S16918   3.621   1.604   4.894  0.5543 -0.6061  0.8342
  152OSM   H17S16919   3.722   1.592   4.939  0.6889 -0.3826  0.5891
  152OSM   H17T16920   3.593   1.504   4.855 -0.3822 -0.7006  1.7125
  152OSM   C18S16921   3.525   1.638   5.007 -0.7965 -0.3583  0.0170
  152OSM   H18S16922   3.572   1.722   5.063  0.5218 -0.9089 -0.2348
  152OSM   H18T16923   3.511   1.555   5.080  1.5543 -0.5360  0.3329
  152OSM   H18U16924   3.422   1.665   4.974 -1.2799 -2.2011 -0.1333
  152OSM    C1F16925   4.290   1.986   3.575 -0.5154 -1.1136 -0.0774
  152OSM     OF16926   4.343   2.094   3.545  0.5141  0.0661  0.0158
  152OSM    C2F16927   4.325   1.920   3.698 -0.1798  0.7497 -0.6620
  152OSM    H2F16928   4.373   1.821   3.680 -2.5465 -0.6374  0.2397
  152OSM    H2G16929   4.232   1.882   3.744 -0.0020 -0.0025 -0.9145
  152OSM    C3F16930   4.410   2.003   3.802 -0.1677  0.5077  0.1504
  152OSM    H3F16931   4.349   2.094   3.822 -1.8122 -0.4870 -0.1436
  152OSM    H3G16932   4.506   2.026   3.750  0.8415 -1.0180  1.2330
  152OSM    C4F16933   4.426   1.926   3.937  0.2506 -0.0610 -0.0198
  152OSM    H4F16934   4.509   1.853   3.933  1.4307  1.2602 -0.4171
  152OSM    H4G16935   4.338   1.864   3.964  1.2570 -1.0001  1.1491
  152OSM    C5F16936   4.453   2.026   4.051 -0.3693  0.3366  0.2902
  152OSM    H5F16937   4.380   2.109   4.047  1.1078  1.9207  3.2712
  152OSM    H5G16938   4.550   2.077   4.036  0.7341 -2.1117 -1.5832
  152OSM    C6F16939   4.426   1.958   4.188  0.2117  0.8724  0.1051
  152OSM    H6F16940   4.451   1.850   4.182 -1.6972  0.3654  0.4810
  152OSM    H6G16941   4.317   1.967   4.206  0.3859  3.8064  0.1556
  152OSM    C7F16942   4.508   2.023   4.301  0.5585  0.1633 -0.2210
  152OSM    H7F16943   4.463   2.115   4.344  0.9143  0.1912  0.0964
  152OSM    H7G16944   4.612   2.041   4.266  0.5678 -0.2431 -0.4028
  152OSM    C8F16945   4.526   1.936   4.425 -0.1082 -0.3265 -0.3183
  152OSM    H8F16946   4.573   2.004   4.500 -1.3124  0.4878 -0.2753
  152OSM    H8G16947   4.589   1.848   4.401 -0.3790 -0.4653 -0.5231
  152OSM    C9F16948   4.400   1.886   4.488 -0.1878  0.3771  0.1994
  152OSM    H9F16949   4.337   1.836   4.413 -0.6631 -0.9658  1.4511
  152OSM   C10F16950   4.370   1.889   4.619 -0.1971 -0.9303 -0.2312
  152OSM   H10F16951   4.265   1.866   4.640 -0.4521  0.5603  0.2324
  152OSM   C11F16952   4.446   1.938   4.741  0.9133 -0.7037 -0.1973
  152OSM   H11F16953   4.407   2.028   4.793  0.5669 -0.2814 -1.1701
  152OSM   H11G16954   4.552   1.957   4.713  0.6920  0.2232 -0.4375
  152OSM   C12F16955   4.460   1.827   4.852 -0.3515 -0.3282  0.4770
  152OSM   H12F16956   4.538   1.836   4.930 -0.7317  2.1803  0.6661
  152OSM   H12G16957   4.479   1.727   4.808 -0.6811 -0.7841  1.3645
  152OSM   C13F16958   4.325   1.803   4.924 -0.7024 -0.4778  0.8358
  152OSM   H13F16959   4.245   1.771   4.855 -0.3321 -0.8377  0.5673
  152OSM   H13G16960   4.295   1.897   4.974  1.8956  0.1196  1.4366
  152OSM   C14F16961   4.344   1.683   5.022 -0.1515  0.7018 -0.1749
  152OSM   H14F16962   4.434   1.706   5.083 -0.1758  0.2954  0.0178
  152OSM   H14G16963   4.359   1.596   4.955 -2.6191 -0.0939  0.1803
  152OSM   C15F16964   4.221   1.662   5.100  0.5850  0.1489 -0.6183
  152OSM   H15F16965   4.137   1.709   5.044  0.3403 -0.2241 -0.5708
  152OSM   H15G16966   4.228   1.726   5.190  0.3326  1.3783 -1.4549
  152OSM   C16F16967   4.198   1.515   5.134  0.2468  0.1922  0.0736
  152OSM   H16F16968   4.220   1.456   5.043  2.0720  0.2925  0.4012
  152OSM   H16G16969   4.092   1.497   5.161 -0.6547  1.6845 -2.1594
  152OSM   C17F16970   4.276   1.459   5.260  0.3931 -0.4438 -0.0305
  152OSM   H17F16971   4.260   1.528   5.346  0.6203  0.0721 -0.3942
  152OSM   H17G16972   4.384   1.452   5.233  0.1093  1.6247 -1.9545
  152OSM   C18F16973   4.221   1.323   5.298  0.5121  0.4314 -0.3310
  152OSM   H18F16974   4.126   1.326   5.355  1.2417 -0.5778  0.9713
  152OSM   H18G16975   4.298   1.289   5.370  0.7608  1.3111 -0.1598
  152OSM   H18H16976   4.208   1.248   5.218 -0.0574  1.1410 -0.9165
  153OSM      N16977   4.296   1.129   3.111 -0.1788 -0.6664  0.3145
  153OSM    C1516978   4.312   1.015   3.199  0.0984 -0.2721  0.5811
  153OSM   H15A16979   4.264   1.027   3.294  2.3522  0.5603  1.6935
  153OSM   H15B16980   4.416   0.989   3.211  0.6330  0.7299 -1.4035
  153OSM   H15C16981   4.268   0.923   3.165  1.4679 -0.1611 -1.6979
  153OSM    C1416982   4.360   1.108   2.976 -0.4767 -0.1823 -0.1610
  153OSM   H14A16983   4.331   1.011   2.938  0.0963 -0.1072 -0.8215
  153OSM   H14B16984   4.468   1.098   2.983 -0.5727 -0.5815  0.8814
  153OSM   H14C16985   4.351   1.187   2.902  0.4279 -1.3755 -1.6270
  153OSM    C1316986   4.148   1.155   3.089 -0.1527 -0.2273 -0.0365
  153OSM   H13A16987   4.100   1.145   3.185 -0.1929 -0.4845 -0.0808
  153OSM   H13B16988   4.108   1.087   3.014  1.5614 -1.9392  0.5118
  153OSM   H13C16989   4.137   1.253   3.045  1.0546  0.5975  1.4065
  153OSM    C1216990   4.349   1.252   3.188  0.3254 -0.2263  0.3612
  153OSM   H12A16991   4.449   1.220   3.215  1.7603  1.2727 -2.6581
  153OSM   H12B16992   4.304   1.267   3.285 -0.4208  1.7729 -0.2428
  153OSM    C1116993   4.359   1.388   3.110 -0.0845  0.6722 -0.6922
  153OSM   H11A16994   4.413   1.371   3.015  1.7847 -0.0549  0.4578
  153OSM   H11B16995   4.416   1.458   3.174  0.7164  0.5489 -1.2644
  153OSM      P16996   4.180   1.583   3.153 -0.0491 -0.2361  0.1703
  153OSM    O1316997   4.281   1.690   3.116  0.0850 -0.0277 -0.0378
  153OSM    O1416998   4.038   1.604   3.116 -0.3758  0.7649 -0.1282
  153OSM    O1116999   4.182   1.553   3.306  0.3322 -0.3151  0.3901
  153OSM    O1217000   4.234   1.444   3.086 -0.6570  0.3441  0.1391
  153OSM    C1S17001   4.116   1.434   3.355 -0.1366  0.1164  0.1117
  153OSM    H1S17002   4.173   1.343   3.326  4.4282  2.5859  0.4191
  153OSM    H1T17003   4.012   1.429   3.317  0.5159  1.4208 -1.9880
  153OSM     NF17004   4.086   1.290   3.555  0.3795 -0.1386  0.0333
  153OSM    HNF17005   3.994   1.286   3.593  0.6529  1.1763  0.9226
  153OSM    C2S17006   4.120   1.422   3.512 -0.3681 -0.0157  0.4237
  153OSM    H2S17007   4.226   1.439   3.539 -0.5481  2.9845 -0.4541
  153OSM    C3S17008   4.052   1.546   3.580  0.3843  0.2454  0.3615
  153OSM    H3S17009   3.956   1.550   3.525  0.4290 -0.8110  0.1877
  153OSM     O317010   4.120   1.667   3.547 -0.2486 -0.2718  0.2336
  153OSM    HO317011   4.183   1.638   3.481 -0.9782  0.0407 -0.6159
  153OSM    C4S17012   4.029   1.537   3.729  0.4063  0.1983  0.8826
  153OSM    H4S17013   3.925   1.559   3.757  0.3364  0.1187  0.6931
  153OSM    C5S17014   4.122   1.516   3.820 -0.1244  0.1018 -0.0292
  153OSM    H5S17015   4.229   1.501   3.799 -0.3169 -0.5909 -0.5667
  153OSM    C6S17016   4.089   1.499   3.970  0.1105  0.2089  0.6261
  153OSM    H6S17017   4.143   1.422   4.029  0.6611  1.5618  1.9480
  153OSM    H6T17018   3.983   1.469   3.978  0.5463 -1.9301 -0.6845
  153OSM    C7S17019   4.108   1.633   4.040  0.3672 -0.2614 -0.3069
  153OSM    H7S17020   4.069   1.717   3.980  1.2398 -0.9742 -1.9321
  153OSM    H7T17021   4.219   1.634   4.046  0.3705 -2.0004  0.4375
  153OSM    C8S17022   4.041   1.633   4.177 -0.0427 -0.1355  0.1797
  153OSM    H8S17023   3.942   1.590   4.152 -0.8974  0.4590  2.2732
  153OSM    H8T17024   4.031   1.734   4.222  1.8324 -0.3533  1.1751
  153OSM    C9S17025   4.105   1.536   4.275  0.3791 -0.0031  0.3841
  153OSM    H9S17026   4.215   1.547   4.268  0.4565 -1.1374 -0.6013
  153OSM    H9T17027   4.068   1.435   4.244 -2.1227  1.0330 -0.2484
  153OSM   C10S17028   4.053   1.576   4.412  0.6512  1.1530 -0.4271
  153OSM   H10S17029   3.945   1.602   4.407 -0.0687 -1.6532 -4.1649
  153OSM   H10T17030   4.114   1.663   4.444  0.5996  0.9399  0.2556
  153OSM   C11S17031   4.079   1.458   4.512  0.7688  0.4753  0.6394
  153OSM   H11S17032   4.187   1.430   4.520  1.1538  1.8006  0.2761
  153OSM   H11T17033   4.014   1.373   4.483 -1.5049  2.3231  0.0184
  153OSM   C12S17034   4.040   1.496   4.660  0.7213 -0.3329  0.0009
  153OSM   H12S17035   3.937   1.539   4.662  1.1906  0.9890 -1.4231
  153OSM   H12T17036   4.101   1.578   4.704 -0.8501  1.0154 -0.2006
  153OSM   C13S17037   4.036   1.376   4.750 -0.2920 -0.5389 -0.3845
  153OSM   H13S17038   4.133   1.369   4.802  0.8716 -0.4074 -2.4428
  153OSM   H13T17039   4.029   1.280   4.694 -1.1182 -0.3062 -0.6929
  153OSM   C14S17040   3.925   1.384   4.853 -0.0819 -0.7504  0.2877
  153OSM   H14S17041   3.822   1.376   4.813  0.3348 -0.9388 -0.7738
  153OSM   H14T17042   3.920   1.485   4.900 -2.6041 -0.9871  0.6688
  153OSM   C15S17043   3.943   1.272   4.957  0.0016  0.3793 -0.7787
  153OSM   H15S17044   4.048   1.282   4.992  0.4077 -1.8375 -1.1916
  153OSM   H15T17045   3.935   1.174   4.905  0.9991 -0.7934  1.1816
  153OSM   C16S17046   3.850   1.289   5.077 -0.2973 -0.3359  0.1222
  153OSM   H16S17047   3.744   1.292   5.043  0.2651  2.1673 -1.6880
  153OSM   H16T17048   3.885   1.376   5.136 -0.2442 -0.3098  0.0517
  153OSM   C17S17049   3.852   1.167   5.171 -0.4323 -0.3048  0.4378
  153OSM   H17S17050   3.953   1.154   5.214 -0.2339  0.3559  0.1866
  153OSM   H17T17051   3.808   1.078   5.121 -0.1801 -0.1386 -0.0903
  153OSM   C18S17052   3.773   1.184   5.295 -0.8551  0.0621  0.0123
  153OSM   H18S17053   3.666   1.197   5.270 -0.4485  0.4477 -1.7106
  153OSM   H18T17054   3.817   1.270   5.351 -0.0568 -0.6706  0.5379
  153OSM   H18U17055   3.784   1.087   5.347  1.3746 -0.0490 -0.5584
  153OSM    C1F17056   4.151   1.176   3.548 -0.0499 -0.7715 -0.2867
  153OSM     OF17057   4.261   1.167   3.494 -0.3563 -0.4993  0.5043
  153OSM    C2F17058   4.082   1.054   3.598 -0.7187 -0.3747  0.6759
  153OSM    H2F17059   4.097   0.980   3.517  0.0264  1.2756 -0.7691
  153OSM    H2G17060   3.972   1.063   3.610 -0.9183 -0.6783 -0.7805
  153OSM    C3F17061   4.142   0.985   3.714 -0.5323  0.5513 -0.2758
  153OSM    H3F17062   4.251   0.964   3.711 -0.3332  1.4868 -3.5590
  153OSM    H3G17063   4.086   0.889   3.726 -2.2818  1.4451 -0.9318
  153OSM    C4F17064   4.127   1.075   3.840 -0.0765  0.5024 -0.6843
  153OSM    H4F17065   4.021   1.106   3.853 -0.3030 -0.2957 -0.6053
  153OSM    H4G17066   4.183   1.170   3.825 -3.1570  2.4922 -0.6266
  153OSM    C5F17067   4.180   1.021   3.972 -0.1476 -0.2306 -0.3213
  153OSM    H5F17068   4.286   0.992   3.957 -0.2655 -0.2301 -1.1957
  153OSM    H5G17069   4.118   0.935   4.007  0.4834  0.5141  2.9567
  153OSM    C6F17070   4.166   1.123   4.088 -0.4668  0.1095  0.7605
  153OSM    H6F17071   4.059   1.118   4.117 -0.8141 -0.2933 -0.5363
  153OSM    H6G17072   4.197   1.224   4.054  1.9026 -0.6237  0.5667
  153OSM    C7F17073   4.260   1.087   4.206 -0.2995  0.4853 -0.0462
  153OSM    H7F17074   4.368   1.098   4.183 -0.0742 -3.2649 -1.5630
  153OSM    H7G17075   4.248   0.980   4.235  1.5416 -0.1309 -1.3269
  153OSM    C8F17076   4.234   1.180   4.325 -0.2486  0.3953  0.4434
  153OSM    H8F17077   4.229   1.286   4.290 -1.6046  0.3343  0.4289
  153OSM    H8G17078   4.328   1.166   4.383 -0.6051  1.1756  1.2374
  153OSM    C9F17079   4.115   1.129   4.403  0.0007 -0.3728 -0.2443
  153OSM    H9F17080   4.019   1.159   4.358  0.2322 -0.5034 -0.8483
  153OSM   C10F17081   4.128   1.040   4.503  0.1925 -0.8226  0.3140
  153OSM   H10F17082   4.034   1.006   4.548 -0.6135  1.0480  0.1285
  153OSM   C11F17083   4.253   0.985   4.559 -0.5352 -0.1681 -1.1531
  153OSM   H11F17084   4.341   1.001   4.493 -0.4948 -0.2819 -1.1271
  153OSM   H11G17085   4.251   0.875   4.546  1.4688 -0.3326 -0.4179
  153OSM   C12F17086   4.287   0.993   4.711  0.5897 -0.0449  1.0773
  153OSM   H12F17087   4.340   1.090   4.724  1.0349 -0.1392  0.0746
  153OSM   H12G17088   4.366   0.916   4.723  0.4315 -0.7808 -1.8173
  153OSM   C13F17089   4.163   0.961   4.795  0.0019 -0.4111  0.5860
  153OSM   H13F17090   4.112   0.870   4.758  0.5224  0.0741 -1.4883
  153OSM   H13G17091   4.083   1.031   4.763  0.9177 -0.1045 -1.1500
  153OSM   C14F17092   4.192   0.963   4.940 -0.3636  0.2306  0.2061
  153OSM   H14F17093   4.197   1.068   4.978  3.1230  0.9728 -1.8099
  153OSM   H14G17094   4.293   0.920   4.955  0.2403  0.4172 -2.6903
  153OSM   C15F17095   4.095   0.886   5.038 -0.3591 -0.3203 -0.3626
  153OSM   H15F17096   4.108   0.779   5.012 -1.0294 -0.7627  1.0042
  153OSM   H15G17097   3.991   0.919   5.021 -0.0865  0.6664 -0.1887
  153OSM   C16F17098   4.139   0.905   5.184 -0.9962 -0.2055 -0.4697
  153OSM   H16F17099   4.127   1.012   5.212 -2.6989 -0.1956 -1.0979
  153OSM   H16G17100   4.248   0.887   5.194 -0.6426  2.4247  1.7701
  153OSM   C17F17101   4.050   0.826   5.280  1.2701  0.1933 -0.1993
  153OSM   H17F17102   3.945   0.830   5.243  0.8971 -0.5691  0.7338
  153OSM   H17G17103   4.048   0.862   5.385 -2.0522  0.4143 -0.2149
  153OSM   C18F17104   4.093   0.676   5.292  0.2059 -0.1761  0.0704
  153OSM   H18F17105   4.017   0.624   5.352 -1.7955  0.8560 -1.4464
  153OSM   H18G17106   4.189   0.675   5.349 -0.3628  1.5918  1.1237
  153OSM   H18H17107   4.088   0.627   5.193 -2.5170  2.6393 -1.3597
  154OSM      N17108   0.498   5.095   3.032  0.0681  0.3157 -0.4720
  154OSM    C1517109   0.563   5.097   2.896 -0.4074 -0.4117 -0.1765
  154OSM   H15A17110   0.566   4.997   2.857  2.8873 -0.3485 -0.3769
  154OSM   H15B17111   0.665   5.127   2.912 -0.9068  0.6547  1.2670
  154OSM   H15C17112   0.517   5.178   2.842  0.2738 -0.2648 -0.5464
  154OSM    C1417113   0.352   5.085   3.020  0.5705 -0.1690 -0.1651
  154OSM   H14A17114   0.305   5.107   3.114 -0.4196  0.9869 -0.9028
  154OSM   H14B17115   0.321   4.983   3.006 -1.2706  0.0425  1.8444
  154OSM   H14C17116   0.312   5.156   2.948 -0.0868 -0.5113 -0.1442
  154OSM    C1317117   0.543   4.968   3.093  0.0578 -1.4128  0.8203
  154OSM   H13A17118   0.487   4.936   3.180 -0.4286 -0.9762  0.6732
  154OSM   H13B17119   0.644   4.982   3.127  0.1196 -0.8742  0.4253
  154OSM   H13C17120   0.537   4.886   3.023  0.1884  0.0550 -0.9846
  154OSM    C1217121   0.526   5.219   3.115  0.6808 -0.1548  0.4655
  154OSM   H12A17122   0.624   5.214   3.161  0.8301 -1.3800  0.0542
  154OSM   H12B17123   0.454   5.206   3.195  0.6891 -0.5177  0.4162
  154OSM    C1117124   0.508   5.358   3.050  0.8182 -0.0749  0.7939
  154OSM   H11A17125   0.601   5.389   2.997  0.8742 -1.3867  0.0613
  154OSM   H11B17126   0.503   5.425   3.139  1.4547  0.1576  0.6628
  154OSM      P17127   0.267   5.460   3.001 -0.4282 -0.2304  0.0327
  154OSM    O1317128   0.307   5.602   2.990 -0.0010 -0.8035 -0.0058
  154OSM    O1417129   0.162   5.416   2.917 -0.2287 -0.7001 -0.1544
  154OSM    O1117130   0.223   5.424   3.153 -0.5180  0.1098  0.3431
  154OSM    O1217131   0.389   5.364   2.969  0.0106 -0.6500  0.1250
  154OSM    C1S17132   0.254   5.539   3.243 -0.4152 -0.0213 -0.5957
  154OSM    H1S17133   0.177   5.619   3.238  1.1759  1.8378  2.1680
  154OSM    H1T17134   0.357   5.580   3.236 -1.1686  1.9278 -1.1954
  154OSM     NF17135   0.279   5.599   3.488  0.0673 -0.3868 -0.6448
  154OSM    HNF17136   0.363   5.591   3.541 -1.4173 -1.4045  1.7243
  154OSM    C2S17137   0.244   5.497   3.402  0.3057 -0.0962  0.7660
  154OSM    H2S17138   0.137   5.473   3.417  0.8062 -2.0565  1.5096
  154OSM    C3S17139   0.312   5.358   3.428 -0.3015 -0.5992 -0.0646
  154OSM    H3S17140   0.423   5.372   3.430 -0.3414 -0.3355  1.2499
  154OSM     O317141   0.284   5.254   3.337  0.7189  0.7608 -0.2744
  154OSM    HO317142   0.250   5.298   3.258 -1.2906  0.7343  0.5214
  154OSM    C4S17143   0.274   5.305   3.562 -0.1858 -0.5637 -0.4997
  154OSM    H4S17144   0.178   5.340   3.603  0.0371  0.6509 -0.9772
  154OSM    C5S17145   0.371   5.253   3.644 -0.1738 -1.3688 -0.2403
  154OSM    H5S17146   0.474   5.244   3.605  1.2325 -1.1508  3.1104
  154OSM    C6S17147   0.356   5.219   3.791 -0.4073  0.4639  0.9719
  154OSM    H6S17148   0.444   5.254   3.849  1.6185 -1.1692 -0.9460
  154OSM    H6T17149   0.355   5.108   3.791 -1.1874  0.4396  2.4780
  154OSM    C7S17150   0.220   5.257   3.862  0.3056 -0.0850  0.5753
  154OSM    H7S17151   0.140   5.183   3.843 -1.4287  0.6631  4.1199
  154OSM    H7T17152   0.195   5.361   3.833  0.2391 -0.9486 -2.8507
  154OSM    C8S17153   0.224   5.259   4.021  0.1340 -0.0647 -0.0793
  154OSM    H8S17154   0.123   5.273   4.064  0.1970  1.2066 -0.3147
  154OSM    H8T17155   0.268   5.356   4.050 -0.9622 -0.1299  2.0085
  154OSM    C9S17156   0.288   5.134   4.072 -0.0263 -0.5327  0.2426
  154OSM    H9S17157   0.398   5.128   4.080 -0.1039 -0.8894  1.1097
  154OSM    H9T17158   0.249   5.049   4.011 -2.1580  0.8985 -0.5143
  154OSM   C10S17159   0.247   5.104   4.213  0.7850 -0.3745 -0.8348
  154OSM   H10S17160   0.290   5.006   4.244  3.7246  1.6342  2.0503
  154OSM   H10T17161   0.139   5.080   4.196  0.8671 -2.2089  0.9058
  154OSM   C11S17162   0.269   5.210   4.318 -0.1037 -0.2687  0.4423
  154OSM   H11S17163   0.232   5.312   4.293  1.9208  0.5016  0.4295
  154OSM   H11T17164   0.377   5.236   4.327 -0.3684  1.3756 -0.5968
  154OSM   C12S17165   0.213   5.167   4.455 -0.4056  0.0561 -0.3264
  154OSM   H12S17166   0.272   5.074   4.475 -2.1964 -1.2325 -0.8421
  154OSM   H12T17167   0.106   5.147   4.438 -0.3682  1.7535 -3.1188
  154OSM   C13S17168   0.220   5.280   4.564 -0.3909 -0.0153  0.3757
  154OSM   H13S17169   0.164   5.368   4.526  2.5432  2.8038  2.1516
  154OSM   H13T17170   0.323   5.317   4.583  0.5412 -2.4747  0.5334
  154OSM   C14S17171   0.163   5.244   4.703 -0.0186 -0.8534 -0.2249
  154OSM   H14S17172   0.225   5.160   4.742 -1.0903 -0.5829  2.2485
  154OSM   H14T17173   0.058   5.214   4.681  0.3059 -2.6600  0.5490
  154OSM   C15S17174   0.181   5.368   4.793 -0.4037  0.4532  0.1335
  154OSM   H15S17175   0.130   5.456   4.749 -0.4683  0.2099 -0.2865
  154OSM   H15T17176   0.290   5.389   4.798 -0.2089 -0.6757  0.9953
  154OSM   C16S17177   0.126   5.346   4.932 -0.4490 -0.1793  0.5851
  154OSM   H16S17178   0.211   5.297   4.985  0.3277  0.9196  0.3847
  154OSM   H16T17179   0.039   5.277   4.923 -0.1950 -0.3578 -0.7506
  154OSM   C17S17180   0.088   5.470   5.009 -0.4490 -0.0967  0.2377
  154OSM   H17S17181  -0.005   5.516   4.968 -0.1081 -1.0465 -1.7262
  154OSM   H17T17182   0.177   5.535   5.000  0.5014 -1.4410 -0.3621
  154OSM   C18S17183   0.058   5.436   5.153  0.6342 -0.0173 -0.4575
  154OSM   H18S17184   0.036   5.528   5.211  2.4042 -1.3659  2.5847
  154OSM   H18T17185   0.146   5.387   5.200 -0.2952 -1.7579 -0.4552
  154OSM   H18U17186  -0.035   5.376   5.143 -0.3490  1.0958  1.4034
  154OSM    C1F17187   0.209   5.711   3.493  0.3915 -0.5437  0.0011
  154OSM     OF17188   0.099   5.730   3.445 -0.0168 -0.2780 -0.4647
  154OSM    C2F17189   0.274   5.829   3.558 -0.6292 -0.9647  0.0607
  154OSM    H2F17190   0.290   5.900   3.474 -0.0341 -2.1985 -0.9065
  154OSM    H2G17191   0.375   5.798   3.593 -0.4707  0.5953  1.0876
  154OSM    C3F17192   0.178   5.891   3.662  0.4220 -0.6111 -0.6247
  154OSM    H3F17193   0.098   5.956   3.621 -1.1988 -1.4042  1.1137
  154OSM    H3G17194   0.236   5.974   3.708 -0.3410 -1.1320  1.3902
  154OSM    C4F17195   0.128   5.807   3.783  0.2511  1.0795  0.2128
  154OSM    H4F17196   0.097   5.715   3.730  2.8574  1.3147 -1.9470
  154OSM    H4G17197   0.046   5.862   3.834  0.0892  2.0393 -1.0303
  154OSM    C5F17198   0.252   5.779   3.875 -0.2603 -0.8120 -0.2884
  154OSM    H5F17199   0.307   5.871   3.905 -0.5793 -0.6850 -0.0783
  154OSM    H5G17200   0.324   5.711   3.826 -0.1042  0.0049 -1.2232
  154OSM    C6F17201   0.205   5.720   4.010 -0.2397  0.4780 -0.4117
  154OSM    H6F17202   0.159   5.626   3.975 -0.2411  0.0136  0.8091
  154OSM    H6G17203   0.133   5.797   4.044  0.2401  1.3300 -1.2704
  154OSM    C7F17204   0.336   5.704   4.097  0.5520 -0.0078  0.4877
  154OSM    H7F17205   0.405   5.790   4.083  1.9074 -0.9568  1.0899
  154OSM    H7G17206   0.388   5.616   4.054 -0.3784 -0.6065  0.5601
  154OSM    C8F17207   0.298   5.684   4.241 -0.6330  0.3803 -1.2250
  154OSM    H8F17208   0.254   5.583   4.256 -1.0503  0.8303  0.9019
  154OSM    H8G17209   0.217   5.757   4.265 -1.5004 -0.3926 -1.7396
  154OSM    C9F17210   0.414   5.697   4.340  0.5489 -0.1478  0.3347
  154OSM    H9F17211   0.515   5.686   4.298 -0.2387  0.4918 -1.8381
  154OSM   C10F17212   0.400   5.700   4.477 -0.5155 -0.2603  0.5823
  154OSM   H10F17213   0.494   5.703   4.534  1.3864  3.8734 -2.2655
  154OSM   C11F17214   0.268   5.706   4.547 -0.3178 -0.2297  0.0790
  154OSM   H11F17215   0.241   5.610   4.595  1.0626 -1.1405 -0.9122
  154OSM   H11G17216   0.185   5.732   4.478  0.8579 -1.5949 -1.9337
  154OSM   C12F17217   0.249   5.801   4.670  0.3660  0.3514 -1.0583
  154OSM   H12F17218   0.140   5.800   4.693  0.5581 -0.4246 -0.1303
  154OSM   H12G17219   0.279   5.905   4.645  1.1124  0.0057 -1.6265
  154OSM   C13F17220   0.325   5.751   4.790 -0.2334  0.7721 -0.3564
  154OSM   H13F17221   0.434   5.748   4.770 -0.4618  0.7032 -1.6344
  154OSM   H13G17222   0.297   5.644   4.803  2.9388 -0.2264 -0.9257
  154OSM   C14F17223   0.292   5.827   4.923  0.0499 -0.2198  0.8693
  154OSM   H14F17224   0.296   5.754   5.006 -0.3855  0.1990  1.2632
  154OSM   H14G17225   0.189   5.866   4.930 -0.0188 -0.6248  2.6028
  154OSM   C15F17226   0.406   5.926   4.954  0.0240  0.1760 -0.2069
  154OSM   H15F17227   0.423   5.993   4.867 -0.1648 -0.9553 -1.1365
  154OSM   H15G17228   0.499   5.864   4.956 -0.0660  0.0479  1.3873
  154OSM   C16F17229   0.409   5.987   5.095 -0.4684  0.6969  0.2374
  154OSM   H16F17230   0.383   5.901   5.160  0.3237 -1.0724 -1.6958
  154OSM   H16G17231   0.330   6.063   5.113  0.5778  1.5305  1.4730
  154OSM   C17F17232   0.535   6.057   5.143  0.0748 -0.9059 -0.3613
  154OSM   H17F17233   0.528   6.152   5.087 -1.6473 -1.1577 -0.6174
  154OSM   H17G17234   0.625   5.996   5.122  0.9014 -0.2082  0.9972
  154OSM   C18F17235   0.538   6.092   5.295 -0.3905  0.2697  0.0685
  154OSM   H18F17236   0.440   6.138   5.320 -0.0204  1.1543 -0.0775
  154OSM   H18G17237   0.616   6.160   5.334 -1.0340  0.6160  0.7676
  154OSM   H18H17238   0.542   5.992   5.343  0.1029 -0.3836 -1.2648
  155OSM      N17239   2.791   4.278   3.405 -0.0729  0.8106  0.3528
  155OSM    C1517240   2.644   4.259   3.445 -1.3708 -0.1037 -0.1390
  155OSM   H15A17241   2.604   4.353   3.480 -1.3826  0.8643 -2.5311
  155OSM   H15B17242   2.647   4.187   3.525 -1.2690 -0.1754 -0.2076
  155OSM   H15C17243   2.586   4.221   3.362  0.1494 -0.9068 -0.8854
  155OSM    C1417244   2.797   4.356   3.281 -0.4530 -0.1841  0.6417
  155OSM   H14A17245   2.891   4.407   3.279  0.0325 -1.0672 -1.6336
  155OSM   H14B17246   2.728   4.438   3.291 -2.0844 -1.4421  0.2256
  155OSM   H14C17247   2.792   4.302   3.188 -2.2946  1.3084 -0.1807
  155OSM    C1317248   2.858   4.345   3.519  0.1692 -0.7039  0.0983
  155OSM   H13A17249   2.964   4.332   3.504  0.4653  1.4945  0.0271
  155OSM   H13B17250   2.844   4.315   3.622  1.1603  1.6701  0.9925
  155OSM   H13C17251   2.840   4.451   3.513  0.2247 -0.7595 -1.4298
  155OSM    C1217252   2.862   4.146   3.377 -0.0463  0.7708 -0.1093
  155OSM   H12A17253   2.796   4.093   3.310 -0.2590 -0.0780  0.7640
  155OSM   H12B17254   2.857   4.083   3.464  1.9436 -1.2058 -1.3142
  155OSM    C1117255   2.998   4.148   3.307  0.1157 -0.0940 -0.4516
  155OSM   H11A17256   2.973   4.194   3.209 -2.1576  1.7392  0.8780
  155OSM   H11B17257   3.028   4.041   3.304  1.6978  0.2723  0.8037
  155OSM      P17258   3.239   4.228   3.320  0.0005 -0.3036 -0.5891
  155OSM    O1317259   3.294   4.092   3.302 -0.1181  0.0708  0.2692
  155OSM    O1417260   3.241   4.320   3.205 -0.6087  0.4057  0.1720
  155OSM    O1117261   3.311   4.304   3.436 -0.1479 -0.4361 -0.2840
  155OSM    O1217262   3.095   4.226   3.378  0.1189 -0.2712 -0.1815
  155OSM    C1S17263   3.287   4.255   3.572  0.1106 -0.8103 -0.3910
  155OSM    H1S17264   3.358   4.172   3.592  0.7952 -0.0757  0.2625
  155OSM    H1T17265   3.179   4.238   3.592  0.3676 -1.6783  0.3425
  155OSM     NF17266   3.262   4.312   3.810  0.4066 -0.9300 -0.1031
  155OSM    HNF17267   3.167   4.333   3.834  0.6506  0.5116 -0.3653
  155OSM    C2S17268   3.302   4.366   3.682  0.1655 -0.1783  0.2528
  155OSM    H2S17269   3.407   4.402   3.684  0.1860 -0.1501  3.2594
  155OSM    C3S17270   3.227   4.504   3.647  0.2755 -0.5218 -0.0630
  155OSM    H3S17271   3.123   4.473   3.621  0.2027 -1.1371  0.9146
  155OSM     O317272   3.265   4.573   3.529 -0.2062  0.0408  0.3084
  155OSM    HO317273   3.323   4.510   3.485 -0.4079  0.7051 -0.9528
  155OSM    C4S17274   3.243   4.595   3.763  0.3626 -0.2677  0.6112
  155OSM    H4S17275   3.349   4.623   3.772  1.0150 -2.6109  0.7682
  155OSM    C5S17276   3.141   4.632   3.845  0.0495  0.0034 -0.9245
  155OSM    H5S17277   3.039   4.590   3.836  0.2245 -0.0050 -3.4230
  155OSM    C6S17278   3.155   4.740   3.955  0.6451  0.1142  0.2710
  155OSM    H6S17279   3.077   4.819   3.961  1.3403  0.8598 -0.2677
  155OSM    H6T17280   3.254   4.790   3.942  1.2304 -0.9717  0.4500
  155OSM    C7S17281   3.154   4.674   4.089 -0.5565  0.0599  0.2330
  155OSM    H7S17282   3.055   4.629   4.110 -0.6311 -0.4279 -1.0719
  155OSM    H7T17283   3.165   4.761   4.158 -0.8140  0.9705 -0.8563
  155OSM    C8S17284   3.264   4.568   4.105  0.3565 -0.0034 -0.5160
  155OSM    H8S17285   3.356   4.606   4.057 -0.4234 -0.2773 -2.3040
  155OSM    H8T17286   3.238   4.476   4.049  0.6283 -0.3923 -0.0127
  155OSM    C9S17287   3.286   4.522   4.255  0.0857 -0.3387 -0.2863
  155OSM    H9S17288   3.263   4.613   4.315  0.3304 -0.4683  0.0057
  155OSM    H9T17289   3.389   4.483   4.270  0.4812  0.8376  0.2205
  155OSM   C10S17290   3.188   4.427   4.301  0.3676  0.3077 -0.1137
  155OSM   H10S17291   3.197   4.328   4.251  0.8853 -1.3010  2.8518
  155OSM   H10T17292   3.090   4.466   4.269 -0.3052  0.9376  2.4777
  155OSM   C11S17293   3.181   4.401   4.461  0.3372 -0.2901  0.0785
  155OSM   H11S17294   3.274   4.352   4.497 -0.0623 -0.4747  0.8562
  155OSM   H11T17295   3.092   4.336   4.475 -0.9871  1.8227  2.1611
  155OSM   C12S17296   3.159   4.525   4.539 -0.9732 -0.1465  0.4299
  155OSM   H12S17297   3.243   4.593   4.513  0.7809 -1.9380  1.1261
  155OSM   H12T17298   3.169   4.495   4.646  2.3341 -2.5677 -0.3805
  155OSM   C13S17299   3.009   4.583   4.537 -0.2547 -0.5553 -0.2216
  155OSM   H13S17300   2.973   4.637   4.627  0.0905 -1.2744  0.3498
  155OSM   H13T17301   2.942   4.494   4.531 -0.3785 -0.5452  0.8196
  155OSM   C14S17302   2.978   4.677   4.417  0.0233 -0.1524 -0.1768
  155OSM   H14S17303   3.010   4.639   4.318  2.2561  2.9775 -0.8025
  155OSM   H14T17304   3.042   4.768   4.424  0.3477 -0.3558 -0.5133
  155OSM   C15S17305   2.837   4.735   4.415 -0.2815  0.2582  0.5644
  155OSM   H15S17306   2.818   4.795   4.507  0.2080  0.2247  0.6930
  155OSM   H15T17307   2.766   4.651   4.422 -2.1661  1.6798 -0.5167
  155OSM   C16S17308   2.814   4.815   4.278 -0.6486  0.6567  0.1810
  155OSM   H16S17309   2.822   4.747   4.190 -0.1358  1.1606 -0.1691
  155OSM   H16T17310   2.908   4.872   4.262  0.6751 -1.7691 -1.3390
  155OSM   C17S17311   2.695   4.904   4.271  0.5065 -0.7124 -0.4161
  155OSM   H17S17312   2.604   4.844   4.250 -1.6365  2.4645 -0.9144
  155OSM   H17T17313   2.703   4.961   4.176  0.5549 -1.4892 -0.8917
  155OSM   C18S17314   2.655   5.008   4.383  0.2749 -0.7317 -0.0835
  155OSM   H18S17315   2.740   5.073   4.414  0.4057  0.2217 -2.2752
  155OSM   H18T17316   2.620   4.954   4.474  1.1549 -0.3916  0.4746
  155OSM   H18U17317   2.577   5.079   4.349  0.4594  0.1616  1.2475
  155OSM    C1F17318   3.324   4.215   3.872  0.1632  0.4437 -0.2195
  155OSM     OF17319   3.426   4.174   3.818 -0.2123 -0.4104  0.3284
  155OSM    C2F17320   3.265   4.149   3.994 -0.0541 -0.2056  0.0250
  155OSM    H2F17321   3.220   4.050   3.972 -0.5061 -0.0039  0.0226
  155OSM    H2G17322   3.174   4.210   4.014  0.1384  0.2591 -0.4883
  155OSM    C3F17323   3.361   4.125   4.116 -0.3650 -0.7858 -0.0157
  155OSM    H3F17324   3.402   4.221   4.152  2.0653 -2.3792  1.7310
  155OSM    H3G17325   3.445   4.064   4.076  0.7215  0.9273 -0.4659
  155OSM    C4F17326   3.290   4.054   4.229  0.0870 -0.0099  0.0430
  155OSM    H4F17327   3.241   3.958   4.202 -2.0261  0.8694  0.5684
  155OSM    H4G17328   3.206   4.115   4.268 -0.8008 -2.3840  2.1249
  155OSM    C5F17329   3.388   4.037   4.350 -0.0717  0.3511  0.5721
  155OSM    H5F17330   3.458   4.124   4.352 -1.5183  1.5814 -0.1040
  155OSM    H5G17331   3.448   3.946   4.327  1.3995  1.6864 -1.2385
  155OSM    C6F17332   3.312   4.014   4.474 -0.4967  0.5625 -0.1413
  155OSM    H6F17333   3.241   3.930   4.464 -0.5869  0.5634  0.4638
  155OSM    H6G17334   3.245   4.103   4.479 -0.1518  0.8230 -0.0721
  155OSM    C7F17335   3.408   4.002   4.598 -0.4824  0.4360  0.4584
  155OSM    H7F17336   3.485   4.082   4.600  0.7011 -0.6894  1.1887
  155OSM    H7G17337   3.450   3.899   4.596 -0.4230  0.4622  0.3707
  155OSM    C8F17338   3.335   4.018   4.726  1.1727 -0.2725 -1.2852
  155OSM    H8F17339   3.385   3.959   4.806  0.7532 -1.7147 -2.0409
  155OSM    H8G17340   3.241   3.962   4.707 -0.1217  1.8517 -1.4028
  155OSM    C9F17341   3.297   4.155   4.789 -0.8269 -0.2447  0.5882
  155OSM    H9F17342   3.381   4.210   4.833  0.3290 -0.6564 -1.0185
  155OSM   C10F17343   3.178   4.214   4.792 -0.3245  0.0718 -0.2911
  155OSM   H10F17344   3.182   4.311   4.843  0.8151  0.3520 -0.8921
  155OSM   C11F17345   3.040   4.173   4.739  0.0560 -0.4103  0.2457
  155OSM   H11F17346   3.042   4.096   4.658 -0.8429 -2.6912  2.2649
  155OSM   H11G17347   2.986   4.261   4.698  2.0426  1.3177  1.1228
  155OSM   C12F17348   2.961   4.122   4.854  0.8793  0.7858 -0.2084
  155OSM   H12F17349   2.855   4.102   4.825 -0.1518  0.6147  3.2678
  155OSM   H12G17350   2.946   4.191   4.939 -1.5751 -1.7926  1.6532
  155OSM   C13F17351   3.015   3.989   4.914 -0.1973 -0.4118 -0.6425
  155OSM   H13F17352   3.110   4.015   4.967 -0.0638  0.3269 -1.2248
  155OSM   H13G17353   3.031   3.917   4.831 -0.0245  0.6301 -1.5423
  155OSM   C14F17354   2.918   3.921   5.015  0.3792  0.1130  0.7408
  155OSM   H14F17355   2.812   3.932   4.983  0.7570  0.0394 -0.5947
  155OSM   H14G17356   2.939   3.984   5.105  0.3949  0.5650  0.4224
  155OSM   C15F17357   2.939   3.776   5.042  0.5434 -0.4893 -0.0286
  155OSM   H15F17358   2.954   3.731   4.941 -1.3801  0.1088 -0.6328
  155OSM   H15G17359   2.849   3.733   5.090 -0.2313  0.5483 -0.5025
  155OSM   C16F17360   3.057   3.741   5.127  0.3604 -0.1168 -0.1533
  155OSM   H16F17361   3.043   3.788   5.227  0.3381  1.3058 -0.8033
  155OSM   H16G17362   3.160   3.768   5.096  0.5029  0.6625  0.9241
  155OSM   C17F17363   3.040   3.589   5.163 -0.2130  0.2480 -0.1599
  155OSM   H17F17364   3.087   3.531   5.081 -3.1274  1.1272 -2.6541
  155OSM   H17G17365   2.933   3.557   5.165 -0.8946  2.2315 -1.4023
  155OSM   C18F17366   3.103   3.551   5.298 -0.2550 -0.8275 -0.1805
  155OSM   H18F17367   3.201   3.601   5.309 -0.4209 -0.6181  0.3623
  155OSM   H18G17368   3.127   3.443   5.311 -0.9920 -0.9052  0.6142
  155OSM   H18H17369   3.044   3.581   5.388 -1.1002 -0.4793 -0.8334
  156OSM      N17370   0.475   3.138   2.749  0.4351  0.9093  0.3036
  156OSM    C1517371   0.487   3.049   2.871  0.6753 -0.4048  0.0862
  156OSM   H15A17372   0.407   2.978   2.881 -0.2838  0.2794 -2.1203
  156OSM   H15B17373   0.500   3.117   2.954 -1.8429  0.5961 -0.2649
  156OSM   H15C17374   0.573   2.984   2.865  1.7991  0.9490  0.6349
  156OSM    C1417375   0.476   3.039   2.628 -0.1878  0.2359 -0.0399
  156OSM   H14A17376   0.470   3.100   2.540  1.6318 -0.1920 -0.4934
  156OSM   H14B17377   0.397   2.968   2.647  0.9856 -1.1990 -0.3734
  156OSM   H14C17378   0.567   2.983   2.610  0.9378  2.3777 -1.3474
  156OSM    C1317379   0.339   3.206   2.751 -0.6330  0.5123 -0.0398
  156OSM   H13A17380   0.354   3.300   2.803  2.4241 -0.5714  1.2678
  156OSM   H13B17381   0.253   3.159   2.797 -2.6014  2.2474 -1.7468
  156OSM   H13C17382   0.300   3.222   2.652 -0.4643  2.6603  0.2022
  156OSM    C1217383   0.590   3.237   2.742 -0.2320  0.4818  0.3351
  156OSM   H12A17384   0.570   3.307   2.662 -0.5809 -1.3576 -1.2682
  156OSM   H12B17385   0.685   3.187   2.735 -0.2502  0.4985 -0.0365
  156OSM    C1117386   0.589   3.329   2.871  0.6221  0.1254  0.1750
  156OSM   H11A17387   0.486   3.371   2.875  0.8075  0.7377 -1.0920
  156OSM   H11B17388   0.656   3.416   2.857  2.8766 -1.5142  0.1281
  156OSM      P17389   0.777   3.222   3.015  0.0123 -0.3962 -0.2857
  156OSM    O1317390   0.797   3.081   2.968  0.1673  0.2705 -0.3610
  156OSM    O1417391   0.865   3.324   2.949  0.1789  0.1410 -0.0325
  156OSM    O1117392   0.781   3.222   3.169 -0.5905  0.0082  0.1204
  156OSM    O1217393   0.623   3.265   2.992 -0.1272  0.3246 -0.5101
  156OSM    C1S17394   0.903   3.203   3.247 -0.6553  0.0433 -1.0621
  156OSM    H1S17395   0.961   3.296   3.231  0.7621 -0.3604  1.3579
  156OSM    H1T17396   0.960   3.115   3.210  1.6820  1.2806 -0.5441
  156OSM     NF17397   0.993   3.193   3.475 -0.2547  0.7270 -0.5914
  156OSM    HNF17398   1.021   3.101   3.503 -1.5909  0.5908  0.3943
  156OSM    C2S17399   0.874   3.201   3.398  0.1845 -0.8862  0.9771
  156OSM    H2S17400   0.820   3.294   3.426 -1.7555 -2.0841  1.3614
  156OSM    C3S17401   0.786   3.079   3.440  0.0978  0.8140  0.6558
  156OSM    H3S17402   0.852   2.991   3.450 -1.2724 -0.2195  0.8931
  156OSM     O317403   0.690   3.039   3.346 -0.2738  0.3589 -0.0987
  156OSM    HO317404   0.712   3.102   3.276 -1.1361 -1.9914 -2.6737
  156OSM    C4S17405   0.729   3.102   3.580  0.5566  0.1407  0.3650
  156OSM    H4S17406   0.778   3.044   3.659 -2.3337  1.0069  2.9501
  156OSM    C5S17407   0.629   3.185   3.621  0.6098 -0.0094  0.2604
  156OSM    H5S17408   0.576   3.246   3.547  1.0675  0.6107  0.4233
  156OSM    C6S17409   0.602   3.215   3.768  0.2169 -0.4998  0.1931
  156OSM    H6S17410   0.518   3.150   3.799 -0.0178 -0.9253 -1.2461
  156OSM    H6T17411   0.569   3.322   3.767  0.7351 -0.3310  0.6263
  156OSM    C7S17412   0.719   3.201   3.876  1.0017  0.4467  0.3358
  156OSM    H7S17413   0.807   3.261   3.844  0.1229  1.3378 -0.5003
  156OSM    H7T17414   0.745   3.094   3.888  0.6310  0.3777  0.5482
  156OSM    C8S17415   0.669   3.250   4.017  0.5114 -0.2893  0.5132
  156OSM    H8S17416   0.569   3.208   4.041 -0.1165  2.0513  2.2956
  156OSM    H8T17417   0.665   3.360   4.021 -1.4954 -0.3673  1.9295
  156OSM    C9S17418   0.772   3.204   4.122  0.1385  0.9877  0.1699
  156OSM    H9S17419   0.874   3.242   4.100 -0.5772  2.3939 -0.9349
  156OSM    H9T17420   0.769   3.093   4.116 -0.3077  1.0664 -1.9204
  156OSM   C10S17421   0.723   3.251   4.262 -0.4918  0.3207  0.2049
  156OSM   H10S17422   0.617   3.219   4.268 -0.0764 -1.3580 -0.8528
  156OSM   H10T17423   0.720   3.362   4.254  3.2758  0.4102 -2.6544
  156OSM   C11S17424   0.807   3.212   4.382  0.1678 -0.1078 -0.4087
  156OSM   H11S17425   0.912   3.247   4.372  0.1266 -0.0251 -0.5621
  156OSM   H11T17426   0.813   3.101   4.384  1.5053 -0.0446  0.6674
  156OSM   C12S17427   0.755   3.270   4.512 -0.2345  0.6478  0.1472
  156OSM   H12S17428   0.646   3.251   4.521 -0.0761 -0.0105  0.7985
  156OSM   H12T17429   0.762   3.381   4.506 -1.6936  0.6986 -1.2851
  156OSM   C13S17430   0.827   3.210   4.637  0.5840 -0.7118 -0.3644
  156OSM   H13S17431   0.937   3.224   4.633  0.4503  0.8354  0.5989
  156OSM   H13T17432   0.798   3.103   4.642 -2.6461  0.1102  1.0060
  156OSM   C14S17433   0.783   3.277   4.766 -0.0637  0.8217 -0.5879
  156OSM   H14S17434   0.672   3.283   4.765 -0.4541 -2.9410  1.3294
  156OSM   H14T17435   0.831   3.377   4.772  1.5892  0.0708 -0.6293
  156OSM   C15S17436   0.818   3.180   4.888  0.1872 -0.3825  0.0132
  156OSM   H15S17437   0.929   3.169   4.887  0.5681  2.5428 -0.9810
  156OSM   H15T17438   0.775   3.081   4.864  1.1867 -0.4174 -1.8182
  156OSM   C16S17439   0.778   3.249   5.020 -0.6031 -0.2383  1.0805
  156OSM   H16S17440   0.805   3.355   5.006 -0.3483 -0.4151  0.2138
  156OSM   H16T17441   0.825   3.197   5.106  1.3299  1.8285  1.3591
  156OSM   C17S17442   0.625   3.249   5.038 -0.6920  0.0444  0.6254
  156OSM   H17S17443   0.593   3.144   5.020 -2.4317  0.3549  1.7469
  156OSM   H17T17444   0.576   3.308   4.958 -0.4322 -0.2781  0.2160
  156OSM   C18S17445   0.576   3.296   5.174 -0.0105  0.2690  0.2867
  156OSM   H18S17446   0.571   3.407   5.184  0.2145  0.3123 -0.0567
  156OSM   H18T17447   0.635   3.263   5.262 -1.8618  0.5645  1.6755
  156OSM   H18U17448   0.474   3.260   5.194 -0.5042  1.6586  0.3876
  156OSM    C1F17449   1.071   3.295   3.482 -0.6199 -0.0140  0.0554
  156OSM     OF17450   1.032   3.410   3.466 -0.3665 -0.2982  0.0250
  156OSM    C2F17451   1.218   3.258   3.511  0.5751 -0.5751  0.8434
  156OSM    H2F17452   1.257   3.223   3.413  0.6280 -0.2169  0.7341
  156OSM    H2G17453   1.226   3.172   3.580 -3.8283 -0.2299  2.1066
  156OSM    C3F17454   1.310   3.382   3.559 -0.2068  0.1158  0.0605
  156OSM    H3F17455   1.323   3.453   3.474  3.7124  0.7341  0.9763
  156OSM    H3G17456   1.404   3.323   3.560  0.3546  0.9299 -1.1302
  156OSM    C4F17457   1.274   3.453   3.690 -0.0519 -0.0784  0.6192
  156OSM    H4F17458   1.166   3.479   3.696  0.2859  1.1978  1.6894
  156OSM    H4G17459   1.332   3.548   3.689  0.5309 -0.4305  0.5427
  156OSM    C5F17460   1.324   3.370   3.811 -0.0221  0.1751  0.0946
  156OSM    H5F17461   1.433   3.357   3.793  0.0769 -0.5432  1.1203
  156OSM    H5G17462   1.276   3.271   3.798  0.1682  0.2770 -1.5636
  156OSM    C6F17463   1.286   3.420   3.952  0.3179 -0.4629  0.4459
  156OSM    H6F17464   1.178   3.418   3.974  0.3155 -0.5401  0.4294
  156OSM    H6G17465   1.321   3.525   3.952 -0.5477 -0.1057 -2.0667
  156OSM    C7F17466   1.371   3.351   4.059  0.6735  0.3466  0.3820
  156OSM    H7F17467   1.479   3.352   4.031  0.7015  1.0250  0.4942
  156OSM    H7G17468   1.337   3.246   4.071  2.6528 -0.1301  2.6529
  156OSM    C8F17469   1.377   3.419   4.199  1.1340 -0.0616  0.1695
  156OSM    H8F17470   1.275   3.449   4.232  0.7428 -1.9541  0.7887
  156OSM    H8G17471   1.421   3.518   4.175  0.0257 -0.1849 -2.8210
  156OSM    C9F17472   1.437   3.334   4.309 -0.5693  0.0434 -0.4197
  156OSM    H9F17473   1.425   3.225   4.305 -0.7718 -0.1252  2.5606
  156OSM   C10F17474   1.522   3.382   4.409  0.4404 -0.6842  0.6084
  156OSM   H10F17475   1.569   3.308   4.474 -0.3749  1.0117  3.3157
  156OSM   C11F17476   1.559   3.529   4.425 -0.0107 -0.4049 -0.5805
  156OSM   H11F17477   1.542   3.591   4.335  0.6822 -0.5036 -0.7834
  156OSM   H11G17478   1.666   3.526   4.452 -0.5426 -3.2580  1.7290
  156OSM   C12F17479   1.493   3.586   4.548 -0.1370 -0.2567 -0.1951
  156OSM   H12F17480   1.382   3.587   4.542 -0.1117  0.2493 -0.7611
  156OSM   H12G17481   1.543   3.684   4.565 -1.1016  0.7645 -2.7334
  156OSM   C13F17482   1.537   3.503   4.668  0.8931  0.2078 -0.2385
  156OSM   H13F17483   1.645   3.477   4.671  0.9121  0.3913  1.4633
  156OSM   H13G17484   1.469   3.415   4.666  1.1274  0.0260 -0.2709
  156OSM   C14F17485   1.507   3.576   4.803  0.0870 -0.1691  0.0650
  156OSM   H14F17486   1.417   3.640   4.807  0.2925  0.0566  2.0643
  156OSM   H14G17487   1.579   3.657   4.824 -0.7632  0.6254 -0.0299
  156OSM   C15F17488   1.518   3.480   4.925 -0.0790 -0.4815  0.3869
  156OSM   H15F17489   1.613   3.422   4.928  1.1674  1.4177  3.5364
  156OSM   H15G17490   1.432   3.410   4.933  0.3795 -0.8699  3.0233
  156OSM   C16F17491   1.536   3.560   5.053 -0.7355 -0.1369 -0.0723
  156OSM   H16F17492   1.438   3.595   5.093 -0.6137 -0.1870  0.2722
  156OSM   H16G17493   1.601   3.649   5.039 -0.0031 -0.7868 -0.8975
  156OSM   C17F17494   1.596   3.472   5.167  0.5981 -0.0387  0.1783
  156OSM   H17F17495   1.596   3.547   5.249 -1.0276  0.9311 -0.6422
  156OSM   H17G17496   1.702   3.441   5.151  1.4834  1.5111  2.4994
  156OSM   C18F17497   1.515   3.345   5.197  0.4379  0.5369  0.5767
  156OSM   H18F17498   1.514   3.314   5.304 -1.3197 -2.6510 -0.2239
  156OSM   H18G17499   1.538   3.258   5.132  1.6760  0.6243  0.8694
  156OSM   H18H17500   1.405   3.361   5.192  0.0641 -1.3992  1.5556
  157OSM      N17501   5.863   3.665   2.691  0.0441 -0.6452 -0.6602
  157OSM    C1517502   5.965   3.565   2.675 -0.7146  0.5362 -0.0870
  157OSM   H15A17503   6.019   3.581   2.583  0.8895  0.2735  0.7827
  157OSM   H15B17504   5.927   3.465   2.690 -0.9849  0.5594 -0.5843
  157OSM   H15C17505   6.044   3.574   2.747  0.2790  2.4607 -1.3198
  157OSM    C1417506   5.924   3.800   2.665  0.6967 -0.1522 -0.6084
  157OSM   H14A17507   5.970   3.811   2.568  1.4014 -0.9017 -0.3702
  157OSM   H14B17508   6.009   3.823   2.727 -1.1449  2.0753  1.3252
  157OSM   H14C17509   5.847   3.876   2.672  0.5072 -0.3804 -0.1254
  157OSM    C1317510   5.756   3.649   2.592 -0.0934  0.0606  1.1430
  157OSM   H13A17511   5.805   3.607   2.506 -1.3017 -0.4794  0.7022
  157OSM   H13B17512   5.700   3.738   2.566 -0.4436 -0.0004  1.6672
  157OSM   H13C17513   5.680   3.575   2.611 -2.3155  1.8663 -0.1278
  157OSM    C1217514   5.807   3.646   2.831  0.1460  0.8515 -0.1827
  157OSM   H12A17515   5.739   3.730   2.845 -1.4319 -0.6184  1.5933
  157OSM   H12B17516   5.887   3.666   2.900 -1.9834  3.0993  1.8749
  157OSM    C1117517   5.715   3.530   2.870 -0.4170 -0.4942  0.7234
  157OSM   H11A17518   5.630   3.518   2.799 -0.6059  0.4611  0.7751
  157OSM   H11B17519   5.664   3.546   2.968  0.7674 -0.7588  1.4076
  157OSM      P17520   5.882   3.364   2.976 -0.1081  0.1387 -0.4653
  157OSM    O1317521   5.946   3.237   2.928  0.6564 -0.2363  0.4457
  157OSM    O1417522   5.962   3.478   3.024  0.6565 -0.1513 -0.0859
  157OSM    O1117523   5.774   3.324   3.082 -0.0158 -0.3635  0.0942
  157OSM    O1217524   5.780   3.407   2.864 -0.1345  0.2685 -0.3058
  157OSM    C1S17525   5.823   3.275   3.216 -0.1529  0.1152  0.0412
  157OSM    H1S17526   5.891   3.353   3.255  0.2708 -0.1675 -0.1163
  157OSM    H1T17527   5.888   3.185   3.214 -0.6013 -0.3613  2.7981
  157OSM     NF17528   5.761   3.263   3.462 -0.4299  0.9024  0.4948
  157OSM    HNF17529   5.786   3.180   3.511 -1.4289 -0.2354 -0.8364
  157OSM    C2S17530   5.706   3.245   3.326 -0.0053  0.1542  0.3951
  157OSM    H2S17531   5.633   3.325   3.303 -0.1693  1.1041  3.7558
  157OSM    C3S17532   5.634   3.109   3.289  0.1818 -0.8420  0.1687
  157OSM    H3S17533   5.703   3.021   3.299 -2.5636 -3.4003 -1.6596
  157OSM     O317534   5.582   3.088   3.160  0.3560  0.0379 -0.0781
  157OSM    HO317535   5.586   3.179   3.128  2.6137 -0.1194 -0.3924
  157OSM    C4S17536   5.522   3.085   3.378  0.3459 -0.3290  0.1343
  157OSM    H4S17537   5.426   3.122   3.339 -0.1092 -2.1192 -0.5280
  157OSM    C5S17538   5.524   3.017   3.501 -0.0518  0.2822  0.4879
  157OSM    H5S17539   5.617   2.972   3.540 -1.2116 -0.3876  2.6208
  157OSM    C6S17540   5.401   2.988   3.591 -0.2244 -0.5317 -0.5703
  157OSM    H6S17541   5.312   2.965   3.527 -0.8177 -1.0420  0.4215
  157OSM    H6T17542   5.379   3.071   3.661  1.1230 -1.7794  1.4009
  157OSM    C7S17543   5.416   2.862   3.682 -0.2198 -0.0280 -0.2783
  157OSM    H7S17544   5.437   2.774   3.617 -1.2671 -0.9677  0.6188
  157OSM    H7T17545   5.328   2.835   3.744  1.5786 -3.6565  0.9715
  157OSM    C8S17546   5.534   2.870   3.784 -0.6335 -0.2679  0.1458
  157OSM    H8S17547   5.513   2.957   3.850  0.3083  1.3898 -1.6290
  157OSM    H8T17548   5.631   2.876   3.729  0.2578 -1.5989  1.5048
  157OSM    C9S17549   5.552   2.757   3.895  0.6707 -0.4176  0.1823
  157OSM    H9S17550   5.636   2.784   3.963 -0.7825 -0.0380  1.8967
  157OSM    H9T17551   5.584   2.662   3.847  3.5069  0.1358  0.7732
  157OSM   C10S17552   5.430   2.736   3.982 -0.7320  0.2072 -0.2569
  157OSM   H10S17553   5.332   2.732   3.930 -0.1157 -1.0374 -1.3683
  157OSM   H10T17554   5.413   2.826   4.045 -1.2259  1.8316 -2.5838
  157OSM   C11S17555   5.450   2.615   4.087 -0.2102 -0.2132 -0.3387
  157OSM   H11S17556   5.513   2.538   4.037 -0.9881 -0.2099 -1.3586
  157OSM   H11T17557   5.346   2.585   4.111 -0.3583  0.7871  0.2862
  157OSM   C12S17558   5.504   2.667   4.224 -0.1078 -0.7391 -0.4316
  157OSM   H12S17559   5.439   2.750   4.260  1.2013  0.2383 -0.2343
  157OSM   H12T17560   5.603   2.714   4.208 -1.2281  2.5532  1.3872
  157OSM   C13S17561   5.515   2.569   4.346 -0.2091 -0.0208 -0.3240
  157OSM   H13S17562   5.610   2.577   4.403 -0.5817  0.7364  0.1913
  157OSM   H13T17563   5.525   2.466   4.304  1.3274 -0.0000 -0.0660
  157OSM   C14S17564   5.399   2.574   4.444  0.1078 -0.3230  0.1471
  157OSM   H14S17565   5.312   2.519   4.402 -0.8652  0.3324  1.2484
  157OSM   H14T17566   5.361   2.675   4.469 -0.5452 -0.4883 -0.1772
  157OSM   C15S17567   5.448   2.519   4.581 -0.0230 -0.1977  0.1890
  157OSM   H15S17568   5.525   2.439   4.572 -0.8234 -0.8147 -1.9978
  157OSM   H15T17569   5.362   2.464   4.624 -2.5391  1.9610 -1.7575
  157OSM   C16S17570   5.509   2.624   4.679 -0.5266  0.7597  0.4664
  157OSM   H16S17571   5.437   2.707   4.698 -1.3218  0.0853  0.4665
  157OSM   H16T17572   5.599   2.662   4.626 -0.9683 -0.4377 -1.2069
  157OSM   C17S17573   5.551   2.575   4.817 -0.1418 -0.4794 -0.1544
  157OSM   H17S17574   5.623   2.492   4.829  1.4461  1.0266  1.2623
  157OSM   H17T17575   5.455   2.537   4.858 -1.1632  1.0501 -0.9989
  157OSM   C18S17576   5.610   2.688   4.905  0.4531 -0.5133 -0.2368
  157OSM   H18S17577   5.683   2.657   4.983 -0.5896  1.7055  1.7713
  157OSM   H18T17578   5.540   2.744   4.971  2.1519  0.6476  0.6728
  157OSM   H18U17579   5.668   2.756   4.839  0.9445  0.0615  0.7466
  157OSM    C1F17580   5.803   3.378   3.507 -0.4980 -0.9478 -0.7311
  157OSM     OF17581   5.779   3.477   3.439  0.8265 -0.2310 -0.2960
  157OSM    C2F17582   5.879   3.388   3.645  0.8108  0.9220  0.0545
  157OSM    H2F17583   5.895   3.496   3.664 -0.6945  1.0889  0.4917
  157OSM    H2G17584   5.973   3.330   3.633 -0.0600 -0.5481  0.0540
  157OSM    C3F17585   5.799   3.335   3.763  0.4166 -0.5431  0.6189
  157OSM    H3F17586   5.757   3.234   3.745 -0.4596  0.3721 -3.1908
  157OSM    H3G17587   5.713   3.403   3.782 -0.4311 -1.8547  1.6703
  157OSM    C4F17588   5.896   3.327   3.883  0.4806 -0.2343 -0.2825
  157OSM    H4F17589   5.965   3.414   3.892  1.6041 -1.3280  3.0499
  157OSM    H4G17590   5.954   3.235   3.864  0.5794  0.2660 -2.7442
  157OSM    C5F17591   5.829   3.283   4.016 -0.3738  0.1855  0.2931
  157OSM    H5F17592   5.778   3.187   3.994  0.6541 -0.5081  0.8595
  157OSM    H5G17593   5.758   3.365   4.042  1.8425  2.5014 -0.5381
  157OSM    C6F17594   5.929   3.271   4.134  0.6380 -1.0206 -0.4804
  157OSM    H6F17595   6.023   3.225   4.099 -0.2206 -2.3891 -1.0778
  157OSM    H6G17596   5.897   3.188   4.200  1.5562 -1.4089 -0.5122
  157OSM    C7F17597   5.937   3.397   4.223 -0.1822 -0.6066  0.4375
  157OSM    H7F17598   5.830   3.418   4.243 -0.0823  0.3432  0.0013
  157OSM    H7G17599   5.978   3.476   4.157  0.8093 -0.3738  1.3059
  157OSM    C8F17600   6.027   3.378   4.341 -0.1003 -0.1148  0.4538
  157OSM    H8F17601   6.128   3.379   4.295 -0.2079 -1.6881  0.1309
  157OSM    H8G17602   6.010   3.274   4.375 -0.9829  0.0051  0.3985
  157OSM    C9F17603   6.024   3.488   4.447 -0.6768 -0.3369 -0.1801
  157OSM    H9F17604   6.085   3.578   4.432  1.8037 -1.6236  1.4907
  157OSM   C10F17605   5.944   3.482   4.560  0.2085  0.3530 -0.1160
  157OSM   H10F17606   5.964   3.556   4.639 -2.5388  0.5088  0.5259
  157OSM   C11F17607   5.855   3.370   4.602 -0.6102 -0.1449  0.3041
  157OSM   H11F17608   5.808   3.320   4.515  0.2039  0.7046 -0.6539
  157OSM   H11G17609   5.767   3.415   4.652  0.1630 -0.1228  1.6806
  157OSM   C12F17610   5.921   3.268   4.702 -0.0537 -0.4301  0.0121
  157OSM   H12F17611   5.983   3.200   4.641 -0.0843  0.4210 -1.0054
  157OSM   H12G17612   5.833   3.207   4.731  1.5687 -2.9680 -0.1714
  157OSM   C13F17613   5.991   3.333   4.823 -0.6132 -0.0342  0.0709
  157OSM   H13F17614   5.916   3.393   4.878 -2.2844 -1.2219 -0.8452
  157OSM   H13G17615   6.064   3.401   4.774 -0.3158 -0.8522 -0.6493
  157OSM   C14F17616   6.044   3.224   4.924 -0.2628  0.8032  0.4779
  157OSM   H14F17617   6.087   3.275   5.013  0.9658 -0.7727  0.8179
  157OSM   H14G17618   6.126   3.168   4.875 -0.5005  2.2080 -1.6386
  157OSM   C15F17619   5.929   3.125   4.975 -0.5622 -0.6141  0.1366
  157OSM   H15F17620   5.967   3.052   5.050  0.5944  0.5336  0.6951
  157OSM   H15G17621   5.897   3.066   4.887 -1.1599  1.5160 -1.1256
  157OSM   C16F17622   5.803   3.192   5.029 -0.3526 -0.4160 -0.0787
  157OSM   H16F17623   5.759   3.258   4.952  2.6727 -0.5420 -2.0964
  157OSM   H16G17624   5.837   3.246   5.121  0.5804 -2.2652  0.7235
  157OSM   C17F17625   5.691   3.088   5.071  0.0564 -0.6711  0.1173
  157OSM   H17F17626   5.712   2.992   5.019 -1.1503 -0.5157 -0.6908
  157OSM   H17G17627   5.597   3.125   5.025  1.2547  0.8438 -1.2468
  157OSM   C18F17628   5.678   3.044   5.217  0.6366 -0.1330  0.3048
  157OSM   H18F17629   5.575   3.003   5.219  0.6864 -0.3148 -0.4038
  157OSM   H18G17630   5.678   3.134   5.282  1.1451  0.2345 -0.1953
  157OSM   H18H17631   5.740   2.958   5.250  1.0973  0.2056  0.3359
  158OSM      N17632   2.788   3.081   2.762 -0.1669 -0.0276 -0.1988
  158OSM    C1517633   2.931   3.044   2.748  0.2806 -0.8000  0.4870
  158OSM   H15A17634   2.963   2.990   2.836 -1.7156  1.0010  2.4306
  158OSM   H15B17635   2.982   3.138   2.738 -1.9672  0.3258 -1.1387
  158OSM   H15C17636   2.949   2.980   2.662 -0.0317  1.1808 -1.1343
  158OSM    C1417637   2.741   3.166   2.650 -0.3886 -0.1324  0.4569
  158OSM   H14A17638   2.783   3.266   2.654  1.5962 -0.9502  1.9692
  158OSM   H14B17639   2.637   3.192   2.661 -0.1236  1.6955 -0.8961
  158OSM   H14C17640   2.759   3.122   2.553 -2.9275  1.5249 -0.8923
  158OSM    C1317641   2.702   2.952   2.765  0.3718 -0.2751 -0.0365
  158OSM   H13A17642   2.723   2.890   2.678  1.3971  0.7444 -0.5380
  158OSM   H13B17643   2.596   2.963   2.754  0.7649  2.8532 -1.8802
  158OSM   H13C17644   2.719   2.896   2.856  0.4901 -1.9876 -1.0608
  158OSM    C1217645   2.767   3.163   2.890 -0.2506  0.0300  0.8059
  158OSM   H12A17646   2.665   3.198   2.899 -0.6941 -0.6757 -0.9635
  158OSM   H12B17647   2.821   3.256   2.894 -1.0180  0.4565  1.7424
  158OSM    C1117648   2.805   3.103   3.029 -0.0129  0.0224 -0.0741
  158OSM   H11A17649   2.835   3.183   3.100 -2.5765  1.3282 -0.3178
  158OSM   H11B17650   2.895   3.040   3.015  0.2947 -0.0612  1.9212
  158OSM      P17651   2.707   2.891   3.149 -0.3383  0.2119  0.2014
  158OSM    O1317652   2.573   2.848   3.195  0.3110 -0.0335  0.5088
  158OSM    O1417653   2.777   2.799   3.057  0.4039  0.5999 -0.1295
  158OSM    O1117654   2.797   2.912   3.272  0.2475 -0.3860  0.0225
  158OSM    O1217655   2.693   3.033   3.084  0.0340 -0.3138  0.5773
  158OSM    C1S17656   2.768   3.015   3.366  0.1650  0.1608 -0.3016
  158OSM    H1S17657   2.673   3.069   3.351 -0.1810 -0.9354 -2.4591
  158OSM    H1T17658   2.840   3.099   3.366  0.5336 -0.1376 -1.3172
  158OSM     NF17659   2.738   3.055   3.602  0.2505 -0.1480  0.4914
  158OSM    HNF17660   2.811   3.106   3.649  1.1632  0.6067 -1.6142
  158OSM    C2S17661   2.779   2.952   3.509  0.5736  0.4965 -0.0627
  158OSM    H2S17662   2.702   2.873   3.514  0.6537  0.4711  0.8903
  158OSM    C3S17663   2.913   2.875   3.526 -0.6742  0.0855 -0.6075
  158OSM    H3S17664   3.004   2.929   3.493  0.5151 -1.6664 -0.3340
  158OSM     O317665   2.921   2.746   3.460  0.1503  0.3302 -0.4884
  158OSM    HO317666   2.854   2.754   3.392  0.2829 -0.8512 -0.7717
  158OSM    C4S17667   2.926   2.848   3.678 -0.7533  0.4731 -0.0848
  158OSM    H4S17668   2.852   2.780   3.723 -1.3759  2.0818  1.4551
  158OSM    C5S17669   3.012   2.897   3.765 -0.2879 -0.1764 -0.6937
  158OSM    H5S17670   3.102   2.949   3.729  0.8074 -0.3145  1.6746
  158OSM    C6S17671   3.006   2.887   3.912 -0.6442  0.1135 -0.1547
  158OSM    H6S17672   2.980   2.993   3.936  2.5165  1.1562 -0.8120
  158OSM    H6T17673   3.108   2.866   3.951 -0.3211 -2.4991 -2.1717
  158OSM    C7S17674   2.912   2.794   3.988  0.5451 -0.2541 -0.0176
  158OSM    H7S17675   2.932   2.688   3.962  1.3836  0.1047 -0.8592
  158OSM    H7T17676   2.813   2.814   3.940  1.7378  0.9911 -2.0895
  158OSM    C8S17677   2.901   2.818   4.137 -0.8096  0.4467  0.0416
  158OSM    H8S17678   2.797   2.798   4.172 -0.7887  0.6891  0.2403
  158OSM    H8T17679   2.923   2.926   4.151  3.9113 -0.3207  0.1576
  158OSM    C9S17680   2.991   2.739   4.233 -0.5818  0.2024  0.3581
  158OSM    H9S17681   3.096   2.776   4.225 -1.3040  2.3872  0.3503
  158OSM    H9T17682   2.996   2.631   4.210 -3.9577  0.1379 -0.6154
  158OSM   C10S17683   2.959   2.754   4.376  0.3948  0.5135  0.1225
  158OSM   H10S17684   2.869   2.691   4.392  0.9059 -0.0420  0.8548
  158OSM   H10T17685   2.940   2.859   4.409 -0.0549  0.4978 -0.0853
  158OSM   C11S17686   3.049   2.678   4.474  0.4178  0.2136 -0.3694
  158OSM   H11S17687   3.153   2.710   4.450  1.3836 -1.1345  1.6814
  158OSM   H11T17688   3.031   2.568   4.469 -0.5973  0.0851  3.1113
  158OSM   C12S17689   3.014   2.710   4.621 -0.2185  0.1686 -0.7172
  158OSM   H12S17690   2.921   2.655   4.646  0.4511 -0.3211  0.8196
  158OSM   H12T17691   3.004   2.820   4.630  1.9354  0.3875 -0.6019
  158OSM   C13S17692   3.134   2.676   4.716  0.0335  0.0914  0.0735
  158OSM   H13S17693   3.223   2.726   4.673 -2.4334  3.6830 -1.3434
  158OSM   H13T17694   3.148   2.566   4.703  0.0353  0.1490 -0.4193
  158OSM   C14S17695   3.100   2.703   4.859  0.7675  0.8979  0.1064
  158OSM   H14S17696   3.077   2.811   4.872  1.3785  0.9802  0.5671
  158OSM   H14T17697   3.190   2.679   4.920 -0.0916 -2.3555  0.2668
  158OSM   C15S17698   2.984   2.622   4.913 -0.1623 -0.4153  0.0442
  158OSM   H15S17699   3.006   2.518   4.880  1.1717  0.9622 -3.9938
  158OSM   H15T17700   2.886   2.655   4.871  0.1946  2.5071  1.2699
  158OSM   C16S17701   2.975   2.610   5.069 -0.0975  0.0884  0.0890
  158OSM   H16S17702   3.078   2.591   5.107 -0.2207 -0.3362  0.2083
  158OSM   H16T17703   2.919   2.518   5.096 -1.8650  0.9984 -0.3301
  158OSM   C17S17704   2.915   2.735   5.136  0.1090  0.5446 -0.3127
  158OSM   H17S17705   2.809   2.747   5.105  0.6319 -1.1856 -3.0813
  158OSM   H17T17706   2.976   2.823   5.107  0.7297 -0.4544 -2.2357
  158OSM   C18S17707   2.911   2.725   5.293  0.4137 -0.3635  0.9129
  158OSM   H18S17708   2.999   2.757   5.354 -1.0469  0.0985  2.8990
  158OSM   H18T17709   2.881   2.623   5.325 -0.5662 -0.7750 -1.1714
  158OSM   H18U17710   2.833   2.797   5.324  1.7578  2.2999 -1.4323
  158OSM    C1F17711   2.612   3.102   3.619 -0.4037  0.5177 -0.0422
  158OSM     OF17712   2.517   3.048   3.565  0.0061 -0.5734 -0.4137
  158OSM    C2F17713   2.592   3.217   3.717 -0.4160  0.0292 -0.1222
  158OSM    H2F17714   2.695   3.260   3.722 -0.8081  0.9020  3.7776
  158OSM    H2G17715   2.590   3.164   3.815  3.0513 -0.8588 -0.4116
  158OSM    C3F17716   2.488   3.312   3.682  0.7527 -0.2853  0.1177
  158OSM    H3F17717   2.389   3.261   3.676  0.8706 -0.4029 -0.9651
  158OSM    H3G17718   2.507   3.340   3.576  1.9596 -0.2363  0.3405
  158OSM    C4F17719   2.488   3.446   3.762  0.1516 -0.0297 -0.2545
  158OSM    H4F17720   2.403   3.512   3.734 -0.4700  0.6286  2.8118
  158OSM    H4G17721   2.575   3.509   3.732 -0.5326  0.8132 -0.5089
  158OSM    C5F17722   2.503   3.438   3.912 -0.1217 -0.3973 -0.3855
  158OSM    H5F17723   2.508   3.541   3.954  2.9963 -1.6530  2.8665
  158OSM    H5G17724   2.607   3.404   3.933  0.7095  0.4587 -2.8309
  158OSM    C6F17725   2.388   3.364   3.996  0.4999  0.5134  0.2081
  158OSM    H6F17726   2.373   3.264   3.951  0.1797  0.8734 -0.5113
  158OSM    H6G17727   2.287   3.409   3.989  1.1814  2.0635 -0.2989
  158OSM    C7F17728   2.423   3.330   4.142 -0.1065 -0.2446  0.7719
  158OSM    H7F17729   2.531   3.303   4.144 -0.7416 -3.5369 -1.6589
  158OSM    H7G17730   2.363   3.251   4.191  0.5405 -0.3521  1.4081
  158OSM    C8F17731   2.419   3.458   4.233 -0.8192  0.2369  0.5993
  158OSM    H8F17732   2.310   3.483   4.237 -1.0501 -0.8033  3.1641
  158OSM    H8G17733   2.468   3.542   4.181 -0.4985 -0.3497 -0.0639
  158OSM    C9F17734   2.474   3.440   4.370  0.0465  0.1204 -0.5969
  158OSM    H9F17735   2.566   3.498   4.383 -0.3169  0.6486 -0.3438
  158OSM   C10F17736   2.413   3.375   4.474  0.4445  0.0178  0.0020
  158OSM   H10F17737   2.452   3.388   4.576  0.4457  0.4324 -0.0485
  158OSM   C11F17738   2.286   3.295   4.467  0.4025 -0.3772 -0.8694
  158OSM   H11F17739   2.218   3.343   4.394  0.9845 -1.8068 -2.4157
  158OSM   H11G17740   2.229   3.299   4.562  4.5825  2.3314  1.8475
  158OSM   C12F17741   2.283   3.145   4.434 -0.2302  0.3401  0.1753
  158OSM   H12F17742   2.356   3.125   4.352 -0.5435 -0.8507  0.1692
  158OSM   H12G17743   2.183   3.122   4.392  0.3634  0.6392 -1.4817
  158OSM   C13F17744   2.314   3.061   4.559  0.2760  0.4048  0.4177
  158OSM   H13F17745   2.255   3.102   4.644  0.1271 -1.5037  1.2720
  158OSM   H13G17746   2.418   3.091   4.584  0.1071  0.2785  1.2897
  158OSM   C14F17747   2.283   2.915   4.548 -0.5570  0.4546 -0.0262
  158OSM   H14F17748   2.200   2.880   4.483  1.3852 -3.4154 -0.7233
  158OSM   H14G17749   2.264   2.874   4.650  1.4619  1.3487  0.7666
  158OSM   C15F17750   2.400   2.822   4.504 -0.2042  0.7660  0.6207
  158OSM   H15F17751   2.352   2.722   4.497  1.1956  0.1159 -0.0159
  158OSM   H15G17752   2.478   2.830   4.582 -1.6707 -0.7281  2.3501
  158OSM   C16F17753   2.462   2.851   4.369  0.7435  0.3858 -0.0090
  158OSM   H16F17754   2.555   2.790   4.361  0.1982 -0.9562  2.6098
  158OSM   H16G17755   2.502   2.954   4.369  1.3523  0.2290 -2.5743
  158OSM   C17F17756   2.370   2.823   4.247  1.0281  0.2707 -0.1758
  158OSM   H17F17757   2.284   2.890   4.267  0.6380 -0.4746  0.7260
  158OSM   H17G17758   2.339   2.716   4.252  2.2130 -0.1082 -0.6161
  158OSM   C18F17759   2.429   2.875   4.117  0.2900  0.3196 -0.1588
  158OSM   H18F17760   2.427   2.986   4.118 -4.9110  0.4881 -2.1645
  158OSM   H18G17761   2.375   2.845   4.024 -0.1684 -1.5438  0.6747
  158OSM   H18H17762   2.536   2.844   4.111 -0.4780 -2.4694 -0.6933
  159OSM      N17763   5.647   4.227   3.260  0.1265 -0.3021  0.3393
  159OSM    C1517764   5.692   4.207   3.400  0.2433 -0.1985 -0.9953
  159OSM   H15A17765   5.797   4.231   3.414  0.1741  0.5254 -1.6318
  159OSM   H15B17766   5.688   4.100   3.412  1.7077 -0.2377 -0.5787
  159OSM   H15C17767   5.630   4.258   3.473 -0.4739 -0.1389 -1.6421
  159OSM    C1417768   5.637   4.375   3.241 -0.0664 -0.0331  0.3570
  159OSM   H14A17769   5.587   4.424   3.323  0.1302  0.9321 -0.0824
  159OSM   H14B17770   5.584   4.402   3.151  1.0100 -2.2970 -1.0535
  159OSM   H14C17771   5.732   4.426   3.232 -1.0486  1.5000 -2.3889
  159OSM    C1317772   5.747   4.171   3.164  0.2892 -0.2642  0.1372
  159OSM   H13A17773   5.719   4.184   3.061  0.7673  1.1866  0.1711
  159OSM   H13B17774   5.775   4.067   3.175  0.8165 -0.0505  0.9694
  159OSM   H13C17775   5.839   4.227   3.168 -0.6348  1.2452  1.0542
  159OSM    C1217776   5.505   4.166   3.248 -0.2549 -0.1277  0.5266
  159OSM   H12A17777   5.443   4.237   3.302 -1.3927  0.0203 -0.9094
  159OSM   H12B17778   5.521   4.075   3.304  3.3605  1.4723  2.4473
  159OSM    C1117779   5.438   4.138   3.112  0.4219 -0.3560  0.1427
  159OSM   H11A17780   5.428   4.236   3.060 -0.1934  0.8984  2.4747
  159OSM   H11B17781   5.335   4.103   3.134 -0.2909  2.3786  1.5783
  159OSM      P17782   5.446   3.909   2.985  0.4878 -0.1719 -0.1745
  159OSM    O1317783   5.313   3.926   2.928  0.8235  0.1423 -0.3512
  159OSM    O1417784   5.542   3.842   2.899  0.4719  0.2930  0.1404
  159OSM    O1117785   5.428   3.828   3.119 -0.0285 -0.0481 -0.3004
  159OSM    O1217786   5.503   4.050   3.029  0.0094  0.4033  0.2397
  159OSM    C1S17787   5.543   3.794   3.203  0.0604 -0.0304  0.1301
  159OSM    H1S17788   5.609   3.879   3.230  1.6445 -1.0042 -0.5827
  159OSM    H1T17789   5.613   3.721   3.159  0.3444 -1.4371  2.6962
  159OSM     NF17790   5.609   3.730   3.425  0.0221 -0.5511 -0.4200
  159OSM    HNF17791   5.662   3.645   3.425 -3.3764 -2.9175  1.6434
  159OSM    C2S17792   5.496   3.725   3.324 -0.5729 -0.1764 -0.8030
  159OSM    H2S17793   5.408   3.781   3.361 -0.9233  0.1425 -2.0979
  159OSM    C3S17794   5.447   3.584   3.285  0.2283 -0.5306  0.4370
  159OSM    H3S17795   5.523   3.530   3.225  0.5287  2.1210 -1.7688
  159OSM     O317796   5.337   3.596   3.190  0.2811 -0.0953 -0.0396
  159OSM    HO317797   5.352   3.685   3.159  1.3920  0.4837  1.9397
  159OSM    C4S17798   5.423   3.511   3.414 -0.2499  0.1869 -0.4020
  159OSM    H4S17799   5.500   3.451   3.465 -0.6013  0.8900  0.9803
  159OSM    C5S17800   5.305   3.511   3.477  0.3309  0.4471 -0.5161
  159OSM    H5S17801   5.214   3.566   3.447 -0.7438 -1.0867 -0.1849
  159OSM    C6S17802   5.283   3.428   3.610 -0.1835  0.0526  0.5030
  159OSM    H6S17803   5.234   3.336   3.570  0.3232  0.4626 -1.1478
  159OSM    H6T17804   5.207   3.474   3.676 -0.6247 -0.8281  0.6191
  159OSM    C7S17805   5.403   3.389   3.703  0.4961  0.1560  0.3026
  159OSM    H7S17806   5.449   3.486   3.735  0.8534 -0.0510  0.4185
  159OSM    H7T17807   5.478   3.323   3.655 -0.1725  0.8096 -1.7853
  159OSM    C8S17808   5.348   3.323   3.834 -0.1916 -0.2012 -0.4444
  159OSM    H8S17809   5.288   3.234   3.809 -0.0910 -0.4693  0.2439
  159OSM    H8T17810   5.285   3.400   3.886  2.3867  1.0739  1.0331
  159OSM    C9S17811   5.462   3.249   3.911 -0.3891 -0.6935 -0.4744
  159OSM    H9S17812   5.528   3.329   3.949  0.2665 -1.3765 -0.1511
  159OSM    H9T17813   5.521   3.197   3.833 -0.2776 -0.6694 -0.4056
  159OSM   C10S17814   5.419   3.144   4.014  0.1748 -0.0183 -0.2785
  159OSM   H10S17815   5.497   3.076   4.054 -0.5511 -1.1524 -0.7431
  159OSM   H10T17816   5.354   3.070   3.963  1.5044 -1.0980 -0.4757
  159OSM   C11S17817   5.347   3.207   4.129  0.6555  0.5396  0.0638
  159OSM   H11S17818   5.290   3.127   4.180 -2.0462  3.4924  2.0931
  159OSM   H11T17819   5.272   3.280   4.090 -2.9121 -1.9984  1.5977
  159OSM   C12S17820   5.450   3.273   4.218 -0.0647  0.4563 -0.8361
  159OSM   H12S17821   5.484   3.374   4.188  3.9550 -0.6485 -0.5677
  159OSM   H12T17822   5.545   3.215   4.222 -0.3423  0.0479  0.1594
  159OSM   C13S17823   5.393   3.283   4.359  0.2493  0.2622 -0.6847
  159OSM   H13S17824   5.286   3.314   4.351 -0.3901 -1.7678 -0.5284
  159OSM   H13T17825   5.451   3.357   4.418  0.4778  0.8727 -1.6552
  159OSM   C14S17826   5.378   3.138   4.424 -0.2784  0.8651  0.6496
  159OSM   H14S17827   5.460   3.076   4.381 -0.4777  0.6566  0.5691
  159OSM   H14T17828   5.281   3.092   4.395 -0.0160  1.0956 -0.6699
  159OSM   C15S17829   5.397   3.152   4.572  0.4234  0.1840 -0.0712
  159OSM   H15S17830   5.305   3.196   4.616  0.2285 -1.3258  1.0882
  159OSM   H15T17831   5.477   3.227   4.590  0.2778  0.3487 -0.1111
  159OSM   C16S17832   5.438   3.022   4.635 -0.4434  0.0497 -0.3114
  159OSM   H16S17833   5.542   2.994   4.608  0.6829  1.2839  2.4399
  159OSM   H16T17834   5.374   2.938   4.601  0.3802 -1.1914  1.0976
  159OSM   C17S17835   5.420   3.027   4.792 -1.0414 -0.5863 -0.2776
  159OSM   H17S17836   5.461   3.117   4.843 -1.2446 -1.2788  1.1373
  159OSM   H17T17837   5.484   2.955   4.845 -2.3294 -1.0008  0.7527
  159OSM   C18S17838   5.278   3.007   4.835 -0.6630  0.2851 -0.0166
  159OSM   H18S17839   5.209   3.084   4.794 -0.1056  1.9903  2.0242
  159OSM   H18T17840   5.271   3.015   4.946  1.1570  2.1295  0.0317
  159OSM   H18U17841   5.246   2.907   4.798  1.3571 -1.4289  2.4905
  159OSM    C1F17842   5.651   3.843   3.482  0.3262 -0.5446 -0.4712
  159OSM     OF17843   5.582   3.945   3.482  0.0082  0.0483 -0.0215
  159OSM    C2F17844   5.783   3.838   3.547 -0.0699  0.2278  0.1565
  159OSM    H2F17845   5.837   3.922   3.500 -2.3117  1.8450  0.3041
  159OSM    H2G17846   5.824   3.737   3.526 -1.3376  0.0595 -1.7116
  159OSM    C3F17847   5.777   3.858   3.701 -0.7199 -0.8430  0.1505
  159OSM    H3F17848   5.746   3.964   3.715 -0.3793 -0.8869  1.3522
  159OSM    H3G17849   5.876   3.840   3.748 -1.9270 -3.1036  1.9844
  159OSM    C4F17850   5.689   3.762   3.779  0.5245 -0.6838  0.5532
  159OSM    H4F17851   5.688   3.665   3.725 -3.1698  0.8397 -2.5948
  159OSM    H4G17852   5.592   3.816   3.784  1.5692  1.4749 -0.6602
  159OSM    C5F17853   5.759   3.751   3.919 -0.1161  0.3567  0.4164
  159OSM    H5F17854   5.801   3.848   3.952 -3.3137  1.4272  1.7590
  159OSM    H5G17855   5.838   3.674   3.905 -0.7198  0.2080 -3.1331
  159OSM    C6F17856   5.655   3.715   4.033  0.1519  0.8104  0.3822
  159OSM    H6F17857   5.612   3.621   3.994 -0.1886  1.2663 -0.3506
  159OSM    H6G17858   5.571   3.788   4.029  1.0573  1.8399 -0.8857
  159OSM    C7F17859   5.734   3.703   4.168  0.5766  0.5691  0.6570
  159OSM    H7F17860   5.752   3.801   4.218  0.6127  0.5165  0.7447
  159OSM    H7G17861   5.838   3.670   4.148  0.2126  0.0983 -0.5687
  159OSM    C8F17862   5.657   3.615   4.271 -0.7311  0.4756  0.8164
  159OSM    H8F17863   5.719   3.602   4.362 -0.5421  0.6014  0.7063
  159OSM    H8G17864   5.651   3.517   4.219 -1.2175  0.1948  1.3942
  159OSM    C9F17865   5.520   3.662   4.300  0.8378  0.7597 -0.5758
  159OSM    H9F17866   5.458   3.661   4.210  0.8434 -0.1295 -0.5762
  159OSM   C10F17867   5.471   3.703   4.415 -0.9459  0.3081 -0.0019
  159OSM   H10F17868   5.362   3.721   4.415 -1.5611 -2.8070 -0.1996
  159OSM   C11F17869   5.540   3.703   4.548 -0.2234 -0.4618 -0.2169
  159OSM   H11F17870   5.517   3.799   4.599  0.4069 -1.1401  1.4247
  159OSM   H11G17871   5.650   3.709   4.534  0.0211  0.7846  1.7450
  159OSM   C12F17872   5.508   3.586   4.627  0.4331  0.8038 -0.0848
  159OSM   H12F17873   5.556   3.501   4.575  2.1827  2.9789 -2.2296
  159OSM   H12G17874   5.398   3.568   4.629  0.6950 -1.0036 -0.4579
  159OSM   C13F17875   5.548   3.594   4.771  0.1640 -0.3083 -0.6361
  159OSM   H13F17876   5.517   3.691   4.817  2.7630  1.4207 -2.2109
  159OSM   H13G17877   5.659   3.590   4.781  0.2263  0.3236 -0.9768
  159OSM   C14F17878   5.490   3.475   4.856  0.1672  0.4319 -0.0363
  159OSM   H14F17879   5.541   3.494   4.953 -1.1362  3.2526  0.2081
  159OSM   H14G17880   5.527   3.385   4.803  0.4064 -0.0017  0.8515
  159OSM   C15F17881   5.343   3.475   4.880 -0.5476 -0.1586 -0.1762
  159OSM   H15F17882   5.292   3.451   4.784 -0.1116 -0.4835 -0.3290
  159OSM   H15G17883   5.316   3.577   4.913  0.3042  0.0938 -0.2379
  159OSM   C16F17884   5.294   3.373   4.983  0.3418 -0.3156  0.6611
  159OSM   H16F17885   5.345   3.398   5.078 -0.2961  2.5050  0.3540
  159OSM   H16G17886   5.328   3.271   4.955 -1.7271 -1.3461  1.6731
  159OSM   C17F17887   5.138   3.365   4.988 -1.0340  0.0191 -0.3352
  159OSM   H17F17888   5.105   3.324   4.890  0.8072 -1.8558 -0.2199
  159OSM   H17G17889   5.093   3.466   4.998 -0.2520  0.3839 -0.4188
  159OSM   C18F17890   5.076   3.274   5.094  0.2614  0.0953  0.2808
  159OSM   H18F17891   4.965   3.266   5.091  0.2396  0.3462  0.4473
  159OSM   H18G17892   5.122   3.296   5.193  3.6407 -3.6873 -0.1561
  159OSM   H18H17893   5.102   3.167   5.078  0.9536  0.0767  1.4251
  160OSM      N17894   3.466   3.553   2.632 -0.0771  1.4467 -0.4100
  160OSM    C1517895   3.496   3.693   2.663  0.0553 -0.2728 -0.3745
  160OSM   H15A17896   3.466   3.717   2.764  0.7453  0.8430 -0.4147
  160OSM   H15B17897   3.451   3.763   2.595  1.0637  2.0017  1.1423
  160OSM   H15C17898   3.602   3.714   2.664  0.0602 -0.1667  1.8399
  160OSM    C1417899   3.318   3.530   2.657  0.2147 -0.1141  0.1965
  160OSM   H14A17900   3.257   3.608   2.615 -1.6628 -1.5416  0.1373
  160OSM   H14B17901   3.300   3.525   2.763 -1.1980  0.9901  0.0270
  160OSM   H14C17902   3.292   3.434   2.614  1.0604 -0.3246  0.1289
  160OSM    C1317903   3.498   3.527   2.490 -0.4125 -0.2974  0.5783
  160OSM   H13A17904   3.436   3.448   2.451 -0.8997  1.5996 -2.8132
  160OSM   H13B17905   3.603   3.509   2.470 -0.5402 -0.4823  0.0645
  160OSM   H13C17906   3.467   3.617   2.439  0.9719  1.5391  2.7699
  160OSM    C1217907   3.553   3.454   2.718  0.8002  0.0300 -0.4669
  160OSM   H12A17908   3.653   3.493   2.727  0.6688  0.5491 -1.1367
  160OSM   H12B17909   3.559   3.363   2.661  0.6386 -0.2950  0.0304
  160OSM    C1117910   3.519   3.426   2.863  0.3363  0.1775 -0.3140
  160OSM   H11A17911   3.581   3.336   2.885  0.3715  0.4555  0.7702
  160OSM   H11B17912   3.415   3.394   2.882 -0.6259  2.2434 -1.7740
  160OSM      P17913   3.465   3.615   3.027  0.0016 -0.0728  0.2191
  160OSM    O1317914   3.517   3.751   3.058 -0.2914  0.4499  0.4895
  160OSM    O1417915   3.332   3.610   2.964 -0.6635 -0.0600 -0.1125
  160OSM    O1117916   3.448   3.532   3.156  0.1677  0.6137 -0.3766
  160OSM    O1217917   3.573   3.533   2.944 -0.1153 -0.2319 -0.3415
  160OSM    C1S17918   3.562   3.469   3.217  0.3685 -0.1404 -0.0553
  160OSM    H1S17919   3.648   3.538   3.207  0.1193 -0.0998 -2.5282
  160OSM    H1T17920   3.586   3.377   3.159 -1.9284 -1.2310  0.5990
  160OSM     NF17921   3.664   3.385   3.431 -0.6318 -0.5503 -0.0018
  160OSM    HNF17922   3.692   3.294   3.458  0.1679  0.0787  1.4377
  160OSM    C2S17923   3.539   3.421   3.367 -0.6032 -0.1604  0.2705
  160OSM    H2S17924   3.508   3.513   3.421  1.0733  0.1220  0.8319
  160OSM    C3S17925   3.442   3.308   3.366  0.0308  0.3471 -0.6017
  160OSM    H3S17926   3.491   3.223   3.315 -1.3473 -0.6593 -0.3075
  160OSM     O317927   3.326   3.327   3.293  0.1395 -0.1566  0.5613
  160OSM    HO317928   3.332   3.416   3.256  0.2380  0.0672  1.1007
  160OSM    C4S17929   3.413   3.266   3.511 -0.0168  0.2103  0.4579
  160OSM    H4S17930   3.452   3.168   3.542  0.8019  0.7239  1.0758
  160OSM    C5S17931   3.325   3.324   3.600  0.1907  0.4581 -0.1213
  160OSM    H5S17932   3.268   3.410   3.563 -0.4267 -1.0652 -3.0153
  160OSM    C6S17933   3.279   3.270   3.737 -0.2274 -0.8767  1.0098
  160OSM    H6S17934   3.190   3.203   3.730 -0.4830 -0.5839  1.4095
  160OSM    H6T17935   3.249   3.361   3.794 -2.2014 -0.2230 -0.9259
  160OSM    C7S17936   3.385   3.180   3.806 -0.2800  0.5195  0.1360
  160OSM    H7S17937   3.470   3.247   3.830  0.8612 -1.1323  0.9190
  160OSM    H7T17938   3.409   3.101   3.732  0.2872  0.5044  0.3345
  160OSM    C8S17939   3.334   3.123   3.931 -0.2750  0.0260  0.1258
  160OSM    H8S17940   3.242   3.063   3.916 -0.6452  0.4972  0.5018
  160OSM    H8T17941   3.308   3.209   3.997  1.2144  0.7921 -0.2429
  160OSM    C9S17942   3.439   3.030   4.004  0.8361 -0.2375 -0.9116
  160OSM    H9S17943   3.535   3.086   4.009  0.5455  0.3910 -2.0011
  160OSM    H9T17944   3.466   2.947   3.936  2.0259  0.5345 -1.4135
  160OSM   C10S17945   3.373   2.962   4.127 -0.0604  0.3050 -0.4278
  160OSM   H10S17946   3.458   2.918   4.183 -1.9677 -0.1254  2.3612
  160OSM   H10T17947   3.297   2.882   4.112 -1.1290  0.6898  2.2464
  160OSM   C11S17948   3.313   3.061   4.225  0.2992 -0.2234  0.1851
  160OSM   H11S17949   3.224   3.118   4.189 -0.5448 -2.1802 -0.9571
  160OSM   H11T17950   3.399   3.128   4.247  0.8271 -1.4561  2.0693
  160OSM   C12S17951   3.281   3.002   4.358  0.0315  0.7797  0.9561
  160OSM   H12S17952   3.348   2.921   4.391 -1.8581 -2.1487 -1.8094
  160OSM   H12T17953   3.182   2.953   4.345 -0.9117  2.3867  1.6428
  160OSM   C13S17954   3.254   3.106   4.464 -0.0220  0.9635 -0.4603
  160OSM   H13S17955   3.191   3.189   4.426 -0.2496  0.9139 -0.1972
  160OSM   H13T17956   3.349   3.160   4.486 -0.2318  0.8577  0.7776
  160OSM   C14S17957   3.192   3.041   4.592 -0.3994 -0.3177 -0.2787
  160OSM   H14S17958   3.264   2.966   4.631 -0.6674  0.1507  1.1537
  160OSM   H14T17959   3.091   3.003   4.564 -0.5200 -0.3390  0.1735
  160OSM   C15S17960   3.166   3.162   4.692  0.3526 -0.0909 -0.2396
  160OSM   H15S17961   3.086   3.229   4.655  2.1268  1.5215 -1.3166
  160OSM   H15T17962   3.260   3.222   4.692 -0.6388  1.5246 -0.4420
  160OSM   C16S17963   3.123   3.116   4.838 -0.2999 -0.3388  0.2694
  160OSM   H16S17964   3.186   3.042   4.892 -1.9816 -2.8279 -0.9452
  160OSM   H16T17965   3.027   3.060   4.837 -0.7958  0.5049 -0.4322
  160OSM   C17S17966   3.099   3.235   4.929 -0.3260  0.7588 -0.0188
  160OSM   H17S17967   3.065   3.318   4.864 -0.0994  0.3141 -0.7185
  160OSM   H17T17968   3.194   3.270   4.973  1.4060  0.6613 -3.3387
  160OSM   C18S17969   2.985   3.216   5.031  0.1464 -0.0471 -0.0423
  160OSM   H18S17970   2.983   3.306   5.097 -0.0239  0.4616 -0.7288
  160OSM   H18T17971   3.015   3.126   5.090 -0.0272 -0.8103 -1.0936
  160OSM   H18U17972   2.888   3.193   4.984 -1.1267 -2.5475  3.3943
  160OSM    C1F17973   3.758   3.478   3.440 -0.4342  0.1119  0.3878
  160OSM     OF17974   3.734   3.595   3.408  0.1831 -0.0248  0.3665
  160OSM    C2F17975   3.895   3.442   3.493  0.2578  0.0759  0.1312
  160OSM    H2F17976   3.970   3.417   3.415 -0.0863  2.9910 -1.2658
  160OSM    H2G17977   3.883   3.356   3.562 -2.8292  0.1426 -0.2003
  160OSM    C3F17978   3.951   3.557   3.579  0.0040  0.0379 -0.3386
  160OSM    H3F17979   3.961   3.643   3.509  3.0164 -1.0932 -1.4872
  160OSM    H3G17980   4.053   3.523   3.607 -0.4926  0.6717  2.6837
  160OSM    C4F17981   3.883   3.578   3.712  0.1029  0.0134  0.1683
  160OSM    H4F17982   3.899   3.479   3.760  1.2843 -0.5366 -1.2552
  160OSM    H4G17983   3.773   3.590   3.704  0.0142 -1.6812 -1.9681
  160OSM    C5F17984   3.949   3.680   3.811 -0.3584  0.6953 -0.2563
  160OSM    H5F17985   3.968   3.782   3.771  0.3311  1.0468  0.9231
  160OSM    H5G17986   4.049   3.636   3.831 -0.9216 -1.2521 -1.4280
  160OSM    C6F17987   3.868   3.692   3.947  0.4240  0.2277  0.0257
  160OSM    H6F17988   3.834   3.590   3.973 -0.5276 -0.0321 -2.0095
  160OSM    H6G17989   3.774   3.747   3.926 -0.4715 -1.3638 -0.3336
  160OSM    C7F17990   3.955   3.743   4.066  0.2622  0.7406  0.4725
  160OSM    H7F17991   3.964   3.850   4.035  0.9838  0.6976  0.4998
  160OSM    H7G17992   4.056   3.698   4.075 -0.2681 -0.2589  1.6929
  160OSM    C8F17993   3.880   3.732   4.193  0.6752  0.3744 -0.7085
  160OSM    H8F17994   3.943   3.754   4.282 -1.7481 -1.3993  1.6092
  160OSM    H8G17995   3.858   3.626   4.214  2.8827  0.2830  1.5825
  160OSM    C9F17996   3.755   3.822   4.197 -0.4987 -0.1079  0.2471
  160OSM    H9F17997   3.681   3.786   4.125  0.8523 -1.8351 -0.3751
  160OSM   C10F17998   3.742   3.925   4.280 -0.4248  0.3351 -0.3522
  160OSM   H10F17999   3.644   3.976   4.280 -0.7473 -0.2354  0.9092
  160OSM   C11F18000   3.850   3.984   4.367 -0.1593 -0.3157  1.0746
  160OSM   H11F18001   3.849   4.091   4.337 -0.3199 -0.6523 -0.1563
  160OSM   H11G18002   3.951   3.947   4.342  0.2242  1.7667 -0.8184
  160OSM   C12F18003   3.815   3.967   4.515  0.0621  0.1917  0.1283
  160OSM   H12F18004   3.715   4.006   4.544 -0.3227  0.9021 -1.9824
  160OSM   H12G18005   3.893   4.032   4.562 -2.0799  2.3685  0.8727
  160OSM   C13F18006   3.836   3.821   4.557 -0.4227 -0.9628  0.6925
  160OSM   H13F18007   3.938   3.787   4.528  0.2409  0.5496  1.1287
  160OSM   H13G18008   3.769   3.756   4.498  0.9529 -1.3028 -0.5580
  160OSM   C14F18009   3.821   3.809   4.707  0.3207  0.0848 -0.1071
  160OSM   H14F18010   3.719   3.844   4.730  0.6401  0.5187  0.6886
  160OSM   H14G18011   3.882   3.887   4.758  0.2343  0.4886 -0.6066
  160OSM   C15F18012   3.855   3.674   4.764  1.0333 -0.2446 -0.8001
  160OSM   H15F18013   3.962   3.642   4.762  0.7090 -1.4965  0.5287
  160OSM   H15G18014   3.807   3.606   4.690 -0.8820 -0.2778  0.4211
  160OSM   C16F18015   3.786   3.629   4.891  0.0831 -0.2986 -0.4115
  160OSM   H16F18016   3.801   3.521   4.908  0.0907 -0.2139  0.1308
  160OSM   H16G18017   3.679   3.654   4.880  0.3582  1.2960  0.2517
  160OSM   C17F18018   3.831   3.701   5.020  0.5329  0.0826 -0.4248
  160OSM   H17F18019   3.804   3.807   4.997 -0.1655  0.0578  0.2270
  160OSM   H17G18020   3.941   3.705   5.024  0.4929  0.3610  2.3398
  160OSM   C18F18021   3.774   3.641   5.154 -0.0570 -0.4841 -0.3657
  160OSM   H18F18022   3.804   3.705   5.239 -1.6887  0.0968 -0.1913
  160OSM   H18G18023   3.825   3.543   5.164  1.0492  0.1088  0.0709
  160OSM   H18H18024   3.665   3.633   5.170  0.3467  0.4801  3.8464
  161OSM      N18025   1.319   3.153   2.979 -0.0678 -0.6406  0.0656
  161OSM    C1518026   1.377   3.203   2.848 -0.2394  0.9168 -0.3607
  161OSM   H15A18027   1.306   3.263   2.793 -0.0133  0.5441 -1.0695
  161OSM   H15B18028   1.394   3.113   2.790  1.0387 -1.1660  2.9947
  161OSM   H15C18029   1.474   3.250   2.858  2.3632 -3.5100 -1.8455
  161OSM    C1418030   1.314   3.270   3.063 -0.2607 -0.1896 -0.1470
  161OSM   H14A18031   1.305   3.232   3.164  0.0243  1.2003  0.4242
  161OSM   H14B18032   1.228   3.334   3.048 -0.0435 -0.1957 -1.4658
  161OSM   H14C18033   1.406   3.327   3.063 -1.3623  1.6623 -1.4188
  161OSM    C1318034   1.185   3.115   2.958  0.3182  0.1568  0.4601
  161OSM   H13A18035   1.114   3.196   2.952  2.2603  2.3980  3.9669
  161OSM   H13B18036   1.136   3.058   3.036 -1.2841 -0.0039 -0.6247
  161OSM   H13C18037   1.172   3.052   2.871 -2.1717  0.0843  0.8175
  161OSM    C1218038   1.395   3.032   3.032  0.0418 -0.1886 -0.5331
  161OSM   H12A18039   1.499   3.059   3.039  0.2811 -1.1270 -0.4068
  161OSM   H12B18040   1.379   2.954   2.960  0.7480  1.3461 -2.4548
  161OSM    C1118041   1.354   2.981   3.168  0.1037 -0.2045 -0.0636
  161OSM   H11A18042   1.379   3.060   3.242 -0.1743  0.3623 -0.5734
  161OSM   H11B18043   1.419   2.893   3.189 -1.8280 -1.2379  2.1514
  161OSM      P18044   1.177   2.782   3.167  0.2057 -0.0659  0.0331
  161OSM    O1318045   1.033   2.767   3.187 -0.2487  0.0987 -0.1139
  161OSM    O1418046   1.236   2.719   3.050  0.6611  0.4747  0.8424
  161OSM    O1118047   1.251   2.713   3.297  0.0345  0.3027  0.1541
  161OSM    O1218048   1.217   2.938   3.170  0.0516  0.2004  0.1751
  161OSM    C1S18049   1.245   2.778   3.425 -0.2225  0.0512 -0.3620
  161OSM    H1S18050   1.190   2.875   3.421  1.0735  0.8311 -0.1034
  161OSM    H1T18051   1.350   2.786   3.462 -0.7403  0.0643  1.1629
  161OSM     NF18052   1.195   2.735   3.668 -0.0055 -1.1686 -0.1696
  161OSM    HNF18053   1.270   2.704   3.726  1.4601  1.1304 -0.7234
  161OSM    C2S18054   1.179   2.679   3.532 -0.5890 -0.1066  0.0457
  161OSM    H2S18055   1.069   2.680   3.514 -1.1786  0.6471  3.1030
  161OSM    C3S18056   1.224   2.539   3.515 -0.0316  0.9832  0.2781
  161OSM    H3S18057   1.332   2.529   3.535  0.2079 -2.4601 -1.8481
  161OSM     O318058   1.209   2.486   3.382 -0.6416  0.4139 -0.1113
  161OSM    HO318059   1.215   2.564   3.326  1.4675  0.2487 -0.1615
  161OSM    C4S18060   1.147   2.436   3.605  0.3683  0.1665 -0.2117
  161OSM    H4S18061   1.210   2.384   3.679 -0.4916 -0.3805  0.1516
  161OSM    C5S18062   1.015   2.400   3.594  0.3849 -0.0752  0.7963
  161OSM    H5S18063   0.947   2.451   3.525  0.2412 -0.2337  0.8200
  161OSM    C6S18064   0.935   2.310   3.687 -0.1227  0.5944  0.2664
  161OSM    H6S18065   0.876   2.249   3.615  0.8955  0.1613 -0.2113
  161OSM    H6T18066   0.869   2.373   3.751  1.3134  2.5197 -0.0832
  161OSM    C7S18067   1.013   2.226   3.789  0.3403  0.9815 -0.2206
  161OSM    H7S18068   1.092   2.285   3.838 -0.3912  0.5934  1.5088
  161OSM    H7T18069   1.074   2.159   3.724  2.1599  2.7240 -0.4038
  161OSM    C8S18070   0.929   2.154   3.896  0.3725  0.1011  0.4840
  161OSM    H8S18071   0.998   2.095   3.961  1.6642  1.7428  0.6726
  161OSM    H8T18072   0.849   2.087   3.857 -0.2092  1.1075 -0.0747
  161OSM    C9S18073   0.860   2.247   3.991 -0.0831  0.1591  0.6031
  161OSM    H9S18074   0.771   2.290   3.941  0.6284  1.4960  0.4610
  161OSM    H9T18075   0.937   2.314   4.034  0.4247  1.4143 -2.0695
  161OSM   C10S18076   0.795   2.173   4.110  0.5898 -0.0720  0.0659
  161OSM   H10S18077   0.869   2.102   4.153  2.5417 -0.9229 -4.1896
  161OSM   H10T18078   0.715   2.110   4.067  0.0234  1.1278 -0.6881
  161OSM   C11S18079   0.732   2.256   4.222  0.3463  0.3133  0.6705
  161OSM   H11S18080   0.640   2.313   4.198  0.1298  0.6455  2.2002
  161OSM   H11T18081   0.796   2.334   4.267 -0.1786 -0.5101  2.9807
  161OSM   C12S18082   0.688   2.175   4.344  0.1308 -0.4818  0.0304
  161OSM   H12S18083   0.771   2.106   4.370 -0.9411 -2.0113 -0.4678
  161OSM   H12T18084   0.604   2.105   4.321 -0.6536  0.2929  0.4977
  161OSM   C13S18085   0.655   2.267   4.464  0.2561 -0.0384 -0.9744
  161OSM   H13S18086   0.556   2.315   4.447 -1.2342 -2.6265 -0.1481
  161OSM   H13T18087   0.737   2.341   4.477  0.9828 -0.4055 -3.0747
  161OSM   C14S18088   0.650   2.192   4.600 -0.2599 -0.2129  0.3689
  161OSM   H14S18089   0.755   2.164   4.623 -0.3217 -1.2884 -0.5580
  161OSM   H14T18090   0.594   2.097   4.588 -1.3733  0.1616  2.2665
  161OSM   C15S18091   0.583   2.277   4.710 -0.3630  0.1677  0.1679
  161OSM   H15S18092   0.509   2.339   4.655 -0.5016  0.7860  1.0262
  161OSM   H15T18093   0.659   2.348   4.751  0.9897 -0.8004 -0.5973
  161OSM   C16S18094   0.517   2.195   4.816 -0.1597 -0.0964 -0.0400
  161OSM   H16S18095   0.582   2.105   4.826  1.8330  1.1069 -1.3894
  161OSM   H16T18096   0.426   2.150   4.771  0.2899 -0.4900 -0.5715
  161OSM   C17S18097   0.492   2.263   4.948 -0.1636  0.7246 -0.6008
  161OSM   H17S18098   0.438   2.194   5.016 -0.5979  1.7699  0.1415
  161OSM   H17T18099   0.425   2.350   4.935 -1.4285  0.0135  0.8265
  161OSM   C18S18100   0.623   2.313   5.018 -0.9315 -0.6040  0.2876
  161OSM   H18S18101   0.677   2.218   5.041 -1.7063 -0.9885  0.5636
  161OSM   H18T18102   0.593   2.368   5.110  1.0144 -0.2542  0.7714
  161OSM   H18U18103   0.677   2.379   4.947 -0.5122 -2.8321 -1.5837
  161OSM    C1F18104   1.128   2.845   3.698 -0.0353  0.2934  0.2020
  161OSM     OF18105   1.074   2.910   3.613  0.1842 -1.0666  0.3318
  161OSM    C2F18106   1.134   2.892   3.842 -1.1500  0.1875  0.0733
  161OSM    H2F18107   1.231   2.860   3.886 -1.6924 -0.1638  1.0306
  161OSM    H2G18108   1.053   2.838   3.896 -0.5625 -0.8831 -0.0743
  161OSM    C3F18109   1.100   3.041   3.852  0.1581  0.3266  0.5065
  161OSM    H3F18110   1.018   3.078   3.787 -1.8748 -2.4565  1.3003
  161OSM    H3G18111   1.194   3.093   3.823  0.4426 -0.8814 -0.8470
  161OSM    C4F18112   1.075   3.079   3.996 -0.4833 -0.6037  0.2368
  161OSM    H4F18113   0.967   3.080   4.022  0.1996 -1.2650  3.6527
  161OSM    H4G18114   1.115   3.181   4.016 -0.8281 -1.0018  3.6130
  161OSM    C5F18115   1.140   2.992   4.111 -0.6047  0.1341  0.2420
  161OSM    H5F18116   1.250   2.980   4.102 -0.4394  1.1401  0.7677
  161OSM    H5G18117   1.101   2.888   4.108  2.0560 -0.9648  0.6205
  161OSM    C6F18118   1.133   3.047   4.257 -0.2395  0.4857  0.1797
  161OSM    H6F18119   1.028   3.030   4.288 -0.6463  1.3024 -0.7160
  161OSM    H6G18120   1.148   3.157   4.256  1.2614  0.2932 -0.0955
  161OSM    C7F18121   1.241   2.982   4.348 -0.1727  0.0641 -0.2241
  161OSM    H7F18122   1.342   3.020   4.321  0.9384 -1.7851  1.0962
  161OSM    H7G18123   1.247   2.872   4.331  1.2324  0.0443  0.2998
  161OSM    C8F18124   1.219   2.996   4.499  0.4260  0.1087 -0.1090
  161OSM    H8F18125   1.290   2.926   4.547 -0.0592 -0.3049  0.0226
  161OSM    H8G18126   1.119   2.955   4.525  0.3998 -0.6731 -1.3558
  161OSM    C9F18127   1.239   3.139   4.555 -0.2002  0.6636  0.7368
  161OSM    H9F18128   1.239   3.221   4.482 -0.6127 -1.3594 -1.6508
  161OSM   C10F18129   1.283   3.165   4.679  0.1308 -0.0700  0.1533
  161OSM   H10F18130   1.316   3.267   4.706  0.0999  0.1908 -0.7603
  161OSM   C11F18131   1.321   3.062   4.784  0.4165  0.6705 -0.6981
  161OSM   H11F18132   1.427   3.030   4.776 -0.4306 -2.1048 -1.9241
  161OSM   H11G18133   1.259   2.970   4.772  2.1240 -0.5801 -0.2509
  161OSM   C12F18134   1.288   3.111   4.926 -0.1472  1.4939 -0.4943
  161OSM   H12F18135   1.181   3.138   4.933 -0.1935  0.9347  2.0079
  161OSM   H12G18136   1.357   3.195   4.950  1.4330 -0.0063  0.5724
  161OSM   C13F18137   1.312   2.996   5.025 -0.2847  1.0696 -0.9157
  161OSM   H13F18138   1.257   2.903   4.997  1.4722  0.0459 -1.1453
  161OSM   H13G18139   1.275   3.015   5.128  2.1590 -1.9826  0.6974
  161OSM   C14F18140   1.458   2.958   5.044 -0.3204 -0.2491 -0.1910
  161OSM   H14F18141   1.505   3.033   5.112 -0.4619 -0.0537 -0.3053
  161OSM   H14G18142   1.503   2.970   4.944 -1.0059  0.3651 -0.4398
  161OSM   C15F18143   1.475   2.820   5.100  0.3713 -0.2194  0.4374
  161OSM   H15F18144   1.582   2.790   5.107 -0.5834 -3.6522  2.7130
  161OSM   H15G18145   1.443   2.742   5.026  2.2980  0.2792 -1.0093
  161OSM   C16F18146   1.408   2.802   5.231  0.1333 -0.1211  0.1103
  161OSM   H16F18147   1.301   2.831   5.221 -0.2875 -1.7757 -0.7282
  161OSM   H16G18148   1.444   2.879   5.302  0.3218  1.8081 -1.9602
  161OSM   C17F18149   1.417   2.659   5.287  0.4521  0.2597 -0.2696
  161OSM   H17F18150   1.353   2.600   5.218  1.6023  0.0913 -1.2083
  161OSM   H17G18151   1.387   2.640   5.393  0.1985 -0.7102 -0.5099
  161OSM   C18F18152   1.556   2.595   5.282  0.2410  0.3951  0.0439
  161OSM   H18F18153   1.639   2.664   5.311 -1.0443  1.9169  0.2375
  161OSM   H18G18154   1.568   2.559   5.177 -0.1330  0.3958  0.0012
  161OSM   H18H18155   1.544   2.499   5.337 -0.6586  0.5027  0.0384
  162OSM      N18156   6.845   3.241   3.377  0.1822  0.6349 -0.4940
  162OSM    C1518157   6.828   3.188   3.518  0.0240 -0.5273  0.0549
  162OSM   H15A18158   6.909   3.124   3.550 -0.0394 -1.4728 -1.5667
  162OSM   H15B18159   6.735   3.134   3.528  0.2376 -1.5850 -2.7624
  162OSM   H15C18160   6.821   3.283   3.569  0.0358  1.3714 -3.1887
  162OSM    C1418161   6.885   3.121   3.294 -0.1195  0.0677 -0.5341
  162OSM   H14A18162   6.825   3.031   3.303  1.0862 -1.0078 -2.3491
  162OSM   H14B18163   6.990   3.098   3.305 -0.4157 -1.4034 -0.5584
  162OSM   H14C18164   6.871   3.144   3.189 -0.8484  2.0085 -0.0422
  162OSM    C1318165   6.716   3.304   3.338  0.4117  0.1361  0.3264
  162OSM   H13A18166   6.634   3.234   3.330  1.9282 -1.5177 -2.3413
  162OSM   H13B18167   6.724   3.357   3.244  1.8608  0.4325  0.6022
  162OSM   H13C18168   6.685   3.372   3.416 -1.0929  0.4891 -0.5391
  162OSM    C1218169   6.954   3.346   3.384 -0.2198 -0.7535  0.4880
  162OSM   H12A18170   7.039   3.309   3.440  0.7198  1.2922  0.4873
  162OSM   H12B18171   6.921   3.432   3.439  1.1441 -1.4802  2.5656
  162OSM    C1118172   7.010   3.407   3.247 -0.2165 -0.1455  0.5073
  162OSM   H11A18173   7.060   3.328   3.186  0.8799 -0.2494  1.5022
  162OSM   H11B18174   7.084   3.483   3.279  0.2523 -1.1248  1.8839
  162OSM      P18175   6.891   3.611   3.144 -0.1119 -0.1201 -0.2769
  162OSM    O1318176   6.996   3.652   3.047  0.2456 -0.1316 -0.1733
  162OSM    O1418177   6.752   3.641   3.108  0.2801  0.0253  0.1612
  162OSM    O1118178   6.919   3.687   3.282  0.0566 -0.1930  0.0577
  162OSM    O1218179   6.904   3.457   3.175  0.5204  0.2251  0.3159
  162OSM    C1S18180   6.811   3.694   3.379 -0.2391  0.0948  0.3339
  162OSM    H1S18181   6.765   3.595   3.398  2.9112 -1.8560 -1.4295
  162OSM    H1T18182   6.729   3.762   3.347  0.1739 -0.2165 -1.4733
  162OSM     NF18183   6.781   3.703   3.621 -0.7489 -0.4332  0.5451
  162OSM    HNF18184   6.719   3.773   3.655 -2.7869 -1.3394 -1.0833
  162OSM    C2S18185   6.868   3.744   3.510  0.2720 -0.1721 -0.0961
  162OSM    H2S18186   6.971   3.708   3.533 -0.0430 -0.2231  1.3370
  162OSM    C3S18187   6.884   3.893   3.509  0.0371  0.5083 -0.4404
  162OSM    H3S18188   6.785   3.938   3.483 -0.1624 -0.2226 -0.9632
  162OSM     O318189   6.971   3.933   3.410 -0.3569  0.0346  0.5528
  162OSM    HO318190   6.999   3.850   3.371  1.1376  1.1119 -0.7904
  162OSM    C4S18191   6.942   3.936   3.642 -0.2215 -0.2674 -0.3970
  162OSM    H4S18192   7.033   3.884   3.673 -1.9504 -1.5066  3.1169
  162OSM    C5S18193   6.892   4.036   3.722 -0.8111 -0.7428  0.1652
  162OSM    H5S18194   6.802   4.094   3.694 -0.0642  0.4054  0.0871
  162OSM    C6S18195   6.949   4.070   3.858  0.5708  0.4211 -1.1597
  162OSM    H6S18196   7.021   3.992   3.891  0.8574  1.1900  0.0884
  162OSM    H6T18197   6.870   4.073   3.936  1.3223  0.6521 -0.3948
  162OSM    C7S18198   7.013   4.213   3.864  0.8512 -0.5291 -0.0110
  162OSM    H7S18199   6.950   4.296   3.827 -0.7790 -1.8546 -0.3412
  162OSM    H7T18200   7.104   4.214   3.801  1.3511 -1.5998  0.6518
  162OSM    C8S18201   7.057   4.258   4.004 -0.0078 -0.2681  0.5663
  162OSM    H8S18202   6.983   4.305   4.072 -0.6351 -0.5340  0.0811
  162OSM    H8T18203   7.129   4.340   3.983  0.3385 -0.9323 -1.0432
  162OSM    C9S18204   7.128   4.169   4.104 -0.1389 -0.2908 -0.0574
  162OSM    H9S18205   7.219   4.127   4.055  0.4070 -1.8950  2.1420
  162OSM    H9T18206   7.076   4.075   4.130  3.5569 -2.5401 -0.0380
  162OSM   C10S18207   7.163   4.246   4.237 -0.4419 -0.1547  0.6291
  162OSM   H10S18208   7.070   4.302   4.259 -0.2337  0.6485 -0.4092
  162OSM   H10T18209   7.242   4.318   4.205  0.2672 -0.7318  1.0572
  162OSM   C11S18210   7.208   4.166   4.355 -0.2234  0.4580  0.2704
  162OSM   H11S18211   7.298   4.108   4.326 -1.7496 -0.4563 -3.0148
  162OSM   H11T18212   7.130   4.089   4.375  0.9477 -1.2530 -1.3565
  162OSM   C12S18213   7.237   4.247   4.487  0.1934 -0.2043  0.5133
  162OSM   H12S18214   7.149   4.297   4.532  0.5655 -0.1534  1.1862
  162OSM   H12T18215   7.313   4.326   4.470 -1.3212  1.2805  0.4491
  162OSM   C13S18216   7.291   4.153   4.592 -0.1871 -0.0554 -0.6943
  162OSM   H13S18217   7.394   4.124   4.566  0.9509  3.3982 -0.6004
  162OSM   H13T18218   7.226   4.064   4.602 -0.2758  0.0340 -0.4698
  162OSM   C14S18219   7.290   4.214   4.736 -0.0170  0.2889 -0.0700
  162OSM   H14S18220   7.196   4.263   4.770  1.7636  2.5505  2.0295
  162OSM   H14T18221   7.362   4.298   4.738 -0.3178  0.6232 -1.8752
  162OSM   C15S18222   7.331   4.108   4.842 -0.3406 -0.1454 -0.0888
  162OSM   H15S18223   7.428   4.060   4.816 -0.4611 -0.2125 -0.4244
  162OSM   H15T18224   7.252   4.030   4.842  1.3110 -1.9544 -1.9792
  162OSM   C16S18225   7.347   4.161   4.989 -0.1774  0.2382  0.2409
  162OSM   H16S18226   7.258   4.224   5.010 -1.9548 -0.5329 -3.9229
  162OSM   H16T18227   7.438   4.226   4.994  0.7885 -1.0406 -0.2164
  162OSM   C17S18228   7.363   4.046   5.093 -0.0867  0.0344 -0.5505
  162OSM   H17S18229   7.446   3.985   5.054 -0.8889 -0.8345 -0.9415
  162OSM   H17T18230   7.268   3.988   5.098 -0.1809  0.0266 -1.9808
  162OSM   C18S18231   7.399   4.092   5.235  0.1000 -0.1906 -0.0518
  162OSM   H18S18232   7.387   4.012   5.311  4.1647  0.8513  1.9347
  162OSM   H18T18233   7.321   4.169   5.255  1.8272  1.4639  0.6514
  162OSM   H18U18234   7.497   4.143   5.239  0.9278 -1.7901  1.6076
  162OSM    C1F18235   6.773   3.576   3.657  0.0723  0.5515 -0.0472
  162OSM     OF18236   6.856   3.496   3.616  0.0798  0.4324 -0.0712
  162OSM    C2F18237   6.652   3.533   3.745  0.7003 -0.3951 -0.0739
  162OSM    H2F18238   6.594   3.460   3.683 -0.6603  1.8134 -1.5753
  162OSM    H2G18239   6.585   3.622   3.747  0.3585 -0.6470  1.8301
  162OSM    C3F18240   6.697   3.473   3.881  0.1824  0.0082  0.2831
  162OSM    H3F18241   6.768   3.389   3.873  0.7248  0.5309 -0.6214
  162OSM    H3G18242   6.605   3.421   3.915  1.9647 -2.9849  0.8488
  162OSM    C4F18243   6.769   3.572   3.968  0.5646 -0.0534  0.4126
  162OSM    H4F18244   6.875   3.586   3.938  0.1840  3.1774  0.1658
  162OSM    H4G18245   6.787   3.526   4.067 -1.8802  0.8363  1.3390
  162OSM    C5F18246   6.699   3.706   3.995 -0.3117  0.0706 -0.1034
  162OSM    H5F18247   6.603   3.676   4.041  0.6087 -1.4583  0.8995
  162OSM    H5G18248   6.693   3.771   3.905 -0.7678 -0.7992 -0.7156
  162OSM    C6F18249   6.779   3.791   4.091 -0.0281 -0.0760  0.4517
  162OSM    H6F18250   6.745   3.896   4.096  1.1968  0.2887  1.7756
  162OSM    H6G18251   6.887   3.793   4.063 -0.2749  1.7426 -0.5055
  162OSM    C7F18252   6.761   3.747   4.239  0.0455 -0.1969 -0.2320
  162OSM    H7F18253   6.798   3.643   4.251  0.0065  0.0392  2.5962
  162OSM    H7G18254   6.653   3.738   4.264 -0.7024  1.7671 -2.4184
  162OSM    C8F18255   6.842   3.820   4.347  0.2347  0.8039  0.1618
  162OSM    H8F18256   6.951   3.800   4.337 -0.3343 -2.3724 -0.8540
  162OSM    H8G18257   6.822   3.771   4.444 -0.5888  0.2802 -0.2567
  162OSM    C9F18258   6.822   3.969   4.351 -0.2598  0.5025  0.7161
  162OSM    H9F18259   6.838   4.021   4.255 -4.0524 -0.0157 -0.3720
  162OSM   C10F18260   6.762   4.044   4.442 -0.0552  0.2156  0.0674
  162OSM   H10F18261   6.754   4.153   4.432  0.9538  0.3521  0.6373
  162OSM   C11F18262   6.717   3.988   4.572  0.2456 -0.3382 -0.9030
  162OSM   H11F18263   6.733   3.878   4.579  0.7461 -0.2935 -1.2898
  162OSM   H11G18264   6.606   3.998   4.579  0.3889  0.6186  0.5200
  162OSM   C12F18265   6.772   4.065   4.694  0.2363  0.6958 -0.0197
  162OSM   H12F18266   6.719   4.162   4.707  0.0721  0.4381  1.4926
  162OSM   H12G18267   6.882   4.081   4.684  0.3204  0.6162  0.7175
  162OSM   C13F18268   6.742   3.993   4.829 -0.2932  0.4656  0.6961
  162OSM   H13F18269   6.642   3.946   4.823 -0.1677 -0.0369  2.2240
  162OSM   H13G18270   6.753   4.066   4.912  0.7005  0.0376  0.9598
  162OSM   C14F18271   6.851   3.884   4.852  0.2755  0.3466 -0.2938
  162OSM   H14F18272   6.956   3.919   4.841 -0.5315  2.5598 -1.9116
  162OSM   H14G18273   6.844   3.812   4.768  2.9823  0.6336 -0.8388
  162OSM   C15F18274   6.813   3.805   4.979  0.1234  0.4751  1.0721
  162OSM   H15F18275   6.881   3.717   4.981  2.1793  1.9110 -0.7101
  162OSM   H15G18276   6.709   3.776   4.954  0.7914  0.2093 -1.7821
  162OSM   C16F18277   6.829   3.886   5.113 -0.1303 -0.3017  0.6011
  162OSM   H16F18278   6.733   3.893   5.169  0.0138 -3.1335  1.3308
  162OSM   H16G18279   6.852   3.990   5.083  1.9651 -0.6559  0.8627
  162OSM   C17F18280   6.934   3.820   5.198 -0.4564  0.0263 -0.5248
  162OSM   H17F18281   7.029   3.818   5.142 -0.2661 -3.6721 -0.3206
  162OSM   H17G18282   6.901   3.717   5.225  1.8137 -0.4034  0.8678
  162OSM   C18F18283   6.949   3.886   5.330  0.1930 -0.5343  0.1481
  162OSM   H18F18284   6.997   3.984   5.309  1.8150 -1.5108 -1.0165
  162OSM   H18G18285   7.007   3.819   5.397  1.2245 -0.7992 -0.9633
  162OSM   H18H18286   6.846   3.905   5.366 -0.0636 -2.1868  0.3865
  163OSM      N18287   5.871   2.409   3.136  0.6136 -0.0323  0.5393
  163OSM    C1518288   5.990   2.367   3.214 -1.2161  0.3783 -0.1220
  163OSM   H15A18289   5.992   2.401   3.317  1.7383 -0.5993  0.2585
  163OSM   H15B18290   6.082   2.402   3.168 -1.0974  0.7217  0.3656
  163OSM   H15C18291   5.996   2.260   3.227  0.2337  0.3686 -0.7280
  163OSM    C1418292   5.847   2.317   3.019 -0.3888  0.0094  0.1746
  163OSM   H14A18293   5.743   2.330   2.995 -0.8056  0.6292  2.1354
  163OSM   H14B18294   5.862   2.213   3.042 -1.9053 -0.0255  1.1595
  163OSM   H14C18295   5.910   2.340   2.935 -1.1429 -1.8817 -0.9548
  163OSM    C1318296   5.754   2.390   3.216  0.1254  0.2255  0.4602
  163OSM   H13A18297   5.720   2.288   3.217  0.1670  0.1880 -0.6140
  163OSM   H13B18298   5.668   2.425   3.161  1.0584  0.5021 -0.8696
  163OSM   H13C18299   5.757   2.432   3.316 -2.6013 -1.3460  1.2971
  163OSM    C1218300   5.868   2.554   3.079  0.0518 -0.0728 -0.3613
  163OSM   H12A18301   5.881   2.619   3.164 -0.5480  0.0153 -0.3307
  163OSM   H12B18302   5.772   2.571   3.031 -0.9853 -0.0457  1.6066
  163OSM    C1118303   5.994   2.584   2.978 -0.2711 -0.3577 -0.1802
  163OSM   H11A18304   5.983   2.690   2.948 -0.6896 -0.3399  0.0294
  163OSM   H11B18305   5.984   2.530   2.882  1.9145  2.4377 -2.1548
  163OSM      P18306   6.199   2.667   3.132 -0.7091  0.5623 -0.1931
  163OSM    O1318307   6.336   2.663   3.074 -0.9305 -0.4126 -0.2489
  163OSM    O1418308   6.126   2.797   3.121  0.2472 -0.2067 -0.1146
  163OSM    O1118309   6.206   2.606   3.275  0.1959  0.3544 -0.2897
  163OSM    O1218310   6.116   2.554   3.045  0.1141 -0.8242 -0.0818
  163OSM    C1S18311   6.207   2.672   3.397 -0.2598 -0.2108 -0.5798
  163OSM    H1S18312   6.144   2.764   3.400  0.3037  0.2071 -1.2631
  163OSM    H1T18313   6.310   2.700   3.427 -0.1927 -1.6724  0.6800
  163OSM     NF18314   6.162   2.656   3.655  0.0261 -0.0605 -0.5486
  163OSM    HNF18315   6.227   2.629   3.726 -1.9068  2.1572  2.3066
  163OSM    C2S18316   6.162   2.585   3.526 -0.0816  0.3191  0.4159
  163OSM    H2S18317   6.060   2.546   3.501  0.9447 -2.1365 -0.2285
  163OSM    C3S18318   6.247   2.449   3.529  0.5212  0.8810  0.3506
  163OSM    H3S18319   6.340   2.466   3.586  0.7810 -0.7334  0.4612
  163OSM     O318320   6.288   2.390   3.405  0.1604 -0.4255  0.1231
  163OSM    HO318321   6.290   2.467   3.348  0.1835 -1.1534 -0.8934
  163OSM    C4S18322   6.163   2.353   3.601 -0.1154  0.5680 -0.0976
  163OSM    H4S18323   6.078   2.318   3.541  2.2538 -3.8269 -1.3081
  163OSM    C5S18324   6.206   2.285   3.711  0.2860 -0.0069  0.4153
  163OSM    H5S18325   6.300   2.322   3.755 -0.1470  2.5388 -0.5976
  163OSM    C6S18326   6.142   2.157   3.767 -0.0766 -0.3127 -0.0527
  163OSM    H6S18327   6.140   2.162   3.878  2.4935  1.4460  0.0341
  163OSM    H6T18328   6.212   2.079   3.731 -0.0950  0.1630 -1.1791
  163OSM    C7S18329   6.011   2.114   3.694  0.1623  0.5102  0.0184
  163OSM    H7S18330   6.029   2.121   3.584 -0.2094  1.5897  0.0145
  163OSM    H7T18331   5.934   2.194   3.702  1.2242  1.4268  1.8055
  163OSM    C8S18332   5.956   1.982   3.750  0.1671  0.5331  0.0982
  163OSM    H8S18333   6.030   1.899   3.746 -0.0305  0.1006  3.0978
  163OSM    H8T18334   5.870   1.964   3.681 -0.5579  2.1672  0.5169
  163OSM    C9S18335   5.914   1.991   3.892  0.7819  0.4038 -1.0446
  163OSM    H9S18336   5.845   2.076   3.911 -2.6481 -2.4295  0.2321
  163OSM    H9T18337   5.997   2.004   3.964 -0.3063  1.6083  0.0490
  163OSM   C10S18338   5.825   1.879   3.940 -0.5195 -0.5707  0.2145
  163OSM   H10S18339   5.887   1.786   3.935  0.3715 -0.1412  2.1612
  163OSM   H10T18340   5.743   1.869   3.866  2.6638 -2.0431 -3.5224
  163OSM   C11S18341   5.779   1.895   4.086 -0.5383 -0.1471 -0.7177
  163OSM   H11S18342   5.741   1.998   4.102  0.0751 -0.1395  0.8893
  163OSM   H11T18343   5.869   1.891   4.150 -1.3013 -0.9223  0.3279
  163OSM   C12S18344   5.684   1.779   4.121 -0.7222 -0.6151 -0.3240
  163OSM   H12S18345   5.726   1.677   4.108 -0.1214 -0.5705  1.0462
  163OSM   H12T18346   5.592   1.790   4.061 -2.8720  1.0655  2.9736
  163OSM   C13S18347   5.616   1.802   4.257 -0.6516 -0.4065  0.6953
  163OSM   H13S18348   5.547   1.720   4.286 -3.2090  1.2898 -0.2710
  163OSM   H13T18349   5.560   1.898   4.259 -0.5365 -0.3477  2.1251
  163OSM   C14S18350   5.713   1.817   4.376  0.2292 -0.3053  0.7024
  163OSM   H14S18351   5.754   1.920   4.369  0.6472 -0.5463 -0.7523
  163OSM   H14T18352   5.788   1.736   4.364 -0.3915 -0.8891  0.6943
  163OSM   C15S18353   5.656   1.817   4.517 -0.0265 -0.0345 -0.1241
  163OSM   H15S18354   5.546   1.805   4.514  0.0310 -0.8349  0.5346
  163OSM   H15T18355   5.668   1.911   4.577 -0.0838 -0.5693  0.7501
  163OSM   C16S18356   5.726   1.714   4.607 -0.0356  0.0425 -0.1015
  163OSM   H16S18357   5.829   1.741   4.639 -0.5452 -2.2817  4.3584
  163OSM   H16T18358   5.725   1.615   4.556 -0.8321 -0.3114  0.5787
  163OSM   C17S18359   5.647   1.705   4.737 -0.5935 -0.6432  0.0833
  163OSM   H17S18360   5.547   1.662   4.718 -0.0253 -1.3006 -1.5539
  163OSM   H17T18361   5.643   1.809   4.777 -0.7850 -0.6550  0.0934
  163OSM   C18S18362   5.724   1.621   4.839 -1.0948 -0.9393 -0.0236
  163OSM   H18S18363   5.792   1.677   4.906 -1.0474 -0.5098 -0.4262
  163OSM   H18T18364   5.783   1.543   4.787  0.6722 -0.3137  0.9662
  163OSM   H18U18365   5.646   1.569   4.899 -0.7264 -0.8194  0.5660
  163OSM    C1F18366   6.085   2.761   3.678 -0.3966  0.2971  0.4958
  163OSM     OF18367   5.992   2.793   3.603  0.5276 -0.1915  0.1336
  163OSM    C2F18368   6.117   2.853   3.790 -0.0179 -1.1153 -0.7084
  163OSM    H2F18369   6.195   2.929   3.768 -2.5764  2.2159  0.6423
  163OSM    H2G18370   6.158   2.800   3.879 -1.4083 -0.1850  0.5551
  163OSM    C3F18371   5.981   2.916   3.838  0.3273 -0.6621 -0.5336
  163OSM    H3F18372   5.897   2.845   3.850 -1.3004  1.4108  1.3044
  163OSM    H3G18373   5.953   3.006   3.780  0.5130 -0.8121 -0.8565
  163OSM    C4F18374   6.008   2.959   3.985 -0.3180 -0.0375  0.2861
  163OSM    H4F18375   5.914   3.012   4.007 -0.5215  0.4969 -1.6301
  163OSM    H4G18376   6.095   3.028   3.987 -0.0361 -0.3879  0.4209
  163OSM    C5F18377   6.024   2.848   4.093 -0.2240  0.1375  0.1211
  163OSM    H5F18378   6.095   2.771   4.055 -1.3004 -0.1117 -1.4757
  163OSM    H5G18379   5.923   2.802   4.101  0.2841 -1.0330  0.0336
  163OSM    C6F18380   6.071   2.899   4.231  0.1638 -0.9068 -0.2036
  163OSM    H6F18381   5.989   2.966   4.263 -0.5905 -0.0322 -3.5416
  163OSM    H6G18382   6.158   2.964   4.204 -0.3056 -1.2964 -2.9527
  163OSM    C7F18383   6.101   2.783   4.328 -0.2788  0.4250  0.2848
  163OSM    H7F18384   6.197   2.733   4.303 -0.4792 -0.6594  1.5525
  163OSM    H7G18385   6.034   2.695   4.326 -0.4364  0.5261 -2.5315
  163OSM    C8F18386   6.118   2.830   4.481  0.0772  0.1160  0.2497
  163OSM    H8F18387   6.185   2.919   4.473 -0.0688  0.1514 -0.6962
  163OSM    H8G18388   6.164   2.752   4.545  0.4334 -1.0997 -1.4375
  163OSM    C9F18389   5.987   2.891   4.526 -0.9914  0.0347 -0.4217
  163OSM    H9F18390   5.952   2.972   4.461  0.9589  1.0382 -0.3052
  163OSM   C10F18391   5.921   2.860   4.642  0.0844 -0.1321  0.1399
  163OSM   H10F18392   5.824   2.910   4.658 -0.7269 -1.7783  0.6256
  163OSM   C11F18393   5.956   2.749   4.736  0.6123 -0.3337  0.2348
  163OSM   H11F18394   6.045   2.689   4.705  0.8041  0.8615 -1.6347
  163OSM   H11G18395   5.871   2.681   4.758  1.0696 -1.3589 -0.9985
  163OSM   C12F18396   6.000   2.811   4.869  0.6484 -0.0267 -0.3869
  163OSM   H12F18397   5.915   2.858   4.922 -0.1468 -1.5716 -0.2297
  163OSM   H12G18398   6.071   2.892   4.842 -1.2221  1.6245 -0.5428
  163OSM   C13F18399   6.068   2.712   4.962  0.4359 -0.3041 -0.2617
  163OSM   H13F18400   6.162   2.669   4.921 -1.6585 -2.6348 -3.0388
  163OSM   H13G18401   6.000   2.625   4.971  0.8707 -0.4927  1.3609
  163OSM   C14F18402   6.095   2.763   5.110 -0.1448 -0.1357  0.5486
  163OSM   H14F18403   6.011   2.821   5.156 -0.6346 -1.3576  1.2353
  163OSM   H14G18404   6.190   2.821   5.104 -0.2417  0.2029  1.9595
  163OSM   C15F18405   6.113   2.634   5.188  0.3541 -0.2982  0.2810
  163OSM   H15F18406   6.191   2.578   5.132 -0.7356  2.4036 -4.5344
  163OSM   H15G18407   6.019   2.575   5.188  2.0435 -3.2921  2.5741
  163OSM   C16F18408   6.167   2.647   5.333  0.4324  0.5157 -0.4251
  163OSM   H16F18409   6.238   2.730   5.349  0.3872  0.0837  2.6515
  163OSM   H16G18410   6.225   2.556   5.357 -0.4796 -0.2709 -1.0843
  163OSM   C17F18411   6.058   2.688   5.432  0.4714 -0.0270  0.2082
  163OSM   H17F18412   5.987   2.603   5.445 -1.8499  1.6149 -0.8807
  163OSM   H17G18413   6.003   2.773   5.386  1.4464  0.9014  0.7400
  163OSM   C18F18414   6.121   2.732   5.563 -0.8393 -0.0355 -0.6019
  163OSM   H18F18415   6.200   2.809   5.554 -0.6763 -0.0537  0.5235
  163OSM   H18G18416   6.151   2.642   5.621 -1.3524  0.4976  0.5189
  163OSM   H18H18417   6.033   2.773   5.618 -2.3913 -1.4501 -1.9391
  164OSM      N18418   2.202   4.539   2.992 -0.3803 -0.3090 -0.0012
  164OSM    C1518419   2.270   4.664   2.952 -0.3735  0.5492  0.8952
  164OSM   H15A18420   2.328   4.649   2.862 -0.5122  0.5775  0.8016
  164OSM   H15B18421   2.335   4.707   3.027  1.6450 -2.0533  0.7724
  164OSM   H15C18422   2.189   4.731   2.928 -0.1298 -0.0874 -2.0236
  164OSM    C1418423   2.104   4.573   3.104 -0.2916  0.4827  0.5781
  164OSM   H14A18424   2.155   4.605   3.194 -1.6541  4.8357  0.0206
  164OSM   H14B18425   2.040   4.491   3.132  1.0483 -0.9842 -0.4329
  164OSM   H14C18426   2.047   4.661   3.078  1.2548  1.0461 -1.1630
  164OSM    C1318427   2.114   4.495   2.882  0.2862  0.3978 -0.8276
  164OSM   H13A18428   2.045   4.573   2.856 -1.5742 -0.8828  0.0663
  164OSM   H13B18429   2.059   4.403   2.896 -0.7546  1.1514  0.1413
  164OSM   H13C18430   2.182   4.476   2.800  0.1091 -0.1782 -0.8446
  164OSM    C1218431   2.305   4.426   3.036  0.4031  0.6752  0.1219
  164OSM   H12A18432   2.366   4.470   3.114 -0.8283 -0.8929  2.0691
  164OSM   H12B18433   2.364   4.407   2.948  0.4408 -0.4514  0.3794
  164OSM    C1118434   2.235   4.298   3.087  0.1834  1.2136 -0.0176
  164OSM   H11A18435   2.147   4.276   3.023  1.5588  1.2857 -2.0204
  164OSM   H11B18436   2.208   4.319   3.193 -0.8584  0.7595 -0.1826
  164OSM      P18437   2.290   4.051   3.099  0.7694  0.3006 -0.2135
  164OSM    O1318438   2.148   4.030   3.045 -0.1564 -0.4335  0.0434
  164OSM    O1418439   2.395   3.975   3.036 -0.6814  0.5651  0.0070
  164OSM    O1118440   2.294   4.019   3.255 -0.2823  0.2970  0.0342
  164OSM    O1218441   2.330   4.203   3.077 -0.7586 -0.1619  0.4620
  164OSM    C1S18442   2.209   4.073   3.350 -0.3910 -0.3147 -0.4004
  164OSM    H1S18443   2.103   4.049   3.327 -1.0845 -1.4469  3.2743
  164OSM    H1T18444   2.229   4.182   3.350  1.8825 -0.5546  3.3021
  164OSM     NF18445   2.193   4.136   3.584 -0.0033  0.1604  0.2696
  164OSM    HNF18446   2.261   4.205   3.606 -0.9342  0.2683  3.3461
  164OSM    C2S18447   2.252   4.042   3.500  0.3380  0.1394 -0.4328
  164OSM    H2S18448   2.204   3.945   3.523  2.8986 -1.4506 -1.4342
  164OSM    C3S18449   2.402   4.016   3.538  0.3181 -0.2926 -0.4566
  164OSM    H3S18450   2.442   4.119   3.526  1.8680 -0.4909  2.1491
  164OSM     O318451   2.472   3.944   3.439 -0.0058  0.0646  0.5429
  164OSM    HO318452   2.427   3.971   3.358 -0.0817  2.3182  1.2559
  164OSM    C4S18453   2.420   3.967   3.673 -0.7241 -0.0601  0.0562
  164OSM    H4S18454   2.438   4.045   3.749  1.2882 -1.4822  1.1315
  164OSM    C5S18455   2.427   3.837   3.711  0.7002 -0.3017 -0.1693
  164OSM    H5S18456   2.414   3.757   3.636 -1.8517  1.3879 -1.6731
  164OSM    C6S18457   2.440   3.794   3.854  0.2558  0.4407 -0.2622
  164OSM    H6S18458   2.532   3.732   3.865  0.4861  0.6892 -0.7210
  164OSM    H6T18459   2.355   3.729   3.885 -0.4896  1.6029  0.1804
  164OSM    C7S18460   2.448   3.891   3.972  0.5446 -0.3835  0.1368
  164OSM    H7S18461   2.358   3.956   3.963  2.2671  2.2379  0.6915
  164OSM    H7T18462   2.524   3.972   3.968  1.8344 -1.1270  4.3331
  164OSM    C8S18463   2.466   3.819   4.112  0.1923  0.8330  0.3068
  164OSM    H8S18464   2.565   3.769   4.107 -1.2169 -2.2162  0.6729
  164OSM    H8T18465   2.387   3.741   4.119  1.9588 -1.0004  0.7586
  164OSM    C9S18466   2.453   3.906   4.231 -0.0549 -0.2605 -0.5190
  164OSM    H9S18467   2.348   3.943   4.235 -0.9440 -2.7496  1.9543
  164OSM    H9T18468   2.535   3.980   4.225 -0.6198  0.3801 -0.4647
  164OSM   C10S18469   2.455   3.831   4.360 -0.3714  0.1945 -0.9610
  164OSM   H10S18470   2.546   3.767   4.369 -1.3055 -0.8770  1.9776
  164OSM   H10T18471   2.369   3.765   4.383 -0.4426  0.4675 -0.4412
  164OSM   C11S18472   2.465   3.925   4.484 -0.0962  0.4433 -0.2076
  164OSM   H11S18473   2.373   3.986   4.485 -0.9225 -0.7289 -1.4080
  164OSM   H11T18474   2.553   3.989   4.462  1.4724 -1.1538  1.0805
  164OSM   C12S18475   2.476   3.848   4.616 -0.5290 -0.1654 -0.3639
  164OSM   H12S18476   2.581   3.846   4.654 -0.4466  1.8276 -0.3537
  164OSM   H12T18477   2.430   3.748   4.602 -2.5784  0.5691  0.7912
  164OSM   C13S18478   2.387   3.901   4.730 -0.0727  0.2676  0.1971
  164OSM   H13S18479   2.286   3.894   4.685  0.3532 -1.0031 -0.6115
  164OSM   H13T18480   2.417   4.007   4.745 -3.9192  1.8804 -2.2899
  164OSM   C14S18481   2.402   3.814   4.858 -0.2421  0.3058 -0.4061
  164OSM   H14S18482   2.398   3.703   4.848  0.6417 -0.1159  2.7676
  164OSM   H14T18483   2.304   3.830   4.907 -1.4383 -0.4584 -2.4495
  164OSM   C15S18484   2.523   3.853   4.950  0.4146  0.2368  0.3693
  164OSM   H15S18485   2.526   3.961   4.977 -0.0513  0.2343  0.4454
  164OSM   H15T18486   2.610   3.836   4.883 -0.4509 -1.0628 -0.4800
  164OSM   C16S18487   2.536   3.759   5.077  0.5126  0.0929 -0.0790
  164OSM   H16S18488   2.637   3.784   5.115 -0.4677  0.8697  2.1885
  164OSM   H16T18489   2.541   3.655   5.036 -0.1975  0.3617 -0.8808
  164OSM   C17S18490   2.431   3.771   5.180  0.1384  0.2125  0.2687
  164OSM   H17S18491   2.331   3.741   5.140  0.3734 -0.0311 -0.1463
  164OSM   H17T18492   2.418   3.877   5.209  0.1679  0.2442  0.1669
  164OSM   C18S18493   2.449   3.664   5.289  0.8239 -1.0283 -0.5405
  164OSM   H18S18494   2.526   3.705   5.357 -0.3309  0.0858  0.1182
  164OSM   H18T18495   2.471   3.565   5.244  1.1691 -1.5487  0.7292
  164OSM   H18U18496   2.354   3.666   5.346 -0.6088  0.8849 -2.7879
  164OSM    C1F18497   2.063   4.138   3.605  0.0418 -0.7250 -0.1716
  164OSM     OF18498   1.983   4.063   3.547  0.3375  0.2985 -0.2653
  164OSM    C2F18499   2.009   4.230   3.704  0.6698  0.0557  0.0291
  164OSM    H2F18500   2.057   4.330   3.701  1.1768 -0.2159 -1.5871
  164OSM    H2G18501   2.044   4.193   3.803 -0.3598 -1.0794  0.0035
  164OSM    C3F18502   1.851   4.241   3.712 -0.4327 -0.5143  0.2945
  164OSM    H3F18503   1.799   4.143   3.709 -1.3206 -0.0450 -0.0461
  164OSM    H3G18504   1.805   4.287   3.622  1.8926 -0.1956 -0.8185
  164OSM    C4F18505   1.804   4.329   3.836 -0.1586 -0.3833  0.0106
  164OSM    H4F18506   1.697   4.340   3.810 -0.0994 -0.4197 -0.2505
  164OSM    H4G18507   1.844   4.433   3.841  0.7266 -0.5386 -2.4715
  164OSM    C5F18508   1.812   4.257   3.975  1.0165 -0.1388 -0.0089
  164OSM    H5F18509   1.918   4.228   3.994  1.8140  1.3649 -1.8824
  164OSM    H5G18510   1.749   4.166   3.983  2.3106 -1.0521  0.0659
  164OSM    C6F18511   1.778   4.355   4.091 -0.4396 -0.1507 -0.1297
  164OSM    H6F18512   1.685   4.405   4.056  0.0312  0.6026 -0.3417
  164OSM    H6G18513   1.846   4.442   4.094 -2.1149  1.2309 -0.4027
  164OSM    C7F18514   1.760   4.281   4.225  0.3125  0.4683 -0.5838
  164OSM    H7F18515   1.865   4.256   4.251 -0.1065 -3.7619 -2.1244
  164OSM    H7G18516   1.711   4.183   4.207  1.1711  0.1041 -1.0182
  164OSM    C8F18517   1.696   4.369   4.332  0.4264 -0.0729 -0.6304
  164OSM    H8F18518   1.598   4.402   4.291 -0.5355  0.9105  2.2317
  164OSM    H8G18519   1.749   4.466   4.341  0.0342  0.2362 -1.5289
  164OSM    C9F18520   1.672   4.304   4.459 -0.9074  0.6338  0.2253
  164OSM    H9F18521   1.583   4.238   4.464 -0.0940 -0.8999 -2.7591
  164OSM   C10F18522   1.741   4.320   4.569 -0.4415 -0.4839 -0.0793
  164OSM   H10F18523   1.715   4.257   4.656 -2.9721  3.4210  2.2799
  164OSM   C11F18524   1.873   4.396   4.589 -0.3791 -0.7376  0.1584
  164OSM   H11F18525   1.865   4.446   4.688 -0.6885  1.8281 -1.0817
  164OSM   H11G18526   1.884   4.484   4.522  1.0389  0.4026  1.8013
  164OSM   C12F18527   1.995   4.304   4.592  0.2761 -0.0638 -0.1028
  164OSM   H12F18528   2.084   4.368   4.611 -0.1105  1.4414 -2.8360
  164OSM   H12G18529   2.010   4.274   4.485  0.8711  0.6581 -0.2282
  164OSM   C13F18530   1.989   4.189   4.694 -0.5999  0.0224  0.1638
  164OSM   H13F18531   2.082   4.131   4.681 -1.6567 -1.3472 -1.8706
  164OSM   H13G18532   1.907   4.119   4.665 -0.4071 -0.3679  0.5557
  164OSM   C14F18533   1.983   4.212   4.848  0.2655  0.1701 -0.2767
  164OSM   H14F18534   1.884   4.253   4.878  1.5313  2.2000  1.3416
  164OSM   H14G18535   2.048   4.299   4.870  0.0809  0.6074 -1.4165
  164OSM   C15F18536   2.034   4.092   4.929  0.0353  0.3300  0.0255
  164OSM   H15F18537   2.137   4.061   4.904  0.0091 -0.3067  0.6698
  164OSM   H15G18538   1.972   4.008   4.892  0.0997  0.6130 -0.7289
  164OSM   C16F18539   2.021   4.110   5.076  0.7873 -0.3614  0.3201
  164OSM   H16F18540   2.060   4.205   5.119 -1.4285 -0.2647  2.3240
  164OSM   H16G18541   2.066   4.033   5.143 -0.4626 -1.5504 -0.1696
  164OSM   C17F18542   1.877   4.099   5.124  0.2272 -0.5780 -0.3527
  164OSM   H17F18543   1.837   3.995   5.124  0.8601 -0.8368  0.5600
  164OSM   H17G18544   1.807   4.157   5.060  2.0151  0.9941 -0.9839
  164OSM   C18F18545   1.858   4.142   5.272 -0.1832 -0.2069 -0.1657
  164OSM   H18F18546   1.880   4.249   5.294 -1.5838 -0.0160  0.3690
  164OSM   H18G18547   1.911   4.071   5.339 -0.2238  1.1013  1.3262
  164OSM   H18H18548   1.752   4.125   5.300 -0.1904  0.7556  0.4296
  165SAPS     N18549   3.843   3.128   7.881  0.0171  0.5956 -0.3871
  165SAPS   HN118550   3.882   3.180   7.800  0.3443 -0.4153 -0.8859
  165SAPS   HN218551   3.914   3.087   7.945 -1.5958  0.3069  1.3021
  165SAPS   HN318552   3.794   3.049   7.834 -0.3895 -0.7304  2.0989
  165SAPS   C1218553   3.740   3.202   7.967  0.2693  0.2944  0.9947
  165SAPS  H12A18554   3.669   3.133   8.008 -0.3302  0.1611 -0.2132
  165SAPS   C1318555   3.812   3.275   8.080 -0.6826 -0.2264  0.4755
  165SAPS  O13A18556   3.934   3.292   8.079 -0.2141 -0.5736  0.1969
  165SAPS  O13B18557   3.744   3.357   8.153  0.1928  0.2740  0.2765
  165SAPS   C1118558   3.669   3.312   7.875 -0.2218  0.2670  0.3967
  165SAPS  H11A18559   3.743   3.385   7.837  1.0325 -1.4435 -0.6364
  165SAPS  H11B18560   3.596   3.368   7.937 -0.4839 -1.2465  1.5029
  165SAPS     P18561   3.539   3.322   7.640 -0.2619 -0.0503  0.0269
  165SAPS   O1318562   3.451   3.224   7.570 -0.6821 -0.5188  0.2634
  165SAPS   O1418563   3.476   3.444   7.695 -0.0598  0.0837 -0.1105
  165SAPS   O1218564   3.607   3.243   7.760 -0.1936  0.5527  0.3005
  165SAPS   O1118565   3.663   3.352   7.545  0.2329 -0.0093  0.2102
  165SAPS    C118566   3.716   3.478   7.513  0.3581  0.3189  0.6558
  165SAPS    HA18567   3.690   3.554   7.589  1.1028  0.5157  0.7239
  165SAPS    HB18568   3.827   3.469   7.515  0.5450  2.3902  2.5524
  165SAPS    C218569   3.675   3.507   7.370  0.4499 -0.0443 -0.4753
  165SAPS    HS18570   3.717   3.608   7.355  0.1884  0.0936 -0.2839
  165SAPS   O2118571   3.532   3.502   7.348  0.3109 -0.4216  0.1609
  165SAPS   C2118572   3.467   3.612   7.362  0.1581 -0.1166 -0.1174
  165SAPS   O2218573   3.503   3.721   7.408 -0.6257  0.7765  0.0066
  165SAPS   C2218574   3.325   3.585   7.324 -0.8559 -1.0378  0.3497
  165SAPS   H2R18575   3.296   3.487   7.367  0.3573 -0.7956  1.7896
  165SAPS   H2S18576   3.261   3.666   7.364 -0.3252 -0.0246 -0.7961
  165SAPS    C318577   3.747   3.412   7.268 -0.2133 -0.1296 -0.3588
  165SAPS    HX18578   3.722   3.307   7.294 -0.8693 -0.4829 -2.2581
  165SAPS    HY18579   3.855   3.431   7.290 -0.3824  1.9824 -1.0705
  165SAPS   O3118580   3.727   3.447   7.130  0.0931  0.6719  0.5993
  165SAPS   C3118581   3.615   3.376   7.082  0.0039  0.1011  0.2901
  165SAPS   O3218582   3.544   3.306   7.142 -0.2462  0.6457  0.1731
  165SAPS   C3218583   3.598   3.419   6.931 -0.6336  0.1802 -0.0531
  165SAPS   H2X18584   3.671   3.370   6.864 -1.5664 -0.0372 -0.9432
  165SAPS   H2Y18585   3.626   3.526   6.922 -0.5972  0.0244 -2.2189
  165SAPS   C2318586   3.309   3.571   7.174  0.0398 -0.5586  0.6922
  165SAPS   H3R18587   3.207   3.529   7.159  0.1350 -0.4337 -0.3512
  165SAPS   H3S18588   3.389   3.500   7.143 -0.4859 -1.1888  0.7504
  165SAPS   C2418589   3.336   3.706   7.090  0.4436 -0.5370 -0.2254
  165SAPS   H4R18590   3.441   3.739   7.105  0.4446 -0.2996 -0.7481
  165SAPS   H4S18591   3.270   3.787   7.126 -0.1662 -1.8423  1.7976
  165SAPS   C2518592   3.317   3.692   6.945 -0.0780  0.3600 -0.4413
  165SAPS   H5R18593   3.248   3.611   6.917  0.9799 -0.4594 -0.7403
  165SAPS   C2618594   3.348   3.782   6.851  0.0746 -0.3569  0.1694
  165SAPS   H6R18595   3.327   3.761   6.746 -2.4560 -2.7102  1.0189
  165SAPS   C2718596   3.415   3.912   6.880  0.3622  0.2698 -0.8786
  165SAPS   H7R18597   3.430   3.964   6.783  0.3239 -1.3688 -1.7980
  165SAPS   H7S18598   3.514   3.876   6.916 -0.0311  0.4919  0.4790
  165SAPS   C2818599   3.360   4.013   6.978  1.2438  0.1604 -0.1589
  165SAPS   H8R18600   3.437   4.046   7.049  1.6066  1.1109 -0.9778
  165SAPS   C2918601   3.232   4.069   6.976  0.2953 -0.1046 -0.4383
  165SAPS   H9R18602   3.211   4.134   7.062 -1.1416  0.5873 -1.2688
  165SAPS  C21018603   3.127   4.046   6.873  0.1107  0.1672  0.0731
  165SAPS  H10R18604   3.023   4.042   6.911 -1.2635 -3.0317 -3.3736
  165SAPS  H10S18605   3.128   3.939   6.843 -1.7952  0.0262  0.4229
  165SAPS  C21118606   3.139   4.139   6.756 -0.4752 -0.8421  0.2221
  165SAPS  H11R18607   3.139   4.242   6.794 -3.3266 -0.4949 -0.4515
  165SAPS  C21218608   3.153   4.111   6.629 -0.2926 -0.4172  0.4475
  165SAPS  H12R18609   3.139   4.183   6.546  2.9283  0.0617  0.1855
  165SAPS  C21318610   3.165   3.968   6.577 -0.3209 -0.0497  0.4905
  165SAPS  H13R18611   3.098   3.956   6.489  2.2030 -0.3727 -1.4844
  165SAPS  H13S18612   3.128   3.885   6.640 -0.6338  0.6958  1.3059
  165SAPS  C21418613   3.310   3.942   6.532  0.9104  0.3091 -0.4958
  165SAPS  H14R18614   3.388   4.003   6.579  2.4082 -0.3902 -1.9784
  165SAPS  C21518615   3.347   3.856   6.437 -0.1164 -0.6384 -0.2298
  165SAPS  H15R18616   3.453   3.862   6.406 -0.0449  0.9745  0.2406
  165SAPS  C21618617   3.253   3.760   6.369 -0.0114 -0.6417 -0.0437
  165SAPS  H16R18618   3.156   3.756   6.423  0.9399  1.5074  1.9734
  165SAPS  H16S18619   3.305   3.662   6.374 -1.9514 -1.7966 -0.9390
  165SAPS  C21718620   3.232   3.790   6.225 -0.6534 -0.1108 -0.2461
  165SAPS  H17R18621   3.315   3.759   6.158 -0.6152 -1.8820  0.5729
  165SAPS  H17S18622   3.217   3.900   6.213  1.2391  0.1678 -0.3661
  165SAPS  C21818623   3.102   3.729   6.168 -0.0719 -0.4001  0.0568
  165SAPS  H18R18624   3.024   3.760   6.241  1.4452 -1.0893  2.0552
  165SAPS  H18S18625   3.099   3.618   6.165 -0.2454 -0.4096  0.4482
  165SAPS  C21918626   3.079   3.797   6.030  0.0124  0.5078 -0.9602
  165SAPS  H19R18627   3.171   3.805   5.967 -0.2706  1.6917 -1.2508
  165SAPS  H19S18628   3.038   3.898   6.053  1.7080  1.3692 -1.5091
  165SAPS  C22018629   2.967   3.721   5.962  0.6922 -0.2568  0.1932
  165SAPS  H20R18630   2.944   3.764   5.862 -0.7632  0.8673  0.9731
  165SAPS  H20S18631   2.877   3.717   6.026 -0.1422 -0.2097 -0.9564
  165SAPS  H20T18632   2.999   3.616   5.940 -0.8543 -0.3684 -1.7824
  165SAPS   C3318633   3.462   3.382   6.872 -0.5595  0.4711  0.5202
  165SAPS   H3X18634   3.382   3.427   6.934 -2.2826  0.1778 -1.3609
  165SAPS   H3Y18635   3.450   3.272   6.882  2.5705  0.1187  1.3289
  165SAPS   C3418636   3.447   3.426   6.724  0.1501 -0.1925  0.2447
  165SAPS   H4X18637   3.474   3.534   6.719  0.3146 -0.2726 -0.7066
  165SAPS   H4Y18638   3.342   3.423   6.688  0.8290  1.8021 -2.2038
  165SAPS   C3518639   3.527   3.347   6.616 -0.5707 -0.3923  0.2329
  165SAPS   H5X18640   3.506   3.238   6.622 -0.5740 -0.4200 -0.2203
  165SAPS   H5Y18641   3.635   3.373   6.629 -1.0655  1.1416  1.7608
  165SAPS   C3618642   3.488   3.391   6.483 -0.2433  0.4561  0.8484
  165SAPS   H6X18643   3.533   3.490   6.458  1.2428 -0.6605 -1.1235
  165SAPS   H6Y18644   3.378   3.409   6.479 -0.0633  1.4369 -0.8502
  165SAPS   C3718645   3.520   3.287   6.378  0.3117  0.0880 -0.4080
  165SAPS   H7X18646   3.448   3.204   6.391 -1.1282  1.1579 -1.3141
  165SAPS   H7Y18647   3.626   3.255   6.383  0.1776 -0.7254 -2.0537
  165SAPS   C3818648   3.504   3.341   6.234 -0.1261  0.1640 -0.6407
  165SAPS   H8X18649   3.598   3.395   6.208  1.1032 -1.4769  0.2472
  165SAPS   H8Y18650   3.419   3.413   6.226  2.5783  3.7299  0.2396
  165SAPS   C3918651   3.487   3.229   6.130  0.3828 -0.3010  0.5062
  165SAPS   H9X18652   3.387   3.181   6.137  0.1024  0.2269  0.2134
  165SAPS   H9Y18653   3.564   3.151   6.146  0.1869 -0.9284 -1.3542
  165SAPS  C31018654   3.494   3.285   5.990 -0.6700  0.0330 -0.3990
  165SAPS  H10X18655   3.530   3.204   5.923 -1.0756  0.1297 -0.7419
  165SAPS  H10Y18656   3.566   3.369   5.991  0.9535 -1.3117 -0.6370
  165SAPS  C31118657   3.356   3.339   5.953  0.3477  0.3749  0.0170
  165SAPS  H11X18658   3.325   3.409   6.034 -1.5004 -0.6268  0.2222
  165SAPS  H11Y18659   3.284   3.254   5.957  0.7565  0.0754  1.4149
  165SAPS  C31218660   3.332   3.422   5.821 -0.8939 -0.0624 -0.8358
  165SAPS  H12X18661   3.376   3.524   5.826 -1.3000  0.1674 -1.7701
  165SAPS  H12Y18662   3.224   3.436   5.803 -1.1074 -1.3717 -0.6876
  165SAPS  C31318663   3.372   3.343   5.699 -0.5220  0.7548  0.4383
  165SAPS  H13X18664   3.348   3.237   5.719  0.3409  0.1605 -1.4398
  165SAPS  H13Y18665   3.482   3.344   5.683 -0.7357 -0.0378 -1.3439
  165SAPS  C31418666   3.318   3.394   5.566  0.4497 -0.7973 -0.2904
  165SAPS  H14X18667   3.356   3.498   5.562  2.3015 -1.4677 -2.6965
  165SAPS  H14Y18668   3.208   3.413   5.572  0.9125  2.1930  0.2451
  165SAPS  C31518669   3.348   3.314   5.444  0.1597  0.1430 -0.6015
  165SAPS  H15X18670   3.454   3.282   5.450  0.3527  1.0403  1.4898
  165SAPS  H15Y18671   3.337   3.374   5.351  0.8120 -2.2733 -2.3209
  165SAPS  C31618672   3.259   3.188   5.425  0.2666 -0.4029  0.2887
  165SAPS  H16X18673   3.153   3.223   5.428  0.3833 -0.0998  0.9812
  165SAPS  H16Y18674   3.266   3.116   5.509  1.0961  0.3316  0.8595
  165SAPS  C31718675   3.290   3.113   5.295  0.2168 -0.2391  0.1771
  165SAPS  H17X18676   3.389   3.063   5.308 -0.6842 -1.5967  2.3568
  165SAPS  H17Y18677   3.291   3.175   5.203  0.7626  0.3276  0.5546
  165SAPS  C31818678   3.189   3.003   5.276 -0.3091 -0.0819 -0.0388
  165SAPS  H18X18679   3.175   2.975   5.169  0.4176 -0.7987  0.0381
  165SAPS  H18Y18680   3.095   3.041   5.321  0.0805 -1.4760  2.0966
  165SAPS  H18Z18681   3.227   2.922   5.342 -1.6333 -0.4019  0.3590
  166SAPS     N18682   5.306   2.502   7.949  0.0084 -0.7782  0.9028
  166SAPS   HN118683   5.368   2.473   7.871  0.3522 -0.3669  1.0193
  166SAPS   HN218684   5.252   2.581   7.909  1.4174  1.3087  2.8703
  166SAPS   HN318685   5.352   2.536   8.036 -1.9347  1.4264  1.1698
  166SAPS   C1218686   5.212   2.382   7.969 -0.2962  0.7082  0.7646
  166SAPS  H12A18687   5.275   2.297   7.989  1.3408  1.7764  0.2651
  166SAPS   C1318688   5.132   2.388   8.098  1.2724  0.1064 -0.5131
  166SAPS  O13A18689   5.163   2.468   8.190 -0.4999  0.3257 -0.1788
  166SAPS  O13B18690   5.061   2.287   8.130  0.4937 -0.0352 -0.2074
  166SAPS   C1118691   5.121   2.358   7.840 -0.0785 -0.0682  0.0737
  166SAPS  H11A18692   5.071   2.259   7.840 -0.1889 -0.1133 -3.2969
  166SAPS  H11B18693   5.186   2.353   7.750  0.2672 -0.4697  0.3432
  166SAPS     P18694   5.018   2.594   7.769 -0.5281 -0.1203  0.0515
  166SAPS   O1318695   4.892   2.665   7.767  0.1105 -0.4661 -0.4638
  166SAPS   O1418696   5.134   2.668   7.822  0.1559  0.8384 -0.1290
  166SAPS   O1218697   5.011   2.458   7.838  0.0511 -0.4541 -0.3554
  166SAPS   O1118698   5.036   2.542   7.625  0.2582  0.3047 -0.2031
  166SAPS    C118699   5.162   2.564   7.559 -0.1094 -0.3654 -0.1345
  166SAPS    HA18700   5.208   2.660   7.589  0.9676 -1.0529  0.4770
  166SAPS    HB18701   5.231   2.484   7.594 -2.2052 -1.9929  0.5006
  166SAPS    C218702   5.151   2.569   7.407  0.1646  0.0194  0.4908
  166SAPS    HS18703   5.249   2.565   7.356 -0.3415 -0.2352 -0.4911
  166SAPS   O2118704   5.053   2.661   7.359 -0.5529 -0.0444 -0.4995
  166SAPS   C2118705   5.103   2.764   7.305 -0.2767  0.2696  0.6258
  166SAPS   O2218706   5.214   2.814   7.313  0.1686  0.2817 -0.1490
  166SAPS   C2218707   4.981   2.833   7.250  0.3706 -0.4461  0.6943
  166SAPS   H2R18708   4.895   2.766   7.226  0.9920 -0.3013 -2.2571
  166SAPS   H2S18709   4.951   2.915   7.319  1.2290 -0.2688  0.8723
  166SAPS    C318710   5.103   2.434   7.355  0.2752  0.3235 -0.2654
  166SAPS    HX18711   5.007   2.397   7.398  0.2427 -1.7248 -1.8964
  166SAPS    HY18712   5.179   2.356   7.376  0.0164  0.1027 -0.1437
  166SAPS   O3118713   5.076   2.428   7.208  0.1685 -0.0124  0.1226
  166SAPS   C3118714   5.174   2.412   7.124  1.0854 -0.7848 -0.3424
  166SAPS   O3218715   5.293   2.409   7.156 -0.2539 -0.5816  0.0806
  166SAPS   C3218716   5.112   2.400   6.982  0.2774 -0.1765 -0.1535
  166SAPS   H2X18717   5.063   2.499   6.977  0.8094  0.2326  1.6710
  166SAPS   H2Y18718   5.034   2.321   6.986  0.1263  0.0066  1.4358
  166SAPS   C2318719   5.023   2.906   7.124  0.1834 -0.3924 -0.0125
  166SAPS   H3R18720   5.125   2.948   7.136 -0.7522  1.3056  3.2703
  166SAPS   H3S18721   4.954   2.993   7.115  0.6249 -0.2014 -1.8657
  166SAPS   C2418722   4.998   2.817   7.005  0.5377  0.0506 -0.4960
  166SAPS   H4R18723   4.896   2.775   7.016  0.2353  0.7116 -0.7316
  166SAPS   H4S18724   5.059   2.724   7.008  1.2543  0.5297  0.3989
  166SAPS   C2518725   4.997   2.890   6.878  0.3384  0.4336 -0.7275
  166SAPS   H5R18726   4.936   2.982   6.880 -1.4634 -0.7442 -0.1211
  166SAPS   C2618727   5.072   2.868   6.774 -0.4150 -0.5385  0.3968
  166SAPS   H6R18728   5.056   2.927   6.682 -1.0705  1.4679  1.7390
  166SAPS   C2718729   5.172   2.755   6.755  0.6421  0.7495  0.4358
  166SAPS   H7R18730   5.137   2.710   6.659 -1.3877  1.9635  0.5508
  166SAPS   H7S18731   5.164   2.682   6.838 -0.8684  0.6908  0.2629
  166SAPS   C2818732   5.311   2.820   6.742 -0.4475  0.4069 -0.0735
  166SAPS   H8R18733   5.334   2.890   6.823 -0.4174  1.8306 -1.2678
  166SAPS   C2918734   5.409   2.787   6.649  0.2686  0.1112 -0.7127
  166SAPS   H9R18735   5.508   2.835   6.652  1.0159 -1.3321 -1.4348
  166SAPS  C21018736   5.387   2.685   6.541 -0.0247  0.2469 -0.4103
  166SAPS  H10R18737   5.315   2.612   6.583  0.8613 -0.8504 -0.7692
  166SAPS  H10S18738   5.481   2.628   6.526  0.0748 -0.0106  1.0035
  166SAPS  C21118739   5.332   2.758   6.414 -0.3202  0.5623 -0.0991
  166SAPS  H11R18740   5.242   2.821   6.426  0.0084  0.8826  0.7927
  166SAPS  C21218741   5.398   2.769   6.291  0.0020 -0.4681 -0.2138
  166SAPS  H12R18742   5.353   2.821   6.206 -0.6514 -1.9692 -0.8315
  166SAPS  C21318743   5.528   2.699   6.262  0.9086  0.2325 -0.0731
  166SAPS  H13R18744   5.533   2.602   6.315 -1.2735 -0.4490 -0.9914
  166SAPS  H13S18745   5.608   2.752   6.316  1.5776 -0.3165 -0.5008
  166SAPS  C21418746   5.567   2.686   6.122 -0.4162  0.1365  0.5122
  166SAPS  H14R18747   5.537   2.588   6.083 -0.6540 -1.0237  3.4134
  166SAPS  C21518748   5.619   2.783   6.048 -0.8280 -0.6725  0.0302
  166SAPS  H15R18749   5.639   2.766   5.941  1.9176 -1.5975  0.5881
  166SAPS  C21618750   5.677   2.917   6.104  0.6770 -0.0766 -0.7349
  166SAPS  H16R18751   5.660   2.930   6.213 -1.8109  1.0064 -1.1802
  166SAPS  H16S18752   5.619   3.005   6.070  1.3399  0.8257  0.3819
  166SAPS  C21718753   5.825   2.930   6.069  1.3993 -0.3022  0.3252
  166SAPS  H17R18754   5.874   2.832   6.087  1.3364 -0.5489 -0.8032
  166SAPS  H17S18755   5.863   3.006   6.140 -2.1981  2.9350 -0.8474
  166SAPS  C21818756   5.861   2.983   5.933 -0.0694  1.1780  0.1049
  166SAPS  H18R18757   5.780   3.048   5.894 -0.6018  1.0172  0.9207
  166SAPS  H18S18758   5.870   2.893   5.868 -0.0476  1.3111 -0.0804
  166SAPS  C21918759   6.003   3.054   5.919 -0.1532  0.1327 -0.7794
  166SAPS  H19R18760   6.083   2.984   5.953  0.6568  0.0823 -2.7103
  166SAPS  H19S18761   6.014   3.150   5.974  0.4973 -1.0445  1.2796
  166SAPS  C22018762   6.041   3.082   5.778  0.1965  0.3868 -0.2025
  166SAPS  H20R18763   5.961   3.130   5.718  1.1761 -0.1383 -1.9910
  166SAPS  H20S18764   6.074   2.988   5.729 -4.4893 -0.8650 -1.4483
  166SAPS  H20T18765   6.128   3.152   5.778  2.1556 -1.9141 -0.9665
  166SAPS   C3318766   5.212   2.397   6.865 -0.1122  0.1714 -0.2976
  166SAPS   H3X18767   5.268   2.303   6.886 -2.0835 -0.7189  1.3536
  166SAPS   H3Y18768   5.288   2.478   6.856  1.2309 -1.2601 -3.1762
  166SAPS   C3418769   5.138   2.388   6.729 -0.1860 -0.3546 -0.4292
  166SAPS   H4X18770   5.125   2.495   6.704  0.8968 -0.2808 -0.7317
  166SAPS   H4Y18771   5.038   2.342   6.745 -0.0545 -0.9958 -1.3542
  166SAPS   C3518772   5.212   2.321   6.614  0.7749 -0.2856 -0.4924
  166SAPS   H5X18773   5.230   2.213   6.638  0.7454  0.2084  2.0707
  166SAPS   H5Y18774   5.315   2.365   6.616  0.5081  0.3971 -1.2892
  166SAPS   C3618775   5.173   2.343   6.479  0.2118  0.2500  0.0362
  166SAPS   H6X18776   5.134   2.446   6.466 -1.4877 -0.3635 -0.0167
  166SAPS   H6Y18777   5.096   2.269   6.447  0.1912  1.1120 -2.0733
  166SAPS   C3718778   5.294   2.342   6.379 -0.8411 -0.4727 -0.6508
  166SAPS   H7X18779   5.341   2.242   6.373  0.3247  0.0082  0.0666
  166SAPS   H7Y18780   5.363   2.424   6.409  0.2491 -0.0843 -3.8040
  166SAPS   C3818781   5.251   2.387   6.241  0.0406 -0.0708  0.4188
  166SAPS   H8X18782   5.221   2.494   6.243  1.8518  0.4444  1.9311
  166SAPS   H8Y18783   5.154   2.340   6.212 -0.5693  1.6042 -0.3867
  166SAPS   C3918784   5.345   2.355   6.124  0.0848 -0.6053  1.5806
  166SAPS   H9X18785   5.348   2.247   6.099 -1.4299  0.1427 -2.7927
  166SAPS   H9Y18786   5.448   2.388   6.148  1.0609 -2.4164  0.1352
  166SAPS  C31018787   5.310   2.435   5.991 -0.1459 -0.0160  1.1579
  166SAPS  H10X18788   5.311   2.543   6.018  0.6440  1.0696 -2.6879
  166SAPS  H10Y18789   5.212   2.410   5.946 -0.2561  1.2956  0.6219
  166SAPS  C31118790   5.417   2.424   5.878  0.8194  0.0835 -0.2113
  166SAPS  H11X18791   5.415   2.320   5.839  0.6834 -0.2648  0.7036
  166SAPS  H11Y18792   5.516   2.443   5.927  0.3577  1.7356  0.1432
  166SAPS  C31218793   5.395   2.527   5.767 -0.5725 -0.1260 -0.0448
  166SAPS  H12X18794   5.407   2.633   5.798  1.3059 -0.5916  0.9803
  166SAPS  H12Y18795   5.290   2.515   5.733 -0.7257  0.3098  0.2783
  166SAPS  C31318796   5.492   2.509   5.656 -0.9014  0.2438 -0.1527
  166SAPS  H13X18797   5.442   2.532   5.560  0.4758  1.3891 -0.6270
  166SAPS  H13Y18798   5.529   2.404   5.664  1.3790  1.0158  0.3246
  166SAPS  C31418799   5.617   2.603   5.654  0.5305 -0.0993  0.0424
  166SAPS  H14X18800   5.681   2.585   5.743 -0.4412  2.3297  1.3254
  166SAPS  H14Y18801   5.593   2.711   5.666  0.2301 -0.1841  0.2242
  166SAPS  C31518802   5.697   2.587   5.523  0.3267 -0.3864  0.5104
  166SAPS  H15X18803   5.720   2.479   5.510 -0.5793 -0.3918 -1.4056
  166SAPS  H15Y18804   5.794   2.640   5.532 -0.4416  1.1371  0.1483
  166SAPS  C31618805   5.620   2.652   5.405  0.0716 -0.9703 -0.9560
  166SAPS  H16X18806   5.603   2.753   5.449  0.7277 -1.0435 -0.5092
  166SAPS  H16Y18807   5.526   2.594   5.394  0.0125 -1.1627  0.3668
  166SAPS  C31718808   5.694   2.652   5.268 -0.8640  0.0640 -0.4359
  166SAPS  H17X18809   5.766   2.733   5.291 -1.2236  0.0702  0.7169
  166SAPS  H17Y18810   5.615   2.689   5.199 -0.7463 -0.5085 -0.8930
  166SAPS  C31818811   5.746   2.519   5.219  0.4805 -0.5128  0.2554
  166SAPS  H18X18812   5.802   2.535   5.125  1.1404  0.2490  0.7690
  166SAPS  H18Y18813   5.655   2.456   5.214 -0.3643 -0.0115  4.7824
  166SAPS  H18Z18814   5.822   2.469   5.283  0.3552 -2.7350 -1.2372
  167SAPS     N18815   3.113   5.144   7.857  0.6057 -0.6257  0.1667
  167SAPS   HN118816   3.065   5.056   7.885  0.2143 -0.7572 -0.8652
  167SAPS   HN218817   3.210   5.131   7.891 -0.6195 -1.3048  3.8265
  167SAPS   HN318818   3.066   5.212   7.919  1.6405  1.4643 -1.2020
  167SAPS   C1218819   3.082   5.153   7.707 -0.1642 -0.1786 -0.1504
  167SAPS  H12A18820   3.142   5.232   7.665  1.5939 -0.2918  1.9426
  167SAPS   C1318821   3.110   5.025   7.636  0.2122 -1.0923  0.1743
  167SAPS  O13A18822   3.146   4.919   7.701 -0.1336  0.2838 -0.1859
  167SAPS  O13B18823   3.076   5.021   7.515  0.0991 -0.8877  0.4533
  167SAPS   C1118824   2.938   5.194   7.696  0.4531  0.3463 -0.2894
  167SAPS  H11A18825   2.880   5.107   7.735 -2.8183  1.8751 -1.3415
  167SAPS  H11B18826   2.902   5.205   7.592 -2.5139 -0.5507  0.5182
  167SAPS     P18827   2.942   5.456   7.729  0.2004  0.2849  0.4177
  167SAPS   O1318828   2.840   5.549   7.787 -0.1786  0.5108  0.2596
  167SAPS   O1418829   3.085   5.488   7.727 -0.1534  0.2221 -0.3792
  167SAPS   O1218830   2.905   5.312   7.775  0.2949  0.0444  0.0653
  167SAPS   O1118831   2.904   5.437   7.574  0.0879  0.8156  0.1861
  167SAPS    C118832   2.912   5.552   7.492 -0.1297  0.1714  0.8269
  167SAPS    HA18833   2.850   5.631   7.540 -0.7118  1.3454 -1.7047
  167SAPS    HB18834   3.016   5.587   7.478 -0.1122  0.2649  1.1805
  167SAPS    C218835   2.841   5.526   7.360  0.0029  0.3728 -0.4986
  167SAPS    HS18836   2.742   5.490   7.396  0.2080  2.5905  2.7287
  167SAPS   O2118837   2.922   5.432   7.284 -0.0604  0.4051 -0.3223
  167SAPS   C2118838   2.848   5.366   7.198 -0.3913  0.6725  0.2868
  167SAPS   O2218839   2.725   5.362   7.188 -0.3615 -0.1694 -0.4508
  167SAPS   C2218840   2.945   5.301   7.100  0.2058 -0.5293 -0.6524
  167SAPS   H2R18841   3.032   5.277   7.165 -0.3002  0.3379  0.3557
  167SAPS   H2S18842   2.896   5.211   7.059  0.3462 -0.8597 -0.0968
  167SAPS    C318843   2.816   5.656   7.284 -0.0849 -0.3399  0.1913
  167SAPS    HX18844   2.920   5.692   7.274  0.0384 -0.3764  1.2166
  167SAPS    HY18845   2.758   5.725   7.350 -1.6635 -0.8174 -0.6459
  167SAPS   O3118846   2.753   5.648   7.150 -0.3983  0.0930  0.4585
  167SAPS   C3118847   2.622   5.633   7.155 -0.1645 -0.6994 -0.0352
  167SAPS   O3218848   2.565   5.640   7.261 -0.0333  0.2940 -0.0817
  167SAPS   C3218849   2.566   5.614   7.018  0.6168  0.1367 -0.4771
  167SAPS   H2X18850   2.600   5.511   6.993 -0.9866 -0.2010 -1.3834
  167SAPS   H2Y18851   2.606   5.692   6.950  0.0921 -0.1510 -1.1223
  167SAPS   C2318852   2.990   5.402   6.994 -0.0080 -0.4301  0.3244
  167SAPS   H3R18853   3.066   5.352   6.930 -0.0040 -1.5566  1.1722
  167SAPS   H3S18854   3.032   5.490   7.047 -1.0161  0.3882 -0.2173
  167SAPS   C2418855   2.879   5.438   6.900 -0.2970  0.5536  0.7071
  167SAPS   H4R18856   2.806   5.500   6.956 -1.1141  0.5802 -0.3410
  167SAPS   H4S18857   2.815   5.354   6.868 -0.7655  0.6069  1.4830
  167SAPS   C2518858   2.919   5.543   6.803 -1.1995  0.5632  0.0406
  167SAPS   H5R18859   2.955   5.633   6.854  0.2523 -0.2439  0.4793
  167SAPS   C2618860   2.921   5.533   6.666  0.0237  0.5833 -0.9819
  167SAPS   H6R18861   2.950   5.618   6.603  2.1481  1.5320  1.1319
  167SAPS   C2718862   2.896   5.412   6.581  0.8037 -0.0149 -0.3650
  167SAPS   H7R18863   2.849   5.449   6.487  0.6378 -0.2664 -0.3821
  167SAPS   H7S18864   2.826   5.336   6.622  1.3314 -1.1356 -1.4859
  167SAPS   C2818865   3.025   5.347   6.560 -0.0427  0.2737 -0.3413
  167SAPS   H8R18866   3.052   5.285   6.647 -1.2194 -0.5111 -0.5158
  167SAPS   C2918867   3.091   5.337   6.443  0.7859 -0.7364 -0.1611
  167SAPS   H9R18868   3.184   5.280   6.445 -0.2026 -2.3939  0.6531
  167SAPS  C21018869   3.054   5.379   6.300 -0.0342  0.3622  0.0495
  167SAPS  H10R18870   2.983   5.463   6.296  2.3297  2.4814  0.1760
  167SAPS  H10S18871   3.012   5.294   6.241  0.2943  0.8149 -0.8470
  167SAPS  C21118872   3.182   5.434   6.242  0.4252  0.5235  0.2258
  167SAPS  H11R18873   3.186   5.544   6.245 -2.8913  0.7360  1.0613
  167SAPS  C21218874   3.277   5.363   6.175 -0.3091  0.2274 -0.3984
  167SAPS  H12R18875   3.361   5.416   6.129 -0.4270  1.0093  0.2651
  167SAPS  C21318876   3.270   5.214   6.169  0.8673 -0.2526 -0.8040
  167SAPS  H13R18877   3.181   5.166   6.214  0.3326  1.0578 -0.4170
  167SAPS  H13S18878   3.357   5.182   6.231 -1.3757 -2.7576  1.3187
  167SAPS  C21418879   3.293   5.167   6.030  0.0703 -0.1429  0.2124
  167SAPS  H14R18880   3.205   5.134   5.973 -0.2594  1.7289 -0.4287
  167SAPS  C21518881   3.400   5.174   5.952 -0.4586  0.1321 -0.3715
  167SAPS  H15R18882   3.387   5.133   5.850 -3.3667  1.7537 -0.7427
  167SAPS  C21618883   3.537   5.219   5.996 -0.9199  0.4478 -0.8834
  167SAPS  H16R18884   3.545   5.246   6.103  0.2151  2.4622 -1.4221
  167SAPS  H16S18885   3.581   5.310   5.949  0.7786  0.9442  1.4875
  167SAPS  C21718886   3.639   5.109   5.975 -0.0175  0.1352 -0.4520
  167SAPS  H17R18887   3.627   5.010   6.025  1.6004 -0.8229 -1.8408
  167SAPS  H17S18888   3.733   5.145   6.023 -1.1924  1.0288  1.2643
  167SAPS  C21818889   3.650   5.063   5.824  0.6832  0.6975  0.9810
  167SAPS  H18R18890   3.653   5.151   5.757  1.0179 -0.5361 -0.6723
  167SAPS  H18S18891   3.551   5.022   5.794  0.2064  1.7270  1.1127
  167SAPS  C21918892   3.771   4.972   5.818  0.3952  0.5424 -0.2630
  167SAPS  H19R18893   3.766   4.916   5.722  0.1670  0.3442 -0.1382
  167SAPS  H19S18894   3.778   4.891   5.894 -0.6265  0.0702 -0.6575
  167SAPS  C22018895   3.910   5.054   5.814 -0.4494 -0.2369 -0.9571
  167SAPS  H20R18896   3.996   4.991   5.784 -1.1236 -1.4191 -0.4827
  167SAPS  H20S18897   3.931   5.095   5.915 -1.0156 -0.3585 -0.7818
  167SAPS  H20T18898   3.902   5.138   5.741  1.7293 -0.4323 -1.4826
  167SAPS   C3318899   2.411   5.612   7.028  0.6200  0.9152  0.5570
  167SAPS   H3X18900   2.380   5.703   7.085 -0.2948  0.7837  0.2787
  167SAPS   H3Y18901   2.387   5.521   7.087  2.1325 -0.4324 -0.8314
  167SAPS   C3418902   2.339   5.599   6.891  0.0531  0.3063  0.1893
  167SAPS   H4X18903   2.385   5.509   6.844  2.6333  1.5119  0.2452
  167SAPS   H4Y18904   2.379   5.681   6.828 -0.2367  1.1410  1.0709
  167SAPS   C3518905   2.186   5.622   6.899  0.2172 -0.4032  0.2975
  167SAPS   H5X18906   2.162   5.724   6.936  1.2224 -0.4906  1.2478
  167SAPS   H5Y18907   2.161   5.562   6.988 -2.3119 -2.2882 -1.5383
  167SAPS   C3618908   2.087   5.586   6.785 -0.7251 -0.3634 -0.8842
  167SAPS   H6X18909   1.988   5.619   6.823  0.4984  0.7027  1.6263
  167SAPS   H6Y18910   2.092   5.475   6.782 -0.2517 -0.3521 -0.6338
  167SAPS   C3718911   2.126   5.659   6.657  0.1922 -0.4207  0.5739
  167SAPS   H7X18912   2.231   5.627   6.641  0.2407 -0.9139  1.8273
  167SAPS   H7Y18913   2.132   5.768   6.674 -0.4126 -0.1979 -0.5165
  167SAPS   C3818914   2.039   5.620   6.541 -0.2485 -0.0357 -0.4399
  167SAPS   H8X18915   1.940   5.662   6.568 -1.7064 -2.3678 -1.7948
  167SAPS   H8Y18916   2.034   5.510   6.529  3.3973 -0.1367 -2.4479
  167SAPS   C3918917   2.078   5.671   6.403 -0.0085  0.4543 -0.2542
  167SAPS   H9X18918   2.179   5.632   6.375 -0.0651 -0.2237  0.4509
  167SAPS   H9Y18919   2.091   5.781   6.397 -1.2250  0.5521 -1.8907
  167SAPS  C31018920   1.990   5.625   6.284 -0.1893  0.7605 -0.4023
  167SAPS  H10X18921   1.882   5.629   6.310 -0.7130 -0.3976 -2.2169
  167SAPS  H10Y18922   2.012   5.517   6.266 -0.8264 -0.0155  2.8469
  167SAPS  C31118923   2.018   5.708   6.163  0.0829 -0.4861 -0.9222
  167SAPS  H11X18924   2.121   5.678   6.136 -0.2470 -2.3018 -0.3344
  167SAPS  H11Y18925   2.031   5.816   6.185  0.9229 -0.3428 -2.0766
  167SAPS  C31218926   1.910   5.693   6.058 -0.1449  0.1349  0.1750
  167SAPS  H12X18927   1.817   5.749   6.079 -0.3284  0.9304 -2.4147
  167SAPS  H12Y18928   1.892   5.584   6.042  0.1874 -0.1173  1.4023
  167SAPS  C31318929   1.963   5.743   5.926  0.1154  0.2400  0.0215
  167SAPS  H13X18930   2.052   5.676   5.916 -2.2522 -3.2061  0.0159
  167SAPS  H13Y18931   2.003   5.846   5.930 -0.9486  0.6207  2.6181
  167SAPS  C31418932   1.871   5.716   5.805  0.5072  0.2946 -0.3555
  167SAPS  H14X18933   1.778   5.776   5.817 -0.4005 -1.0697 -0.3076
  167SAPS  H14Y18934   1.840   5.609   5.798 -0.7991  0.7808 -4.0821
  167SAPS  C31518935   1.934   5.754   5.674  0.0081  0.0800 -0.2931
  167SAPS  H15X18936   1.991   5.850   5.675  0.7139 -0.2966 -1.4884
  167SAPS  H15Y18937   1.854   5.770   5.600 -0.2551 -0.7773 -0.1980
  167SAPS  C31618938   2.033   5.649   5.633  0.3474 -0.0221  0.1284
  167SAPS  H16X18939   1.978   5.561   5.593 -3.5938  2.9377 -1.7220
  167SAPS  H16Y18940   2.093   5.617   5.721  1.2463  0.1944 -0.4003
  167SAPS  C31718941   2.140   5.698   5.532 -0.1774 -0.2735  0.2344
  167SAPS  H17X18942   2.188   5.786   5.579 -0.3969 -0.2581  0.4331
  167SAPS  H17Y18943   2.099   5.734   5.435 -1.5344  0.9934  1.2210
  167SAPS  C31818944   2.246   5.594   5.508 -0.1664 -0.0763  0.6005
  167SAPS  H18X18945   2.295   5.615   5.411 -0.1737 -0.2557  0.5572
  167SAPS  H18Y18946   2.202   5.493   5.496 -1.9132  0.9647 -3.0859
  167SAPS  H18Z18947   2.312   5.584   5.597 -0.4458 -2.4437  0.6030
  168SAPS     N18948   0.610   6.291   7.489 -0.6994  0.3055  0.0128
  168SAPS   HN118949   0.688   6.359   7.484 -0.2514 -0.2377 -0.4715
  168SAPS   HN218950   0.626   6.228   7.408 -0.7464 -1.2140  1.1289
  168SAPS   HN318951   0.519   6.342   7.482 -1.2055 -0.6794 -0.9185
  168SAPS   C1218952   0.622   6.218   7.610  0.1803 -0.1401 -1.3884
  168SAPS  H12A18953   0.715   6.163   7.608  1.1211  1.3610 -1.1994
  168SAPS   C1318954   0.618   6.289   7.743 -0.2951 -0.3851  0.1306
  168SAPS  O13A18955   0.593   6.415   7.747  0.0011 -0.6577  0.4621
  168SAPS  O13B18956   0.680   6.232   7.836  0.2702  0.8467  0.2024
  168SAPS   C1118957   0.512   6.101   7.633  0.4883 -0.1745 -0.2237
  168SAPS  H11A18958   0.547   6.026   7.707 -0.9971 -1.3995 -0.7014
  168SAPS  H11B18959   0.502   6.050   7.535  4.0046  0.7427 -1.2164
  168SAPS     P18960   0.257   6.153   7.599 -0.1786  0.1831 -0.0888
  168SAPS   O1318961   0.203   6.016   7.594 -0.4919  0.0523  0.4483
  168SAPS   O1418962   0.172   6.267   7.643  0.0433  0.0188  0.5077
  168SAPS   O1218963   0.385   6.146   7.692 -0.2429  0.0209 -0.3052
  168SAPS   O1118964   0.331   6.190   7.462  0.2320 -0.2562  0.6409
  168SAPS    C118965   0.295   6.118   7.339  0.4315 -0.7026 -0.4092
  168SAPS    HA18966   0.369   6.036   7.328  0.5513 -0.6201 -0.2173
  168SAPS    HB18967   0.192   6.076   7.337  0.2250 -0.2429 -2.8997
  168SAPS    C218968   0.306   6.206   7.212  0.2618  0.8028 -0.2424
  168SAPS    HS18969   0.414   6.218   7.191  0.0459 -0.5067 -2.3552
  168SAPS   O2118970   0.221   6.319   7.228  0.0684 -0.3707  0.2888
  168SAPS   C2118971   0.286   6.428   7.269 -0.0656  0.5866  0.2741
  168SAPS   O2218972   0.407   6.427   7.295  0.0544 -0.3034 -0.2705
  168SAPS   C2218973   0.199   6.545   7.274  0.2584  0.2763  0.4038
  168SAPS   H2R18974   0.095   6.510   7.288 -0.3000  2.2246  1.6666
  168SAPS   H2S18975   0.231   6.607   7.361  1.7200 -0.1888  0.2245
  168SAPS    C318976   0.260   6.135   7.082 -0.8673 -0.0620  0.6026
  168SAPS    HX18977   0.149   6.130   7.088 -0.8163 -0.2063  1.5711
  168SAPS    HY18978   0.297   6.031   7.090  0.5069  0.2893 -0.8024
  168SAPS   O3118979   0.297   6.197   6.956 -0.0811  0.4461 -0.3565
  168SAPS   C3118980   0.220   6.188   6.858 -0.0257  0.4606 -0.3140
  168SAPS   O3218981   0.112   6.133   6.859 -0.1125 -0.0589 -0.1647
  168SAPS   C3218982   0.282   6.244   6.734  0.3973 -0.4025  0.2673
  168SAPS   H2X18983   0.353   6.183   6.675  0.8041  1.6977 -1.5336
  168SAPS   H2Y18984   0.349   6.325   6.772 -0.9202 -0.2636  2.5194
  168SAPS   C2318985   0.202   6.634   7.146 -0.1975  0.2512 -0.5003
  168SAPS   H3R18986   0.303   6.677   7.131 -0.0314 -0.3073 -1.0015
  168SAPS   H3S18987   0.122   6.709   7.166  0.0630  0.5518 -0.5880
  168SAPS   C2418988   0.164   6.537   7.031  0.2955 -0.1144  0.2474
  168SAPS   H4R18989   0.079   6.475   7.068 -0.2237  0.3803 -0.0912
  168SAPS   H4S18990   0.245   6.463   7.017 -1.3076 -1.5843 -1.9968
  168SAPS   C2518991   0.125   6.611   6.900 -0.4821  0.0344 -0.7111
  168SAPS   H5R18992   0.211   6.675   6.875  0.5026 -0.7427  0.5640
  168SAPS   C2618993   0.012   6.609   6.822  0.0594 -0.5144  0.9577
  168SAPS   H6R18994   0.019   6.658   6.723  0.2647 -2.9756 -0.3169
  168SAPS   C2718995  -0.108   6.530   6.839 -0.0483  0.2800  0.0487
  168SAPS   H7R18996  -0.114   6.494   6.944 -0.6673  0.9258  0.2424
  168SAPS   H7S18997  -0.099   6.442   6.772  1.2499  0.7375 -0.4026
  168SAPS   C2818998  -0.228   6.609   6.804 -0.0899  0.5450  0.7306
  168SAPS   H8R18999  -0.290   6.639   6.890  0.3341  0.2868  1.1257
  168SAPS   C2919000  -0.276   6.624   6.679  0.1402 -0.4954 -0.1558
  168SAPS   H9R19001  -0.373   6.674   6.666 -0.2303 -1.5301 -1.5255
  168SAPS  C21019002  -0.199   6.575   6.557  0.1257 -0.4686 -0.4771
  168SAPS  H10R19003  -0.122   6.498   6.582  0.7022  0.6912  1.5722
  168SAPS  H10S19004  -0.136   6.655   6.514 -1.3293 -0.0737 -1.9741
  168SAPS  C21119005  -0.297   6.523   6.461 -0.4011  0.4773 -0.0329
  168SAPS  H11R19006  -0.335   6.424   6.490 -1.5003  0.8122 -0.2559
  168SAPS  C21219007  -0.331   6.584   6.348 -0.0369  0.7319  0.5982
  168SAPS  H12R19008  -0.408   6.531   6.290  1.2572  0.3482 -0.8443
  168SAPS  C21319009  -0.280   6.710   6.284 -0.5374 -0.2291 -0.4577
  168SAPS  H13R19010  -0.214   6.768   6.351 -0.7825  0.6081 -0.9115
  168SAPS  H13S19011  -0.375   6.767   6.268 -1.4525 -1.2684  1.0873
  168SAPS  C21419012  -0.188   6.690   6.161  0.5467  0.2000  0.5775
  168SAPS  H14R19013  -0.103   6.622   6.179  0.5420 -0.4509 -1.5612
  168SAPS  C21519014  -0.200   6.755   6.044 -0.3980 -0.1477  0.4735
  168SAPS  H15R19015  -0.121   6.731   5.971 -0.9736 -0.6866  0.0155
  168SAPS  C21619016  -0.302   6.848   5.989  0.6571  0.0294 -0.1667
  168SAPS  H16R19017  -0.267   6.953   5.975  0.4129  0.1676  0.2537
  168SAPS  H16S19018  -0.388   6.847   6.059  1.7856 -1.7863  1.2685
  168SAPS  C21719019  -0.367   6.783   5.862  0.6312 -0.1389 -0.1455
  168SAPS  H17R19020  -0.462   6.837   5.843  1.2517  2.9199  4.0170
  168SAPS  H17S19021  -0.393   6.678   5.884  0.7224 -0.0986  0.1581
  168SAPS  C21819022  -0.271   6.789   5.741  0.3848 -0.8086  0.6924
  168SAPS  H18R19023  -0.175   6.738   5.762  1.4008  0.3439 -0.9303
  168SAPS  H18S19024  -0.255   6.897   5.720 -1.6591 -0.6087 -0.0836
  168SAPS  C21919025  -0.325   6.721   5.607 -0.0016 -0.9239 -0.5947
  168SAPS  H19R19026  -0.398   6.796   5.569 -0.6404 -2.2057 -1.9875
  168SAPS  H19S19027  -0.379   6.629   5.638 -0.4916 -0.0793  1.1979
  168SAPS  C22019028  -0.202   6.707   5.515  0.3896 -0.3809 -0.0247
  168SAPS  H20R19029  -0.164   6.803   5.474  1.0760 -1.2328 -1.4389
  168SAPS  H20S19030  -0.232   6.644   5.429  0.4591 -1.2938  0.6045
  168SAPS  H20T19031  -0.114   6.658   5.561  0.9037  0.2080 -0.3653
  168SAPS   C3319032   0.180   6.302   6.636  0.6888 -0.3619  0.0079
  168SAPS   H3X19033   0.128   6.377   6.700 -0.2270 -2.0442  1.3310
  168SAPS   H3Y19034   0.099   6.237   6.598 -0.9819  2.1343 -0.9889
  168SAPS   C3419035   0.249   6.367   6.516 -0.4802  0.9880 -0.1170
  168SAPS   H4X19036   0.278   6.284   6.448 -2.0203  1.1129 -0.9759
  168SAPS   H4Y19037   0.337   6.431   6.540 -0.0758  0.1923  0.5574
  168SAPS   C3519038   0.147   6.451   6.440  0.1489  0.6457 -0.5962
  168SAPS   H5X19039   0.101   6.520   6.513  0.6007  0.8003 -0.4579
  168SAPS   H5Y19040   0.064   6.387   6.404 -0.1338  0.7078 -0.0577
  168SAPS   C3619041   0.187   6.532   6.320 -0.6644  0.4010  0.2379
  168SAPS   H6X19042   0.280   6.584   6.350  0.7218 -1.5415 -0.4847
  168SAPS   H6Y19043   0.110   6.610   6.300  0.5393  1.7802  0.8147
  168SAPS   C3719044   0.218   6.445   6.194 -0.5080 -0.1641 -0.0863
  168SAPS   H7X19045   0.158   6.352   6.202 -0.6689  0.0088  0.7392
  168SAPS   H7Y19046   0.326   6.417   6.190 -0.7266 -1.1772  0.8028
  168SAPS   C3819047   0.197   6.521   6.066 -0.2031 -0.3778  0.1955
  168SAPS   H8X19048   0.263   6.610   6.055  1.5364 -1.2569  2.5119
  168SAPS   H8Y19049   0.099   6.574   6.063 -0.7319 -1.3568 -1.4689
  168SAPS   C3919050   0.214   6.429   5.944  0.2445 -0.3561  0.4813
  168SAPS   H9X19051   0.139   6.348   5.955 -0.8123  0.7016  1.3430
  168SAPS   H9Y19052   0.318   6.392   5.931 -0.1469 -0.9049 -1.5991
  168SAPS  C31019053   0.181   6.500   5.806  0.2767  0.6237  0.0688
  168SAPS  H10X19054   0.074   6.532   5.812  0.0315 -0.3085  0.9478
  168SAPS  H10Y19055   0.180   6.415   5.735 -0.3700  2.0840 -1.7705
  168SAPS  C31119056   0.274   6.619   5.766 -0.3383 -0.0845 -0.0618
  168SAPS  H11X19057   0.378   6.581   5.760 -0.3327 -0.2033  0.6439
  168SAPS  H11Y19058   0.284   6.702   5.839  2.6111  0.2403 -0.7406
  168SAPS  C31219059   0.232   6.672   5.629 -0.3302 -0.1551 -0.0389
  168SAPS  H12X19060   0.147   6.743   5.635 -1.0132 -1.0785  1.9505
  168SAPS  H12Y19061   0.213   6.581   5.568  0.3665 -0.4458  0.1637
  168SAPS  C31319062   0.353   6.748   5.561 -0.9781 -0.0393 -0.1616
  168SAPS  H13X19063   0.443   6.683   5.567 -1.8873 -1.4291 -0.8932
  168SAPS  H13Y19064   0.366   6.839   5.622 -3.3099 -0.9423  1.8397
  168SAPS  C31419065   0.328   6.800   5.412  0.1671 -0.2733 -0.0133
  168SAPS  H14X19066   0.226   6.846   5.406 -0.4273 -1.7149 -2.0182
  168SAPS  H14Y19067   0.334   6.712   5.345  0.9183 -0.4448  0.2754
  168SAPS  C31519068   0.422   6.911   5.356 -1.0868  0.1350  0.3161
  168SAPS  H15X19069   0.393   7.007   5.404 -1.1072  0.4701 -0.3494
  168SAPS  H15Y19070   0.411   6.922   5.246  3.0017 -2.3908 -0.5720
  168SAPS  C31619071   0.569   6.878   5.376 -0.2541 -0.0680  0.1732
  168SAPS  H16X19072   0.591   6.805   5.295 -1.2247 -0.2398  0.0493
  168SAPS  H16Y19073   0.584   6.835   5.477 -3.1035  2.1989  1.7238
  168SAPS  C31719074   0.665   6.987   5.359 -0.4447 -0.3183  0.0840
  168SAPS  H17X19075   0.663   7.072   5.430  0.6699 -0.0239 -0.2086
  168SAPS  H17Y19076   0.655   7.043   5.264 -1.1419  2.5240  1.7143
  168SAPS  C31819077   0.813   6.942   5.376  0.0108  0.0186  0.2727
  168SAPS  H18X19078   0.820   6.859   5.451 -0.9846 -2.1528 -1.8838
  168SAPS  H18Y19079   0.885   7.016   5.417  1.2793 -0.5316 -0.8882
  168SAPS  H18Z19080   0.836   6.898   5.277 -2.7562 -1.2427  0.0689
  169SAPS     N19081   2.870   0.355   8.303  0.0439  0.5857  0.5341
  169SAPS   HN119082   2.804   0.397   8.234 -1.3968  1.1962  2.1965
  169SAPS   HN219083   2.847   0.256   8.320  0.1254 -0.0958 -2.6754
  169SAPS   HN319084   2.862   0.402   8.395 -0.0857  1.0112  0.3114
  169SAPS   C1219085   3.006   0.362   8.250  0.1238  0.1053  0.3009
  169SAPS  H12A19086   3.034   0.458   8.290 -3.0883  1.5065 -0.5262
  169SAPS   C1319087   3.121   0.261   8.302 -0.0665 -0.1311 -0.4136
  169SAPS  O13A19088   3.070   0.167   8.368  0.0317 -0.5253  0.5532
  169SAPS  O13B19089   3.241   0.274   8.291  0.2238  0.1128  0.3354
  169SAPS   C1119090   3.006   0.363   8.090  0.1270  0.7298  0.0178
  169SAPS  H11A19091   2.962   0.264   8.061 -1.3075  1.2683  0.2460
  169SAPS  H11B19092   3.112   0.353   8.059 -0.1108 -1.5373 -0.3156
  169SAPS     P19093   3.001   0.614   8.012 -0.0383  0.0459  0.0098
  169SAPS   O1319094   2.885   0.708   8.010 -0.5396 -0.2201 -0.4085
  169SAPS   O1419095   3.107   0.630   8.111  0.0771  0.2977 -0.3221
  169SAPS   O1219096   2.933   0.466   8.033 -0.1788 -0.8502 -0.4362
  169SAPS   O1119097   3.075   0.616   7.872 -0.0673  0.4573  0.2671
  169SAPS    C119098   3.031   0.540   7.754  0.2595 -0.0144 -0.2906
  169SAPS    HA19099   3.082   0.442   7.749  0.1388 -0.1110  0.3268
  169SAPS    HB19100   2.922   0.519   7.750  0.3345 -0.2632 -1.2257
  169SAPS    C219101   3.062   0.604   7.616  0.2315 -0.1121 -0.5164
  169SAPS    HS19102   3.040   0.523   7.542 -0.1517 -1.5766  1.1262
  169SAPS   O2119103   3.206   0.625   7.632 -0.4293 -0.2142  0.3942
  169SAPS   C2119104   3.274   0.615   7.517  1.0312  0.0091  0.1307
  169SAPS   O2219105   3.222   0.571   7.413 -0.3514  0.4535  0.4583
  169SAPS   C2219106   3.419   0.636   7.530  0.2770  0.1253  0.2816
  169SAPS   H2R19107   3.444   0.698   7.620  2.9958  3.0630 -2.2303
  169SAPS   H2S19108   3.466   0.537   7.545 -0.4129 -0.1103  0.9584
  169SAPS    C319109   2.975   0.736   7.577  0.6885  0.2952 -0.3586
  169SAPS    HX19110   3.008   0.816   7.647  1.8653 -1.0395  0.6953
  169SAPS    HY19111   2.876   0.694   7.608  0.8716 -0.7514 -1.1264
  169SAPS   O3119112   2.968   0.771   7.436 -0.4395  0.0716 -0.1929
  169SAPS   C3119113   3.072   0.852   7.390  0.5731  0.2055 -0.0367
  169SAPS   O3219114   3.162   0.888   7.469  0.7825 -0.0859  0.2386
  169SAPS   C3219115   3.052   0.873   7.245  0.2354  0.0563 -0.1768
  169SAPS   H2X19116   2.980   0.957   7.239  0.0886 -0.1208 -0.9757
  169SAPS   H2Y19117   3.006   0.787   7.193 -1.6240  0.0446  1.3797
  169SAPS   C2319118   3.465   0.723   7.413 -0.4706 -0.1747 -0.2469
  169SAPS   H3R19119   3.394   0.809   7.413 -1.5209 -0.9351  2.7353
  169SAPS   H3S19120   3.460   0.686   7.308 -0.1000 -0.3793 -0.1948
  169SAPS   C2419121   3.611   0.776   7.423  0.1270 -0.6329 -0.1301
  169SAPS   H4R19122   3.616   0.826   7.522 -0.3527  1.1394 -0.9732
  169SAPS   H4S19123   3.627   0.845   7.338 -0.3132 -2.2926 -1.6057
  169SAPS   C2519124   3.703   0.650   7.428  0.0191 -0.2233  0.0324
  169SAPS   H5R19125   3.672   0.582   7.508  1.0314  1.6028  2.1051
  169SAPS   C2619126   3.806   0.627   7.346 -0.9420  0.7403  0.9743
  169SAPS   H6R19127   3.863   0.543   7.388  2.4795  3.0347  1.2524
  169SAPS   C2719128   3.869   0.715   7.244 -0.2146  0.5072  0.3695
  169SAPS   H7R19129   3.978   0.729   7.265 -0.0668 -0.1848  0.0699
  169SAPS   H7S19130   3.818   0.813   7.241  0.7018  0.9794 -0.4362
  169SAPS   C2819131   3.871   0.663   7.100  0.0271  0.0600 -0.1704
  169SAPS   H8R19132   3.974   0.643   7.067  1.5141  3.7951  1.6908
  169SAPS   C2919133   3.771   0.643   7.018  0.8947  0.8102  0.2923
  169SAPS   H9R19134   3.795   0.606   6.917 -0.5148 -1.4370  0.6971
  169SAPS  C21019135   3.623   0.651   7.047  0.7103 -0.5497 -0.0881
  169SAPS  H10R19136   3.568   0.715   6.974 -1.6866  1.4300  3.2083
  169SAPS  H10S19137   3.605   0.709   7.140  0.2541 -1.5176  0.4412
  169SAPS  C21119138   3.559   0.517   7.065 -0.4000 -0.1687  0.5061
  169SAPS  H11R19139   3.583   0.476   7.165 -1.5057 -1.3321  0.3229
  169SAPS  C21219140   3.500   0.442   6.967 -0.0707 -0.3950 -0.0226
  169SAPS  H12R19141   3.460   0.343   6.998 -0.7719 -1.2825 -3.3952
  169SAPS  C21319142   3.476   0.485   6.823  0.0948  0.3246  0.8223
  169SAPS  H13R19143   3.454   0.392   6.767  4.7961 -0.3799 -0.2370
  169SAPS  H13S19144   3.568   0.534   6.784 -0.7170  0.8974 -0.4551
  169SAPS  C21419145   3.364   0.580   6.811 -0.6277 -0.0239  0.1032
  169SAPS  H14R19146   3.308   0.598   6.904 -0.4329  0.6107  0.1030
  169SAPS  C21519147   3.335   0.643   6.695 -0.3400 -0.4571 -0.0933
  169SAPS  H15R19148   3.251   0.713   6.685 -1.5597 -2.0626 -1.4700
  169SAPS  C21619149   3.404   0.626   6.561 -0.4114  0.6528 -0.4346
  169SAPS  H16R19150   3.441   0.523   6.541  0.4610  0.1132  3.1156
  169SAPS  H16S19151   3.489   0.696   6.556  0.4162 -0.2201  0.7925
  169SAPS  C21719152   3.303   0.677   6.452 -0.3416 -0.0770  0.2679
  169SAPS  H17R19153   3.305   0.788   6.451  0.9797 -0.0791 -1.7998
  169SAPS  H17S19154   3.203   0.635   6.475 -0.3007  0.4366  1.4777
  169SAPS  C21819155   3.344   0.628   6.309 -0.2131  0.0999 -0.1549
  169SAPS  H18R19156   3.268   0.657   6.232 -0.4881 -1.5368 -0.5622
  169SAPS  H18S19157   3.349   0.517   6.311  0.4109  0.0007 -2.9161
  169SAPS  C21919158   3.480   0.677   6.258 -0.3992  0.9195  0.1187
  169SAPS  H19R19159   3.508   0.626   6.163 -0.3287 -0.4570  0.8546
  169SAPS  H19S19160   3.564   0.655   6.327  0.4204  2.8599 -0.1851
  169SAPS  C22019161   3.487   0.825   6.237  0.0067  0.2637  0.5227
  169SAPS  H20R19162   3.592   0.860   6.224  0.1510 -0.5861 -0.8008
  169SAPS  H20S19163   3.457   0.871   6.333  1.9690 -0.7564  1.6758
  169SAPS  H20T19164   3.432   0.860   6.147  1.3644  0.7143 -0.1593
  169SAPS   C3319165   3.181   0.915   7.172  0.2019  0.2785  0.1272
  169SAPS   H3X19166   3.255   0.832   7.173  1.4685  1.3083 -2.0802
  169SAPS   H3Y19167   3.226   1.009   7.211  0.1028  0.0799  0.7373
  169SAPS   C3419168   3.163   0.939   7.022  0.4740 -0.2478  0.0179
  169SAPS   H4X19169   3.074   1.005   7.009 -0.2340 -1.2932 -0.6418
  169SAPS   H4Y19170   3.129   0.851   6.964 -1.3415  1.3460 -1.4880
  169SAPS   C3519171   3.293   0.989   6.957 -0.5566 -0.1589 -0.3130
  169SAPS   H5X19172   3.379   0.919   6.958 -0.0270  0.4114 -2.3060
  169SAPS   H5Y19173   3.325   1.077   7.018 -1.7915 -1.0549  1.7398
  169SAPS   C3619174   3.261   1.050   6.822  0.2165  0.6068 -0.0397
  169SAPS   H6X19175   3.188   1.132   6.808  0.6493  0.9414 -0.3560
  169SAPS   H6Y19176   3.234   0.969   6.751 -1.7862  0.8011  0.4611
  169SAPS   C3719177   3.386   1.112   6.760  0.0171 -0.2686 -0.4389
  169SAPS   H7X19178   3.465   1.034   6.748 -0.1461 -0.6991  1.0895
  169SAPS   H7Y19179   3.414   1.197   6.827  2.1345 -0.7429 -0.6350
  169SAPS   C3819180   3.354   1.173   6.618  0.0733  0.3568 -0.0945
  169SAPS   H8X19181   3.276   1.250   6.630  0.6496  1.3680 -2.2951
  169SAPS   H8Y19182   3.317   1.092   6.551  1.7537  0.2207 -0.9017
  169SAPS   C3919183   3.487   1.235   6.559 -0.5222  0.3028 -0.1814
  169SAPS   H9X19184   3.565   1.156   6.563  0.6373  1.4366  0.2548
  169SAPS   H9Y19185   3.529   1.319   6.618  0.6635 -1.1460  1.1314
  169SAPS  C31019186   3.462   1.268   6.414 -1.1831  0.1477  0.0604
  169SAPS  H10X19187   3.397   1.356   6.396 -0.4358  0.5403 -0.7582
  169SAPS  H10Y19188   3.417   1.186   6.355 -0.3866  1.3993 -2.3931
  169SAPS  C31119189   3.579   1.318   6.339 -0.5408 -0.3772  0.2862
  169SAPS  H11X19190   3.528   1.337   6.242 -1.2768  1.6039  1.0126
  169SAPS  H11Y19191   3.659   1.242   6.325  1.1330  1.7454 -2.9588
  169SAPS  C31219192   3.650   1.446   6.385  0.1178  0.2009 -0.4903
  169SAPS  H12X19193   3.683   1.429   6.490  1.6170  2.5878 -0.5012
  169SAPS  H12Y19194   3.568   1.521   6.384 -0.4859 -0.3012  2.4449
  169SAPS  C31319195   3.762   1.483   6.290 -0.2369 -0.5284 -0.4911
  169SAPS  H13X19196   3.792   1.587   6.316  1.2214 -0.9781 -0.3128
  169SAPS  H13Y19197   3.728   1.501   6.186 -0.3173  1.1151 -0.2090
  169SAPS  C31419198   3.881   1.383   6.287 -0.7009 -0.3128  0.1053
  169SAPS  H14X19199   3.848   1.285   6.247  0.0681 -1.2808  1.7509
  169SAPS  H14Y19200   3.919   1.366   6.390  3.0811  0.5020 -0.9810
  169SAPS  C31519201   4.007   1.443   6.220  0.8262 -0.1319  0.1142
  169SAPS  H15X19202   4.048   1.522   6.287 -1.4101  0.3293  1.0603
  169SAPS  H15Y19203   3.987   1.493   6.123  1.5707  0.2241  0.1357
  169SAPS  C31619204   4.131   1.357   6.202  0.7210  0.4735  0.1707
  169SAPS  H16X19205   4.162   1.318   6.301  0.4322 -0.9291 -0.2652
  169SAPS  H16Y19206   4.212   1.425   6.171 -0.9476  2.0171 -1.0132
  169SAPS  C31719207   4.114   1.241   6.111  0.3058  0.2648 -0.1339
  169SAPS  H17X19208   4.071   1.279   6.016 -0.8894 -0.1552  0.2255
  169SAPS  H17Y19209   4.033   1.182   6.158 -3.3364  2.6719 -2.8389
  169SAPS  C31819210   4.246   1.166   6.095  0.0891  0.8444 -0.1793
  169SAPS  H18X19211   4.324   1.230   6.049  1.0789 -0.7171 -0.7429
  169SAPS  H18Y19212   4.242   1.081   6.024 -0.9292  1.5509 -1.0113
  169SAPS  H18Z19213   4.279   1.128   6.194  0.2527  2.1145  0.2680
  170SAPS     N19214   3.511   5.332   7.834 -0.2235 -0.2967 -0.8818
  170SAPS   HN119215   3.478   5.303   7.739  1.0470  2.4260 -2.2618
  170SAPS   HN219216   3.431   5.374   7.886 -0.3862 -0.0506 -1.3227
  170SAPS   HN319217   3.586   5.401   7.813  0.1153 -0.2158  0.4741
  170SAPS   C1219218   3.582   5.217   7.904  0.9043  0.4580 -0.4633
  170SAPS  H12A19219   3.631   5.251   7.994 -0.0179 -0.3615  0.3596
  170SAPS   C1319220   3.484   5.110   7.964  0.3410  0.6700  0.5333
  170SAPS  O13A19221   3.355   5.129   7.961  0.0941  0.6763 -0.1068
  170SAPS  O13B19222   3.530   5.010   8.030 -0.2037  0.5269  0.1320
  170SAPS   C1119223   3.702   5.153   7.813  0.3176 -0.1811  0.0917
  170SAPS  H11A19224   3.664   5.099   7.723 -1.0611  2.5949 -1.1022
  170SAPS  H11B19225   3.747   5.083   7.886 -0.4352 -0.7690  0.0086
  170SAPS     P19226   3.935   5.248   7.717 -0.5680 -0.3342  0.1426
  170SAPS   O1319227   4.027   5.327   7.797 -0.2760 -0.0538  0.0157
  170SAPS   O1419228   3.963   5.104   7.691 -0.0895 -0.1762  0.7801
  170SAPS   O1219229   3.790   5.252   7.778 -0.6339  0.2280 -0.0965
  170SAPS   O1119230   3.923   5.319   7.578  0.5330  0.1382 -0.2937
  170SAPS    C119231   3.819   5.280   7.480 -0.3218 -0.3170  0.1964
  170SAPS    HA19232   3.872   5.235   7.393  0.5731 -2.2852  1.6751
  170SAPS    HB19233   3.741   5.214   7.524 -0.5913 -0.1048  0.0360
  170SAPS    C219234   3.745   5.400   7.426  0.4707  0.1254  0.0124
  170SAPS    HS19235   3.660   5.419   7.494 -0.2625 -0.3707 -0.7484
  170SAPS   O2119236   3.698   5.376   7.290  0.2196  0.3521 -0.6457
  170SAPS   C2119237   3.612   5.280   7.279  0.0714  0.3547 -0.6500
  170SAPS   O2219238   3.554   5.223   7.369  0.5302  0.1609 -0.5651
  170SAPS   C2219239   3.614   5.227   7.137  0.4503  0.4633 -0.4141
  170SAPS   H2R19240   3.715   5.253   7.099  0.4974  0.0262 -0.5908
  170SAPS   H2S19241   3.609   5.116   7.149  2.0537  0.3481 -0.6576
  170SAPS    C319242   3.833   5.526   7.420 -0.6562 -0.4011  0.2740
  170SAPS    HX19243   3.924   5.516   7.357 -1.0013 -0.1363 -0.2747
  170SAPS    HY19244   3.862   5.558   7.522  2.8323 -1.7093 -0.1464
  170SAPS   O3119245   3.758   5.635   7.364 -0.7734  0.4059 -0.1245
  170SAPS   C3119246   3.829   5.728   7.292  0.2347  0.5825  0.1821
  170SAPS   O3219247   3.950   5.722   7.269  0.0588 -1.3072  0.0261
  170SAPS   C3219248   3.736   5.831   7.238  0.9502  0.3753  0.8982
  170SAPS   H2X19249   3.760   5.924   7.294  1.2987  2.3549 -2.3150
  170SAPS   H2Y19250   3.634   5.811   7.278 -0.0424  1.7531 -0.8357
  170SAPS   C2319251   3.496   5.258   7.036  0.1644 -0.0886 -0.6886
  170SAPS   H3R19252   3.407   5.278   7.100  0.9438  0.7811  0.1663
  170SAPS   H3S19253   3.483   5.165   6.977  0.5539 -0.6834  0.1420
  170SAPS   C2419254   3.515   5.380   6.945  0.4461 -0.2230  0.4008
  170SAPS   H4R19255   3.607   5.368   6.884 -0.7152 -0.8749 -1.2956
  170SAPS   H4S19256   3.534   5.465   7.015  0.6606  0.6955 -0.7391
  170SAPS   C2519257   3.388   5.406   6.863 -0.7139 -0.2774  0.0578
  170SAPS   H5R19258   3.296   5.360   6.902  0.1514 -0.9455  1.3898
  170SAPS   C2619259   3.366   5.462   6.747  0.1456  0.0799  0.1650
  170SAPS   H6R19260   3.262   5.463   6.711 -0.5795  2.2445  2.0663
  170SAPS   C2719261   3.461   5.526   6.652 -0.1331 -0.6342  0.9648
  170SAPS   H7R19262   3.568   5.523   6.684  0.0105  0.5525  0.6625
  170SAPS   H7S19263   3.436   5.634   6.641  0.3600 -0.7025 -1.5424
  170SAPS   C2819264   3.452   5.468   6.512 -0.1531 -0.2686 -0.9446
  170SAPS   H8R19265   3.374   5.390   6.513 -0.2543 -0.1627 -0.3936
  170SAPS   C2919266   3.515   5.514   6.401 -0.1020 -0.3525 -0.1401
  170SAPS   H9R19267   3.490   5.460   6.308  1.4842  0.4067 -1.0457
  170SAPS  C21019268   3.618   5.624   6.402 -0.2022  0.5791 -0.9850
  170SAPS  H10R19269   3.695   5.597   6.326  0.5325 -0.5881  0.1333
  170SAPS  H10S19270   3.672   5.622   6.499 -2.5495 -1.0899  0.3740
  170SAPS  C21119271   3.553   5.756   6.368 -0.2867 -0.3463 -0.6674
  170SAPS  H11R19272   3.545   5.826   6.452 -0.2648 -2.3086  1.0615
  170SAPS  C21219273   3.495   5.786   6.250  0.7452 -0.7480  0.6431
  170SAPS  H12R19274   3.453   5.888   6.240 -2.3681 -1.8502  1.3768
  170SAPS  C21319275   3.495   5.700   6.131 -0.1704 -0.3629 -1.0650
  170SAPS  H13R19276   3.398   5.646   6.137 -0.0468 -0.4329  1.3735
  170SAPS  H13S19277   3.571   5.620   6.146 -0.2203  0.0495  1.9322
  170SAPS  C21419278   3.506   5.778   5.999  0.7839 -0.2057  0.5145
  170SAPS  H14R19279   3.472   5.883   5.995  0.4781 -0.2966  0.7125
  170SAPS  C21519280   3.562   5.731   5.886  0.0892 -0.7984 -0.2481
  170SAPS  H15R19281   3.583   5.804   5.806  1.6334 -1.1639 -0.2175
  170SAPS  C21619282   3.624   5.591   5.860  0.2253 -0.3185  0.0082
  170SAPS  H16R19283   3.551   5.508   5.850  1.2627 -1.1579 -0.6605
  170SAPS  H16S19284   3.683   5.571   5.952  0.3945  1.2857  0.2838
  170SAPS  C21719285   3.714   5.589   5.742 -0.3756  0.2129  0.4686
  170SAPS  H17R19286   3.800   5.659   5.749 -0.7997  1.3203 -3.2152
  170SAPS  H17S19287   3.660   5.619   5.650  0.2441 -1.9026 -0.6702
  170SAPS  C21819288   3.777   5.445   5.730  0.3657  0.0063 -0.4747
  170SAPS  H18R19289   3.685   5.385   5.718  1.8058 -2.5380  0.3725
  170SAPS  H18S19290   3.814   5.406   5.827 -2.7249 -1.7584  0.1213
  170SAPS  C21919291   3.880   5.421   5.618  0.8550 -0.4731  0.3918
  170SAPS  H19R19292   3.968   5.361   5.650  1.5859  0.6160  0.4770
  170SAPS  H19S19293   3.911   5.522   5.587 -0.3513  0.3049  1.6011
  170SAPS  C22019294   3.798   5.341   5.505 -0.1131  0.1301  0.1058
  170SAPS  H20R19295   3.763   5.250   5.558 -4.2176  0.8875 -0.9847
  170SAPS  H20S19296   3.857   5.314   5.415  0.6553  0.2950  0.5524
  170SAPS  H20T19297   3.713   5.400   5.465 -0.0350 -0.3260 -0.7417
  170SAPS   C3319298   3.751   5.851   7.084  0.2496  0.3058  0.2096
  170SAPS   H3X19299   3.859   5.871   7.066  0.2252 -0.4809 -0.9266
  170SAPS   H3Y19300   3.699   5.942   7.048  3.6575  2.4022  0.1020
  170SAPS   C3419301   3.711   5.731   6.993 -0.1628 -0.1639 -0.8201
  170SAPS   H4X19302   3.601   5.720   7.009  0.0832 -1.3529  0.2409
  170SAPS   H4Y19303   3.760   5.637   7.027  2.0099  1.3024  0.3773
  170SAPS   C3519304   3.740   5.755   6.848 -0.0697 -0.0215 -0.1421
  170SAPS   H5X19305   3.697   5.856   6.828 -0.0693 -0.1305 -0.6979
  170SAPS   H5Y19306   3.691   5.673   6.792  0.8832 -1.6131  1.2597
  170SAPS   C3619307   3.891   5.742   6.820 -0.4175 -0.1982  0.3307
  170SAPS   H6X19308   3.935   5.646   6.851  1.9152  0.1247 -1.6877
  170SAPS   H6Y19309   3.944   5.823   6.874 -1.5717 -0.2287  1.5638
  170SAPS   C3719310   3.932   5.752   6.672 -0.3450 -0.1254  0.5538
  170SAPS   H7X19311   3.891   5.848   6.633 -2.4045 -0.6022  1.4547
  170SAPS   H7Y19312   3.874   5.683   6.608  0.8491  0.1943 -0.9547
  170SAPS   C3819313   4.089   5.739   6.653  0.2811 -0.9153 -0.8904
  170SAPS   H8X19314   4.128   5.636   6.664  2.1829 -0.1288  0.2737
  170SAPS   H8Y19315   4.153   5.795   6.725  1.8814 -0.6590 -2.4581
  170SAPS   C3919316   4.138   5.780   6.518  0.9182 -0.0259  0.8697
  170SAPS   H9X19317   4.105   5.882   6.491  1.8459 -0.1352 -0.7745
  170SAPS   H9Y19318   4.087   5.708   6.451 -0.9742 -0.0533  2.2495
  170SAPS  C31019319   4.287   5.761   6.497 -0.8289 -0.1192  0.1971
  170SAPS  H10X19320   4.308   5.657   6.530 -2.3355 -0.9424 -1.2199
  170SAPS  H10Y19321   4.344   5.829   6.563 -0.3271 -1.7972  1.5759
  170SAPS  C31119322   4.343   5.791   6.352 -0.3771  0.2732  0.4188
  170SAPS  H11X19323   4.278   5.728   6.288 -0.0381 -1.0048  1.2994
  170SAPS  H11Y19324   4.445   5.758   6.327 -0.6661  0.6910 -1.4096
  170SAPS  C31219325   4.316   5.936   6.307 -0.2204  0.3132  0.3393
  170SAPS  H12X19326   4.384   5.994   6.373 -0.4375  1.2251 -0.2169
  170SAPS  H12Y19327   4.209   5.965   6.313 -0.5471 -0.2397 -1.8915
  170SAPS  C31319328   4.366   5.957   6.164  0.4065  0.1696  0.0869
  170SAPS  H13X19329   4.327   5.870   6.107  0.7012 -2.5077  3.6164
  170SAPS  H13Y19330   4.475   5.936   6.179  0.1279 -0.1068  1.8389
  170SAPS  C31419331   4.341   6.099   6.112 -0.1472 -0.4062  0.0562
  170SAPS  H14X19332   4.388   6.178   6.174 -2.4639  0.6057  0.6413
  170SAPS  H14Y19333   4.235   6.116   6.142  0.9685  2.3458  2.8938
  170SAPS  C31519334   4.362   6.116   5.965 -0.4868  0.2818 -0.2229
  170SAPS  H15X19335   4.315   6.034   5.908 -1.0854  1.8035 -2.0378
  170SAPS  H15Y19336   4.467   6.094   5.937  0.0875  2.6726 -0.2344
  170SAPS  C31619337   4.288   6.239   5.904  0.0010  0.0124 -0.9668
  170SAPS  H16X19338   4.309   6.327   5.969 -0.4424  0.4522 -1.4122
  170SAPS  H16Y19339   4.183   6.205   5.917  0.0794  0.6479  2.0267
  170SAPS  C31719340   4.313   6.274   5.759  0.3169  0.2865  0.3646
  170SAPS  H17X19341   4.404   6.334   5.739  0.8957 -0.9574 -0.8019
  170SAPS  H17Y19342   4.230   6.346   5.742  0.2783  0.2549  0.4205
  170SAPS  C31819343   4.318   6.151   5.659  0.5291 -0.2147  0.1668
  170SAPS  H18X19344   4.230   6.084   5.665  0.7243 -0.4721  0.2071
  170SAPS  H18Y19345   4.405   6.082   5.671 -0.3789 -1.3065  0.7409
  170SAPS  H18Z19346   4.319   6.184   5.554  0.2635  1.2167  0.5983
  171SAPS     N19347   0.150   5.786   7.494 -0.7733 -0.7242 -0.2831
  171SAPS   HN119348   0.157   5.776   7.391 -3.0277  1.4173 -0.7460
  171SAPS   HN219349   0.159   5.886   7.524  0.0940 -1.6654  2.9359
  171SAPS   HN319350   0.234   5.742   7.535  1.0896  0.6489 -2.3626
  171SAPS   C1219351   0.018   5.729   7.541  0.2992  0.1748 -0.1797
  171SAPS  H12A19352   0.044   5.693   7.639  1.9319 -0.2284 -0.7355
  171SAPS   C1319353  -0.095   5.825   7.523 -0.5609 -0.7103  0.7721
  171SAPS  O13A19354  -0.088   5.920   7.441 -0.2110  0.2384 -0.7260
  171SAPS  O13B19355  -0.204   5.772   7.549  0.3516 -0.2749  0.0608
  171SAPS   C1119356  -0.008   5.602   7.467 -0.5703 -0.0247 -0.0268
  171SAPS  H11A19357  -0.041   5.643   7.369 -2.0288  0.3864  0.6155
  171SAPS  H11B19358  -0.082   5.532   7.511  2.1439 -2.0475  1.6082
  171SAPS     P19359   0.130   5.421   7.336 -0.0358  0.0985 -0.2354
  171SAPS   O1319360   0.270   5.372   7.329  0.7721 -0.4608 -0.5130
  171SAPS   O1419361   0.021   5.315   7.332 -0.1235  0.1216 -0.2789
  171SAPS   O1219362   0.111   5.519   7.460 -0.2825 -0.1830 -0.1924
  171SAPS   O1119363   0.106   5.519   7.211  0.0603 -0.5625 -0.2525
  171SAPS    C119364   0.182   5.499   7.095  0.2880  0.4861 -0.0992
  171SAPS    HA19365   0.277   5.556   7.100  0.9016 -0.6007  1.3962
  171SAPS    HB19366   0.214   5.394   7.074 -1.6257 -0.5736  1.8894
  171SAPS    C219367   0.101   5.551   6.979 -0.0019 -0.0405  0.8578
  171SAPS    HS19368   0.049   5.646   7.006 -1.5008 -0.6979  0.3975
  171SAPS   O2119369   0.009   5.450   6.938 -0.5071  0.9076 -0.4107
  171SAPS   C2119370  -0.109   5.457   6.997 -0.1204 -0.0141  0.9191
  171SAPS   O2219371  -0.149   5.539   7.075  0.7841 -0.3915  0.2812
  171SAPS   C2219372  -0.199   5.358   6.928 -0.4635  0.4396 -0.1636
  171SAPS   H2R19373  -0.146   5.296   6.853 -2.6979 -1.4581 -0.2751
  171SAPS   H2S19374  -0.217   5.286   7.011  0.0178  0.7023  0.1714
  171SAPS    C319375   0.198   5.571   6.859 -0.0940  0.0606 -0.3550
  171SAPS    HX19376   0.216   5.474   6.808  1.9021 -0.9819  2.1104
  171SAPS    HY19377   0.303   5.602   6.878 -0.2841  1.3585 -1.3211
  171SAPS   O3119378   0.143   5.667   6.760  0.3264 -0.0778 -0.1621
  171SAPS   C3119379   0.162   5.793   6.792  1.4361 -0.1188 -0.0153
  171SAPS   O3219380   0.223   5.833   6.891  0.3442 -0.0470 -0.1863
  171SAPS   C3219381   0.101   5.880   6.686  0.3139  0.1718 -0.0120
  171SAPS   H2X19382   0.125   5.837   6.586  0.7389 -1.5905  0.8095
  171SAPS   H2Y19383   0.131   5.986   6.699  0.5804 -0.0714  1.5441
  171SAPS   C2319384  -0.334   5.417   6.865 -0.7643 -0.1151  0.1501
  171SAPS   H3R19385  -0.367   5.493   6.938  0.8157  0.3723  0.3913
  171SAPS   H3S19386  -0.410   5.336   6.853  2.4043 -3.2577 -0.6636
  171SAPS   C2419387  -0.306   5.472   6.723  1.3178 -0.0599 -0.3157
  171SAPS   H4R19388  -0.294   5.383   6.658  0.3377 -0.4542  0.0160
  171SAPS   H4S19389  -0.211   5.529   6.730  1.1982  0.5512 -2.6587
  171SAPS   C2519390  -0.414   5.570   6.670 -0.5871  0.0492 -0.2709
  171SAPS   H5R19391  -0.499   5.583   6.739 -0.5721 -2.5777  0.3312
  171SAPS   C2619392  -0.421   5.628   6.552  0.8113  0.1595  0.3045
  171SAPS   H6R19393  -0.510   5.686   6.524 -1.5313 -2.4751  1.7598
  171SAPS   C2719394  -0.323   5.603   6.447 -0.5554  0.0127  0.1855
  171SAPS   H7R19395  -0.315   5.493   6.440  0.9799  0.1031  0.2966
  171SAPS   H7S19396  -0.221   5.637   6.473  0.0426 -1.2168 -0.4889
  171SAPS   C2819397  -0.370   5.656   6.309 -0.4298  0.4979 -0.6001
  171SAPS   H8R19398  -0.475   5.637   6.282 -0.0023 -0.5147 -1.6565
  171SAPS   C2919399  -0.289   5.707   6.222  0.2114 -0.3437  0.1634
  171SAPS   H9R19400  -0.334   5.744   6.129 -1.5307 -2.9715 -0.1461
  171SAPS  C21019401  -0.143   5.729   6.226 -0.1040  0.7044 -0.2300
  171SAPS  H10R19402  -0.098   5.734   6.328 -0.0297 -0.0084 -0.2184
  171SAPS  H10S19403  -0.116   5.827   6.183 -0.0765  1.2003  0.8787
  171SAPS  C21119404  -0.089   5.613   6.143 -1.0862 -0.0809  0.1657
  171SAPS  H11R19405  -0.097   5.509   6.179 -1.7044  0.8459  2.9739
  171SAPS  C21219406  -0.051   5.632   6.011  0.0552 -0.5432  0.6147
  171SAPS  H12R19407  -0.041   5.549   5.939  0.2335  0.7319 -0.8754
  171SAPS  C21319408  -0.037   5.758   5.931 -0.6518 -0.4072 -0.6452
  171SAPS  H13R19409   0.039   5.747   5.850  0.9405  3.3463  0.1201
  171SAPS  H13S19410   0.011   5.830   6.001  0.3739 -1.1151 -0.6004
  171SAPS  C21419411  -0.160   5.809   5.867  0.2196 -0.3845 -0.2919
  171SAPS  H14R19412  -0.214   5.740   5.800 -0.0912 -0.5521  0.1226
  171SAPS  C21519413  -0.213   5.932   5.886 -0.7680 -0.5499  0.2087
  171SAPS  H15R19414  -0.304   5.955   5.828 -0.7606 -2.3215 -0.5746
  171SAPS  C21619415  -0.168   6.032   5.990 -0.0092 -0.5082 -0.8412
  171SAPS  H16R19416  -0.068   6.023   6.038 -0.6389 -1.5657  0.3300
  171SAPS  H16S19417  -0.247   6.028   6.068 -0.9243  4.8068 -1.1280
  171SAPS  C21719418  -0.179   6.178   5.935  0.1807  0.5865  0.4260
  171SAPS  H17R19419  -0.154   6.253   6.013  1.2523  2.2138 -1.3834
  171SAPS  H17S19420  -0.282   6.185   5.895  0.0898 -0.7053  0.3928
  171SAPS  C21819421  -0.098   6.202   5.808  0.1667  0.4120 -0.1682
  171SAPS  H18R19422  -0.102   6.120   5.733  2.2320 -1.0126  1.1769
  171SAPS  H18S19423   0.010   6.196   5.832 -0.5958 -0.4146  3.8181
  171SAPS  C21919424  -0.127   6.331   5.726  0.0105 -0.4720 -0.7759
  171SAPS  H19R19425  -0.040   6.338   5.657  0.2259  1.5789 -0.3441
  171SAPS  H19S19426  -0.124   6.424   5.786 -2.6166  0.0395 -1.3269
  171SAPS  C22019427  -0.250   6.339   5.629 -0.4976 -0.1551 -0.1592
  171SAPS  H20R19428  -0.231   6.427   5.565  1.1226  0.2814  0.8410
  171SAPS  H20S19429  -0.339   6.358   5.693 -0.4169  0.8572 -0.3474
  171SAPS  H20T19430  -0.263   6.255   5.558 -1.2703 -0.3376  0.1920
  171SAPS   C3319431  -0.061   5.887   6.703 -0.1686  0.7307 -0.0291
  171SAPS   H3X19432  -0.092   5.960   6.781 -1.6266 -0.7986  0.8913
  171SAPS   H3Y19433  -0.092   5.785   6.732  1.0657 -0.2507 -1.9537
  171SAPS   C3419434  -0.132   5.935   6.571 -0.0584  0.5338 -0.1161
  171SAPS   H4X19435  -0.241   5.916   6.583  0.5555 -1.5298  3.5278
  171SAPS   H4Y19436  -0.097   5.860   6.496  0.1507 -0.8584  1.3069
  171SAPS   C3519437  -0.118   6.082   6.540  0.2740 -0.3651  0.8240
  171SAPS   H5X19438  -0.015   6.108   6.509 -0.1012  0.9903  0.6494
  171SAPS   H5Y19439  -0.146   6.150   6.623 -2.4820 -1.4584  0.9058
  171SAPS   C3619440  -0.203   6.119   6.413 -0.8996 -0.3896 -0.0028
  171SAPS   H6X19441  -0.180   6.051   6.328 -3.0559 -0.7434 -0.3790
  171SAPS   H6Y19442  -0.171   6.218   6.375  0.1167 -1.1003 -1.0394
  171SAPS   C3719443  -0.353   6.121   6.429  0.2777  0.1962 -0.0218
  171SAPS   H7X19444  -0.389   6.176   6.519 -1.2029 -0.3855 -0.2233
  171SAPS   H7Y19445  -0.392   6.017   6.433 -1.2951  0.8101  1.6006
  171SAPS   C3819446  -0.411   6.190   6.312  0.3131 -0.2767  0.1874
  171SAPS   H8X19447  -0.356   6.134   6.232 -0.2682 -0.4473 -0.0965
  171SAPS   H8Y19448  -0.378   6.296   6.306  1.9730 -0.6569  1.6859
  171SAPS   C3919449  -0.562   6.180   6.297 -0.0931  0.0815  0.2263
  171SAPS   H9X19450  -0.608   6.218   6.391 -1.2680  0.4966 -0.4949
  171SAPS   H9Y19451  -0.587   6.073   6.283  1.3432 -0.7288  3.0632
  171SAPS  C31019452  -0.615   6.257   6.179 -0.8467  0.2440  0.3364
  171SAPS  H10X19453  -0.583   6.363   6.190 -1.8538  0.3856  2.2113
  171SAPS  H10Y19454  -0.726   6.246   6.180 -0.7892 -0.3825  0.2106
  171SAPS  C31119455  -0.572   6.203   6.033  0.1356 -0.0616 -0.0244
  171SAPS  H11X19456  -0.614   6.100   6.039  0.1770 -0.0285  1.0980
  171SAPS  H11Y19457  -0.462   6.198   6.018 -0.1399 -1.0809 -2.0942
  171SAPS  C31219458  -0.639   6.280   5.919  0.1176 -0.2740 -0.1726
  171SAPS  H12X19459  -0.748   6.282   5.939 -0.2083  0.2526 -1.8610
  171SAPS  H12Y19460  -0.621   6.230   5.822 -1.5563 -1.0926 -0.0929
  171SAPS  C31319461  -0.576   6.412   5.911 -0.0183  0.4178 -0.0734
  171SAPS  H13X19462  -0.479   6.404   5.857 -1.1669 -0.8423 -2.1078
  171SAPS  H13Y19463  -0.550   6.451   6.011 -0.8281 -2.5160  1.3942
  171SAPS  C31419464  -0.660   6.513   5.818  0.5003 -0.3327 -0.9989
  171SAPS  H14X19465  -0.619   6.616   5.817 -1.4603  0.5029 -0.3809
  171SAPS  H14Y19466  -0.761   6.519   5.864  0.7941 -1.1998 -0.2095
  171SAPS  C31519467  -0.677   6.469   5.670  0.2938 -0.2914  0.1632
  171SAPS  H15X19468  -0.737   6.376   5.671  0.1493 -0.2195  2.2287
  171SAPS  H15Y19469  -0.582   6.434   5.625  0.1097  1.3572 -1.6864
  171SAPS  C31619470  -0.743   6.571   5.571  0.0745 -0.2254  0.0132
  171SAPS  H16X19471  -0.671   6.656   5.577 -1.4512  1.0171  1.9775
  171SAPS  H16Y19472  -0.848   6.598   5.596 -0.1237  1.1958 -2.1482
  171SAPS  C31719473  -0.751   6.506   5.435 -0.2744  0.1316  0.1697
  171SAPS  H17X19474  -0.822   6.422   5.448 -0.4961  0.3049  0.0906
  171SAPS  H17Y19475  -0.655   6.460   5.405  0.2308  1.2696 -0.0155
  171SAPS  C31819476  -0.792   6.606   5.331  0.1176 -0.6245 -0.1289
  171SAPS  H18X19477  -0.798   6.566   5.228  0.4361  0.4890 -0.5980
  171SAPS  H18Y19478  -0.718   6.689   5.334 -0.2966 -0.1779 -1.6417
  171SAPS  H18Z19479  -0.894   6.640   5.361 -0.5811 -1.1734 -1.7768
  172SAPS     N19480   6.178   4.587   7.512  0.5739 -0.1499  0.0133
  172SAPS   HN119481   6.190   4.650   7.430 -0.5041  2.1992  1.5263
  172SAPS   HN219482   6.154   4.495   7.469 -2.8295  1.2992 -1.5491
  172SAPS   HN319483   6.098   4.637   7.556 -1.1520 -0.5180 -2.4747
  172SAPS   C1219484   6.295   4.586   7.605  0.0856  0.1689  0.0594
  172SAPS  H12A19485   6.310   4.690   7.626  0.0953  0.0900  0.4494
  172SAPS   C1319486   6.287   4.506   7.741  0.4775 -0.3248 -1.4444
  172SAPS  O13A19487   6.177   4.466   7.784 -0.3441  0.4526  0.0887
  172SAPS  O13B19488   6.381   4.540   7.824 -0.4281  0.5639  0.3063
  172SAPS   C1119489   6.413   4.528   7.519 -0.2754  1.2672 -0.2099
  172SAPS  H11A19490   6.511   4.538   7.571 -0.3309  2.8111 -0.3616
  172SAPS  H11B19491   6.429   4.583   7.424  0.9077  0.7604 -0.3237
  172SAPS     P19492   6.487   4.331   7.382  0.0044 -0.1956 -0.0854
  172SAPS   O1319493   6.626   4.358   7.423 -0.0548 -0.7270  0.2522
  172SAPS   O1419494   6.463   4.188   7.363  0.0392  0.1454 -0.1644
  172SAPS   O1219495   6.389   4.390   7.496 -0.0007  0.0269  0.1666
  172SAPS   O1119496   6.431   4.412   7.256 -0.2452  0.3354 -0.6712
  172SAPS    C119497   6.304   4.389   7.195  0.1701 -0.4254  0.5565
  172SAPS    HA19498   6.230   4.356   7.271  1.9711 -1.3386  1.9848
  172SAPS    HB19499   6.273   4.479   7.138  0.0970 -1.8180 -1.7680
  172SAPS    C219500   6.335   4.277   7.090  0.0004 -0.3233  0.3552
  172SAPS    HS19501   6.374   4.189   7.144 -0.4427 -1.6078 -1.3425
  172SAPS   O2119502   6.434   4.326   6.992  0.0108 -0.0075 -0.2850
  172SAPS   C2119503   6.548   4.250   6.986  0.3884  0.0012 -0.1941
  172SAPS   O2219504   6.565   4.144   7.037 -0.1743 -0.5833  0.0367
  172SAPS   C2219505   6.659   4.324   6.923 -0.4125  0.0433  0.0182
  172SAPS   H2R19506   6.632   4.372   6.827  0.8733  1.1803  0.1872
  172SAPS   H2S19507   6.685   4.413   6.985  0.0161 -0.3235  0.3758
  172SAPS    C319508   6.204   4.242   7.020  0.1531 -0.2539 -0.5691
  172SAPS    HX19509   6.168   4.335   6.971 -1.1360 -1.3555 -1.8070
  172SAPS    HY19510   6.128   4.206   7.092 -0.4409  2.0616  0.0582
  172SAPS   O3119511   6.240   4.148   6.914 -0.4874  0.2655  0.1473
  172SAPS   C3119512   6.232   4.018   6.945  0.0979 -0.4994 -0.4509
  172SAPS   O3219513   6.216   3.975   7.062 -0.3189 -0.3288  0.4165
  172SAPS   C3219514   6.243   3.929   6.825  0.2415  0.4032  0.8298
  172SAPS   H2X19515   6.173   3.843   6.823 -1.8604  2.0405  0.1055
  172SAPS   H2Y19516   6.347   3.892   6.806 -0.7187 -1.7264 -0.8359
  172SAPS   C2319517   6.792   4.235   6.903  0.2679 -0.2900 -0.8394
  172SAPS   H3R19518   6.778   4.159   6.824  0.0875  1.3515 -2.4690
  172SAPS   H3S19519   6.830   4.183   6.993  1.6510  1.9763 -0.0194
  172SAPS   C2419520   6.896   4.322   6.836 -0.2027 -0.0767  0.1434
  172SAPS   H4R19521   6.922   4.391   6.919 -2.2137  1.5879 -0.5420
  172SAPS   H4S19522   6.856   4.373   6.747  0.9271 -1.2316 -1.0711
  172SAPS   C2519523   7.020   4.240   6.801 -0.2005  0.1192  0.1742
  172SAPS   H5R19524   7.048   4.167   6.878  0.9048  0.6276  0.2583
  172SAPS   C2619525   7.079   4.235   6.680  0.5488 -0.2728 -0.0357
  172SAPS   H6R19526   7.167   4.170   6.672  0.6356  0.0096 -1.7518
  172SAPS   C2719527   7.045   4.312   6.556 -0.4301 -0.5243  0.1770
  172SAPS   H7R19528   7.145   4.327   6.511  0.1206 -1.3599  1.0676
  172SAPS   H7S19529   6.992   4.406   6.582 -0.4709 -0.4959 -0.0086
  172SAPS   C2819530   6.951   4.234   6.461 -0.2203 -0.0128  0.2988
  172SAPS   H8R19531   6.941   4.128   6.487  0.9680 -0.4712 -1.0046
  172SAPS   C2919532   6.892   4.279   6.348  0.7587  0.6580 -0.7778
  172SAPS   H9R19533   6.826   4.208   6.296  0.6303  1.3227 -1.5396
  172SAPS  C21019534   6.895   4.417   6.301  0.1006 -0.5397  0.5881
  172SAPS  H10R19535   6.927   4.492   6.376 -0.5546  0.9684 -0.5804
  172SAPS  H10S19536   6.793   4.451   6.272  0.4914  0.1439 -0.0179
  172SAPS  C21119537   6.985   4.433   6.177 -0.5937  0.4225 -0.3191
  172SAPS  H11R19538   7.085   4.390   6.192 -0.8315 -0.2051 -0.5376
  172SAPS  C21219539   6.958   4.482   6.057  0.5933  0.4848  0.5990
  172SAPS  H12R19540   7.047   4.486   5.993  1.2842 -1.1472  1.3847
  172SAPS  C21319541   6.830   4.546   6.012  1.0011  0.1897 -0.2279
  172SAPS  H13R19542   6.862   4.637   5.957  1.1850  0.6819  0.6725
  172SAPS  H13S19543   6.767   4.572   6.099  0.6671  0.7181 -0.6197
  172SAPS  C21419544   6.732   4.464   5.933 -0.0705  0.3724 -0.4750
  172SAPS  H14R19545   6.728   4.358   5.962 -2.7619  0.3940 -0.5733
  172SAPS  C21519546   6.660   4.493   5.820 -0.1470  0.1694  0.3510
  172SAPS  H15R19547   6.604   4.424   5.756  0.3060  1.9001 -2.0516
  172SAPS  C21619548   6.666   4.630   5.755  0.3723 -0.1112 -0.1075
  172SAPS  H16R19549   6.771   4.664   5.747 -0.4937  3.0088  0.4253
  172SAPS  H16S19550   6.601   4.695   5.818  0.4552  0.1996 -0.3421
  172SAPS  C21719551   6.608   4.630   5.615  0.4615  0.0431  0.2146
  172SAPS  H17R19552   6.500   4.607   5.628  0.1361  0.5221 -1.4137
  172SAPS  H17S19553   6.654   4.549   5.554 -2.2120 -0.3449 -1.4582
  172SAPS  C21819554   6.615   4.758   5.523 -0.6385  0.0420  0.1164
  172SAPS  H18R19555   6.566   4.730   5.428  2.2832 -2.3793 -0.8583
  172SAPS  H18S19556   6.721   4.768   5.490 -0.3426 -1.6746  0.4523
  172SAPS  C21919557   6.549   4.887   5.577  0.1086 -0.0910 -0.5868
  172SAPS  H19R19558   6.595   4.931   5.668  0.4245 -0.0696 -0.7549
  172SAPS  H19S19559   6.441   4.868   5.593  0.6845 -2.1888  1.1248
  172SAPS  C22019560   6.549   4.998   5.470 -0.5956 -0.5098  0.4857
  172SAPS  H20R19561   6.516   5.091   5.521 -2.8896 -1.2292  0.4519
  172SAPS  H20S19562   6.479   4.974   5.387 -0.9905  1.0300  0.3421
  172SAPS  H20T19563   6.650   5.012   5.427 -0.8364  1.4709  0.5099
  172SAPS   C3319564   6.212   4.010   6.697  0.1480  0.0008 -0.2944
  172SAPS   H3X19565   6.280   4.096   6.680  0.7497 -0.8552 -2.7283
  172SAPS   H3Y19566   6.102   4.027   6.698  0.2680  0.8063 -0.0824
  172SAPS   C3419567   6.229   3.929   6.570  0.7882 -0.0255  0.0454
  172SAPS   H4X19568   6.192   3.827   6.594  0.6593  0.0161  0.0257
  172SAPS   H4Y19569   6.338   3.928   6.552  0.7250  3.9214 -1.6239
  172SAPS   C3519570   6.156   3.988   6.445 -0.1786 -0.0915 -0.6472
  172SAPS   H5X19571   6.207   4.086   6.431  1.2821 -1.0912 -2.8557
  172SAPS   H5Y19572   6.053   3.999   6.485  1.2939 -0.9458  4.0789
  172SAPS   C3619573   6.178   3.923   6.308  0.3808  0.8416  0.4510
  172SAPS   H6X19574   6.139   3.820   6.322  0.4532  0.7713  0.1405
  172SAPS   H6Y19575   6.287   3.903   6.306  0.2567  0.1538  0.3061
  172SAPS   C3719576   6.118   3.998   6.191  0.4803  0.0616  0.0968
  172SAPS   H7X19577   6.174   4.094   6.187 -0.5037  0.6049 -2.0368
  172SAPS   H7Y19578   6.017   4.028   6.226  0.2525  0.0532 -0.5528
  172SAPS   C3819579   6.111   3.920   6.057 -0.5558  0.8499  0.5344
  172SAPS   H8X19580   6.087   3.813   6.075  2.1744 -0.0861 -0.8925
  172SAPS   H8Y19581   6.207   3.912   6.001 -0.0539 -0.2815  1.5092
  172SAPS   C3919582   6.023   3.981   5.951 -0.2398  0.3323  0.3337
  172SAPS   H9X19583   6.062   4.081   5.922  2.3746 -0.7738 -0.2215
  172SAPS   H9Y19584   5.922   3.988   5.996  0.3991 -0.6837  1.9920
  172SAPS  C31019585   6.013   3.894   5.825 -0.3227  0.6556 -0.3156
  172SAPS  H10X19586   5.957   3.800   5.846  0.4805  0.4108  0.8590
  172SAPS  H10Y19587   6.115   3.854   5.806 -0.4570 -0.9814  1.9733
  172SAPS  C31119588   5.960   3.973   5.704  0.7484 -0.2395  0.2230
  172SAPS  H11X19589   6.039   4.051   5.691  0.0670  1.1701  3.4402
  172SAPS  H11Y19590   5.870   4.032   5.731  1.1764  0.8137 -0.5580
  172SAPS  C31219591   5.937   3.892   5.574 -0.5739 -0.3332 -0.6979
  172SAPS  H12X19592   5.872   3.807   5.604 -0.2266 -0.7532 -1.1197
  172SAPS  H12Y19593   6.031   3.844   5.540 -1.4365 -2.8665  0.2498
  172SAPS  C31319594   5.864   3.969   5.465 -0.1154 -0.4904  0.2543
  172SAPS  H13X19595   5.761   4.001   5.493 -0.5045 -2.0643  0.7210
  172SAPS  H13Y19596   5.855   3.893   5.385  1.8827  0.5632 -1.0513
  172SAPS  C31419597   5.947   4.086   5.412 -0.6111 -0.2254 -0.4234
  172SAPS  H14X19598   6.046   4.053   5.376 -0.7930 -0.1177 -1.0292
  172SAPS  H14Y19599   5.954   4.159   5.496 -0.3017  0.6808 -1.2108
  172SAPS  C31519600   5.878   4.166   5.301  0.0593 -0.2315 -0.1136
  172SAPS  H15X19601   5.811   4.242   5.346  1.6976  0.0979  1.9231
  172SAPS  H15Y19602   5.827   4.092   5.236  0.4737 -1.4888  0.9414
  172SAPS  C31619603   5.970   4.256   5.209  0.4409  0.1728 -0.6176
  172SAPS  H16X19604   6.030   4.328   5.268  2.7026 -0.3481 -2.1354
  172SAPS  H16Y19605   6.048   4.189   5.167 -1.5737 -2.6012 -0.1669
  172SAPS  C31719606   5.888   4.320   5.097 -0.8719 -0.0763 -0.0796
  172SAPS  H17X19607   5.801   4.369   5.145 -2.9359 -1.8928 -1.7608
  172SAPS  H17Y19608   5.851   4.240   5.029  0.9432  0.7396 -2.1237
  172SAPS  C31819609   5.987   4.426   5.021 -0.0463 -0.5649 -0.6007
  172SAPS  H18X19610   6.005   4.500   5.103 -0.9096 -1.2031  0.1695
  172SAPS  H18Y19611   5.938   4.473   4.933  0.3015  1.8992  0.4127
  172SAPS  H18Z19612   6.078   4.365   5.002 -0.1020 -0.6930 -0.4558
  173SAPS     N19613   1.837   1.326   3.156  0.1070  0.0822  0.3899
  173SAPS   HN119614   1.905   1.264   3.204 -1.1828  0.7510  3.3306
  173SAPS   HN219615   1.844   1.427   3.180  0.0349  0.8389 -2.4857
  173SAPS   HN319616   1.741   1.298   3.186 -0.7114  2.3703  0.1655
  173SAPS   C1219617   1.864   1.313   3.009 -0.4942  0.3264  0.3402
  173SAPS  H12A19618   1.969   1.332   2.993 -0.5593 -1.2824 -2.5041
  173SAPS   C1319619   1.830   1.179   2.938  0.7618  0.7879 -0.6267
  173SAPS  O13A19620   1.781   1.080   2.997 -0.0250  0.2976 -0.1227
  173SAPS  O13B19621   1.847   1.176   2.815 -0.1736  0.5478 -0.1991
  173SAPS   C1119622   1.785   1.427   2.938 -0.2746 -0.6046 -0.5674
  173SAPS  H11A19623   1.799   1.420   2.828 -3.5156 -0.8749 -1.0608
  173SAPS  H11B19624   1.826   1.523   2.975 -2.7528  0.2179  0.2610
  173SAPS     P19625   1.563   1.553   2.923  0.4792  0.0341  0.1910
  173SAPS   O1319626   1.647   1.674   2.889 -0.0332 -0.3364 -0.3375
  173SAPS   O1419627   1.476   1.506   2.822 -0.5787  0.5119  0.0351
  173SAPS   O1219628   1.649   1.438   2.973  0.9166  0.3271 -0.0851
  173SAPS   O1119629   1.481   1.580   3.060 -0.4986 -0.3158 -0.3911
  173SAPS    C119630   1.351   1.529   3.081  1.0655  0.0084  0.0088
  173SAPS    HA19631   1.307   1.487   2.988  0.4084  1.3477 -0.3061
  173SAPS    HB19632   1.356   1.440   3.147  3.7592 -0.8976 -1.2736
  173SAPS    C219633   1.261   1.637   3.145  0.4331 -0.8270 -0.0615
  173SAPS    HS19634   1.272   1.736   3.095 -0.5736 -0.3729  0.5852
  173SAPS   O2119635   1.302   1.664   3.284  0.1227  0.3551  0.4979
  173SAPS   C2119636   1.227   1.741   3.363  0.3454  0.0207 -0.8565
  173SAPS   O2219637   1.131   1.804   3.331 -0.0142 -0.5016  0.6426
  173SAPS   C2219638   1.294   1.732   3.495 -0.1870  0.8159 -0.2991
  173SAPS   H2R19639   1.382   1.666   3.507  0.4631  1.8401  0.9066
  173SAPS   H2S19640   1.342   1.832   3.509  1.9372 -0.4260  2.1212
  173SAPS    C319641   1.111   1.600   3.125  0.3181  0.2234  0.4616
  173SAPS    HX19642   1.093   1.577   3.018  0.1600  0.4949  0.4284
  173SAPS    HY19643   1.029   1.667   3.159 -1.7981 -1.9588 -0.0275
  173SAPS   O3119644   1.072   1.480   3.194  0.4992 -0.3701 -0.0365
  173SAPS   C3119645   1.020   1.369   3.140  0.2242 -0.2179  0.1648
  173SAPS   O3219646   0.994   1.337   3.025  0.0574  0.6267  0.0390
  173SAPS   C3219647   1.025   1.263   3.260 -0.4654 -0.2059  0.0994
  173SAPS   H2X19648   0.979   1.166   3.228 -0.4690  0.1796 -1.1402
  173SAPS   H2Y19649   0.966   1.296   3.348  3.0333  1.0940  2.1444
  173SAPS   C2319650   1.195   1.695   3.606  0.3369 -0.2412 -0.5044
  173SAPS   H3R19651   1.105   1.759   3.599  1.0720  0.9279  0.2842
  173SAPS   H3S19652   1.247   1.714   3.703 -0.6065  1.4195 -0.2835
  173SAPS   C2419653   1.155   1.548   3.605  0.6189 -0.2275 -0.0149
  173SAPS   H4R19654   1.236   1.487   3.650 -0.8948 -1.6962  0.8257
  173SAPS   H4S19655   1.134   1.507   3.504  2.3125 -2.0474  0.2947
  173SAPS   C2519656   1.032   1.518   3.692 -0.4787 -0.1822 -0.3825
  173SAPS   H5R19657   0.947   1.569   3.644 -0.4800  0.0892 -0.0948
  173SAPS   C2619658   1.022   1.438   3.796 -0.1215  0.5167  0.1938
  173SAPS   H6R19659   0.926   1.438   3.851  0.2821 -0.6658  0.9345
  173SAPS   C2719660   1.140   1.372   3.874  0.1808 -0.0168 -0.1117
  173SAPS   H7R19661   1.239   1.379   3.825  0.5177  0.5786  0.6189
  173SAPS   H7S19662   1.122   1.263   3.877 -2.2928  0.3486  1.7612
  173SAPS   C2819663   1.150   1.405   4.021  0.0808  0.2902  0.8755
  173SAPS   H8R19664   1.213   1.494   4.033  1.0547 -0.2136 -0.2583
  173SAPS   C2919665   1.077   1.357   4.131 -0.8385 -1.1858  0.3392
  173SAPS   H9R19666   1.100   1.390   4.234  0.9166 -0.1534 -0.3393
  173SAPS  C21019667   0.983   1.245   4.124  0.0501  0.0677 -0.6732
  173SAPS  H10R19668   1.015   1.172   4.201 -0.4219  0.9360  0.3787
  173SAPS  H10S19669   1.003   1.188   4.031  0.2863  0.1691 -0.6869
  173SAPS  C21119670   0.843   1.300   4.129 -0.2252 -0.0933  0.5764
  173SAPS  H11R19671   0.820   1.375   4.053 -1.2472 -0.3103  0.6494
  173SAPS  C21219672   0.745   1.275   4.214 -1.0107 -0.6541 -0.8854
  173SAPS  H12R19673   0.645   1.320   4.201 -0.2873  0.6058 -2.5268
  173SAPS  C21319674   0.751   1.185   4.337 -0.0128 -0.4632  0.1178
  173SAPS  H13R19675   0.795   1.085   4.315  2.5095  0.3294  1.2045
  173SAPS  H13S19676   0.645   1.174   4.369  0.2551 -0.4133  1.0405
  173SAPS  C21419677   0.824   1.256   4.449  0.1827 -0.0968  0.0215
  173SAPS  H14R19678   0.856   1.359   4.425 -2.8552  0.0616 -4.5313
  173SAPS  C21519679   0.847   1.200   4.563  0.2818  0.0372 -1.0234
  173SAPS  H15R19680   0.907   1.262   4.630  1.0280 -0.4313 -1.2506
  173SAPS  C21619681   0.812   1.068   4.613  0.3005  0.2585 -0.7028
  173SAPS  H16R19682   0.895   1.019   4.667 -0.4851  0.0604  0.3482
  173SAPS  H16S19683   0.791   0.997   4.529  0.8754  0.5059 -1.0635
  173SAPS  C21719684   0.690   1.080   4.701  0.1800  0.9261 -0.5842
  173SAPS  H17R19685   0.610   1.125   4.637 -0.7600  3.6100  2.2094
  173SAPS  H17S19686   0.704   1.149   4.787 -0.5100 -0.1167  0.3969
  173SAPS  C21819687   0.648   0.939   4.751  0.0860  0.3565  0.6946
  173SAPS  H18R19688   0.630   0.872   4.665 -0.6513  3.0470 -1.3929
  173SAPS  H18S19689   0.552   0.930   4.806 -0.0467 -0.9481  0.2706
  173SAPS  C21919690   0.750   0.879   4.854 -0.1174  0.0653  0.5255
  173SAPS  H19R19691   0.703   0.878   4.955 -0.2518 -0.1192  0.4601
  173SAPS  H19S19692   0.839   0.946   4.862  0.9386 -1.4450  2.4861
  173SAPS  C22019693   0.792   0.744   4.812 -0.0456  0.0923 -0.0517
  173SAPS  H20R19694   0.828   0.737   4.707 -2.4024 -2.0148 -0.8187
  173SAPS  H20S19695   0.715   0.664   4.817  2.0502 -2.0524  0.2940
  173SAPS  H20T19696   0.874   0.708   4.878  0.2141  0.5013 -0.1486
  173SAPS   C3319697   1.170   1.245   3.310  0.1827  0.1380 -0.4402
  173SAPS   H3X19698   1.212   1.338   3.354 -1.6705  1.1325 -0.6607
  173SAPS   H3Y19699   1.230   1.204   3.226  0.6705 -0.8752  0.3882
  173SAPS   C3419700   1.175   1.141   3.421  0.5866  0.5695 -0.2581
  173SAPS   H4X19701   1.099   1.189   3.486  0.0938  1.4192 -1.4392
  173SAPS   H4Y19702   1.264   1.135   3.487 -1.3764  0.3010  2.5592
  173SAPS   C3519703   1.132   0.997   3.395  0.8409  0.1972  0.3286
  173SAPS   H5X19704   1.171   0.970   3.295 -1.4091 -1.5283 -0.1690
  173SAPS   H5Y19705   1.021   1.005   3.395  0.6848 -1.5790  0.6273
  173SAPS   C3619706   1.168   0.896   3.501 -0.0979 -0.5079  0.4178
  173SAPS   H6X19707   1.279   0.895   3.499 -0.0259  2.0263 -1.7211
  173SAPS   H6Y19708   1.129   0.794   3.479 -1.3085  0.1505 -0.6572
  173SAPS   C3719709   1.121   0.936   3.640  0.0080 -0.0282  0.1059
  173SAPS   H7X19710   1.010   0.941   3.639  0.0140  0.3725  0.9213
  173SAPS   H7Y19711   1.163   1.036   3.662 -1.0700  0.8215 -1.5570
  173SAPS   C3819712   1.170   0.839   3.746  1.0931 -0.3533  0.1975
  173SAPS   H8X19713   1.281   0.843   3.751  1.0635  0.0511  0.6591
  173SAPS   H8Y19714   1.134   0.737   3.721  1.1681 -0.1532 -0.7605
  173SAPS   C3919715   1.091   0.868   3.880 -0.4951  0.5974  0.1717
  173SAPS   H9X19716   0.980   0.869   3.873 -0.6157  0.0273  1.6139
  173SAPS   H9Y19717   1.131   0.969   3.906  0.5698 -0.0300  1.0436
  173SAPS  C31019718   1.148   0.792   4.005 -0.3468  0.7490  0.1636
  173SAPS  H10X19719   1.253   0.769   3.975 -0.3623  0.5968  0.2280
  173SAPS  H10Y19720   1.095   0.695   4.013  0.1181  0.3104 -1.5865
  173SAPS  C31119721   1.154   0.873   4.132 -0.7469 -0.3919 -0.5853
  173SAPS  H11X19722   1.173   0.982   4.121  1.6909 -0.3829  2.4148
  173SAPS  H11Y19723   1.241   0.836   4.190  0.3788  2.3301 -0.3955
  173SAPS  C31219724   1.033   0.851   4.218  0.2778  1.4371  0.4438
  173SAPS  H12X19725   1.015   0.741   4.220  2.7987  0.8188 -2.9355
  173SAPS  H12Y19726   0.948   0.897   4.163  0.0724  0.8255  0.2362
  173SAPS  C31319727   1.045   0.914   4.360  0.0481 -0.4005  0.6905
  173SAPS  H13X19728   0.947   0.910   4.413 -0.7041 -2.3158 -0.7409
  173SAPS  H13Y19729   1.087   1.015   4.342 -0.7159 -0.2145 -0.0985
  173SAPS  C31419730   1.133   0.817   4.454 -0.0990  0.0573  0.0187
  173SAPS  H14X19731   1.234   0.799   4.413  0.3548  1.2594  0.5496
  173SAPS  H14Y19732   1.084   0.717   4.453  1.7184 -0.8733 -1.2120
  173SAPS  C31519733   1.158   0.873   4.598  0.1630  0.1494  0.3574
  173SAPS  H15X19734   1.061   0.891   4.649  0.7327  0.9880  1.1838
  173SAPS  H15Y19735   1.209   0.971   4.581  1.8334 -1.0570 -2.1718
  173SAPS  C31619736   1.249   0.788   4.688 -0.4075  0.2183  0.0419
  173SAPS  H16X19737   1.271   0.830   4.789  1.8972  0.4419 -0.4998
  173SAPS  H16Y19738   1.345   0.784   4.633 -0.1764 -1.4511  0.4943
  173SAPS  C31719739   1.198   0.639   4.703  0.0734  0.1646  0.0487
  173SAPS  H17X19740   1.167   0.598   4.604  1.9196 -1.3559  0.0439
  173SAPS  H17Y19741   1.110   0.620   4.767 -0.2820 -0.3982 -0.5946
  173SAPS  C31819742   1.314   0.555   4.762 -0.5489 -0.8763  0.9135
  173SAPS  H18X19743   1.350   0.610   4.852 -1.3662  2.3182 -0.5504
  173SAPS  H18Y19744   1.398   0.548   4.690 -0.8488  3.6426 -0.2043
  173SAPS  H18Z19745   1.294   0.454   4.803  0.0234 -1.1732  0.4704
  174SAPS     N19746   1.457   4.462   3.093 -0.1202 -0.3184 -0.4210
  174SAPS   HN119747   1.518   4.485   3.175  1.7721 -0.7437 -1.6354
  174SAPS   HN219748   1.443   4.360   3.083  0.5644 -0.3434 -1.2577
  174SAPS   HN319749   1.512   4.507   3.016  1.0707  1.1568  1.1970
  174SAPS   C1219750   1.331   4.536   3.104 -0.1669 -0.1630 -0.0592
  174SAPS  H12A19751   1.360   4.636   3.133  0.3037 -0.6836  1.3609
  174SAPS   C1319752   1.247   4.546   2.975  0.2739 -0.8888  0.1748
  174SAPS  O13A19753   1.304   4.546   2.863 -0.1142 -0.3420  0.1430
  174SAPS  O13B19754   1.121   4.576   2.981  0.5990  0.0488  0.5419
  174SAPS   C1119755   1.241   4.493   3.225 -1.1128 -0.0687  0.2097
  174SAPS  H11A19756   1.211   4.387   3.216  0.2563 -0.5480  0.8907
  174SAPS  H11B19757   1.152   4.559   3.229 -1.5256 -0.5265 -1.2054
  174SAPS     P19758   1.314   4.600   3.453 -0.2827 -0.4465 -0.0237
  174SAPS   O1319759   1.371   4.560   3.584 -0.0105 -0.0157 -0.1121
  174SAPS   O1419760   1.383   4.709   3.377  0.4100 -0.5079  0.2691
  174SAPS   O1219761   1.306   4.479   3.351  0.4902  0.4817 -0.0864
  174SAPS   O1119762   1.162   4.649   3.473  0.2539 -0.1819  0.4789
  174SAPS    C119763   1.061   4.552   3.495 -0.0965 -1.4047  0.5562
  174SAPS    HA19764   0.981   4.561   3.418 -0.1355 -0.5591  0.6879
  174SAPS    HB19765   1.102   4.448   3.500  0.3056 -1.3269 -0.7336
  174SAPS    C219766   0.990   4.569   3.640  0.1972 -0.0860  0.4380
  174SAPS    HS19767   0.924   4.657   3.624 -1.4531 -1.8504 -3.9080
  174SAPS   O2119768   1.080   4.611   3.746  0.2210  0.3540 -0.5973
  174SAPS   C2119769   1.151   4.513   3.806  0.0667 -0.2363 -0.1957
  174SAPS   O2219770   1.169   4.403   3.765 -0.7689 -0.4896 -0.3451
  174SAPS   C2219771   1.215   4.571   3.936  0.0677  0.2723  0.4395
  174SAPS   H2R19772   1.300   4.504   3.962 -0.0977 -0.5332 -0.9385
  174SAPS   H2S19773   1.244   4.676   3.915  1.3017 -0.3139 -1.0604
  174SAPS    C319774   0.898   4.451   3.677 -0.1802  0.1770  0.4364
  174SAPS    HX19775   0.951   4.355   3.659  1.3624  1.2647 -1.1446
  174SAPS    HY19776   0.824   4.440   3.595 -0.9295  0.8188  1.0158
  174SAPS   O3119777   0.841   4.466   3.812 -0.2252  0.1916 -0.0896
  174SAPS   C3119778   0.747   4.559   3.825  0.5254  0.5147 -0.2349
  174SAPS   O3219779   0.704   4.642   3.750 -0.6494 -0.1739  0.1958
  174SAPS   C3219780   0.692   4.554   3.969  0.3561 -0.8432 -0.1558
  174SAPS   H2X19781   0.660   4.652   4.010 -0.4829 -1.7069  1.3578
  174SAPS   H2Y19782   0.773   4.524   4.039 -1.3018  0.2316  2.3461
  174SAPS   C2319783   1.113   4.570   4.051  0.1947  0.5700 -0.1823
  174SAPS   H3R19784   1.018   4.610   4.009  0.6763  1.1088 -0.7868
  174SAPS   H3S19785   1.148   4.648   4.122  0.7980  0.1409 -0.0040
  174SAPS   C2419786   1.094   4.435   4.123  0.6913  1.0362 -0.5948
  174SAPS   H4R19787   1.059   4.359   4.049 -1.1267  0.4725  0.7648
  174SAPS   H4S19788   1.004   4.449   4.186 -0.4157 -1.6819 -1.4083
  174SAPS   C2519789   1.206   4.379   4.201 -1.0064 -0.3759 -0.0902
  174SAPS   H5R19790   1.244   4.281   4.169  0.4795 -0.7041  2.4232
  174SAPS   C2619791   1.271   4.439   4.306 -0.3191  0.1819 -0.4564
  174SAPS   H6R19792   1.348   4.380   4.357  0.6813  1.5934 -0.2775
  174SAPS   C2719793   1.244   4.564   4.381  0.3274  0.1068 -0.0575
  174SAPS   H7R19794   1.162   4.627   4.340 -0.6444 -1.2931 -0.3786
  174SAPS   H7S19795   1.343   4.614   4.382 -0.1764  1.1770  2.4078
  174SAPS   C2819796   1.202   4.514   4.513  0.8214 -0.1545 -0.5354
  174SAPS   H8R19797   1.109   4.455   4.520  0.7514 -0.1832 -1.5159
  174SAPS   C2919798   1.278   4.526   4.623  0.8728  0.1185  0.9480
  174SAPS   H9R19799   1.235   4.489   4.717 -0.4542  0.1043  0.3595
  174SAPS  C21019800   1.418   4.581   4.634  0.0788 -0.1242  0.1621
  174SAPS  H10R19801   1.446   4.639   4.543  0.4533 -1.6492 -0.7291
  174SAPS  H10S19802   1.493   4.499   4.627  1.7169  1.3396 -0.2331
  174SAPS  C21119803   1.429   4.662   4.756  0.3454 -0.7418 -0.5452
  174SAPS  H11R19804   1.445   4.769   4.736 -0.4643 -0.4696  0.2147
  174SAPS  C21219805   1.435   4.606   4.880 -0.1718  1.0377  0.5462
  174SAPS  H12R19806   1.448   4.671   4.967 -0.9027  3.3327 -0.9724
  174SAPS  C21319807   1.447   4.455   4.896 -1.2477 -0.7647 -0.4752
  174SAPS  H13R19808   1.449   4.401   4.799  2.0543 -0.9411 -0.4216
  174SAPS  H13S19809   1.370   4.414   4.964  0.2504  0.1211  1.8857
  174SAPS  C21419810   1.590   4.445   4.951 -0.1325  0.8010 -0.1408
  174SAPS  H14R19811   1.668   4.484   4.884  0.8109  1.9731  1.5624
  174SAPS  C21519812   1.630   4.440   5.081  0.2085 -0.1888  0.1626
  174SAPS  H15R19813   1.737   4.457   5.101  0.0754  1.2409 -0.2150
  174SAPS  C21619814   1.538   4.428   5.202 -0.3095 -0.0606 -0.2590
  174SAPS  H16R19815   1.584   4.350   5.267 -0.7250 -0.0160  0.0945
  174SAPS  H16S19816   1.434   4.393   5.182 -1.4784  0.9341  3.2938
  174SAPS  C21719817   1.530   4.554   5.284  1.0828 -0.7225 -0.3104
  174SAPS  H17R19818   1.485   4.536   5.384  2.3662 -0.7311  0.2926
  174SAPS  H17S19819   1.465   4.625   5.230  0.6642 -1.5819 -0.9639
  174SAPS  C21819820   1.658   4.630   5.305 -0.3144  0.0447 -0.0134
  174SAPS  H18R19821   1.684   4.653   5.200 -1.6955 -4.0342 -1.4340
  174SAPS  H18S19822   1.738   4.561   5.339 -1.3082 -2.0356 -1.7142
  174SAPS  C21919823   1.642   4.761   5.389 -0.6142  0.4931  0.2260
  174SAPS  H19R19824   1.742   4.801   5.415  0.3685 -2.6829  1.8585
  174SAPS  H19S19825   1.603   4.729   5.488  2.7524 -3.4557  0.5445
  174SAPS  C22019826   1.563   4.878   5.329  0.3842 -0.2021  0.6367
  174SAPS  H20R19827   1.586   4.915   5.227 -0.4414 -0.2870  0.4152
  174SAPS  H20S19828   1.551   4.961   5.402 -1.0539  1.3280 -1.2121
  174SAPS  H20T19829   1.461   4.836   5.337  0.6498 -0.5453  2.6669
  174SAPS   C3319830   0.575   4.457   3.974  0.2966  1.2244  1.0898
  174SAPS   H3X19831   0.495   4.500   3.910  0.1589 -3.0886 -2.1729
  174SAPS   H3Y19832   0.534   4.462   4.077 -2.3424 -0.1025  0.2089
  174SAPS   C3419833   0.594   4.307   3.947  0.5994  0.9215  0.1293
  174SAPS   H4X19834   0.589   4.278   3.839  1.6874 -0.9012  0.5281
  174SAPS   H4Y19835   0.511   4.247   3.990  1.2075  1.7849  2.6485
  174SAPS   C3519836   0.724   4.255   4.016 -0.3770  0.1561  0.2187
  174SAPS   H5X19837   0.817   4.311   3.994 -0.8148  1.0333  0.5465
  174SAPS   H5Y19838   0.737   4.150   3.983  0.5156  0.4328 -0.3226
  174SAPS   C3619839   0.713   4.271   4.171 -0.4584 -0.0116 -0.2800
  174SAPS   H6X19840   0.607   4.251   4.197 -0.4050  1.5579  1.3044
  174SAPS   H6Y19841   0.715   4.379   4.194 -1.0436 -0.1707  0.5621
  174SAPS   C3719842   0.810   4.189   4.260 -1.0725  0.4791  0.3289
  174SAPS   H7X19843   0.908   4.215   4.215 -1.7613 -0.8768 -2.0725
  174SAPS   H7Y19844   0.795   4.081   4.240 -2.3176  0.5773  0.6396
  174SAPS   C3819845   0.786   4.227   4.408 -0.2314 -0.4888  0.0097
  174SAPS   H8X19846   0.681   4.201   4.433  0.0430 -0.3263  1.4334
  174SAPS   H8Y19847   0.812   4.332   4.432 -0.4543 -0.5819  0.6706
  174SAPS   C3919848   0.879   4.151   4.504  0.1979  0.3843  0.4270
  174SAPS   H9X19849   0.981   4.155   4.459 -0.2522  2.0627 -0.5123
  174SAPS   H9Y19850   0.846   4.045   4.505  2.4475 -0.3639  0.7050
  174SAPS  C31019851   0.868   4.204   4.643  0.3988  0.3410 -0.4216
  174SAPS  H10X19852   0.769   4.185   4.690  0.8623 -1.4538 -0.1284
  174SAPS  H10Y19853   0.881   4.315   4.643  0.6236  0.3177  0.0219
  174SAPS  C31119854   0.975   4.146   4.738  0.8636  0.4238  0.5247
  174SAPS  H11X19855   1.071   4.149   4.683  0.7614 -2.1928  0.1174
  174SAPS  H11Y19856   0.958   4.039   4.761 -1.1127  1.0831  2.5824
  174SAPS  C31219857   0.987   4.213   4.873  0.0102  0.0674  0.5823
  174SAPS  H12X19858   0.887   4.221   4.921 -0.9320  2.0543 -1.5453
  174SAPS  H12Y19859   1.031   4.314   4.861 -1.0215  0.2062 -3.3348
  174SAPS  C31319860   1.085   4.132   4.970  0.0163 -0.1922  0.0475
  174SAPS  H13X19861   1.182   4.096   4.930 -0.2920 -0.8750 -0.1006
  174SAPS  H13Y19862   1.033   4.039   5.003 -1.4475  1.2207  1.9726
  174SAPS  C31419863   1.118   4.208   5.098  0.1028  0.5406  0.1321
  174SAPS  H14X19864   1.015   4.220   5.140 -1.4750 -1.0057 -2.9803
  174SAPS  H14Y19865   1.166   4.306   5.078  0.0004  1.0564  2.1693
  174SAPS  C31519866   1.209   4.141   5.206 -0.3445 -0.4043  0.5512
  174SAPS  H15X19867   1.223   4.204   5.296 -0.8922  3.7462 -1.9667
  174SAPS  H15Y19868   1.312   4.130   5.167 -0.1419  2.4699  0.0847
  174SAPS  C31619869   1.158   4.004   5.248  0.1826 -0.3712  0.4042
  174SAPS  H16X19870   1.144   3.932   5.165 -1.2259 -0.9891  1.1431
  174SAPS  H16Y19871   1.057   4.031   5.286 -0.1095  0.1676 -0.7161
  174SAPS  C31719872   1.247   3.928   5.352 -0.6591  0.6572  0.3578
  174SAPS  H17X19873   1.241   3.997   5.439 -1.4240  0.6997  0.2809
  174SAPS  H17Y19874   1.348   3.922   5.307  0.3289  1.1613  2.3876
  174SAPS  C31819875   1.207   3.781   5.386 -0.2076 -0.0961 -0.5296
  174SAPS  H18X19876   1.122   3.784   5.458  1.5521  2.2000  1.6372
  174SAPS  H18Y19877   1.292   3.718   5.419 -0.1218  0.3757  0.1651
  174SAPS  H18Z19878   1.176   3.723   5.296 -2.3666 -1.7574  1.1733
  175SAPS     N19879   5.566   1.449   2.746 -0.0256  0.3860  0.1900
  175SAPS   HN119880   5.466   1.432   2.770  0.3626 -0.6750  1.1582
  175SAPS   HN219881   5.582   1.544   2.785 -1.1562 -0.0369  1.7467
  175SAPS   HN319882   5.568   1.452   2.642  1.9916 -0.0479  0.1745
  175SAPS   C1219883   5.672   1.353   2.799  0.2229  0.1897 -0.6047
  175SAPS  H12A19884   5.645   1.341   2.902 -0.5073 -0.6499 -0.8848
  175SAPS   C1319885   5.672   1.207   2.737 -0.3257 -1.0712 -0.3633
  175SAPS  O13A19886   5.591   1.189   2.639 -0.4457 -0.3157 -0.4721
  175SAPS  O13B19887   5.778   1.140   2.751  0.8431 -0.4115  0.0541
  175SAPS   C1119888   5.809   1.416   2.787 -0.2757  0.1134 -0.4984
  175SAPS  H11A19889   5.827   1.414   2.677 -0.7009 -0.9040 -0.5613
  175SAPS  H11B19890   5.889   1.355   2.835  0.0832  0.7174 -0.3183
  175SAPS     P19891   5.860   1.587   2.985  0.1683  0.2321  0.2873
  175SAPS   O1319892   6.001   1.553   2.997  0.4950 -0.0439  0.3404
  175SAPS   O1419893   5.819   1.728   3.015 -0.0030  0.8065 -0.1460
  175SAPS   O1219894   5.817   1.551   2.832 -0.6855 -0.2184 -0.3262
  175SAPS   O1119895   5.772   1.487   3.069  0.1310  0.3420  0.3335
  175SAPS    C119896   5.640   1.520   3.122 -0.0932 -0.2797 -0.1797
  175SAPS    HA19897   5.598   1.607   3.066  1.7350 -0.4858 -2.0087
  175SAPS    HB19898   5.579   1.430   3.101 -2.1301  0.8859  0.4703
  175SAPS    C219899   5.631   1.545   3.276  0.1641  0.6145  0.2068
  175SAPS    HS19900   5.529   1.573   3.311  1.4513  2.2035  3.0325
  175SAPS   O2119901   5.722   1.648   3.304  0.5884  0.6776 -0.1878
  175SAPS   C2119902   5.682   1.762   3.270  0.0002  0.4428 -0.8084
  175SAPS   O2219903   5.569   1.788   3.229 -0.2428  0.5485 -0.0478
  175SAPS   C2219904   5.794   1.862   3.300  0.1232 -0.0277  1.0011
  175SAPS   H2R19905   5.830   1.841   3.403  1.0175 -1.2633  0.4604
  175SAPS   H2S19906   5.872   1.839   3.225 -1.3568 -0.8700 -0.3350
  175SAPS    C319907   5.674   1.418   3.345  0.3932  0.8482 -0.3997
  175SAPS    HX19908   5.773   1.382   3.312  1.6433  0.0481  3.6751
  175SAPS    HY19909   5.599   1.338   3.326  0.7161  0.3650  0.3333
  175SAPS   O3119910   5.688   1.437   3.485  0.7555  0.3223 -0.3113
  175SAPS   C3119911   5.572   1.429   3.550 -0.4924 -0.4147  0.3960
  175SAPS   O3219912   5.463   1.409   3.499 -0.2768 -0.1313  0.0915
  175SAPS   C3219913   5.601   1.475   3.694  0.8841 -0.2257  0.2026
  175SAPS   H2X19914   5.621   1.584   3.702  1.6835 -0.3335 -0.2840
  175SAPS   H2Y19915   5.690   1.417   3.727  0.8264 -1.1746 -1.2346
  175SAPS   C2319916   5.733   2.009   3.299  0.4426 -0.1546 -0.1126
  175SAPS   H3R19917   5.675   2.013   3.205 -1.8472  0.0038  1.2230
  175SAPS   H3S19918   5.814   2.084   3.289  1.6608 -1.4200 -0.0357
  175SAPS   C2419919   5.660   2.036   3.431  0.0871  0.0484 -0.6585
  175SAPS   H4R19920   5.733   2.045   3.514 -0.0926  1.3534 -0.6151
  175SAPS   H4S19921   5.593   1.948   3.437  0.6446 -0.5414 -2.3197
  175SAPS   C2519922   5.586   2.164   3.423 -0.4116  0.1544  0.4433
  175SAPS   H5R19923   5.497   2.164   3.358  1.0093  1.8887 -1.6811
  175SAPS   C2619924   5.608   2.274   3.497 -0.2207 -0.3666 -0.0570
  175SAPS   H6R19925   5.533   2.355   3.494 -0.6899 -0.7057  1.6169
  175SAPS   C2719926   5.728   2.288   3.593  0.2625  0.3623  0.1998
  175SAPS   H7R19927   5.818   2.250   3.541 -1.2902 -2.2577 -0.7551
  175SAPS   H7S19928   5.713   2.227   3.685  0.1675  1.5033  0.9729
  175SAPS   C2819929   5.754   2.425   3.650  0.5146  0.3265 -0.2858
  175SAPS   H8R19930   5.749   2.510   3.580 -1.5246  1.4916  1.1588
  175SAPS   C2919931   5.783   2.466   3.778 -0.0410  0.1957 -0.0956
  175SAPS   H9R19932   5.795   2.572   3.802  1.0412 -0.1879  1.2441
  175SAPS  C21019933   5.795   2.374   3.892  0.0392 -0.2118 -1.0986
  175SAPS  H10R19934   5.759   2.271   3.874 -2.2309  0.1492  0.9831
  175SAPS  H10S19935   5.718   2.406   3.966  1.6866 -0.2630  0.7303
  175SAPS  C21119936   5.927   2.372   3.960 -0.7279  0.2249 -0.2945
  175SAPS  H11R19937   6.013   2.387   3.892 -1.4453  0.4813 -1.1776
  175SAPS  C21219938   5.950   2.342   4.088  0.3346  0.6644 -0.3306
  175SAPS  H12R19939   6.050   2.344   4.135  0.3658  1.2790 -0.4166
  175SAPS  C21319940   5.844   2.311   4.194 -0.3386 -0.4450 -0.5075
  175SAPS  H13R19941   5.751   2.272   4.149  0.8582 -2.0514 -1.7334
  175SAPS  H13S19942   5.839   2.400   4.259 -1.1543 -0.6430 -0.2943
  175SAPS  C21419943   5.899   2.201   4.284 -0.2768  0.6873  0.1683
  175SAPS  H14R19944   5.946   2.124   4.222 -0.1051  0.5063  0.5182
  175SAPS  C21519945   5.884   2.178   4.416 -0.0438 -0.2050  0.5663
  175SAPS  H15R19946   5.927   2.085   4.457  2.3858  0.1317 -1.0393
  175SAPS  C21619947   5.794   2.266   4.504 -0.3344  0.0918  0.2817
  175SAPS  H16R19948   5.709   2.203   4.536 -1.6816  0.6313 -1.9987
  175SAPS  H16S19949   5.739   2.344   4.446 -2.0555 -1.4562 -0.2621
  175SAPS  C21719950   5.871   2.345   4.622 -1.0716  0.1410  0.0006
  175SAPS  H17R19951   5.810   2.421   4.673  0.1596  1.3306 -0.2313
  175SAPS  H17S19952   5.956   2.401   4.577  1.0916  0.1847  3.7285
  175SAPS  C21819953   5.941   2.240   4.717  0.9961 -0.0285 -0.5757
  175SAPS  H18R19954   6.013   2.179   4.658 -0.2914  0.4448 -2.7528
  175SAPS  H18S19955   5.868   2.166   4.759  1.5254  0.5099  1.3762
  175SAPS  C21919956   6.003   2.300   4.842 -0.6872 -0.7161  0.6616
  175SAPS  H19R19957   6.070   2.383   4.810 -1.4089  0.0421  1.0730
  175SAPS  H19S19958   6.065   2.217   4.882  0.1294 -1.0678 -1.2227
  175SAPS  C22019959   5.897   2.341   4.943  0.1155  0.7717  0.8170
  175SAPS  H20R19960   5.942   2.392   5.031 -0.8197  2.7802  0.2109
  175SAPS  H20S19961   5.835   2.255   4.976 -0.4528 -0.2673 -2.6118
  175SAPS  H20T19962   5.825   2.416   4.902 -0.9477  0.0837  1.3742
  175SAPS   C3319963   5.472   1.458   3.788  0.4747  0.2401  0.0970
  175SAPS   H3X19964   5.460   1.348   3.798  0.2828  0.2405 -0.1234
  175SAPS   H3Y19965   5.375   1.495   3.749  1.0644  0.0421 -1.6591
  175SAPS   C3419966   5.498   1.531   3.921  0.1488 -0.0745 -0.0513
  175SAPS   H4X19967   5.493   1.641   3.907 -1.5707  0.0869  1.4285
  175SAPS   H4Y19968   5.601   1.506   3.952 -0.6996 -2.4045  1.1717
  175SAPS   C3519969   5.410   1.492   4.039 -0.5643  0.0093 -0.7255
  175SAPS   H5X19970   5.467   1.494   4.134  0.5535  2.4774 -1.3633
  175SAPS   H5Y19971   5.390   1.383   4.031  0.4210 -0.2427  0.0589
  175SAPS   C3619972   5.281   1.572   4.059  0.1681 -0.3978  0.1476
  175SAPS   H6X19973   5.218   1.528   3.979 -0.7637 -0.3069  0.8234
  175SAPS   H6Y19974   5.306   1.677   4.033 -0.1274 -0.6774 -1.3856
  175SAPS   C3719975   5.203   1.541   4.189  0.4399 -0.4590 -0.7946
  175SAPS   H7X19976   5.195   1.432   4.212 -0.0250 -0.2695 -0.0350
  175SAPS   H7Y19977   5.099   1.577   4.179  0.8014  1.8484  2.3367
  175SAPS   C3819978   5.269   1.588   4.319  0.1352 -0.0957 -0.4203
  175SAPS   H8X19979   5.283   1.697   4.303  0.3739 -0.1393 -0.5124
  175SAPS   H8Y19980   5.370   1.541   4.319  0.0177 -0.4252  1.5407
  175SAPS   C3919981   5.197   1.552   4.444  0.3113  0.1870 -0.1143
  175SAPS   H9X19982   5.161   1.447   4.448  0.2252  0.1336 -1.6216
  175SAPS   H9Y19983   5.111   1.621   4.459 -0.0764 -0.6181  1.6632
  175SAPS  C31019984   5.289   1.572   4.574  0.4492 -0.0060  0.6583
  175SAPS  H10X19985   5.282   1.681   4.594  0.1943  0.3414 -1.1329
  175SAPS  H10Y19986   5.394   1.550   4.545  0.1673 -0.5457  0.0265
  175SAPS  C31119987   5.237   1.482   4.690  0.9058  0.2215 -0.1838
  175SAPS  H11X19988   5.219   1.375   4.667  2.3810 -0.7204  2.5823
  175SAPS  H11Y19989   5.139   1.523   4.725  0.3963  0.0520 -1.3459
  175SAPS  C31219990   5.337   1.491   4.805  0.4725  0.1634 -0.1847
  175SAPS  H12X19991   5.376   1.594   4.816  0.6922  0.0058  0.5491
  175SAPS  H12Y19992   5.417   1.423   4.770 -0.1510  0.4296 -2.3052
  175SAPS  C31319993   5.279   1.453   4.943  0.3465 -0.1837 -0.2293
  175SAPS  H13X19994   5.198   1.378   4.933 -1.2250  1.3265  0.6848
  175SAPS  H13Y19995   5.237   1.537   5.001 -3.9617 -2.1872 -0.0498
  175SAPS  C31419996   5.376   1.369   5.016 -0.6292 -0.3532 -0.1323
  175SAPS  H14X19997   5.462   1.435   5.041  0.8588 -2.8588  1.8153
  175SAPS  H14Y19998   5.397   1.286   4.946  0.3946 -1.3028  1.2383
  175SAPS  C31519999   5.312   1.308   5.140  0.8518 -1.1432  0.5331
  175SAPS  H15X20000   5.221   1.246   5.129  2.7096 -4.2831  1.4301
  175SAPS  H15Y20001   5.285   1.393   5.206  1.2904  0.7635 -1.6467
  175SAPS  C31620002   5.407   1.216   5.222  0.1724  0.0231  0.4607
  175SAPS  H16X20003   5.494   1.282   5.247 -0.7507  1.0248  1.1135
  175SAPS  H16Y20004   5.448   1.138   5.155  0.3798  0.1237  0.4690
  175SAPS  C31720005   5.349   1.158   5.352  0.2246 -0.4288 -0.2644
  175SAPS  H17X20006   5.255   1.107   5.321  0.0503  0.0763 -0.5757
  175SAPS  H17Y20007   5.311   1.238   5.419  0.3651  2.1150 -3.0142
  175SAPS  C31820008   5.436   1.051   5.417 -0.0045 -0.1218  0.3137
  175SAPS  H18X20009   5.371   0.976   5.467 -0.1070 -0.6574 -0.6079
  175SAPS  H18Y20010   5.521   1.083   5.480 -2.0421  1.5462  2.4177
  175SAPS  H18Z20011   5.485   0.993   5.336 -0.0251  2.1461 -1.4206
  176SAPS     N20012   3.097   4.870   3.111 -0.5212 -0.2531 -0.3350
  176SAPS   HN120013   3.183   4.852   3.167  0.9851  2.2626 -1.6647
  176SAPS   HN220014   3.063   4.963   3.141 -1.1447  0.1040 -2.0619
  176SAPS   HN320015   3.028   4.796   3.136 -0.3059  0.0174  1.1472
  176SAPS   C1220016   3.123   4.875   2.968  0.1127  0.2700  0.0269
  176SAPS  H12A20017   3.138   4.770   2.950 -0.4017 -0.4002  2.8960
  176SAPS   C1320018   2.998   4.918   2.889  0.5470  0.2503  0.4457
  176SAPS  O13A20019   2.895   4.949   2.950 -0.1769  0.7269  0.0620
  176SAPS  O13B20020   3.003   4.934   2.761 -0.3160  0.3791  0.1952
  176SAPS   C1120021   3.246   4.959   2.933  0.3804 -0.2225 -0.2167
  176SAPS  H11A20022   3.239   5.066   2.962  0.3983 -0.2716 -0.0328
  176SAPS  H11B20023   3.252   4.964   2.822 -0.6764  0.5979 -0.2543
  176SAPS     P20024   3.462   4.990   3.071  0.2275 -0.0371 -0.7867
  176SAPS   O1320025   3.596   4.926   3.084  0.4934  0.5401  0.1124
  176SAPS   O1420026   3.464   5.135   3.042 -0.1061  0.3432 -0.5203
  176SAPS   O1220027   3.368   4.905   2.978  0.2047  0.1792 -0.7648
  176SAPS   O1120028   3.386   4.970   3.211 -0.5569 -0.3061 -0.0548
  176SAPS    C120029   3.361   5.082   3.295  0.6398 -0.2040 -0.0753
  176SAPS    HA20030   3.339   5.169   3.230  0.7782  0.5258  0.8347
  176SAPS    HB20031   3.279   5.061   3.367  1.7825 -3.8571  0.3635
  176SAPS    C220032   3.484   5.119   3.387  0.2379  0.1077  0.4151
  176SAPS    HS20033   3.561   5.172   3.326 -1.1240  0.0119 -1.4914
  176SAPS   O2120034   3.542   4.997   3.432 -0.5177  0.3736  0.3997
  176SAPS   C2120035   3.667   5.007   3.476  0.8469 -0.2693 -0.3500
  176SAPS   O2220036   3.739   5.107   3.473 -0.3559 -0.2313 -0.5529
  176SAPS   C2220037   3.697   4.875   3.546 -0.3801  1.1206 -0.2843
  176SAPS   H2R20038   3.612   4.860   3.617  1.7242 -1.2936  1.9337
  176SAPS   H2S20039   3.691   4.790   3.474 -3.0717 -2.0026  3.1453
  176SAPS    C320040   3.440   5.220   3.496  0.6128  0.7124 -0.6722
  176SAPS    HX20041   3.402   5.310   3.444  1.1453  0.9253 -0.6900
  176SAPS    HY20042   3.531   5.254   3.550  0.9011  0.2656 -0.8661
  176SAPS   O3120043   3.332   5.163   3.575 -0.2017 -0.2485 -1.2010
  176SAPS   C3120044   3.371   5.125   3.698 -0.7215 -0.3118 -0.1531
  176SAPS   O3220045   3.490   5.126   3.728  0.3973  0.1797  0.1160
  176SAPS   C3220046   3.258   5.069   3.776  0.2382  0.6484  0.3254
  176SAPS   H2X20047   3.286   4.965   3.802 -0.2278  0.6530  0.8644
  176SAPS   H2Y20048   3.174   5.070   3.704  0.3296  0.9811  0.2218
  176SAPS   C2320049   3.827   4.873   3.624  0.0384 -0.3664 -0.7754
  176SAPS   H3R20050   3.914   4.924   3.577  0.5865  0.1875  0.7833
  176SAPS   H3S20051   3.864   4.768   3.632  0.7577 -0.0981 -0.4892
  176SAPS   C2420052   3.799   4.929   3.772  0.8898  0.2531 -0.0541
  176SAPS   H4R20053   3.748   5.027   3.756  1.6697  1.2758  2.9921
  176SAPS   H4S20054   3.895   4.949   3.825  0.2836 -0.3508  1.3423
  176SAPS   C2520055   3.719   4.830   3.861 -0.7847  0.1064  0.4816
  176SAPS   H5R20056   3.618   4.801   3.829  0.4003 -0.9942 -2.7370
  176SAPS   C2620057   3.766   4.778   3.977  0.4243  0.3493  1.0430
  176SAPS   H6R20058   3.697   4.702   4.016  0.0992  1.1714  2.1326
  176SAPS   C2720059   3.902   4.802   4.038  0.1757  0.3648  0.2973
  176SAPS   H7R20060   3.985   4.799   3.964  0.1214  2.5063  0.0690
  176SAPS   H7S20061   3.921   4.707   4.093  1.1695 -0.2683 -1.0875
  176SAPS   C2820062   3.914   4.928   4.117  0.6571 -0.1915 -0.1040
  176SAPS   H8R20063   3.893   5.018   4.058  1.7081 -0.9374 -1.6748
  176SAPS   C2920064   3.923   4.950   4.246 -0.2055  0.2059 -0.1232
  176SAPS   H9R20065   3.907   5.053   4.281 -2.4072 -0.5248  1.2910
  176SAPS  C21020066   3.951   4.841   4.347 -0.3930 -0.0218 -0.2059
  176SAPS  H10R20067   3.986   4.756   4.284 -0.1358 -0.0937  0.0338
  176SAPS  H10S20068   3.852   4.820   4.393 -0.5827 -1.9183 -1.3793
  176SAPS  C21120069   4.066   4.882   4.438  0.5814  0.6621 -0.1096
  176SAPS  H11R20070   4.158   4.908   4.385  1.6743 -1.3007  0.7138
  176SAPS  C21220071   4.067   4.865   4.569  0.1169 -0.0489 -0.0546
  176SAPS  H12R20072   4.161   4.902   4.612  0.2326 -0.0649 -0.2939
  176SAPS  C21320073   3.955   4.826   4.664  0.3862  0.2095  0.2593
  176SAPS  H13R20074   3.926   4.721   4.643 -0.8154  0.9038 -1.7850
  176SAPS  H13S20075   3.871   4.893   4.637  1.4183  0.9196 -1.3394
  176SAPS  C21420076   3.995   4.847   4.811 -0.0697  0.2043  0.2385
  176SAPS  H14R20077   4.094   4.892   4.821 -0.0599  0.1182  0.5447
  176SAPS  C21520078   3.927   4.825   4.923  0.6118 -0.2233  0.1589
  176SAPS  H15R20079   3.977   4.847   5.019 -0.0077  1.4473  0.1316
  176SAPS  C21620080   3.796   4.759   4.943  0.5126 -0.0026  0.1163
  176SAPS  H16R20081   3.755   4.747   4.841  1.9920  3.6269 -1.0394
  176SAPS  H16S20082   3.721   4.825   4.990  0.2991 -1.6841  2.3197
  176SAPS  C21720083   3.808   4.627   5.022 -0.4436 -0.4687 -0.6926
  176SAPS  H17R20084   3.904   4.577   5.001  0.3899  0.0931  1.4726
  176SAPS  H17S20085   3.727   4.555   4.997 -0.9515  0.5466 -2.0577
  176SAPS  C21820086   3.787   4.655   5.167 -0.3883 -0.1634 -0.5030
  176SAPS  H18R20087   3.820   4.758   5.192 -1.3566 -0.0877  0.5508
  176SAPS  H18S20088   3.856   4.593   5.228 -3.3219 -2.6988  0.5516
  176SAPS  C21920089   3.640   4.628   5.199 -0.2776  1.0050  0.9892
  176SAPS  H19R20090   3.630   4.517   5.197 -4.0983  1.2121  0.8936
  176SAPS  H19S20091   3.567   4.662   5.123  3.2154  0.9636 -2.6946
  176SAPS  C22020092   3.596   4.668   5.341 -0.8626 -0.0220  0.0468
  176SAPS  H20R20093   3.665   4.630   5.419 -0.0663  2.0407  0.4304
  176SAPS  H20S20094   3.490   4.638   5.352 -0.6511 -0.7099  0.2463
  176SAPS  H20T20095   3.609   4.779   5.344  0.4294 -0.1664  0.1400
  176SAPS   C3320096   3.232   5.165   3.897 -0.4509 -0.0464 -0.3016
  176SAPS   H3X20097   3.142   5.133   3.955 -0.0002  0.1204  0.5111
  176SAPS   H3Y20098   3.202   5.265   3.859  0.6209  1.5400  2.6875
  176SAPS   C3420099   3.344   5.163   4.003  0.1798  0.5778  0.0299
  176SAPS   H4X20100   3.316   5.247   4.069 -1.2181  0.0457  0.1312
  176SAPS   H4Y20101   3.447   5.180   3.963  0.1950 -0.7092 -0.5394
  176SAPS   C3520102   3.352   5.022   4.066 -0.2090 -0.4252  0.5229
  176SAPS   H5X20103   3.408   4.952   4.001  0.0004 -0.8684  1.1700
  176SAPS   H5Y20104   3.246   4.991   4.080 -0.9692  0.0600 -3.1153
  176SAPS   C3620105   3.423   5.031   4.205  0.3311 -0.3233  0.9019
  176SAPS   H6X20106   3.374   5.110   4.266  1.1001  0.9302 -0.0380
  176SAPS   H6Y20107   3.532   5.044   4.184 -0.0461 -0.7819 -1.7128
  176SAPS   C3720108   3.406   4.910   4.293  0.1194  0.2490  0.5725
  176SAPS   H7X20109   3.447   4.830   4.228 -0.6516  0.5562 -0.3059
  176SAPS   H7Y20110   3.297   4.895   4.310 -0.4353  2.7647 -0.2630
  176SAPS   C3820111   3.486   4.911   4.424  0.5619 -0.0880 -0.6699
  176SAPS   H8X20112   3.446   4.997   4.481 -0.3360 -0.3622 -0.8668
  176SAPS   H8Y20113   3.597   4.910   4.414  0.6396 -4.0519 -0.9305
  176SAPS   C3920114   3.457   4.786   4.509  0.4121  0.6026 -0.7427
  176SAPS   H9X20115   3.463   4.693   4.448 -2.6923 -1.2145  1.4080
  176SAPS   H9Y20116   3.351   4.795   4.542  1.0473  2.8396  0.9118
  176SAPS  C31020117   3.551   4.765   4.624  0.2702  0.5671  0.5847
  176SAPS  H10X20118   3.539   4.851   4.693 -1.9667 -0.1678  1.2045
  176SAPS  H10Y20119   3.654   4.759   4.584  0.4720  1.0104  1.0408
  176SAPS  C31120120   3.524   4.627   4.700  0.3634  0.8005 -0.5861
  176SAPS  H11X20121   3.424   4.585   4.677  1.1387  0.2876 -3.4982
  176SAPS  H11Y20122   3.530   4.645   4.809 -3.2117  3.4095 -0.6649
  176SAPS  C31220123   3.627   4.529   4.659 -0.0697  0.7709  0.3649
  176SAPS  H12X20124   3.732   4.566   4.672 -0.0399  1.1349 -0.8128
  176SAPS  H12Y20125   3.615   4.524   4.549  1.2263 -2.0614  0.2737
  176SAPS  C31320126   3.602   4.395   4.728  0.0813  0.2832  0.8472
  176SAPS  H13X20127   3.506   4.344   4.705 -0.3825  0.7288  1.7120
  176SAPS  H13Y20128   3.594   4.435   4.832 -0.4988  1.0020  0.5356
  176SAPS  C31420129   3.715   4.295   4.706 -0.5396 -0.0533  0.6315
  176SAPS  H14X20130   3.820   4.330   4.696  2.0957 -5.9429  2.9773
  176SAPS  H14Y20131   3.706   4.253   4.604  3.4584  1.2622 -0.4779
  176SAPS  C31520132   3.725   4.189   4.809  0.1579  0.1319  0.3226
  176SAPS  H15X20133   3.784   4.103   4.771  1.0150  0.2083  1.4249
  176SAPS  H15Y20134   3.622   4.147   4.806  0.7457 -1.2816 -0.9305
  176SAPS  C31620135   3.767   4.224   4.949  0.1597 -0.3641 -0.0888
  176SAPS  H16X20136   3.725   4.324   4.974  0.4779 -0.0861 -0.6443
  176SAPS  H16Y20137   3.877   4.240   4.953 -0.0181  0.9061  0.1257
  176SAPS  C31720138   3.743   4.110   5.049  0.4617  0.5122 -0.4408
  176SAPS  H17X20139   3.781   4.147   5.146  2.2691  1.1278 -1.3484
  176SAPS  H17Y20140   3.797   4.019   5.014 -0.8810 -0.7158  0.5338
  176SAPS  C31820141   3.587   4.094   5.072 -0.6254 -0.6154 -0.3562
  176SAPS  H18X20142   3.548   4.192   5.107  0.8290  0.2027 -0.9070
  176SAPS  H18Y20143   3.588   4.017   5.152 -0.4849  0.5850  0.8359
  176SAPS  H18Z20144   3.533   4.070   4.979 -1.6141  1.7583 -0.4813
  177SAPS     N20145   1.645   4.720   3.499 -0.0677  0.3020  0.0280
  177SAPS   HN120146   1.632   4.781   3.582 -0.9051  0.2712 -0.0678
  177SAPS   HN220147   1.714   4.763   3.434  0.3884 -1.3078 -0.6138
  177SAPS   HN320148   1.557   4.702   3.446 -0.6310  1.6217  0.4607
  177SAPS   C1220149   1.701   4.583   3.527  0.4487 -0.5970 -0.3259
  177SAPS  H12A20150   1.637   4.539   3.601  0.9936  2.4529  2.1565
  177SAPS   C1320151   1.692   4.495   3.395  0.2990 -0.0391  0.4339
  177SAPS  O13A20152   1.658   4.544   3.286  0.5412 -0.7108 -0.5161
  177SAPS  O13B20153   1.736   4.378   3.406  0.1529 -0.0428  0.2400
  177SAPS   C1120154   1.849   4.586   3.586 -0.2703 -0.3748  0.1911
  177SAPS  H11A20155   1.871   4.484   3.622 -0.0750  0.2084  1.8102
  177SAPS  H11B20156   1.847   4.659   3.670 -0.9658  0.1516 -0.2690
  177SAPS     P20157   2.099   4.635   3.498  0.7510 -0.2075  0.0389
  177SAPS   O1320158   2.138   4.495   3.511 -0.2379 -0.1862  0.7281
  177SAPS   O1420159   2.155   4.711   3.387 -0.7038 -0.4694  0.6321
  177SAPS   O1220160   1.941   4.640   3.491 -0.5387 -0.3528 -0.2140
  177SAPS   O1120161   2.136   4.707   3.635 -0.1776 -0.1119  0.2830
  177SAPS    C120162   2.232   4.665   3.729  0.4652 -0.0683 -0.0288
  177SAPS    HA20163   2.207   4.561   3.761 -1.1001  0.8273  1.8432
  177SAPS    HB20164   2.333   4.656   3.682  0.8685  3.0942  0.0366
  177SAPS    C220165   2.241   4.761   3.853 -0.4951 -0.5778 -0.2454
  177SAPS    HS20166   2.304   4.724   3.937  0.7901 -1.5339 -1.5981
  177SAPS   O2120167   2.107   4.795   3.902 -0.1593  0.0665  0.3496
  177SAPS   C2120168   2.045   4.682   3.952 -0.2058 -0.7113 -0.1404
  177SAPS   O2220169   2.085   4.568   3.954  0.5865 -0.0499 -0.1222
  177SAPS   C2220170   1.918   4.739   4.021  0.1231  0.7459 -0.7220
  177SAPS   H2R20171   1.884   4.666   4.097  0.1470  0.4941 -0.9538
  177SAPS   H2S20172   1.942   4.832   4.077  2.7151 -0.4455  0.2937
  177SAPS    C320173   2.300   4.895   3.810  0.4684 -0.1484  0.1722
  177SAPS    HX20174   2.243   4.922   3.718  1.0988 -0.0925 -0.2054
  177SAPS    HY20175   2.405   4.872   3.784  0.5741  0.7063 -0.1964
  177SAPS   O3120176   2.290   4.991   3.916  0.0443  0.1121  0.3502
  177SAPS   C3120177   2.330   5.111   3.875  0.1801  0.5356  0.5640
  177SAPS   O3220178   2.352   5.140   3.759  0.3569  0.3310 -0.9049
  177SAPS   C3220179   2.317   5.216   3.992  1.1102  0.6406  0.4783
  177SAPS   H2X20180   2.377   5.194   4.082  0.4513 -1.2553  0.4984
  177SAPS   H2Y20181   2.212   5.212   4.027  0.9455  2.1079  0.2201
  177SAPS   C2320182   1.804   4.762   3.921 -0.4826 -0.0030  0.5295
  177SAPS   H3R20183   1.770   4.662   3.887 -1.3967 -0.6065  2.9655
  177SAPS   H3S20184   1.844   4.825   3.839  1.8512 -1.0744  0.7761
  177SAPS   C2420185   1.684   4.835   3.982 -0.3197  0.3295  1.5858
  177SAPS   H4R20186   1.629   4.876   3.894  0.6131 -1.3625  0.1425
  177SAPS   H4S20187   1.730   4.924   4.028  2.4281 -0.6243  0.8734
  177SAPS   C2520188   1.613   4.746   4.083 -0.5330 -0.0432 -0.0546
  177SAPS   H5R20189   1.535   4.683   4.038 -1.7358  0.6706  0.9487
  177SAPS   C2620190   1.624   4.747   4.216 -0.0489 -0.0157  0.0998
  177SAPS   H6R20191   1.568   4.666   4.265  1.5302 -0.8223  0.6342
  177SAPS   C2720192   1.702   4.827   4.315  0.4800 -0.4640 -0.0921
  177SAPS   H7R20193   1.634   4.870   4.391  0.0769 -0.3642 -0.5087
  177SAPS   H7S20194   1.749   4.915   4.267 -1.2859  0.7103  0.2562
  177SAPS   C2820195   1.805   4.757   4.396  0.4290  0.5799 -0.0401
  177SAPS   H8R20196   1.758   4.673   4.450  1.1524 -0.3829 -0.8747
  177SAPS   C2920197   1.936   4.778   4.405 -0.1135  0.4751  0.1389
  177SAPS   H9R20198   1.994   4.709   4.468 -1.1997 -1.8700 -1.2980
  177SAPS  C21020199   2.016   4.885   4.338 -0.5788 -0.3459 -0.2091
  177SAPS  H10R20200   2.042   4.945   4.428  0.6745 -0.4042 -0.5115
  177SAPS  H10S20201   1.951   4.951   4.276  0.4479  0.1740 -0.7551
  177SAPS  C21120202   2.142   4.840   4.268  0.5688  0.2072  0.0568
  177SAPS  H11R20203   2.136   4.849   4.158  1.8115  1.1130  0.0389
  177SAPS  C21220204   2.262   4.830   4.321 -0.6973  0.6828  0.2413
  177SAPS  H12R20205   2.343   4.791   4.258 -0.7129  0.2876  0.4645
  177SAPS  C21320206   2.292   4.837   4.470 -0.4202 -0.4125 -0.3631
  177SAPS  H13R20207   2.373   4.765   4.492  1.0380  0.9628 -1.0157
  177SAPS  H13S20208   2.207   4.798   4.531 -0.2378 -0.8115 -0.3667
  177SAPS  C21420209   2.326   4.972   4.529 -0.5573 -0.1669 -0.3067
  177SAPS  H14R20210   2.333   5.049   4.450  0.4183 -2.6124 -2.7448
  177SAPS  C21520211   2.347   5.001   4.660  0.0998  0.1362 -0.6445
  177SAPS  H15R20212   2.373   5.106   4.683 -0.5891  0.2930 -0.5579
  177SAPS  C21620213   2.319   4.913   4.781  0.3685 -0.4587  0.1343
  177SAPS  H16R20214   2.257   4.829   4.740  2.1013 -0.9072 -1.7170
  177SAPS  H16S20215   2.273   4.971   4.863  0.5879 -0.4254  0.2338
  177SAPS  C21720216   2.443   4.838   4.834 -0.3234 -0.4161 -0.2789
  177SAPS  H17R20217   2.493   4.780   4.753  1.4827  0.1162  0.3919
  177SAPS  H17S20218   2.425   4.774   4.923  0.1828  0.3479  0.3808
  177SAPS  C21820219   2.550   4.942   4.885  0.1623  0.0043 -0.1703
  177SAPS  H18R20220   2.511   4.997   4.973 -0.3438 -0.6478  0.0204
  177SAPS  H18S20221   2.582   5.016   4.809 -1.0357  1.0216  0.2894
  177SAPS  C21920222   2.681   4.869   4.920 -0.1388  0.0516 -0.8106
  177SAPS  H19R20223   2.721   4.795   4.848  0.3043 -0.5407  0.0318
  177SAPS  H19S20224   2.643   4.809   5.006  0.3818 -0.9864 -1.3002
  177SAPS  C22020225   2.790   4.955   4.981 -0.4570 -0.5380 -0.1835
  177SAPS  H20R20226   2.763   4.996   5.081 -0.6906  2.2659 -1.3167
  177SAPS  H20S20227   2.826   5.035   4.912 -1.7650  1.1890  1.0606
  177SAPS  H20T20228   2.887   4.906   5.006 -0.1485 -0.0803 -0.4478
  177SAPS   C3320229   2.338   5.356   3.930 -0.6187  1.2513 -0.1017
  177SAPS   H3X20230   2.261   5.374   3.852 -0.5900  2.0995  0.0549
  177SAPS   H3Y20231   2.438   5.349   3.882 -0.0724 -1.6126  1.2202
  177SAPS   C3420232   2.328   5.460   4.038 -0.2645 -0.5678 -0.2361
  177SAPS   H4X20233   2.357   5.409   4.132 -1.0352 -1.0671 -0.2549
  177SAPS   H4Y20234   2.221   5.490   4.045 -0.4347 -1.5413  3.0977
  177SAPS   C3520235   2.408   5.589   4.009  0.4831  0.0671 -0.5232
  177SAPS   H5X20236   2.367   5.634   3.916 -0.8271 -0.1235 -0.0551
  177SAPS   H5Y20237   2.512   5.556   3.989  0.3047 -0.6016 -0.3635
  177SAPS   C3620238   2.396   5.697   4.112  0.2427  0.6059 -0.2239
  177SAPS   H6X20239   2.289   5.705   4.142  0.0255 -0.1816 -0.7797
  177SAPS   H6Y20240   2.429   5.790   4.060  0.6144  0.5987 -0.0033
  177SAPS   C3720241   2.491   5.689   4.236  0.0615  0.4684 -0.3242
  177SAPS   H7X20242   2.484   5.777   4.304  1.6113 -1.3684  2.4211
  177SAPS   H7Y20243   2.596   5.677   4.201  0.4394  1.3656  0.4658
  177SAPS   C3820244   2.473   5.570   4.335  0.1548  0.4738  0.3843
  177SAPS   H8X20245   2.508   5.473   4.294  0.3029  0.4887  0.4738
  177SAPS   H8Y20246   2.364   5.560   4.353  0.1298  0.4929  0.2487
  177SAPS   C3920247   2.551   5.595   4.462  0.0700 -0.7810  0.2341
  177SAPS   H9X20248   2.508   5.689   4.502  2.4975  1.0350 -1.1537
  177SAPS   H9Y20249   2.660   5.607   4.441  0.3173 -0.9274  1.3656
  177SAPS  C31020250   2.543   5.483   4.565  0.1919  0.6137  0.2935
  177SAPS  H10X20251   2.586   5.399   4.507 -3.1746 -0.8336 -0.3445
  177SAPS  H10Y20252   2.436   5.454   4.579 -0.0362  1.9601  1.6421
  177SAPS  C31120253   2.602   5.489   4.708  0.7741 -0.1957  0.2140
  177SAPS  H11X20254   2.543   5.562   4.768 -0.2913  0.6150 -1.7424
  177SAPS  H11Y20255   2.705   5.532   4.706  0.2327  1.1594  0.4477
  177SAPS  C31220256   2.610   5.348   4.763  0.1470  0.4874  0.2188
  177SAPS  H12X20257   2.696   5.302   4.709  0.7862  1.8721  0.0182
  177SAPS  H12Y20258   2.514   5.296   4.746 -2.0489  3.1014  3.3541
  177SAPS  C31320259   2.645   5.348   4.917  0.0887  0.4615  0.3311
  177SAPS  H13X20260   2.639   5.241   4.945 -0.5586 -0.2846 -2.3665
  177SAPS  H13Y20261   2.570   5.410   4.971  0.1840 -0.2985  1.3681
  177SAPS  C31420262   2.788   5.405   4.955  0.0360 -0.2867  0.3153
  177SAPS  H14X20263   2.792   5.513   4.929 -0.5783  0.2767  2.3436
  177SAPS  H14Y20264   2.863   5.356   4.890 -1.2219  0.2648 -1.6365
  177SAPS  C31520265   2.819   5.386   5.106 -0.5183  0.2704  0.3500
  177SAPS  H15X20266   2.764   5.301   5.151 -2.2546  1.1502  0.0180
  177SAPS  H15Y20267   2.780   5.469   5.169  0.6095 -0.2924  1.8347
  177SAPS  C31620268   2.970   5.378   5.127 -0.1944  0.2133  0.3077
  177SAPS  H16X20269   3.010   5.468   5.076  3.5064 -0.7924  1.1385
  177SAPS  H16Y20270   3.014   5.294   5.069 -0.0615 -0.3852  1.2506
  177SAPS  C31720271   3.017   5.376   5.270  0.5941  0.1474  0.3181
  177SAPS  H17X20272   3.123   5.352   5.248  0.8196  1.4160 -0.0436
  177SAPS  H17Y20273   2.972   5.292   5.327  1.6698 -1.7256 -1.4476
  177SAPS  C31820274   3.001   5.511   5.341  0.2487  0.3064 -0.0794
  177SAPS  H18X20275   2.893   5.535   5.355  0.2033  0.4252 -0.5823
  177SAPS  H18Y20276   3.044   5.598   5.288 -0.6288  0.6832 -0.1853
  177SAPS  H18Z20277   3.053   5.504   5.438 -0.9694 -0.2342  0.5538
  178SAPS     N20278   0.045   2.493   3.206 -0.7348  0.5909  0.2436
  178SAPS   HN120279   0.005   2.455   3.118  0.1198 -1.1133  0.5455
  178SAPS   HN220280   0.141   2.463   3.231 -0.5574 -2.2862 -3.0605
  178SAPS   HN320281  -0.021   2.472   3.283 -0.7145  1.8657  0.6212
  178SAPS   C1220282   0.041   2.640   3.183  0.4679 -0.3764 -0.7220
  178SAPS  H12A20283   0.085   2.666   3.088 -1.1910  1.7697 -0.9799
  178SAPS   C1320284  -0.103   2.690   3.186  0.3477  0.6295  0.6005
  178SAPS  O13A20285  -0.195   2.604   3.197  0.3807 -0.2694 -1.0660
  178SAPS  O13B20286  -0.131   2.811   3.163  0.0068  0.3932  0.6977
  178SAPS   C1120287   0.126   2.711   3.299 -0.2103 -0.4713  0.6779
  178SAPS  H11A20288   0.093   2.816   3.283  0.1825 -0.8758 -4.3603
  178SAPS  H11B20289   0.231   2.706   3.266  0.0457 -0.6867  1.5012
  178SAPS     P20290   0.203   2.591   3.515 -0.4183  0.0240  0.0969
  178SAPS   O1320291   0.140   2.569   3.648 -0.0821  0.0532 -0.3031
  178SAPS   O1420292   0.250   2.470   3.441 -0.4561 -0.3038 -0.5803
  178SAPS   O1220293   0.090   2.665   3.429 -0.3873 -0.2919  0.0016
  178SAPS   O1120294   0.319   2.695   3.527 -0.3820 -0.5003  0.1133
  178SAPS    C120295   0.462   2.656   3.520 -0.6292 -0.0255  0.3527
  178SAPS    HA20296   0.475   2.564   3.460  1.0717  2.1147 -2.8704
  178SAPS    HB20297   0.507   2.732   3.452 -2.9661  1.5352  0.4194
  178SAPS    C220298   0.539   2.657   3.662  0.1040  0.7443 -0.1284
  178SAPS    HS20299   0.639   2.615   3.640 -0.1808 -1.1300  1.8068
  178SAPS   O2120300   0.468   2.567   3.746  0.0708 -0.1406  0.1824
  178SAPS   C2120301   0.506   2.437   3.735 -0.0688 -0.2390  0.3486
  178SAPS   O2220302   0.574   2.398   3.642  0.0819 -0.1889  0.1497
  178SAPS   C2220303   0.436   2.361   3.845 -0.7981 -0.2594  0.1146
  178SAPS   H2R20304   0.510   2.339   3.925 -0.0133 -1.4243 -0.9036
  178SAPS   H2S20305   0.349   2.420   3.881  1.5190  2.3287  1.9688
  178SAPS    C320306   0.560   2.800   3.720  0.2607 -0.7334  0.2359
  178SAPS    HX20307   0.480   2.872   3.691 -0.6973 -2.2892 -1.1990
  178SAPS    HY20308   0.650   2.851   3.679  0.3829 -1.3027 -0.2190
  178SAPS   O3120309   0.574   2.781   3.859 -0.3833  0.3286 -0.6066
  178SAPS   C3120310   0.686   2.717   3.907 -0.0509  0.1145  0.1228
  178SAPS   O3220311   0.791   2.694   3.843  0.3021 -0.0748  0.1967
  178SAPS   C3220312   0.673   2.679   4.052  0.3210  0.0084  0.0767
  178SAPS   H2X20313   0.587   2.610   4.067  0.4806 -0.5826 -1.5502
  178SAPS   H2Y20314   0.631   2.774   4.092  1.9401  0.6563  0.2983
  178SAPS   C2320315   0.378   2.223   3.803  0.3639 -0.1884  0.2249
  178SAPS   H3R20316   0.462   2.163   3.761  0.1632  0.6779 -1.5440
  178SAPS   H3S20317   0.306   2.236   3.719 -0.7425  0.5598  1.2585
  178SAPS   C2420318   0.280   2.175   3.914 -0.2991 -0.1144 -0.1520
  178SAPS   H4R20319   0.176   2.198   3.883 -0.7307 -2.3831 -0.5807
  178SAPS   H4S20320   0.289   2.231   4.009 -0.3459 -0.3087 -0.0322
  178SAPS   C2520321   0.295   2.029   3.932  0.5668 -0.0361  0.2012
  178SAPS   H5R20322   0.271   1.967   3.844 -0.2775 -0.0460  0.4334
  178SAPS   C2620323   0.318   1.967   4.049  0.3529  0.1570 -0.2270
  178SAPS   H6R20324   0.319   1.858   4.050 -1.8621  0.0558 -1.3379
  178SAPS   C2720325   0.327   2.019   4.193  0.3982  0.2539 -0.5682
  178SAPS   H7R20326   0.279   2.118   4.205  0.2087  0.0700  0.2784
  178SAPS   H7S20327   0.434   2.033   4.222  0.2685 -0.1654  0.1325
  178SAPS   C2820328   0.261   1.930   4.293  0.5257  1.2452 -0.4694
  178SAPS   H8R20329   0.259   1.822   4.274  0.0340  0.7653  1.9858
  178SAPS   C2920330   0.210   1.973   4.411 -0.5170  1.1609 -0.4755
  178SAPS   H9R20331   0.174   1.897   4.482 -1.1765 -0.1589 -2.1644
  178SAPS  C21020332   0.235   2.113   4.470  0.7365  0.3722  0.1673
  178SAPS  H10R20333   0.309   2.166   4.406 -0.2061 -0.5523 -1.7918
  178SAPS  H10S20334   0.276   2.104   4.572  3.2874  1.0847 -0.7109
  178SAPS  C21120335   0.101   2.172   4.450  0.3287 -0.5908  0.1703
  178SAPS  H11R20336   0.071   2.178   4.345 -1.3726 -0.7725  0.6096
  178SAPS  C21220337   0.028   2.240   4.538  0.0866 -0.3943 -0.3368
  178SAPS  H12R20338  -0.059   2.294   4.500  1.1229  1.3120 -0.3802
  178SAPS  C21320339   0.073   2.263   4.680 -0.1084 -0.2725  0.2739
  178SAPS  H13R20340   0.034   2.361   4.717 -0.8453 -1.4709  2.9235
  178SAPS  H13S20341   0.183   2.276   4.686 -0.3263  1.4702  1.1457
  178SAPS  C21420342   0.030   2.150   4.772 -0.6450  0.8081  0.0667
  178SAPS  H14R20343  -0.003   2.055   4.728  0.9998 -0.1947  0.9370
  178SAPS  C21520344   0.052   2.152   4.903 -0.1225  0.0238 -1.0789
  178SAPS  H15R20345   0.016   2.066   4.960 -1.2985  2.9565  3.0480
  178SAPS  C21620346   0.102   2.271   4.990 -0.2267 -0.0867  0.7344
  178SAPS  H16R20347   0.157   2.347   4.930  0.4673 -1.5028 -0.5075
  178SAPS  H16S20348   0.185   2.238   5.056  1.2772  0.5683 -0.7596
  178SAPS  C21720349  -0.010   2.339   5.066 -0.0026  0.5362 -0.1380
  178SAPS  H17R20350  -0.075   2.264   5.114  2.1596 -0.3052  1.6361
  178SAPS  H17S20351  -0.073   2.394   4.992 -0.3209 -0.4437 -0.6019
  178SAPS  C21820352   0.059   2.438   5.168  0.1224  0.3414 -0.1384
  178SAPS  H18R20353   0.093   2.529   5.115  1.9959 -0.1252  0.1818
  178SAPS  H18S20354   0.149   2.396   5.218 -0.3893  0.0379  0.5420
  178SAPS  C21920355  -0.039   2.478   5.285 -0.1332 -0.3288 -0.1719
  178SAPS  H19R20356  -0.054   2.397   5.359 -1.0885 -0.5470 -0.5915
  178SAPS  H19S20357  -0.137   2.504   5.239  0.2242  2.5741  0.5022
  178SAPS  C22020358   0.001   2.596   5.373 -0.2922 -0.6554 -0.0311
  178SAPS  H20R20359   0.003   2.695   5.322 -0.3539 -1.5478 -1.8795
  178SAPS  H20S20360   0.106   2.576   5.404  0.3664 -0.2278 -1.8624
  178SAPS  H20T20361  -0.054   2.608   5.468  1.5249  2.4754  0.7802
  178SAPS   C3320362   0.812   2.647   4.109  0.0200  0.1478 -0.7456
  178SAPS   H3X20363   0.883   2.719   4.063 -0.3977 -0.1868 -1.9523
  178SAPS   H3Y20364   0.845   2.543   4.090 -2.0945 -0.7352  0.1128
  178SAPS   C3420365   0.834   2.688   4.251  0.6467  0.6149 -0.3852
  178SAPS   H4X20366   0.748   2.656   4.313  0.0549  2.8155 -0.0060
  178SAPS   H4Y20367   0.828   2.799   4.251 -0.2941  0.5828  0.6508
  178SAPS   C3520368   0.962   2.642   4.320 -0.7018 -0.2648  0.2535
  178SAPS   H5X20369   1.050   2.677   4.262 -1.0564 -0.3746 -0.3696
  178SAPS   H5Y20370   0.960   2.531   4.315 -1.0144 -0.4659  3.1601
  178SAPS   C3620371   0.969   2.676   4.470 -0.9424  0.7885 -0.4515
  178SAPS   H6X20372   0.964   2.786   4.484  1.4039  0.8779  0.0285
  178SAPS   H6Y20373   1.061   2.626   4.505 -1.3625 -0.5019 -1.1021
  178SAPS   C3720374   0.866   2.615   4.566 -0.0033  0.4323 -0.1071
  178SAPS   H7X20375   0.844   2.512   4.531 -0.6608  0.3687  0.4529
  178SAPS   H7Y20376   0.772   2.674   4.558  0.2858  0.9388  0.1800
  178SAPS   C3820377   0.914   2.614   4.712 -0.6027 -0.0179 -0.2517
  178SAPS   H8X20378   1.012   2.563   4.723 -0.1759  1.1437  1.7687
  178SAPS   H8Y20379   0.849   2.550   4.776  2.2352 -0.6742  2.1985
  178SAPS   C3920380   0.920   2.752   4.783 -0.2647  0.2407  0.0616
  178SAPS   H9X20381   0.824   2.804   4.760 -1.3708 -1.3460  0.8482
  178SAPS   H9Y20382   1.000   2.809   4.732  0.2759  2.8227  3.4832
  178SAPS  C31020383   0.941   2.732   4.935 -0.4382 -0.8939  0.1069
  178SAPS  H10X20384   1.050   2.722   4.950 -0.3074  1.3127  1.1789
  178SAPS  H10Y20385   0.898   2.635   4.969  1.6165 -1.5550  0.9731
  178SAPS  C31120386   0.887   2.847   5.023 -0.0098 -0.1327  0.1926
  178SAPS  H11X20387   0.777   2.857   5.021  0.0035  0.7813 -3.4753
  178SAPS  H11Y20388   0.930   2.946   4.993  0.9683 -0.3124  0.9332
  178SAPS  C31220389   0.924   2.818   5.171  0.0184 -0.5620  0.0920
  178SAPS  H12X20390   1.034   2.805   5.182 -0.4438 -4.9729  0.9411
  178SAPS  H12Y20391   0.887   2.717   5.194  0.5141 -0.7257  0.1847
  178SAPS  C31320392   0.860   2.920   5.277  0.5608 -0.5310  0.8220
  178SAPS  H13X20393   0.753   2.948   5.261  0.8634 -0.1799 -0.7129
  178SAPS  H13Y20394   0.918   3.012   5.259 -0.3536 -0.0407  0.3011
  178SAPS  C31420395   0.874   2.887   5.427  0.2345  0.4834 -0.0371
  178SAPS  H14X20396   0.830   2.788   5.453  1.3209  0.6475  2.8363
  178SAPS  H14Y20397   0.813   2.960   5.483  0.7811  0.7254  0.2579
  178SAPS  C31520398   1.025   2.898   5.471 -0.3753 -0.0635 -0.8152
  178SAPS  H15X20399   1.081   2.983   5.426 -0.5103  0.0719 -0.7286
  178SAPS  H15Y20400   1.069   2.800   5.444  1.2186 -0.6030  3.0838
  178SAPS  C31620401   1.044   2.924   5.627 -1.1678 -0.6468  0.5779
  178SAPS  H16X20402   0.983   2.851   5.684 -0.1671 -1.3146  0.8152
  178SAPS  H16Y20403   0.997   3.022   5.650  1.0202  0.8698 -1.0825
  178SAPS  C31720404   1.191   2.941   5.670  0.4304 -0.3735 -0.1271
  178SAPS  H17X20405   1.224   3.043   5.640  0.3123 -0.0795  0.7112
  178SAPS  H17Y20406   1.254   2.870   5.613  2.3661 -0.6844  2.2257
  178SAPS  C31820407   1.210   2.939   5.820  0.2041 -0.4074 -0.3212
  178SAPS  H18X20408   1.167   3.031   5.867  2.5254 -0.6636  2.6494
  178SAPS  H18Y20409   1.318   2.925   5.842  0.2996 -0.3045 -0.7175
  178SAPS  H18Z20410   1.152   2.855   5.864 -0.2401  0.4417  0.7648
  179SAPS     N20411   6.520   2.876   3.095  0.3504 -0.1938  0.5437
  179SAPS   HN120412   6.488   2.928   3.179  0.5562  0.9851 -0.0912
  179SAPS   HN220413   6.446   2.805   3.075 -0.2655  0.5660  0.1156
  179SAPS   HN320414   6.606   2.828   3.130 -0.9477 -2.6602  0.6262
  179SAPS   C1220415   6.534   2.947   2.971 -0.0391 -0.4920 -0.0486
  179SAPS  H12A20416   6.618   3.013   2.986  0.4019 -0.6827 -1.4921
  179SAPS   C1320417   6.570   2.859   2.853 -0.1635 -0.8713 -0.2340
  179SAPS  O13A20418   6.549   2.734   2.843 -0.0251  0.2572 -0.5245
  179SAPS  O13B20419   6.595   2.921   2.745  0.2649  0.5836 -0.2116
  179SAPS   C1120420   6.406   3.031   2.931  0.7969  0.3021  0.3317
  179SAPS  H11A20421   6.332   2.963   2.884  0.9718  0.4940 -0.2347
  179SAPS  H11B20422   6.436   3.102   2.850 -0.0600  0.0692 -0.2021
  179SAPS     P20423   6.364   3.248   3.077  0.1806 -0.3161 -0.0823
  179SAPS   O1320424   6.504   3.277   3.126  0.0386 -0.1926 -0.5516
  179SAPS   O1420425   6.317   3.325   2.959  0.2512 -0.3622  0.4896
  179SAPS   O1220426   6.347   3.095   3.046 -0.1132  0.4769  0.7198
  179SAPS   O1120427   6.260   3.258   3.192  0.2373 -0.3948  0.3491
  179SAPS    C120428   6.188   3.371   3.223 -0.0482 -0.8405 -0.2539
  179SAPS    HA20429   6.201   3.457   3.154 -3.0864  0.6791  0.8834
  179SAPS    HB20430   6.080   3.347   3.207  0.2607 -1.8967 -0.8421
  179SAPS    C220431   6.217   3.422   3.369  0.5166  0.2290 -0.3624
  179SAPS    HS20432   6.321   3.458   3.379  0.1188  1.3599 -0.0600
  179SAPS   O2120433   6.178   3.311   3.459 -0.0667 -0.0531  0.3631
  179SAPS   C2120434   6.283   3.235   3.490 -0.3313 -0.4406 -1.1226
  179SAPS   O2220435   6.393   3.244   3.442  0.5590  0.2803  0.0850
  179SAPS   C2220436   6.245   3.149   3.607 -0.4997  0.2258  0.7893
  179SAPS   H2R20437   6.141   3.116   3.584 -0.7657  1.3805  0.3070
  179SAPS   H2S20438   6.301   3.052   3.606 -1.8744 -0.5920  0.3349
  179SAPS    C320439   6.127   3.547   3.389 -0.1065 -0.0626 -0.5417
  179SAPS    HX20440   6.027   3.502   3.371 -0.6867  0.1430  1.8465
  179SAPS    HY20441   6.144   3.629   3.316 -0.6389  0.0805 -0.5064
  179SAPS   O3120442   6.130   3.594   3.531 -0.2747 -0.0743  0.5757
  179SAPS   C3120443   6.153   3.725   3.549 -0.2407 -0.4372 -0.5964
  179SAPS   O3220444   6.134   3.816   3.470  0.1389  0.7543 -0.6066
  179SAPS   C3220445   6.182   3.745   3.699 -0.3552  0.5891 -0.0588
  179SAPS   H2X20446   6.097   3.801   3.745 -1.4868 -1.3967  0.3836
  179SAPS   H2Y20447   6.280   3.797   3.706  0.0581 -0.2224  0.2970
  179SAPS   C2320448   6.251   3.232   3.734 -0.4973 -0.3934 -0.5220
  179SAPS   H3R20449   6.191   3.201   3.822  0.7375  1.9978  1.3115
  179SAPS   H3S20450   6.228   3.339   3.716  2.3927  0.6551  1.3050
  179SAPS   C2420451   6.398   3.235   3.787  0.1514  0.5571  0.5271
  179SAPS   H4R20452   6.405   3.311   3.868 -0.7074  2.2714 -0.9544
  179SAPS   H4S20453   6.450   3.288   3.705  1.9227 -0.8344  0.6932
  179SAPS   C2520454   6.456   3.098   3.818 -0.1129 -0.0354 -0.2555
  179SAPS   H5R20455   6.518   3.053   3.739  2.1066 -3.2416  2.9817
  179SAPS   C2620456   6.452   3.030   3.931 -0.3134  0.7301 -0.4842
  179SAPS   H6R20457   6.511   2.937   3.941 -1.9099 -0.4455 -1.3506
  179SAPS   C2720458   6.392   3.064   4.058 -0.1823  0.5092 -0.6997
  179SAPS   H7R20459   6.365   2.967   4.104 -0.1180 -0.4621 -2.6208
  179SAPS   H7S20460   6.296   3.116   4.036  0.3148  1.4427 -0.7307
  179SAPS   C2820461   6.492   3.146   4.143  0.6382  0.0368 -0.4725
  179SAPS   H8R20462   6.580   3.192   4.097  1.1036 -0.2871  0.0818
  179SAPS   C2920463   6.480   3.167   4.276  0.3058 -0.3607  0.0009
  179SAPS   H9R20464   6.564   3.211   4.331  1.0220 -1.3194 -0.3045
  179SAPS  C21020465   6.384   3.104   4.376 -0.2914  0.3035 -0.0130
  179SAPS  H10R20466   6.443   3.031   4.435 -2.7753 -1.2341  0.7366
  179SAPS  H10S20467   6.303   3.046   4.326 -0.4611 -0.3844  1.0253
  179SAPS  C21120468   6.318   3.203   4.468 -0.2178  0.2846 -0.3125
  179SAPS  H11R20469   6.288   3.292   4.411  0.0629 -1.5260 -3.5434
  179SAPS  C21220470   6.317   3.199   4.602  0.1978  0.0902  0.2725
  179SAPS  H12R20471   6.250   3.273   4.649 -1.5126 -1.1922 -0.0623
  179SAPS  C21320472   6.381   3.108   4.700 -0.0991  0.3780 -0.6079
  179SAPS  H13R20473   6.447   3.040   4.642 -0.9614 -2.9512  1.9731
  179SAPS  H13S20474   6.308   3.040   4.749  1.9589  0.4826  2.9994
  179SAPS  C21420475   6.459   3.183   4.804  0.2803  0.1088 -0.5324
  179SAPS  H14R20476   6.484   3.288   4.788 -1.4431  0.4411 -1.3393
  179SAPS  C21520477   6.495   3.124   4.923 -0.3713 -0.8506  0.6265
  179SAPS  H15R20478   6.537   3.188   5.001 -0.2382 -0.0166 -0.1169
  179SAPS  C21620479   6.485   2.981   4.962 -0.2993  0.3105 -0.1101
  179SAPS  H16R20480   6.580   2.922   4.960  0.9872  2.2114  1.3538
  179SAPS  H16S20481   6.415   2.927   4.894  0.9598 -1.0746 -0.3553
  179SAPS  C21720482   6.414   2.963   5.100 -0.3580  0.6275 -0.5737
  179SAPS  H17R20483   6.378   2.858   5.113  1.9267 -0.0626  0.8261
  179SAPS  H17S20484   6.329   3.032   5.115 -1.1342 -0.2477 -0.8013
  179SAPS  C21820485   6.522   2.971   5.215  0.6111  0.0331  0.3956
  179SAPS  H18R20486   6.512   3.068   5.269  0.2749  1.1620 -1.5946
  179SAPS  H18S20487   6.620   2.962   5.164  0.7361 -0.8727  0.7873
  179SAPS  C21920488   6.502   2.862   5.319 -0.3632 -0.1351  0.8191
  179SAPS  H19R20489   6.394   2.868   5.345 -0.7847  0.4600 -0.9002
  179SAPS  H19S20490   6.567   2.891   5.404  0.4175  1.0034 -0.1277
  179SAPS  C22020491   6.539   2.719   5.269  0.4958  0.0341  0.3020
  179SAPS  H20R20492   6.507   2.647   5.347 -0.5967  1.3650  1.1251
  179SAPS  H20S20493   6.647   2.716   5.243 -0.0534 -0.7886 -2.1520
  179SAPS  H20T20494   6.476   2.705   5.179 -1.0450  1.7899  1.0317
  179SAPS   C3320495   6.204   3.615   3.787  0.2674  0.4520  0.1477
  179SAPS   H3X20496   6.272   3.535   3.752 -1.0623 -1.3092  1.4513
  179SAPS   H3Y20497   6.111   3.557   3.798  0.9189 -0.3800  1.5085
  179SAPS   C3420498   6.245   3.662   3.926 -0.1478  0.0080  0.0145
  179SAPS   H4X20499   6.156   3.711   3.971 -1.0694 -1.3735 -0.2516
  179SAPS   H4Y20500   6.326   3.738   3.917 -1.5872  1.5268 -0.6899
  179SAPS   C3520501   6.309   3.555   4.024  0.3147 -0.6462  0.4558
  179SAPS   H5X20502   6.395   3.503   3.977 -2.7553 -3.8049 -2.1352
  179SAPS   H5Y20503   6.238   3.470   4.028  0.2664 -0.6662 -0.6771
  179SAPS   C3620504   6.333   3.616   4.166 -0.0111  0.4042  0.4253
  179SAPS   H6X20505   6.235   3.636   4.215 -0.0101 -1.4373  1.2861
  179SAPS   H6Y20506   6.388   3.711   4.151 -2.0026  1.4569 -0.7142
  179SAPS   C3720507   6.409   3.532   4.259 -0.1498 -0.4216 -0.5911
  179SAPS   H7X20508   6.510   3.510   4.218 -0.6252 -2.5458 -0.7427
  179SAPS   H7Y20509   6.358   3.436   4.282  0.0547 -0.4181 -0.0894
  179SAPS   C3820510   6.425   3.608   4.394  0.3672  0.6050  0.2314
  179SAPS   H8X20511   6.333   3.623   4.455  0.7442  2.0757  0.4756
  179SAPS   H8Y20512   6.471   3.707   4.372  0.5327  0.6298  0.6795
  179SAPS   C3920513   6.520   3.546   4.500  0.8909  0.5903  0.4526
  179SAPS   H9X20514   6.615   3.518   4.449 -0.9224 -2.5870 -1.5117
  179SAPS   H9Y20515   6.478   3.456   4.549 -1.0529  1.8570  1.2570
  179SAPS  C31020516   6.551   3.641   4.620 -0.5253  0.5758 -1.0767
  179SAPS  H10X20517   6.591   3.734   4.573 -2.3760  0.7813 -2.3488
  179SAPS  H10Y20518   6.633   3.599   4.682 -0.6221  2.0060  0.1038
  179SAPS  C31120519   6.434   3.684   4.710  0.0288 -0.1176 -0.7679
  179SAPS  H11X20520   6.344   3.690   4.644  0.4442 -0.6832 -1.3952
  179SAPS  H11Y20521   6.468   3.785   4.744 -0.0551 -0.7493  1.3373
  179SAPS  C31220522   6.402   3.588   4.826 -0.0496 -0.2487  0.1227
  179SAPS  H12X20523   6.500   3.569   4.874  0.1084 -0.4144 -0.2619
  179SAPS  H12Y20524   6.346   3.498   4.793  1.3952 -1.5773  1.1175
  179SAPS  C31320525   6.305   3.665   4.924 -0.0708  0.6093  0.2075
  179SAPS  H13X20526   6.207   3.681   4.874 -0.1655 -2.1443 -0.6234
  179SAPS  H13Y20527   6.350   3.763   4.950  2.0801 -0.2919  0.0984
  179SAPS  C31420528   6.295   3.592   5.055  0.3335 -0.0067 -0.5271
  179SAPS  H14X20529   6.397   3.579   5.097  0.6887 -0.4774 -1.4938
  179SAPS  H14Y20530   6.268   3.486   5.038  2.9208 -1.4210  2.9567
  179SAPS  C31520531   6.188   3.647   5.144 -0.2181 -0.6541  0.2156
  179SAPS  H15X20532   6.188   3.757   5.134 -3.7288 -0.7209 -3.2872
  179SAPS  H15Y20533   6.210   3.633   5.252  1.3092 -0.3110 -0.0326
  179SAPS  C31620534   6.048   3.594   5.112 -0.1664 -0.2307 -0.0376
  179SAPS  H16X20535   6.042   3.484   5.115 -1.9973 -0.1431  0.7943
  179SAPS  H16Y20536   6.029   3.612   5.004 -0.8166  2.4366  0.4451
  179SAPS  C31720537   5.925   3.649   5.184  0.3294 -0.0231 -0.3836
  179SAPS  H17X20538   5.917   3.760   5.179 -0.5789  0.0417  1.6052
  179SAPS  H17Y20539   5.936   3.620   5.290  2.8901 -0.7521 -0.7666
  179SAPS  C31820540   5.798   3.579   5.124 -0.4238  0.0703 -0.1205
  179SAPS  H18X20541   5.804   3.470   5.144  0.9222  0.4230  1.7523
  179SAPS  H18Y20542   5.798   3.589   5.014 -0.2318  1.0992 -0.0390
  179SAPS  H18Z20543   5.704   3.620   5.168  0.7035 -0.1213  2.7303
  180SAPS     N20544   4.417   4.272   3.197 -0.1418  0.0619 -0.3484
  180SAPS   HN120545   4.451   4.248   3.101  1.8952  0.0327  0.3257
  180SAPS   HN220546   4.351   4.202   3.235  1.0395 -1.0391 -0.2528
  180SAPS   HN320547   4.369   4.364   3.187 -0.8058 -0.2448  0.0046
  180SAPS   C1220548   4.543   4.286   3.270 -0.2301  0.0042 -0.0296
  180SAPS  H12A20549   4.522   4.330   3.367 -0.8045 -0.7803  0.2109
  180SAPS   C1320550   4.610   4.140   3.300 -0.3316  0.1699 -0.2564
  180SAPS  O13A20551   4.577   4.037   3.240 -0.3790 -0.4307 -0.4773
  180SAPS  O13B20552   4.728   4.150   3.339  0.4540  0.5406 -0.5108
  180SAPS   C1120553   4.657   4.366   3.196  0.5455  0.1065  0.3019
  180SAPS  H11A20554   4.684   4.310   3.104  2.1592 -0.7893  1.2672
  180SAPS  H11B20555   4.749   4.369   3.259 -0.1353 -1.2318  1.4116
  180SAPS     P20556   4.713   4.586   3.077  0.2805 -0.0502  0.1792
  180SAPS   O1320557   4.844   4.524   3.036 -0.6804  0.0368 -0.1249
  180SAPS   O1420558   4.637   4.648   2.965 -0.2202 -0.0348  0.1557
  180SAPS   O1220559   4.614   4.494   3.158 -0.5371 -0.6280 -0.0719
  180SAPS   O1120560   4.739   4.692   3.189 -0.2192 -0.4612 -0.4766
  180SAPS    C120561   4.635   4.756   3.254  0.3322 -0.1641 -0.4835
  180SAPS    HA20562   4.625   4.855   3.206 -2.1601 -0.7110 -1.2300
  180SAPS    HB20563   4.538   4.702   3.252  0.0459  0.3618 -0.8704
  180SAPS    C220564   4.681   4.775   3.400  0.7982 -0.3326 -0.2400
  180SAPS    HS20565   4.791   4.787   3.396  0.8261 -0.5559 -0.1577
  180SAPS   O2120566   4.638   4.661   3.489 -0.3258 -0.6397  0.5091
  180SAPS   C2120567   4.738   4.586   3.534  0.1243  0.1612 -0.1316
  180SAPS   O2220568   4.856   4.603   3.516  0.5279 -0.5597 -0.0001
  180SAPS   C2220569   4.681   4.472   3.612  0.7166  0.8502  0.4226
  180SAPS   H2R20570   4.610   4.419   3.545  0.9680 -0.1883  0.9503
  180SAPS   H2S20571   4.756   4.393   3.634  0.1152  0.8569  2.7732
  180SAPS    C320572   4.616   4.905   3.460  0.5191 -0.0787 -0.7141
  180SAPS    HX20573   4.506   4.892   3.470  0.6187 -0.1969  0.3468
  180SAPS    HY20574   4.618   4.981   3.379 -0.6271 -0.2214 -0.8966
  180SAPS   O3120575   4.672   4.949   3.582 -0.0085  0.2477  0.1865
  180SAPS   C3120576   4.679   5.078   3.603 -0.4302 -0.6733 -0.0959
  180SAPS   O3220577   4.655   5.169   3.522  0.2944  0.1783  0.1016
  180SAPS   C3220578   4.735   5.107   3.746 -0.0037  0.3691  0.2816
  180SAPS   H2X20579   4.677   5.188   3.796  1.2812  0.7940  1.1319
  180SAPS   H2Y20580   4.837   5.149   3.732 -0.1214  0.8407  0.7909
  180SAPS   C2320581   4.597   4.520   3.731  0.3284  0.5749 -0.1660
  180SAPS   H3R20582   4.531   4.439   3.768  0.0878  0.2122 -1.3694
  180SAPS   H3S20583   4.535   4.601   3.687  1.4465  1.0071 -0.9869
  180SAPS   C2420584   4.670   4.583   3.850  0.5285 -0.0080  0.6316
  180SAPS   H4R20585   4.589   4.615   3.919  0.3018 -0.6288  0.6544
  180SAPS   H4S20586   4.718   4.670   3.800  0.2953  0.3191  0.9741
  180SAPS   C2520587   4.760   4.481   3.915 -0.5449 -0.6638 -0.6006
  180SAPS   H5R20588   4.777   4.385   3.864  2.3562 -1.3743  1.4796
  180SAPS   C2620589   4.824   4.515   4.032  0.5317  0.0538  0.7056
  180SAPS   H6R20590   4.884   4.432   4.072 -0.6299 -1.5658 -0.7245
  180SAPS   C2720591   4.828   4.644   4.104  0.4508 -0.5457  0.1648
  180SAPS   H7R20592   4.757   4.653   4.189  0.9504  0.2489  0.5173
  180SAPS   H7S20593   4.796   4.720   4.030 -1.0896 -1.4360 -0.1226
  180SAPS   C2820594   4.958   4.688   4.144 -0.2834 -0.2745  0.5062
  180SAPS   H8R20595   5.001   4.762   4.075  1.1870 -1.5278  0.0268
  180SAPS   C2920596   5.017   4.662   4.266  0.1016 -0.8575  0.7386
  180SAPS   H9R20597   5.109   4.720   4.283 -1.5959  2.1177  0.6772
  180SAPS  C21020598   4.949   4.591   4.380 -0.0733  0.2973 -0.2647
  180SAPS  H10R20599   5.030   4.536   4.435 -1.0547  0.9525  1.9669
  180SAPS  H10S20600   4.878   4.512   4.348 -0.3009 -0.1201  1.1559
  180SAPS  C21120601   4.868   4.684   4.466  0.6639  0.0532 -1.0802
  180SAPS  H11R20602   4.794   4.741   4.409 -0.1137 -2.0663 -2.2643
  180SAPS  C21220603   4.881   4.710   4.601  0.0602  0.8778  0.2275
  180SAPS  H12R20604   4.814   4.786   4.643  0.1572  1.2482 -0.2786
  180SAPS  C21320605   4.981   4.645   4.698 -0.0957  0.4142  0.1571
  180SAPS  H13R20606   5.040   4.731   4.739  0.4362  0.5452 -0.8427
  180SAPS  H13S20607   5.055   4.583   4.644  0.5409  1.7111 -0.5091
  180SAPS  C21420608   4.919   4.562   4.813  0.0602  0.0338  0.1358
  180SAPS  H14R20609   4.847   4.484   4.782  0.5664 -0.8505  1.1448
  180SAPS  C21520610   4.937   4.588   4.948 -0.9662  0.4641 -0.2839
  180SAPS  H15R20611   4.887   4.529   5.026 -1.2505  0.2354 -0.6346
  180SAPS  C21620612   5.029   4.688   5.010  0.1704 -0.6689 -0.2485
  180SAPS  H16R20613   5.111   4.719   4.943 -0.9060 -0.1420 -1.3635
  180SAPS  H16S20614   5.071   4.651   5.106 -0.0412 -0.4693 -0.0772
  180SAPS  C21720615   4.964   4.822   5.052 -0.6477  0.1583  0.2282
  180SAPS  H17R20616   5.047   4.889   5.080 -0.7151  0.8257 -1.1246
  180SAPS  H17S20617   4.912   4.807   5.149  0.7996  4.2454  1.8348
  180SAPS  C21820618   4.883   4.897   4.944 -0.2109 -0.2782 -0.4057
  180SAPS  H18R20619   4.810   4.821   4.908 -1.0740 -0.0045  0.6947
  180SAPS  H18S20620   4.933   4.944   4.856 -1.3220  2.8917  0.5212
  180SAPS  C21920621   4.804   5.017   5.013  0.1281 -0.5107 -0.2221
  180SAPS  H19R20622   4.740   4.973   5.093 -0.7365  1.6121  0.3216
  180SAPS  H19S20623   4.749   5.050   4.923  2.1790  0.1875 -1.2875
  180SAPS  C22020624   4.889   5.126   5.075  0.0594  0.2541 -0.0178
  180SAPS  H20R20625   4.959   5.081   5.148 -2.1036 -2.5799  0.4569
  180SAPS  H20S20626   4.936   5.162   4.981 -0.5578 -0.8726 -0.7803
  180SAPS  H20T20627   4.835   5.212   5.121  0.2316  0.6492 -0.5386
  180SAPS   C3320628   4.742   4.981   3.832 -0.3480  0.3271  0.1741
  180SAPS   H3X20629   4.796   4.903   3.773 -0.6462 -0.1514  0.5260
  180SAPS   H3Y20630   4.635   4.957   3.849 -0.5121  1.8288  1.4393
  180SAPS   C3420631   4.822   4.999   3.962  0.2649  0.0706  0.2762
  180SAPS   H4X20632   4.909   5.066   3.940 -0.8468  1.3712 -0.2980
  180SAPS   H4Y20633   4.859   4.902   4.000 -0.0604 -0.6186 -1.1194
  180SAPS   C3520634   4.734   5.062   4.067  0.0212  0.2014  0.0697
  180SAPS   H5X20635   4.626   5.034   4.059 -0.0859 -0.4548  2.7357
  180SAPS   H5Y20636   4.741   5.169   4.039 -2.9955  0.2550 -0.8684
  180SAPS   C3620637   4.765   5.037   4.220  0.1899 -0.2356 -0.1509
  180SAPS   H6X20638   4.864   5.081   4.243 -0.6577  0.2224  3.0797
  180SAPS   H6Y20639   4.783   4.928   4.222  0.0420 -0.2529  0.2826
  180SAPS   C3720640   4.652   5.093   4.311 -0.3565  0.5284  0.3853
  180SAPS   H7X20641   4.554   5.050   4.284 -0.8130  1.4265  0.5680
  180SAPS   H7Y20642   4.649   5.203   4.298 -0.4340  0.5923  0.9105
  180SAPS   C3820643   4.670   5.058   4.462 -0.2979  0.0497 -0.7922
  180SAPS   H8X20644   4.768   5.086   4.505  1.1170 -1.3145 -2.9347
  180SAPS   H8Y20645   4.671   4.947   4.467 -1.2494  0.0863  2.1298
  180SAPS   C3920646   4.543   5.080   4.550  0.1073 -0.1581 -1.0458
  180SAPS   H9X20647   4.458   5.048   4.486  0.3018  1.2935 -2.0717
  180SAPS   H9Y20648   4.529   5.188   4.569  1.5587 -0.4990  2.7218
  180SAPS  C31020649   4.544   4.992   4.672  0.4353  0.1212 -0.0001
  180SAPS  H10X20650   4.636   5.001   4.733  0.3708 -0.8412  0.2532
  180SAPS  H10Y20651   4.523   4.888   4.639 -1.9698  0.4379  0.3301
  180SAPS  C31120652   4.433   5.039   4.764 -0.4099 -0.1066  0.7611
  180SAPS  H11X20653   4.340   4.985   4.736 -1.8411  0.3196  4.1309
  180SAPS  H11Y20654   4.418   5.148   4.753  0.5850 -0.0332 -0.0084
  180SAPS  C31220655   4.449   5.001   4.908 -0.2103 -0.0266 -0.0192
  180SAPS  H12X20656   4.546   5.046   4.940  0.1956 -1.0786  0.2763
  180SAPS  H12Y20657   4.444   4.891   4.913 -2.0985 -0.0207 -0.8791
  180SAPS  C31320658   4.324   5.059   4.980 -0.1498  0.3604 -0.0907
  180SAPS  H13X20659   4.250   5.090   4.903  1.0789  0.8397 -1.1056
  180SAPS  H13Y20660   4.353   5.161   5.014 -1.9506  0.7927  0.2935
  180SAPS  C31420661   4.267   4.962   5.081  0.2779 -0.3790  0.2485
  180SAPS  H14X20662   4.352   4.935   5.148  2.5113  0.2242 -2.2122
  180SAPS  H14Y20663   4.216   4.873   5.038 -1.9585  0.2135  1.4863
  180SAPS  C31520664   4.162   5.045   5.169  0.3386  0.3396  0.1258
  180SAPS  H15X20665   4.085   5.087   5.100  1.6975  1.4144 -0.7728
  180SAPS  H15Y20666   4.218   5.125   5.222 -2.4924  1.7639  1.1681
  180SAPS  C31620667   4.098   4.956   5.280  0.4037  0.2393  0.3845
  180SAPS  H16X20668   4.178   4.898   5.330  0.7652  0.3037 -0.1124
  180SAPS  H16Y20669   4.047   4.875   5.224  0.3667  0.5872 -0.0913
  180SAPS  C31720670   3.992   5.029   5.360  0.1316  0.5572 -0.5947
  180SAPS  H17X20671   3.910   5.077   5.303 -0.9634  0.7335  1.0723
  180SAPS  H17Y20672   4.043   5.111   5.414  0.2732  0.2074 -0.1876
  180SAPS  C31820673   3.925   4.931   5.464 -0.5362 -0.1353  0.6629
  180SAPS  H18X20674   4.003   4.889   5.531  0.4011 -0.4858 -0.6010
  180SAPS  H18Y20675   3.883   4.846   5.406  2.8058 -1.6492  0.2373
  180SAPS  H18Z20676   3.852   4.982   5.530 -0.2012  2.5086 -0.8719
  181POPC     N20677   2.449   1.205   7.825  0.5071  0.7330  0.0482
  181POPC   C1220678   2.575   1.150   7.889  0.1952 -0.5387  0.1330
  181POPC  H12A20679   2.591   1.048   7.858 -1.0328 -0.9062  0.6631
  181POPC  H12B20680   2.560   1.139   7.995 -0.1850 -1.6333 -0.0147
  181POPC   C1320681   2.463   1.197   7.678  0.4549  0.0595  0.0810
  181POPC  H13A20682   2.546   1.257   7.643 -0.8957  1.6150 -0.5669
  181POPC  H13B20683   2.477   1.095   7.647 -0.9458 -0.2047  0.2678
  181POPC  H13C20684   2.380   1.230   7.617 -0.3939  2.8247  2.4896
  181POPC   C1420685   2.331   1.135   7.870  0.5725  0.6036 -0.1024
  181POPC  H14A20686   2.336   1.038   7.823  1.2003  1.0118 -0.8865
  181POPC  H14B20687   2.305   1.135   7.975 -1.0805 -0.7425 -0.4555
  181POPC  H14C20688   2.246   1.177   7.819  0.6031  0.6020 -0.1538
  181POPC   C1520689   2.432   1.352   7.866  0.4221  0.0439 -0.2896
  181POPC  H15A20690   2.493   1.431   7.824  1.2094 -0.6104 -0.4113
  181POPC  H15B20691   2.451   1.372   7.971  0.6947  2.3649 -0.7251
  181POPC  H15C20692   2.329   1.379   7.850 -0.8573 -1.8369  3.4856
  181POPC   C1120693   2.709   1.225   7.865  0.1961  0.4154 -0.1262
  181POPC  H11A20694   2.794   1.179   7.919 -0.4653  0.9286  1.3958
  181POPC  H11B20695   2.707   1.329   7.905  2.5114 -0.2670  1.9572
  181POPC     P20696   2.808   1.099   7.650  0.3818  0.1087 -0.2595
  181POPC   O1320697   2.761   0.986   7.729 -0.0591  0.5763  0.1725
  181POPC   O1420698   2.951   1.124   7.634  0.2937  0.4034  0.6772
  181POPC   O1220699   2.739   1.229   7.721  0.5426 -0.3134  0.3851
  181POPC   O1120700   2.727   1.106   7.515 -0.2166 -0.5276  0.3435
  181POPC    C120701   2.751   1.217   7.432  0.2435  0.0417  0.6458
  181POPC    HA20702   2.857   1.225   7.400 -0.5478  1.8918 -1.8336
  181POPC    HB20703   2.718   1.313   7.479  0.9418 -0.3215  1.9407
  181POPC    C220704   2.673   1.194   7.302  0.2912  0.2403  0.6426
  181POPC    HS20705   2.568   1.201   7.338  0.5926  0.7817  1.4322
  181POPC   O2120706   2.717   1.067   7.256  0.2364  0.5812  0.1856
  181POPC   C2120707   2.650   1.018   7.156 -0.4524 -0.4604 -0.6187
  181POPC   O2220708   2.560   1.072   7.096 -0.2873 -0.3297  0.0546
  181POPC   C2220709   2.716   0.880   7.116 -0.3872  0.3141 -0.0241
  181POPC   H2R20710   2.640   0.803   7.090  1.6829 -2.0572  0.5772
  181POPC   H2S20711   2.770   0.843   7.206  0.4725 -0.7061 -0.9431
  181POPC    C320712   2.712   1.296   7.188  0.3602 -0.5933  0.4392
  181POPC    HX20713   2.689   1.398   7.227  0.1643 -0.0927 -0.9460
  181POPC    HY20714   2.655   1.283   7.094 -0.6692  1.9063  0.6401
  181POPC   O3120715   2.851   1.296   7.158 -0.6296 -0.3596  0.1192
  181POPC   C3120716   2.898   1.399   7.080  0.0375  0.7631 -0.1978
  181POPC   O3220717   2.836   1.484   7.020  0.6901  0.6071 -0.1991
  181POPC   C3220718   3.057   1.391   7.085 -0.5838  0.3695 -1.0857
  181POPC   H2X20719   3.085   1.285   7.073  0.2363  0.5562 -0.8788
  181POPC   H2Y20720   3.089   1.410   7.190 -2.4496 -0.2556 -0.3613
  181POPC   C2320721   2.807   0.889   6.990  0.0563 -1.0273 -0.2598
  181POPC   H3R20722   2.875   0.801   6.985  2.0180  0.4903 -2.1597
  181POPC   H3S20723   2.857   0.987   6.977 -1.5131 -0.2613 -0.6389
  181POPC   C2420724   2.726   0.860   6.856 -0.6017  0.8719 -0.1910
  181POPC   H4R20725   2.637   0.926   6.857 -1.4510 -0.1524  2.6231
  181POPC   H4S20726   2.689   0.759   6.887 -0.4067  1.4373  2.1071
  181POPC   C2520727   2.804   0.850   6.726  0.2260 -0.0983 -0.3995
  181POPC   H5R20728   2.744   0.798   6.649 -0.4875 -0.5827  0.4606
  181POPC   H5S20729   2.895   0.790   6.749 -0.4577 -1.6122 -1.4882
  181POPC   C2620730   2.845   0.989   6.683 -0.3749  0.1614 -0.1062
  181POPC   H6R20731   2.880   1.049   6.770  0.2210  0.7042 -0.7059
  181POPC   H6S20732   2.760   1.040   6.632 -1.4563 -0.2054  1.2870
  181POPC   C2720733   2.971   0.994   6.588  0.2377  0.1539  0.4400
  181POPC   H7R20734   3.059   0.943   6.632  0.7658  0.5370 -0.1495
  181POPC   H7S20735   3.004   1.100   6.577 -0.1142  0.2929  0.7302
  181POPC   C2820736   2.935   0.954   6.445 -0.0336  0.0983 -0.6486
  181POPC   H8R20737   2.835   0.996   6.422 -1.2337 -0.9205  2.2552
  181POPC   H8S20738   2.917   0.845   6.459  2.5719 -0.2612  0.5485
  181POPC   C2920739   3.026   0.969   6.329  0.1274  0.0395  0.0120
  181POPC   H9120740   3.097   0.885   6.321  0.5734  0.4471 -0.3243
  181POPC  C21020741   3.015   1.066   6.236 -0.5521  0.4357  0.1064
  181POPC  H10120742   3.073   1.059   6.143  2.0307  3.0848  1.3627
  181POPC  C21120743   2.904   1.165   6.234  0.0537 -0.2347  0.1916
  181POPC  H11R20744   2.953   1.254   6.189  0.2614 -0.2267  0.4338
  181POPC  H11S20745   2.868   1.195   6.335  0.5260  0.6424  0.1112
  181POPC  C21220746   2.779   1.123   6.142 -0.4815  0.3013 -0.5015
  181POPC  H12R20747   2.695   1.194   6.155 -0.5917  0.4256 -1.7817
  181POPC  H12S20748   2.738   1.024   6.171 -3.5752  2.0263  1.5859
  181POPC  C21320749   2.821   1.131   5.996  0.0998 -0.2289  0.0208
  181POPC  H13R20750   2.901   1.058   5.974 -0.0507  0.5234 -3.6888
  181POPC  H13S20751   2.872   1.229   5.988 -1.7988  0.8088 -0.1048
  181POPC  C21420752   2.698   1.121   5.899 -0.5676 -0.7045 -0.1528
  181POPC  H14R20753   2.619   1.192   5.935 -0.2755 -0.5859  0.2630
  181POPC  H14S20754   2.660   1.017   5.914 -1.7421 -0.6707 -2.4837
  181POPC  C21520755   2.730   1.155   5.754  0.5139  0.3600 -0.1723
  181POPC  H15R20756   2.756   1.262   5.740  2.5431 -0.1803 -0.7709
  181POPC  H15S20757   2.652   1.125   5.680  0.9837  0.9050 -0.8925
  181POPC  C21620758   2.865   1.085   5.714  0.9754 -0.1315  0.3422
  181POPC  H16R20759   2.864   0.976   5.733  1.7806 -0.3098 -0.5518
  181POPC  H16S20760   2.956   1.121   5.767  0.3931  4.3537 -1.2825
  181POPC  C21720761   2.892   1.090   5.556 -0.4150 -0.4662 -0.9898
  181POPC  H17R20762   2.812   1.028   5.509 -2.5556  1.9713 -0.8360
  181POPC  H17S20763   2.989   1.039   5.540  0.9387  1.7493 -0.1954
  181POPC  C21820764   2.903   1.228   5.492 -0.6020  0.7685  0.3182
  181POPC  H18R20765   2.944   1.216   5.389 -1.4552 -0.3449  0.0789
  181POPC  H18S20766   2.978   1.292   5.542  0.9366 -0.4756 -0.2944
  181POPC  H18T20767   2.807   1.282   5.477 -2.3232 -2.4544 -1.3306
  181POPC   C3320768   3.120   1.495   6.994 -0.3941 -0.0109  0.1067
  181POPC   H3X20769   3.218   1.512   7.044 -1.3432  0.1017  2.0078
  181POPC   H3Y20770   3.072   1.595   7.005  3.1662  1.6993  1.6551
  181POPC   C3420771   3.123   1.454   6.852  0.4589  0.2271 -0.3353
  181POPC   H4X20772   3.055   1.368   6.836 -0.8359  1.0509  0.4891
  181POPC   H4Y20773   3.217   1.409   6.813  0.0701 -1.1660  0.2965
  181POPC   C3520774   3.071   1.554   6.743  0.5120  0.0208 -0.3099
  181POPC   H5X20775   3.126   1.650   6.755  0.2632  0.0064  1.0765
  181POPC   H5Y20776   2.966   1.580   6.766  1.1749  0.8032  2.0993
  181POPC   C3620777   3.083   1.490   6.604 -0.4171 -0.6402 -0.0558
  181POPC   H6X20778   3.038   1.389   6.619  0.9342 -1.1216  1.0298
  181POPC   H6Y20779   3.193   1.481   6.590 -0.4722  0.3607 -1.2764
  181POPC   C3720780   3.031   1.588   6.501 -0.2603  0.6412 -0.7424
  181POPC   H7X20781   3.075   1.689   6.510  1.7983 -0.1885 -1.0535
  181POPC   H7Y20782   2.922   1.589   6.524 -0.0034 -0.4445  0.6551
  181POPC   C3820783   3.052   1.534   6.366 -0.4335 -1.1694  0.2210
  181POPC   H8X20784   3.034   1.424   6.362 -0.7813 -1.0766 -1.6469
  181POPC   H8Y20785   3.160   1.530   6.339  0.0197  0.6559  1.5600
  181POPC   C3920786   2.974   1.599   6.258  0.3682  0.0727  0.2142
  181POPC   H9X20787   2.995   1.706   6.278  1.7992 -0.6398  3.0592
  181POPC   H9Y20788   2.865   1.574   6.260  0.1027  0.6570 -2.5349
  181POPC  C31020789   3.028   1.555   6.121 -0.1597  0.0433 -0.2584
  181POPC  H10X20790   3.049   1.446   6.132  0.8781  0.4686  3.6185
  181POPC  H10Y20791   3.116   1.614   6.090  0.0165 -0.3671 -0.5469
  181POPC  C31120792   2.928   1.576   6.003 -0.2763  0.8642 -0.2666
  181POPC  H11X20793   2.854   1.657   6.019  0.2759  1.5429 -1.0849
  181POPC  H11Y20794   2.865   1.485   5.990  0.0772  0.3597  1.3512
  181POPC  C31220795   2.991   1.602   5.868  0.5353 -1.0133  0.0694
  181POPC  H12X20796   3.072   1.527   5.854  1.3752  0.0560 -1.0777
  181POPC  H12Y20797   3.047   1.697   5.855 -1.0350 -0.2448 -1.6143
  181POPC  C31320798   2.894   1.594   5.745 -0.4900 -0.1735 -0.2490
  181POPC  H13X20799   2.855   1.490   5.735 -1.5674  0.1996 -0.1417
  181POPC  H13Y20800   2.945   1.607   5.647 -0.4230  1.7193  0.0001
  181POPC  C31420801   2.774   1.691   5.745 -0.5905 -0.2836  0.2740
  181POPC  H14X20802   2.810   1.786   5.790  0.7029  0.5880 -2.4460
  181POPC  H14Y20803   2.697   1.652   5.816 -0.9291  0.7337  0.4890
  181POPC  C31520804   2.700   1.717   5.618  0.6215  0.5270  0.8521
  181POPC  H15X20805   2.778   1.760   5.551 -0.0402  1.8927  0.9289
  181POPC  H15Y20806   2.617   1.790   5.630 -1.2493 -1.4358  0.4729
  181POPC  C31620807   2.655   1.597   5.535  0.0251 -0.0720 -0.2097
  181POPC  H16X20808   2.610   1.612   5.435 -0.4305 -0.4557 -0.0666
  181POPC  H16Y20809   2.566   1.556   5.587  0.3715 -1.6646 -0.8195
  181POPC  H16Z20810   2.744   1.531   5.523  0.5915  0.7972 -0.9287
  182POPC     N20811   5.286   0.940   7.977  0.3785 -0.3500  0.1790
  182POPC   C1220812   5.403   0.862   7.909 -0.1483 -0.2294  0.0586
  182POPC  H12A20813   5.433   0.907   7.816  1.7419 -0.9974  0.2526
  182POPC  H12B20814   5.370   0.761   7.887  0.0459  0.3591 -3.5106
  182POPC   C1320815   5.309   1.087   7.975  0.4232 -0.2201 -0.1509
  182POPC  H13A20816   5.305   1.127   7.875 -0.3216  1.8813  0.6623
  182POPC  H13B20817   5.227   1.137   8.026 -0.0136 -0.7794 -0.3025
  182POPC  H13C20818   5.394   1.110   8.038 -0.0509  0.9811  0.0916
  182POPC   C1420819   5.149   0.920   7.912  0.1124  0.4106  0.0658
  182POPC  H14A20820   5.134   0.813   7.910 -0.6879  0.4228  2.5727
  182POPC  H14B20821   5.075   0.968   7.973 -0.6234 -0.6223  0.0230
  182POPC  H14C20822   5.159   0.961   7.813  0.9150 -0.2694 -0.1526
  182POPC   C1520823   5.266   0.894   8.118  0.5139  0.7120 -0.1294
  182POPC  H15A20824   5.232   0.792   8.124 -1.2858  1.2555 -0.4136
  182POPC  H15B20825   5.183   0.945   8.165  0.3472  0.8648 -0.5790
  182POPC  H15C20826   5.347   0.921   8.184  1.6438 -0.8105 -0.8445
  182POPC   C1120827   5.538   0.859   7.992  0.2856  0.4617 -0.3548
  182POPC  H11A20828   5.613   0.787   7.953 -1.1880 -1.1150 -0.3671
  182POPC  H11B20829   5.524   0.826   8.097  1.2138 -1.5443 -0.8164
  182POPC     P20830   5.712   1.050   8.061 -0.1555 -0.1261 -0.0171
  182POPC   O1320831   5.751   0.957   8.166  0.9900 -0.5182  0.3931
  182POPC   O1420832   5.681   1.188   8.109 -0.2213 -0.1010  0.2787
  182POPC   O1220833   5.582   0.998   7.988  0.1129 -0.2647 -0.2327
  182POPC   O1120834   5.813   1.052   7.941 -0.3475  0.2496 -0.0742
  182POPC    C120835   5.873   0.933   7.895  0.1287 -0.0450  0.2869
  182POPC    HA20836   5.833   0.837   7.934 -0.2033 -0.4216 -0.9073
  182POPC    HB20837   5.982   0.947   7.912  0.0914  3.7919 -1.5271
  182POPC    C220838   5.871   0.938   7.736  0.2925  0.5193 -0.4144
  182POPC    HS20839   5.923   0.847   7.700  2.4589  2.1810 -1.7900
  182POPC   O2120840   5.947   1.052   7.684  0.2584  0.3211 -0.5786
  182POPC   C2120841   6.073   1.037   7.660 -0.3648  0.3693 -0.4048
  182POPC   O2220842   6.131   0.931   7.669  0.3041 -0.0681  0.4271
  182POPC   C2220843   6.129   1.172   7.632 -0.6777  0.3616 -0.2060
  182POPC   H2R20844   6.239   1.167   7.619 -0.7308 -1.2386 -0.2178
  182POPC   H2S20845   6.116   1.236   7.723  1.7733  1.7587 -0.7336
  182POPC    C320846   5.731   0.925   7.676  0.6204 -0.1782 -0.2807
  182POPC    HX20847   5.685   1.024   7.698 -0.0007 -0.4676 -0.2481
  182POPC    HY20848   5.672   0.840   7.716 -0.0546  0.0335 -0.7992
  182POPC   O3120849   5.746   0.901   7.541 -0.3287  0.9368 -0.1087
  182POPC   C3120850   5.735   1.005   7.455 -0.1694  0.2371  0.0025
  182POPC   O3220851   5.714   1.117   7.489 -0.0491  0.0486 -0.0228
  182POPC   C3220852   5.756   0.950   7.310 -0.0158 -0.0528 -0.3609
  182POPC   H2X20853   5.679   0.872   7.294  1.2305 -1.0357 -1.9971
  182POPC   H2Y20854   5.856   0.903   7.300 -0.2811 -0.1734 -3.6787
  182POPC   C2320855   6.076   1.244   7.505 -0.4934  0.3367 -0.0848
  182POPC   H3R20856   6.096   1.353   7.519  0.9758  0.4592 -2.5095
  182POPC   H3S20857   5.968   1.227   7.490 -1.2586  3.7054  0.8275
  182POPC   C2420858   6.163   1.209   7.386 -0.1234  0.2183  0.3435
  182POPC   H4R20859   6.188   1.101   7.390 -0.7022  0.1024  1.5709
  182POPC   H4S20860   6.259   1.264   7.388 -0.1412  0.6440 -3.4696
  182POPC   C2520861   6.108   1.245   7.248 -0.0292  0.1992 -0.0160
  182POPC   H5R20862   6.122   1.355   7.235  0.1283  0.4475  2.0203
  182POPC   H5S20863   6.001   1.220   7.238  0.2339 -1.2637  0.5561
  182POPC   C2620864   6.174   1.171   7.126  0.3352 -0.6082  0.4352
  182POPC   H6R20865   6.176   1.060   7.127  0.6612 -0.6306 -0.8937
  182POPC   H6S20866   6.277   1.214   7.130 -0.5960  1.9637 -0.7495
  182POPC   C2720867   6.119   1.231   6.994  0.3355  0.9150  0.4061
  182POPC   H7R20868   6.137   1.340   6.998 -1.1060  1.1803  0.3665
  182POPC   H7S20869   6.009   1.215   6.993  0.4682 -0.0677  0.7420
  182POPC   C2820870   6.191   1.178   6.864  0.8985 -0.0856 -0.4010
  182POPC   H8R20871   6.200   1.069   6.880  2.2221  0.2171  1.2095
  182POPC   H8S20872   6.294   1.217   6.874 -0.1162  3.4225 -2.0465
  182POPC   C2920873   6.117   1.224   6.740  0.4219 -0.0138  0.8036
  182POPC   H9120874   6.074   1.325   6.744  3.0128  1.3856 -2.2092
  182POPC  C21020875   6.086   1.152   6.625 -0.5173 -0.1743 -0.2145
  182POPC  H10120876   6.031   1.195   6.540 -0.4792 -0.9272 -0.6252
  182POPC  C21120877   6.122   1.002   6.608  0.6965 -0.6426 -0.4375
  182POPC  H11R20878   6.030   0.941   6.607  0.2902 -0.0363 -1.2897
  182POPC  H11S20879   6.173   0.955   6.695  0.3933  0.8736  0.6107
  182POPC  C21220880   6.211   0.968   6.494 -0.4642  0.1249  0.5980
  182POPC  H12R20881   6.223   0.858   6.501  2.3944  0.3957  1.3204
  182POPC  H12S20882   6.313   1.010   6.507  1.1323 -2.7363 -1.5107
  182POPC  C21320883   6.158   1.015   6.353  0.1212  0.0291 -0.1453
  182POPC  H13R20884   6.183   1.123   6.351  0.3773 -0.0338 -0.5167
  182POPC  H13S20885   6.048   1.014   6.345 -0.4459  1.3585  4.6369
  182POPC  C21420886   6.218   0.935   6.239 -0.1889  0.3184 -0.7135
  182POPC  H14R20887   6.219   0.826   6.255  3.8193  0.4803  1.4692
  182POPC  H14S20888   6.324   0.969   6.245 -0.9066  2.9089 -1.4371
  182POPC  C21520889   6.157   0.964   6.096 -0.1740  0.2398 -0.2114
  182POPC  H15R20890   6.194   1.067   6.076  3.3654 -0.2982  2.5702
  182POPC  H15S20891   6.047   0.979   6.093 -0.4241 -1.5362 -2.9937
  182POPC  C21620892   6.198   0.862   5.992 -0.0413  0.5244 -0.2386
  182POPC  H16R20893   6.307   0.858   6.016 -0.5103  0.3468  2.1902
  182POPC  H16S20894   6.195   0.899   5.888 -0.6765 -0.7573 -0.6967
  182POPC  C21720895   6.141   0.719   5.999  0.6838 -0.9237 -0.1308
  182POPC  H17R20896   6.031   0.727   5.989  0.6710 -0.1292  0.5076
  182POPC  H17S20897   6.151   0.671   6.099 -0.1926 -0.5205  0.1687
  182POPC  C21820898   6.200   0.631   5.892 -0.3401 -0.6580 -1.0538
  182POPC  H18R20899   6.196   0.524   5.922  0.1046 -1.2196 -2.8846
  182POPC  H18S20900   6.309   0.655   5.892 -0.5569  0.4052 -0.8483
  182POPC  H18T20901   6.158   0.647   5.791  2.9033  0.1531 -2.4229
  182POPC   C3320902   5.736   1.056   7.196  0.1277 -0.6476 -0.2445
  182POPC   H3X20903   5.825   1.123   7.203 -1.5149  1.5196  1.3549
  182POPC   H3Y20904   5.646   1.120   7.210 -0.2148 -0.1056 -3.9094
  182POPC   C3420905   5.716   0.980   7.067  0.2761  0.3476  0.3207
  182POPC   H4X20906   5.659   0.885   7.077  0.1510  0.0949 -2.1009
  182POPC   H4Y20907   5.819   0.943   7.051 -0.0521 -0.3843 -0.1740
  182POPC   C3520908   5.649   1.069   6.954 -0.1674 -0.5543  0.1575
  182POPC   H5X20909   5.720   1.153   6.944  1.3719 -1.6777  1.2424
  182POPC   H5Y20910   5.544   1.094   6.982 -0.3621 -2.0098  0.8244
  182POPC   C3620911   5.655   0.989   6.821 -0.3646 -0.1760  0.6561
  182POPC   H6X20912   5.593   0.897   6.833  2.2785 -1.9156  1.8151
  182POPC   H6Y20913   5.753   0.940   6.801  0.5668  1.6224  0.5977
  182POPC   C3720914   5.626   1.078   6.703  0.1405  0.7438  0.1898
  182POPC   H7X20915   5.703   1.157   6.699 -0.7398  1.6079 -0.1932
  182POPC   H7Y20916   5.533   1.136   6.722  0.1685  1.1720 -0.9341
  182POPC   C3820917   5.617   1.000   6.573 -0.6177  0.0525 -0.0029
  182POPC   H8X20918   5.526   0.937   6.576 -0.6055  0.0656  3.1865
  182POPC   H8Y20919   5.701   0.927   6.576 -1.1744 -0.6636 -1.0146
  182POPC   C3920920   5.625   1.085   6.443  0.6655  0.0703 -0.0176
  182POPC   H9X20921   5.685   1.178   6.453 -0.3022  0.7917 -0.7583
  182POPC   H9Y20922   5.530   1.141   6.424  1.3734  0.9981 -0.9205
  182POPC  C31020923   5.668   1.007   6.318 -0.1136  0.3434 -0.1248
  182POPC  H10X20924   5.606   0.915   6.315 -0.2036  0.4286 -1.6535
  182POPC  H10Y20925   5.774   0.977   6.328 -0.6369 -1.4952  0.3853
  182POPC  C31120926   5.648   1.096   6.188 -0.2459  0.1742 -0.0655
  182POPC  H11X20927   5.678   1.200   6.213  2.6746 -1.2722  3.3042
  182POPC  H11Y20928   5.541   1.094   6.157 -0.7671 -1.8554  1.6369
  182POPC  C31220929   5.715   1.044   6.062 -0.1285  0.6036 -0.1285
  182POPC  H12X20930   5.819   1.011   6.082 -0.6513  0.0904  1.9520
  182POPC  H12Y20931   5.729   1.135   6.000  1.6516  0.9479  0.7018
  182POPC  C31320932   5.643   0.924   5.997  0.8088  0.1733 -0.4173
  182POPC  H13X20933   5.554   0.962   5.942  0.2016 -0.8842 -0.1841
  182POPC  H13Y20934   5.601   0.865   6.081 -3.5133  2.1470 -0.9577
  182POPC  C31420935   5.733   0.858   5.891  0.1312 -0.4381  0.3445
  182POPC  H14X20936   5.689   0.758   5.870  0.7755 -0.8359  0.8784
  182POPC  H14Y20937   5.839   0.845   5.921  0.6052 -1.5575 -1.6016
  182POPC  C31520938   5.737   0.930   5.760  0.0043  0.0519  0.2248
  182POPC  H15X20939   5.795   1.024   5.773  0.3049 -0.1127  0.0851
  182POPC  H15Y20940   5.642   0.973   5.721  1.2414  2.7792 -0.0111
  182POPC  C31620941   5.801   0.836   5.653  0.3139  0.0962 -0.0779
  182POPC  H16X20942   5.811   0.897   5.561 -2.5043 -1.5989 -1.6613
  182POPC  H16Y20943   5.729   0.754   5.632 -1.0640  0.1926  3.5786
  182POPC  H16Z20944   5.901   0.804   5.689  0.1297  0.5804  0.9073
  183POPC     N20945   1.827   2.996   7.916 -0.0098 -0.2517 -0.0422
  183POPC   C1220946   1.880   3.125   7.869  0.4021  1.0129 -0.0414
  183POPC  H12A20947   1.988   3.127   7.865  0.4425 -0.3148 -0.3562
  183POPC  H12B20948   1.848   3.204   7.935 -4.0435 -0.5059 -0.0675
  183POPC   C1320949   1.871   2.884   7.831  0.6022 -0.6788 -0.4493
  183POPC  H13A20950   1.867   2.909   7.726 -1.0083  2.1549  0.1814
  183POPC  H13B20951   1.972   2.857   7.860  0.6097 -0.1363  0.0551
  183POPC  H13C20952   1.810   2.796   7.839 -0.0893 -0.2793 -1.2271
  183POPC   C1420953   1.891   2.974   8.051  0.8658 -0.5729  0.9934
  183POPC  H14A20954   1.996   2.949   8.042  0.7806 -0.5562 -0.1768
  183POPC  H14B20955   1.878   3.058   8.118 -0.5529  1.0273 -1.1622
  183POPC  H14C20956   1.848   2.885   8.094  2.8202 -2.2407 -0.2967
  183POPC   C1520957   1.680   2.999   7.931 -0.1394 -0.0874 -0.1237
  183POPC  H15A20958   1.648   2.903   7.969  0.3960 -0.5939 -0.9217
  183POPC  H15B20959   1.625   3.022   7.841 -0.1380  0.6541  0.0592
  183POPC  H15C20960   1.648   3.080   7.995  1.1593  1.0178 -0.8087
  183POPC   C1120961   1.833   3.169   7.731 -0.1580 -0.3441  0.4279
  183POPC  H11A20962   1.853   3.278   7.724  0.2050 -0.4425 -0.1050
  183POPC  H11B20963   1.724   3.147   7.722  0.0027 -0.8814 -0.2869
  183POPC     P20964   2.025   3.152   7.549 -0.2037 -0.1095 -0.2809
  183POPC   O1320965   2.075   3.052   7.453 -0.1123 -0.2007  0.1327
  183POPC   O1420966   2.120   3.198   7.657 -0.0469 -0.4868  0.8218
  183POPC   O1220967   1.897   3.096   7.626  0.1878  0.5114  0.6198
  183POPC   O1120968   1.970   3.272   7.470  1.1556  0.7220  1.1898
  183POPC    C120969   1.848   3.279   7.404  0.2716 -0.5028  0.3172
  183POPC    HA20970   1.827   3.387   7.391  1.7621 -0.2736 -0.3631
  183POPC    HB20971   1.766   3.232   7.462 -1.1356  0.3966 -0.8703
  183POPC    C220972   1.861   3.208   7.275 -0.2636 -0.4061 -0.3053
  183POPC    HS20973   1.860   3.098   7.291 -0.8657 -0.2362  0.9622
  183POPC   O2120974   1.972   3.263   7.203  0.5319  0.3044  0.4031
  183POPC   C2120975   2.024   3.176   7.120  0.3213  0.5578  0.0338
  183POPC   O2220976   1.983   3.062   7.107  0.0400  0.0138 -0.4065
  183POPC   C2220977   2.148   3.234   7.054 -0.1938 -1.4830  0.5486
  183POPC   H2R20978   2.172   3.158   6.977 -0.4451 -0.7269 -0.2801
  183POPC   H2S20979   2.225   3.245   7.134  1.4689  3.0911 -1.3816
  183POPC    C320980   1.727   3.237   7.193 -0.1444 -0.2868  0.3964
  183POPC    HX20981   1.727   3.345   7.166  0.3316  0.6268  3.5930
  183POPC    HY20982   1.640   3.218   7.260 -1.3304  0.1607 -0.9747
  183POPC   O3120983   1.724   3.165   7.068 -0.0760  0.4064  0.4405
  183POPC   C3120984   1.687   3.034   7.076  0.0005 -0.7462 -0.2878
  183POPC   O3220985   1.644   2.983   7.179 -0.3914  0.2577  0.4276
  183POPC   C3220986   1.703   2.971   6.941  0.4098 -0.3878  0.7101
  183POPC   H2X20987   1.762   3.041   6.878 -0.0456 -0.8854 -0.2870
  183POPC   H2Y20988   1.596   2.963   6.912  0.5160  2.8000 -1.0278
  183POPC   C2320989   2.121   3.363   6.966  0.1415 -0.0807  0.2247
  183POPC   H3R20990   2.125   3.454   7.029  0.8492  1.8295 -2.4016
  183POPC   H3S20991   2.034   3.362   6.897 -0.0395 -2.1819  0.4051
  183POPC   C2420992   2.229   3.378   6.858  0.0818 -0.8401 -0.1233
  183POPC   H4R20993   2.229   3.292   6.787  5.3044 -1.4153  0.1989
  183POPC   H4S20994   2.330   3.387   6.904 -0.1370  2.1131  0.0138
  183POPC   C2520995   2.216   3.501   6.760  0.2114  0.3912 -0.3090
  183POPC   H5R20996   2.229   3.595   6.818 -2.2199  1.8715 -1.9804
  183POPC   H5S20997   2.122   3.509   6.701  1.9230  1.6465 -3.1212
  183POPC   C2620998   2.317   3.497   6.647 -0.1594 -1.0069  1.0074
  183POPC   H6R20999   2.298   3.414   6.576  0.5784  0.4960 -1.0480
  183POPC   H6S21000   2.417   3.486   6.694  1.2628 -0.2438 -1.6229
  183POPC   C2721001   2.316   3.626   6.557 -0.1744  0.2923 -0.2584
  183POPC   H7R21002   2.344   3.709   6.626 -1.6816 -0.9252  1.9756
  183POPC   H7S21003   2.213   3.642   6.517 -1.0691 -1.1094  1.3374
  183POPC   C2821004   2.418   3.626   6.435  0.4129 -0.3956 -0.8351
  183POPC   H8R21005   2.393   3.527   6.393  1.4128  0.0546 -2.5842
  183POPC   H8S21006   2.523   3.636   6.470 -0.1148 -2.5325  1.7548
  183POPC   C2921007   2.381   3.733   6.329  0.1609  0.9843  0.2169
  183POPC   H9121008   2.346   3.827   6.374 -0.7993 -0.1524  2.0031
  183POPC  C21021009   2.411   3.735   6.205 -0.4813  0.2230  0.4145
  183POPC  H10121010   2.397   3.829   6.151 -1.5711 -0.5822 -0.7829
  183POPC  C21121011   2.462   3.614   6.132  0.7471 -0.1370 -0.3220
  183POPC  H11R21012   2.387   3.544   6.089 -2.0947  2.2072  0.5095
  183POPC  H11S21013   2.527   3.547   6.193  0.8777 -0.5497 -0.8964
  183POPC  C21221014   2.551   3.659   6.016 -0.7453 -0.5503  0.1096
  183POPC  H12R21015   2.616   3.577   5.977  0.3905  1.2556 -2.0641
  183POPC  H12S21016   2.624   3.736   6.048  1.4378 -0.8000 -3.6063
  183POPC  C21321017   2.472   3.717   5.895  0.2050 -0.5361 -0.3972
  183POPC  H13R21018   2.537   3.759   5.815 -0.3651  0.8566 -0.1570
  183POPC  H13S21019   2.412   3.804   5.929  2.0321  1.2767 -1.6281
  183POPC  C21421020   2.386   3.618   5.821  0.1905  0.5405 -0.3104
  183POPC  H14R21021   2.307   3.582   5.891  0.1693 -1.2668 -1.1811
  183POPC  H14S21022   2.446   3.525   5.809  0.8698  0.8114  0.8399
  183POPC  C21521023   2.314   3.671   5.697  0.5427 -0.1318 -0.1642
  183POPC  H15R21024   2.244   3.595   5.657  0.8372 -0.5743  0.1502
  183POPC  H15S21025   2.390   3.708   5.624  2.0917 -0.2529  1.3289
  183POPC  C21621026   2.225   3.794   5.721  0.3792  0.3933  0.8285
  183POPC  H16R21027   2.283   3.882   5.755 -1.1810  1.8401 -0.1195
  183POPC  H16S21028   2.156   3.769   5.804  2.0794 -0.5971  2.0254
  183POPC  C21721029   2.143   3.830   5.607  0.2985 -0.3492  0.6263
  183POPC  H17R21030   2.086   3.736   5.594  1.2365 -0.8418 -0.0205
  183POPC  H17S21031   2.198   3.840   5.511 -1.8912 -0.2470 -0.6799
  183POPC  C21821032   2.045   3.946   5.634  0.3083 -0.2379  0.2730
  183POPC  H18R21033   1.973   3.920   5.715  0.3639  2.0619  1.1378
  183POPC  H18S21034   1.990   3.976   5.543  1.5854  0.4417 -0.2978
  183POPC  H18T21035   2.106   4.029   5.676  0.8315 -0.3060 -0.3306
  183POPC   C3321036   1.767   2.834   6.940  0.9211  0.1741  0.4117
  183POPC   H3X21037   1.749   2.798   7.043  0.2587  1.6001  0.8153
  183POPC   H3Y21038   1.877   2.844   6.932  0.9657 -1.3884 -1.8207
  183POPC   C3421039   1.715   2.744   6.835  0.1867 -0.3207  0.3980
  183POPC   H4X21040   1.612   2.714   6.865 -0.0357 -0.3656 -0.3853
  183POPC   H4Y21041   1.766   2.646   6.826 -2.4819 -1.5750 -3.4094
  183POPC   C3521042   1.701   2.807   6.691 -0.0827 -0.5215 -0.2639
  183POPC   H5X21043   1.798   2.845   6.654  0.0746 -0.9062 -0.2478
  183POPC   H5Y21044   1.628   2.890   6.705  0.3626 -0.6059  3.9747
  183POPC   C3621045   1.642   2.703   6.588  0.2496  0.2262 -0.4089
  183POPC   H6X21046   1.546   2.660   6.624 -0.6743  1.2563 -1.5452
  183POPC   H6Y21047   1.708   2.614   6.584  1.3289  0.8309  1.9558
  183POPC   C3721048   1.623   2.745   6.443 -0.0253 -0.9795 -1.1887
  183POPC   H7X21049   1.697   2.822   6.412 -2.3583  1.5294 -0.9065
  183POPC   H7Y21050   1.535   2.813   6.441 -1.2048 -2.3484  0.9486
  183POPC   C3821051   1.602   2.627   6.340  0.7527  0.3408 -0.3517
  183POPC   H8X21052   1.515   2.573   6.382  1.8345 -0.0204  1.5612
  183POPC   H8Y21053   1.683   2.552   6.349 -0.5934 -1.1050 -0.0339
  183POPC   C3921054   1.578   2.674   6.194 -0.5463 -0.3018  0.3029
  183POPC   H9X21055   1.658   2.748   6.173 -1.1496  0.6188  1.1194
  183POPC   H9Y21056   1.482   2.730   6.196 -0.9152 -0.8858 -0.7455
  183POPC  C31021057   1.572   2.563   6.090 -0.1189  0.1357  0.3665
  183POPC  H10X21058   1.499   2.487   6.124 -0.1360 -0.4380 -0.9092
  183POPC  H10Y21059   1.673   2.515   6.088 -0.0689  0.0555  2.3471
  183POPC  C31121060   1.531   2.618   5.949  1.3237  0.9982 -0.4266
  183POPC  H11X21061   1.591   2.711   5.934 -0.8991  2.6432  0.3166
  183POPC  H11Y21062   1.426   2.654   5.961  0.9446  0.6251 -2.3220
  183POPC  C31221063   1.530   2.517   5.836 -0.2844  0.2569  0.2254
  183POPC  H12X21064   1.636   2.495   5.809  0.1363 -1.5745  2.9506
  183POPC  H12Y21065   1.472   2.564   5.754  0.4479 -2.5771 -2.0857
  183POPC  C31321066   1.464   2.381   5.872  0.3103  0.4160 -0.2215
  183POPC  H13X21067   1.367   2.404   5.922  1.2160  2.5059  0.7183
  183POPC  H13Y21068   1.533   2.340   5.949  0.4424  3.8533  1.7077
  183POPC  C31421069   1.446   2.306   5.746  1.0297 -0.2310  0.0781
  183POPC  H14X21070   1.538   2.281   5.689  0.7601  0.4240 -0.6692
  183POPC  H14Y21071   1.387   2.368   5.675  0.5136 -2.0269 -1.1486
  183POPC  C31521072   1.382   2.166   5.764  0.5858  0.4748 -0.5702
  183POPC  H15X21073   1.280   2.169   5.808  1.0546 -0.2635  0.6000
  183POPC  H15Y21074   1.444   2.103   5.832 -0.2712 -2.4523 -2.3158
  183POPC  C31621075   1.371   2.099   5.625  0.2826  0.5109 -0.3616
  183POPC  H16X21076   1.336   1.994   5.633 -3.3218  1.4663 -1.3035
  183POPC  H16Y21077   1.473   2.075   5.589  0.0368 -0.7176 -0.2705
  183POPC  H16Z21078   1.316   2.157   5.548  0.0665  2.5199  1.1981
  184POPC     N21079   0.757   5.748   7.983 -0.2846  0.7813  0.1285
  184POPC   C1221080   0.844   5.842   7.906 -0.0432  0.9357  0.0851
  184POPC  H12A21081   0.940   5.795   7.895 -0.3549  0.0699  0.9618
  184POPC  H12B21082   0.861   5.923   7.976 -0.7251 -0.5560  2.0655
  184POPC   C1321083   0.637   5.815   8.043 -0.4053  0.2387 -0.3071
  184POPC  H13A21084   0.582   5.743   8.102  0.5020 -0.7125 -0.5747
  184POPC  H13B21085   0.661   5.888   8.118 -0.7812 -1.5341  1.6394
  184POPC  H13C21086   0.560   5.859   7.982 -0.4165  0.3937 -0.1822
  184POPC   C1421087   0.706   5.636   7.889  0.2520  0.5211 -0.0975
  184POPC  H14A21088   0.640   5.570   7.943  0.5738  0.3743  0.1238
  184POPC  H14B21089   0.675   5.670   7.791 -2.3469 -0.1207  0.4528
  184POPC  H14C21090   0.795   5.577   7.873 -0.1899 -0.1482 -0.0875
  184POPC   C1521091   0.835   5.688   8.098  0.2743 -0.5838 -0.3307
  184POPC  H15A21092   0.883   5.760   8.163 -0.2647 -1.8155  1.5139
  184POPC  H15B21093   0.916   5.626   8.062  1.6288  1.8542 -1.7348
  184POPC  H15C21094   0.770   5.632   8.163  0.0792  0.1878  0.1418
  184POPC   C1121095   0.794   5.887   7.772  0.3726  0.1056 -0.4700
  184POPC  H11A21096   0.845   5.984   7.756  3.4114 -1.5901 -1.7693
  184POPC  H11B21097   0.686   5.910   7.785  0.1943 -0.7804 -0.2775
  184POPC     P21098   0.742   5.796   7.528  0.0644 -0.0531  0.1131
  184POPC   O1321099   0.596   5.801   7.560  0.8974 -0.1900  0.9042
  184POPC   O1421100   0.789   5.680   7.452  0.5948 -0.6988  0.4965
  184POPC   O1221101   0.824   5.794   7.665 -0.1468 -0.1882  0.7127
  184POPC   O1121102   0.764   5.935   7.451  0.1233  0.2781  0.0424
  184POPC    C121103   0.903   5.960   7.416  0.1969 -0.5107  0.5004
  184POPC    HA21104   0.960   5.866   7.397 -2.1543 -1.5436 -2.0323
  184POPC    HB21105   0.954   6.013   7.499 -0.1802 -1.9966  1.7284
  184POPC    C221106   0.912   6.053   7.288 -0.1602  0.1244  0.0039
  184POPC    HS21107   0.907   6.161   7.316  0.0439  0.8148 -2.3417
  184POPC   O2121108   0.813   6.018   7.194 -0.1316 -0.2964  1.1030
  184POPC   C2121109   0.688   6.049   7.210  0.3216  0.2887  0.3323
  184POPC   O2221110   0.650   6.139   7.281 -0.2090 -0.1826 -0.5854
  184POPC   C2221111   0.598   5.984   7.113  0.5913 -0.0423 -0.0872
  184POPC   H2R21112   0.576   6.073   7.051 -0.6622 -0.2203  0.0726
  184POPC   H2S21113   0.508   5.948   7.166  0.6021  0.6781  0.4316
  184POPC    C321114   1.050   6.037   7.224  0.7739 -0.3799  0.2519
  184POPC    HX21115   1.122   6.075   7.299 -0.1094  1.6118  0.1597
  184POPC    HY21116   1.051   6.110   7.140  2.0668  1.8414  2.0677
  184POPC   O3121117   1.082   5.905   7.185 -0.0270  0.0806  0.5211
  184POPC   C3121118   1.052   5.871   7.056  0.4889  0.1969  0.2643
  184POPC   O3221119   1.000   5.947   6.977  0.7021  0.0210 -0.1685
  184POPC   C3221120   1.113   5.738   7.035 -0.3720 -0.2718  0.1389
  184POPC   H2X21121   1.036   5.674   7.082 -0.9025  1.9388  2.5198
  184POPC   H2Y21122   1.210   5.726   7.089  1.4420 -0.7410 -2.9474
  184POPC   C2321123   0.667   5.874   7.035 -0.6969  0.2269  0.0861
  184POPC   H3R21124   0.698   5.801   7.113 -3.5508  1.5136  2.6577
  184POPC   H3S21125   0.743   5.918   6.967 -1.0362 -0.4026 -0.7121
  184POPC   C2421126   0.576   5.799   6.927 -0.4966 -0.1101 -0.5934
  184POPC   H4R21127   0.523   5.871   6.861  0.2746 -0.3959 -1.5419
  184POPC   H4S21128   0.495   5.739   6.974 -1.2552  0.2497 -1.3961
  184POPC   C2521129   0.661   5.700   6.835  0.6593 -0.4551  0.1026
  184POPC   H5R21130   0.588   5.653   6.766  0.4236  2.0379 -1.4755
  184POPC   H5S21131   0.719   5.625   6.892 -1.2518 -2.2211 -0.1764
  184POPC   C2621132   0.758   5.760   6.735  0.5200 -0.0356  0.6045
  184POPC   H6R21133   0.835   5.825   6.783  0.0778  1.8448 -1.0999
  184POPC   H6S21134   0.705   5.834   6.672 -2.5879 -1.0997  1.7822
  184POPC   C2721135   0.833   5.655   6.652  0.1346  0.3680 -0.0950
  184POPC   H7R21136   0.772   5.600   6.576  1.7278 -1.1831 -0.3169
  184POPC   H7S21137   0.863   5.569   6.716  0.7872 -0.6224 -1.6758
  184POPC   C2821138   0.953   5.717   6.577  0.0541 -0.0505  0.2500
  184POPC   H8R21139   1.000   5.787   6.649 -3.7961  1.3315  1.7276
  184POPC   H8S21140   0.913   5.778   6.493 -0.3965 -1.9948 -1.0120
  184POPC   C2921141   1.031   5.601   6.529 -0.0892  0.5119  0.4776
  184POPC   H9121142   1.064   5.539   6.613 -0.2313 -1.5003 -0.9054
  184POPC  C21021143   1.058   5.565   6.403 -0.4429  0.1809 -0.0334
  184POPC  H10121144   1.100   5.465   6.380 -1.4260 -0.9513  2.6867
  184POPC  C21121145   1.029   5.649   6.285  0.6377  0.4994  0.8426
  184POPC  H11R21146   1.090   5.630   6.194  1.4657  0.9908  1.2845
  184POPC  H11S21147   1.047   5.755   6.311 -1.6698  1.2861 -0.5742
  184POPC  C21221148   0.882   5.657   6.234  0.4503  0.4237 -0.1243
  184POPC  H12R21149   0.806   5.636   6.312  0.8862  1.6724  0.6761
  184POPC  H12S21150   0.877   5.568   6.167  0.5978  1.7029 -1.9067
  184POPC  C21321151   0.856   5.778   6.144  0.4587 -0.3406 -0.3137
  184POPC  H13R21152   0.946   5.780   6.079  0.6865 -0.9348 -0.0175
  184POPC  H13S21153   0.861   5.868   6.208  1.2308  0.1733 -1.0686
  184POPC  C21421154   0.721   5.775   6.075 -0.2326  0.3851 -0.3191
  184POPC  H14R21155   0.692   5.877   6.041 -1.8608 -0.5863 -2.0065
  184POPC  H14S21156   0.645   5.748   6.152  1.3079 -4.7264 -0.2728
  184POPC  C21521157   0.700   5.666   5.964 -0.3747 -0.0808 -0.6892
  184POPC  H15R21158   0.593   5.635   5.959 -1.0325  1.9496 -0.1709
  184POPC  H15S21159   0.757   5.576   5.997  0.5610  2.0936  4.6016
  184POPC  C21621160   0.739   5.720   5.828  0.1257  0.3016  0.0450
  184POPC  H16R21161   0.845   5.754   5.827  0.6417 -1.2588 -1.1242
  184POPC  H16S21162   0.675   5.805   5.795  0.7331  0.5134 -0.6139
  184POPC  C21721163   0.716   5.611   5.717 -0.2324 -0.3287  0.3908
  184POPC  H17R21164   0.612   5.575   5.732 -0.7249  1.0901  0.5380
  184POPC  H17S21165   0.777   5.524   5.752  3.8313  2.1099  0.0643
  184POPC  C21821166   0.752   5.653   5.570 -0.4907 -0.4967 -0.0250
  184POPC  H18R21167   0.862   5.659   5.567 -0.4319 -0.4793  1.5048
  184POPC  H18S21168   0.697   5.746   5.544  0.3385  0.4551  1.4524
  184POPC  H18T21169   0.729   5.562   5.509  0.4017 -1.0421  0.4379
  184POPC   C3321170   1.131   5.696   6.888 -0.4173 -0.1294 -0.6506
  184POPC   H3X21171   1.182   5.771   6.824 -1.0064  1.0428  0.1943
  184POPC   H3Y21172   1.026   5.688   6.851  0.0155  0.1670 -1.9617
  184POPC   C3421173   1.203   5.562   6.896  0.0584  0.2065  0.5661
  184POPC   H4X21174   1.299   5.578   6.949  0.1301  0.6421  0.3161
  184POPC   H4Y21175   1.227   5.538   6.790  1.6699 -2.7508  1.4942
  184POPC   C3521176   1.115   5.446   6.942  0.0877 -0.0388 -0.4892
  184POPC   H5X21177   1.023   5.435   6.880  0.5413 -1.8857 -0.9097
  184POPC   H5Y21178   1.078   5.456   7.046  0.5009 -1.6895 -0.1525
  184POPC   C3621179   1.185   5.315   6.950  0.5305  0.1190  0.3527
  184POPC   H6X21180   1.108   5.240   6.976  2.3845 -1.4031  1.7965
  184POPC   H6Y21181   1.255   5.307   7.036  0.8222  2.4435  0.3795
  184POPC   C3721182   1.276   5.270   6.831  0.4761  0.0360  0.2812
  184POPC   H7X21183   1.334   5.178   6.852  0.4141 -0.0536  0.0625
  184POPC   H7Y21184   1.356   5.343   6.807  0.1414  0.4418  0.3913
  184POPC   C3821185   1.206   5.253   6.695  0.1171  0.0155  0.2154
  184POPC   H8X21186   1.123   5.327   6.698  0.2795  0.2055  3.1318
  184POPC   H8Y21187   1.150   5.158   6.710  1.2746 -0.5909  0.8274
  184POPC   C3921188   1.283   5.256   6.564  0.4624  0.1938 -0.2148
  184POPC   H9X21189   1.380   5.202   6.574 -1.3588 -2.9594  3.2325
  184POPC   H9Y21190   1.302   5.363   6.542 -1.4057  0.8127  0.9097
  184POPC  C31021191   1.203   5.181   6.455  0.8218  0.0478  0.1234
  184POPC  H10X21192   1.094   5.201   6.464  1.3509  2.7401  1.4560
  184POPC  H10Y21193   1.216   5.071   6.470  1.3246  0.1014  0.0824
  184POPC  C31121194   1.257   5.223   6.315 -0.1112 -1.0092  0.0799
  184POPC  H11X21195   1.363   5.188   6.305 -0.2740 -1.2902 -0.8107
  184POPC  H11Y21196   1.258   5.333   6.301 -0.3642 -0.6917  2.2236
  184POPC  C31221197   1.164   5.177   6.202 -1.1953  0.2816  0.4607
  184POPC  H12X21198   1.077   5.246   6.209 -0.9827  0.9640 -2.5383
  184POPC  H12Y21199   1.142   5.071   6.227 -0.5045  0.3077  1.2188
  184POPC  C31321200   1.223   5.192   6.059  0.0773 -0.1708  0.4615
  184POPC  H13X21201   1.185   5.113   5.990 -0.4644  0.8608 -0.4581
  184POPC  H13Y21202   1.331   5.169   6.057  0.7811  2.7775  0.5308
  184POPC  C31421203   1.213   5.336   6.001  0.0579 -0.0750 -0.1134
  184POPC  H14X21204   1.252   5.339   5.897  0.5881 -1.7468 -0.0060
  184POPC  H14Y21205   1.284   5.388   6.069 -2.0733  1.8907  0.6952
  184POPC  C31521206   1.071   5.388   6.002 -0.2579 -0.2028  0.5090
  184POPC  H15X21207   1.027   5.400   6.103  1.7222 -1.2210  1.5403
  184POPC  H15Y21208   1.010   5.305   5.960 -0.4149 -0.0797  0.4927
  184POPC  C31621209   1.056   5.514   5.916 -0.5806 -0.2410  0.0954
  184POPC  H16X21210   0.951   5.539   5.890 -0.2958  0.5680 -0.3170
  184POPC  H16Y21211   1.096   5.488   5.815  2.1282  1.0352  0.7620
  184POPC  H16Z21212   1.110   5.604   5.950 -2.2748  1.4034 -1.3292
  185POPC     N21213   4.524   6.879   2.888 -0.1576 -0.4928 -0.6341
  185POPC   C1221214   4.607   6.943   3.006  0.6356  0.8390  0.1445
  185POPC  H12A21215   4.680   7.011   2.964  0.7055 -0.2713 -1.6226
  185POPC  H12B21216   4.664   6.863   3.050 -0.4275  0.5788  1.0882
  185POPC   C1321217   4.461   6.753   2.930 -0.2593  0.2107 -0.1573
  185POPC  H13A21218   4.414   6.700   2.849  0.1617 -2.2646  1.1282
  185POPC  H13B21219   4.521   6.683   2.985  0.2247 -1.5090 -2.7218
  185POPC  H13C21220   4.379   6.783   2.994 -0.5776  0.7503 -0.8049
  185POPC   C1421221   4.423   6.976   2.829  0.2286 -0.2296 -0.7369
  185POPC  H14A21222   4.477   7.050   2.773  1.2742 -1.9287 -2.0905
  185POPC  H14B21223   4.358   6.924   2.759 -0.9839  1.0987 -0.6539
  185POPC  H14C21224   4.366   7.031   2.902  0.3558 -1.5780  0.4212
  185POPC   C1521225   4.620   6.841   2.775  0.0493 -0.2485  0.3223
  185POPC  H15A21226   4.572   6.804   2.686  0.0813 -1.1533  0.6625
  185POPC  H15B21227   4.691   6.766   2.809 -1.7413 -1.1018  2.5182
  185POPC  H15C21228   4.672   6.929   2.742  0.8796 -0.4479  1.0373
  185POPC   C1121229   4.523   6.994   3.122  0.0283 -0.4893  0.5416
  185POPC  H11A21230   4.595   7.029   3.199  0.1019 -1.0105  0.7083
  185POPC  H11B21231   4.463   6.910   3.162 -0.4084 -0.4908 -0.1061
  185POPC     P21232   4.489   7.253   3.059 -0.1145 -0.0002 -0.2031
  185POPC   O1321233   4.417   7.307   2.946  0.0623 -0.8785  0.7351
  185POPC   O1421234   4.636   7.268   3.069 -0.1653 -0.4097 -0.9580
  185POPC   O1221235   4.436   7.101   3.082 -0.3958  0.0247 -0.3764
  185POPC   O1121236   4.429   7.319   3.182 -0.0314  0.4092  0.2605
  185POPC    C121237   4.454   7.283   3.314  0.5261 -0.8238 -0.4036
  185POPC    HA21238   4.525   7.198   3.323  0.3747 -1.0040 -0.8951
  185POPC    HB21239   4.358   7.256   3.363 -0.2478  2.0121 -0.1770
  185POPC    C221240   4.514   7.407   3.385 -0.0540  0.0504  1.2362
  185POPC    HS21241   4.611   7.427   3.334  0.4874 -1.1411  1.7497
  185POPC   O2121242   4.531   7.360   3.518  0.6121 -0.2777  0.1173
  185POPC   C2121243   4.636   7.411   3.578  0.6616  0.1542  0.0471
  185POPC   O2221244   4.713   7.488   3.527  0.1625 -0.0317 -0.7254
  185POPC   C2221245   4.631   7.365   3.724 -0.1712  0.0770 -0.4317
  185POPC   H2R21246   4.605   7.257   3.722 -2.5469  0.6109 -1.4246
  185POPC   H2S21247   4.563   7.421   3.792 -1.4363 -0.8484 -0.8875
  185POPC    C321248   4.432   7.539   3.368 -0.0002  0.3831 -0.9170
  185POPC    HX21249   4.329   7.504   3.394 -0.1805  1.0201 -0.7533
  185POPC    HY21250   4.425   7.572   3.262 -0.6265  2.8882 -0.1701
  185POPC   O3121251   4.464   7.648   3.450 -0.2484 -0.3655 -0.6830
  185POPC   C3121252   4.530   7.754   3.403 -0.4550  0.1340 -0.8133
  185POPC   O3221253   4.572   7.759   3.289  0.6067  0.2577  0.6095
  185POPC   C3221254   4.535   7.863   3.513 -0.4054 -0.2114 -0.2932
  185POPC   H2X21255   4.433   7.881   3.553 -0.4496 -0.8384 -0.1188
  185POPC   H2Y21256   4.557   7.957   3.457 -0.3568 -0.3924 -0.5793
  185POPC   C2321257   4.769   7.378   3.801  0.8310  0.3587  0.3519
  185POPC   H3R21258   4.791   7.487   3.801 -0.5060  0.6752 -1.1833
  185POPC   H3S21259   4.854   7.332   3.744 -0.8599 -1.2960 -0.9701
  185POPC   C2421260   4.752   7.316   3.934 -0.7930 -0.3955  0.6071
  185POPC   H4R21261   4.855   7.313   3.976 -0.2068  2.9804 -0.3573
  185POPC   H4S21262   4.726   7.208   3.928 -1.6573 -0.1142 -1.4493
  185POPC   C2521263   4.674   7.397   4.040 -0.2656 -0.0920  0.4947
  185POPC   H5R21264   4.568   7.382   4.009 -0.2493  0.2718  0.2611
  185POPC   H5S21265   4.712   7.500   4.027  0.4464 -0.5605 -1.5421
  185POPC   C2621266   4.703   7.364   4.183 -0.1468 -0.4350  0.2407
  185POPC   H6R21267   4.711   7.456   4.244 -1.0578 -0.4578  0.4056
  185POPC   H6S21268   4.795   7.302   4.192 -0.1341 -1.3753 -4.2473
  185POPC   C2721269   4.585   7.278   4.236 -0.4949  0.4755 -0.9769
  185POPC   H7R21270   4.550   7.217   4.149 -1.1044  2.2393 -2.0159
  185POPC   H7S21271   4.512   7.353   4.273 -2.5525 -2.3699  1.2828
  185POPC   C2821272   4.629   7.186   4.343 -0.5529 -0.1458  0.3039
  185POPC   H8R21273   4.707   7.118   4.303  0.6627  0.4590  1.5751
  185POPC   H8S21274   4.542   7.120   4.364  0.1594 -1.8912 -1.8382
  185POPC   C2921275   4.695   7.251   4.459  0.4229 -0.3848 -0.8554
  185POPC   H9121276   4.624   7.308   4.521  0.8283 -1.1713  0.3792
  185POPC  C21021277   4.822   7.232   4.512  0.7261  0.0892  0.0052
  185POPC  H10121278   4.857   7.285   4.601  0.1559 -0.9029  0.8358
  185POPC  C21121279   4.929   7.137   4.458  0.5149 -0.3728  0.3461
  185POPC  H11R21280   5.021   7.198   4.462 -1.1946  2.3934  0.4296
  185POPC  H11S21281   4.912   7.112   4.351  0.1695 -0.2364  0.3676
  185POPC  C21221282   4.948   7.009   4.540  0.0539 -0.2255  0.6609
  185POPC  H12R21283   5.013   6.942   4.480 -0.1318  2.0319 -2.2563
  185POPC  H12S21284   4.857   6.944   4.543  1.0205 -1.7466 -0.8642
  185POPC  C21321285   5.014   7.041   4.675 -0.6377 -0.0674  0.2845
  185POPC  H13R21286   4.942   7.101   4.734 -1.0294 -0.8840  0.6389
  185POPC  H13S21287   5.101   7.105   4.648 -1.8195  1.1704 -0.7709
  185POPC  C21421288   5.054   6.916   4.755  1.0213 -0.6487  0.5839
  185POPC  H14R21289   5.124   6.845   4.707  1.2470 -0.6846  0.9654
  185POPC  H14S21290   4.962   6.855   4.772  0.0622  1.0190  1.7413
  185POPC  C21521291   5.135   6.962   4.885  0.5484  0.3547  0.1324
  185POPC  H15R21292   5.091   7.041   4.950  1.2434 -0.9849  2.3387
  185POPC  H15S21293   5.220   7.012   4.834  0.8253 -0.4849 -0.2411
  185POPC  C21621294   5.174   6.851   4.974  0.5398  0.3674 -0.7362
  185POPC  H16R21295   5.207   6.756   4.926  0.4447 -0.9632  1.7051
  185POPC  H16S21296   5.091   6.807   5.032  0.1872 -1.0616 -2.2369
  185POPC  C21721297   5.291   6.879   5.080 -0.0363 -0.8824  0.0110
  185POPC  H17R21298   5.257   6.971   5.133  2.5334  1.0596 -1.5106
  185POPC  H17S21299   5.387   6.905   5.031 -0.1369 -0.7141 -0.1009
  185POPC  C21821300   5.322   6.769   5.186 -0.0362  0.4137  0.9942
  185POPC  H18R21301   5.400   6.810   5.253  2.2023 -0.1343 -1.1463
  185POPC  H18S21302   5.355   6.676   5.136 -2.3070 -0.5377  1.1165
  185POPC  H18T21303   5.237   6.737   5.251 -2.3533  2.7307 -0.6802
  185POPC   C3321304   4.639   7.845   3.620 -0.4927  0.7524 -0.7931
  185POPC   H3X21305   4.709   7.929   3.641  0.3640 -0.7123  3.1200
  185POPC   H3Y21306   4.703   7.759   3.589 -2.3054 -0.5389 -1.0943
  185POPC   C3421307   4.577   7.806   3.761  0.4005  0.8577  0.3434
  185POPC   H4X21308   4.545   7.699   3.760 -0.3692  1.0611 -1.4665
  185POPC   H4Y21309   4.492   7.876   3.776 -0.4614  0.9565 -3.7868
  185POPC   C3521310   4.660   7.811   3.894 -0.4853  0.3026  0.0807
  185POPC   H5X21311   4.700   7.914   3.898  2.8797 -0.9115  0.8387
  185POPC   H5Y21312   4.754   7.752   3.884 -0.8365 -0.4862  1.1784
  185POPC   C3621313   4.584   7.769   4.019  0.0460 -0.2897 -0.8269
  185POPC   H6X21314   4.563   7.660   4.011  0.1077 -0.4556  0.9335
  185POPC   H6Y21315   4.481   7.809   4.036  0.2280  0.4042 -1.3236
  185POPC   C3721316   4.669   7.800   4.145  0.6875 -0.2582  0.4390
  185POPC   H7X21317   4.670   7.911   4.148  0.0471 -0.2324 -0.0537
  185POPC   H7Y21318   4.776   7.771   4.139  1.1068  1.3306 -0.6514
  185POPC   C3821319   4.608   7.740   4.275  0.2004 -0.3217  0.0953
  185POPC   H8X21320   4.600   7.630   4.259 -1.6861  0.0361 -1.9989
  185POPC   H8Y21321   4.507   7.787   4.282 -0.3806 -1.4302 -0.4103
  185POPC   C3921322   4.678   7.770   4.408 -0.1210  0.1240 -0.3280
  185POPC   H9X21323   4.677   7.879   4.429 -1.6185 -0.0343  0.5544
  185POPC   H9Y21324   4.782   7.733   4.401 -0.1004  0.2941 -1.0154
  185POPC  C31021325   4.605   7.713   4.529 -0.2799 -0.1763  0.0035
  185POPC  H10X21326   4.587   7.605   4.506  2.4077 -0.9453  1.1089
  185POPC  H10Y21327   4.504   7.757   4.529 -1.2242 -2.2182  0.4887
  185POPC  C31121328   4.685   7.735   4.657 -0.0757 -0.5959 -0.8276
  185POPC  H11X21329   4.675   7.838   4.697  0.7995 -1.1062  0.7927
  185POPC  H11Y21330   4.793   7.727   4.632  0.3666  1.5026  0.1345
  185POPC  C31221331   4.656   7.628   4.764 -0.3504  0.2539  0.3502
  185POPC  H12X21332   4.652   7.528   4.716 -0.2183  0.3980  0.0394
  185POPC  H12Y21333   4.553   7.645   4.804 -0.7838  1.9759 -1.3698
  185POPC  C31321334   4.757   7.636   4.875 -0.1621  0.0316 -0.1321
  185POPC  H13X21335   4.757   7.737   4.922  1.7515 -0.5043  1.1593
  185POPC  H13Y21336   4.853   7.618   4.823  1.4376  1.2213  2.2312
  185POPC  C31421337   4.743   7.535   4.986  0.1320 -0.2314  0.7886
  185POPC  H14X21338   4.634   7.517   4.996  0.3086 -1.1076  1.2301
  185POPC  H14Y21339   4.788   7.583   5.075  0.3751 -0.5574  0.8439
  185POPC  C31521340   4.816   7.397   4.958 -0.1546  0.3173  0.0088
  185POPC  H15X21341   4.802   7.344   5.055 -4.0580 -2.1574 -1.6157
  185POPC  H15Y21342   4.922   7.413   4.929  0.0113 -2.0003 -0.8500
  185POPC  C31621343   4.767   7.309   4.855  0.6428 -0.2611 -0.4841
  185POPC  H16X21344   4.762   7.358   4.755  0.7280  1.3877  0.3060
  185POPC  H16Y21345   4.662   7.282   4.880 -0.4145  2.5876 -1.4413
  185POPC  H16Z21346   4.843   7.228   4.846  1.6190  0.7396 -1.5582
  186POPC     N21347   0.634   5.626   2.711 -0.7447  0.2074 -0.0004
  186POPC   C1221348   0.726   5.628   2.830 -0.0273  0.1523  0.4648
  186POPC  H12A21349   0.731   5.523   2.854 -1.9536  0.0420  0.4922
  186POPC  H12B21350   0.679   5.667   2.918 -2.5998 -1.1742 -0.2327
  186POPC   C1321351   0.496   5.581   2.743  0.2198 -0.0833  0.5579
  186POPC  H13A21352   0.502   5.495   2.807  1.7932 -0.3485  0.0901
  186POPC  H13B21353   0.436   5.655   2.793  0.8753  1.9254 -1.4370
  186POPC  H13C21354   0.450   5.549   2.650 -0.1726  0.1853  0.6547
  186POPC   C1421355   0.616   5.765   2.647  0.4348 -0.5978  0.3039
  186POPC  H14A21356   0.564   5.761   2.553 -0.3519 -0.5246  0.7251
  186POPC  H14B21357   0.567   5.840   2.707  2.7617  3.0245 -2.0025
  186POPC  H14C21358   0.713   5.798   2.613  1.4766 -0.7599  2.8588
  186POPC   C1521359   0.693   5.533   2.602  0.2325 -0.3242  0.1220
  186POPC  H15A21360   0.635   5.533   2.511 -0.8507 -1.2610  0.7873
  186POPC  H15B21361   0.709   5.431   2.633  1.4310 -1.1424 -2.7760
  186POPC  H15C21362   0.789   5.580   2.581 -0.1217  0.9800  1.2736
  186POPC   C1121363   0.866   5.698   2.814 -0.2502  0.1986 -0.3371
  186POPC  H11A21364   0.926   5.651   2.733 -1.7642  0.7988 -1.8521
  186POPC  H11B21365   0.929   5.676   2.903 -0.8010  0.6851  0.1834
  186POPC     P21366   0.835   5.944   2.910 -0.0333  0.0780 -0.0577
  186POPC   O1321367   0.694   5.939   2.961  0.2081 -1.1702  0.6489
  186POPC   O1421368   0.878   6.073   2.857  0.1632 -0.8837 -0.4800
  186POPC   O1221369   0.859   5.837   2.797 -0.2907  0.3260  0.2953
  186POPC   O1121370   0.929   5.899   3.029  0.1175 -0.4734  0.2993
  186POPC    C121371   0.892   5.821   3.134 -0.4892  0.2688  0.2667
  186POPC    HA21372   0.976   5.751   3.157 -0.0833  0.5969 -0.2071
  186POPC    HB21373   0.805   5.754   3.115  0.7777 -1.5374  0.5795
  186POPC    C221374   0.855   5.901   3.262  0.6202  0.2051 -0.2403
  186POPC    HS21375   0.748   5.926   3.252  1.0701  3.2811  1.4227
  186POPC   O2121376   0.928   6.018   3.282 -0.3872  0.0332  0.4515
  186POPC   C2121377   0.858   6.121   3.324 -1.0656 -0.5316 -0.0737
  186POPC   O2221378   0.744   6.122   3.364 -0.0225 -0.6478  0.1558
  186POPC   C2221379   0.959   6.238   3.338 -0.3824  0.5623 -0.6219
  186POPC   H2R21380   0.922   6.319   3.272  0.1402  1.5498  0.2639
  186POPC   H2S21381   1.060   6.210   3.303  1.6010  2.7072  2.7652
  186POPC    C321382   0.873   5.814   3.382  0.4206 -0.4802 -0.5434
  186POPC    HX21383   0.978   5.776   3.386 -0.3947 -2.9679 -1.2376
  186POPC    HY21384   0.806   5.726   3.373  0.8653 -0.7147 -1.7027
  186POPC   O3121385   0.843   5.891   3.500 -0.0258  0.7341 -0.0270
  186POPC   C3121386   0.729   5.869   3.557 -0.1037 -1.1434 -0.3183
  186POPC   O3221387   0.646   5.788   3.528 -0.0135  0.0661  0.0549
  186POPC   C3221388   0.722   5.968   3.674 -0.0531  0.0974 -0.2737
  186POPC   H2X21389   0.702   6.066   3.626  2.1566  0.1828 -1.1249
  186POPC   H2Y21390   0.820   5.964   3.726  0.4170  0.8531 -1.0902
  186POPC   C2321391   0.967   6.298   3.481  0.4706  0.1991 -0.1590
  186POPC   H3R21392   0.859   6.315   3.502  0.4060  1.1092 -1.1233
  186POPC   H3S21393   1.018   6.397   3.490 -1.9005  1.4289  0.8823
  186POPC   C2421394   1.027   6.194   3.580 -0.1633 -0.3242 -0.1229
  186POPC   H4R21395   1.133   6.185   3.546  0.1671 -0.7709  0.9940
  186POPC   H4S21396   0.981   6.093   3.573  1.2188 -1.2006  2.2449
  186POPC   C2521397   1.034   6.252   3.724 -0.1912 -0.7127  0.5938
  186POPC   H5R21398   0.930   6.282   3.750  0.5799  1.5039  1.2638
  186POPC   H5S21399   1.105   6.335   3.737  0.2762 -1.1962  1.1657
  186POPC   C2621400   1.069   6.141   3.826 -0.3782  0.5696 -0.1843
  186POPC   H6R21401   1.172   6.107   3.799  1.1940  1.7492  3.6173
  186POPC   H6S21402   1.007   6.049   3.819 -0.2840  0.2742  2.0058
  186POPC   C2721403   1.069   6.190   3.970 -0.0118 -0.0399  0.4470
  186POPC   H7R21404   0.966   6.229   3.981 -0.8666 -2.2866  0.8315
  186POPC   H7S21405   1.144   6.271   3.986 -0.7598  0.9024 -0.6375
  186POPC   C2821406   1.078   6.084   4.084 -0.6725  0.1634  0.8286
  186POPC   H8R21407   1.009   5.998   4.073  0.1036 -0.3382 -0.2176
  186POPC   H8S21408   1.053   6.131   4.182  0.0452  1.7489  0.2815
  186POPC   C2921409   1.223   6.044   4.087  0.1523 -0.1717  0.5778
  186POPC   H9121410   1.264   5.984   4.004  1.2725  2.4154 -0.8344
  186POPC  C21021411   1.310   6.070   4.183 -0.5869  0.1175  0.7829
  186POPC  H10121412   1.408   6.022   4.176 -0.8827 -0.2887 -0.8921
  186POPC  C21121413   1.280   6.162   4.305 -0.6946  0.2866  0.1227
  186POPC  H11R21414   1.222   6.252   4.278 -1.0971 -0.5304 -1.9305
  186POPC  H11S21415   1.377   6.188   4.354 -1.5420  0.7646  1.6157
  186POPC  C21221416   1.200   6.081   4.415 -0.3855 -0.4158  0.0888
  186POPC  H12R21417   1.152   5.987   4.381 -0.8927  0.1290 -0.7631
  186POPC  H12S21418   1.124   6.152   4.454 -1.1173 -0.0425 -1.8750
  186POPC  C21321419   1.293   6.049   4.532 -0.6124  0.5134 -0.3004
  186POPC  H13R21420   1.350   6.139   4.564  0.0636  0.6036 -1.6659
  186POPC  H13S21421   1.364   5.975   4.490 -1.9696  0.0730 -1.9134
  186POPC  C21421422   1.222   5.999   4.656 -0.0226  0.0456  0.6485
  186POPC  H14R21423   1.172   5.903   4.632  0.9390 -0.5908  1.1390
  186POPC  H14S21424   1.148   6.078   4.681 -0.4398  0.0740 -0.5826
  186POPC  C21521425   1.318   5.984   4.778  0.5511  0.4751 -0.6401
  186POPC  H15R21426   1.389   6.068   4.788  1.0881  0.5785 -4.2726
  186POPC  H15S21427   1.370   5.888   4.756  2.8099  1.6531 -0.6075
  186POPC  C21621428   1.231   5.979   4.907  0.9209  0.0689  0.5140
  186POPC  H16R21429   1.175   5.884   4.894 -1.3135  1.0934  1.9876
  186POPC  H16S21430   1.155   6.058   4.895 -0.0062 -0.6968  1.1420
  186POPC  C21721431   1.300   5.976   5.044  0.1853 -0.2467 -0.3230
  186POPC  H17R21432   1.217   5.974   5.118  1.7079  0.3413  1.4836
  186POPC  H17S21433   1.348   6.075   5.059  1.7604 -0.9419 -0.5986
  186POPC  C21821434   1.395   5.860   5.054 -0.3370  0.1566  0.3592
  186POPC  H18R21435   1.418   5.842   5.161  0.5047 -0.4116  0.0941
  186POPC  H18S21436   1.361   5.763   5.012  0.2747  0.1153 -0.0639
  186POPC  H18T21437   1.491   5.893   5.008  1.2757 -0.8746  2.8217
  186POPC   C3321438   0.606   5.925   3.767 -0.2842  0.1315  0.2234
  186POPC   H3X21439   0.631   5.835   3.826 -0.5751 -0.3541 -0.3843
  186POPC   H3Y21440   0.508   5.917   3.716 -1.2670 -0.8158  2.1656
  186POPC   C3421441   0.582   6.033   3.880  0.2238  0.9926  0.1769
  186POPC   H4X21442   0.478   6.014   3.915 -0.1930 -0.8113 -1.8192
  186POPC   H4Y21443   0.580   6.132   3.829 -1.2478 -0.5957 -3.1570
  186POPC   C3521444   0.688   6.023   3.988 -1.0107 -0.5339 -0.2072
  186POPC   H5X21445   0.776   6.065   3.934  0.2218 -0.4920  1.7508
  186POPC   H5Y21446   0.697   5.920   4.027 -0.5118 -0.6127 -0.5137
  186POPC   C3621447   0.644   6.109   4.109 -0.6084  0.5234 -0.7426
  186POPC   H6X21448   0.551   6.072   4.157 -1.0914  1.5968 -0.8148
  186POPC   H6Y21449   0.617   6.214   4.083 -0.1276  0.3922 -1.8294
  186POPC   C3721450   0.736   6.119   4.231 -0.3152  0.0311 -0.3996
  186POPC   H7X21451   0.693   6.180   4.313  1.3347  0.1654  0.4019
  186POPC   H7Y21452   0.832   6.173   4.216 -0.2833  0.6440  1.7465
  186POPC   C3821453   0.756   5.984   4.309 -0.0679 -0.1306 -0.5175
  186POPC   H8X21454   0.848   5.931   4.275  1.0688  0.1939  1.8578
  186POPC   H8Y21455   0.669   5.916   4.298 -2.3328  2.3669  0.8992
  186POPC   C3921456   0.781   6.014   4.454  0.0487 -0.2015  0.6650
  186POPC   H9X21457   0.686   6.062   4.485 -0.5557 -1.1069  0.2804
  186POPC   H9Y21458   0.867   6.084   4.461  1.5718 -1.6478 -1.8702
  186POPC  C31021459   0.799   5.887   4.533 -0.4465  0.3674  0.1516
  186POPC  H10X21460   0.894   5.837   4.506 -1.6637 -0.9131 -2.0803
  186POPC  H10Y21461   0.728   5.806   4.503  1.2662 -1.5721  1.0892
  186POPC  C31121462   0.792   5.909   4.685  0.2295 -0.4490 -0.7821
  186POPC  H11X21463   0.704   5.968   4.718  1.2815  0.6353  0.1891
  186POPC  H11Y21464   0.880   5.971   4.714 -0.7996 -0.2458  2.2659
  186POPC  C31221465   0.804   5.772   4.752  0.3928 -0.4287 -0.2765
  186POPC  H12X21466   0.883   5.699   4.723 -1.0666 -2.9426  1.5788
  186POPC  H12Y21467   0.710   5.716   4.729 -0.5050  0.8473  0.1786
  186POPC  C31321468   0.807   5.791   4.910 -0.2940  0.1879 -0.0184
  186POPC  H13X21469   0.726   5.857   4.948  0.2799  0.2800  1.0917
  186POPC  H13Y21470   0.902   5.838   4.943 -0.3613  0.5461 -0.3212
  186POPC  C31421471   0.797   5.653   4.977  0.6202  0.0460 -0.1422
  186POPC  H14X21472   0.889   5.601   4.942  0.4859 -0.9377  0.9378
  186POPC  H14Y21473   0.706   5.595   4.949  0.2807  1.5928 -2.6411
  186POPC  C31521474   0.832   5.654   5.124 -0.1625  0.0166 -0.0982
  186POPC  H15X21475   0.941   5.667   5.142 -0.5932  0.4017  2.6529
  186POPC  H15Y21476   0.796   5.557   5.166 -0.8784  1.0991  1.9327
  186POPC  C31621477   0.758   5.770   5.204  0.4397  0.1082 -0.4339
  186POPC  H16X21478   0.795   5.870   5.174  0.7572  0.0441 -0.2624
  186POPC  H16Y21479   0.788   5.754   5.310 -2.9088 -1.1109  0.4326
  186POPC  H16Z21480   0.648   5.756   5.195  0.6073 -1.5856 -0.2743
  187POPC     N21481   5.328   6.882   3.118  0.0762  0.5709  0.1188
  187POPC   C1221482   5.271   6.967   3.229  0.3755  0.4356 -0.0718
  187POPC  H12A21483   5.229   7.061   3.196 -0.9994  0.1899  0.8462
  187POPC  H12B21484   5.352   7.005   3.289 -1.1151  0.7093  1.8718
  187POPC   C1321485   5.220   6.831   3.030  0.4984 -0.3792 -0.5194
  187POPC  H13A21486   5.165   6.766   3.096  0.3300  1.1344  0.9088
  187POPC  H13B21487   5.156   6.917   3.017  1.8477  0.8321  0.5161
  187POPC  H13C21488   5.248   6.783   2.938  0.7982  0.1024 -0.6824
  187POPC   C1421489   5.419   6.957   3.026 -0.1673  0.2568 -0.8906
  187POPC  H14A21490   5.477   6.899   2.955  1.2821 -0.0290  0.4611
  187POPC  H14B21491   5.363   7.021   2.960  0.9210  1.2438 -0.8974
  187POPC  H14C21492   5.499   7.010   3.076  0.5784  0.2050 -1.9751
  187POPC   C1521493   5.394   6.756   3.168  0.5512  0.0340  0.4898
  187POPC  H15A21494   5.423   6.690   3.089  0.2144 -1.3151  1.4661
  187POPC  H15B21495   5.325   6.694   3.223 -1.1095 -0.4671 -2.0257
  187POPC  H15C21496   5.476   6.778   3.236  0.1766 -1.9110  1.6333
  187POPC   C1121497   5.171   6.899   3.327 -0.5610  0.4474  0.6756
  187POPC  H11A21498   5.147   6.966   3.412 -0.4521  2.0801 -0.5381
  187POPC  H11B21499   5.235   6.815   3.361 -0.0227  0.5393 -0.0716
  187POPC     P21500   4.926   6.939   3.256  0.3904 -0.1319  0.0488
  187POPC   O1321501   4.806   6.856   3.231  0.1028 -0.8058 -0.4094
  187POPC   O1421502   4.951   7.043   3.157 -0.2851  0.0377  0.0155
  187POPC   O1221503   5.055   6.843   3.265  0.3538  0.3806 -0.1708
  187POPC   O1121504   4.921   7.005   3.396  0.1219  0.0782 -0.7394
  187POPC    C121505   4.894   6.927   3.516 -1.1574  0.0693  0.2428
  187POPC    HA21506   4.976   6.944   3.589 -2.8631  0.3076  2.2026
  187POPC    HB21507   4.889   6.816   3.506  1.6547 -0.5082  3.4180
  187POPC    C221508   4.772   6.979   3.580  0.9973 -0.0979 -0.2320
  187POPC    HS21509   4.790   7.078   3.626  0.0576  0.4907 -1.0873
  187POPC   O2121510   4.739   6.887   3.688  0.2286  0.2265 -0.1358
  187POPC   C2121511   4.784   6.913   3.804  0.5841 -0.1431  0.9293
  187POPC   O2221512   4.861   7.001   3.837  0.3631 -0.5328 -0.6570
  187POPC   C2221513   4.699   6.837   3.903 -0.8878 -0.0168  0.0887
  187POPC   H2R21514   4.697   6.735   3.860 -0.5020  0.0962 -0.2056
  187POPC   H2S21515   4.596   6.881   3.907  0.2989  2.9712  0.4498
  187POPC    C321516   4.655   7.008   3.475 -0.4059 -0.1802 -0.3723
  187POPC    HX21517   4.650   6.916   3.413  1.7015 -0.4583 -0.2120
  187POPC    HY21518   4.690   7.093   3.414  1.9543 -0.4500  0.4910
  187POPC   O3121519   4.545   7.047   3.557  0.8175 -0.1333  0.3592
  187POPC   C3121520   4.430   6.989   3.544  0.4185  0.4940 -0.4103
  187POPC   O3221521   4.401   6.883   3.487  0.2642 -0.3990 -0.1357
  187POPC   C3221522   4.333   7.068   3.630  0.4108  0.1500  0.1836
  187POPC   H2X21523   4.261   7.118   3.561 -1.4994  1.1112  2.7037
  187POPC   H2Y21524   4.388   7.146   3.687  0.0134 -0.7860  1.9218
  187POPC   C2321525   4.754   6.830   4.047 -0.4371 -0.4359  0.1850
  187POPC   H3R21526   4.731   6.925   4.101  1.3750  0.8189 -1.1190
  187POPC   H3S21527   4.866   6.829   4.045 -0.4271 -0.5654  0.6655
  187POPC   C2421528   4.706   6.705   4.120  0.1959  0.3790 -0.2410
  187POPC   H4R21529   4.751   6.608   4.092  1.8649  1.3312 -1.0126
  187POPC   H4S21530   4.598   6.694   4.096  0.3161 -0.5570 -0.3691
  187POPC   C2521531   4.718   6.710   4.280 -0.2987 -0.2467  0.6181
  187POPC   H5R21532   4.622   6.679   4.325 -1.3713  1.5989 -0.2843
  187POPC   H5S21533   4.735   6.818   4.300 -0.3378  0.0286 -0.7170
  187POPC   C2621534   4.834   6.629   4.343 -0.5944  0.1975  0.1912
  187POPC   H6R21535   4.929   6.675   4.307 -0.6971  1.1018  1.0322
  187POPC   H6S21536   4.822   6.523   4.312 -2.2721  0.5233 -0.3874
  187POPC   C2721537   4.830   6.642   4.502  0.4069  0.1314  0.9849
  187POPC   H7R21538   4.740   6.590   4.540 -1.5718  1.9891 -0.8896
  187POPC   H7S21539   4.815   6.749   4.530  0.9375  0.2072  0.9979
  187POPC   C2821540   4.960   6.606   4.577  0.0583  0.1260  0.0245
  187POPC   H8R21541   4.939   6.629   4.684  0.3988 -0.4238  0.2119
  187POPC   H8S21542   5.047   6.667   4.546  2.8429 -3.7001 -0.3640
  187POPC   C2921543   4.988   6.460   4.566  1.0985 -0.1981  0.0364
  187POPC   H9121544   4.963   6.410   4.471  1.8262 -2.0784  0.7871
  187POPC  C21021545   5.057   6.386   4.655  0.0449 -0.1719  0.1863
  187POPC  H10121546   5.087   6.285   4.623  0.9630 -0.4177  1.7404
  187POPC  C21121547   5.129   6.446   4.772 -0.0508 -0.5167 -0.0290
  187POPC  H11R21548   5.109   6.553   4.794 -0.4836 -0.1575 -1.9291
  187POPC  H11S21549   5.238   6.443   4.751  0.1761 -2.7333  1.2112
  187POPC  C21221550   5.091   6.376   4.900 -0.2841  0.2574  0.1235
  187POPC  H12R21551   5.130   6.272   4.894 -0.3645  0.2327  0.0169
  187POPC  H12S21552   4.981   6.360   4.908 -0.2874 -1.1333 -1.9517
  187POPC  C21321553   5.154   6.443   5.019  0.3914 -0.4772 -0.2248
  187POPC  H13R21554   5.112   6.545   5.033 -0.3305 -0.5768 -1.4845
  187POPC  H13S21555   5.265   6.443   5.014  0.5262 -1.0555  1.8631
  187POPC  C21421556   5.113   6.365   5.148 -0.0675 -0.2655  0.4388
  187POPC  H14R21557   5.123   6.257   5.126 -2.4541 -0.3724 -0.4741
  187POPC  H14S21558   5.006   6.392   5.167 -1.2088 -2.2846 -2.4650
  187POPC  C21521559   5.197   6.425   5.267 -0.1536  0.1566  0.3514
  187POPC  H15R21560   5.148   6.524   5.283 -0.3049 -0.1121  1.6977
  187POPC  H15S21561   5.305   6.433   5.241 -0.0686  0.8153  0.8736
  187POPC  C21621562   5.195   6.346   5.394 -0.5498 -0.8345 -0.0099
  187POPC  H16R21563   5.208   6.410   5.484  2.3452 -3.7807  1.8680
  187POPC  H16S21564   5.283   6.278   5.392 -1.0450 -1.4833 -0.6008
  187POPC  C21721565   5.071   6.263   5.422  0.2592  0.3591 -0.1672
  187POPC  H17R21566   5.050   6.190   5.340  2.3858 -0.2100 -0.2624
  187POPC  H17S21567   4.986   6.334   5.422  0.0134  0.0992 -1.6316
  187POPC  C21821568   5.060   6.194   5.562 -0.4514 -0.2712  1.2391
  187POPC  H18R21569   5.086   6.276   5.632  1.6179 -0.0309  0.2666
  187POPC  H18S21570   5.138   6.115   5.574  1.8421  1.8212  0.9811
  187POPC  H18T21571   4.955   6.159   5.570 -0.5363  0.2502  2.5756
  187POPC   C3321572   4.274   6.976   3.731  0.2323  0.0525 -0.8004
  187POPC   H3X21573   4.356   6.916   3.778 -0.9266 -0.2653  0.8981
  187POPC   H3Y21574   4.206   6.901   3.685 -0.6654 -0.6188  1.4572
  187POPC   C3421575   4.207   7.055   3.851 -0.2815 -0.2559 -0.0348
  187POPC   H4X21576   4.115   7.100   3.810 -1.5080 -1.7394  0.9999
  187POPC   H4Y21577   4.277   7.137   3.879 -2.5385  1.1203  1.9788
  187POPC   C3521578   4.172   6.958   3.967 -0.2031 -0.1997 -0.1097
  187POPC   H5X21579   4.146   6.858   3.928 -2.2749 -0.0968  0.8556
  187POPC   H5Y21580   4.080   6.990   4.021  0.3957  0.7261  0.3953
  187POPC   C3621581   4.277   6.929   4.076  0.4191 -0.5596  0.3151
  187POPC   H6X21582   4.291   7.022   4.135  4.1107 -0.2503 -0.8226
  187POPC   H6Y21583   4.375   6.896   4.035  0.4373 -1.9813  1.4029
  187POPC   C3721584   4.227   6.819   4.173 -0.6525 -0.0019  0.2839
  187POPC   H7X21585   4.198   6.725   4.122 -0.0852 -0.4146  0.7186
  187POPC   H7Y21586   4.132   6.860   4.215 -0.2450  1.1003  0.1550
  187POPC   C3821587   4.319   6.786   4.292  0.4023  0.1110  0.1231
  187POPC   H8X21588   4.420   6.765   4.249  0.9195  1.0903  0.8175
  187POPC   H8Y21589   4.270   6.698   4.340  0.9799  0.9796  2.4444
  187POPC   C3921590   4.331   6.896   4.398 -0.6549  0.7359  0.2411
  187POPC   H9X21591   4.229   6.922   4.433 -1.0955  0.1649 -0.5705
  187POPC   H9Y21592   4.367   6.991   4.354  0.1156  0.1769 -0.3651
  187POPC  C31021593   4.424   6.841   4.501 -0.0122  0.5618 -0.4162
  187POPC  H10X21594   4.517   6.807   4.451  0.4574  2.3836 -0.8236
  187POPC  H10Y21595   4.376   6.752   4.548  1.0386  0.6217  0.7994
  187POPC  C31121596   4.468   6.938   4.607 -0.1740 -1.1271 -0.1471
  187POPC  H11X21597   4.380   6.983   4.659  1.9330  2.8583  0.4248
  187POPC  H11Y21598   4.501   7.032   4.558 -3.9172  0.8171  0.6540
  187POPC  C31221599   4.568   6.886   4.711  0.0276  0.2231  0.2568
  187POPC  H12X21600   4.660   6.862   4.652  0.7327  0.7080  1.1482
  187POPC  H12Y21601   4.523   6.789   4.742 -0.1214  0.4364  0.7142
  187POPC  C31321602   4.610   6.970   4.829 -0.1857 -0.3302  0.1643
  187POPC  H13X21603   4.520   6.990   4.890 -0.6401 -0.6281 -0.3992
  187POPC  H13Y21604   4.649   7.068   4.795  0.6962 -0.4624  0.7419
  187POPC  C31421605   4.709   6.899   4.922 -0.3107 -0.1176 -0.5793
  187POPC  H14X21606   4.813   6.915   4.887 -0.7591  1.5010 -1.2192
  187POPC  H14Y21607   4.684   6.791   4.934  0.1315 -0.0050  2.1154
  187POPC  C31521608   4.705   6.950   5.071 -0.0856  0.0329 -0.8352
  187POPC  H15X21609   4.600   6.947   5.107 -0.0040  1.8744 -0.3204
  187POPC  H15Y21610   4.729   7.059   5.069 -0.2603  0.0753 -0.6695
  187POPC  C31621611   4.807   6.890   5.165  0.1523 -0.5638  0.2413
  187POPC  H16X21612   4.820   6.961   5.249 -2.2478 -1.1326  1.1702
  187POPC  H16Y21613   4.907   6.880   5.117 -0.1772 -0.8809 -0.3993
  187POPC  H16Z21614   4.770   6.792   5.201 -2.0540  0.8782  2.1789
  188POPC     N21615   1.839   0.560   2.763  0.3079 -0.1358 -0.2613
  188POPC   C1221616   1.756   0.683   2.808  0.0183  0.2575 -0.1019
  188POPC  H12A21617   1.727   0.737   2.718 -1.1651  0.4750  0.3926
  188POPC  H12B21618   1.821   0.758   2.852  1.5493 -1.3775  0.5228
  188POPC   C1321619   1.978   0.608   2.737 -0.1804 -0.1830  0.1365
  188POPC  H13A21620   2.022   0.645   2.829 -2.8197  0.7966  1.1057
  188POPC  H13B21621   2.032   0.522   2.701  0.3132 -0.3621  1.2575
  188POPC  H13C21622   1.983   0.676   2.653  0.0316  0.2250  0.4743
  188POPC   C1421623   1.849   0.454   2.876 -0.0622 -0.6607 -0.4779
  188POPC  H14A21624   1.910   0.374   2.837  1.3163  0.1420 -0.0210
  188POPC  H14B21625   1.885   0.488   2.972 -0.6465  0.1201 -0.5246
  188POPC  H14C21626   1.746   0.421   2.887 -1.7633  4.0891  0.0965
  188POPC   C1521627   1.772   0.504   2.646  0.3227 -0.4493  0.3810
  188POPC  H15A21628   1.828   0.425   2.599 -0.5378  0.1954 -1.8540
  188POPC  H15B21629   1.772   0.586   2.576 -0.1440  0.4302  1.3859
  188POPC  H15C21630   1.670   0.472   2.665 -0.5054  0.0918 -2.5762
  188POPC   C1121631   1.632   0.651   2.899  0.5591  0.6577 -0.4358
  188POPC  H11A21632   1.574   0.744   2.919  0.4602  0.6706 -0.7709
  188POPC  H11B21633   1.664   0.612   2.998 -2.5866 -2.3049 -0.3965
  188POPC     P21634   1.466   0.460   2.923 -0.0258 -0.1133  0.2802
  188POPC   O1321635   1.441   0.342   2.835 -0.0862  0.0231 -0.0372
  188POPC   O1421636   1.346   0.528   2.974 -0.4029 -0.9837  0.2425
  188POPC   O1221637   1.545   0.559   2.837 -0.3701 -0.3370  0.8689
  188POPC   O1121638   1.563   0.414   3.040  0.0116  0.6927  0.0681
  188POPC    C121639   1.508   0.307   3.116 -1.0334  0.0353 -0.5869
  188POPC    HA21640   1.589   0.252   3.167 -2.2282 -1.8640 -0.6240
  188POPC    HB21641   1.451   0.229   3.061 -0.3567  0.6025 -2.1448
  188POPC    C221642   1.411   0.350   3.229  0.7442  0.6081 -0.0011
  188POPC    HS21643   1.318   0.393   3.184  0.2161  0.4226  0.8871
  188POPC   O2121644   1.479   0.439   3.318 -0.4704  0.8714  0.1838
  188POPC   C2121645   1.444   0.569   3.325  0.1056 -0.3549 -0.9237
  188POPC   O2221646   1.350   0.617   3.265  0.4416 -0.3015 -0.4110
  188POPC   C2221647   1.534   0.637   3.426 -0.9353  0.1101 -0.1442
  188POPC   H2R21648   1.570   0.734   3.384 -1.0866  0.6910  1.0348
  188POPC   H2S21649   1.623   0.575   3.446 -0.2741  1.0195 -0.1863
  188POPC    C321650   1.370   0.223   3.316 -0.2414 -0.6764  0.3982
  188POPC    HX21651   1.469   0.173   3.323  0.4264  0.3486 -1.0489
  188POPC    HY21652   1.308   0.164   3.246 -0.3806  0.4216 -0.4418
  188POPC   O3121653   1.305   0.246   3.441  0.1925 -0.1594 -0.3301
  188POPC   C3121654   1.180   0.291   3.438  0.5967  0.2789  0.1589
  188POPC   O3221655   1.121   0.331   3.337 -0.8329  0.5983 -0.0941
  188POPC   C3221656   1.120   0.282   3.585 -0.3514  0.6003 -0.8871
  188POPC   H2X21657   1.043   0.203   3.579  0.2559 -0.0724 -0.0873
  188POPC   H2Y21658   1.083   0.385   3.608  1.7285  1.0104  1.0582
  188POPC   C2321659   1.474   0.648   3.566 -0.1152 -0.1755 -0.5254
  188POPC   H3R21660   1.401   0.565   3.585  0.3194 -0.9254 -1.9660
  188POPC   H3S21661   1.415   0.742   3.565 -2.5509 -1.6128 -2.0121
  188POPC   C2421662   1.580   0.640   3.683 -0.6227 -0.5351  0.4611
  188POPC   H4R21663   1.660   0.712   3.657  0.3274 -2.5199 -2.6472
  188POPC   H4S21664   1.612   0.533   3.692 -0.7982 -0.5968  0.3397
  188POPC   C2521665   1.516   0.688   3.807  0.5433 -0.1910 -0.0777
  188POPC   H5R21666   1.420   0.633   3.817  2.1901 -3.7440 -2.0261
  188POPC   H5S21667   1.492   0.796   3.791  1.0672 -0.3187 -2.0115
  188POPC   C2621668   1.611   0.649   3.916 -0.8187  0.2563  0.1185
  188POPC   H6R21669   1.702   0.711   3.905 -0.4500  0.0924  1.9628
  188POPC   H6S21670   1.639   0.542   3.904 -0.3301  0.5155 -1.2230
  188POPC   C2721671   1.562   0.677   4.057  0.2941  0.2968 -0.6703
  188POPC   H7R21672   1.473   0.615   4.080  0.6697  0.7161  2.4364
  188POPC   H7S21673   1.523   0.781   4.053 -2.7584 -0.6890  0.6215
  188POPC   C2821674   1.656   0.645   4.169  0.1858  0.0693 -0.0002
  188POPC   H8R21675   1.753   0.696   4.149 -0.7112  1.4948 -0.9708
  188POPC   H8S21676   1.669   0.535   4.173 -0.8362 -0.1607 -1.7628
  188POPC   C2921677   1.598   0.710   4.290 -0.1833 -0.1480 -0.5072
  188POPC   H9121678   1.512   0.776   4.272  0.8011  0.5585 -3.1796
  188POPC  C21021679   1.643   0.724   4.416  0.4473  0.5177 -0.0772
  188POPC  H10121680   1.579   0.767   4.495 -0.0639  0.2298 -0.3275
  188POPC  C21121681   1.769   0.666   4.475 -1.3900  0.7098 -0.0740
  188POPC  H11R21682   1.819   0.755   4.519  0.7724 -0.8054  0.7261
  188POPC  H11S21683   1.834   0.628   4.392 -0.1958  1.6728  0.3915
  188POPC  C21221684   1.743   0.574   4.590 -0.0552  0.1793 -0.3542
  188POPC  H12R21685   1.828   0.508   4.619 -0.4764 -0.3602 -0.3270
  188POPC  H12S21686   1.661   0.503   4.566  1.0733 -0.6382 -1.9253
  188POPC  C21321687   1.695   0.659   4.710 -0.0376  0.1023 -0.1853
  188POPC  H13R21688   1.590   0.691   4.698 -1.0085 -3.1450 -1.5510
  188POPC  H13S21689   1.758   0.750   4.714 -0.2696  0.2953  4.1224
  188POPC  C21421690   1.709   0.589   4.853 -0.1213 -0.4934 -0.0399
  188POPC  H14R21691   1.808   0.540   4.861  0.1771 -0.2375 -1.6995
  188POPC  H14S21692   1.635   0.506   4.845 -0.1225 -0.6847  1.6546
  188POPC  C21521693   1.666   0.688   4.962  0.1630 -0.2710  0.5684
  188POPC  H15R21694   1.564   0.715   4.930  0.7903  1.4437 -0.1015
  188POPC  H15S21695   1.731   0.777   4.950 -0.5620  0.2115  0.1830
  188POPC  C21621696   1.672   0.630   5.100 -0.1576 -0.7183  0.3072
  188POPC  H16R21697   1.631   0.699   5.177 -1.3903  0.3444 -1.2413
  188POPC  H16S21698   1.777   0.619   5.135  0.1908  1.9241  0.3235
  188POPC  C21721699   1.574   0.521   5.123  0.4704 -0.0899 -0.0838
  188POPC  H17R21700   1.598   0.438   5.054 -1.6693  0.2337 -1.3069
  188POPC  H17S21701   1.466   0.548   5.112  0.0023 -2.3529 -1.8234
  188POPC  C21821702   1.585   0.466   5.260  0.1738 -0.2715  0.0686
  188POPC  H18R21703   1.575   0.552   5.330  1.6139  0.9424 -1.1501
  188POPC  H18S21704   1.690   0.430   5.267  0.2059 -0.2835 -0.4205
  188POPC  H18T21705   1.514   0.382   5.271  1.2068 -1.3949 -1.4331
  188POPC   C3321706   1.216   0.230   3.697  0.2889 -0.0227 -0.4951
  188POPC   H3X21707   1.255   0.127   3.683  1.1708  0.4321 -1.5577
  188POPC   H3Y21708   1.164   0.233   3.795  0.3433 -3.9160 -0.2125
  188POPC   C3421709   1.337   0.319   3.715 -0.1776 -0.5389  0.0938
  188POPC   H4X21710   1.281   0.414   3.729  0.9572  0.0390  0.8563
  188POPC   H4Y21711   1.400   0.329   3.624 -0.7420  0.6323 -0.1820
  188POPC   C3521712   1.428   0.288   3.835  0.3050 -0.2436 -0.5275
  188POPC   H5X21713   1.510   0.362   3.818  0.7065 -0.4816  0.2949
  188POPC   H5Y21714   1.466   0.184   3.833  0.2325 -0.2668 -0.6844
  188POPC   C3621715   1.356   0.307   3.969  0.5285  0.8789  1.0142
  188POPC   H6X21716   1.280   0.227   3.981  0.7536  0.8402  2.3877
  188POPC   H6Y21717   1.304   0.406   3.970  0.5378  0.9039  0.0285
  188POPC   C3721718   1.453   0.288   4.088 -0.2245 -0.1059  0.0610
  188POPC   H7X21719   1.507   0.383   4.109  0.6297 -0.0789 -2.0318
  188POPC   H7Y21720   1.524   0.204   4.072  1.5127  1.8398 -3.6408
  188POPC   C3821721   1.370   0.267   4.223  0.9285 -0.0244 -0.0857
  188POPC   H8X21722   1.293   0.187   4.217  0.1007  0.8371 -1.3418
  188POPC   H8Y21723   1.297   0.350   4.235  1.0197 -0.0009  0.3578
  188POPC   C3921724   1.468   0.239   4.336 -0.4547 -0.6107 -0.2613
  188POPC   H9X21725   1.518   0.338   4.343 -0.4317 -0.6725  0.4377
  188POPC   H9Y21726   1.537   0.158   4.305 -0.5440 -0.6211 -0.4394
  188POPC  C31021727   1.410   0.181   4.462 -0.8193 -0.7989  0.7359
  188POPC  H10X21728   1.372   0.079   4.442 -1.5344 -0.2704 -0.8159
  188POPC  H10Y21729   1.321   0.244   4.480  0.3553  1.4741 -0.8050
  188POPC  C31121730   1.521   0.165   4.576  0.1890  0.9156  0.1766
  188POPC  H11X21731   1.600   0.242   4.560  0.9138 -0.3336 -3.0775
  188POPC  H11Y21732   1.577   0.070   4.564  1.5075  1.3049  2.5358
  188POPC  C31221733   1.462   0.173   4.715  0.2219 -0.1211  0.8929
  188POPC  H12X21734   1.376   0.102   4.718  0.8474 -1.0909 -1.7633
  188POPC  H12Y21735   1.425   0.278   4.718  1.2982  0.2971  0.1029
  188POPC  C31321736   1.546   0.116   4.829  0.3001  0.3670  0.1051
  188POPC  H13X21737   1.628   0.191   4.840 -1.1005  2.0227 -0.3206
  188POPC  H13Y21738   1.585   0.015   4.804  2.1144  1.2389 -0.8604
  188POPC  C31421739   1.464   0.115   4.954 -0.4083  0.3807 -0.1681
  188POPC  H14X21740   1.384   0.039   4.937 -0.3241  0.8319 -3.0765
  188POPC  H14Y21741   1.421   0.211   4.989  2.0390  1.3520  0.3645
  188POPC  C31521742   1.543   0.047   5.078  0.2506 -0.3608 -0.3573
  188POPC  H15X21743   1.622   0.117   5.115  1.5259 -1.1416 -1.5063
  188POPC  H15Y21744   1.597  -0.045   5.047 -1.2685 -1.3396 -0.1807
  188POPC  C31621745   1.439   0.004   5.184 -0.7926 -0.0213  0.4806
  188POPC  H16X21746   1.376   0.092   5.209 -1.3795  0.4600 -2.3874
  188POPC  H16Y21747   1.496  -0.017   5.277  0.9741 -0.0178 -0.5640
  188POPC  H16Z21748   1.377  -0.081   5.148  0.7143 -0.6856 -0.6478
  189SAPI   C1221749   6.174   2.122   7.402 -1.0498 -0.3117 -0.2611
  189SAPI    H221750   6.190   2.209   7.335  0.0714  1.4272  2.1412
  189SAPI    O221751   6.033   2.085   7.399  0.0071 -0.0333 -0.4762
  189SAPI   HO221752   6.011   2.067   7.308  0.1173  0.9620 -0.7061
  189SAPI   C1321753   6.258   2.002   7.350 -0.0095  0.7199 -0.3756
  189SAPI    H321754   6.366   2.027   7.354  0.0788  0.6509 -1.8470
  189SAPI    O321755   6.229   1.972   7.208  0.2167 -0.8851  0.3080
  189SAPI   HO321756   6.301   1.928   7.162  0.5105  2.4419 -2.9503
  189SAPI   C1421757   6.236   1.876   7.438  0.3757 -0.4946  0.1855
  189SAPI    H421758   6.139   1.836   7.400  0.0383  0.0709  0.4405
  189SAPI    O421759   6.338   1.779   7.412  0.2536 -0.5317  0.1517
  189SAPI   HO421760   6.303   1.692   7.433 -0.5753 -0.2996 -0.2081
  189SAPI   C1521761   6.223   1.899   7.592 -0.1616 -0.3905 -0.3710
  189SAPI    H521762   6.323   1.872   7.631 -0.8685 -0.5384  1.4066
  189SAPI    O521763   6.139   1.798   7.650  0.1085 -0.5560  0.2191
  189SAPI   HO521764   6.198   1.727   7.676  2.6052  1.1782 -0.3400
  189SAPI   C1621765   6.208   2.050   7.641  0.1788  0.0660 -0.3218
  189SAPI    H621766   6.104   2.054   7.679 -0.5248  0.5080 -2.1842
  189SAPI    O621767   6.279   2.086   7.757  0.5820  0.3403  0.2430
  189SAPI   HO621768   6.242   2.175   7.762 -0.8367  0.1703 -3.8171
  189SAPI   C1121769   6.218   2.161   7.539 -0.0396  0.9426 -0.6486
  189SAPI    H121770   6.327   2.179   7.532 -0.1964  1.7578 -1.1068
  189SAPI     P21771   6.195   2.429   7.553 -0.1125  0.6493 -0.3764
  189SAPI   O1321772   6.342   2.441   7.559  0.0148  0.0126  0.0199
  189SAPI   O1421773   6.113   2.519   7.641 -0.0092  0.4493  0.0709
  189SAPI   O1221774   6.154   2.275   7.590 -0.2317 -0.0399 -0.7084
  189SAPI   O1121775   6.155   2.440   7.410 -0.7542  0.9835  0.2905
  189SAPI    C121776   6.022   2.447   7.357 -0.1124  0.2415 -0.0903
  189SAPI    HA21777   5.967   2.351   7.370 -2.9963  1.9815  1.8650
  189SAPI    HB21778   5.961   2.521   7.413  2.0542 -0.4908  3.5341
  189SAPI    C221779   6.021   2.486   7.209 -0.1617 -1.1686  0.1050
  189SAPI    HS21780   5.915   2.510   7.189  0.4115  1.6930 -0.0782
  189SAPI   O2121781   6.088   2.402   7.120 -0.0879  0.0583  0.3666
  189SAPI   C2121782   6.026   2.288   7.098 -0.3259 -0.1889 -0.4537
  189SAPI   O2221783   5.919   2.252   7.143 -0.0835 -0.5454 -0.2346
  189SAPI   C2221784   6.109   2.209   6.996 -0.3206 -0.3499  0.4057
  189SAPI   H2R21785   6.214   2.220   7.030  0.8701 -2.8188 -2.0921
  189SAPI   H2S21786   6.079   2.102   7.002 -1.8578  0.1329  2.6783
  189SAPI    C321787   6.099   2.624   7.193  0.3997  0.5712 -0.6728
  189SAPI    HX21788   6.202   2.602   7.228 -0.3366  0.7833  1.8333
  189SAPI    HY21789   6.063   2.706   7.259 -0.3968  0.6540 -1.1975
  189SAPI   O3121790   6.104   2.671   7.053 -0.2245 -0.1959  0.3708
  189SAPI   C3121791   6.135   2.796   7.026 -0.1499 -0.3934 -0.1308
  189SAPI   O3221792   6.141   2.884   7.111 -0.0717  0.4299 -0.5538
  189SAPI   C3221793   6.140   2.816   6.876 -0.5568 -0.0326  0.2476
  189SAPI   H2X21794   6.049   2.870   6.844 -1.4365 -2.1177 -1.0316
  189SAPI   H2Y21795   6.150   2.713   6.834  1.1976 -0.1492  0.8835
  189SAPI   C2321796   6.082   2.265   6.855 -0.4030  0.4553  0.0756
  189SAPI   H3R21797   6.106   2.373   6.845 -1.4717  0.6946 -0.0390
  189SAPI   H3S21798   5.973   2.263   6.836 -0.2188  1.7343 -1.3231
  189SAPI   C2421799   6.149   2.182   6.740  0.7639  0.3441 -0.1531
  189SAPI   H4R21800   6.077   2.106   6.704  0.0792  0.5710  0.7047
  189SAPI   H4S21801   6.236   2.132   6.787  0.8075 -0.6117 -1.2226
  189SAPI   C2521802   6.195   2.267   6.621  0.2902  0.6087 -0.4749
  189SAPI   H5R21803   6.222   2.372   6.639  0.5559  0.2972  1.0837
  189SAPI   C2621804   6.184   2.223   6.497  0.5198 -0.1749  0.0977
  189SAPI   H6R21805   6.208   2.297   6.419  2.0540 -0.3273  0.4090
  189SAPI   C2721806   6.146   2.081   6.452  0.1173 -0.7043 -0.3865
  189SAPI   H7R21807   6.040   2.088   6.418 -0.1118  0.4021  0.4995
  189SAPI   H7S21808   6.143   2.009   6.537  1.1957 -0.0535  0.2219
  189SAPI   C2821809   6.237   2.022   6.351 -0.1542 -0.4479  1.0601
  189SAPI   H8R21810   6.320   1.967   6.399  1.0310 -0.6894 -1.1475
  189SAPI   C2921811   6.229   2.042   6.218 -0.2407 -0.2669  0.0673
  189SAPI   H9R21812   6.306   1.997   6.154  1.7142 -1.9593  3.3521
  189SAPI  C21021813   6.123   2.117   6.134 -0.5589  0.3457 -0.2736
  189SAPI  H10R21814   6.045   2.165   6.198 -1.2308 -0.1274 -0.7236
  189SAPI  H10S21815   6.069   2.044   6.070 -1.6895  1.1645 -0.2865
  189SAPI  C21121816   6.196   2.222   6.045 -0.3166  0.7860 -0.6449
  189SAPI  H11R21817   6.211   2.325   6.081  2.9247  0.4823 -0.7752
  189SAPI  C21221818   6.251   2.202   5.924 -0.2380  0.0859 -0.4108
  189SAPI  H12R21819   6.313   2.287   5.892  0.8235  0.6436  2.7359
  189SAPI  C21321820   6.262   2.077   5.843 -0.3973 -0.7439 -0.2771
  189SAPI  H13R21821   6.162   2.054   5.802 -1.5821  2.0416  0.8528
  189SAPI  H13S21822   6.283   1.988   5.907  0.7830 -1.5351 -1.6761
  189SAPI  C21421823   6.375   2.087   5.741  0.1224  0.3483 -0.2216
  189SAPI  H14R21824   6.387   2.187   5.698  1.7127  0.3668  0.1982
  189SAPI  C21521825   6.460   1.986   5.711 -0.2724 -0.2296  0.1564
  189SAPI  H15R21826   6.543   2.014   5.644 -0.1498  2.1061  1.1945
  189SAPI  C21621827   6.467   1.849   5.772  0.3288  0.2177  0.6898
  189SAPI  H16R21828   6.377   1.784   5.758  0.5742  0.2146 -1.2205
  189SAPI  H16S21829   6.491   1.855   5.880  2.3990  0.9793  0.2238
  189SAPI  C21721830   6.589   1.770   5.720  0.3994  0.0694  0.1750
  189SAPI  H17R21831   6.679   1.820   5.760  0.7489  0.1611 -0.7161
  189SAPI  H17S21832   6.592   1.777   5.610  0.7397  1.8842  0.2763
  189SAPI  C21821833   6.593   1.625   5.769 -0.2563 -0.2463 -0.6433
  189SAPI  H18R21834   6.499   1.577   5.733 -0.2833 -0.5314 -0.2002
  189SAPI  H18S21835   6.596   1.619   5.880  0.1638  0.9411 -0.5809
  189SAPI  C21921836   6.717   1.544   5.722 -0.0994  0.0077  0.9302
  189SAPI  H19R21837   6.719   1.444   5.770 -1.5299 -0.2078  0.6004
  189SAPI  H19S21838   6.815   1.585   5.754  1.2580 -1.3945 -1.1349
  189SAPI  C22021839   6.720   1.515   5.565  0.1096 -0.6412  0.0923
  189SAPI  H20R21840   6.654   1.427   5.546 -1.6183  1.1353 -2.7979
  189SAPI  H20S21841   6.822   1.489   5.531 -0.0995  0.0996 -1.1123
  189SAPI  H20T21842   6.678   1.597   5.503 -3.4579 -2.2011  0.1684
  189SAPI   C3321843   6.264   2.895   6.819 -0.5544  0.2014  0.8281
  189SAPI   H3X21844   6.358   2.853   6.863  1.7107 -0.6134 -4.1390
  189SAPI   H3Y21845   6.253   3.002   6.847  0.5191  0.9492 -1.4192
  189SAPI   C3421846   6.280   2.896   6.666  0.1970  0.1524 -0.4783
  189SAPI   H4X21847   6.296   2.792   6.629 -0.5968 -0.3707  0.6010
  189SAPI   H4Y21848   6.373   2.951   6.640 -0.4463  0.7811 -1.5138
  189SAPI   C3521849   6.170   2.956   6.582 -0.5346 -0.0493 -0.4893
  189SAPI   H5X21850   6.154   3.064   6.604  0.8900  0.2390 -0.8192
  189SAPI   H5Y21851   6.076   2.908   6.617 -0.2708  1.9229  3.6051
  189SAPI   C3621852   6.189   2.948   6.432  0.0843  0.2122  0.4220
  189SAPI   H6X21853   6.099   2.978   6.375 -0.2672 -0.2756  0.7195
  189SAPI   H6Y21854   6.218   2.845   6.403  0.8855  0.3991  0.5189
  189SAPI   C3721855   6.306   3.033   6.376  0.5022 -0.1820  0.4555
  189SAPI   H7X21856   6.405   2.998   6.413  1.4951  0.7301 -1.2270
  189SAPI   H7Y21857   6.296   3.138   6.411 -3.0845  0.3359 -1.6701
  189SAPI   C3821858   6.302   3.031   6.223  0.0442  0.6223 -0.3865
  189SAPI   H8X21859   6.201   3.056   6.186 -0.2530  0.2670  0.1732
  189SAPI   H8Y21860   6.331   2.928   6.196  0.9778  1.0829 -1.2326
  189SAPI   C3921861   6.398   3.125   6.153 -0.5257 -0.6712 -0.8837
  189SAPI   H9X21862   6.504   3.111   6.183 -1.4486 -1.0015  2.6956
  189SAPI   H9Y21863   6.362   3.224   6.190 -0.7706 -1.4498  1.0738
  189SAPI  C31021864   6.386   3.114   5.994 -1.1191 -0.2843 -0.9312
  189SAPI  H10X21865   6.285   3.139   5.953 -0.4206  1.0282 -1.9294
  189SAPI  H10Y21866   6.410   3.006   5.982  0.4521  0.2203 -2.7720
  189SAPI  C31121867   6.481   3.204   5.921 -0.2174  0.3956  0.4633
  189SAPI  H11X21868   6.584   3.190   5.959  0.2296 -1.4734 -1.2101
  189SAPI  H11Y21869   6.463   3.310   5.947 -0.2455  0.2497  1.0397
  189SAPI  C31221870   6.469   3.183   5.764  0.0468  0.5522 -0.0142
  189SAPI  H12X21871   6.364   3.181   5.726  1.2353 -0.2312 -3.6191
  189SAPI  H12Y21872   6.506   3.080   5.743 -0.9383  0.3299 -0.7614
  189SAPI  C31321873   6.550   3.286   5.692  0.4867 -1.7584 -0.5408
  189SAPI  H13X21874   6.647   3.296   5.745  1.6827 -0.6468 -2.8192
  189SAPI  H13Y21875   6.505   3.387   5.703  2.7123 -0.8500  1.0717
  189SAPI  C31421876   6.572   3.262   5.537  0.3000  0.3774 -0.4505
  189SAPI  H14X21877   6.474   3.229   5.497 -0.9472  1.1598  1.7938
  189SAPI  H14Y21878   6.645   3.178   5.527  1.3282  1.1256  0.5286
  189SAPI  C31521879   6.633   3.376   5.455 -0.5659  0.4962 -0.0042
  189SAPI  H15X21880   6.742   3.383   5.477 -0.2677 -0.5208 -1.0542
  189SAPI  H15Y21881   6.583   3.470   5.485 -1.2617  1.0775 -2.7058
  189SAPI  C31621882   6.617   3.354   5.309 -0.2837 -0.0638  0.0279
  189SAPI  H16X21883   6.514   3.321   5.283 -0.3943  0.4477 -0.2083
  189SAPI  H16Y21884   6.680   3.265   5.290  1.6156  1.7285 -2.9867
  189SAPI  C31721885   6.666   3.467   5.215 -0.0247  0.5776 -0.0686
  189SAPI  H17X21886   6.772   3.485   5.244 -0.1853  1.8474 -0.1979
  189SAPI  H17Y21887   6.618   3.564   5.241 -0.2033  0.9199 -1.5828
  189SAPI  C31821888   6.663   3.431   5.063 -0.1420 -0.3882 -0.4483
  189SAPI  H18X21889   6.720   3.344   5.024  0.4547  0.0165 -0.4965
  189SAPI  H18Y21890   6.706   3.521   5.014 -2.5138 -0.1354 -2.2240
  189SAPI  H18Z21891   6.560   3.418   5.024 -0.0935 -1.3176 -0.2773
  190SAPI   C1221892   0.334   1.629   7.718  0.0186 -0.6143 -0.1929
  190SAPI    H221893   0.390   1.616   7.623 -0.6310  3.1293 -1.2629
  190SAPI    O221894   0.361   1.755   7.773 -0.3533  0.4599  0.3532
  190SAPI   HO221895   0.452   1.760   7.804  0.6062  0.4396 -2.2264
  190SAPI   C1321896   0.185   1.607   7.686 -0.5084 -0.2875 -0.2131
  190SAPI    H321897   0.165   1.500   7.665  0.7252 -0.6670  0.4619
  190SAPI    O321898   0.138   1.686   7.572  0.2378  0.3733  0.0708
  190SAPI   HO321899   0.090   1.765   7.598 -0.7196  0.0725 -0.7126
  190SAPI   C1421900   0.103   1.632   7.812 -0.5036  0.2231  0.7891
  190SAPI    H421901   0.121   1.737   7.843 -1.3656  0.8252 -0.6898
  190SAPI    O421902  -0.041   1.621   7.796 -0.4998  0.0933 -0.1944
  190SAPI   HO421903  -0.074   1.704   7.761 -0.2378  0.3019  0.0501
  190SAPI   C1521904   0.151   1.529   7.918 -0.2918 -0.6516  0.0612
  190SAPI    H521905   0.105   1.433   7.887 -1.3881  0.0030 -0.3942
  190SAPI    O521906   0.106   1.557   8.052 -0.7543  0.0808  0.5800
  190SAPI   HO521907   0.076   1.475   8.092 -1.3768 -0.0959 -0.2163
  190SAPI   C1621908   0.303   1.503   7.930  0.3652 -0.0762 -0.1852
  190SAPI    H621909   0.347   1.583   7.994  2.1770 -0.4748 -0.8544
  190SAPI    O621910   0.318   1.372   7.992 -0.2896  0.3476 -0.0524
  190SAPI   HO621911   0.399   1.332   7.961  0.0390  1.6335 -0.9157
  190SAPI   C1121912   0.384   1.513   7.802 -0.1420  0.3906  0.4934
  190SAPI    H121913   0.350   1.427   7.741  1.1453  0.4209 -0.3039
  190SAPI     P21914   0.621   1.390   7.827  0.1384  0.2379 -0.0128
  190SAPI   O1321915   0.545   1.272   7.861  0.2676 -0.4620  0.1372
  190SAPI   O1421916   0.740   1.422   7.911 -0.4378  0.5726 -0.1617
  190SAPI   O1221917   0.517   1.523   7.828 -1.1307  0.2049  0.1447
  190SAPI   O1121918   0.651   1.390   7.676 -0.2232 -0.1656  0.3377
  190SAPI    C121919   0.736   1.295   7.606 -0.1115 -0.2810 -0.4395
  190SAPI    HA21920   0.839   1.304   7.646  0.0513  0.3888 -0.9891
  190SAPI    HB21921   0.703   1.190   7.625  1.1660 -0.8751 -1.3283
  190SAPI    C221922   0.730   1.311   7.452 -0.0136  0.0281  0.5325
  190SAPI    HS21923   0.760   1.418   7.439 -3.5368  1.1262  0.4518
  190SAPI   O2121924   0.597   1.289   7.406 -0.6330 -0.6308  0.2279
  190SAPI   C2121925   0.514   1.389   7.385  0.0944  0.3643  1.3912
  190SAPI   O2221926   0.529   1.507   7.403 -0.1098  0.3908  0.5956
  190SAPI   C2221927   0.404   1.325   7.304  0.2165  0.0922 -0.2466
  190SAPI   H2R21928   0.434   1.277   7.209 -1.1382  1.8618 -1.6238
  190SAPI   H2S21929   0.369   1.244   7.373  1.2706 -1.3247 -1.3033
  190SAPI    C321930   0.841   1.227   7.382  1.0589  0.7366  0.4846
  190SAPI    HX21931   0.831   1.124   7.422 -0.7366  0.8926  0.5361
  190SAPI    HY21932   0.942   1.259   7.417  1.3870 -2.7052  3.1958
  190SAPI   O3121933   0.828   1.229   7.236  0.6305 -0.0787  0.3363
  190SAPI   C3121934   0.727   1.164   7.178 -0.1445 -0.2963  0.0068
  190SAPI   O3221935   0.666   1.072   7.230  0.6262 -0.1692 -0.4445
  190SAPI   C3221936   0.701   1.238   7.040  0.3407  1.0809  0.2858
  190SAPI   H2X21937   0.797   1.260   6.990  0.5507  1.8191  0.9939
  190SAPI   H2Y21938   0.652   1.333   7.072 -2.1882  0.8886 -2.5084
  190SAPI   C2321939   0.282   1.414   7.275  0.2360 -0.7377  0.0745
  190SAPI   H3R21940   0.251   1.480   7.359  1.4566  1.1233 -0.8669
  190SAPI   H3S21941   0.195   1.347   7.258  0.9187 -1.6188 -0.0414
  190SAPI   C2421942   0.310   1.518   7.159 -0.2707 -1.0273 -0.3848
  190SAPI   H4R21943   0.342   1.472   7.063  3.2165  0.8753 -0.2900
  190SAPI   H4S21944   0.398   1.577   7.190 -0.5346 -0.0743 -1.3975
  190SAPI   C2521945   0.193   1.615   7.138 -0.1195 -0.3503  0.5585
  190SAPI   H5R21946   0.178   1.694   7.214  0.2138 -0.2150  0.4859
  190SAPI   C2621947   0.123   1.639   7.021  0.1806  0.0745 -0.5952
  190SAPI   H6R21948   0.051   1.722   7.030 -0.8111 -0.6446 -1.5990
  190SAPI   C2721949   0.135   1.566   6.890  0.2247  0.3775  0.2271
  190SAPI   H7R21950   0.048   1.498   6.882 -0.7244  1.5310  0.4546
  190SAPI   H7S21951   0.224   1.501   6.887 -1.3435 -1.9805  1.9440
  190SAPI   C2821952   0.146   1.654   6.769  0.0939 -0.4699 -0.7563
  190SAPI   H8R21953   0.125   1.761   6.784 -2.0290 -0.9941  0.3314
  190SAPI   C2921954   0.198   1.628   6.650  0.2673  0.3022  0.0923
  190SAPI   H9R21955   0.194   1.706   6.572 -0.3551  0.3313  0.1459
  190SAPI  C21021956   0.250   1.494   6.610 -0.2473  0.2742  0.4873
  190SAPI  H10R21957   0.163   1.425   6.614 -0.3999  0.0671 -3.2156
  190SAPI  H10S21958   0.324   1.448   6.679 -1.7405  0.0122  1.9935
  190SAPI  C21121959   0.294   1.495   6.468 -0.1618 -0.3307  0.7141
  190SAPI  H11R21960   0.274   1.578   6.398  0.3742 -0.6761  0.1336
  190SAPI  C21221961   0.379   1.404   6.409  0.2257 -0.2715 -0.3255
  190SAPI  H12R21962   0.406   1.408   6.302  1.3448 -0.5863 -0.0644
  190SAPI  C21321963   0.446   1.290   6.490  1.0458  0.4781  0.0558
  190SAPI  H13R21964   0.433   1.195   6.434 -0.4753  2.5742 -3.4475
  190SAPI  H13S21965   0.401   1.272   6.590 -0.3902 -1.0165 -0.8105
  190SAPI  C21421966   0.596   1.311   6.515 -0.1072 -0.2173  0.1944
  190SAPI  H14R21967   0.629   1.344   6.615 -0.8261  0.2333  0.2886
  190SAPI  C21521968   0.694   1.286   6.432  1.0731  0.2273  0.1756
  190SAPI  H15R21969   0.797   1.309   6.463  0.4612  2.0277  1.0053
  190SAPI  C21621970   0.673   1.245   6.293 -0.0844  0.3345  0.1691
  190SAPI  H16R21971   0.575   1.200   6.269  0.8674 -1.0918 -1.2058
  190SAPI  H16S21972   0.748   1.164   6.282 -1.2009 -0.5705 -1.0750
  190SAPI  C21721973   0.705   1.358   6.197 -0.2157 -0.6692 -0.5861
  190SAPI  H17R21974   0.809   1.393   6.218 -0.9821  2.9265 -1.9294
  190SAPI  H17S21975   0.636   1.441   6.224 -0.8642 -1.1714 -0.6791
  190SAPI  C21821976   0.707   1.319   6.046 -0.5114 -0.5071 -0.3144
  190SAPI  H18R21977   0.611   1.262   6.043 -0.0638 -1.3988  1.1000
  190SAPI  H18S21978   0.792   1.251   6.025 -1.0280 -0.8928 -1.1852
  190SAPI  C21921979   0.710   1.428   5.939  0.0644  0.2418  0.3856
  190SAPI  H19R21980   0.805   1.486   5.943  0.1003  0.3934 -1.5145
  190SAPI  H19S21981   0.632   1.506   5.953 -0.5103 -0.3741  0.6631
  190SAPI  C22021982   0.683   1.367   5.796 -0.5939  0.6963  0.3836
  190SAPI  H20R21983   0.733   1.274   5.761  1.1831  1.4482  0.8152
  190SAPI  H20S21984   0.708   1.452   5.728  0.1261  1.0234  1.0428
  190SAPI  H20T21985   0.577   1.340   5.776  0.2020 -2.0958 -0.6054
  190SAPI   C3321986   0.616   1.142   6.956  0.2805 -0.5475 -0.6725
  190SAPI   H3X21987   0.583   1.209   6.873 -0.5449  0.4778  0.4623
  190SAPI   H3Y21988   0.526   1.107   7.010  0.0954  1.3435  0.3267
  190SAPI   C3421989   0.684   1.027   6.888  0.5563 -0.1058 -0.3932
  190SAPI   H4X21990   0.606   0.948   6.899 -0.2435  0.3798 -2.2500
  190SAPI   H4Y21991   0.775   0.990   6.940  1.0696  0.9970 -0.4643
  190SAPI   C3521992   0.723   1.038   6.745  0.1742 -0.2241  0.0830
  190SAPI   H5X21993   0.787   1.126   6.723 -1.2923  0.8779  0.0932
  190SAPI   H5Y21994   0.624   1.056   6.699 -0.3592 -2.2516  0.3245
  190SAPI   C3621995   0.765   0.908   6.681  0.2398  0.5967  0.3142
  190SAPI   H6X21996   0.678   0.841   6.695  1.1098 -0.7790 -0.5585
  190SAPI   H6Y21997   0.859   0.863   6.720  0.2254 -0.0241 -0.3451
  190SAPI   C3721998   0.780   0.924   6.529  0.2575 -0.6355  0.3142
  190SAPI   H7X21999   0.887   0.943   6.508 -0.0647  0.4836 -0.3877
  190SAPI   H7Y22000   0.731   1.020   6.502  1.2016  0.0877  1.0969
  190SAPI   C3822001   0.724   0.812   6.442  0.5422  0.1979 -0.1940
  190SAPI   H8X22002   0.622   0.805   6.485 -0.8064 -2.1242 -3.3350
  190SAPI   H8Y22003   0.771   0.713   6.464 -0.5172  0.2027  2.5541
  190SAPI   C3922004   0.725   0.836   6.289  0.6715  0.3221 -0.6755
  190SAPI   H9X22005   0.657   0.924   6.284 -1.9065 -1.5499 -0.7671
  190SAPI   H9Y22006   0.674   0.752   6.237 -2.3854  0.4075  1.8505
  190SAPI  C31022007   0.865   0.860   6.236  0.8379  0.6139  1.3322
  190SAPI  H10X22008   0.940   0.785   6.270  1.0436 -0.8368 -1.9570
  190SAPI  H10Y22009   0.889   0.965   6.264  0.0157  1.1658  0.0715
  190SAPI  C31122010   0.864   0.848   6.081  0.5778  0.1545 -0.4223
  190SAPI  H11X22011   0.775   0.898   6.037  2.3532  0.8002 -3.6263
  190SAPI  H11Y22012   0.875   0.746   6.039 -0.7901  0.9536 -2.9904
  190SAPI  C31222013   0.990   0.922   6.022  0.6573 -0.2307 -0.1852
  190SAPI  H12X22014   1.080   0.898   6.083 -1.0588 -3.9572  1.1984
  190SAPI  H12Y22015   0.971   1.031   6.031 -1.4973 -0.7341  2.5982
  190SAPI  C31322016   1.015   0.895   5.874  0.0211  0.3310 -0.5124
  190SAPI  H13X22017   1.050   0.790   5.862 -0.3057  0.2709 -0.9808
  190SAPI  H13Y22018   1.095   0.967   5.846  1.2310 -0.8222 -0.1039
  190SAPI  C31422019   0.886   0.928   5.788 -0.1147 -0.1214  0.8351
  190SAPI  H14X22020   0.847   1.030   5.803  0.6309  0.3059 -0.0096
  190SAPI  H14Y22021   0.802   0.862   5.818 -1.9439  1.2902 -0.8907
  190SAPI  C31522022   0.915   0.889   5.641 -0.3528  0.2337  0.1876
  190SAPI  H15X22023   0.931   0.779   5.632  0.2249  0.4622 -2.9290
  190SAPI  H15Y22024   1.011   0.938   5.613  0.2928  0.0176  1.9238
  190SAPI  C31622025   0.810   0.933   5.541  0.3838 -0.6375  0.7258
  190SAPI  H16X22026   0.837   1.025   5.484  2.7115 -2.3475 -1.1556
  190SAPI  H16Y22027   0.718   0.945   5.601  0.7183  1.1971  0.9447
  190SAPI  C31722028   0.780   0.816   5.438  0.3091 -0.3777 -0.6227
  190SAPI  H17X22029   0.699   0.845   5.367  1.1004  0.3036 -1.2717
  190SAPI  H17Y22030   0.754   0.731   5.505 -0.0231  0.4148  0.2723
  190SAPI  C31822031   0.902   0.780   5.342  0.3682  0.4076  0.1550
  190SAPI  H18X22032   0.972   0.713   5.396  0.6302  0.0992 -0.5595
  190SAPI  H18Y22033   0.938   0.883   5.319 -0.2629  0.5423 -0.2385
  190SAPI  H18Z22034   0.868   0.733   5.248  0.3755 -3.2111  1.8164
  191SAPI   C1222035   2.368   2.602   3.062  0.0280  0.3164  0.0645
  191SAPI    H222036   2.432   2.569   3.147  1.4195 -1.2683 -1.5133
  191SAPI    O222037   2.439   2.703   2.991 -0.5492 -0.4760 -0.3952
  191SAPI   HO222038   2.485   2.737   3.068  0.8809 -2.8378 -0.0891
  191SAPI   C1322039   2.372   2.465   2.988 -0.1718  0.4693 -0.5229
  191SAPI    H322040   2.344   2.392   3.067  1.0082  1.5170  0.9354
  191SAPI    O322041   2.498   2.429   2.931  0.1994  0.1097 -0.4233
  191SAPI   HO322042   2.571   2.486   2.957  1.0263 -0.3130 -1.6671
  191SAPI   C1422043   2.267   2.465   2.880 -0.2220  0.1115 -0.0382
  191SAPI    H422044   2.303   2.522   2.792 -1.6349  2.3885  0.7706
  191SAPI    O422045   2.233   2.328   2.844  0.0841 -0.1694 -0.5550
  191SAPI   HO422046   2.308   2.297   2.792 -1.0581 -0.0127 -2.4105
  191SAPI   C1522047   2.139   2.540   2.917 -0.2550 -0.1904 -0.2965
  191SAPI    H522048   2.085   2.472   2.986  1.7099 -0.1651  1.3572
  191SAPI    O522049   2.058   2.559   2.798  0.4153  0.2186  0.0750
  191SAPI   HO522050   2.114   2.560   2.720 -0.2530 -1.9753 -0.5191
  191SAPI   C1622051   2.153   2.673   2.993  0.0015  0.0360 -0.8583
  191SAPI    H622052   2.186   2.763   2.937 -1.5497  0.9391 -0.3816
  191SAPI    O622053   2.021   2.702   3.035  0.1386  0.2395  0.2745
  191SAPI   HO622054   2.028   2.739   3.123 -0.3175  1.1438 -0.0514
  191SAPI   C1122055   2.238   2.648   3.116 -0.2392  1.1612 -0.2509
  191SAPI    H122056   2.202   2.566   3.182  1.9118 -0.2682 -0.7363
  191SAPI     P22057   2.160   2.804   3.324 -0.2475 -0.0725 -0.6193
  191SAPI   O1322058   2.025   2.751   3.298  0.5972 -0.1624  0.2348
  191SAPI   O1422059   2.174   2.947   3.347 -0.4498  0.0805  0.6187
  191SAPI   O1222060   2.252   2.764   3.197  0.4149  0.4155  0.2343
  191SAPI   O1122061   2.222   2.732   3.453 -0.0127 -0.4571  0.0765
  191SAPI    C122062   2.195   2.593   3.471 -0.3067  0.3442 -0.6191
  191SAPI    HA22063   2.174   2.536   3.378  2.8860  0.7047 -1.6863
  191SAPI    HB22064   2.279   2.537   3.517  0.2039  0.3451 -1.5391
  191SAPI    C222065   2.077   2.573   3.579 -0.3098 -0.5499 -0.2557
  191SAPI    HS22066   1.990   2.613   3.523 -0.8807  1.0357  1.6141
  191SAPI   O2122067   2.098   2.658   3.688  0.3161  0.3545 -0.5426
  191SAPI   C2122068   1.994   2.691   3.756  0.4056  0.1180  0.3383
  191SAPI   O2222069   1.880   2.661   3.739  0.3337  0.0801 -0.6551
  191SAPI   C2222070   2.029   2.800   3.853 -0.0734 -0.1729 -0.2596
  191SAPI   H2R22071   1.973   2.782   3.947  0.8734 -0.6607  0.2240
  191SAPI   H2S22072   2.136   2.795   3.881  0.1650  2.5142 -0.3926
  191SAPI    C322073   2.039   2.426   3.618 -0.0923  0.0720  0.0141
  191SAPI    HX22074   2.014   2.376   3.522  2.3362  1.4757 -1.4741
  191SAPI    HY22075   1.950   2.428   3.684  1.3595  0.3563  2.0555
  191SAPI   O3122076   2.148   2.351   3.682  0.6400 -0.1934 -0.1727
  191SAPI   C3122077   2.182   2.234   3.632  0.3696 -0.0413 -0.1152
  191SAPI   O3222078   2.137   2.184   3.529 -0.0592 -0.1898  0.1387
  191SAPI   C3222079   2.295   2.171   3.719  0.3896 -0.6081 -0.3806
  191SAPI   H2X22080   2.242   2.080   3.756 -0.2922  0.1061  0.4568
  191SAPI   H2Y22081   2.321   2.240   3.803  0.6692 -1.1865  0.0176
  191SAPI   C2322082   2.000   2.945   3.796  0.3706  0.7580  0.1283
  191SAPI   H3R22083   1.889   2.944   3.798  0.2679 -2.2592 -1.4133
  191SAPI   H3S22084   2.033   2.951   3.690 -0.6254 -1.3921 -0.3607
  191SAPI   C2422085   2.062   3.049   3.884 -0.7164 -0.7453  0.4901
  191SAPI   H4R22086   2.147   3.005   3.941  0.2528  0.3378 -0.1007
  191SAPI   H4S22087   1.993   3.068   3.970 -1.6781  0.0954 -0.4368
  191SAPI   C2522088   2.096   3.169   3.806 -0.0076 -0.3352 -0.0168
  191SAPI   H5R22089   2.201   3.191   3.784 -0.1150  0.1236 -0.0928
  191SAPI   C2622090   2.008   3.269   3.799 -0.0811 -0.0637  0.6425
  191SAPI   H6R22091   2.044   3.347   3.731 -0.2121  0.0214  0.6694
  191SAPI   C2722092   1.858   3.266   3.831 -0.4395  0.3629  0.5091
  191SAPI   H7R22093   1.836   3.193   3.912 -0.6572 -1.0905 -0.7978
  191SAPI   H7S22094   1.817   3.215   3.741  1.8403  0.1858 -0.4875
  191SAPI   C2822095   1.785   3.400   3.844 -0.3260  0.4242  0.4496
  191SAPI   H8R22096   1.730   3.445   3.761 -0.0478  0.3821  0.2433
  191SAPI   C2922097   1.749   3.452   3.964 -1.0771  0.1649  0.2523
  191SAPI   H9R22098   1.695   3.548   3.963 -0.8526  0.2850 -0.6064
  191SAPI  C21022099   1.778   3.399   4.101  0.1530  0.5195 -0.4920
  191SAPI  H10R22100   1.714   3.309   4.112 -1.2809  1.2682 -2.2405
  191SAPI  H10S22101   1.736   3.456   4.187  1.4879 -0.7527  1.0671
  191SAPI  C21122102   1.922   3.369   4.131  0.6844 -0.0613  0.2618
  191SAPI  H11R22103   1.991   3.405   4.054 -0.7664  0.4175 -0.8528
  191SAPI  C21222104   1.976   3.297   4.232 -0.7128 -0.7384 -0.2055
  191SAPI  H12R22105   2.084   3.279   4.233 -0.4961  0.2592 -1.9590
  191SAPI  C21322106   1.915   3.230   4.348 -0.3096 -0.4734  0.7786
  191SAPI  H13R22107   1.948   3.124   4.337  1.2448  0.1273 -0.7593
  191SAPI  H13S22108   1.806   3.226   4.324  0.4126 -2.4940 -3.0656
  191SAPI  C21422109   1.939   3.292   4.484 -0.2919  0.3725  0.1233
  191SAPI  H14R22110   1.970   3.398   4.485  2.0123 -0.2017  3.0470
  191SAPI  C21522111   1.916   3.242   4.605 -0.2648 -0.3808  0.4773
  191SAPI  H15R22112   1.940   3.299   4.697 -0.7935 -1.0199  1.0236
  191SAPI  C21622113   1.864   3.100   4.632  0.9174  0.1012 -0.0633
  191SAPI  H16R22114   1.893   3.065   4.733  0.1411 -1.0915 -0.2340
  191SAPI  H16S22115   1.917   3.038   4.556  2.8943  2.0509 -0.3928
  191SAPI  C21722116   1.712   3.079   4.624  0.0912 -0.1567 -0.3021
  191SAPI  H17R22117   1.674   3.116   4.527  1.3948  4.8441  0.8029
  191SAPI  H17S22118   1.656   3.125   4.708 -1.3355 -2.9782  0.4134
  191SAPI  C21822119   1.675   2.935   4.634 -0.3310  0.3156 -0.3788
  191SAPI  H18R22120   1.737   2.887   4.554 -0.2158  0.3007 -0.2813
  191SAPI  H18S22121   1.571   2.917   4.601  0.2219 -1.0732 -1.5152
  191SAPI  C21922122   1.703   2.851   4.758  0.2575 -0.4124  0.2128
  191SAPI  H19R22123   1.646   2.874   4.851 -1.4111  0.0414 -0.8757
  191SAPI  H19S22124   1.811   2.859   4.782  0.3474  0.3700 -0.3953
  191SAPI  C22022125   1.678   2.703   4.724  0.3246 -0.2206 -0.9568
  191SAPI  H20R22126   1.573   2.677   4.696 -0.5343  2.5817 -0.6761
  191SAPI  H20S22127   1.703   2.643   4.814  0.0183 -0.5393 -1.0828
  191SAPI  H20T22128   1.754   2.677   4.647  2.7906 -1.7233  1.7885
  191SAPI   C3322129   2.423   2.132   3.638  0.6252 -0.8059 -0.2574
  191SAPI   H3X22130   2.480   2.223   3.609  0.0422 -0.5075 -0.4659
  191SAPI   H3Y22131   2.389   2.083   3.543  1.5345 -2.1400  0.0701
  191SAPI   C3422132   2.509   2.031   3.707 -0.2254  0.2798 -0.2083
  191SAPI   H4X22133   2.573   1.972   3.638  1.1948  1.1310  0.3337
  191SAPI   H4Y22134   2.445   1.947   3.742 -0.3207  0.8579  1.0571
  191SAPI   C3522135   2.594   2.092   3.817  0.6311  0.1879 -0.6287
  191SAPI   H5X22136   2.552   2.184   3.861  1.9913  0.4359  0.1807
  191SAPI   H5Y22137   2.690   2.118   3.768  0.8531  2.0324  0.7155
  191SAPI   C3622138   2.617   1.983   3.930  0.4638 -0.0235 -0.1939
  191SAPI   H6X22139   2.723   1.998   3.957  0.6005 -2.5915  1.0560
  191SAPI   H6Y22140   2.595   1.881   3.890 -0.8283 -0.2513  1.0057
  191SAPI   C3722141   2.537   2.008   4.059  0.1033  0.4785  0.2889
  191SAPI   H7X22142   2.429   2.007   4.033  0.3352 -1.5697 -0.8211
  191SAPI   H7Y22143   2.570   2.101   4.110  0.9948  0.5960 -0.4713
  191SAPI   C3822144   2.561   1.894   4.158  0.5681 -0.0908  0.2341
  191SAPI   H8X22145   2.672   1.886   4.159  0.5239 -0.6990  0.4352
  191SAPI   H8Y22146   2.510   1.800   4.127 -0.1390 -0.2678  1.8108
  191SAPI   C3922147   2.510   1.940   4.296 -0.3646 -0.2891 -0.4143
  191SAPI   H9X22148   2.403   1.957   4.275 -0.4596 -0.4679 -0.0766
  191SAPI   H9Y22149   2.544   2.042   4.324 -1.3844  0.0357 -0.3391
  191SAPI  C31022150   2.520   1.843   4.422  0.2951 -0.5896  0.7469
  191SAPI  H10X22151   2.627   1.829   4.448  0.3933 -1.2836  0.0082
  191SAPI  H10Y22152   2.483   1.742   4.393  0.6277 -0.0168 -1.9769
  191SAPI  C31122153   2.444   1.891   4.554  0.0916  0.5584  0.0461
  191SAPI  H11X22154   2.338   1.917   4.530 -0.7049 -0.7553  1.8784
  191SAPI  H11Y22155   2.500   1.979   4.591 -1.6919  1.7690 -0.0249
  191SAPI  C31222156   2.430   1.778   4.657  0.8363  0.2176  0.0646
  191SAPI  H12X22157   2.353   1.700   4.635  1.9922 -0.5774 -1.3410
  191SAPI  H12Y22158   2.389   1.826   4.748 -1.0814  0.7510 -1.0241
  191SAPI  C31322159   2.563   1.717   4.695 -0.1291 -0.1865  0.2895
  191SAPI  H13X22160   2.630   1.788   4.749  0.2887  0.5002 -1.0893
  191SAPI  H13Y22161   2.612   1.691   4.599  0.2929  1.2548  0.0935
  191SAPI  C31422162   2.550   1.589   4.772  1.3097 -0.4130 -0.4251
  191SAPI  H14X22163   2.648   1.535   4.774  0.9471 -1.1020  1.4860
  191SAPI  H14Y22164   2.475   1.521   4.727 -1.1319  1.7727  0.1115
  191SAPI  C31522165   2.489   1.612   4.921 -0.4715 -0.7090  0.3066
  191SAPI  H15X22166   2.378   1.617   4.914 -0.4418  1.5285  0.6896
  191SAPI  H15Y22167   2.528   1.707   4.962 -0.6463 -0.2532 -0.5688
  191SAPI  C31622168   2.544   1.494   5.007  0.6193 -0.0212 -0.3266
  191SAPI  H16X22169   2.650   1.520   5.028  0.0044  0.2860  3.0003
  191SAPI  H16Y22170   2.524   1.404   4.946 -4.0107  1.2731 -1.1041
  191SAPI  C31722171   2.479   1.483   5.146  0.7080 -0.0935 -0.6705
  191SAPI  H17X22172   2.383   1.434   5.120  0.9228 -0.2631 -1.1533
  191SAPI  H17Y22173   2.449   1.578   5.195  0.2302 -1.6594  2.3197
  191SAPI  C31822174   2.558   1.395   5.238 -0.3267  0.9340 -0.8325
  191SAPI  H18X22175   2.575   1.298   5.186  2.8953 -1.6664  4.1934
  191SAPI  H18Y22176   2.513   1.389   5.340  3.9603 -1.9040  1.2408
  191SAPI  H18Z22177   2.657   1.442   5.254 -0.5382  0.9141  0.7191
  192SAPI   C1222178   6.123   4.814   2.910 -0.1578  0.1663  0.0168
  192SAPI    H222179   6.209   4.884   2.915  0.8956 -0.9701 -1.1254
  192SAPI    O222180   6.108   4.794   2.766 -0.3739  0.1148 -0.6124
  192SAPI   HO222181   6.160   4.857   2.716 -0.0709 -1.8137 -2.9059
  192SAPI   C1322182   6.157   4.674   2.970  0.7478  0.2956 -0.5260
  192SAPI    H322183   6.178   4.680   3.079 -2.9702  2.1869  0.2632
  192SAPI    O322184   6.285   4.632   2.922  0.5070  0.1872 -0.7539
  192SAPI   HO322185   6.291   4.628   2.826  0.0411 -2.8188 -0.7549
  192SAPI   C1422186   6.043   4.570   2.950  0.1293 -0.3530 -0.3927
  192SAPI    H422187   6.035   4.571   2.839 -1.5177  0.1454 -0.3049
  192SAPI    O422188   6.070   4.440   2.999  0.3350 -0.6290 -0.5369
  192SAPI   HO422189   6.010   4.385   2.948  0.8991 -0.2529 -1.6410
  192SAPI   C1522190   5.912   4.626   2.993  0.5460 -0.6432 -0.1407
  192SAPI    H522191   5.912   4.633   3.104  0.0230  0.1047 -0.1790
  192SAPI    O522192   5.807   4.542   2.955 -0.1179 -0.2707 -0.2264
  192SAPI   HO522193   5.721   4.550   2.998 -0.4854 -0.4940 -0.8942
  192SAPI   C1622194   5.883   4.770   2.956  0.2673 -0.4885  0.0781
  192SAPI    H622195   5.854   4.761   2.850 -1.3075 -1.6405  0.5669
  192SAPI    O622196   5.770   4.816   3.033  0.3740 -0.4795 -0.5291
  192SAPI   HO622197   5.803   4.895   3.077 -1.6298 -0.0309  0.2831
  192SAPI   C1122198   5.996   4.861   2.964 -0.6753 -0.3645 -0.5239
  192SAPI    H122199   6.019   4.872   3.072  0.9507  0.0182 -0.8742
  192SAPI     P22200   6.033   5.125   2.969 -0.3454 -0.0063 -0.0613
  192SAPI   O1322201   5.980   5.239   2.891 -0.0729 -0.1581  0.7394
  192SAPI   O1422202   6.186   5.099   2.977 -0.1410  0.7390 -0.5212
  192SAPI   O1222203   5.953   4.987   2.926  0.0332  0.2587  0.0906
  192SAPI   O1122204   5.987   5.148   3.116  0.1647  0.0701  0.2343
  192SAPI    C122205   5.867   5.221   3.147  0.1381  0.7863 -0.1170
  192SAPI    HA22206   5.867   5.329   3.120 -2.4525  0.5389 -1.4376
  192SAPI    HB22207   5.776   5.169   3.108 -0.7650  1.6919  0.7087
  192SAPI    C222208   5.855   5.214   3.305  0.3461 -0.8013 -0.2687
  192SAPI    HS22209   5.745   5.212   3.317  0.4611 -0.8950  0.9820
  192SAPI   O2122210   5.920   5.340   3.345  0.2897  0.0773 -0.3768
  192SAPI   C2122211   5.855   5.406   3.441 -0.8166  0.1122  0.1969
  192SAPI   O2222212   5.742   5.387   3.480  0.6879  0.5034 -0.8248
  192SAPI   C2222213   5.949   5.527   3.481  0.6349  0.9626  0.6668
  192SAPI   H2R22214   6.053   5.488   3.481 -0.1548 -1.2851  0.0535
  192SAPI   H2S22215   5.943   5.596   3.394 -1.7276  0.1652  0.1056
  192SAPI    C322216   5.922   5.091   3.367 -0.3746  0.2927 -0.7625
  192SAPI    HX22217   6.029   5.087   3.339 -0.1734 -2.2609  0.1118
  192SAPI    HY22218   5.884   4.997   3.320  0.2094 -0.3514  0.0285
  192SAPI   O3122219   5.915   5.085   3.511  0.2173  0.1203  0.4150
  192SAPI   C3122220   5.791   5.037   3.556  0.5846 -0.7657  0.3593
  192SAPI   O3222221   5.692   5.019   3.491 -0.5214 -0.1575  0.2505
  192SAPI   C3222222   5.812   4.995   3.704  0.1778 -0.2856  0.5731
  192SAPI   H2X22223   5.850   4.891   3.695  2.9793  0.6611  0.7783
  192SAPI   H2Y22224   5.709   5.006   3.744  0.3916 -0.2312  1.1121
  192SAPI   C2322225   5.908   5.603   3.616 -0.2504  0.0564 -0.5671
  192SAPI   H3R22226   5.804   5.642   3.613  0.5444  2.6116  1.2582
  192SAPI   H3S22227   5.974   5.690   3.638  1.6390 -1.2214 -0.8894
  192SAPI   C2422228   5.913   5.501   3.737 -0.0919  0.3856  0.1960
  192SAPI   H4R22229   5.851   5.410   3.724  2.2730 -1.4037  0.8139
  192SAPI   H4S22230   5.878   5.554   3.828 -0.5794  2.9400 -1.3747
  192SAPI   C2522231   6.063   5.469   3.752  0.3138 -0.7041  0.2720
  192SAPI   H5R22232   6.091   5.401   3.669 -0.9485 -2.5050  1.2533
  192SAPI   C2622233   6.158   5.517   3.833 -0.0503 -0.5909  0.5822
  192SAPI   H6R22234   6.256   5.468   3.825 -0.3100 -0.7454 -3.0970
  192SAPI   C2722235   6.125   5.621   3.940 -0.2172  0.6927  0.2730
  192SAPI   H7R22236   6.091   5.569   4.032 -0.1709 -1.2340 -0.7524
  192SAPI   H7S22237   6.052   5.696   3.903  2.6949  3.0427 -1.1961
  192SAPI   C2822238   6.258   5.680   3.984 -0.0218 -0.0660 -0.4609
  192SAPI   H8R22239   6.306   5.730   3.899  0.1755 -0.5243 -0.6258
  192SAPI   C2922240   6.312   5.686   4.104  0.2406 -0.9573  0.8154
  192SAPI   H9R22241   6.411   5.733   4.113 -0.6308  0.9832  0.8049
  192SAPI  C21022242   6.259   5.640   4.231 -0.3005 -0.2428 -0.4635
  192SAPI  H10R22243   6.153   5.606   4.224  0.4230 -3.8641  2.5309
  192SAPI  H10S22244   6.264   5.718   4.310 -1.3712 -2.1817  1.6435
  192SAPI  C21122245   6.343   5.522   4.281  0.1858 -0.7031 -0.1085
  192SAPI  H11R22246   6.381   5.457   4.200  0.4930 -0.1487 -0.4206
  192SAPI  C21222247   6.346   5.474   4.403 -0.6096 -0.2269  0.1665
  192SAPI  H12R22248   6.407   5.385   4.423  0.8946  0.5515 -0.7186
  192SAPI  C21322249   6.286   5.544   4.529 -0.0694 -0.4123  0.2968
  192SAPI  H13R22250   6.328   5.646   4.514 -1.7836  0.2690 -0.1330
  192SAPI  H13S22251   6.329   5.512   4.627 -1.3452  1.2728  1.4686
  192SAPI  C21422252   6.134   5.560   4.531 -1.0467 -0.1683  0.2151
  192SAPI  H14R22253   6.087   5.534   4.435 -0.9193  1.4839 -0.3303
  192SAPI  C21522254   6.061   5.620   4.628 -0.2566 -0.5169  0.8805
  192SAPI  H15R22255   5.951   5.608   4.630 -0.1048 -2.2164  0.6864
  192SAPI  C21622256   6.117   5.679   4.756 -0.3728  0.1346  0.3180
  192SAPI  H16R22257   6.227   5.669   4.756 -0.4403 -1.2985 -1.7984
  192SAPI  H16S22258   6.083   5.614   4.839  0.6560 -1.6197 -0.5862
  192SAPI  C21722259   6.070   5.826   4.783  0.0798 -0.1897  0.4306
  192SAPI  H17R22260   6.108   5.890   4.701 -0.3360 -1.0733 -0.4755
  192SAPI  H17S22261   6.113   5.866   4.878 -0.2908 -0.9096  0.9113
  192SAPI  C21822262   5.915   5.837   4.806  0.2331 -0.5988 -0.2418
  192SAPI  H18R22263   5.869   5.839   4.705  2.0344  1.7772 -1.1196
  192SAPI  H18S22264   5.905   5.940   4.848 -2.2817 -0.1411 -1.7520
  192SAPI  C21922265   5.852   5.739   4.907  0.2777 -0.5476 -0.0062
  192SAPI  H19R22266   5.914   5.694   4.987 -1.6815 -2.7507  0.3852
  192SAPI  H19S22267   5.802   5.658   4.850 -1.4132 -0.0888  0.7496
  192SAPI  C22022268   5.740   5.799   4.994 -0.9130  0.1865  0.5762
  192SAPI  H20R22269   5.680   5.724   5.050  1.0556 -1.0489  1.1685
  192SAPI  H20S22270   5.670   5.857   4.930  1.4268  2.7545  0.1907
  192SAPI  H20T22271   5.787   5.868   5.067  0.7019 -0.0339 -0.2072
  192SAPI   C3322272   5.904   5.091   3.778  0.2584  0.1560 -0.0636
  192SAPI   H3X22273   5.860   5.193   3.774  0.8928  0.4301 -0.2023
  192SAPI   H3Y22274   6.010   5.092   3.745  0.8409 -0.3200  1.6674
  192SAPI   C3422275   5.908   5.073   3.932 -0.0879  0.8115  0.2820
  192SAPI   H4X22276   5.911   4.963   3.948 -2.1220  0.6254 -0.3064
  192SAPI   H4Y22277   5.804   5.093   3.967  0.0479  0.8889  0.6361
  192SAPI   C3522278   6.001   5.158   4.012  0.0556 -0.0266 -0.0598
  192SAPI   H5X22279   5.973   5.265   4.001 -0.3825  0.0227  1.3780
  192SAPI   H5Y22280   6.103   5.142   3.971  0.8461  0.5565  1.5971
  192SAPI   C3622281   5.993   5.131   4.168 -0.3676 -0.4172 -0.3654
  192SAPI   H6X22282   6.025   5.025   4.177 -0.6114 -0.3534  2.0656
  192SAPI   H6Y22283   5.888   5.132   4.204 -0.2009  2.1656  0.2399
  192SAPI   C3722284   6.074   5.226   4.254 -0.3999  0.5245 -0.0991
  192SAPI   H7X22285   6.023   5.324   4.245  1.3720  1.4274 -0.6872
  192SAPI   H7Y22286   6.177   5.234   4.213 -0.5202  0.8427 -0.3498
  192SAPI   C3822287   6.091   5.164   4.398  0.3167  0.5193  0.1579
  192SAPI   H8X22288   5.992   5.123   4.427 -0.5983  0.8308 -2.3391
  192SAPI   H8Y22289   6.125   5.240   4.471 -0.4725  0.1159  0.9713
  192SAPI   C3922290   6.191   5.049   4.409 -0.1990 -0.0080 -0.1033
  192SAPI   H9X22291   6.294   5.079   4.380  0.4814 -0.5831  1.5513
  192SAPI   H9Y22292   6.156   4.963   4.349  0.4433  0.1034 -0.6493
  192SAPI  C31022293   6.193   4.993   4.554 -0.3580 -0.9541 -0.0395
  192SAPI  H10X22294   6.085   4.987   4.580 -0.4287 -0.2811 -0.1578
  192SAPI  H10Y22295   6.239   5.069   4.620  2.2219 -1.2716 -1.3298
  192SAPI  C31122296   6.262   4.855   4.559  0.5330 -0.4019 -0.2099
  192SAPI  H11X22297   6.348   4.863   4.488  0.2010 -1.6770 -0.7849
  192SAPI  H11Y22298   6.190   4.778   4.524 -1.2523  2.0420 -2.3342
  192SAPI  C31222299   6.310   4.821   4.701  0.2371  0.0198  0.0550
  192SAPI  H12X22300   6.226   4.846   4.769 -1.7119 -0.7450 -1.9264
  192SAPI  H12Y22301   6.395   4.889   4.721  2.2238 -1.8996 -1.2761
  192SAPI  C31322302   6.364   4.682   4.724 -1.2077 -0.0200 -0.1050
  192SAPI  H13X22303   6.425   4.666   4.815 -1.1597 -2.4219 -0.4852
  192SAPI  H13Y22304   6.433   4.660   4.639  0.5039 -0.3859  1.3121
  192SAPI  C31422305   6.257   4.573   4.735 -0.6154 -0.1644  0.7446
  192SAPI  H14X22306   6.223   4.569   4.629 -1.0293 -1.6073  0.9081
  192SAPI  H14Y22307   6.172   4.617   4.793  0.0520  2.8984 -0.4304
  192SAPI  C31522308   6.320   4.435   4.766  0.0517 -0.4144  0.3488
  192SAPI  H15X22309   6.391   4.409   4.684 -1.6295  1.5690 -1.9167
  192SAPI  H15Y22310   6.238   4.363   4.747  1.6271 -1.8922 -1.2331
  192SAPI  C31622311   6.370   4.421   4.912  0.0319 -0.3615  1.0349
  192SAPI  H16X22312   6.317   4.472   4.994  0.5024 -1.3073  1.9601
  192SAPI  H16Y22313   6.467   4.473   4.902  0.9923 -2.4028 -1.7148
  192SAPI  C31722314   6.407   4.280   4.960 -0.1650 -0.2894 -0.2138
  192SAPI  H17X22315   6.317   4.215   4.957 -1.6919  1.6133  1.3385
  192SAPI  H17Y22316   6.426   4.293   5.069 -0.5985 -2.3148  0.1418
  192SAPI  C31822317   6.522   4.213   4.892  0.0797 -0.4258 -0.5026
  192SAPI  H18X22318   6.620   4.255   4.925  0.5168 -0.3724 -1.7989
  192SAPI  H18Y22319   6.513   4.207   4.781 -1.7218  2.2715 -0.5931
  192SAPI  H18Z22320   6.525   4.112   4.938 -1.0549  0.3032  1.2618
  193SOD    SOD22321   0.787   4.719   7.498 -0.2509 -0.2745  0.0384
  194SOD    SOD22322   3.992   0.761   2.240  0.3274 -0.2344  0.3699
  195SOD    SOD22323   3.198   5.835   2.782 -0.4003  0.0743 -0.4793
  196SOD    SOD22324   5.006   6.438   2.762  0.1939  0.5363 -0.4625
  197SOD    SOD22325   6.425   0.416   8.438 -0.2013  0.2101  0.3244
  198SOD    SOD22326   1.025   5.197   0.088 -0.0095  0.0809  0.2637
  199SOD    SOD22327   4.067   6.103   1.050  0.4435  0.1455 -0.1036
  200SOD    SOD22328   1.798   5.410   0.919 -0.3935  0.3962 -0.3845
  201SOD    SOD22329   3.990   3.567   1.952  0.1291  0.0132  0.1435
  202SOD    SOD22330   6.814   2.054   2.279 -0.4425 -0.2722  0.1310
  203SOD    SOD22331   5.944   6.064   0.158 -0.2457 -0.3171  0.1113
  204SOD    SOD22332   1.759   6.816   0.601  0.0069 -0.0819 -0.1591
  205SOD    SOD22333   5.858   3.019   2.897 -0.0623 -0.3826 -0.3969
  206SOD    SOD22334   1.678   1.103   2.666  0.0347  0.0237 -0.3323
  207SOD    SOD22335   6.170   6.502   0.817  0.3910 -0.0810 -0.1766
  208SOD    SOD22336   5.061   4.002   3.383 -0.0716 -0.0641 -0.3115
  209SOD    SOD22337   1.260   3.761   1.175 -0.7941 -0.1035  0.1045
  210SOD    SOD22338   1.387   0.513   8.471 -0.0358 -0.1782 -0.6775
  211SOD    SOD22339   5.763   4.184   8.247 -0.2296  0.2921 -0.4472
  212SOD    SOD22340   5.252   6.847   0.250  0.0261  0.0526  0.2342
  213SOD    SOD22341   2.274   1.496   7.296 -0.0027  0.0762 -0.0898
  214SOD    SOD22342   0.390   4.725   2.666  0.1726 -0.3550  0.1991
  215SOD    SOD22343   3.895   1.947   1.693 -0.0516 -0.2507 -0.4773
  216SOD    SOD22344   6.115   2.034   1.614  0.0691 -0.0758  0.1784
  217SOD    SOD22345   0.060   1.741   1.531  0.3810  0.1483  0.0336
  218SOD    SOD22346   4.718   0.755   0.517  0.0398 -0.1979 -0.5078
  219SOD    SOD22347   5.861   5.312   0.364  0.1595 -0.3265 -0.1204
  220SOD    SOD22348   0.873   1.243   2.811  0.0797 -0.1333  0.3618
  221SOD    SOD22349   3.401   3.705   8.119  0.3089 -0.0272 -0.2006
  222SOD    SOD22350   6.148   3.665   7.259 -0.0112 -0.3541 -0.2431
  223SOD    SOD22351   5.248   2.880   7.816  0.1351  0.2999  0.0323
  224SOD    SOD22352   5.843   0.425   2.350  0.2618 -0.0841 -0.0608
  225SOD    SOD22353   3.632   4.673   1.923 -0.7532 -0.3916 -0.2317
  226SOD    SOD22354   2.875   3.409   0.697  0.3080  0.1082 -0.0324
  227SOD    SOD22355   0.411   3.506   8.091 -0.2019 -0.2463  0.0291
  228SOD    SOD22356   3.958   2.339   7.806  0.2564  0.1658  0.3273
  229SOD    SOD22357   2.525   4.197   7.371 -0.3745 -0.0028 -0.2481
  230CLA    CLA22358   5.444   6.488   0.787  0.2296 -0.2580  0.0262
  231CLA    CLA22359   0.046   0.619   1.918  0.6141 -0.2233 -0.1203
  232CLA    CLA22360   2.185   5.001   8.058 -0.3804  0.1916  0.1310
  233CLA    CLA22361   6.572   2.411   2.528  0.0254  0.1052  0.3331
  234CLA    CLA22362   3.316   3.623   0.581 -0.2651  0.0930  0.0063
  235CLA    CLA22363   1.333   3.474   0.378  0.3742 -0.0032  0.0354
  236CLA    CLA22364   3.802   6.175   8.350 -0.3673  0.4076 -0.0164
  237CLA    CLA22365   5.075   6.788   0.919  0.3238 -0.2507 -0.1432
  238CLA    CLA22366   2.237   2.125   0.338  0.2258 -0.1865  0.2354
  239CLA    CLA22367   4.297   1.606   1.724 -0.3800  0.6656  0.1100
  240CLA    CLA22368   1.371   6.024   1.490  0.4610  0.5735  0.2130
  241CLA    CLA22369   5.476   5.467   2.260 -0.4066 -0.1218  0.0982
  242CLA    CLA22370   4.355   6.616   1.349 -0.3186 -0.2039  0.0345
  243CLA    CLA22371   5.062   5.513   8.297 -0.3061 -0.3975  0.4329
  244CLA    CLA22372   2.597   3.530   8.098  0.1901 -0.5223 -0.3457
  245CLA    CLA22373   0.044   1.277   8.270  0.0586 -0.1828 -0.3161
  246CLA    CLA22374   3.628   3.284   1.424  0.1056 -0.1957  0.2632
  247TIP3   OH222375   3.282   3.896   2.783 -0.0623  0.3712 -0.0074
  247TIP3    H122376   3.218   3.927   2.847  1.7231  3.0019  0.6472
  247TIP3    H222377   3.286   3.801   2.798  0.1404  0.8090  3.7307
  248TIP3   OH222378   6.740   5.017   1.817 -0.1082  0.0324  0.1969
  248TIP3    H122379   6.689   5.098   1.815 -2.8053 -1.5105  1.3527
  248TIP3    H222380   6.815   5.038   1.873  1.0607  2.5626 -2.0671
  249TIP3   OH222381   1.590   0.924   3.183  0.4687  0.3737  0.1532
  249TIP3    H122382   1.516   0.878   3.143 -0.3910  2.0486 -0.2953
  249TIP3    H222383   1.666   0.869   3.163 -0.5038 -0.8643 -0.2770
  250TIP3   OH222384   0.633   1.589   1.039 -0.1782 -0.7775  0.0962
  250TIP3    H122385   0.671   1.576   0.951 -1.6707 -1.2810 -0.4941
  250TIP3    H222386   0.660   1.678   1.063 -0.2782 -0.3846 -1.1636
  251TIP3   OH222387   4.312   3.086   8.179 -0.2773 -0.4817 -0.2357
  251TIP3    H122388   4.324   3.143   8.254 -2.3665 -1.8381  1.2211
  251TIP3    H222389   4.389   3.028   8.181  0.5706  0.6072 -0.2422
  252TIP3   OH222390   1.694   0.320   0.646 -0.1156 -0.1520  0.5744
  252TIP3    H122391   1.677   0.314   0.739 -0.2675 -0.1257  0.5486
  252TIP3    H222392   1.662   0.407   0.621 -0.3088 -0.2576  0.4498
  253TIP3   OH222393   2.766   0.514   1.704 -0.0171  0.2444  0.1161
  253TIP3    H122394   2.688   0.526   1.759 -0.4318  0.4374 -0.5037
  253TIP3    H222395   2.738   0.541   1.617  1.0378  1.3155  0.0725
  254TIP3   OH222396   6.326   1.943   3.135 -0.0406 -0.5178 -0.3608
  254TIP3    H122397   6.400   1.956   3.076 -2.3259 -2.0580 -3.9085
  254TIP3    H222398   6.307   1.849   3.129 -2.3744 -0.1391  0.1914
  255TIP3   OH222399   3.696   5.561   1.526  0.0739 -0.1518 -0.4794
  255TIP3    H122400   3.704   5.581   1.619  3.0471 -1.5695 -0.3068
  255TIP3    H222401   3.624   5.498   1.521 -0.9204  0.8524  0.6449
  256TIP3   OH222402   5.611   5.419   3.069 -0.1363 -0.0078 -0.2091
  256TIP3    H122403   5.568   5.340   3.036 -0.6592  0.4311 -0.5853
  256TIP3    H222404   5.539   5.477   3.094  0.2442  0.4361 -0.1376
  257TIP3   OH222405   2.458   4.398   1.094  0.3562  0.0167 -0.0965
  257TIP3    H122406   2.365   4.403   1.073 -0.3468 -3.0287  1.5744
  257TIP3    H222407   2.502   4.445   1.024 -2.4231  1.6583 -0.8716
  258TIP3   OH222408   0.506   2.601   2.248 -0.5382  0.1683  0.0239
  258TIP3    H122409   0.441   2.547   2.291 -0.2158  0.6066  1.0903
  258TIP3    H222410   0.468   2.688   2.245  0.0004  0.4376  0.6940
  259TIP3   OH222411   4.753   6.009   1.354 -0.6576 -0.1185 -0.3984
  259TIP3    H122412   4.680   6.060   1.320 -0.6076  1.1722  1.2904
  259TIP3    H222413   4.713   5.951   1.420 -0.2006  0.5650  0.5049
  260TIP3   OH222414   5.709   0.137   0.099  0.2600 -0.0756  0.3724
  260TIP3    H122415   5.717   0.214   0.044 -1.5078 -0.7296 -0.8661
  260TIP3    H222416   5.773   0.075   0.063  0.6619  0.2829  0.4621
  261TIP3   OH222417   0.348   2.482   3.151 -0.2542  0.3507  0.6333
  261TIP3    H122418   0.399   2.412   3.109 -0.9677 -1.1926  2.2089
  261TIP3    H222419   0.396   2.503   3.230 -1.5455 -0.4877  1.6790
  262TIP3   OH222420   1.610   2.169   2.397  0.5283  0.3166 -0.3375
  262TIP3    H122421   1.614   2.206   2.486 -0.2088  2.1771 -1.0238
  262TIP3    H222422   1.608   2.074   2.410  0.4009  0.5515  1.6320
  263TIP3   OH222423   4.609   0.799   2.143 -0.6057  0.0493  0.0572
  263TIP3    H122424   4.607   0.711   2.182  1.7287  1.1061  2.9007
  263TIP3    H222425   4.527   0.839   2.170 -1.0167 -0.7457  0.0170
  264TIP3   OH222426   1.885   6.833   3.096 -0.7513  0.3157 -0.5171
  264TIP3    H122427   1.848   6.829   3.008 -1.9382 -2.2949 -0.0153
  264TIP3    H222428   1.822   6.885   3.146 -1.6898 -0.7179 -0.5832
  265TIP3   OH222429   2.263   3.078   0.189 -0.1942 -0.0247  0.4699
  265TIP3    H122430   2.246   3.154   0.244 -0.8271  0.0270  0.2117
  265TIP3    H222431   2.358   3.067   0.193  0.6559  3.5497 -3.0385
  266TIP3   OH222432   6.389   6.112   8.505 -0.1956 -0.0106 -0.1141
  266TIP3    H122433   6.371   6.023   8.476  0.4655 -0.2464  0.1951
  266TIP3    H222434   6.443   6.150   8.435 -1.9678  0.7688 -1.1445
  267TIP3   OH222435   6.801   2.148   2.734 -0.2484  0.8913  0.1716
  267TIP3    H122436   6.879   2.186   2.693  1.0625 -0.4930  1.2874
  267TIP3    H222437   6.832   2.070   2.779 -2.5736 -0.7043 -0.7482
  268TIP3   OH222438   2.776   1.220   2.144  0.0899  0.2007  0.3082
  268TIP3    H122439   2.784   1.127   2.165  0.8221 -0.1578 -1.3634
  268TIP3    H222440   2.859   1.258   2.172  0.3214  0.0860 -0.2154
  269TIP3   OH222441   3.746   2.457   7.899  0.3143 -0.2309 -0.2083
  269TIP3    H122442   3.762   2.551   7.888 -2.7972  0.6421  1.5257
  269TIP3    H222443   3.683   2.435   7.830 -0.9134 -0.3788  0.9208
  270TIP3   OH222444   3.948   3.516   1.313  0.0123  0.2119  0.4693
  270TIP3    H122445   4.012   3.580   1.345  0.4680  0.9178 -1.6968
  270TIP3    H222446   3.993   3.432   1.319  0.6258  0.5222  0.2861
  271TIP3   OH222447   0.243   2.174   0.581 -0.5894 -0.6455 -0.0508
  271TIP3    H122448   0.290   2.215   0.508 -0.1577 -0.7886  0.1439
  271TIP3    H222449   0.151   2.195   0.565 -0.7012 -2.0624 -1.5443
  272TIP3   OH222450   2.793   1.383   2.990 -0.0419  0.3050 -0.0449
  272TIP3    H122451   2.860   1.451   2.976 -1.5906  1.9821  0.3264
  272TIP3    H222452   2.825   1.333   3.065  1.8828 -0.4118 -1.2518
  273TIP3   OH222453   5.046   3.198   1.099  0.5681  0.0772 -0.3386
  273TIP3    H122454   5.005   3.139   1.035 -0.2850 -1.2085  1.3162
  273TIP3    H222455   5.006   3.174   1.183  0.7122  2.5675  0.5302
  274TIP3   OH222456   4.201   5.717   0.758 -0.1788  0.0105  0.1238
  274TIP3    H122457   4.246   5.758   0.683  1.5777  1.8856  2.0429
  274TIP3    H222458   4.223   5.624   0.751  1.1810  0.3673 -0.9274
  275TIP3   OH222459   6.471   0.041   0.584  0.4327 -0.3313  0.0517
  275TIP3    H122460   6.488   0.073   0.672 -1.9967  1.4476 -0.0246
  275TIP3    H222461   6.547  -0.013   0.563  1.7820  0.4087  2.6284
  276TIP3   OH222462   3.909   2.483   7.637  0.4419 -0.1410  0.3590
  276TIP3    H122463   3.910   2.449   7.548  0.4145 -2.6888  1.2379
  276TIP3    H222464   3.925   2.577   7.628 -0.2961 -0.1999 -2.3443
  277TIP3   OH222465   1.611   0.213   2.685 -0.1258 -0.3945  0.1549
  277TIP3    H122466   1.597   0.243   2.596  0.4939  1.4350  0.6328
  277TIP3    H222467   1.541   0.256   2.736  0.3438 -0.3215  0.7500
  278TIP3   OH222468   2.814   5.997   1.539 -0.2405  0.1450 -0.4727
  278TIP3    H122469   2.908   6.000   1.555 -0.3201 -0.9895  0.3301
  278TIP3    H222470   2.804   6.021   1.446  0.9748 -1.1763 -0.9818
  279TIP3   OH222471   1.764   2.390   1.047 -0.4508  0.6302  0.0936
  279TIP3    H122472   1.678   2.398   1.088 -0.5692  0.7328 -0.1796
  279TIP3    H222473   1.748   2.341   0.967  0.0638 -1.3359  1.1221
  280TIP3   OH222474   2.502   4.811   0.917 -0.2174  0.8733 -0.2607
  280TIP3    H122475   2.434   4.845   0.858  0.6797  1.2916 -1.0735
  280TIP3    H222476   2.579   4.863   0.897  0.0652  1.1513  1.4382
  281TIP3   OH222477   6.883   2.404   2.593 -0.1453 -0.3326 -0.0453
  281TIP3    H122478   6.922   2.478   2.640  0.4813  0.4028 -1.6632
  281TIP3    H222479   6.789   2.417   2.603 -0.0321  0.3600  0.1759
  282TIP3   OH222480   2.983   4.354   3.878  0.1673  0.5771 -0.3846
  282TIP3    H122481   2.972   4.386   3.968  3.2345 -0.6675  0.5696
  282TIP3    H222482   2.903   4.305   3.860 -1.0119  1.8043  1.2116
  283TIP3   OH222483   4.675   1.159   1.606 -0.5393 -0.1257 -0.2931
  283TIP3    H122484   4.592   1.207   1.610 -0.6831 -0.1690 -2.0270
  283TIP3    H222485   4.656   1.082   1.553  0.2636 -0.9344  0.5539
  284TIP3   OH222486   1.171   0.750   1.677 -0.7845  0.3184  0.2234
  284TIP3    H122487   1.259   0.764   1.641 -0.5229 -1.3444  0.1139
  284TIP3    H222488   1.113   0.758   1.602 -0.7900  1.7238  0.3458
  285TIP3   OH222489   3.548   2.395   7.688 -0.1274 -0.1105  0.0182
  285TIP3    H122490   3.510   2.308   7.684 -0.2617 -0.1269  1.1880
  285TIP3    H222491   3.580   2.412   7.600  0.7019 -1.7030 -0.0242
  286TIP3   OH222492   2.719   2.971   2.397  0.3702  0.2377  0.1302
  286TIP3    H122493   2.743   3.030   2.325  0.4601  0.9332  0.7149
  286TIP3    H222494   2.792   2.909   2.402 -0.8961 -1.6116 -2.1878
  287TIP3   OH222495   2.266   5.290   2.665 -0.4366 -0.0534 -0.1717
  287TIP3    H122496   2.224   5.372   2.690  0.5453  0.2983  0.3945
  287TIP3    H222497   2.358   5.303   2.685 -0.3124 -1.4303  0.3059
  288TIP3   OH222498   4.873   2.781   1.424 -0.0349  0.6189 -0.3850
  288TIP3    H122499   4.956   2.818   1.394  1.5261 -1.1461  1.4380
  288TIP3    H222500   4.820   2.857   1.450  1.8724  1.7292  0.4508
  289TIP3   OH222501   1.420   4.756   2.753  0.3928  0.2578  0.2125
  289TIP3    H122502   1.385   4.672   2.780 -1.0144  0.9514  0.6317
  289TIP3    H222503   1.379   4.820   2.811  0.3980  1.3725 -0.9424
  290TIP3   OH222504   0.162   6.716   1.877 -0.2267  0.2539  0.0542
  290TIP3    H122505   0.203   6.780   1.820  0.0430 -0.3203 -0.4101
  290TIP3    H222506   0.086   6.761   1.915  0.5818  1.1954  0.5983
  291TIP3   OH222507   1.751   4.436   0.256  0.1693 -0.2935 -0.2949
  291TIP3    H122508   1.665   4.395   0.265 -0.6087  0.3619 -3.5730
  291TIP3    H222509   1.810   4.363   0.238  0.1238 -0.6159  0.7648
  292TIP3   OH222510   5.018   5.979   1.231  0.0290 -0.3970  0.0954
  292TIP3    H122511   4.945   6.025   1.275  0.9647 -0.4211  1.7421
  292TIP3    H222512   4.990   5.973   1.140 -2.4883 -1.2845  0.8460
  293TIP3   OH222513   3.470   1.088   0.373  0.8495  0.3402  0.1893
  293TIP3    H122514   3.499   1.123   0.288  0.2527 -0.4224 -0.3413
  293TIP3    H222515   3.408   1.019   0.350 -1.1305  1.6653  1.2607
  294TIP3   OH222516   3.281   0.724   2.111  0.3063  0.6665  0.2298
  294TIP3    H122517   3.340   0.799   2.104 -0.2152  1.2844  1.9509
  294TIP3    H222518   3.213   0.740   2.045  1.1532  0.7689 -0.6428
  295TIP3   OH222519   5.389   6.182   1.943  0.1830 -0.4801  0.1671
  295TIP3    H122520   5.369   6.115   1.878 -0.4311  1.4103 -1.7147
  295TIP3    H222521   5.313   6.181   2.002  0.0657 -1.2564  0.0121
  296TIP3   OH222522   3.419   5.281   2.529  0.4547 -0.2128  0.5997
  296TIP3    H122523   3.457   5.211   2.581  1.4227  0.5699  0.9798
  296TIP3    H222524   3.475   5.286   2.451 -0.7556 -1.1255 -0.3588
  297TIP3   OH222525   4.995   3.695   2.508 -0.4616  0.4027  0.4286
  297TIP3    H122526   4.938   3.717   2.581 -0.2493  0.4551  0.5806
  297TIP3    H222527   5.011   3.601   2.515 -0.9973  0.2780  0.0464
  298TIP3   OH222528   5.515   3.442   0.013  0.1049  0.2891 -0.2111
  298TIP3    H122529   5.535   3.534   0.032 -2.0779  0.5429  1.1581
  298TIP3    H222530   5.446   3.446  -0.054 -1.3932 -0.2376  1.2423
  299TIP3   OH222531   2.784   2.084   2.758  0.0958 -0.1914 -0.2561
  299TIP3    H122532   2.803   2.025   2.830 -0.3347 -0.8057 -0.6308
  299TIP3    H222533   2.869   2.118   2.730  0.1415  1.4029  1.6386
  300TIP3   OH222534   4.685   1.339   8.497  1.1432 -0.8507  0.2851
  300TIP3    H122535   4.704   1.368   8.408  0.3213 -0.0875  0.3375
  300TIP3    H222536   4.689   1.244   8.493 -0.2854 -0.9027 -0.9214
  301TIP3   OH222537   0.072   5.581   1.966 -0.2905 -0.1651 -0.2513
  301TIP3    H122538   0.095   5.643   1.897  0.8050 -1.3021 -0.9548
  301TIP3    H222539   0.023   5.633   2.030 -0.2982  1.1754 -1.3024
  302TIP3   OH222540   6.035   1.669   2.287  0.4878  0.4622 -0.4872
  302TIP3    H122541   5.980   1.601   2.326 -0.7890  1.4352 -0.5379
  302TIP3    H222542   6.063   1.723   2.361 -0.8573  1.5331 -0.7150
  303TIP3   OH222543   5.612   2.301   8.588  0.5183  0.2557 -0.0358
  303TIP3    H122544   5.602   2.243   8.664 -0.8245  0.3286 -0.1254
  303TIP3    H222545   5.580   2.386   8.619 -1.0715  0.0359 -0.9521
  304TIP3   OH222546   6.857   1.955   2.495  0.7136  0.5026 -0.8508
  304TIP3    H122547   6.894   2.018   2.557  3.1743 -0.5776 -1.1036
  304TIP3    H222548   6.768   1.941   2.526  1.1662  1.6162  1.1546
  305TIP3   OH222549   3.300   5.531   0.492 -0.1532 -0.3086  0.1256
  305TIP3    H122550   3.210   5.549   0.465 -0.1294 -0.4875 -0.0746
  305TIP3    H222551   3.309   5.575   0.577 -0.4175 -0.2588  0.1280
  306TIP3   OH222552   0.831   0.355   1.032 -0.4208  0.3618 -0.0721
  306TIP3    H122553   0.850   0.317   0.946  1.5853 -0.0226  0.4930
  306TIP3    H222554   0.895   0.314   1.091 -2.4822 -0.2565  1.8639
  307TIP3   OH222555   2.019   5.649   7.554 -0.0287 -0.1016 -0.3000
  307TIP3    H122556   1.960   5.617   7.485 -0.7967 -1.8247  1.0686
  307TIP3    H222557   2.083   5.579   7.566 -1.2909 -0.9683  2.2627
  308TIP3   OH222558   4.492   6.608   8.576  0.1419  0.4100  0.9518
  308TIP3    H122559   4.559   6.645   8.519  0.5371 -3.7463 -1.7210
  308TIP3    H222560   4.416   6.594   8.518 -0.2958 -1.8198  1.9296
  309TIP3   OH222561   0.673   0.482   1.245  0.8346 -0.0832 -0.2222
  309TIP3    H122562   0.727   0.471   1.167  0.2532 -1.5768 -0.4332
  309TIP3    H222563   0.638   0.395   1.263 -1.0580  0.7204  0.2375
  310TIP3   OH222564   5.528   4.614   1.951  0.0358  0.3186  0.0156
  310TIP3    H122565   5.460   4.603   2.018 -2.3684  1.0795 -2.1407
  310TIP3    H222566   5.507   4.549   1.885  1.5166  0.5053 -0.6620
  311TIP3   OH222567   1.319   0.087   8.146 -1.1146 -0.0189 -1.1283
  311TIP3    H122568   1.302   0.012   8.204 -2.1769  0.9074 -0.2013
  311TIP3    H222569   1.279   0.161   8.191 -1.2415  0.8784 -2.6837
  312TIP3   OH222570   3.495   1.514   2.180 -0.5195  0.2756  0.6369
  312TIP3    H122571   3.552   1.583   2.214  1.5072 -0.6480 -0.6609
  312TIP3    H222572   3.485   1.453   2.253 -0.3938  0.7935  1.0899
  313TIP3   OH222573   3.495   2.927   0.253 -0.3157  0.0057  0.3949
  313TIP3    H122574   3.545   2.894   0.327  1.0547 -1.2958 -1.0333
  313TIP3    H222575   3.461   3.012   0.283  2.6777  0.9565  1.5255
  314TIP3   OH222576   5.436   1.914   3.013  0.7061  0.3026 -0.2639
  314TIP3    H122577   5.345   1.930   3.036  0.5065 -0.8713 -0.1886
  314TIP3    H222578   5.474   1.873   3.091  1.4535  1.2522 -0.0966
  315TIP3   OH222579   3.919   3.283   7.642  0.1131  0.5625 -0.2973
  315TIP3    H122580   3.966   3.231   7.576 -0.7401 -1.8670  0.9144
  315TIP3    H222581   3.834   3.300   7.602 -0.0430 -0.0493 -0.2424
  316TIP3   OH222582   4.046   6.639   1.035 -0.2322  0.2104  0.2919
  316TIP3    H122583   3.960   6.616   1.001 -0.1538 -2.5090  1.6770
  316TIP3    H222584   4.107   6.611   0.966 -0.3459  0.8474 -0.0834
  317TIP3   OH222585   0.892   6.829   0.511 -0.2753 -0.1779 -0.8047
  317TIP3    H122586   0.967   6.854   0.458 -0.0243  0.8481 -0.0070
  317TIP3    H222587   0.852   6.913   0.537 -1.1514 -0.6840 -0.4616
  318TIP3   OH222588   2.395   0.531   7.687  0.0375  0.0618  0.0464
  318TIP3    H122589   2.397   0.596   7.617  0.8525  0.0642  0.0694
  318TIP3    H222590   2.352   0.455   7.647  0.1315  0.2043 -0.3365
  319TIP3   OH222591   5.230   4.487   1.120  0.5271  0.3915  0.1781
  319TIP3    H122592   5.204   4.401   1.153  1.1059  0.0833 -0.1521
  319TIP3    H222593   5.254   4.537   1.198  0.1797  0.2642  0.3708
  320TIP3   OH222594   0.772   2.653   2.022 -0.1697  0.1496 -0.0492
  320TIP3    H122595   0.792   2.631   1.932 -0.1976  0.1899 -0.0657
  320TIP3    H222596   0.677   2.660   2.025 -0.2778 -1.2613  0.3158
  321TIP3   OH222597   3.921   0.826   3.305 -0.2687  0.2146 -1.3971
  321TIP3    H122598   3.899   0.917   3.284  0.7132  0.9741  0.6102
  321TIP3    H222599   3.843   0.793   3.350  0.3205  0.9481  0.2329
  322TIP3   OH222600   4.452   3.915   2.126  0.3318 -0.8011 -0.6871
  322TIP3    H122601   4.535   3.962   2.131 -1.3107  2.4270 -0.9454
  322TIP3    H222602   4.429   3.897   2.217 -0.0604  1.0833 -0.3712
  323TIP3   OH222603   3.806   2.988   0.412  0.7629  0.4456  0.0630
  323TIP3    H122604   3.758   3.070   0.403 -0.2173 -0.1147  0.1306
  323TIP3    H222605   3.897   3.015   0.423  0.6364  1.4846 -1.2186
  324TIP3   OH222606   2.371   0.915   0.117 -0.1814 -0.1921  0.7174
  324TIP3    H122607   2.304   0.983   0.110 -0.6521 -0.5592  1.5215
  324TIP3    H222608   2.353   0.872   0.200 -0.1793 -1.6033  0.0148
  325TIP3   OH222609   0.565   4.599   1.101 -0.1314 -0.1319 -0.1499
  325TIP3    H122610   0.499   4.593   1.032 -0.6545  4.2138 -0.3223
  325TIP3    H222611   0.649   4.596   1.054 -0.3566 -0.7422 -0.5237
  326TIP3   OH222612   6.551   6.618   7.867 -0.0214 -0.3485  0.0232
  326TIP3    H122613   6.607   6.668   7.807 -0.1092  0.0949  0.3147
  326TIP3    H222614   6.495   6.566   7.809  1.0627 -1.2292 -0.2799
  327TIP3   OH222615   0.770   6.182   8.286  0.0450 -0.1771 -0.0352
  327TIP3    H122616   0.699   6.147   8.231  0.1972  1.5756 -1.4301
  327TIP3    H222617   0.850   6.163   8.237  0.3218  0.1064  0.3067
  328TIP3   OH222618   3.418   5.727   2.779 -0.0340 -0.5011 -0.0081
  328TIP3    H122619   3.443   5.724   2.687 -0.8573  1.0856 -0.3130
  328TIP3    H222620   3.412   5.635   2.805 -1.2828 -1.0178 -1.9355
  329TIP3   OH222621   3.480   6.570   3.266 -1.0664  0.2304 -0.7365
  329TIP3    H122622   3.451   6.507   3.200 -0.4681 -0.6038 -0.2323
  329TIP3    H222623   3.575   6.558   3.270 -1.0171  0.7668 -0.2323
  330TIP3   OH222624   4.573   5.606   3.026  0.0564  0.3582  0.2909
  330TIP3    H122625   4.596   5.548   3.099  1.1285  1.9147  1.2567
  330TIP3    H222626   4.540   5.686   3.068  1.0688  1.4396 -0.8843
  331TIP3   OH222627   4.959   1.811   0.882  0.1438 -0.0441 -0.4860
  331TIP3    H122628   5.043   1.796   0.925  0.2351 -0.4035 -0.7858
  331TIP3    H222629   4.979   1.872   0.810 -0.0103  0.5630 -0.0195
  332TIP3   OH222630   2.677   2.211   8.492  0.7247  0.4998 -0.3158
  332TIP3    H122631   2.725   2.291   8.470  0.5677  0.4290 -0.9405
  332TIP3    H222632   2.631   2.232   8.573 -0.3394  1.4863 -1.1432
  333TIP3   OH222633   3.915   3.440   0.818 -0.1556 -0.0928  0.4271
  333TIP3    H122634   3.935   3.513   0.876 -2.3931  0.7473  0.2506
  333TIP3    H222635   3.935   3.362   0.870  1.5895  0.6122  0.8733
  334TIP3   OH222636   4.947   2.261   0.964  0.0688  0.1105 -0.0315
  334TIP3    H122637   4.998   2.264   0.883  1.3657 -1.2029  0.6862
  334TIP3    H222638   4.984   2.331   1.018  1.3674 -1.0180  0.5955
  335TIP3   OH222639   6.751   3.293   3.016 -0.0222  0.3240 -0.1411
  335TIP3    H122640   6.786   3.359   3.077  1.0708 -3.1747  3.4605
  335TIP3    H222641   6.663   3.275   3.048  0.1816 -0.8598 -0.1896
  336TIP3   OH222642   6.298   3.377   8.268  0.7444  0.5184  0.3626
  336TIP3    H122643   6.231   3.366   8.200  1.6173 -0.6140 -0.3433
  336TIP3    H222644   6.291   3.298   8.321  1.4378  0.4567  0.3661
  337TIP3   OH222645   2.331   2.512   8.645  0.5814  0.4170 -0.1080
  337TIP3    H122646   2.259   2.461   8.681  0.3988  1.0493  0.4330
  337TIP3    H222647   2.299   2.542   8.560  0.9038 -0.8293 -0.7007
  338TIP3   OH222648   2.388   3.705   2.784 -0.4316 -0.4127  0.1671
  338TIP3    H122649   2.325   3.671   2.721 -0.9077 -0.0629  0.4435
  338TIP3    H222650   2.452   3.635   2.795 -1.5604 -1.3725  0.9638
  339TIP3   OH222651   0.894   4.071   2.260 -0.3500  0.5386 -0.2224
  339TIP3    H122652   0.904   4.083   2.354  0.2828 -0.5892 -0.1293
  339TIP3    H222653   0.857   4.154   2.229 -1.1465  0.6948  1.0973
  340TIP3   OH222654   3.163   2.513   2.090 -0.6243  0.0507 -0.0144
  340TIP3    H122655   3.082   2.560   2.068 -0.2100  0.1680 -1.3668
  340TIP3    H222656   3.135   2.423   2.103 -0.7622 -0.2611 -2.1896
  341TIP3   OH222657   3.624   3.774   8.145  0.8572  0.1929 -0.3702
  341TIP3    H122658   3.696   3.720   8.114 -0.5038  0.0463 -3.6554
  341TIP3    H222659   3.618   3.845   8.081 -2.4081 -0.3207 -0.8094
  342TIP3   OH222660   6.467   3.755   3.447 -0.5775  0.4579 -0.5048
  342TIP3    H122661   6.496   3.685   3.388 -0.6165 -0.5926  0.6895
  342TIP3    H222662   6.415   3.813   3.391  0.7702  0.4049 -1.8652
  343TIP3   OH222663   2.337   2.444   0.982 -0.6143 -0.1010 -0.0196
  343TIP3    H122664   2.271   2.458   0.915 -0.3016 -0.0335 -0.3178
  343TIP3    H222665   2.307   2.367   1.030 -0.0622 -1.0901 -1.2129
  344TIP3   OH222666   6.330   6.442   0.985 -0.3130 -0.1841  0.1111
  344TIP3    H122667   6.392   6.509   1.016  1.2642 -1.3277 -0.4216
  344TIP3    H222668   6.386   6.369   0.957 -1.9096 -1.1305 -0.7571
  345TIP3   OH222669   1.850   4.798   7.251  0.1934 -0.0511 -0.0583
  345TIP3    H122670   1.816   4.852   7.323 -0.3299 -0.3986 -0.0380
  345TIP3    H222671   1.944   4.816   7.250  0.4418 -1.0591  1.6027
  346TIP3   OH222672   5.414   2.404   0.230  0.0014  0.1224  0.1797
  346TIP3    H122673   5.412   2.316   0.268 -0.7859 -0.0285 -0.1946
  346TIP3    H222674   5.341   2.405   0.169  1.5870  0.1302 -1.8203
  347TIP3   OH222675   2.952   3.230   1.736  0.2176  0.2163  0.5582
  347TIP3    H122676   2.993   3.143   1.734  0.5653  0.3831  0.4209
  347TIP3    H222677   2.902   3.235   1.654  0.1903  0.1440  0.5702
  348TIP3   OH222678   4.362   6.787   2.540 -0.5486  0.1881 -0.4059
  348TIP3    H122679   4.398   6.763   2.455 -0.8932 -0.9814 -0.2298
  348TIP3    H222680   4.283   6.734   2.549 -0.1306 -0.2500  0.9579
  349TIP3   OH222681   1.363   6.565   1.460  0.1775 -0.1729  0.0037
  349TIP3    H122682   1.408   6.480   1.458  0.3744 -0.1094  1.0116
  349TIP3    H222683   1.291   6.555   1.398 -0.8449 -1.6856  1.3352
  350TIP3   OH222684   6.754   5.330   0.580 -0.3075 -0.5661 -0.6912
  350TIP3    H122685   6.805   5.394   0.530 -1.4792 -0.3446 -1.6617
  350TIP3    H222686   6.668   5.332   0.539 -1.3804 -0.2768  1.4414
  351TIP3   OH222687   1.197   4.192   3.580  0.7791  0.3830 -0.4539
  351TIP3    H122688   1.187   4.233   3.666  1.8660  1.0185 -0.6168
  351TIP3    H222689   1.285   4.216   3.552  1.2487 -1.5908 -0.8207
  352TIP3   OH222690   6.491   2.768   1.168 -0.5158  0.3230  0.1904
  352TIP3    H122691   6.468   2.846   1.118 -0.8504  1.4524  2.0174
  352TIP3    H222692   6.407   2.734   1.198 -0.2532  0.4690  1.1195
  353TIP3   OH222693   1.962   5.902   7.876 -0.2124  0.0228  0.2087
  353TIP3    H122694   1.870   5.900   7.902 -0.1693 -3.0456  0.5005
  353TIP3    H222695   1.997   5.979   7.920 -2.6871  1.5075 -0.2194
  354TIP3   OH222696   5.418   1.803   7.826  0.1922 -0.1381 -0.2467
  354TIP3    H122697   5.329   1.836   7.835 -0.0048 -0.8048  0.4604
  354TIP3    H222698   5.434   1.800   7.732 -0.0210  1.2757 -0.3416
  355TIP3   OH222699   3.589   4.849   8.517  0.3945  0.3726 -0.5871
  355TIP3    H122700   3.512   4.797   8.537 -0.5824  1.9167 -0.1027
  355TIP3    H222701   3.574   4.883   8.429 -0.1314  1.6791 -0.0343
  356TIP3   OH222702   2.125   1.198   2.146  0.5731 -0.7600 -0.2339
  356TIP3    H122703   2.212   1.185   2.107  0.4018 -2.0809 -0.2099
  356TIP3    H222704   2.109   1.118   2.196 -1.4216 -1.3402 -1.6922
  357TIP3   OH222705   3.110   4.355   2.224  0.1890 -0.0928 -0.3140
  357TIP3    H122706   3.077   4.402   2.301 -2.1455 -1.9208 -0.1219
  357TIP3    H222707   3.046   4.373   2.156  1.4327  0.2332 -1.4414
  358TIP3   OH222708   6.222   4.935   1.641  0.0160 -0.5655  0.1749
  358TIP3    H122709   6.312   4.929   1.608 -0.0366 -0.0426 -0.0724
  358TIP3    H222710   6.191   5.020   1.610 -0.5579 -0.7334  0.2791
  359TIP3   OH222711   3.594   0.703   2.846 -0.6875  0.8670  0.0958
  359TIP3    H122712   3.529   0.669   2.784 -0.9343 -1.2176  1.3946
  359TIP3    H222713   3.581   0.650   2.925  1.2995  1.7249  1.0551
  360TIP3   OH222714   6.154   4.251   7.624  0.9806 -0.0140  0.0948
  360TIP3    H122715   6.084   4.281   7.565  2.4810 -0.2029 -1.8844
  360TIP3    H222716   6.177   4.328   7.675 -0.7903 -0.0045  0.9669
  361TIP3   OH222717   1.564   2.422   2.881  0.3389 -0.7536  0.2358
  361TIP3    H122718   1.497   2.487   2.902  0.4986 -0.9037  1.2357
  361TIP3    H222719   1.646   2.472   2.880  0.3072 -0.6992 -0.3250
  362TIP3   OH222720   4.589   3.189   3.035  0.0928 -0.1933 -0.5424
  362TIP3    H122721   4.632   3.234   3.108  1.4297  0.0758 -1.4533
  362TIP3    H222722   4.498   3.219   3.038  0.8009  2.1767 -0.7798
  363TIP3   OH222723   2.994   0.661   0.952 -0.1662 -0.1521  0.1358
  363TIP3    H122724   3.002   0.607   0.873  1.0424 -0.1124  0.2088
  363TIP3    H222725   2.972   0.748   0.920  2.1697  0.3253 -0.3560
  364TIP3   OH222726   1.496   3.934   2.027 -0.1817 -0.6434 -0.4081
  364TIP3    H122727   1.440   3.941   1.950 -0.4846  1.9538 -0.0289
  364TIP3    H222728   1.477   3.847   2.062 -1.3243 -1.2043 -2.2755
  365TIP3   OH222729   4.262   2.329   0.102  0.3485 -0.3184 -0.0205
  365TIP3    H122730   4.192   2.394   0.113  0.3373 -0.1433 -1.0024
  365TIP3    H222731   4.217   2.245   0.095  0.0672 -0.0397 -2.2987
  366TIP3   OH222732   2.108   5.055   8.516  0.7388  0.4130  0.7810
  366TIP3    H122733   2.124   4.979   8.459 -1.1425  0.6203 -0.0764
  366TIP3    H222734   2.085   5.017   8.600  0.9340  0.0593  0.6790
  367TIP3   OH222735   3.200   3.185   2.683 -0.7261  0.2065 -0.5293
  367TIP3    H122736   3.261   3.123   2.642 -0.7790  1.2820 -2.3068
  367TIP3    H222737   3.201   3.161   2.776  1.9212 -0.2015 -0.5996
  368TIP3   OH222738   3.552   1.717   1.418  0.1870  0.6625  0.1707
  368TIP3    H122739   3.533   1.623   1.427 -0.8550  0.9045  0.6375
  368TIP3    H222740   3.492   1.747   1.350 -2.1096  1.6810  2.4904
  369TIP3   OH222741   4.452   3.703   1.698  0.1867  0.0639  0.6765
  369TIP3    H122742   4.433   3.707   1.792  0.6702  0.1702  0.7756
  369TIP3    H222743   4.518   3.634   1.690  1.0043  0.8257  0.5797
  370TIP3   OH222744   1.259   5.788   2.011  0.8024 -0.3922 -0.5332
  370TIP3    H122745   1.215   5.838   1.942  1.8871  2.8764  0.9381
  370TIP3    H222746   1.341   5.760   1.971 -0.0967 -1.6632 -1.5792
  371TIP3   OH222747   1.280   5.109   7.198 -0.4779 -0.3174  0.0215
  371TIP3    H122748   1.214   5.039   7.200  0.9512 -1.7010  0.5568
  371TIP3    H222749   1.310   5.111   7.107 -0.2506 -0.6689  0.0878
  372TIP3   OH222750   1.837   0.751   3.197 -0.1371 -0.5559  0.0709
  372TIP3    H122751   1.808   0.662   3.219 -0.2516 -1.1485 -2.1968
  372TIP3    H222752   1.923   0.759   3.240  0.5465 -2.3504 -0.8396
  373TIP3   OH222753   1.019   3.901   2.851  0.1125  0.0768  0.2337
  373TIP3    H122754   0.926   3.921   2.848  0.2348  0.7862 -3.6532
  373TIP3    H222755   1.032   3.835   2.783  2.2905 -1.0702  1.6381
  374TIP3   OH222756   5.960   2.641   7.813 -0.4146 -0.2822 -0.1834
  374TIP3    H122757   6.003   2.576   7.758 -0.2064 -1.6699  1.5272
  374TIP3    H222758   5.867   2.634   7.791 -0.1423  0.7020 -1.8326
  375TIP3   OH222759   5.526   6.189   0.796 -0.4529 -0.3467  0.5380
  375TIP3    H122760   5.492   6.279   0.799  0.6037  0.0583  3.2173
  375TIP3    H222761   5.455   6.138   0.758 -0.6333  1.7268 -2.3112
  376TIP3   OH222762   3.056   2.996   3.243 -0.1745 -0.2142  0.5308
  376TIP3    H122763   2.972   2.956   3.266  1.6875 -3.6769  2.1003
  376TIP3    H222764   3.120   2.928   3.261  2.8407  1.4406 -2.8574
  377TIP3   OH222765   6.749   6.346   8.240  0.3395 -0.3186  0.2157
  377TIP3    H122766   6.838   6.312   8.231  0.5498  0.0392  0.8526
  377TIP3    H222767   6.751   6.433   8.201  0.8837  0.6385  2.2125
  378TIP3   OH222768   2.296   2.191   8.482 -0.2614  0.5533  0.1842
  378TIP3    H122769   2.246   2.272   8.493 -0.8144  0.5225 -1.6735
  378TIP3    H222770   2.270   2.160   8.395  1.4739 -0.5467  0.0264
  379TIP3   OH222771   0.473   6.061   3.402  0.0476 -0.2347 -0.8230
  379TIP3    H122772   0.561   6.096   3.416 -0.2978  0.6788 -0.8482
  379TIP3    H222773   0.468   6.045   3.308  0.1856 -0.2904 -0.8215
  380TIP3   OH222774   4.918   1.450   1.655  0.2026  0.1818 -0.3189
  380TIP3    H122775   5.011   1.471   1.648  0.4713  0.5096  2.7206
  380TIP3    H222776   4.897   1.405   1.573  3.2659 -0.8141 -0.6950
  381TIP3   OH222777   2.995   2.645   2.727 -0.1444 -0.1486 -0.7620
  381TIP3    H122778   2.928   2.583   2.756 -1.6578  1.7262 -0.1195
  381TIP3    H222779   3.038   2.673   2.808 -0.6471  0.9495 -0.8722
  382TIP3   OH222780   3.644   5.328   2.954  0.1347  0.4180  0.4509
  382TIP3    H122781   3.621   5.387   3.025  0.8435 -0.5642  1.5355
  382TIP3    H222782   3.583   5.255   2.962  2.0703 -1.1653  2.0157
  383TIP3   OH222783   5.790   4.111   8.535 -0.4315  0.0536 -0.1955
  383TIP3    H122784   5.703   4.105   8.496  0.0725  0.3865 -1.3897
  383TIP3    H222785   5.785   4.052   8.611 -2.3687  1.6835  1.0708
  384TIP3   OH222786   4.520   4.071   0.521 -0.2724  0.4090  0.6876
  384TIP3    H122787   4.445   4.121   0.489 -0.2322  1.2847  1.8809
  384TIP3    H222788   4.540   4.110   0.607  1.7133  0.4063  0.2819
  385TIP3   OH222789   0.412   4.518   7.992 -0.3385  0.0017 -0.2964
  385TIP3    H122790   0.361   4.595   8.017  0.3921  0.1287  0.9153
  385TIP3    H222791   0.480   4.552   7.934 -1.8323 -0.2356 -2.2732
  386TIP3   OH222792   1.051   5.417   8.324 -0.4375  0.7741  0.2190
  386TIP3    H122793   1.023   5.379   8.407 -2.2228  0.4502 -0.4820
  386TIP3    H222794   0.984   5.391   8.261  0.2346  1.9953 -1.0859
  387TIP3   OH222795   1.612   6.225   2.898  0.7277  0.3345 -0.1025
  387TIP3    H122796   1.549   6.155   2.880 -0.5323  1.6833 -1.1953
  387TIP3    H222797   1.632   6.217   2.991 -0.1803 -0.8343  0.0089
  388TIP3   OH222798   5.109   2.517   1.071 -0.4716  0.2246 -0.1921
  388TIP3    H122799   5.079   2.599   1.109 -0.7612 -0.0835  0.2549
  388TIP3    H222800   5.200   2.509   1.100 -0.5250  0.2552 -0.0161
  389TIP3   OH222801   6.500   1.701   2.667  0.5811  0.1795 -0.3008
  389TIP3    H122802   6.448   1.672   2.742  0.0514  2.9521  0.5025
  389TIP3    H222803   6.554   1.625   2.645 -1.3508 -1.6919  0.9840
  390TIP3   OH222804   4.471   4.240   2.903  0.3694 -0.2617 -0.1018
  390TIP3    H122805   4.529   4.206   2.835  1.2167 -2.5156  1.6149
  390TIP3    H222806   4.383   4.226   2.869  0.7499  1.1237 -1.7933
  391TIP3   OH222807   6.693   5.800   6.995 -0.4750 -0.9275 -0.3526
  391TIP3    H122808   6.744   5.844   7.063 -2.0403 -0.3119  0.4776
  391TIP3    H222809   6.724   5.710   6.996  2.6979 -0.0248 -1.9676
  392TIP3   OH222810   0.923   4.389   1.162  0.6370 -0.3700  0.6485
  392TIP3    H122811   0.838   4.379   1.205 -0.1214  1.0895 -0.4188
  392TIP3    H222812   0.943   4.302   1.128 -2.5448 -0.0055 -2.7699
  393TIP3   OH222813   3.255   5.856   1.033  0.1846 -0.1448 -0.3161
  393TIP3    H122814   3.261   5.760   1.038 -0.9085 -0.2174 -0.0275
  393TIP3    H222815   3.216   5.873   0.947 -0.0293  0.0059 -0.1912
  394TIP3   OH222816   0.984   3.144   2.313 -0.7400  0.7205  0.2081
  394TIP3    H122817   0.956   3.210   2.377  2.2497  1.4005  0.9575
  394TIP3    H222818   1.001   3.066   2.366  0.1428  0.7828  0.0316
  395TIP3   OH222819   6.062   6.473   3.169  0.6355 -0.3807 -0.1554
  395TIP3    H122820   6.018   6.498   3.251  1.4379  1.5499 -0.2714
  395TIP3    H222821   6.153   6.500   3.181  0.9344 -0.7693 -1.4171
  396TIP3   OH222822   0.017   2.551   1.322 -0.1954 -0.0597  0.3673
  396TIP3    H122823   0.111   2.567   1.329 -0.1037 -0.4853  0.1719
  396TIP3    H222824  -0.024   2.629   1.358  0.2336  0.2490  0.1927
  397TIP3   OH222825   0.494   0.036   0.834 -0.7146 -0.1679  0.3849
  397TIP3    H122826   0.470   0.091   0.908 -0.5731  0.4604 -0.0248
  397TIP3    H222827   0.530  -0.043   0.873  1.2041  0.9453  1.0207
  398TIP3   OH222828   5.503   4.587   0.796 -0.3187 -0.3045 -0.3456
  398TIP3    H122829   5.585   4.562   0.752 -0.6101 -0.1802 -0.9661
  398TIP3    H222830   5.532   4.633   0.874  0.2124 -0.5506 -0.3891
  399TIP3   OH222831   1.738   0.152   2.923 -0.2293 -0.0387 -0.1375
  399TIP3    H122832   1.653   0.110   2.912 -0.8548  0.8224  1.1235
  399TIP3    H222833   1.796   0.107   2.861 -1.3482 -1.3442 -0.2746
  400TIP3   OH222834   6.803   1.907   1.407  0.2056  0.3129 -0.4967
  400TIP3    H122835   6.765   1.833   1.360  2.1960 -1.0165 -0.1457
  400TIP3    H222836   6.745   1.980   1.388  0.2543 -0.4070 -4.0753
  401TIP3   OH222837   6.003   0.940   1.510 -0.6593  0.0667  0.8338
  401TIP3    H122838   5.941   0.880   1.469 -1.5458 -1.0861  3.6804
  401TIP3    H222839   6.031   0.895   1.590  2.4553  1.3664  0.6181
  402TIP3   OH222840   3.381   1.016   0.649  0.2800 -0.4833  0.0375
  402TIP3    H122841   3.396   1.083   0.582  1.3567 -1.8533 -1.1660
  402TIP3    H222842   3.288   0.993   0.639  0.8757 -2.1581 -2.5294
  403TIP3   OH222843   4.025   2.344   1.716  0.4420  0.4020  0.0047
  403TIP3    H122844   3.974   2.292   1.654  1.3637  1.2076 -1.5000
  403TIP3    H222845   4.097   2.286   1.743 -0.2531 -0.1291  0.7586
  404TIP3   OH222846   2.279   5.419   8.504  0.2147 -0.0800 -0.1110
  404TIP3    H122847   2.315   5.358   8.440 -0.9530 -0.7478 -0.1752
  404TIP3    H222848   2.304   5.505   8.472  0.6248 -0.4634 -0.8416
  405TIP3   OH222849   4.898   1.555   3.069  0.6833  0.3895  0.5313
  405TIP3    H122850   4.968   1.610   3.104  0.6399  0.1669  0.9646
  405TIP3    H222851   4.944   1.483   3.025  0.7364  0.6743  0.1086
  406TIP3   OH222852   3.956   1.909   2.270  0.9919  0.2508  0.3534
  406TIP3    H122853   3.878   1.957   2.243  2.8616  2.3092 -1.8824
  406TIP3    H222854   3.954   1.829   2.217  1.0210  0.9252 -0.6970
  407TIP3   OH222855   6.900   4.845   7.792 -0.1534 -0.1863 -0.5769
  407TIP3    H122856   6.848   4.856   7.872  0.6936 -0.2265 -0.0138
  407TIP3    H222857   6.990   4.856   7.820  0.3217 -2.1471 -1.1448
  408TIP3   OH222858   3.855   4.042   7.971 -0.0595  0.2293  0.3912
  408TIP3    H122859   3.910   4.041   7.893  0.6234 -0.1467  0.8733
  408TIP3    H222860   3.771   4.007   7.942  0.3294 -0.3220 -0.0772
  409TIP3   OH222861   6.331   0.953   2.385 -0.0278 -0.0839 -0.4659
  409TIP3    H122862   6.283   1.034   2.364  0.0046  0.3278  0.9674
  409TIP3    H222863   6.416   0.983   2.416  0.1599 -0.7033 -0.3721
  410TIP3   OH222864   3.294   4.845   2.417 -0.5390  0.1775 -0.3583
  410TIP3    H122865   3.231   4.786   2.458 -0.7326 -0.1540 -1.1217
  410TIP3    H222866   3.261   4.933   2.435 -0.8687  0.0240 -0.2119
  411TIP3   OH222867   0.375   1.958   0.687  0.3525 -0.0992  0.7038
  411TIP3    H122868   0.457   2.006   0.704  0.1318  1.1148 -1.2686
  411TIP3    H222869   0.312   2.027   0.665 -0.6979 -1.1469  0.3600
  412TIP3   OH222870   6.887   5.988   2.548  0.2420 -0.0806 -0.1178
  412TIP3    H122871   6.928   5.997   2.634 -0.2404  0.4209  0.0615
  412TIP3    H222872   6.830   5.911   2.556  0.3886 -0.1849 -0.0697
  413TIP3   OH222873   3.206   2.471   2.739 -0.7171  0.0365  0.5123
  413TIP3    H122874   3.217   2.484   2.833 -0.4298  1.3526  0.3097
  413TIP3    H222875   3.135   2.529   2.714  1.1043  1.9582 -0.5515
  414TIP3   OH222876   6.292   4.891   2.367  0.4749 -0.4187 -0.1133
  414TIP3    H122877   6.232   4.846   2.427  1.0070  0.4317  1.0892
  414TIP3    H222878   6.375   4.844   2.378  0.5456 -0.3238 -0.2452
  415TIP3   OH222879   3.305   4.519   8.463 -0.1345  0.4028  0.0160
  415TIP3    H122880   3.367   4.466   8.515  0.7195 -1.0657 -2.3015
  415TIP3    H222881   3.327   4.609   8.484  0.9513 -0.1221  1.3039
  416TIP3   OH222882   0.331   6.113   2.167 -0.1586  0.8039  0.1007
  416TIP3    H122883   0.382   6.176   2.117  2.4403  0.0369  1.5687
  416TIP3    H222884   0.346   6.137   2.259  0.2156 -1.3399  0.6660
  417TIP3   OH222885   6.757   5.732   2.565  0.5971 -0.0595  0.0311
  417TIP3    H122886   6.691   5.749   2.633  2.4048  0.4429  1.7648
  417TIP3    H222887   6.753   5.638   2.550 -1.2647  0.1090 -0.7615
  418TIP3   OH222888   4.123   2.751   1.726  0.4764 -0.3462 -0.2703
  418TIP3    H122889   4.047   2.808   1.737  0.3173 -0.4175 -0.9471
  418TIP3    H222890   4.093   2.681   1.668  0.3337 -1.7530  1.4041
  419TIP3   OH222891   1.255   5.725   2.856  0.2427  0.1711 -0.1568
  419TIP3    H122892   1.230   5.784   2.927  0.1242 -0.8525  0.6812
  419TIP3    H222893   1.278   5.783   2.783 -0.3488  1.2286  0.4721
  420TIP3   OH222894   1.999   6.305   2.081  0.0168 -0.1210 -0.0537
  420TIP3    H122895   2.030   6.214   2.072  0.4149 -0.1846  1.6574
  420TIP3    H222896   1.905   6.297   2.095 -0.4152 -0.0812 -2.4757
  421TIP3   OH222897   6.905   2.006   3.061 -0.0776 -0.1036  0.1961
  421TIP3    H122898   6.832   1.986   3.120 -0.5973 -0.1459 -0.4484
  421TIP3    H222899   6.951   2.078   3.103 -0.5836  0.0248  0.5460
  422TIP3   OH222900   5.501   2.151   2.655  0.5714 -0.3484 -0.2693
  422TIP3    H122901   5.553   2.146   2.735  0.1986 -0.9258 -0.0567
  422TIP3    H222902   5.527   2.074   2.604  0.2941 -0.3677 -0.3849
  423TIP3   OH222903   0.705   1.535   1.576  0.1654  0.0356 -0.2013
  423TIP3    H122904   0.699   1.456   1.522  0.6218 -0.0456 -0.1355
  423TIP3    H222905   0.799   1.551   1.585  0.0774  0.7143 -0.3987
  424TIP3   OH222906   4.251   2.743   2.018 -0.0669  0.7952  0.0425
  424TIP3    H122907   4.196   2.690   1.959  2.1866  0.1950 -1.6800
  424TIP3    H222908   4.200   2.823   2.033 -1.9240 -0.2366 -0.4256
  425TIP3   OH222909   5.741   2.735   0.385 -0.3051 -0.0263  0.1182
  425TIP3    H122910   5.739   2.828   0.409 -1.6082  0.3190 -1.1642
  425TIP3    H222911   5.649   2.713   0.369  0.1515 -1.1165 -1.1310
  426TIP3   OH222912   1.933   3.932   0.383  0.1021 -0.1527  0.4693
  426TIP3    H122913   1.860   3.907   0.326 -1.3241  1.3011  1.5562
  426TIP3    H222914   1.995   3.976   0.325  0.6999 -2.3897 -0.6809
  427TIP3   OH222915   1.793   1.591   0.723 -0.2019 -0.1764  0.0933
  427TIP3    H122916   1.762   1.501   0.732 -0.3487 -0.0521  0.9856
  427TIP3    H222917   1.718   1.639   0.690  0.3522 -0.6593 -1.9913
  428TIP3   OH222918   5.569   2.611   3.401  0.3800  0.0885 -0.3348
  428TIP3    H122919   5.477   2.631   3.418  0.5302 -0.1744  0.9206
  428TIP3    H222920   5.575   2.604   3.306 -0.8142  0.4860 -0.4594
  429TIP3   OH222921   4.988   1.527   0.392 -0.0764  0.0644  0.6006
  429TIP3    H122922   4.938   1.551   0.470 -0.3833  0.2035  0.3616
  429TIP3    H222923   4.923   1.515   0.324  0.2754  1.4728 -0.0334
  430TIP3   OH222924   1.762   6.777   8.158 -0.2164  0.1873  0.1991
  430TIP3    H122925   1.811   6.854   8.129 -0.2156  0.5715  1.2135
  430TIP3    H222926   1.698   6.811   8.221  1.0527 -0.8746  2.1483
  431TIP3   OH222927   1.485   6.141   0.642  0.1121  0.0463 -0.3391
  431TIP3    H122928   1.571   6.183   0.644  0.5917 -0.8875  1.3537
  431TIP3    H222929   1.505   6.047   0.638 -0.7959 -0.2038  0.5947
  432TIP3   OH222930   3.803   0.915   8.336 -0.3587  0.0333 -0.2886
  432TIP3    H122931   3.795   0.828   8.376 -1.2218 -0.2189 -0.9598
  432TIP3    H222932   3.884   0.950   8.371  0.1689 -1.1715 -0.2361
  433TIP3   OH222933   5.846   2.702   3.363 -0.3643  0.6869 -0.0063
  433TIP3    H122934   5.896   2.711   3.445 -1.4526  0.0124  0.7536
  433TIP3    H222935   5.760   2.672   3.391  0.1360 -2.6848 -1.6231
  434TIP3   OH222936   1.746   5.190   0.979 -0.0322  0.6858  0.4795
  434TIP3    H122937   1.676   5.129   0.957  1.4123 -0.8666 -0.0673
  434TIP3    H222938   1.762   5.174   1.072 -0.7686  1.4478  0.7416
  435TIP3   OH222939   3.457   6.331   8.050  0.2321  0.5472  0.6073
  435TIP3    H122940   3.463   6.249   8.098 -1.5024  0.2257  0.3440
  435TIP3    H222941   3.496   6.313   7.964 -2.7251 -0.9644 -0.5561
  436TIP3   OH222942   6.402   0.322   2.466  0.5767 -0.1977  0.1926
  436TIP3    H122943   6.350   0.359   2.537  0.8225  2.1329 -0.7570
  436TIP3    H222944   6.493   0.326   2.498  0.6644  0.6385 -0.1394
  437TIP3   OH222945   4.003   3.036   3.410 -0.3838  0.2264 -0.0798
  437TIP3    H122946   4.022   3.074   3.496 -1.5691 -1.7404  1.1366
  437TIP3    H222947   4.068   3.074   3.352  1.4227  0.4970  1.9915
  438TIP3   OH222948   3.756   3.129   3.383  0.2218  0.0787  0.3067
  438TIP3    H122949   3.829   3.070   3.403 -0.2684 -0.4549  0.5482
  438TIP3    H222950   3.775   3.163   3.296  1.6053  1.2218  1.0170
  439TIP3   OH222951   1.724   4.335   3.120 -0.6466 -0.3760 -0.3925
  439TIP3    H122952   1.737   4.411   3.177 -1.7369 -0.1824 -0.3864
  439TIP3    H222953   1.771   4.264   3.164  0.6072  0.3349 -0.5300
  440TIP3   OH222954   4.771   1.997   2.587  0.4274 -0.1615 -0.7061
  440TIP3    H122955   4.816   1.949   2.655 -0.5132 -2.0171 -1.3230
  440TIP3    H222956   4.680   1.969   2.594 -0.4966  2.6900 -0.1527
  441TIP3   OH222957   1.781   6.853   1.113 -0.0789  0.3231 -0.0621
  441TIP3    H122958   1.791   6.773   1.165  1.0737  0.9428  0.7129
  441TIP3    H222959   1.858   6.854   1.056 -0.4240  0.5588 -0.5262
  442TIP3   OH222960   2.997   6.263   0.809  0.1655  0.5275 -0.5131
  442TIP3    H122961   3.022   6.185   0.857 -0.5913  0.5009 -0.1556
  442TIP3    H222962   2.909   6.284   0.840 -0.6326  0.1281 -2.3339
  443TIP3   OH222963   3.755   3.506   1.119  0.3763 -0.2148  0.5940
  443TIP3    H122964   3.765   3.413   1.096 -0.6729 -0.7099  2.0128
  443TIP3    H222965   3.831   3.524   1.175  0.4346 -0.2942  0.5413
  444TIP3   OH222966   1.288   6.505   1.964  0.1196 -0.4893 -0.6473
  444TIP3    H122967   1.317   6.584   1.920 -0.8424 -0.5596 -1.4498
  444TIP3    H222968   1.192   6.512   1.963  0.0626 -0.7946  0.8884
  445TIP3   OH222969   6.642   6.357   3.782 -0.4095  0.6206 -0.0564
  445TIP3    H122970   6.588   6.434   3.803  0.1630  0.5852  1.6974
  445TIP3    H222971   6.728   6.377   3.819 -0.5768 -1.3584  1.5572
  446TIP3   OH222972   6.252   4.970   3.222 -0.2183 -0.0262 -0.1452
  446TIP3    H122973   6.257   5.024   3.142  0.4921 -0.0104 -0.1013
  446TIP3    H222974   6.342   4.970   3.256 -0.8362  1.4134  1.6276
  447TIP3   OH222975   5.780   3.179   8.470 -0.3151 -0.2673 -0.8465
  447TIP3    H122976   5.778   3.127   8.389  2.3934  2.3178 -2.7522
  447TIP3    H222977   5.870   3.172   8.501 -0.8324  0.3722  0.9126
  448TIP3   OH222978   6.275   1.601   2.805  0.7796 -0.2427 -0.3052
  448TIP3    H122979   6.210   1.635   2.743 -0.2925 -0.4533  0.6709
  448TIP3    H222980   6.258   1.507   2.809  1.4009 -0.3631 -0.3181
  449TIP3   OH222981   5.033   4.634   1.540  0.2686  0.0699  0.7592
  449TIP3    H122982   5.009   4.615   1.631  1.0663  0.4975  1.0625
  449TIP3    H222983   5.018   4.552   1.493 -0.5968 -0.0241  1.1770
  450TIP3   OH222984   4.844   3.685   0.587  0.2710 -0.1528 -0.3822
  450TIP3    H122985   4.751   3.701   0.570  0.0624  0.7519  1.3571
  450TIP3    H222986   4.844   3.608   0.644  0.7822 -1.5914 -2.2280
  451TIP3   OH222987   3.552   1.703   0.624 -0.2361  0.2246  0.2210
  451TIP3    H122988   3.587   1.614   0.617 -1.0438 -0.1694  0.9361
  451TIP3    H222989   3.580   1.733   0.710 -0.8186  0.2751  0.3959
  452TIP3   OH222990   4.075   0.821   1.469 -0.7970 -0.7078  0.0045
  452TIP3    H122991   3.984   0.848   1.476 -0.6403  0.6119 -2.0629
  452TIP3    H222992   4.083   0.784   1.381  0.7086 -0.5209  0.0289
  453TIP3   OH222993   5.161   4.144   0.012 -0.0734  0.0616  0.4729
  453TIP3    H122994   5.111   4.063  -0.000 -0.7758  0.3883  1.1028
  453TIP3    H222995   5.240   4.117   0.058 -0.6620 -0.1795  1.3810
  454TIP3   OH222996   0.246   4.131   0.243 -0.3104 -0.2673 -0.0710
  454TIP3    H122997   0.213   4.182   0.169 -0.6079  1.9327  1.4848
  454TIP3    H222998   0.320   4.082   0.207  0.4356  1.7955 -1.5542
  455TIP3   OH222999   3.923   6.578   8.104 -0.0033  0.2193  0.3400
  455TIP3    H123000   3.878   6.641   8.048  0.9499 -0.6708 -1.4721
  455TIP3    H223001   3.877   6.495   8.088  0.5819 -0.1419  0.5237
  456TIP3   OH223002   3.539   0.056   1.757 -0.6098  0.1131 -0.2097
  456TIP3    H123003   3.449   0.075   1.786 -0.1277  0.2318  1.3100
  456TIP3    H223004   3.585   0.139   1.766  0.2243 -0.4797  1.3991
  457TIP3   OH223005   0.931   1.360   0.533  0.1350 -0.2166  0.1668
  457TIP3    H123006   1.013   1.409   0.521  0.7150 -0.7974  1.5281
  457TIP3    H223007   0.951   1.295   0.601 -1.1147 -1.1941 -0.3519
  458TIP3   OH223008   5.066   6.543   2.970  0.1599 -0.5146  0.2099
  458TIP3    H123009   5.005   6.609   3.004  1.8590  1.6371 -0.7045
  458TIP3    H223010   5.116   6.516   3.047 -0.5398 -0.7591  0.5919
  459TIP3   OH223011   3.794   5.399   3.405  0.2406 -0.2142 -0.1208
  459TIP3    H123012   3.715   5.423   3.355  0.6101 -0.6998 -0.9542
  459TIP3    H223013   3.785   5.305   3.420 -0.4914  0.1253  1.8738
  460TIP3   OH223014   4.358   2.052   0.979 -0.8520  0.3631 -0.0227
  460TIP3    H123015   4.351   2.146   0.961  2.2591  0.5003 -1.1381
  460TIP3    H223016   4.345   2.044   1.073  2.3520  2.5043  0.7528
  461TIP3   OH223017   4.687   5.407   0.850 -0.0291 -0.3271  0.0119
  461TIP3    H123018   4.612   5.452   0.888  1.1344  1.2125  0.5932
  461TIP3    H223019   4.686   5.432   0.758 -0.2576 -0.3483  0.0095
  462TIP3   OH223020   1.339   5.619   2.396  0.0141 -0.6187 -0.1501
  462TIP3    H123021   1.334   5.548   2.331 -2.7895 -0.7947  0.1595
  462TIP3    H223022   1.331   5.574   2.481  0.5671 -0.1077  0.1815
  463TIP3   OH223023   4.055   1.449   7.944 -0.4634  0.8616  0.0104
  463TIP3    H123024   4.008   1.506   7.883 -3.7234 -1.2871  0.2355
  463TIP3    H223025   4.110   1.394   7.888 -0.5387  1.3961 -0.6033
  464TIP3   OH223026   3.375   4.180   1.406  0.3175  0.4785  0.1546
  464TIP3    H123027   3.391   4.119   1.334 -0.7114 -1.1092  1.2059
  464TIP3    H223028   3.283   4.204   1.398  0.2406  0.4403  0.8094
  465TIP3   OH223029   0.900   2.903   0.665 -0.5680 -0.5065 -0.1526
  465TIP3    H123030   0.832   2.849   0.705 -0.2088 -1.0037 -0.2053
  465TIP3    H223031   0.865   2.928   0.580 -1.2257  0.3308  0.3441
  466TIP3   OH223032   4.241   2.194   0.450  0.0855  0.7484 -0.4748
  466TIP3    H123033   4.155   2.189   0.492 -0.5440  1.4135 -1.6258
  466TIP3    H223034   4.295   2.245   0.511 -0.1990 -0.0310  0.4520
  467TIP3   OH223035   5.713   6.149   1.871  0.9989  0.2708  0.0272
  467TIP3    H123036   5.701   6.140   1.777  0.2408 -2.1755  0.2887
  467TIP3    H223037   5.625   6.159   1.906  1.3123  1.7709  0.4827
  468TIP3   OH223038   2.292   2.007   2.807 -0.4038 -0.2206  0.2449
  468TIP3    H123039   2.384   2.021   2.785 -0.5149  0.0287 -0.0557
  468TIP3    H223040   2.295   1.958   2.890 -0.0187  0.9081  0.9215
  469TIP3   OH223041   4.373   5.790   0.559 -0.1127  0.6477  0.0300
  469TIP3    H123042   4.399   5.796   0.467 -0.2604 -2.1072 -0.2988
  469TIP3    H223043   4.438   5.732   0.598 -0.7270  0.8209  1.3631
  470TIP3   OH223044   0.112   4.816   2.260 -0.3454 -0.2099 -0.1252
  470TIP3    H123045   0.117   4.801   2.166  0.0425 -0.3180 -0.0914
  470TIP3    H223046   0.107   4.911   2.269  0.6210 -0.1402 -0.2231
  471TIP3   OH223047   4.797   5.872   7.331  0.7106  0.1324  0.6670
  471TIP3    H123048   4.884   5.879   7.369  0.0962 -1.2168  2.4575
  471TIP3    H223049   4.739   5.858   7.406 -1.0183  0.6323 -0.5071
  472TIP3   OH223050   3.128   6.629   8.438 -0.1500  0.0902  0.7206
  472TIP3    H123051   3.059   6.664   8.494  0.0009 -0.0718  1.0109
  472TIP3    H223052   3.193   6.699   8.434 -0.8998  0.7482 -0.5901
  473TIP3   OH223053   2.073   6.590   7.971 -0.2141  0.2672 -0.0277
  473TIP3    H123054   2.066   6.642   7.891  0.4155  2.1188  1.0371
  473TIP3    H223055   2.108   6.651   8.036  0.1747 -1.4185  1.4361
  474TIP3   OH223056   3.326   6.348   3.122  0.5112  0.0652 -0.0857
  474TIP3    H123057   3.238   6.381   3.138  0.5769 -0.0109  0.4598
  474TIP3    H223058   3.329   6.333   3.027  0.0171  0.2827 -0.1407
  475TIP3   OH223059   5.627   5.176   8.617  0.1155  0.7908  0.3206
  475TIP3    H123060   5.613   5.125   8.537  0.7840  1.6291 -0.3455
  475TIP3    H223061   5.613   5.113   8.687  2.0409 -0.6231 -0.4933
  476TIP3   OH223062   4.133   2.923   0.610  0.2130  0.2298  0.1395
  476TIP3    H123063   4.166   2.875   0.686  0.3211 -0.4053 -0.2967
  476TIP3    H223064   4.149   2.864   0.536 -0.8630  0.3914 -0.2370
  477TIP3   OH223065   6.654   5.547   0.147 -0.1587 -0.1172 -0.2113
  477TIP3    H123066   6.741   5.530   0.184  0.0390 -0.6127 -0.8944
  477TIP3    H223067   6.657   5.637   0.117  0.6957 -0.6374 -1.7750
  478TIP3   OH223068   2.014   4.355   8.371 -0.5421 -0.0346  0.0150
  478TIP3    H123069   1.986   4.400   8.451  1.2011  0.9238  0.1470
  478TIP3    H223070   1.943   4.295   8.351 -2.6017  2.1247  0.3624
  479TIP3   OH223071   5.725   6.809   1.677 -0.4885  0.2135  1.3891
  479TIP3    H123072   5.723   6.757   1.757  2.1054 -2.5588 -0.1128
  479TIP3    H223073   5.669   6.761   1.615  0.3384  0.2984  0.5493
  480TIP3   OH223074   0.595   2.372   0.406  0.3175 -0.3497  0.0952
  480TIP3    H123075   0.595   2.436   0.335 -2.3377 -0.1839  0.1352
  480TIP3    H223076   0.679   2.385   0.450  0.5426  1.9896 -0.8655
  481TIP3   OH223077   5.952   5.894   7.495 -0.5054 -0.5812 -0.2501
  481TIP3    H123078   6.004   5.815   7.511 -2.0767 -1.5250  0.3643
  481TIP3    H223079   5.989   5.930   7.415 -0.4739 -2.5787 -1.2053
  482TIP3   OH223080   5.196   1.103   2.481 -0.1362 -0.3288 -0.0130
  482TIP3    H123081   5.125   1.159   2.450 -0.7752 -2.1647 -2.1435
  482TIP3    H223082   5.167   1.073   2.567 -0.3712  1.5202  0.5948
  483TIP3   OH223083   5.843   5.159   7.890  0.2268  0.0966 -0.3435
  483TIP3    H123084   5.933   5.191   7.901 -0.0641  1.1533 -0.8875
  483TIP3    H223085   5.792   5.208   7.955 -0.5020  2.0352 -2.2688
  484TIP3   OH223086   5.997   1.083   2.589 -0.2193 -0.4410 -0.2365
  484TIP3    H123087   5.930   1.088   2.657 -0.7685 -0.1647 -0.7861
  484TIP3    H223088   6.076   1.054   2.635 -0.5667 -0.2103  0.5255
  485TIP3   OH223089   5.172   6.407   7.912  0.0058  0.2490  0.1317
  485TIP3    H123090   5.158   6.494   7.875  0.8234  0.6773  0.7951
  485TIP3    H223091   5.101   6.354   7.876 -1.0089  1.3841  0.3903
  486TIP3   OH223092   6.736   3.342   2.712 -0.3377 -0.3586 -0.5223
  486TIP3    H123093   6.764   3.320   2.623  1.5672 -1.0600  0.1929
  486TIP3    H223094   6.759   3.265   2.764  0.0906  0.6620  0.8582
  487TIP3   OH223095   3.529   2.955   3.305 -0.6610  0.5099  0.6193
  487TIP3    H123096   3.594   3.013   3.346  0.4888  0.5353 -1.1493
  487TIP3    H223097   3.581   2.890   3.258 -1.9420 -0.6591  0.7478
  488TIP3   OH223098   2.169   4.091   8.208 -0.2537  0.1180  0.4060
  488TIP3    H123099   2.223   4.163   8.176  2.4910 -2.1150 -0.4146
  488TIP3    H223100   2.104   4.077   8.139 -0.4580  1.3998  0.3182
  489TIP3   OH223101   2.219   3.177   3.512 -0.8963  0.8039  0.3013
  489TIP3    H123102   2.202   3.096   3.464 -0.9945  1.2702 -0.4606
  489TIP3    H223103   2.315   3.185   3.511 -0.9317  1.2495 -0.5704
  490TIP3   OH223104   1.692   3.680   8.615 -0.6156 -0.6863 -0.3530
  490TIP3    H123105   1.734   3.697   8.531 -0.0079 -0.9365 -0.1106
  490TIP3    H223106   1.701   3.586   8.628 -1.8435 -0.8535 -0.5866
  491TIP3   OH223107   0.112   5.926   8.632 -0.2857  0.2916  0.1440
  491TIP3    H123108   0.193   5.966   8.600 -0.9067  0.5001 -1.2288
  491TIP3    H223109   0.119   5.931   8.727  0.5713  1.8262  0.0377
  492TIP3   OH223110   2.955   4.221   1.844 -0.0517 -0.0741 -0.5991
  492TIP3    H123111   2.935   4.162   1.916 -2.8522  1.0867 -0.3023
  492TIP3    H223112   3.046   4.202   1.821  0.2694 -1.8859  1.8705
  493TIP3   OH223113   0.681   2.251   8.390  0.0238  0.1384 -0.2744
  493TIP3    H123114   0.622   2.218   8.322 -0.1067 -1.1698  0.4430
  493TIP3    H223115   0.766   2.256   8.347  0.0388 -1.1280 -0.4315
  494TIP3   OH223116   1.319   3.619   0.642 -0.0467  0.4625  0.7395
  494TIP3    H123117   1.226   3.600   0.645 -0.4920  1.6978 -2.2908
  494TIP3    H223118   1.353   3.564   0.572  1.4727  0.2887  1.5594
  495TIP3   OH223119   3.379   1.146   1.087  0.4949  0.9295  0.1103
  495TIP3    H123120   3.437   1.120   1.015 -0.6069  1.4869 -1.0224
  495TIP3    H223121   3.386   1.241   1.090  2.4253  0.8156  2.4399
  496TIP3   OH223122   2.905   3.322   3.495  0.6067  0.4013 -0.1918
  496TIP3    H123123   2.822   3.366   3.475 -0.2926 -1.1345  0.0002
  496TIP3    H223124   2.953   3.322   3.412  0.1021  0.6475 -0.4870
  497TIP3   OH223125   5.499   0.924   1.648 -0.8772 -0.2809  0.6222
  497TIP3    H123126   5.554   0.907   1.725 -1.2511 -1.5285  0.6324
  497TIP3    H223127   5.478   0.838   1.614 -0.1394  0.2637 -1.3263
  498TIP3   OH223128   2.963   6.287   8.254 -0.4667 -0.6951 -0.2524
  498TIP3    H123129   2.868   6.299   8.257 -0.3477  0.0855  1.5322
  498TIP3    H223130   2.975   6.203   8.211 -1.7527  0.9660 -4.3574
  499TIP3   OH223131   3.907   3.534   2.731 -0.5577 -0.4168 -0.5636
  499TIP3    H123132   3.988   3.484   2.741 -0.8228 -1.4310 -2.9512
  499TIP3    H223133   3.916   3.606   2.793  1.8015 -0.9652 -0.1755
  500TIP3   OH223134   5.155   1.922   7.895  0.1640  0.3999 -0.0529
  500TIP3    H123135   5.068   1.952   7.868  0.2501  0.0363 -0.7756
  500TIP3    H223136   5.177   1.975   7.971 -1.2169 -0.3621  0.8980
  501TIP3   OH223137   5.145   5.685   8.573 -0.2247  0.1306 -0.4072
  501TIP3    H123138   5.131   5.637   8.492 -0.4091  0.4305 -0.5506
  501TIP3    H223139   5.238   5.709   8.571 -0.2193  0.0991 -0.5052
  502TIP3   OH223140   5.182   3.859   2.011  0.3455  0.2299 -0.7361
  502TIP3    H123141   5.087   3.865   2.004  0.2269  0.0571  0.5323
  502TIP3    H223142   5.204   3.910   2.088  1.3391  0.6315 -1.2693
  503TIP3   OH223143   6.634   3.315   8.345  0.2997  0.4586  0.0614
  503TIP3    H123144   6.559   3.255   8.351 -0.3965  1.3204  0.2289
  503TIP3    H223145   6.628   3.369   8.424  2.8568 -1.3875  1.6771
  504TIP3   OH223146   4.000   0.199   8.506  0.0850 -0.6436 -1.2826
  504TIP3    H123147   4.001   0.105   8.524 -0.5191 -0.7257 -1.6501
  504TIP3    H223148   4.092   0.224   8.504  0.2494 -0.7863  1.0191
  505TIP3   OH223149   5.398   0.625   0.087 -0.1317  0.1071 -0.1742
  505TIP3    H123150   5.415   0.676   0.166 -1.2221 -1.9272  1.4907
  505TIP3    H223151   5.461   0.657   0.023  0.8202  1.8140  1.5241
  506TIP3   OH223152   3.832   0.933   1.542 -0.4151  0.2491  0.1518
  506TIP3    H123153   3.762   0.918   1.478 -0.8848 -0.0766  0.7333
  506TIP3    H223154   3.793   0.992   1.607  0.3933  1.4332 -0.4011
  507TIP3   OH223155   1.454   0.339   1.304 -0.3253 -0.4458 -0.1333
  507TIP3    H123156   1.537   0.325   1.258 -0.8692  0.2928 -1.3866
  507TIP3    H223157   1.467   0.298   1.390  1.9208  1.1273  0.3662
  508TIP3   OH223158   6.241   5.201   1.246 -0.0189 -0.3666  0.1029
  508TIP3    H123159   6.311   5.136   1.256 -1.8679 -2.1520  2.6710
  508TIP3    H223160   6.263   5.270   1.308  0.2591 -0.1321 -0.2513
  509TIP3   OH223161   4.813   6.259   8.520 -0.3355 -0.0262 -0.1561
  509TIP3    H123162   4.877   6.201   8.560 -1.3333 -0.3975  0.9526
  509TIP3    H223163   4.741   6.263   8.583 -1.3542  0.4817 -1.3064
  510TIP3   OH223164   6.483   6.611   2.272  0.6545  0.3477 -0.0259
  510TIP3    H123165   6.516   6.530   2.236 -0.3746  0.0437 -0.3279
  510TIP3    H223166   6.556   6.673   2.264  1.6161 -0.6544  0.6588
  511TIP3   OH223167   1.612   4.387   2.495  0.0258  0.2770 -0.0418
  511TIP3    H123168   1.651   4.302   2.476  1.1230  1.0030 -1.1932
  511TIP3    H223169   1.520   4.377   2.473 -0.4311 -1.3144  2.2094
  512TIP3   OH223170   1.536   3.638   2.456 -0.2188  0.2671  0.0663
  512TIP3    H123171   1.527   3.580   2.380  0.3128 -0.2443  0.3890
  512TIP3    H223172   1.604   3.700   2.431  0.3532 -0.2480  0.3370
  513TIP3   OH223173   1.220   3.100   2.174  0.6182  0.2589  0.1049
  513TIP3    H123174   1.239   3.163   2.243  1.1956  1.8368 -1.4358
  513TIP3    H223175   1.125   3.088   2.179  0.7960 -0.9294  2.1650
  514TIP3   OH223176   1.712   4.628   0.505  0.1776  0.0484 -0.1499
  514TIP3    H123177   1.768   4.608   0.430 -0.8162  0.0431 -0.9123
  514TIP3    H223178   1.623   4.614   0.473 -0.2671 -0.0825  1.0743
  515TIP3   OH223179   5.504   2.038   1.370  0.2767 -0.0044  0.3890
  515TIP3    H123180   5.452   1.987   1.308  0.0603  0.4647  0.1789
  515TIP3    H223181   5.440   2.089   1.419  0.5581  0.9014 -0.1641
  516TIP3   OH223182   2.000   0.215   1.653 -0.0981  0.0306  0.5812
  516TIP3    H123183   1.928   0.266   1.615  0.2394 -0.7103 -1.1759
  516TIP3    H223184   1.975   0.200   1.744 -1.6786  0.6517  0.2676
  517TIP3   OH223185   2.644   4.749   0.541  0.1734 -0.7464 -0.1588
  517TIP3    H123186   2.706   4.728   0.611  0.5339 -0.1721 -0.2916
  517TIP3    H223187   2.567   4.696   0.560  0.1844 -0.4393  0.8005
  518TIP3   OH223188   6.196   4.158   8.235 -0.2326  0.3932  0.1423
  518TIP3    H123189   6.212   4.159   8.140 -0.8860  1.9760  0.0174
  518TIP3    H223190   6.117   4.107   8.245 -0.5790  0.8355 -0.2631
  519TIP3   OH223191   6.827   6.574   1.674  0.3229 -0.1153 -0.6539
  519TIP3    H123192   6.741   6.545   1.644  1.3538 -2.6951 -1.3966
  519TIP3    H223193   6.846   6.652   1.622 -0.2646 -1.3308 -2.8067
  520TIP3   OH223194   5.677   1.175   1.087  0.4224  0.0600  0.7723
  520TIP3    H123195   5.750   1.232   1.111 -0.0226  1.4826 -1.0559
  520TIP3    H223196   5.717   1.106   1.034  1.0285 -1.6884  3.3416
  521TIP3   OH223197   4.716   0.119   0.586 -0.1813 -0.0608  0.4607
  521TIP3    H123198   4.771   0.164   0.651 -0.2505  1.3990 -0.4479
  521TIP3    H223199   4.778   0.079   0.525 -0.1227  0.2241  0.3338
  522TIP3   OH223200   6.270   0.571   1.872  0.0701  0.0066 -0.2618
  522TIP3    H123201   6.235   0.604   1.955 -2.2289 -0.5846 -0.9053
  522TIP3    H223202   6.253   0.641   1.809 -1.3936 -0.8265 -0.8692
  523TIP3   OH223203   4.931   0.101   0.769 -0.3271 -0.0824 -0.3975
  523TIP3    H123204   5.004   0.052   0.806 -0.5848 -0.4508 -0.3807
  523TIP3    H223205   4.925   0.179   0.824 -2.1369 -1.6480  1.8230
  524TIP3   OH223206   4.908   3.185   0.106 -0.2042  0.0359 -0.3339
  524TIP3    H123207   4.848   3.186   0.031 -0.8905  1.5742  0.1894
  524TIP3    H223208   4.986   3.229   0.074  0.1250 -0.7335 -0.6057
  525TIP3   OH223209   4.297   1.420   1.363 -0.1787 -0.2829 -0.0422
  525TIP3    H123210   4.218   1.435   1.416 -0.5720 -1.7506 -0.1622
  525TIP3    H223211   4.343   1.504   1.364 -1.4484  0.4378  0.5212
  526TIP3   OH223212   0.040   1.828   8.430  0.4652  0.0915  0.5562
  526TIP3    H123213   0.059   1.741   8.396 -1.0267  0.3900 -1.1435
  526TIP3    H223214  -0.019   1.813   8.504 -0.3136 -0.3317 -0.1364
  527TIP3   OH223215   2.481   6.549   2.658  0.2088  0.3086  0.6747
  527TIP3    H123216   2.465   6.639   2.687 -2.4896  0.2323 -0.3215
  527TIP3    H223217   2.402   6.501   2.682 -0.4277 -0.6970 -2.8500
  528TIP3   OH223218   0.079   2.954   8.577 -0.0270 -0.3071  0.0127
  528TIP3    H123219   0.007   2.895   8.555  0.0733  0.5199 -2.9275
  528TIP3    H223220   0.037   3.039   8.593  0.1340 -0.3639  0.8185
  529TIP3   OH223221   4.834   4.760   1.391 -0.5498  0.2958 -0.2558
  529TIP3    H123222   4.753   4.717   1.363  0.3990 -0.6535 -1.6474
  529TIP3    H223223   4.882   4.693   1.438  0.1081  0.3931 -0.7818
  530TIP3   OH223224   1.458   5.875   1.756 -0.5018 -0.2066  0.4025
  530TIP3    H123225   1.420   5.795   1.720 -0.2160 -0.5676  0.8981
  530TIP3    H223226   1.457   5.937   1.683 -1.1180 -0.5231  0.1333
  531TIP3   OH223227   5.253   4.810   2.042  0.9611  0.4566 -0.0190
  531TIP3    H123228   5.233   4.824   2.134 -0.9487 -0.4698 -0.2547
  531TIP3    H223229   5.273   4.716   2.036  2.0730  0.7002 -0.4029
  532TIP3   OH223230   1.602   1.466   2.271 -0.0073 -0.3210 -0.1953
  532TIP3    H123231   1.558   1.394   2.227 -1.2093 -0.1015  0.5873
  532TIP3    H223232   1.558   1.473   2.356  1.7130 -0.2398  0.7394
  533TIP3   OH223233   5.635   0.921   2.713  0.1368  0.1409 -0.4824
  533TIP3    H123234   5.633   1.016   2.697 -2.8763  0.2582 -0.0442
  533TIP3    H223235   5.626   0.912   2.807 -1.3695 -0.5253 -0.6526
  534TIP3   OH223236   4.471   0.716   1.504 -1.0671 -0.2503 -0.2633
  534TIP3    H123237   4.398   0.655   1.513 -1.6664 -0.0760 -2.8823
  534TIP3    H223238   4.537   0.684   1.565 -2.2770 -2.0755  0.1827
  535TIP3   OH223239   0.229   2.270   8.260  0.1912  0.5336  0.2581
  535TIP3    H123240   0.148   2.305   8.225 -0.1986  0.7964  1.3952
  535TIP3    H223241   0.243   2.188   8.212 -1.4934 -0.2442  1.0202
  536TIP3   OH223242   0.348   0.835   8.497 -0.5001  0.3290  0.1316
  536TIP3    H123243   0.399   0.873   8.569 -1.2360 -0.3194  1.0076
  536TIP3    H223244   0.353   0.901   8.428  1.6269  0.2451  0.1226
  537TIP3   OH223245   6.836   4.512   2.328 -0.1548 -0.0542  0.4459
  537TIP3    H123246   6.914   4.492   2.381 -1.6328  0.8876  3.1465
  537TIP3    H223247   6.865   4.583   2.269  1.5898 -1.2525 -0.2322
  538TIP3   OH223248   1.376   5.994   0.324  0.4860  0.3909 -0.0317
  538TIP3    H123249   1.302   5.936   0.342  0.2004  0.6779 -0.2773
  538TIP3    H223250   1.453   5.939   0.339  0.2196 -0.3811 -1.3455
  539TIP3   OH223251   0.852   1.851   2.300 -0.0189 -0.1313 -0.2008
  539TIP3    H123252   0.815   1.939   2.303  1.1254  0.4023 -0.9184
  539TIP3    H223253   0.923   1.853   2.364  1.3493  0.1530 -1.6575
  540TIP3   OH223254   3.563   4.104   0.099  0.4244  0.0255 -0.4132
  540TIP3    H123255   3.553   4.010   0.090  0.2694 -0.0538  0.5487
  540TIP3    H223256   3.621   4.129   0.026  0.2708 -0.7620 -0.8136
  541TIP3   OH223257   2.773   4.179   3.820  0.0137 -0.3594 -0.0707
  541TIP3    H123258   2.680   4.184   3.843  0.1904 -2.5465  1.3877
  541TIP3    H223259   2.782   4.094   3.776  1.6380 -1.1027  1.5998
  542TIP3   OH223260   2.541   5.770   7.574  0.3852  0.4257 -0.1350
  542TIP3    H123261   2.543   5.799   7.483 -2.0998 -0.3626 -0.5078
  542TIP3    H223262   2.492   5.838   7.620  1.1021  0.5136  0.5366
  543TIP3   OH223263   0.833   5.043   2.521 -0.1087  0.3553 -0.0478
  543TIP3    H123264   0.855   5.099   2.595  0.0230  0.3661 -0.0958
  543TIP3    H223265   0.816   5.103   2.448  2.2596  0.2957 -0.7366
  544TIP3   OH223266   1.945   4.244   2.770  0.2717  0.1163 -0.3776
  544TIP3    H123267   1.933   4.234   2.676  0.8903 -0.9094 -0.3540
  544TIP3    H223268   1.870   4.199   2.809  0.0468  0.4905 -0.3707
  545TIP3   OH223269   3.823   0.766   0.997 -0.1229 -0.3395 -0.0310
  545TIP3    H123270   3.808   0.715   0.917 -0.8456 -0.4490  0.1692
  545TIP3    H223271   3.737   0.775   1.037 -0.0677  1.2716 -0.1973
  546TIP3   OH223272   3.580   5.818   8.476 -0.6738 -0.0135 -0.4386
  546TIP3    H123273   3.587   5.862   8.561 -3.6988  1.3155 -0.7725
  546TIP3    H223274   3.501   5.854   8.436  0.6975 -0.5110 -3.9179
  547TIP3   OH223275   3.796   1.271   3.490  0.0938  0.1711 -0.3734
  547TIP3    H123276   3.780   1.362   3.464  1.5637  0.7572  0.6355
  547TIP3    H223277   3.710   1.240   3.520 -0.4532  1.1937 -0.8015
  548TIP3   OH223278   2.823   5.789   1.819 -0.2828 -0.1929  0.2567
  548TIP3    H123279   2.784   5.819   1.901  0.0134  1.8524 -0.3055
  548TIP3    H223280   2.912   5.823   1.820  0.8503 -2.9279  0.5115
  549TIP3   OH223281   0.912   5.733   8.503 -0.3737 -0.6599 -0.1514
  549TIP3    H123282   0.921   5.786   8.424  0.3333 -0.2864  0.1650
  549TIP3    H223283   0.852   5.783   8.559 -0.0360 -0.3910 -0.0234
  550TIP3   OH223284   6.796   1.017   7.888  0.3819  0.9508 -0.0438
  550TIP3    H123285   6.872   1.048   7.839  1.8455 -1.1208  0.7751
  550TIP3    H223286   6.771   1.092   7.942  1.8258  1.6986 -0.3610
  551TIP3   OH223287   5.848   3.435   8.375 -0.0632  0.1326 -0.4519
  551TIP3    H123288   5.877   3.384   8.299 -0.8749  1.4153 -1.6574
  551TIP3    H223289   5.812   3.369   8.435  0.7402 -0.9217 -1.0928
  552TIP3   OH223290   2.324   3.117   7.363 -0.1635 -0.1082  0.4393
  552TIP3    H123291   2.346   3.178   7.434  0.7616  0.3299 -0.1867
  552TIP3    H223292   2.230   3.103   7.372 -0.3428  1.1381  0.8344
  553TIP3   OH223293   1.696   3.650   1.792  0.8907 -0.7888  0.7920
  553TIP3    H123294   1.636   3.581   1.820  1.4929 -1.6915 -0.0504
  553TIP3    H223295   1.751   3.665   1.869  0.0580 -0.4575  1.3367
  554TIP3   OH223296   3.717   3.229   8.410 -0.2930 -0.0551 -0.2329
  554TIP3    H123297   3.641   3.279   8.438 -1.7110 -1.5385 -1.2407
  554TIP3    H223298   3.766   3.289   8.354 -0.5421  1.0256  0.6922
  555TIP3   OH223299   1.742   4.306   1.607  0.1863 -0.1786 -0.4728
  555TIP3    H123300   1.698   4.269   1.683  0.0640 -1.0278 -0.9418
  555TIP3    H223301   1.778   4.389   1.638 -0.8294  0.0289  0.2073
  556TIP3   OH223302   2.313   1.669   2.428 -0.8847  0.0521  0.3815
  556TIP3    H123303   2.278   1.757   2.443 -2.0999  0.6574 -4.2876
  556TIP3    H223304   2.237   1.618   2.400  0.5535 -1.0319 -1.7633
  557TIP3   OH223305   1.448   2.745   8.156 -0.6667  0.0473 -0.0373
  557TIP3    H123306   1.404   2.809   8.211  0.8142  1.1298 -0.0351
  557TIP3    H223307   1.486   2.682   8.217 -0.6764  0.1370  0.0601
  558TIP3   OH223308   5.634   6.438   3.299  0.3384  0.2856  0.0224
  558TIP3    H123309   5.552   6.388   3.302  0.2375  0.4523  0.1473
  558TIP3    H223310   5.612   6.520   3.344  1.1382 -0.4736  1.8751
  559TIP3   OH223311   2.870   0.916   0.918 -0.7013  0.3512 -0.3923
  559TIP3    H123312   2.893   0.892   1.008  0.2639 -0.5764 -0.8634
  559TIP3    H223313   2.842   1.007   0.924  0.6487  0.7327  0.6527
  560TIP3   OH223314   6.875   1.456   2.812 -0.3535 -0.1602  0.0546
  560TIP3    H123315   6.827   1.381   2.777  1.7414 -1.1515 -0.8597
  560TIP3    H223316   6.885   1.515   2.737 -0.7093  0.3439  0.4001
  561TIP3   OH223317   1.061   2.526   0.759 -0.5257  0.0761  0.1029
  561TIP3    H123318   1.009   2.465   0.707 -1.3683 -1.3262  2.4473
  561TIP3    H223319   1.151   2.497   0.747 -0.6590  0.0600 -0.9142
  562TIP3   OH223320   2.257   5.538   7.762 -0.2923  0.1163 -0.4905
  562TIP3    H123321   2.352   5.531   7.774 -0.2820  1.7119  0.6721
  562TIP3    H223322   2.240   5.500   7.676  1.0797 -2.3768  0.2293
  563TIP3   OH223323   1.432   1.138   1.671 -0.6787 -0.2580 -0.0406
  563TIP3    H123324   1.368   1.069   1.686 -0.6353 -0.6270 -1.4017
  563TIP3    H223325   1.516   1.098   1.691 -0.6522 -0.6327 -0.8428
  564TIP3   OH223326   3.187   4.404   1.725  0.2401  0.9739 -0.0004
  564TIP3    H123327   3.260   4.447   1.680 -0.2591  0.4535 -1.3590
  564TIP3    H223328   3.144   4.475   1.773  1.5776  1.2998  0.7792
  565TIP3   OH223329   3.167   5.083   0.097 -0.4784  0.8498  0.0491
  565TIP3    H123330   3.188   5.152   0.035  0.0995 -0.0819 -0.8238
  565TIP3    H223331   3.072   5.091   0.110 -0.7180  0.6900 -1.4394
  566TIP3   OH223332   0.805   1.076   8.162 -0.2045  0.2043 -0.2146
  566TIP3    H123333   0.823   1.127   8.241  1.7747 -4.2657  2.6692
  566TIP3    H223334   0.890   1.071   8.118 -0.7931  0.7979 -1.4541
  567TIP3   OH223335   4.181   0.280   2.864  0.1701  0.4413 -0.2304
  567TIP3    H123336   4.130   0.261   2.943 -0.2853  1.1269 -0.3559
  567TIP3    H223337   4.261   0.322   2.897  0.7093 -0.7105 -0.0282
  568TIP3   OH223338   6.058   4.907   7.948  0.0233  0.3055  0.6426
  568TIP3    H123339   5.965   4.890   7.933 -0.0573  0.5053  0.9267
  568TIP3    H223340   6.060   4.977   8.013  0.3776 -0.0662  1.0397
  569TIP3   OH223341   6.643   0.608   2.373  0.1210  0.1660 -0.2845
  569TIP3    H123342   6.705   0.639   2.440 -0.5698 -0.9855  0.9338
  569TIP3    H223343   6.557   0.620   2.413 -0.3036 -0.5624 -0.9656
  570TIP3   OH223344   0.821   4.629   1.453 -0.2923 -0.2503  0.2503
  570TIP3    H123345   0.907   4.612   1.492  0.3343  2.7534  0.4381
  570TIP3    H223346   0.760   4.628   1.527 -0.3722 -1.8330  0.1928
  571TIP3   OH223347   5.051   0.186   1.566 -0.5848  0.1446  0.2804
  571TIP3    H123348   5.110   0.112   1.584 -1.2240 -0.0187  1.8420
  571TIP3    H223349   5.043   0.187   1.471  0.0363 -1.3276  0.1781
  572TIP3   OH223350   1.723   2.307   7.447  0.3320  0.6416  0.5791
  572TIP3    H123351   1.656   2.355   7.497 -2.0612  0.9367 -2.5938
  572TIP3    H223352   1.782   2.375   7.414 -1.1230  1.1571 -1.1453
  573TIP3   OH223353   3.805   5.393   2.696 -0.2510 -0.0205  0.5732
  573TIP3    H123354   3.884   5.340   2.686 -0.9155 -1.2471  1.4495
  573TIP3    H223355   3.740   5.332   2.732 -2.1995  0.4300 -1.9240
  574TIP3   OH223356   6.373   1.158   3.231  0.3038  0.3114  0.1781
  574TIP3    H123357   6.296   1.133   3.179  0.7102  0.9547 -0.7651
  574TIP3    H223358   6.422   1.216   3.173  1.1885  0.3965  1.0044
  575TIP3   OH223359   4.207   5.390   1.057 -0.5849  0.0650  0.4542
  575TIP3    H123360   4.185   5.307   1.014 -0.7451  0.8393 -1.0122
  575TIP3    H223361   4.124   5.419   1.096 -1.4211  1.1357 -1.8903
  576TIP3   OH223362   3.633   0.073   1.470 -0.1687  0.6092 -0.5330
  576TIP3    H123363   3.626   0.070   1.565  0.3442  0.1529 -0.5014
  576TIP3    H223364   3.698   0.005   1.449  0.7560  1.6294 -1.0939
  577TIP3   OH223365   3.094   6.199   2.516 -0.5335 -0.4234  0.0376
  577TIP3    H123366   3.038   6.124   2.498 -1.3749 -0.1395  1.3485
  577TIP3    H223367   3.053   6.243   2.591  1.4719 -0.2604  1.1177
  578TIP3   OH223368   4.335   5.756   3.570  0.5455  0.7414 -0.0403
  578TIP3    H123369   4.316   5.850   3.564 -0.1657  0.8450  2.6470
  578TIP3    H223370   4.350   5.740   3.663 -0.2247 -1.9936 -0.2984
  579TIP3   OH223371   6.304   3.986   0.370  0.5787  0.0614 -0.3899
  579TIP3    H123372   6.271   3.983   0.459  4.1787  0.2109  1.1451
  579TIP3    H223373   6.368   3.914   0.366  2.1962  1.4813 -2.0168
  580TIP3   OH223374   0.239   4.121   1.494  0.2074 -0.2001  0.4496
  580TIP3    H123375   0.288   4.153   1.570 -1.8104 -1.5843  2.4522
  580TIP3    H223376   0.307   4.087   1.435  2.0984  3.7559  0.0382
  581TIP3   OH223377   0.159   0.069   2.711 -0.0473 -0.1771 -0.1936
  581TIP3    H123378   0.079   0.110   2.677 -0.7308 -1.8089 -0.6458
  581TIP3    H223379   0.138   0.045   2.801 -0.5724 -1.7914 -0.7117
  582TIP3   OH223380   5.072   6.866   1.945  0.0344 -0.1181 -0.2580
  582TIP3    H123381   5.107   6.866   1.856 -0.2934 -1.2429 -0.3941
  582TIP3    H223382   4.980   6.893   1.934  0.3605  1.1546 -0.0832
  583TIP3   OH223383   1.290   2.736   0.451  0.0519 -0.0496  0.0714
  583TIP3    H123384   1.251   2.808   0.501  0.4406  0.0383  0.2555
  583TIP3    H223385   1.322   2.778   0.371  2.3246  0.4608  1.1520
  584TIP3   OH223386   4.197   6.206   0.099  0.2337 -0.2005 -0.1898
  584TIP3    H123387   4.174   6.293   0.130  0.6185 -1.5207  4.6255
  584TIP3    H223388   4.120   6.152   0.119 -0.7309 -0.8986 -4.7149
  585TIP3   OH223389   1.504   2.800   2.062 -0.4965  0.4722 -0.0994
  585TIP3    H123390   1.516   2.852   1.982  1.7214 -0.6692 -0.5898
  585TIP3    H223391   1.574   2.735   2.058 -0.9633 -0.2410  2.2969
  586TIP3   OH223392   4.161   6.848   8.573  0.0012 -0.6522 -0.1112
  586TIP3    H123393   4.161   6.754   8.555  0.6877 -0.7684  0.4378
  586TIP3    H223394   4.080   6.862   8.622  0.0426 -1.0205  0.0744
  587TIP3   OH223395   4.371   5.153   0.345  0.0615 -0.3942  0.1049
  587TIP3    H123396   4.396   5.061   0.353 -0.2034 -0.6121 -1.3293
  587TIP3    H223397   4.406   5.180   0.259 -2.3729  0.0024 -0.8267
  588TIP3   OH223398   3.509   3.507   8.172 -0.8212  0.6210 -0.8407
  588TIP3    H123399   3.570   3.449   8.126 -1.3826 -0.0297 -0.7746
  588TIP3    H223400   3.536   3.502   8.264 -2.0027 -1.0023 -0.5450
  589TIP3   OH223401   4.148   3.690   0.853  0.2523 -0.1119  0.1892
  589TIP3    H123402   4.207   3.656   0.786  1.7015 -0.8717  1.7652
  589TIP3    H223403   4.191   3.770   0.884  1.2408 -1.3489  2.2499
  590TIP3   OH223404   1.037   3.282   2.747  0.3717 -0.2846  0.4605
  590TIP3    H123405   0.958   3.292   2.799 -0.4552  1.4051 -1.0143
  590TIP3    H223406   1.096   3.351   2.778  0.3447 -0.0456 -0.0055
  591TIP3   OH223407   0.146   1.160   1.695 -0.4064  0.4983 -0.5070
  591TIP3    H123408   0.173   1.177   1.605 -1.9427  1.1550 -0.8708
  591TIP3    H223409   0.104   1.074   1.691  1.1657 -0.3477 -0.0134
  592TIP3   OH223410   0.201   6.445   1.780  0.1985  0.1153 -0.3512
  592TIP3    H123411   0.273   6.502   1.808  0.3744  0.6651 -1.8125
  592TIP3    H223412   0.125   6.503   1.777  0.0604 -0.0705 -0.4197
  593TIP3   OH223413   2.103   2.343   1.138  0.7927  0.0201  0.5998
  593TIP3    H123414   2.089   2.328   1.231 -0.4505  3.1422  1.0215
  593TIP3    H223415   2.015   2.341   1.100  1.1282  0.4247 -0.2193
  594TIP3   OH223416   4.779   3.551   1.301  0.8367  0.3010 -0.9841
  594TIP3    H123417   4.699   3.541   1.353  0.4747  0.1743 -1.5541
  594TIP3    H223418   4.845   3.501   1.348  0.8367  1.2132  0.0301
  595TIP3   OH223419   3.149   6.200   1.860  0.4996 -0.2053 -0.5787
  595TIP3    H123420   3.104   6.185   1.777  0.2643  0.6961 -0.6282
  595TIP3    H223421   3.224   6.255   1.837  0.8146 -0.5141 -0.2917
  596TIP3   OH223422   1.185   4.984   2.103 -0.2266  0.7535 -0.4721
  596TIP3    H123423   1.164   5.044   2.175 -1.8832 -2.3721  1.9000
  596TIP3    H223424   1.277   4.960   2.118 -0.5496  0.1467  0.6796
  597TIP3   OH223425   2.146   4.146   1.930  0.4474 -0.0788 -0.3965
  597TIP3    H123426   2.074   4.210   1.937  0.6170  0.0015  0.7106
  597TIP3    H223427   2.107   4.071   1.885 -0.3265 -0.0165  0.1495
  598TIP3   OH223428   1.887   6.679   8.420  0.3293  0.5724  0.3412
  598TIP3    H123429   1.970   6.717   8.449  0.9215 -0.3786 -0.0481
  598TIP3    H223430   1.879   6.706   8.328  1.5226 -1.3839 -0.4301
  599TIP3   OH223431   0.738   0.011   1.177 -0.0679  0.1413  0.5998
  599TIP3    H123432   0.712  -0.075   1.210  0.6221 -0.4269 -0.2788
  599TIP3    H223433   0.834   0.012   1.184 -0.1285  1.2916  1.6532
  600TIP3   OH223434   6.785   3.824   1.834  0.2040 -0.5603 -0.0500
  600TIP3    H123435   6.725   3.863   1.771 -0.0084  0.6741  0.8625
  600TIP3    H223436   6.869   3.867   1.819  0.3876 -0.9227 -0.0876
  601TIP3   OH223437   1.404   5.417   0.392 -0.3596  0.6433 -0.8150
  601TIP3    H123438   1.459   5.416   0.314  1.4102  0.7114  0.3724
  601TIP3    H223439   1.379   5.326   0.405 -0.9577  0.6821 -1.6457
  602TIP3   OH223440   4.846   0.812   8.424 -0.6439  0.2962 -0.3741
  602TIP3    H123441   4.901   0.829   8.347 -1.0630  0.9880 -0.5359
  602TIP3    H223442   4.817   0.899   8.452 -0.0236  0.0984  0.9310
  603TIP3   OH223443   1.000   6.337   8.342 -0.6040  0.4237 -0.1345
  603TIP3    H123444   0.911   6.353   8.310 -0.0326  1.6659 -1.2193
  603TIP3    H223445   1.054   6.334   8.263  0.5173  1.1790  0.5634
  604TIP3   OH223446   2.509   4.947   3.116  0.2695  0.0354 -0.2059
  604TIP3    H123447   2.587   4.983   3.158  0.0731 -0.4997  0.6558
  604TIP3    H223448   2.528   4.949   3.022  1.3999 -0.2617  0.0062
  605TIP3   OH223449   6.615   2.353   0.514 -0.2820  0.3319  0.0614
  605TIP3    H123450   6.577   2.409   0.446 -2.0087 -0.7829  0.0511
  605TIP3    H223451   6.677   2.410   0.560  0.3642  1.3171 -1.9556
  606TIP3   OH223452   0.844   2.312   0.135 -0.2042 -0.8034 -0.2882
  606TIP3    H123453   0.902   2.355   0.073 -1.5526 -1.0444 -1.7698
  606TIP3    H223454   0.757   2.319   0.095 -0.8056 -2.8062  0.5759
  607TIP3   OH223455   3.526   1.145   0.100  0.8116  0.2472  0.3299
  607TIP3    H123456   3.537   1.086   0.026  1.2573 -0.8433  1.2411
  607TIP3    H223457   3.459   1.207   0.071  0.7838 -0.3174 -0.8781
  608TIP3   OH223458   2.887   2.928   1.117 -0.2850  0.4099 -0.7594
  608TIP3    H123459   2.945   2.892   1.049 -0.7234  0.0788 -0.9569
  608TIP3    H223460   2.805   2.946   1.071 -0.6189  0.0877 -0.2895
  609TIP3   OH223461   0.789   0.112   2.004 -0.0424  0.6337 -0.5244
  609TIP3    H123462   0.810   0.131   2.096 -1.1959  0.4378 -0.2112
  609TIP3    H223463   0.844   0.172   1.954  1.1571  0.2322  0.2667
  610TIP3   OH223464   2.406   1.675   1.145 -0.2159 -0.0491 -0.1249
  610TIP3    H123465   2.358   1.757   1.152  0.2795  0.2220  0.0885
  610TIP3    H223466   2.498   1.701   1.140 -0.1713 -0.4165 -2.7340
  611TIP3   OH223467   0.705   1.509   3.160 -0.3202 -0.7517 -0.3394
  611TIP3    H123468   0.716   1.573   3.230 -0.2207 -0.4645 -0.6154
  611TIP3    H223469   0.611   1.503   3.146 -0.2894  2.1009 -2.8117
  612TIP3   OH223470   5.028   1.878   1.543  0.2575 -0.5983 -0.0226
  612TIP3    H123471   5.035   1.881   1.638 -0.0928 -1.2130  0.0242
  612TIP3    H223472   4.947   1.830   1.525 -0.3978  0.6707 -0.6252
  613TIP3   OH223473   3.878   4.636   1.814  0.1398  0.4100  0.5241
  613TIP3    H123474   3.961   4.657   1.857 -1.0832  0.7301  2.9071
  613TIP3    H223475   3.860   4.545   1.840  0.2099 -0.0007 -0.8179
  614TIP3   OH223476   4.862   4.811   0.144  0.1840  0.1518 -0.5446
  614TIP3    H123477   4.782   4.857   0.172  0.6081  0.6862 -0.2008
  614TIP3    H223478   4.924   4.881   0.124  0.4305 -0.2575 -1.2216
  615TIP3   OH223479   1.005   2.739   1.518  0.0245  0.4667 -0.3936
  615TIP3    H123480   0.966   2.670   1.465 -0.1686 -0.6119  1.1136
  615TIP3    H223481   0.998   2.708   1.608 -0.6905  2.7575  0.4137
  616TIP3   OH223482   0.358   6.308   0.851  0.4216  0.2027 -0.5462
  616TIP3    H123483   0.430   6.323   0.912  0.8951 -0.5529 -0.9101
  616TIP3    H223484   0.351   6.213   0.845 -1.3515  0.2480  0.3585
  617TIP3   OH223485   2.339   1.688   1.945 -0.3387 -0.5439 -0.2196
  617TIP3    H123486   2.245   1.676   1.953 -0.2881  0.0464  1.8805
  617TIP3    H223487   2.349   1.777   1.912 -0.4982 -1.1240 -1.9255
  618TIP3   OH223488   4.491   4.618   2.421  0.1273  0.0619 -0.0618
  618TIP3    H123489   4.556   4.602   2.489  0.3461  1.2107  0.0243
  618TIP3    H223490   4.484   4.714   2.417 -0.9344 -0.0245 -0.6583
  619TIP3   OH223491   0.024   5.089   2.045 -0.0350 -0.3228  0.2122
  619TIP3    H123492  -0.013   5.147   2.112 -2.3475 -1.5964  0.1531
  619TIP3    H223493   0.111   5.066   2.079  0.3525  1.9236  0.9316
  620TIP3   OH223494   0.045   2.622   1.018  0.2520  0.4675  0.5520
  620TIP3    H123495   0.070   2.706   1.056  0.9262  0.7282 -0.4363
  620TIP3    H223496   0.018   2.569   1.093 -1.9866  2.1391  1.0399
  621TIP3   OH223497   1.915   4.354   0.658 -0.0905  0.4313  0.2136
  621TIP3    H123498   1.908   4.259   0.647  0.1680  0.3832  0.4537
  621TIP3    H223499   1.991   4.379   0.605 -1.1580  0.7549 -1.2552
  622TIP3   OH223500   6.131   6.846   3.678 -0.1398 -0.2859 -0.0484
  622TIP3    H123501   6.076   6.909   3.630 -0.1333 -1.4800 -1.7279
  622TIP3    H223502   6.072   6.806   3.741 -1.3958 -1.7721 -2.0365
  623TIP3   OH223503   1.200   6.178   0.981 -0.1869 -0.6443  0.5484
  623TIP3    H123504   1.238   6.121   1.048 -0.2865 -0.5043  0.7254
  623TIP3    H223505   1.216   6.266   1.013  1.5714 -0.5001 -0.5928
  624TIP3   OH223506   2.987   6.008   8.385  0.1476  0.3321 -0.2721
  624TIP3    H123507   2.991   5.950   8.462 -1.0235  0.9056  0.2530
  624TIP3    H223508   3.073   6.050   8.382 -0.0292  0.8657  1.1995
  625TIP3   OH223509   0.136   0.149   1.482  0.0032  0.0143 -0.2259
  625TIP3    H123510   0.197   0.213   1.445  0.2061 -0.3877 -0.5967
  625TIP3    H223511   0.060   0.201   1.509  0.7986  0.6360  0.9397
  626TIP3   OH223512   1.426   4.264   1.152 -0.2188  0.3235 -0.3348
  626TIP3    H123513   1.487   4.328   1.116 -1.6368  1.7949 -0.2604
  626TIP3    H223514   1.390   4.219   1.076 -0.2904  0.6545 -0.4973
  627TIP3   OH223515   1.122   1.572   8.522 -0.4999  0.3424 -0.2396
  627TIP3    H123516   1.035   1.572   8.482 -0.2033 -3.8313 -1.3854
  627TIP3    H223517   1.182   1.568   8.447  0.4969  0.0424  0.5652
  628TIP3   OH223518   0.842   3.591   3.586  0.0646  0.0241  0.1420
  628TIP3    H123519   0.892   3.548   3.517 -3.0826 -1.8466 -1.1903
  628TIP3    H223520   0.884   3.563   3.667  1.6762 -0.7009 -0.8895
  629TIP3   OH223521   1.507   2.610   0.037  0.3053  0.3746  0.2161
  629TIP3    H123522   1.491   2.594  -0.057 -1.2492 -0.7874  0.6320
  629TIP3    H223523   1.579   2.551   0.059  1.8240  1.8465 -0.5593
  630TIP3   OH223524   5.906   6.613   7.642 -0.3538 -0.3459  0.3786
  630TIP3    H123525   5.822   6.630   7.599 -0.5343  0.9775  1.2137
  630TIP3    H223526   5.971   6.646   7.580 -0.5475  0.3395  0.5339
  631TIP3   OH223527   1.316   0.601   2.165  0.5887 -0.2407  0.5464
  631TIP3    H123528   1.229   0.564   2.150  0.8381 -0.8277  0.5010
  631TIP3    H223529   1.336   0.579   2.256 -0.0140  1.4024  1.1132
  632TIP3   OH223530   1.716   0.228   1.136  0.0097 -0.0784  0.0091
  632TIP3    H123531   1.766   0.276   1.203  0.6193 -0.4417 -0.1709
  632TIP3    H223532   1.772   0.153   1.115 -1.1811 -1.1933  0.7057
  633TIP3   OH223533   3.224   2.941   8.065  0.2981 -0.6966 -0.0566
  633TIP3    H123534   3.197   2.870   8.007  1.1662 -0.1585 -1.1425
  633TIP3    H223535   3.199   2.910   8.153 -3.5197 -0.4008 -0.8539
  634TIP3   OH223536   5.937   6.287   1.092 -0.5984 -0.3776  0.2582
  634TIP3    H123537   5.889   6.231   1.030 -1.7409  1.0211 -0.1829
  634TIP3    H223538   5.971   6.358   1.037 -0.4895  0.1750  1.0363
  635TIP3   OH223539   5.011   1.413   8.268 -0.0895  0.3269  1.1670
  635TIP3    H123540   5.033   1.506   8.262 -2.6625  0.9563  0.4104
  635TIP3    H223541   5.065   1.372   8.200 -0.3128  1.5841  0.1955
  636TIP3   OH223542   5.853   5.215   2.534 -0.6463 -0.4090 -0.1276
  636TIP3    H123543   5.895   5.299   2.518 -0.2997 -0.8058 -1.4105
  636TIP3    H223544   5.774   5.236   2.584  0.7236  0.4122  1.7937
  637TIP3   OH223545   0.507   2.056   2.718 -0.2342  0.1644  0.0408
  637TIP3    H123546   0.598   2.036   2.695  0.1723 -0.2077  1.8144
  637TIP3    H223547   0.514   2.110   2.796 -1.4514  3.6161 -2.0362
  638TIP3   OH223548   0.874   5.021   2.085  0.8188 -0.6811 -0.0440
  638TIP3    H123549   0.817   4.979   2.149 -0.4375 -0.5001 -1.0136
  638TIP3    H223550   0.944   4.957   2.069  0.8688 -0.9310  1.1004
  639TIP3   OH223551   3.549   5.970   0.035  0.2263 -0.1305 -0.8393
  639TIP3    H123552   3.603   6.040   0.073  1.0867 -1.2338  0.0461
  639TIP3    H223553   3.461   6.007   0.032  0.8282  1.3243 -1.2840
  640TIP3   OH223554   2.802   3.003   0.469 -0.1980 -0.1127  0.1008
  640TIP3    H123555   2.891   2.967   0.476  0.3250  1.0882 -0.0159
  640TIP3    H223556   2.793   3.024   0.376 -1.1680 -1.5438 -0.1556
  641TIP3   OH223557   1.329   6.556   8.155 -0.4466  0.7273 -0.1435
  641TIP3    H123558   1.236   6.576   8.148 -0.5480  0.4386  0.3373
  641TIP3    H223559   1.339   6.520   8.243 -0.1418 -0.6319 -0.7113
  642TIP3   OH223560   3.567   5.578   0.411  0.4998  0.1806 -0.3066
  642TIP3    H123561   3.471   5.579   0.411  0.4228 -2.2852  0.7367
  642TIP3    H223562   3.591   5.637   0.339 -1.8283 -0.3777 -1.6344
  643TIP3   OH223563   2.807   5.167   0.105 -0.1743 -0.5185 -0.8674
  643TIP3    H123564   2.818   5.076   0.130 -2.0582 -1.3461 -2.7690
  643TIP3    H223565   2.721   5.171   0.064 -0.1508  2.1232 -0.8543
  644TIP3   OH223566   2.090   4.695   8.544  0.4149  0.1587 -0.3388
  644TIP3    H123567   2.079   4.756   8.471  0.6871  0.7725  0.1229
  644TIP3    H223568   2.023   4.628   8.529 -1.4526  1.7538  0.3324
  645TIP3   OH223569   3.262   3.095   1.195  0.1831  0.0410 -0.1781
  645TIP3    H123570   3.324   3.156   1.156 -0.2373  0.5036 -0.1401
  645TIP3    H223571   3.267   3.017   1.141 -1.4839  1.1889 -2.1320
  646TIP3   OH223572   1.515   3.017   0.859 -0.0647 -0.4911 -0.5805
  646TIP3    H123573   1.432   3.027   0.905  0.4394 -0.0898  0.2681
  646TIP3    H223574   1.502   2.941   0.802 -0.3985 -1.6239  0.9407
  647TIP3   OH223575   4.690   0.694   1.667  0.4973  0.2184 -0.4092
  647TIP3    H123576   4.732   0.694   1.753 -0.1027 -2.7832  0.0014
  647TIP3    H223577   4.723   0.773   1.624  0.7415  1.8533  2.5695
  648TIP3   OH223578   5.188   6.226   1.199 -0.3390 -0.5380 -0.7094
  648TIP3    H123579   5.188   6.132   1.215  0.8373 -0.1405  2.1027
  648TIP3    H223580   5.279   6.248   1.181 -0.7162 -0.0003 -2.1189
  649TIP3   OH223581   3.642   6.722   2.097  0.1466  0.3484  0.4146
  649TIP3    H123582   3.595   6.668   2.161 -2.3330  0.5103 -1.1461
  649TIP3    H223583   3.723   6.675   2.082 -0.4702 -1.1875  1.5606
  650TIP3   OH223584   3.211   3.669   0.069 -0.1345 -0.2545 -0.0537
  650TIP3    H123585   3.273   3.684  -0.003  1.0071 -1.4676  0.6350
  650TIP3    H223586   3.255   3.605   0.125 -0.7420  1.0658  2.0318
  651TIP3   OH223587   2.791   1.264   8.240 -0.4269 -0.0917  0.3924
  651TIP3    H123588   2.744   1.344   8.214  1.3837  1.0611  0.4968
  651TIP3    H223589   2.883   1.286   8.228  0.1061 -2.5945 -0.7063
  652TIP3   OH223590   2.052   5.330   2.370 -0.3798 -0.1104 -0.1465
  652TIP3    H123591   1.961   5.350   2.394  0.3874  1.2676  1.8577
  652TIP3    H223592   2.074   5.397   2.304 -1.2814 -1.5084 -1.9711
  653TIP3   OH223593   4.762   4.329   1.728  0.1112  0.3199  0.4863
  653TIP3    H123594   4.756   4.234   1.731 -2.5353  0.3657 -0.5165
  653TIP3    H223595   4.673   4.359   1.749  0.4583  2.5104 -0.8506
  654TIP3   OH223596   3.014   0.103   0.345 -0.7360  0.0887  0.2224
  654TIP3    H123597   3.038   0.026   0.292  2.0203 -0.9213  2.6780
  654TIP3    H223598   2.954   0.069   0.411  1.2613 -0.2990  1.9307
  655TIP3   OH223599   0.856   3.677   0.941 -0.4842  0.1449 -0.6297
  655TIP3    H123600   0.881   3.750   0.885  1.6007  0.1477  0.2332
  655TIP3    H223601   0.761   3.671   0.931 -0.9700  3.8673  0.3200
  656TIP3   OH223602   0.220   3.872   3.160 -0.2099 -0.3013  0.1528
  656TIP3    H123603   0.166   3.815   3.106  0.5706 -1.0096  0.1138
  656TIP3    H223604   0.261   3.932   3.098 -0.7430  0.0903  0.1609
  657TIP3   OH223605   1.174   2.757   8.470 -0.4104 -0.5090  0.2123
  657TIP3    H123606   1.177   2.804   8.553 -1.9750  3.9214 -1.9090
  657TIP3    H223607   1.083   2.729   8.461 -0.3613 -0.5441 -0.1922
  658TIP3   OH223608   3.240   5.310   3.057 -0.2057 -0.4500  0.1374
  658TIP3    H123609   3.313   5.248   3.063  0.6257  0.2279 -2.0449
  658TIP3    H223610   3.265   5.383   3.115  0.2770 -0.7464  0.3044
  659TIP3   OH223611   3.863   6.519   2.784  0.3239 -0.1760 -0.3335
  659TIP3    H123612   3.878   6.545   2.693  0.9529  2.6888  0.4787
  659TIP3    H223613   3.948   6.490   2.816  0.0351 -1.4996 -0.6913
  660TIP3   OH223614   6.868   0.960   8.381  0.4242  0.1589 -0.6574
  660TIP3    H123615   6.786   0.988   8.423  0.8459  0.3186  0.0806
  660TIP3    H223616   6.915   1.042   8.363  0.3722  0.0739 -1.1829
  661TIP3   OH223617   3.471   6.838   0.470  0.2147  0.0521 -0.4799
  661TIP3    H123618   3.452   6.806   0.558  0.3376 -1.0723 -0.8341
  661TIP3    H223619   3.558   6.879   0.478 -0.3193  1.1012  0.1706
  662TIP3   OH223620   0.025   4.506   3.376 -0.6511  0.3845 -0.1730
  662TIP3    H123621   0.089   4.456   3.426  1.9497  1.4818 -2.1568
  662TIP3    H223622  -0.007   4.445   3.310  0.0118  0.4137 -0.5260
  663TIP3   OH223623   2.214   0.584   8.569  0.1071 -0.0604 -0.5546
  663TIP3    H123624   2.309   0.591   8.565  0.1697  1.0202  1.3556
  663TIP3    H223625   2.197   0.498   8.607  0.2741 -0.5400 -1.5379
  664TIP3   OH223626   0.072   6.050   2.858  0.3601 -0.3629  0.4411
  664TIP3    H123627   0.143   6.062   2.922 -1.3078  0.5566  2.2373
  664TIP3    H223628   0.020   5.979   2.894  0.6319 -1.4230 -1.1631
  665TIP3   OH223629   2.096   5.100   2.512 -0.7901 -0.4725  0.0387
  665TIP3    H123630   2.142   5.150   2.580  2.3591 -2.3593 -0.4853
  665TIP3    H223631   2.067   5.166   2.450 -0.3824  1.0017  1.3405
  666TIP3   OH223632   0.477   3.871   8.300  0.2611 -0.1018  0.0609
  666TIP3    H123633   0.419   3.933   8.256 -0.1543  0.5355  1.4323
  666TIP3    H223634   0.561   3.880   8.255  0.1650  1.3781  0.1325
  667TIP3   OH223635   6.198   2.722   1.035 -0.2629  0.1307 -0.6561
  667TIP3    H123636   6.243   2.638   1.038  0.5163  0.4308 -2.4964
  667TIP3    H223637   6.120   2.710   1.090  0.3782 -1.4380 -0.0483
  668TIP3   OH223638   5.312   2.741   3.358 -0.1722 -0.5458  0.2200
  668TIP3    H123639   5.247   2.811   3.353  0.8833  0.5962  1.4559
  668TIP3    H223640   5.373   2.760   3.286 -0.9555 -1.3988 -0.7028
  669TIP3   OH223641   3.084   5.989   0.808  0.0457 -0.1243 -0.4928
  669TIP3    H123642   3.116   6.009   0.720 -1.3404 -0.4215 -1.0914
  669TIP3    H223643   3.012   5.928   0.794 -0.2016 -0.1743  0.8594
  670TIP3   OH223644   5.320   3.446   8.466  0.5730  0.2339 -0.2985
  670TIP3    H123645   5.271   3.518   8.507  0.2423 -0.7798  1.1873
  670TIP3    H223646   5.354   3.483   8.385  2.6843  2.9209  1.6305
  671TIP3   OH223647   0.281   6.582   0.801 -0.0174 -0.3257  0.0497
  671TIP3    H123648   0.291   6.486   0.801  2.2857 -0.1452 -0.3024
  671TIP3    H223649   0.340   6.612   0.732 -1.3945  1.3224 -0.4689
  672TIP3   OH223650   2.602   6.564   3.162 -0.5732 -0.1047  0.3479
  672TIP3    H123651   2.691   6.530   3.174 -0.9058 -1.0776  0.1715
  672TIP3    H223652   2.612   6.639   3.104 -0.1315 -1.8043 -1.9101
  673TIP3   OH223653   1.852   1.746   0.967  0.7026  0.4062 -0.2544
  673TIP3    H123654   1.895   1.751   0.882 -1.7007 -0.9354 -1.6666
  673TIP3    H223655   1.812   1.660   0.969  0.0263  0.7137  1.9202
  674TIP3   OH223656   6.066   5.010   1.090  0.6378  0.1429 -0.3436
  674TIP3    H123657   6.070   4.918   1.116 -2.4230 -0.0615 -0.1949
  674TIP3    H223658   6.108   5.057   1.161  1.7349 -1.0671 -0.1426
  675TIP3   OH223659   3.004   4.568   1.875 -0.3861  0.4491 -0.0237
  675TIP3    H123660   2.940   4.522   1.929  0.0291 -1.8605 -1.3755
  675TIP3    H223661   2.968   4.656   1.864 -2.9777 -0.5664 -0.1981
  676TIP3   OH223662   2.865   2.289   7.912 -0.3294  0.1357 -0.0327
  676TIP3    H123663   2.897   2.209   7.953  1.2226 -0.2179 -1.7671
  676TIP3    H223664   2.771   2.276   7.904 -0.4792 -0.3689  2.0425
  677TIP3   OH223665   4.223   3.420   7.654  0.1661 -0.0456  0.8850
  677TIP3    H123666   4.179   3.415   7.739  0.7804  2.0251  1.3796
  677TIP3    H223667   4.316   3.418   7.674  0.3256  1.0902  0.3351
  678TIP3   OH223668   3.862   6.023   1.156 -0.5783  0.1857 -0.6860
  678TIP3    H123669   3.815   5.940   1.156  0.1621 -0.3386  2.1067
  678TIP3    H223670   3.826   6.071   1.231  1.9977  0.4983  0.4654
  679TIP3   OH223671   6.322   4.317   0.015 -0.2108 -0.3967 -0.4435
  679TIP3    H123672   6.244   4.334   0.067 -0.6671  1.1190 -1.5608
  679TIP3    H223673   6.361   4.404   0.001  0.8881 -0.9729 -1.1067
  680TIP3   OH223674   1.859   1.547   3.319 -0.8648  0.0135  0.3944
  680TIP3    H123675   1.788   1.606   3.343 -0.9044  0.6100 -1.0981
  680TIP3    H223676   1.937   1.586   3.358 -1.1232  0.2130  0.7152
  681TIP3   OH223677   6.876   6.751   1.432 -0.1104  0.2779  0.2233
  681TIP3    H123678   6.885   6.683   1.365  0.5473 -0.3492  0.9343
  681TIP3    H223679   6.854   6.830   1.383 -1.0051 -0.4680 -0.6029
  682TIP3   OH223680   0.176   1.567   1.624  0.2069  0.2397  0.3181
  682TIP3    H123681   0.188   1.482   1.583  0.3466  0.9261 -1.1016
  682TIP3    H223682   0.258   1.613   1.607 -0.1427  0.9144  0.4536
  683TIP3   OH223683   3.844   4.212   0.395 -0.3443  1.1262 -0.0491
  683TIP3    H123684   3.766   4.179   0.438  0.8844 -2.8744 -0.4986
  683TIP3    H223685   3.913   4.204   0.460  0.8592 -1.7624 -1.5053
  684TIP3   OH223686   1.442   0.059   8.457 -0.5121 -0.8529 -0.5005
  684TIP3    H123687   1.506  -0.006   8.486  0.3129 -0.8951 -2.2800
  684TIP3    H223688   1.364   0.041   8.510  0.6122 -1.4006  1.0684
  685TIP3   OH223689   0.583   0.902   0.351  0.7845  0.3576  0.0973
  685TIP3    H123690   0.615   0.852   0.426 -0.4557  1.2655  1.2703
  685TIP3    H223691   0.641   0.876   0.279  2.6189  0.1865  1.5565
  686TIP3   OH223692   6.616   4.819   7.263  0.2428  0.0426  0.0175
  686TIP3    H123693   6.668   4.739   7.252 -0.7550 -1.0882  2.7862
  686TIP3    H223694   6.527   4.794   7.237  0.0557  0.4659  0.2407
  687TIP3   OH223695   4.171   4.036   1.423  0.4624  0.2214  0.0337
  687TIP3    H123696   4.118   4.086   1.362 -0.5252 -0.3508  0.3975
  687TIP3    H223697   4.196   3.958   1.375  0.8768  0.4313 -0.0958
  688TIP3   OH223698   1.005   4.399   0.669 -0.2974  0.2160 -0.3681
  688TIP3    H123699   1.015   4.307   0.692  0.5775  0.5782  0.7643
  688TIP3    H223700   1.084   4.421   0.620  0.3296  0.7869  0.8574
  689TIP3   OH223701   1.121   3.319   1.947 -0.3569 -0.2109  0.2177
  689TIP3    H123702   1.080   3.267   2.015 -0.6093  0.5911  0.6902
  689TIP3    H223703   1.199   3.270   1.922  1.6350  1.0337  3.4376
  690TIP3   OH223704   2.967   4.610   3.083 -0.0007  0.1543 -0.5807
  690TIP3    H123705   3.050   4.595   3.130 -0.0054  0.5539 -0.4435
  690TIP3    H223706   2.945   4.525   3.047  1.0537  0.2739 -1.5623
  691TIP3   OH223707   4.010   6.042   0.173 -0.1251  0.5786 -0.0991
  691TIP3    H123708   4.066   5.980   0.126  0.8865  0.2474  1.4472
  691TIP3    H223709   3.929   6.046   0.122 -0.5358 -2.6027  0.1095
  692TIP3   OH223710   5.100   2.486   2.779 -0.2602  0.1087  0.0030
  692TIP3    H123711   5.043   2.421   2.820 -1.1978  0.5765 -0.5183
  692TIP3    H223712   5.176   2.437   2.750 -2.0413 -1.3068 -2.6799
  693TIP3   OH223713   1.283   6.324   2.415 -0.0213 -0.0661 -0.2193
  693TIP3    H123714   1.216   6.332   2.483  0.5742 -0.1506  0.3861
  693TIP3    H223715   1.239   6.275   2.345 -0.8517  0.6176 -0.1921
  694TIP3   OH223716   0.697   0.436   2.795  0.1456  0.0353 -0.0322
  694TIP3    H123717   0.719   0.426   2.887  0.3592 -1.8850 -0.2364
  694TIP3    H223718   0.621   0.493   2.794  1.1467  1.4861  1.1760
  695TIP3   OH223719   0.637   3.254   0.303 -0.1229 -0.6302 -0.6368
  695TIP3    H123720   0.576   3.299   0.362 -1.1599  0.6029 -2.5666
  695TIP3    H223721   0.596   3.168   0.288  0.6128 -1.3379  1.0781
  696TIP3   OH223722   3.191   4.025   0.379  0.4448 -0.0455 -0.2618
  696TIP3    H123723   3.156   4.069   0.302 -0.0886  1.8000  0.9516
  696TIP3    H223724   3.279   4.062   0.389  0.0987  0.5889  0.6069
  697TIP3   OH223725   3.515   1.981   7.002 -0.2839 -0.2185  0.5624
  697TIP3    H123726   3.610   1.971   7.010  0.1417  1.3895 -1.4603
  697TIP3    H223727   3.497   1.966   6.909 -2.0706 -0.7311  0.9497
  698TIP3   OH223728   6.263   6.807   2.871 -0.6841 -0.5203  0.2084
  698TIP3    H123729   6.340   6.754   2.850  0.1231  0.2934  0.9798
  698TIP3    H223730   6.196   6.778   2.810  1.5573  1.9238 -3.9504
  699TIP3   OH223731   1.565   0.774   0.064  0.1287 -0.4176 -0.1118
  699TIP3    H123732   1.470   0.760   0.072  0.2884 -1.7780 -0.4127
  699TIP3    H223733   1.572   0.853   0.010 -0.8754 -1.6730 -2.2425
  700TIP3   OH223734   1.745   6.335   1.571  0.1273  0.3529 -0.2161
  700TIP3    H123735   1.691   6.341   1.492  0.3726  1.4889 -0.3232
  700TIP3    H223736   1.691   6.289   1.634 -0.4772  0.3442 -0.7234
  701TIP3   OH223737   3.665   6.759   8.498 -0.1435 -0.3578 -0.1427
  701TIP3    H123738   3.729   6.710   8.550  1.5204  0.3465 -1.4198
  701TIP3    H223739   3.655   6.709   8.418 -1.1620 -0.4221  0.0173
  702TIP3   OH223740   3.432   1.000   8.337 -0.0167 -0.1260 -0.6679
  702TIP3    H123741   3.371   0.939   8.378  0.3624 -0.2052 -0.2146
  702TIP3    H223742   3.502   1.012   8.402 -1.2338  2.6250  0.2826
  703TIP3   OH223743   4.917   0.857   0.440  0.1980 -0.1253  0.0059
  703TIP3    H123744   4.925   0.836   0.347  0.0870 -0.8942  0.1590
  703TIP3    H223745   4.939   0.950   0.446  1.5872 -0.3923 -0.5933
  704TIP3   OH223746   3.253   2.250   0.994 -0.6413  0.4954  0.2379
  704TIP3    H123747   3.279   2.291   0.911 -1.1030 -1.5599 -1.0092
  704TIP3    H223748   3.189   2.310   1.032 -1.2467  0.9731 -1.4611
  705TIP3   OH223749   5.537   3.302   7.176 -0.5334 -0.6960  0.2916
  705TIP3    H123750   5.458   3.314   7.123  0.3938  0.7431 -0.7951
  705TIP3    H223751   5.521   3.357   7.254 -0.0216  0.7543 -0.5971
  706TIP3   OH223752   2.578   2.375   2.681  0.6236 -0.2791  0.2118
  706TIP3    H123753   2.521   2.305   2.649  1.0609  0.3053 -1.9639
  706TIP3    H223754   2.535   2.405   2.762 -2.0287 -0.0501 -1.1783
  707TIP3   OH223755   1.327   0.289   1.905 -0.0993 -0.1372 -0.6313
  707TIP3    H123756   1.238   0.322   1.918  0.7144  1.7312  0.6097
  707TIP3    H223757   1.332   0.271   1.811 -0.8639  2.7332 -1.3261
  708TIP3   OH223758   4.883   3.197   2.680 -0.1222  0.2903  0.1607
  708TIP3    H123759   4.838   3.160   2.756 -0.1118 -1.0572 -0.4632
  708TIP3    H223760   4.898   3.122   2.622  2.2760  0.7960  0.0139
  709TIP3   OH223761   1.988   0.283   0.648 -0.1862  0.6080  0.2167
  709TIP3    H123762   1.894   0.293   0.634 -0.1745  1.0803  0.4357
  709TIP3    H223763   2.028   0.347   0.590 -0.0045  0.4617  0.1801
  710TIP3   OH223764   4.602   1.902   0.248  1.0103 -0.0148  0.5407
  710TIP3    H123765   4.540   1.901   0.321 -0.8232  0.1533 -0.9381
  710TIP3    H223766   4.629   1.811   0.238  0.9364 -0.1059  1.1533
  711TIP3   OH223767   3.281   4.273   2.038  0.3005  0.2595  0.0597
  711TIP3    H123768   3.228   4.330   2.093 -0.7055  0.3739 -1.0208
  711TIP3    H223769   3.320   4.331   1.973 -2.3980 -0.4696 -2.3685
  712TIP3   OH223770   0.695   5.136   0.630 -0.1392 -0.9764  0.4481
  712TIP3    H123771   0.716   5.199   0.561  0.0981 -2.5582 -1.0037
  712TIP3    H223772   0.601   5.119   0.619 -0.2103 -0.8651  0.8598
  713TIP3   OH223773   4.842   4.172   3.758  0.2384 -0.0644  0.3300
  713TIP3    H123774   4.891   4.182   3.840  0.0901 -0.5912  0.4867
  713TIP3    H223775   4.759   4.132   3.785 -0.4865  1.2512  0.1405
  714TIP3   OH223776   4.625   6.859   8.301 -0.1692 -0.5056 -0.4550
  714TIP3    H123777   4.679   6.798   8.251 -1.0735 -1.3153 -0.4608
  714TIP3    H223778   4.637   6.834   8.392 -2.0785 -2.0279 -0.5671
  715TIP3   OH223779   4.211   0.858   2.634  0.0473  0.0849  0.1840
  715TIP3    H123780   4.295   0.816   2.617 -0.6880 -1.0562 -0.7621
  715TIP3    H223781   4.232   0.952   2.636  1.2076 -0.1163 -0.9480
  716TIP3   OH223782   0.220   1.369   1.857  0.3811 -0.0998  0.7235
  716TIP3    H123783   0.219   1.292   1.800  2.5602  0.7763 -0.5974
  716TIP3    H223784   0.129   1.399   1.857 -0.4204 -2.3143  0.8359
  717TIP3   OH223785   5.537   4.195   2.815  0.2897  0.3676 -0.3807
  717TIP3    H123786   5.451   4.194   2.772  0.5446  0.8919 -0.9251
  717TIP3    H223787   5.520   4.168   2.905 -0.1345 -1.6787 -1.0372
  718TIP3   OH223788   1.707   5.846   2.615  0.0397  0.2601  0.1941
  718TIP3    H123789   1.660   5.811   2.539  2.0884  1.4335 -1.7241
  718TIP3    H223790   1.704   5.941   2.604  3.6807  0.4116 -0.6739
  719TIP3   OH223791   1.664   4.890   1.030 -0.1292 -0.2452 -0.0967
  719TIP3    H123792   1.751   4.899   0.991 -0.7944 -1.3625 -1.9761
  719TIP3    H223793   1.681   4.855   1.117  1.3776  1.4858  0.3783
  720TIP3   OH223794   5.115   3.544   7.929  0.1295 -0.3739  0.1538
  720TIP3    H123795   5.138   3.636   7.939  0.8436 -0.6196  0.8972
  720TIP3    H223796   5.126   3.527   7.835  2.8587 -0.3940  0.3836
  721TIP3   OH223797   5.830   2.701   0.033 -0.1731 -0.1994  0.0995
  721TIP3    H123798   5.877   2.618   0.041  0.9812  0.4298  0.0452
  721TIP3    H223799   5.740   2.679   0.056  0.6665 -0.8751  3.2370
  722TIP3   OH223800   6.169   6.170   2.497 -0.1934  0.1451  0.2704
  722TIP3    H123801   6.120   6.098   2.536  0.1632 -0.7303 -0.8309
  722TIP3    H223802   6.250   6.130   2.466 -0.6442  0.6806 -1.7516
  723TIP3   OH223803   1.572   0.605   8.369 -0.3059  0.4431  0.3289
  723TIP3    H123804   1.664   0.580   8.358 -0.7624 -0.9033 -0.5560
  723TIP3    H223805   1.563   0.685   8.317 -0.0145 -0.3269 -0.9513
  724TIP3   OH223806   4.256   6.467   0.831  0.3977  0.0059  0.8084
  724TIP3    H123807   4.188   6.499   0.772  1.2460  0.0016 -0.1924
  724TIP3    H223808   4.335   6.464   0.778  0.7980 -1.7850  1.4308
  725TIP3   OH223809   5.531   2.594   0.700 -0.1731  0.0414  0.0557
  725TIP3    H123810   5.520   2.544   0.619 -0.1903 -0.4495  0.3564
  725TIP3    H223811   5.510   2.684   0.675  0.2955 -0.0207 -0.5933
  726TIP3   OH223812   2.974   2.693   2.039  0.0931  0.4497 -0.1271
  726TIP3    H123813   2.962   2.678   1.945  0.9902  0.6323 -0.2878
  726TIP3    H223814   3.007   2.783   2.045 -0.7195  0.7163  0.4318
  727TIP3   OH223815   4.912   1.311   3.317 -0.0820 -0.0079  0.7696
  727TIP3    H123816   4.920   1.380   3.382 -1.4765  0.0272  0.9337
  727TIP3    H223817   4.977   1.333   3.250 -1.1372  2.0095  0.3339
  728TIP3   OH223818   4.703   5.374   7.352 -0.4707  0.2286  0.4663
  728TIP3    H123819   4.679   5.291   7.395  0.9462 -0.5313 -0.1564
  728TIP3    H223820   4.769   5.413   7.410  0.0222  0.1427 -0.0327
  729TIP3   OH223821   0.568   4.185   8.458 -0.4624  0.1800  0.0638
  729TIP3    H123822   0.587   4.139   8.375  0.1202  1.0755 -0.3191
  729TIP3    H223823   0.491   4.141   8.493 -0.1378 -0.8470 -0.4751
  730TIP3   OH223824   5.826   4.060   6.808 -0.3397  0.2514 -0.2712
  730TIP3    H123825   5.835   4.106   6.892 -0.7681 -2.0047  1.1207
  730TIP3    H223826   5.737   4.024   6.810 -0.0355 -0.5923 -1.2825
  731TIP3   OH223827   3.968   5.530   7.930  0.5534  0.0566  0.3367
  731TIP3    H123828   3.991   5.454   7.877 -0.3442 -0.1647  0.2524
  731TIP3    H223829   3.970   5.498   8.020  0.1113 -0.0885  0.2965
  732TIP3   OH223830   2.855   4.204   8.049  0.1856 -0.3087  0.4572
  732TIP3    H123831   2.871   4.234   7.960  1.2667  0.1043  0.7737
  732TIP3    H223832   2.907   4.123   8.057 -0.4841 -0.7437  0.4892
  733TIP3   OH223833   0.884   3.411   1.471 -0.3816  0.1131 -0.1905
  733TIP3    H123834   0.960   3.468   1.487 -0.4760  0.7329 -1.8188
  733TIP3    H223835   0.813   3.451   1.521  0.0733  0.1561  0.4446
  734TIP3   OH223836   5.596   3.265   1.659  0.1190 -0.3737  0.7342
  734TIP3    H123837   5.546   3.324   1.602  1.1703  0.9622  1.1262
  734TIP3    H223838   5.683   3.263   1.620  0.5926 -0.1852  1.7530
  735TIP3   OH223839   1.209   2.487   0.406 -0.7134 -0.2487  0.6244
  735TIP3    H123840   1.223   2.580   0.424 -0.4406 -0.0843 -0.4009
  735TIP3    H223841   1.296   2.448   0.416 -0.4491 -0.0639 -0.8318
  736TIP3   OH223842   0.798   5.766   2.358  0.5200  0.4097  1.2923
  736TIP3    H123843   0.867   5.832   2.370  1.6878 -0.0849 -1.8139
  736TIP3    H223844   0.720   5.817   2.336  1.0854  0.8360  0.2281
  737TIP3   OH223845   5.267   1.933   2.551 -0.1002 -0.0474 -0.1125
  737TIP3    H123846   5.342   1.961   2.497 -0.9984  1.4000 -0.6680
  737TIP3    H223847   5.227   2.015   2.580  1.0785 -0.6866  3.9375
  738TIP3   OH223848   2.937   1.919   1.828 -0.3440 -0.0118  0.0290
  738TIP3    H123849   2.866   1.909   1.891 -1.6283  2.1709 -0.9385
  738TIP3    H223850   3.011   1.950   1.880 -1.1074  0.8676  0.6176
  739TIP3   OH223851   4.531   2.936   8.247  0.0634 -0.2679 -0.0762
  739TIP3    H123852   4.620   2.943   8.214 -0.2003  1.3008 -0.5646
  739TIP3    H223853   4.540   2.941   8.343  0.5068 -0.1973 -0.1222
  740TIP3   OH223854   4.434   0.895   2.336  0.2487  0.8491  0.4020
  740TIP3    H123855   4.443   0.985   2.367  2.2214  0.2435  1.8327
  740TIP3    H223856   4.448   0.842   2.415  0.5047 -0.7202 -0.6627
  741TIP3   OH223857   3.539   4.141   1.160 -0.0266 -0.3075 -0.1528
  741TIP3    H123858   3.627   4.103   1.155 -0.3493 -1.2653  1.1301
  741TIP3    H223859   3.488   4.091   1.096 -0.1232 -1.1625  0.5759
  742TIP3   OH223860   3.786   0.451   7.842  0.4131  0.5402 -0.1416
  742TIP3    H123861   3.777   0.546   7.832 -2.3429  0.1782 -2.7984
  742TIP3    H223862   3.860   0.429   7.786  0.6101  1.0476 -0.0915
  743TIP3   OH223863   2.424   2.714   0.993  0.1271  0.3417 -0.3912
  743TIP3    H123864   2.333   2.739   0.979  0.1692  1.0940  0.5936
  743TIP3    H223865   2.424   2.618   0.983 -0.9527  0.2278  0.4685
  744TIP3   OH223866   4.195   4.662   0.072  0.0442  0.5914  0.2130
  744TIP3    H123867   4.192   4.632  -0.019  1.5779 -0.4911  0.4865
  744TIP3    H223868   4.107   4.645   0.105 -0.2673  0.1163 -0.7992
  745TIP3   OH223869   3.461   4.841   2.001 -0.5506 -0.3274  0.0508
  745TIP3    H123870   3.380   4.871   2.041 -0.3298 -0.4527  0.6011
  745TIP3    H223871   3.529   4.894   2.042 -0.2516 -0.9274  0.3482
  746TIP3   OH223872   6.613   1.602   0.450  0.1167  0.4412  0.4442
  746TIP3    H123873   6.558   1.666   0.406 -1.5029 -0.1570  1.4973
  746TIP3    H223874   6.574   1.517   0.427  2.0813 -0.2079 -0.7449
  747TIP3   OH223875   1.212   1.391   8.089 -0.2257 -0.1315  0.0928
  747TIP3    H123876   1.145   1.372   8.023 -1.6537 -2.0853  1.9611
  747TIP3    H223877   1.170   1.449   8.152  1.1584  1.8051 -0.6670
  748TIP3   OH223878   3.267   1.613   8.336 -1.1613 -0.8345  0.2279
  748TIP3    H123879   3.206   1.659   8.394  1.0768  0.5751  1.6108
  748TIP3    H223880   3.275   1.526   8.374 -2.1448 -0.9841  0.1256
  749TIP3   OH223881   1.807   4.563   2.169 -0.0924  0.0142 -0.1709
  749TIP3    H123882   1.720   4.528   2.153 -0.6667  1.1052  0.4250
  749TIP3    H223883   1.794   4.630   2.236  1.4213 -0.7711  0.9694
  750TIP3   OH223884   4.901   1.134   0.447 -0.4014  0.2211  0.1193
  750TIP3    H123885   4.854   1.192   0.388 -0.0222  1.9348  1.4221
  750TIP3    H223886   4.985   1.177   0.462 -0.0794 -0.6936  1.0645
  751TIP3   OH223887   0.285   6.312   2.342 -0.3856 -0.2638 -0.2857
  751TIP3    H123888   0.291   6.396   2.297 -2.7095 -1.6279 -3.5202
  751TIP3    H223889   0.191   6.292   2.345  0.0676 -2.7259  0.4062
  752TIP3   OH223890   6.649   6.837   8.364  0.0841  0.2137  0.2341
  752TIP3    H123891   6.662   6.907   8.428  1.4959  0.3485 -0.1687
  752TIP3    H223892   6.732   6.832   8.317 -0.6075 -0.5358 -0.9472
  753TIP3   OH223893   5.166   1.689   0.145 -0.1427 -0.4166  0.1920
  753TIP3    H123894   5.260   1.690   0.161 -0.6017  1.5027  3.6076
  753TIP3    H223895   5.155   1.743   0.067  1.5439 -0.3522 -0.0434
  754TIP3   OH223896   4.444   4.410   1.660 -0.2727  0.7440  0.4225
  754TIP3    H123897   4.465   4.500   1.636 -1.8029  1.0717  0.2046
  754TIP3    H223898   4.432   4.364   1.577  2.3793 -0.2010  0.4640
  755TIP3   OH223899   6.321   3.238   1.207  0.1234  0.6564 -0.2285
  755TIP3    H123900   6.347   3.283   1.127  0.2175  0.0956 -0.5159
  755TIP3    H223901   6.289   3.153   1.177 -0.0583  0.5343  0.3089
  756TIP3   OH223902   3.946   4.118   0.861  0.3886 -0.3161  0.3617
  756TIP3    H123903   4.038   4.141   0.876  0.1994  0.8296 -0.1107
  756TIP3    H223904   3.899   4.158   0.934  0.0846  0.6224 -0.3225
  757TIP3   OH223905   1.342   6.702   1.794 -0.1941 -0.1165  0.4309
  757TIP3    H123906   1.261   6.697   1.744  0.0352 -2.1158  0.1636
  757TIP3    H223907   1.405   6.742   1.734 -0.8134  0.8965  0.4353
  758TIP3   OH223908   2.181   0.961   2.353 -0.2187  0.2550  0.1846
  758TIP3    H123909   2.116   0.982   2.419 -1.5133 -0.4000 -0.8529
  758TIP3    H223910   2.250   0.915   2.401 -0.8183  0.3583  1.1676
  759TIP3   OH223911   5.855   6.283   8.077  0.4504  0.0940  0.1716
  759TIP3    H123912   5.904   6.282   7.994  0.4476  0.5887  0.1590
  759TIP3    H223913   5.806   6.366   8.075  0.3230  0.0321  0.5957
  760TIP3   OH223914   3.824   4.376   2.628  0.6883 -0.0949 -0.3768
  760TIP3    H123915   3.907   4.330   2.645 -0.0269 -1.8207 -1.2757
  760TIP3    H223916   3.816   4.378   2.533 -1.1916 -1.7247 -0.3187
  761TIP3   OH223917   6.175   5.942   2.275  0.3761 -0.3952 -0.2296
  761TIP3    H123918   6.205   5.929   2.185 -1.1175 -0.4614 -0.7474
  761TIP3    H223919   6.122   6.021   2.272  0.0592 -0.5681  0.5305
  762TIP3   OH223920   3.426   2.205   2.350 -0.3710  0.9534 -0.4949
  762TIP3    H123921   3.483   2.163   2.415  1.2719  0.3757 -2.2325
  762TIP3    H223922   3.338   2.172   2.371 -0.2530  2.1530  2.4984
  763TIP3   OH223923   4.369   1.074   8.279  0.0313 -0.6352  0.0444
  763TIP3    H123924   4.344   1.101   8.368 -2.0764 -1.1156 -0.3314
  763TIP3    H223925   4.423   1.145   8.246  0.6485 -0.3317  1.6189
  764TIP3   OH223926   4.155   0.721   3.179 -0.0493 -0.0703  0.1948
  764TIP3    H123927   4.074   0.761   3.209  0.8987 -0.1297  3.2034
  764TIP3    H223928   4.142   0.627   3.192 -0.2473 -0.2938 -1.4380
  765TIP3   OH223929   4.283   0.031   1.356 -0.1156 -0.6158  0.1444
  765TIP3    H123930   4.193   0.026   1.388  0.3177 -0.5775  1.4097
  765TIP3    H223931   4.311  -0.060   1.347 -0.7869 -0.6818 -1.8329
  766TIP3   OH223932   5.570   4.796   2.626 -0.2359  0.5889  0.3051
  766TIP3    H123933   5.553   4.797   2.532 -3.0882  0.0007  0.7252
  766TIP3    H223934   5.666   4.800   2.633  0.0067  3.0372 -2.5196
  767TIP3   OH223935   1.981   6.822   0.222 -0.1130  0.5793 -0.0674
  767TIP3    H123936   2.018   6.815   0.133  2.0130 -0.6807  0.8337
  767TIP3    H223937   2.047   6.781   0.278 -2.8255 -1.6622  1.7497
  768TIP3   OH223938   5.675   0.705   1.967 -0.2431 -0.2214 -0.0571
  768TIP3    H123939   5.624   0.627   1.946 -0.3318 -0.1954  0.0595
  768TIP3    H223940   5.727   0.722   1.888 -0.7945  0.0511 -0.3641
  769TIP3   OH223941   3.040   2.787   3.025 -0.5604 -0.0137  0.3561
  769TIP3    H123942   2.950   2.762   3.005 -0.4147  1.3719 -2.6685
  769TIP3    H223943   3.035   2.832   3.109 -2.2161 -2.1293  1.4795
  770TIP3   OH223944   2.748   4.742   2.994  0.0844  0.2549  0.0438
  770TIP3    H123945   2.824   4.694   3.025 -0.0119  0.4514  0.5841
  770TIP3    H223946   2.782   4.829   2.973  0.4016 -0.2152 -1.5854
  771TIP3   OH223947   5.642   6.169   2.191  0.0647 -0.0565 -0.0663
  771TIP3    H123948   5.588   6.096   2.223 -0.2285  0.3990  0.4956
  771TIP3    H223949   5.691   6.132   2.118  0.1910 -0.9207  0.4428
  772TIP3   OH223950   2.519   3.394   0.242  0.6405 -0.2472  0.9411
  772TIP3    H123951   2.558   3.370   0.158 -0.9738 -1.0418  0.3625
  772TIP3    H223952   2.526   3.489   0.246  1.5961 -0.2855  0.3510
  773TIP3   OH223953   3.313   0.574   2.346 -0.3972  0.7967  0.0201
  773TIP3    H123954   3.275   0.584   2.258 -1.6357  0.2515  0.4760
  773TIP3    H223955   3.307   0.481   2.364  0.9033  0.7467  0.2444
  774TIP3   OH223956   4.928   1.559   3.446  0.4248 -0.1342  0.2067
  774TIP3    H123957   4.846   1.559   3.497 -0.9082 -0.1319 -1.8234
  774TIP3    H223958   4.953   1.652   3.441  0.2274 -0.0740  0.3228
  775TIP3   OH223959   4.968   3.032   1.794  0.5917  0.4004 -0.6551
  775TIP3    H123960   4.891   3.080   1.762  0.2651  0.7759  0.6163
  775TIP3    H223961   4.936   2.944   1.811  0.8204  0.1373 -1.5401
  776TIP3   OH223962   4.167   1.768   8.263 -0.6774  0.2772  0.0872
  776TIP3    H123963   4.146   1.681   8.296  1.8115 -0.0648  0.9986
  776TIP3    H223964   4.259   1.762   8.237 -0.3028  2.7417  0.6145
  777TIP3   OH223965   5.334   2.121   2.120 -0.2206  0.3493  0.1757
  777TIP3    H123966   5.303   2.207   2.094  0.2574  0.0742 -1.4349
  777TIP3    H223967   5.356   2.078   2.038 -0.0613 -1.1657  0.9750
  778TIP3   OH223968   2.078   6.434   8.297 -0.0032  0.5273  0.5135
  778TIP3    H123969   2.124   6.502   8.249  1.1909  0.5139  1.5883
  778TIP3    H223970   1.985   6.452   8.281  0.3239  1.4386 -0.4965
  779TIP3   OH223971   1.221   5.234   1.062 -0.6371 -0.5311 -0.3029
  779TIP3    H123972   1.262   5.317   1.086 -0.7443 -0.0930 -1.5823
  779TIP3    H223973   1.294   5.172   1.054 -0.5821 -0.6485  0.9167
  780TIP3   OH223974   4.623   1.350   1.956 -0.5182  0.1492  0.1163
  780TIP3    H123975   4.699   1.405   1.974  0.6408 -0.7177 -1.8396
  780TIP3    H223976   4.596   1.373   1.868 -0.1775 -2.1461 -0.6601
  781TIP3   OH223977   6.824   0.001   0.749 -0.5578 -0.0246  0.7335
  781TIP3    H123978   6.748  -0.040   0.791  0.6204 -2.0249  1.0575
  781TIP3    H223979   6.896  -0.017   0.809  0.6181 -0.3839 -0.7417
  782TIP3   OH223980   0.976   1.893   2.755  0.1281 -0.5638 -0.1310
  782TIP3    H123981   0.953   1.825   2.819 -2.1374 -0.3348 -0.6323
  782TIP3    H223982   1.014   1.963   2.808 -1.6080 -0.4149  1.0110
  783TIP3   OH223983   4.273   6.059   2.304  0.2248  0.2408 -0.5086
  783TIP3    H123984   4.203   6.018   2.355 -0.3456  0.5318 -1.0555
  783TIP3    H223985   4.303   5.989   2.245 -0.6485  0.5502 -1.3393
  784TIP3   OH223986   4.625   3.952   3.751  0.0872  0.7682  0.1571
  784TIP3    H123987   4.647   3.894   3.678 -0.0504 -0.0206  0.7232
  784TIP3    H223988   4.535   3.979   3.735 -0.0335  0.3821  0.1649
  785TIP3   OH223989   2.137   2.316   0.102 -0.6247 -0.2884  0.3892
  785TIP3    H123990   2.143   2.273   0.187  1.3225  1.4023  1.2083
  785TIP3    H223991   2.116   2.407   0.122 -1.1477 -0.0689 -1.0234
  786TIP3   OH223992   1.336   2.603   7.867  0.2669 -0.0600 -0.8453
  786TIP3    H123993   1.405   2.636   7.924  1.6024 -2.1081 -1.1637
  786TIP3    H223994   1.319   2.674   7.806  0.4337  1.3269  0.6626
  787TIP3   OH223995   1.798   2.766   0.076  0.3456  0.1115  0.1527
  787TIP3    H123996   1.731   2.757   0.144 -0.5552 -0.0854 -0.7240
  787TIP3    H223997   1.751   2.803   0.001  1.2091 -0.0833 -0.5050
  788TIP3   OH223998   4.017   4.352   7.800  0.0455 -0.5680  0.0471
  788TIP3    H123999   4.002   4.258   7.792 -0.4620 -0.6260  1.4428
  788TIP3    H224000   3.931   4.392   7.781  0.0994 -0.4165  0.1182
  789TIP3   OH224001   4.356   1.328   8.608 -0.0138 -0.3807 -0.2062
  789TIP3    H124002   4.344   1.234   8.596 -1.8327 -0.2454  0.2340
  789TIP3    H224003   4.386   1.360   8.523  1.0171 -1.3908 -0.2472
  790TIP3   OH224004   6.596   5.240   8.217  0.2579 -0.1683 -0.0651
  790TIP3    H124005   6.634   5.288   8.143 -0.5113 -0.3098 -0.5620
  790TIP3    H224006   6.508   5.216   8.188  0.5310 -1.6951  0.2414
  791TIP3   OH224007   1.466   3.599   8.391  0.3219  0.4109  0.0990
  791TIP3    H124008   1.394   3.631   8.445  0.8822  2.1307 -0.1131
  791TIP3    H224009   1.448   3.506   8.379 -2.1764  0.9140 -0.4605
  792TIP3   OH224010   2.324   1.260   0.453  0.4513 -0.3973 -0.6874
  792TIP3    H124011   2.298   1.340   0.408 -0.5178 -0.7317 -0.7434
  792TIP3    H224012   2.413   1.278   0.485  0.6113  0.3410 -1.5248
  793TIP3   OH224013   1.029   3.393   8.190  0.2700  0.1884 -0.2247
  793TIP3    H124014   1.035   3.472   8.243 -1.1045 -0.8539  1.6022
  793TIP3    H224015   0.935   3.379   8.178  0.5023 -0.8830 -0.9730
  794TIP3   OH224016   5.790   1.127   0.717 -0.1108 -0.3692  0.3646
  794TIP3    H124017   5.741   1.157   0.640 -1.4849  0.2287  1.4387
  794TIP3    H224018   5.879   1.156   0.701 -0.5331  0.4540 -0.6373
  795TIP3   OH224019   0.617   3.318   1.140 -0.3269 -0.4239  0.0226
  795TIP3    H124020   0.620   3.224   1.156 -0.6433 -0.8311 -2.0393
  795TIP3    H224021   0.638   3.328   1.047 -0.6025  1.5210  0.1117
  796TIP3   OH224022   1.451   2.559   7.161 -0.0435  0.0627  0.3610
  796TIP3    H124023   1.476   2.467   7.154  0.0893  0.2329 -2.5021
  796TIP3    H224024   1.366   2.558   7.204  0.4426 -1.2892  1.3490
  797TIP3   OH224025   5.158   5.730   0.834 -0.7156  0.8445  0.4546
  797TIP3    H124026   5.149   5.660   0.770 -2.3101  0.9239  0.5741
  797TIP3    H224027   5.253   5.734   0.851 -0.6682 -2.1876  1.4688
  798TIP3   OH224028   5.581   3.866   1.510 -0.3563 -0.1225 -0.1958
  798TIP3    H124029   5.500   3.826   1.539  0.5438  0.5655  3.9603
  798TIP3    H224030   5.558   3.958   1.495 -0.4225  0.0369  0.8137
  799TIP3   OH224031   4.388   1.981   0.442  0.0627 -0.3980 -0.3461
  799TIP3    H124032   4.295   2.006   0.443 -0.3724 -1.9430  0.1015
  799TIP3    H224033   4.420   2.006   0.529 -0.3198 -1.2000  0.0316
  800TIP3   OH224034   4.538   3.587   8.446 -1.1091  0.4115  0.7099
  800TIP3    H124035   4.560   3.668   8.492 -1.8516  0.7769  0.4377
  800TIP3    H224036   4.560   3.605   8.354 -0.9936  0.2002  0.6962
  801TIP3   OH224037   1.891   1.753   1.626  0.0659 -0.0408 -0.0417
  801TIP3    H124038   1.950   1.754   1.701  0.1329  0.9873 -0.0839
  801TIP3    H224039   1.850   1.840   1.627 -0.9603 -0.5067 -0.3947
  802TIP3   OH224040   1.175   0.439   7.993 -1.1009  0.0175 -0.1173
  802TIP3    H124041   1.245   0.501   8.015 -0.5074 -0.0384 -1.7022
  802TIP3    H224042   1.095   0.480   8.025 -0.4596  0.5187  0.8943
  803TIP3   OH224043   3.952   2.663   2.612  0.3712 -0.4243 -0.5983
  803TIP3    H124044   3.884   2.652   2.679  0.1832  0.2084 -0.6760
  803TIP3    H224045   4.005   2.736   2.644  0.4211 -0.2729 -1.0231
  804TIP3   OH224046   0.981   0.497   1.588 -0.1370 -0.6689  0.3195
  804TIP3    H124047   0.889   0.519   1.603 -0.4383 -1.1701 -0.6710
  804TIP3    H224048   1.012   0.465   1.673 -0.2181  1.5985  1.2719
  805TIP3   OH224049   6.077   3.064   1.452  0.2905  0.7632  0.3624
  805TIP3    H124050   6.049   3.142   1.404  2.0925  1.4696  0.3901
  805TIP3    H224051   6.152   3.031   1.403  1.0473  0.4545  1.6851
  806TIP3   OH224052   3.676   2.769   8.247  0.1623  0.0556 -0.3195
  806TIP3    H124053   3.726   2.744   8.169 -0.2658  0.4605 -0.7307
  806TIP3    H224054   3.669   2.864   8.242  0.1552  0.0892  0.2340
  807TIP3   OH224055   6.156   3.949   1.861 -0.4289 -0.0709  0.3258
  807TIP3    H124056   6.114   3.864   1.851 -2.1948  0.4905  2.1783
  807TIP3    H224057   6.115   4.004   1.794 -1.1212 -0.0751  0.7363
  808TIP3   OH224058   1.236   5.850   7.422 -0.0521  0.1186  0.1004
  808TIP3    H124059   1.305   5.915   7.428  1.4595 -1.4402  0.5266
  808TIP3    H224060   1.202   5.858   7.333  1.4102  0.2333 -0.4747
  809TIP3   OH224061   4.487   1.086   2.053  0.1307 -0.2582 -0.6386
  809TIP3    H124062   4.520   1.173   2.029 -0.7225  0.2458 -0.0340
  809TIP3    H224063   4.527   1.027   1.989  1.5672  0.4240 -0.4145
  810TIP3   OH224064   0.216   2.529   0.597  0.4566 -0.3989 -0.1858
  810TIP3    H124065   0.283   2.562   0.658  1.6234 -0.7234 -1.2629
  810TIP3    H224066   0.196   2.604   0.541 -0.3698 -0.2014  0.3457
  811TIP3   OH224067   4.712   5.125   8.570  0.5492 -0.0425 -0.3287
  811TIP3    H124068   4.737   5.063   8.502 -0.5669  0.0449 -0.8383
  811TIP3    H224069   4.695   5.206   8.523  3.1161  1.0591  0.4472
  812TIP3   OH224070   5.212   3.080   2.421  0.3357 -0.3310  0.2781
  812TIP3    H124071   5.251   3.110   2.339 -1.7219  1.3454 -0.1730
  812TIP3    H224072   5.121   3.061   2.399 -0.1824 -0.1505  2.0953
  813TIP3   OH224073   6.224   2.084   8.156 -0.4037  0.4087 -0.6575
  813TIP3    H124074   6.134   2.078   8.187 -0.1597  0.7528  0.1385
  813TIP3    H224075   6.277   2.051   8.228  0.1295  0.5836 -0.9627
  814TIP3   OH224076   3.590   2.985   1.534  0.2842  0.3128  0.0053
  814TIP3    H124077   3.503   3.007   1.499  0.7265  0.2165 -1.1909
  814TIP3    H224078   3.647   3.054   1.501  1.0708 -0.8114 -1.0882
  815TIP3   OH224079   5.120   5.517   1.416 -0.3739  0.3208  0.5546
  815TIP3    H124080   5.040   5.540   1.464 -0.3835 -0.0309  0.7074
  815TIP3    H224081   5.168   5.459   1.474 -0.2659  0.0904  0.2421
  816TIP3   OH224082   6.737   6.399   0.398 -0.3680  0.1151  0.0564
  816TIP3    H124083   6.827   6.430   0.385 -0.3231 -0.9750 -3.2279
  816TIP3    H224084   6.747   6.307   0.425 -0.4965  0.1043  0.0666
  817TIP3   OH224085   0.188   5.799   1.831  0.3591  0.4654  0.1916
  817TIP3    H124086   0.130   5.866   1.793 -0.5304 -0.8291 -0.8421
  817TIP3    H224087   0.262   5.794   1.770 -0.0282 -0.1148 -0.2457
  818TIP3   OH224088   0.353   5.932   2.697 -0.6848 -0.2246 -0.3026
  818TIP3    H124089   0.365   6.000   2.764 -0.8832  0.0249 -0.5126
  818TIP3    H224090   0.335   5.982   2.617 -0.0137 -0.5099 -0.6307
  819TIP3   OH224091   2.495   2.402   6.837  0.3573  0.4246 -0.1053
  819TIP3    H124092   2.411   2.415   6.793  0.8846 -0.4831 -1.4439
  819TIP3    H224093   2.482   2.437   6.925 -2.8699 -3.5061  1.3043
  820TIP3   OH224094   2.755   4.089   0.624 -0.2018  0.8144 -0.1350
  820TIP3    H124095   2.733   3.998   0.647  0.3953  0.8277  0.5195
  820TIP3    H224096   2.847   4.085   0.598 -0.1929  1.2264 -0.1751
  821TIP3   OH224097   1.565   3.439   7.613 -0.2364  0.0326 -0.5192
  821TIP3    H124098   1.528   3.416   7.528 -0.4211 -0.0116 -0.4275
  821TIP3    H224099   1.656   3.463   7.594 -0.5048  0.8278 -0.8496
  822TIP3   OH224100   2.216   1.143   1.576 -0.4280  0.0531  0.1023
  822TIP3    H124101   2.296   1.093   1.560  0.2569  1.0312  0.3987
  822TIP3    H224102   2.199   1.189   1.494 -0.9383 -0.4895 -0.1013
  823TIP3   OH224103   1.502   4.047   3.267  0.4023 -0.1455 -0.3118
  823TIP3    H124104   1.423   4.032   3.318  1.1802 -1.4227  0.5959
  823TIP3    H224105   1.573   4.047   3.331  1.1270  1.3436 -1.0599
  824TIP3   OH224106   3.663   5.379   8.544 -1.0646  0.4028  0.0066
  824TIP3    H124107   3.634   5.288   8.536 -0.0419  0.2343 -2.7944
  824TIP3    H224108   3.582   5.429   8.544 -1.6058 -0.4427 -0.0014
  825TIP3   OH224109   5.238   0.957   2.261 -0.2940  0.0489 -0.0504
  825TIP3    H124110   5.227   1.019   2.333 -0.3462  0.2616 -0.2429
  825TIP3    H224111   5.179   0.988   2.193  0.5591  0.4654 -0.6047
  826TIP3   OH224112   6.056   5.973   2.616  0.0480  0.3163 -0.2549
  826TIP3    H124113   5.966   5.963   2.647 -0.3035  0.1384 -1.2913
  826TIP3    H224114   6.110   5.951   2.691 -0.7774  0.1890  0.3105
  827TIP3   OH224115   5.583   0.353   8.232 -0.2677 -0.3552  0.7349
  827TIP3    H124116   5.611   0.420   8.170 -2.0905 -0.4980 -0.2869
  827TIP3    H224117   5.665   0.315   8.264  0.7462 -0.5047 -1.8211
  828TIP3   OH224118   0.758   0.455   7.978 -0.1385 -0.1034  0.0655
  828TIP3    H124119   0.762   0.428   7.886 -0.2178  1.6525 -0.5058
  828TIP3    H224120   0.725   0.379   8.025  0.6452 -1.2955 -1.2469
  829TIP3   OH224121   5.082   5.113   3.552  0.5673  0.4382  0.1226
  829TIP3    H124122   5.103   5.148   3.466  0.3328  1.6759  0.5425
  829TIP3    H224123   5.090   5.188   3.611  0.2790 -0.2800  1.1074
  830TIP3   OH224124   2.785   5.169   1.738 -0.0409  0.3593 -0.1860
  830TIP3    H124125   2.720   5.098   1.742  0.6596 -0.2121  2.1101
  830TIP3    H224126   2.735   5.245   1.708 -0.8870 -0.9432 -2.3849
  831TIP3   OH224127   6.202   4.695   0.898  0.5086  0.0618 -0.4143
  831TIP3    H124128   6.273   4.649   0.854  0.0088 -1.1001 -0.0569
  831TIP3    H224129   6.218   4.787   0.881  1.5859 -0.2406 -1.1023
  832TIP3   OH224130   3.297   0.215   2.007  0.2083 -0.5332  0.5892
  832TIP3    H124131   3.327   0.303   1.984 -0.4353 -0.6742 -0.9036
  832TIP3    H224132   3.374   0.173   2.044  2.1967 -1.0644 -3.5540
  833TIP3   OH224133   3.831   0.186   2.465  0.1117 -0.1621 -0.1663
  833TIP3    H124134   3.903   0.183   2.527 -0.6674 -1.5232  0.7294
  833TIP3    H224135   3.829   0.099   2.426 -0.0451  0.3667 -1.3869
  834TIP3   OH224136   5.769   3.140   1.280 -0.1982 -0.1007 -0.5401
  834TIP3    H124137   5.798   3.230   1.288 -0.4272 -0.1584  1.3664
  834TIP3    H224138   5.679   3.141   1.315 -1.6401 -0.4070 -3.8866
  835TIP3   OH224139   1.887   2.837   0.972  0.7179  0.3939 -0.5851
  835TIP3    H124140   1.876   2.743   0.988  1.8727  0.2664 -0.5034
  835TIP3    H224141   1.800   2.874   0.988 -0.1911 -0.8756 -2.2261
  836TIP3   OH224142   5.460   5.748   3.401  0.2813 -0.5195  1.0511
  836TIP3    H124143   5.458   5.766   3.495  0.2663 -0.8030  1.1045
  836TIP3    H224144   5.399   5.812   3.363 -0.9635 -1.4515  1.4169
  837TIP3   OH224145   3.892   4.370   2.168  0.4981  0.7756  0.2807
  837TIP3    H124146   3.884   4.284   2.209  3.3871 -0.0485 -0.6764
  837TIP3    H224147   3.894   4.351   2.074  1.2485  1.8634  0.0606
  838TIP3   OH224148   3.112   5.504   1.289 -0.0930  0.7145  0.2978
  838TIP3    H124149   3.172   5.459   1.348 -0.5657 -1.2420 -0.6336
  838TIP3    H224150   3.167   5.563   1.238  1.2942 -1.7640 -1.2480
  839TIP3   OH224151   3.535   1.394   7.822  0.2494 -0.2378 -0.0724
  839TIP3    H124152   3.599   1.323   7.817 -0.2462 -0.6749 -0.2682
  839TIP3    H224153   3.456   1.352   7.856  0.5577  0.6360  1.8394
  840TIP3   OH224154   2.314   1.088   3.162  0.9541 -0.1958 -0.4198
  840TIP3    H124155   2.349   1.001   3.144  1.4709 -0.3556  1.2075
  840TIP3    H224156   2.381   1.130   3.217  0.3278  0.9072 -0.4744
  841TIP3   OH224157   4.725   1.692   2.624 -0.0399 -0.3904 -0.1642
  841TIP3    H124158   4.672   1.748   2.567  0.2015 -0.0544 -0.0617
  841TIP3    H224159   4.778   1.640   2.563  0.6530  0.3909 -0.2504
  842TIP3   OH224160   6.271   6.775   7.720  0.1868 -0.2846  0.3772
  842TIP3    H124161   6.212   6.752   7.648 -0.3226  1.1244  0.3166
  842TIP3    H224162   6.331   6.701   7.727  0.8877 -0.0347 -2.1745
  843TIP3   OH224163   6.766   2.159   0.199 -0.1277 -0.1856  0.3575
  843TIP3    H124164   6.727   2.194   0.119 -0.5904 -1.8848 -0.1989
  843TIP3    H224165   6.743   2.066   0.199  1.9303 -0.7570  1.2256
  844TIP3   OH224166   3.403   3.165   7.324  0.0709 -0.0635  0.1366
  844TIP3    H124167   3.425   3.190   7.413  0.3258 -0.3978  0.1683
  844TIP3    H224168   3.450   3.228   7.269  1.3654 -0.9542  0.1965
  845TIP3   OH224169   6.878   1.908   2.083  0.2312 -0.1818 -0.5907
  845TIP3    H124170   6.807   1.884   2.023  0.5346  0.9377 -1.4312
  845TIP3    H224171   6.939   1.834   2.079  0.9711  0.4568 -2.8131
  846TIP3   OH224172   6.565   1.030   1.202  0.4924  0.5701 -0.4386
  846TIP3    H124173   6.477   1.002   1.230  0.9338 -0.7546 -0.2849
  846TIP3    H224174   6.549   1.098   1.137 -0.6958 -0.1951 -0.9951
  847TIP3   OH224175   3.752   4.318   7.418 -0.2398  0.5829  0.5267
  847TIP3    H124176   3.790   4.310   7.505 -0.3465  0.1232  0.5288
  847TIP3    H224177   3.670   4.365   7.432 -0.0110  0.9652  0.6078
  848TIP3   OH224178   6.703   0.756   8.053  0.3244 -0.3313 -0.2002
  848TIP3    H124179   6.791   0.789   8.040  0.1068  0.5990  0.5853
  848TIP3    H224180   6.694   0.684   7.990  1.6673 -0.5043 -0.2093
  849TIP3   OH224181   5.582   4.327   7.705  0.6807  0.3250 -0.2577
  849TIP3    H124182   5.541   4.413   7.714  1.6733  0.7445  0.5294
  849TIP3    H224183   5.674   4.346   7.687  0.3102 -0.5713 -3.7729
  850TIP3   OH224184   5.188   5.370   0.479 -0.0922  0.0137  0.2388
  850TIP3    H124185   5.218   5.436   0.417 -0.4977  0.8462  0.9171
  850TIP3    H224186   5.140   5.306   0.425  1.7186 -0.6419 -0.6620
  851TIP3   OH224187   1.903   0.183   7.525  0.3452 -0.0505 -0.1891
  851TIP3    H124188   1.892   0.247   7.455 -1.9686  0.8424  0.8713
  851TIP3    H224189   1.994   0.156   7.520  0.9254  2.0207 -1.7960
  852TIP3   OH224190   5.325   6.255   0.135 -0.3618  0.6005 -0.8043
  852TIP3    H124191   5.253   6.275   0.195  0.9124  1.4476  0.5004
  852TIP3    H224192   5.286   6.261   0.048 -1.6563  1.9775 -0.1731
  853TIP3   OH224193   4.127   1.490   8.297  0.1829 -0.1524  0.0612
  853TIP3    H124194   4.110   1.484   8.203  1.1382  3.0247 -0.4145
  853TIP3    H224195   4.216   1.456   8.308  0.4560  0.4247 -0.3445
  854TIP3   OH224196   0.348   4.016   8.530 -0.5851  0.0145 -0.1412
  854TIP3    H124197   0.375   3.926   8.552  0.3855  0.5112  0.7992
  854TIP3    H224198   0.297   4.007   8.450 -0.8626 -1.4334  0.1738
  855TIP3   OH224199   3.731   4.773   3.244  0.2886  0.2771 -0.4124
  855TIP3    H124200   3.669   4.705   3.267 -0.8147  1.8474  1.5734
  855TIP3    H224201   3.680   4.836   3.193  0.2140  1.5311  1.1540
  856TIP3   OH224202   2.987   3.958   1.419 -0.0401  0.5286  0.4084
  856TIP3    H124203   2.954   3.872   1.446 -1.4538  0.5497 -1.1114
  856TIP3    H224204   2.910   4.015   1.421  0.2557  1.0499 -1.3383
  857TIP3   OH224205   6.368   2.565   2.745  0.0524  0.2422  0.0802
  857TIP3    H124206   6.424   2.627   2.792 -1.4545  1.3191  0.5543
  857TIP3    H224207   6.424   2.529   2.677  1.3908  1.0479  0.7022
  858TIP3   OH224208   5.905   1.893   1.632  0.0829  0.4123 -0.0799
  858TIP3    H124209   5.913   1.858   1.721 -0.0478 -0.7584 -0.5178
  858TIP3    H224210   5.811   1.908   1.622 -0.2144 -1.6041 -0.7864
  859TIP3   OH224211   5.734   5.110   2.310  0.3277  0.2646 -0.0648
  859TIP3    H124212   5.758   5.153   2.392 -3.0115  3.2211 -0.4132
  859TIP3    H224213   5.719   5.181   2.249 -0.6961 -1.6808 -2.2298
  860TIP3   OH224214   6.366   2.554   2.374 -0.1884 -0.3424 -0.4967
  860TIP3    H124215   6.402   2.640   2.397 -1.4951  0.3135 -0.7839
  860TIP3    H224216   6.427   2.491   2.413  1.8627  0.6663 -1.8874
  861TIP3   OH224217   1.259   1.202   8.485  0.0196  0.6010 -0.0785
  861TIP3    H124218   1.198   1.221   8.557  0.9902  1.4223  0.5553
  861TIP3    H224219   1.221   1.126   8.442 -0.3565 -0.2302  1.6057
  862TIP3   OH224220   2.979   5.213   1.931  0.6765 -0.4111  0.8446
  862TIP3    H124221   2.925   5.176   1.862  1.3064 -0.1933  0.2270
  862TIP3    H224222   2.920   5.271   1.980  0.4241  0.0773 -0.0232
  863TIP3   OH224223   1.440   3.269   7.838  0.5061  0.5258  0.1725
  863TIP3    H124224   1.476   3.299   7.755  1.3105 -1.0646 -0.0883
  863TIP3    H224225   1.433   3.174   7.828 -3.0478  0.6282  0.5106
  864TIP3   OH224226   5.176   2.158   1.790  0.1777  0.6721  0.3928
  864TIP3    H124227   5.170   2.245   1.831 -0.3623  0.0829  1.6226
  864TIP3    H224228   5.250   2.116   1.833  0.9422  0.7852 -0.7650
  865TIP3   OH224229   3.148   3.907   7.524 -0.0672 -0.4165  0.1952
  865TIP3    H124230   3.202   3.839   7.564  0.8949  0.3256  0.1997
  865TIP3    H224231   3.058   3.881   7.543  0.2825 -1.5703  0.3749
  866TIP3   OH224232   3.379   1.117   2.756 -0.2299 -0.2285 -0.1767
  866TIP3    H124233   3.315   1.176   2.716 -1.2880 -2.0150 -1.3205
  866TIP3    H224234   3.326   1.056   2.808  1.0346  1.4036  3.3359
  867TIP3   OH224235   2.519   4.096   1.483 -0.2904 -0.4095  0.2714
  867TIP3    H124236   2.446   4.099   1.420  0.8795  0.8161 -1.1141
  867TIP3    H224237   2.557   4.010   1.471 -0.7367 -0.5871  0.0898
  868TIP3   OH224238   6.237   5.827   0.773 -0.2653  0.5625  0.2494
  868TIP3    H124239   6.184   5.899   0.807  1.1477  1.0215  1.5852
  868TIP3    H224240   6.300   5.808   0.843  0.5677 -0.7604 -0.8022
  869TIP3   OH224241   0.036   2.413   8.098  0.0786 -0.4836  0.3860
  869TIP3    H124242  -0.049   2.379   8.067 -0.0397  0.4436 -0.3531
  869TIP3    H224243   0.073   2.456   8.021 -0.2908  2.0420  1.5408
  870TIP3   OH224244   3.257   5.599   1.069 -0.3726  0.1530 -0.1596
  870TIP3    H124245   3.221   5.523   1.023 -2.5031  1.3949 -0.6813
  870TIP3    H224246   3.344   5.572   1.096 -0.1551 -1.6571 -2.3960
  871TIP3   OH224247   0.785   1.581   2.176 -0.1371 -0.1451 -0.0033
  871TIP3    H124248   0.741   1.557   2.094 -1.1971  2.2731 -0.2332
  871TIP3    H224249   0.766   1.674   2.186  3.2919  0.5751  0.9534
  872TIP3   OH224250   3.516   0.776   0.611 -0.2537  0.2169 -0.3711
  872TIP3    H124251   3.441   0.834   0.597 -1.7852 -1.6930 -0.4751
  872TIP3    H224252   3.577   0.829   0.663 -1.9344  1.6290  0.2860
  873TIP3   OH224253   6.841   1.928   3.534 -0.3228  0.0671 -0.4086
  873TIP3    H124254   6.770   1.986   3.560  0.6296  0.4892  1.4152
  873TIP3    H224255   6.863   1.956   3.445 -0.3339  2.0658  0.1700
  874TIP3   OH224256   4.897   4.566   8.619  0.0435 -0.3291 -0.1088
  874TIP3    H124257   4.840   4.582   8.694  1.1406  0.6705  0.5476
  874TIP3    H224258   4.933   4.479   8.634  0.5853  0.0406  0.7496
  875TIP3   OH224259   6.350   4.049   0.012  0.4166 -0.3577  0.3572
  875TIP3    H124260   6.417   4.030   0.079  0.4461 -0.0284  0.4208
  875TIP3    H224261   6.335   4.143   0.018 -0.1536 -0.4485  0.4339
  876TIP3   OH224262   5.647   2.862   0.936 -0.4452 -0.2431 -0.7346
  876TIP3    H124263   5.701   2.817   1.001 -0.3595 -0.2907 -0.8387
  876TIP3    H224264   5.672   2.954   0.944 -2.4970  0.1999  1.3188
  877TIP3   OH224265   4.622   2.654   0.504 -0.2089 -0.1596 -0.1543
  877TIP3    H124266   4.552   2.651   0.569 -0.8549  1.3560 -0.7180
  877TIP3    H224267   4.694   2.700   0.548 -0.4845  0.4676 -0.3407
  878TIP3   OH224268   4.429   0.772   0.015  0.4855  0.3143  0.4580
  878TIP3    H124269   4.433   0.729  -0.071  1.2294  2.3014 -0.5791
  878TIP3    H224270   4.517   0.806   0.028  0.2671  0.3851  1.8421
  879TIP3   OH224271   3.165   5.731   1.634 -0.6214  0.1147 -0.0315
  879TIP3    H124272   3.112   5.758   1.709  0.8705 -1.3859  1.6607
  879TIP3    H224273   3.226   5.666   1.670 -0.5382 -1.4594 -2.7712
  880TIP3   OH224274   4.671   3.630   8.188 -0.3696 -0.4353  0.4675
  880TIP3    H124275   4.758   3.591   8.195 -1.0707 -2.1103  0.4036
  880TIP3    H224276   4.631   3.585   8.114 -1.3013  0.3240  0.4908
  881TIP3   OH224277   1.368   3.724   1.382  0.2740  0.4557  0.2896
  881TIP3    H124278   1.433   3.743   1.450 -0.5566  1.1188  0.9206
  881TIP3    H224279   1.338   3.635   1.401 -0.0255  0.6750  0.8601
  882TIP3   OH224280   5.613   0.198   3.275 -0.1204 -0.3647 -0.3146
  882TIP3    H124281   5.681   0.159   3.331  0.3658 -0.9764 -1.2946
  882TIP3    H224282   5.555   0.244   3.335 -1.5687 -3.7828  1.1586
  883TIP3   OH224283   0.436   1.337   1.502 -0.0729  0.2073  0.1657
  883TIP3    H124284   0.531   1.338   1.490 -0.0860 -1.0313 -0.1206
  883TIP3    H224285   0.401   1.364   1.416 -0.0063 -1.2270 -0.3310
  884TIP3   OH224286   6.634   1.527   2.917 -0.6203  0.2432 -0.6380
  884TIP3    H124287   6.597   1.466   2.852 -1.0091  1.3318 -1.4750
  884TIP3    H224288   6.722   1.545   2.884 -1.1276  1.4772 -1.3695
  885TIP3   OH224289   6.862   0.940   1.626  0.0473 -0.5192  0.1252
  885TIP3    H124290   6.834   0.860   1.582 -2.9102 -0.0308  0.9096
  885TIP3    H224291   6.851   1.008   1.560 -0.0322 -0.3923  0.2695
  886TIP3   OH224292   2.734   2.543   3.012 -0.1286  0.4516  0.5491
  886TIP3    H124293   2.739   2.639   3.017 -1.1519  0.4758  1.1808
  886TIP3    H224294   2.747   2.513   3.102 -0.0260  0.0036  0.3881
  887TIP3   OH224295   1.998   3.784   7.661 -0.4666 -0.4955 -0.0608
  887TIP3    H124296   1.967   3.842   7.731 -1.8894 -1.0219 -0.2174
  887TIP3    H224297   2.093   3.786   7.669 -0.5500  0.5078  1.0270
  888TIP3   OH224298   3.935   1.806   8.631  0.1399 -1.0778 -0.1518
  888TIP3    H124299   3.850   1.826   8.669  0.4681 -0.4346  0.2594
  888TIP3    H224300   3.917   1.739   8.565 -0.8385 -0.1440 -0.8578
  889TIP3   OH224301   2.138   5.652   0.978  0.0539 -0.4329 -0.3713
  889TIP3    H124302   2.129   5.704   1.059 -2.7491 -0.2962 -0.6491
  889TIP3    H224303   2.211   5.692   0.932 -0.6358  1.9425  0.4170
  890TIP3   OH224304   3.588   4.186   8.190  0.0981  0.1286 -0.0322
  890TIP3    H124305   3.671   4.138   8.192  0.6716  1.0219 -1.0836
  890TIP3    H224306   3.594   4.245   8.265  0.1079 -0.2863  0.2976
  891TIP3   OH224307   5.168   6.074   0.799 -0.0606  0.1684 -0.1370
  891TIP3    H124308   5.193   6.166   0.795 -1.4635  0.5509 -0.5905
  891TIP3    H224309   5.249   6.026   0.781  0.7843  1.2932  0.5564
  892TIP3   OH224310   1.360   0.831   1.987  0.1539 -0.5807 -0.3609
  892TIP3    H124311   1.271   0.865   1.981  0.7083  0.9813 -0.4037
  892TIP3    H224312   1.350   0.742   2.019 -1.4726 -0.8362 -1.4916
  893TIP3   OH224313   3.047   4.140   2.501 -0.0936 -0.2140 -0.2721
  893TIP3    H124314   3.041   4.123   2.595  0.1051 -1.4332 -0.4640
  893TIP3    H224315   3.135   4.176   2.489 -0.5604  1.1381  0.1574
  894TIP3   OH224316   6.168   3.062   0.168  0.3712 -0.2354 -0.9976
  894TIP3    H124317   6.141   3.152   0.150  1.1193 -0.1090 -1.5616
  894TIP3    H224318   6.195   3.062   0.260  0.6764  0.1992 -1.0843
  895TIP3   OH224319   5.034   0.913   1.006  0.1258 -0.0790  0.1256
  895TIP3    H124320   4.939   0.901   1.010  0.1251 -0.0912  0.0772
  895TIP3    H224321   5.060   0.934   1.096  0.1632 -0.6891  0.2632
  896TIP3   OH224322   5.046   6.147   0.528  0.6598  0.0538 -0.1791
  896TIP3    H124323   5.023   6.118   0.616 -1.4827  0.6922 -0.4683
  896TIP3    H224324   5.062   6.067   0.479  1.2571 -0.3290  0.6134
  897TIP3   OH224325   2.169   4.870   2.375  0.0868  0.0987 -0.5583
  897TIP3    H124326   2.155   4.945   2.432  0.0313  0.2946 -0.8257
  897TIP3    H224327   2.139   4.900   2.288 -2.7947 -1.1776 -0.1361
  898TIP3   OH224328   4.006   6.133   0.613 -0.3865 -0.4033 -0.2369
  898TIP3    H124329   4.102   6.128   0.618 -0.2189 -1.1695 -2.8266
  898TIP3    H224330   3.977   6.042   0.605 -1.1999 -0.0970 -0.9204
  899TIP3   OH224331   1.108   3.111   8.598  0.0890  0.3625  0.3043
  899TIP3    H124332   1.023   3.115   8.642  0.2497  0.3571  0.6190
  899TIP3    H224333   1.143   3.024   8.619  0.0263  0.2361 -0.1023
  900TIP3   OH224334   3.391   2.638   1.010  0.1042  0.3312 -0.1149
  900TIP3    H124335   3.464   2.576   1.011 -1.0491 -1.1548 -1.8352
  900TIP3    H224336   3.323   2.595   1.061  0.4870  1.8778  1.8017
  901TIP3   OH224337   1.184   0.516   1.800 -0.3367  0.1085  0.3952
  901TIP3    H124338   1.164   0.605   1.770  1.0157  0.2694 -0.0907
  901TIP3    H224339   1.155   0.515   1.891 -0.7723  0.8953  0.2822
  902TIP3   OH224340   6.403   6.876   3.697 -0.3129  0.4962 -0.5407
  902TIP3    H124341   6.312   6.846   3.708 -0.5556  0.8995 -1.3853
  902TIP3    H224342   6.395   6.971   3.686  0.2712  0.6140 -0.0167
  903TIP3   OH224343   4.789   0.714   1.935 -0.1045  0.4504 -0.4102
  903TIP3    H124344   4.845   0.791   1.928  0.6798 -0.0913 -0.2177
  903TIP3    H224345   4.712   0.745   1.983  0.6254  0.8934  0.4962
  904TIP3   OH224346   6.591   5.714   8.537 -0.8846 -0.3433  0.2589
  904TIP3    H124347   6.612   5.632   8.493  0.0603 -0.0373  0.1079
  904TIP3    H224348   6.661   5.774   8.511  0.1365 -0.3366  2.6707
  905TIP3   OH224349   1.952   1.711   8.204  0.2507  0.4254 -0.6618
  905TIP3    H124350   2.000   1.692   8.124  0.1078 -0.1451 -0.6164
  905TIP3    H224351   1.957   1.806   8.213 -0.3000  0.5592 -1.7026
  906TIP3   OH224352   5.056   3.798   1.380  0.2329  0.1511 -0.3249
  906TIP3    H124353   5.047   3.752   1.464  0.4305  0.9163  0.1255
  906TIP3    H224354   4.968   3.828   1.359  0.2299  0.1911 -0.2551
  907TIP3   OH224355   0.970   4.173   1.397 -0.1990 -0.5990 -0.1469
  907TIP3    H124356   1.053   4.202   1.359  0.5636 -2.5627 -0.1152
  907TIP3    H224357   0.970   4.209   1.486  0.8517 -0.9365  0.0067
  908TIP3   OH224358   0.834   4.556   7.652  0.2095  0.6060 -0.3818
  908TIP3    H124359   0.856   4.493   7.583  0.1510 -0.3228  0.4334
  908TIP3    H224360   0.896   4.537   7.722 -0.2024  1.0638  0.1075
  909TIP3   OH224361   5.482   2.785   2.776  0.8239  0.0776  0.2295
  909TIP3    H124362   5.427   2.801   2.699  0.9773  1.4961  0.3901
  909TIP3    H224363   5.451   2.701   2.811 -1.5713  1.0277  0.5678
  910TIP3   OH224364   4.498   0.513   0.977 -0.0237  0.5628  0.2024
  910TIP3    H124365   4.502   0.599   0.936 -0.7922  0.3887 -0.2528
  910TIP3    H224366   4.484   0.453   0.904  0.5076  0.0516  0.5173
  911TIP3   OH224367   2.600   2.688   1.919 -0.1665 -0.0373 -0.5037
  911TIP3    H124368   2.612   2.610   1.864 -0.2303 -0.1423 -0.3710
  911TIP3    H224369   2.650   2.669   1.999  0.8184  0.5710 -0.9638
  912TIP3   OH224370   0.087   2.832   1.783 -0.7176  0.0333  0.5008
  912TIP3    H124371   0.044   2.886   1.850 -0.6182 -1.7885  2.1327
  912TIP3    H224372   0.175   2.868   1.776 -1.4051  1.6765 -0.3940
  913TIP3   OH224373   2.365   5.581   1.990 -0.0308 -0.3638  0.9589
  913TIP3    H124374   2.439   5.521   1.997 -0.0601 -0.3540  1.4060
  913TIP3    H224375   2.404   5.668   1.983 -0.0014 -0.3072  1.7511
  914TIP3   OH224376   5.406   1.204   1.038 -0.3631  0.2327 -0.6123
  914TIP3    H124377   5.493   1.168   1.020  0.0344  1.6288 -1.5963
  914TIP3    H224378   5.418   1.257   1.117 -0.2228  0.7764 -0.9992
  915TIP3   OH224379   1.721   4.111   3.428 -0.5842  0.2109 -0.0296
  915TIP3    H124380   1.796   4.087   3.483 -1.1496 -1.3563  0.0951
  915TIP3    H224381   1.727   4.207   3.422  0.4068  0.2900  1.4365
  916TIP3   OH224382   6.085   0.340   2.025 -0.2343  0.4648 -0.0627
  916TIP3    H124383   6.059   0.285   1.952 -0.4733  0.7247 -0.1712
  916TIP3    H224384   6.176   0.314   2.043  0.0642  0.8842 -0.8951
  917TIP3   OH224385   1.084   0.545   3.193  0.0218  0.3525 -0.5873
  917TIP3    H124386   1.170   0.582   3.210  1.0442 -0.6527 -3.0519
  917TIP3    H224387   1.076   0.472   3.254 -0.4952  2.2673  1.8073
  918TIP3   OH224388   4.921   3.266   0.629 -0.3111 -0.1541  0.1756
  918TIP3    H124389   4.840   3.311   0.607  0.1958 -0.2139 -2.0788
  918TIP3    H224390   4.990   3.326   0.603  0.3671 -0.7820  0.4894
  919TIP3   OH224391   1.694   2.448   1.506 -0.1664  0.4671 -0.8325
  919TIP3    H124392   1.743   2.509   1.451 -2.6961  2.0611 -1.4678
  919TIP3    H224393   1.722   2.468   1.595  0.4208  1.2261 -1.1761
  920TIP3   OH224394   5.453   3.035   0.410  0.2949 -0.3535 -0.5652
  920TIP3    H124395   5.478   3.115   0.363  0.6475 -1.0680 -1.6386
  920TIP3    H224396   5.469   2.965   0.346 -2.0575 -1.0937 -0.3973
  921TIP3   OH224397   2.990   1.362   1.068 -0.1106  0.1635  0.3498
  921TIP3    H124398   3.003   1.422   1.142  0.0651  1.4009 -0.6414
  921TIP3    H224399   3.043   1.399   0.998  0.6620 -1.6448 -0.0716
  922TIP3   OH224400   1.525   0.141   1.489 -0.2723  0.2428  0.1685
  922TIP3    H124401   1.505   0.058   1.446 -1.7000  1.1370 -0.9932
  922TIP3    H224402   1.615   0.161   1.461 -0.2141 -0.5136 -0.2121
  923TIP3   OH224403   4.807   0.492   3.236  0.2458  0.1171 -0.4396
  923TIP3    H124404   4.829   0.458   3.323  1.9256 -0.9678 -1.2387
  923TIP3    H224405   4.764   0.419   3.192 -0.0753  0.4734 -0.7223
  924TIP3   OH224406   0.441   5.380   1.288  0.3687 -0.1126  0.0576
  924TIP3    H124407   0.463   5.293   1.254  0.5390 -1.8732  4.1605
  924TIP3    H224408   0.525   5.424   1.300  0.3181  0.4389 -1.3409
  925TIP3   OH224409   4.431   2.321   2.802  0.4716 -0.2919  0.1144
  925TIP3    H124410   4.350   2.281   2.834  0.2743 -1.1726 -1.3980
  925TIP3    H224411   4.500   2.260   2.829  0.7309  0.6253  1.7040
  926TIP3   OH224412   5.088   4.586   2.933  0.0231  1.0077  0.3045
  926TIP3    H124413   5.102   4.680   2.943 -1.3198  1.2161  0.4720
  926TIP3    H224414   4.999   4.571   2.967 -0.6419  0.0227 -1.7142
  927TIP3   OH224415   6.868   4.046   8.250 -0.2560 -0.9283 -0.5615
  927TIP3    H124416   6.774   4.045   8.229 -0.8372 -0.4700  1.7171
  927TIP3    H224417   6.892   4.139   8.248 -0.0703 -0.9687 -0.3023
  928TIP3   OH224418   4.073   2.001   1.199  0.1071 -0.5891 -0.1629
  928TIP3    H124419   4.044   2.032   1.113 -0.3955 -0.2481  0.1291
  928TIP3    H224420   3.993   1.989   1.249  0.4239 -0.2603  0.4412
  929TIP3   OH224421   3.409   2.327   0.758  0.2884 -0.3022 -0.5743
  929TIP3    H124422   3.347   2.399   0.769  0.5946 -0.3763  2.4658
  929TIP3    H224423   3.486   2.367   0.718  0.7405  1.3386  1.7327
  930TIP3   OH224424   2.856   5.800   0.835 -0.0659 -0.0542  0.1711
  930TIP3    H124425   2.903   5.717   0.826  1.5514  0.6773  1.3703
  930TIP3    H224426   2.840   5.808   0.929  0.9082  1.5344  0.2401
  931TIP3   OH224427   1.237   1.372   2.095  0.3561 -0.0215  0.1486
  931TIP3    H124428   1.271   1.359   2.183  2.4379 -1.8930 -0.8350
  931TIP3    H224429   1.294   1.438   2.056  1.4273 -1.4238 -0.7391
  932TIP3   OH224430   3.023   3.647   8.547 -0.3209 -0.1249  0.1241
  932TIP3    H124431   2.985   3.715   8.491 -0.2237 -0.7608 -0.7288
  932TIP3    H224432   3.078   3.695   8.610 -0.5536  0.6083 -0.2279
  933TIP3   OH224433   6.713   3.952   1.589 -0.1611  0.3830 -0.3582
  933TIP3    H124434   6.789   3.916   1.543 -0.6475  0.7420 -1.4781
  933TIP3    H224435   6.698   4.038   1.548 -1.2099  0.2861 -0.2096
  934TIP3   OH224436   1.649   5.789   3.225  0.1840  0.3664 -0.0633
  934TIP3    H124437   1.723   5.816   3.171  1.1797 -0.8708  0.6237
  934TIP3    H224438   1.669   5.824   3.312 -0.2956  0.4393  0.0238
  935TIP3   OH224439   5.840   4.467   7.750 -0.2992  0.1914 -0.7310
  935TIP3    H124440   5.908   4.466   7.818 -1.1102 -2.4449  0.1620
  935TIP3    H224441   5.880   4.515   7.678  1.6254  0.7459  0.6033
  936TIP3   OH224442   4.204   3.514   2.020  0.4355  0.8962 -0.1852
  936TIP3    H124443   4.263   3.571   1.970  2.3321 -0.6151  0.1986
  936TIP3    H224444   4.257   3.483   2.093 -1.1218  0.1152  0.6708
  937TIP3   OH224445   6.628   0.264   1.114 -0.0708  0.5000 -0.1539
  937TIP3    H124446   6.574   0.197   1.156 -0.1607  1.3763  1.2028
  937TIP3    H224447   6.570   0.307   1.051  0.0695 -0.8586 -1.2442
  938TIP3   OH224448   0.817   6.202   1.822 -0.4018 -0.5786  0.0145
  938TIP3    H124449   0.785   6.216   1.911 -1.2240  1.0818 -0.5005
  938TIP3    H224450   0.738   6.188   1.770 -0.1749  1.3396 -0.9076
  939TIP3   OH224451   1.039   0.258   1.420 -0.1342 -0.2987  0.4344
  939TIP3    H124452   1.007   0.179   1.464 -1.7130 -0.2513 -0.5418
  939TIP3    H224453   1.036   0.325   1.487 -0.2922 -0.7322  0.8691
  940TIP3   OH224454   4.669   6.271   2.641 -0.7890 -0.0358  0.0954
  940TIP3    H124455   4.723   6.308   2.571 -0.0596 -0.2767  0.5140
  940TIP3    H224456   4.662   6.341   2.706 -1.3534  0.1434 -0.1554
  941TIP3   OH224457   2.681   0.241   7.625 -0.2135 -1.5627  0.1599
  941TIP3    H124458   2.592   0.239   7.587 -0.6284  1.8540  0.6132
  941TIP3    H224459   2.737   0.268   7.552 -0.0538 -0.8133  0.5515
  942TIP3   OH224460   1.546   2.315   7.213 -0.4235  0.1975 -0.3863
  942TIP3    H124461   1.600   2.305   7.292 -1.9200  4.3997  1.4689
  942TIP3    H224462   1.476   2.251   7.223 -1.0561  1.1802  2.2633
  943TIP3   OH224463   2.316   0.470   8.211 -0.1097  0.0442 -0.7736
  943TIP3    H124464   2.307   0.530   8.136  2.6907  1.2050 -0.3364
  943TIP3    H224465   2.395   0.501   8.256  0.2313 -2.6961  0.7263
  944TIP3   OH224466   4.230   4.487   3.138 -0.0957 -0.9594  0.3928
  944TIP3    H124467   4.255   4.561   3.083 -2.2743 -1.2328 -1.0981
  944TIP3    H224468   4.184   4.526   3.212  3.3347 -0.5437  2.5497
  945TIP3   OH224469   5.949   2.859   8.487  0.2303  0.0975 -0.2856
  945TIP3    H124470   5.889   2.813   8.428  0.4749 -0.2812 -0.2426
  945TIP3    H224471   5.930   2.823   8.574 -0.5376  1.0766 -0.0379
  946TIP3   OH224472   2.507   1.995   8.369  0.1780 -0.0972  0.2468
  946TIP3    H124473   2.501   2.026   8.279 -0.5700  0.4996  0.4873
  946TIP3    H224474   2.540   2.071   8.418  1.0684 -0.5707  0.4023
  947TIP3   OH224475   3.777   1.110   2.024  0.2297  0.6684  0.4196
  947TIP3    H124476   3.725   1.040   2.064  0.6374  0.8472  1.3063
  947TIP3    H224477   3.735   1.191   2.055  1.2811  0.8223  1.5501
  948TIP3   OH224478   1.518   6.136   8.375  0.1932 -0.1833  0.4312
  948TIP3    H124479   1.470   6.075   8.431 -0.1503 -1.3045 -1.0178
  948TIP3    H224480   1.581   6.082   8.329 -0.4965  0.4184 -1.3212
  949TIP3   OH224481   3.836   2.236   8.516 -0.6497 -0.2424  0.5549
  949TIP3    H124482   3.901   2.289   8.563  0.8691 -2.3111  0.9479
  949TIP3    H224483   3.816   2.164   8.575  0.0846 -2.0476 -1.2608
  950TIP3   OH224484   2.466   0.064   0.714 -0.3459  0.0064 -0.5986
  950TIP3    H124485   2.431   0.008   0.645  0.1467  0.7268 -1.4547
  950TIP3    H224486   2.406   0.139   0.717  0.8031  1.0363 -1.7758
  951TIP3   OH224487   1.756   2.541   2.056 -0.6144 -0.5006 -0.0970
  951TIP3    H124488   1.780   2.587   2.136 -0.8553  0.0728 -0.3520
  951TIP3    H224489   1.664   2.518   2.067 -0.7298 -0.1508 -0.3417
  952TIP3   OH224490   4.414   1.520   0.431 -0.2243 -0.5255 -0.6728
  952TIP3    H124491   4.485   1.584   0.434  0.2476 -1.0873  0.6458
  952TIP3    H224492   4.440   1.458   0.363  1.2478 -1.4842  0.6996
  953TIP3   OH224493   0.297   5.728   2.336 -0.0581  0.3274 -0.2316
  953TIP3    H124494   0.301   5.739   2.241 -1.9679 -1.6710 -0.6056
  953TIP3    H224495   0.208   5.752   2.360 -0.9525 -3.0264  0.3688
  954TIP3   OH224496   6.011   6.548   8.219 -0.2292 -0.0640 -0.0950
  954TIP3    H124497   6.049   6.493   8.151 -0.4418 -1.3450  0.7726
  954TIP3    H224498   5.922   6.566   8.189  0.1509  0.6078 -0.8307
  955TIP3   OH224499   0.269   5.534   8.081 -0.2508  0.0509  0.2482
  955TIP3    H124500   0.300   5.444   8.086  1.4515  0.5849 -0.1533
  955TIP3    H224501   0.204   5.534   8.010 -0.3271 -0.8675  0.3150
  956TIP3   OH224502   2.240   3.292   1.812  0.2435  0.4287 -0.3799
  956TIP3    H124503   2.325   3.289   1.769 -0.6696  0.4000 -2.2743
  956TIP3    H224504   2.199   3.208   1.789 -0.8852  1.0795 -0.8038
  957TIP3   OH224505   3.951   3.539   7.726  0.3467 -0.7076  0.0609
  957TIP3    H124506   4.020   3.502   7.780 -0.1917 -1.8182  0.0241
  957TIP3    H224507   3.914   3.464   7.680  1.0600  0.2391 -2.2002
  958TIP3   OH224508   3.739   4.832   8.024  0.4953  0.3547 -0.6618
  958TIP3    H124509   3.662   4.888   8.018  0.5103  0.4940  0.3019
  958TIP3    H224510   3.781   4.857   8.106 -0.2052 -1.9558  0.4907
  959TIP3   OH224511   0.263   6.061   1.724 -0.1839  0.6413 -0.0873
  959TIP3    H124512   0.343   6.027   1.764 -1.0860 -0.9726  0.4489
  959TIP3    H224513   0.234   6.131   1.783  0.3094  0.5794  0.2316
  960TIP3   OH224514   2.272   2.502   2.075 -0.9358 -0.4022  0.0723
  960TIP3    H124515   2.260   2.410   2.099 -1.9502  0.0810  1.5289
  960TIP3    H224516   2.186   2.529   2.042 -0.6835  0.0638 -0.2052
  961TIP3   OH224517   3.425   4.175   7.851 -0.2797  0.1874  0.4436
  961TIP3    H124518   3.408   4.105   7.788  1.3301  0.4716 -0.3566
  961TIP3    H224519   3.363   4.244   7.827  0.2854  0.2771 -0.8559
  962TIP3   OH224520   5.916   1.750   1.873 -0.1533 -0.3817 -0.8183
  962TIP3    H124521   5.822   1.758   1.854 -0.0915 -0.4067 -1.1358
  962TIP3    H224522   5.920   1.695   1.951 -0.4351  0.1493 -0.4209
  963TIP3   OH224523   0.513   0.653   2.783 -0.2863  0.3077 -0.0115
  963TIP3    H124524   0.424   0.668   2.814 -0.2530 -2.1868  1.6745
  963TIP3    H224525   0.569   0.677   2.857  0.4044  1.0668 -0.7529
  964TIP3   OH224526   5.597   2.244   2.367  0.7894  0.0652 -0.2680
  964TIP3    H124527   5.559   2.331   2.357  1.6578  0.3070 -1.9189
  964TIP3    H224528   5.681   2.260   2.410  0.8442  0.0095 -0.3548
  965TIP3   OH224529   0.218   1.422   1.208  0.4829  0.2429  0.0176
  965TIP3    H124530   0.310   1.425   1.180  0.4682  1.7042  0.0096
  965TIP3    H224531   0.168   1.434   1.128  0.2842 -0.3065  0.0558
  966TIP3   OH224532   2.619   2.378   7.777 -0.1603 -0.2481  0.0611
  966TIP3    H124533   2.586   2.292   7.750 -0.8266  0.5584 -1.8622
  966TIP3    H224534   2.551   2.440   7.750 -0.2175  0.8232  2.4538
  967TIP3   OH224535   3.245   5.802   7.696  0.1750 -0.4126  0.5405
  967TIP3    H124536   3.160   5.838   7.670 -0.3755  0.5197  3.3598
  967TIP3    H224537   3.273   5.752   7.619 -1.4114  1.8269 -1.6535
  968TIP3   OH224538   4.828   5.164   8.243 -0.3055  0.2196 -0.5598
  968TIP3    H124539   4.878   5.203   8.314 -0.3815 -2.7280  1.2273
  968TIP3    H224540   4.893   5.123   8.187 -0.3258  1.7413 -1.7744
  969TIP3   OH224541   4.768   0.348   0.794 -0.1191 -0.3588 -0.0915
  969TIP3    H124542   4.732   0.296   0.865 -0.7695  0.2184  0.0139
  969TIP3    H224543   4.826   0.411   0.838 -1.6319  0.9622  0.1208
  970TIP3   OH224544   4.056   4.587   1.315  0.1814  0.4654  0.0423
  970TIP3    H124545   4.102   4.524   1.370 -0.1072  0.7947  0.6597
  970TIP3    H224546   4.104   4.585   1.232  0.2318 -0.4999  0.0808
  971TIP3   OH224547   6.240   3.214   7.438  0.1692 -0.3240  0.1748
  971TIP3    H124548   6.283   3.269   7.503  0.0759 -0.8888  0.7193
  971TIP3    H224549   6.148   3.213   7.465  0.2415 -1.0702  0.3902
  972TIP3   OH224550   1.637   1.669   8.522  0.2126 -0.1760 -0.2246
  972TIP3    H124551   1.610   1.580   8.542  1.6059 -0.4672  0.5159
  972TIP3    H224552   1.732   1.662   8.507  0.7037  1.4666  1.7864
  973TIP3   OH224553   1.690   6.143   7.873  0.0418  0.4286  0.1581
  973TIP3    H124554   1.619   6.174   7.817  0.1792  0.4360 -0.0174
  973TIP3    H224555   1.679   6.191   7.955  0.2914  1.0016 -0.1308
  974TIP3   OH224556   5.664   1.515   1.067 -0.2322  0.1966 -0.1279
  974TIP3    H124557   5.576   1.507   1.105 -0.6894 -3.1967 -1.4826
  974TIP3    H224558   5.719   1.464   1.126  0.0022 -0.9467 -1.2908
  975TIP3   OH224559   6.595   3.778   2.643 -0.2935 -0.6744  0.1193
  975TIP3    H124560   6.624   3.859   2.600 -1.7807 -0.5132 -0.6401
  975TIP3    H224561   6.598   3.797   2.736 -1.2779  0.5115 -0.0692
  976TIP3   OH224562   4.465   3.139   2.101  0.5801  0.2742 -0.1839
  976TIP3    H124563   4.486   3.182   2.018  0.5059 -1.4284 -1.1247
  976TIP3    H224564   4.467   3.045   2.081  1.0531 -0.1931  1.8705
  977TIP3   OH224565   0.477   6.235   1.109 -0.4240  0.7535 -0.0596
  977TIP3    H124566   0.412   6.255   1.177 -0.7100  1.7923 -0.6129
  977TIP3    H224567   0.461   6.143   1.087 -0.0416  0.2572  1.5604
  978TIP3   OH224568   0.543   6.621   2.588 -0.2240 -0.1031  0.0481
  978TIP3    H124569   0.538   6.710   2.553 -0.7595 -1.2238 -3.0921
  978TIP3    H224570   0.579   6.569   2.515 -2.2746 -2.8565  0.8477
  979TIP3   OH224571   0.659   3.559   1.575  0.3550  0.5394 -0.0207
  979TIP3    H124572   0.634   3.522   1.660  2.4776  0.9740  0.8334
  979TIP3    H224573   0.614   3.502   1.511 -0.4630 -0.4178  1.3440
  980TIP3   OH224574   4.124   2.507   0.689 -0.2816  0.3542 -0.3402
  980TIP3    H124575   4.115   2.488   0.595  0.0869  0.0907 -0.3262
  980TIP3    H224576   4.215   2.536   0.698  0.0550 -0.7840  0.1235
  981TIP3   OH224577   5.355   4.300   7.177 -0.1549  0.3810 -0.2979
  981TIP3    H124578   5.310   4.385   7.171 -1.1361 -0.0712  0.3902
  981TIP3    H224579   5.412   4.298   7.100 -0.6986  1.3302 -0.7515
  982TIP3   OH224580   5.327   5.529   7.733 -0.2970 -0.2357  0.0348
  982TIP3    H124581   5.355   5.619   7.751 -0.9168 -0.4682  2.5539
  982TIP3    H224582   5.297   5.531   7.643  0.3459  1.9256 -0.1840
  983TIP3   OH224583   6.525   4.205   0.221  0.3767 -1.0869  0.1934
  983TIP3    H124584   6.480   4.122   0.236  0.2079 -0.8102  1.2753
  983TIP3    H224585   6.616   4.187   0.243  0.1992 -0.7869  1.2216
  984TIP3   OH224586   3.251   5.368   1.877 -0.0181  0.0628  0.0460
  984TIP3    H124587   3.306   5.372   1.956  1.1698 -2.1797 -0.5696
  984TIP3    H224588   3.167   5.334   1.909  0.8871 -2.1830  0.2494
  985TIP3   OH224589   3.218   5.350   7.414  0.3934 -0.4665 -0.4728
  985TIP3    H124590   3.229   5.288   7.342 -0.4467 -3.0733  1.5082
  985TIP3    H224591   3.124   5.363   7.421  0.4298 -0.6328  0.4552
  986TIP3   OH224592   0.949   1.957   0.052 -0.2776 -0.8704 -0.1170
  986TIP3    H124593   0.949   1.993   0.141 -0.0491 -0.1617 -0.3972
  986TIP3    H224594   0.992   1.872   0.061  1.5931  0.0438  0.1308
  987TIP3   OH224595   4.659   3.311   2.565 -0.0880 -0.1828  0.0858
  987TIP3    H124596   4.735   3.275   2.610 -0.9113  0.5362  2.1782
  987TIP3    H224597   4.593   3.242   2.570  0.2543 -0.6594 -1.3897
  988TIP3   OH224598   3.016   5.869   7.587  0.0898 -0.2172 -0.3093
  988TIP3    H124599   2.934   5.912   7.563 -0.5652 -0.8832  0.6645
  988TIP3    H224600   3.068   5.870   7.506 -0.1773  1.7172 -0.5028
  989TIP3   OH224601   2.515   5.198   3.277  0.2434 -1.2002 -0.2870
  989TIP3    H124602   2.583   5.153   3.227 -0.4948 -2.4662 -0.2037
  989TIP3    H224603   2.522   5.161   3.365  1.3752  0.8261  0.5586
  990TIP3   OH224604   0.739   4.855   2.275 -0.1382  0.3168  0.5639
  990TIP3    H124605   0.766   4.836   2.365 -1.2075 -0.8276  0.6795
  990TIP3    H224606   0.643   4.845   2.277 -0.3567  1.8778 -0.3419
  991TIP3   OH224607   2.856   3.601   0.344  0.2976  0.1398 -0.2566
  991TIP3    H124608   2.896   3.531   0.294  0.5699  0.1847 -0.1028
  991TIP3    H224609   2.929   3.652   0.378  0.1035  1.6721 -1.9692
  992TIP3   OH224610   4.065   6.102   1.840  0.3417  0.6461 -0.4643
  992TIP3    H124611   4.117   6.173   1.800 -0.3903  2.5567  1.7663
  992TIP3    H224612   3.995   6.147   1.886  0.0384 -1.5218  1.3744
  993TIP3   OH224613   2.831   1.271   2.578 -0.5441  0.0120  0.1052
  993TIP3    H124614   2.885   1.348   2.560 -1.1873  1.1471  2.6503
  993TIP3    H224615   2.742   1.305   2.584 -0.7576 -0.7623  1.9444
  994TIP3   OH224616   3.173   3.225   2.968  0.8473 -0.0613  0.1159
  994TIP3    H124617   3.244   3.170   3.002 -0.0797 -2.2653 -1.3227
  994TIP3    H224618   3.110   3.230   3.039  1.5921  0.3808  0.7628
  995TIP3   OH224619   0.864   2.759   3.583  0.3320  0.0884  0.4899
  995TIP3    H124620   0.850   2.731   3.674  1.1270 -2.5613 -0.1435
  995TIP3    H224621   0.947   2.808   3.586  1.8026 -2.2856  0.8247
  996TIP3   OH224622   5.349   2.281   0.816 -0.4227 -0.0455 -0.4878
  996TIP3    H124623   5.365   2.363   0.862  2.3703 -0.4031 -0.6227
  996TIP3    H224624   5.386   2.214   0.873 -0.5011 -0.9391 -1.4540
  997TIP3   OH224625   5.913   5.316   0.595  0.3744 -0.5597 -0.3399
  997TIP3    H124626   5.894   5.222   0.592 -0.4270 -0.6796  3.3979
  997TIP3    H224627   5.988   5.323   0.654  1.8013  1.0868 -2.2266
  998TIP3   OH224628   5.305   5.593   0.340  0.0564  0.4069  0.3314
  998TIP3    H124629   5.302   5.661   0.408  2.1856  0.0067  0.9074
  998TIP3    H224630   5.397   5.591   0.312 -0.4905 -0.4667 -1.5198
  999TIP3   OH224631   3.664   0.655   0.403 -0.7823 -0.3051  0.5415
  999TIP3    H124632   3.639   0.696   0.486 -1.5668  0.3650 -0.0107
  999TIP3    H224633   3.588   0.603   0.378 -0.8475  0.0974 -0.1212
 1000TIP3   OH224634   5.396   2.119   7.840 -0.0551 -0.6422  0.0636
 1000TIP3    H124635   5.335   2.068   7.787  0.1045 -1.3328  0.5305
 1000TIP3    H224636   5.416   2.196   7.787  0.1956 -1.3757 -0.9336
 1001TIP3   OH224637   2.639   2.005   2.358 -0.5308 -0.3330  0.2089
 1001TIP3    H124638   2.581   1.997   2.283 -1.2098  2.5410  0.3144
 1001TIP3    H224639   2.678   2.092   2.349 -0.9449  0.3084  3.3551
 1002TIP3   OH224640   5.953   6.354   1.929 -0.0312 -0.1154  0.1852
 1002TIP3    H124641   5.924   6.267   1.901 -1.9412  0.8034 -0.9403
 1002TIP3    H224642   5.900   6.374   2.006 -0.3068  0.4133 -0.1327
 1003TIP3   OH224643   2.846   4.908   3.795 -0.1352 -0.1718 -0.1000
 1003TIP3    H124644   2.846   4.870   3.707  1.8530 -0.0563 -0.2045
 1003TIP3    H224645   2.812   4.996   3.783  1.0874  0.2109 -0.9740
 1004TIP3   OH224646   0.593   4.658   2.569  0.0154  1.0347 -0.3264
 1004TIP3    H124647   0.679   4.692   2.593  1.2029 -1.9563  0.0954
 1004TIP3    H224648   0.610   4.602   2.493 -1.4898  0.1820 -0.0774
 1005TIP3   OH224649   1.864   3.111   2.416  0.2386 -0.0310 -0.0367
 1005TIP3    H124650   1.898   3.126   2.504  0.8517 -0.2222 -0.2380
 1005TIP3    H224651   1.940   3.082   2.365 -0.2922 -0.8195 -0.4079
 1006TIP3   OH224652   6.015   6.260   3.005  0.0511 -0.4265 -0.4516
 1006TIP3    H124653   6.094   6.248   2.952  1.3450  0.6919  1.1050
 1006TIP3    H224654   6.032   6.341   3.054 -1.7913 -0.5312  0.4282
 1007TIP3   OH224655   1.490   3.739   1.127 -0.0278  0.4176 -0.2046
 1007TIP3    H124656   1.457   3.654   1.099 -0.9287  0.5674  0.3484
 1007TIP3    H224657   1.570   3.720   1.176  0.3997 -0.0074 -1.0481
 1008TIP3   OH224658   1.522   1.993   1.465  0.1858  0.1677  0.3908
 1008TIP3    H124659   1.524   2.049   1.542  0.1989  1.3562 -0.4485
 1008TIP3    H224660   1.605   1.945   1.468 -0.7977 -1.5993  2.3590
 1009TIP3   OH224661   2.739   3.042   8.012  0.6622  0.0860  0.7494
 1009TIP3    H124662   2.664   3.088   7.975  1.6486  0.4227 -0.9636
 1009TIP3    H224663   2.796   3.112   8.044  1.2384 -0.0225 -0.0058
 1010TIP3   OH224664   0.804   1.936   1.966  0.4090  0.4703 -0.6113
 1010TIP3    H124665   0.875   1.874   1.981 -0.1628  0.1174  0.7677
 1010TIP3    H224666   0.727   1.894   2.003  0.1238  2.2739  0.9835
 1011TIP3   OH224667   0.320   1.423   8.264 -0.6510 -0.0275 -0.1604
 1011TIP3    H124668   0.331   1.414   8.170 -0.8638  0.1478 -0.2029
 1011TIP3    H224669   0.240   1.375   8.284  0.2958 -1.5489  0.1897
 1012TIP3   OH224670   0.282   3.132   1.482 -0.0272  0.2017 -0.7206
 1012TIP3    H124671   0.215   3.063   1.486 -0.9390  1.1366  2.0398
 1012TIP3    H224672   0.294   3.148   1.388 -2.4783 -1.1319 -1.3427
 1013TIP3   OH224673   0.104   2.179   2.566  0.0555  0.1756 -0.2569
 1013TIP3    H124674   0.197   2.198   2.569  0.1053 -0.2212  1.3448
 1013TIP3    H224675   0.062   2.262   2.543  0.7797  0.3774 -0.8690
 1014TIP3   OH224676   6.364   3.766   7.321  0.4353 -0.0858  0.4496
 1014TIP3    H124677   6.430   3.754   7.389  1.4517 -0.8444 -0.6310
 1014TIP3    H224678   6.402   3.831   7.262  0.9434 -1.6483 -1.0119
 1015TIP3   OH224679   3.417   2.177   8.562  0.2036 -0.8344 -0.0166
 1015TIP3    H124680   3.470   2.103   8.532 -0.2526 -0.8895 -0.7351
 1015TIP3    H224681   3.340   2.136   8.603  0.6685 -0.7558  0.9465
 1016TIP3   OH224682   6.550   5.541   2.769  0.3163  0.0054  0.3392
 1016TIP3    H124683   6.557   5.450   2.738  0.4483  0.1222  0.0233
 1016TIP3    H224684   6.457   5.554   2.785  0.1047  0.2612 -0.9865
 1017TIP3   OH224685   5.756   6.340   1.290 -0.5945 -0.3873  0.5770
 1017TIP3    H124686   5.830   6.344   1.230 -0.9741 -1.9794 -0.0475
 1017TIP3    H224687   5.684   6.380   1.241 -0.2521  0.8844  1.0710
 1018TIP3   OH224688   3.321   5.869   3.236 -0.1702 -0.6332  0.9852
 1018TIP3    H124689   3.397   5.821   3.205 -0.6066 -1.0569  0.5470
 1018TIP3    H224690   3.248   5.809   3.224 -0.4789 -0.4898  2.0653
 1019TIP3   OH224691   4.113   0.317   2.376  0.1545 -0.4063  0.2707
 1019TIP3    H124692   4.124   0.239   2.429 -1.6230  0.2837  1.7596
 1019TIP3    H224693   4.070   0.287   2.296  1.1212 -1.1822  0.0307
 1020TIP3   OH224694   3.328   0.151   2.805 -0.2143 -0.0524  0.4117
 1020TIP3    H124695   3.254   0.148   2.866 -0.3976 -0.8330  0.1684
 1020TIP3    H224696   3.321   0.236   2.761  0.4037  0.8905  2.0516
 1021TIP3   OH224697   0.163   0.814   1.722  0.1253  0.5193  0.1539
 1021TIP3    H124698   0.080   0.842   1.684  0.2938 -0.2541 -0.8286
 1021TIP3    H224699   0.138   0.749   1.788 -0.0760  0.7213  0.2802
 1022TIP3   OH224700   1.978   0.720   0.397  0.3465  0.5172  0.3889
 1022TIP3    H124701   1.921   0.786   0.358 -0.2039  0.7944  1.6068
 1022TIP3    H224702   2.049   0.709   0.334 -1.0565  0.1268 -1.1812
 1023TIP3   OH224703   3.485   3.404   8.429  0.7556 -0.0588 -0.0614
 1023TIP3    H124704   3.411   3.344   8.436 -0.4259  0.8136 -3.2209
 1023TIP3    H224705   3.478   3.460   8.506 -0.1945 -1.6931  1.1164
 1024TIP3   OH224706   1.668   2.726   0.782 -0.4448 -0.2213  0.2534
 1024TIP3    H124707   1.609   2.674   0.728 -2.2719  1.0134  0.9441
 1024TIP3    H224708   1.624   2.731   0.867  1.3259 -0.3630  1.2114
 1025TIP3   OH224709   4.368   3.162   1.634  0.0826  0.1241  0.1224
 1025TIP3    H124710   4.293   3.218   1.655  0.7885  1.1480 -0.0242
 1025TIP3    H224711   4.333   3.096   1.574 -1.3211 -1.0989  2.1662
 1026TIP3   OH224712   5.038   4.662   1.005  0.3972  0.0609  0.1577
 1026TIP3    H124713   5.070   4.579   1.040  1.3650  0.2936 -0.1641
 1026TIP3    H224714   5.072   4.728   1.065  1.5496  0.4128 -0.8459
 1027TIP3   OH224715   5.781   5.353   0.101 -0.3623 -0.5565  0.3954
 1027TIP3    H124716   5.723   5.283   0.072  1.1481 -1.7954  0.1960
 1027TIP3    H224717   5.830   5.378   0.023  1.6175 -1.8144  1.1565
 1028TIP3   OH224718   2.210   0.112   0.321 -0.0551  0.0251  0.4724
 1028TIP3    H124719   2.215   0.204   0.347  1.3794  0.7943 -2.0941
 1028TIP3    H224720   2.131   0.106   0.268  0.6216  0.1949 -0.5953
 1029TIP3   OH224721   3.509   5.928   2.942  0.1240 -0.0675 -0.5843
 1029TIP3    H124722   3.430   5.972   2.973  0.6442  0.2981  0.2484
 1029TIP3    H224723   3.476   5.854   2.891 -0.7571  0.3036 -0.5737
 1030TIP3   OH224724   1.019   0.444   0.784 -0.1922  0.4615  1.5165
 1030TIP3    H124725   1.080   0.446   0.857  0.8468  0.1975  0.6722
 1030TIP3    H224726   0.977   0.359   0.790 -0.3654  0.5765  2.0001
 1031TIP3   OH224727   0.945   5.537   0.257  0.1783  0.6046  0.0580
 1031TIP3    H124728   0.927   5.457   0.306  0.4523  1.4164  1.5393
 1031TIP3    H224729   0.970   5.506   0.170 -1.1921 -0.8449  0.1300
 1032TIP3   OH224730   4.492   2.891   2.002 -0.4675  0.0582  1.0261
 1032TIP3    H124731   4.411   2.847   1.976 -0.1966 -0.0801  0.4140
 1032TIP3    H224732   4.561   2.829   1.983 -0.1346  0.5169  0.7128
 1033TIP3   OH224733   1.782   1.896   0.019 -0.1623  0.2050 -0.4499
 1033TIP3    H124734   1.833   1.974   0.042 -2.2793  1.4085  0.3824
 1033TIP3    H224735   1.814   1.829   0.079 -0.0321  1.1264  0.5459
 1034TIP3   OH224736   6.001   4.082   7.905  0.0206 -0.4923  0.3142
 1034TIP3    H124737   6.005   4.169   7.866 -1.5753 -0.6806 -0.3779
 1034TIP3    H224738   6.023   4.023   7.833 -0.7718 -0.7339  0.2569
 1035TIP3   OH224739   3.607   5.837   0.714 -0.1625  0.1035 -0.3316
 1035TIP3    H124740   3.520   5.861   0.681  0.4825  1.4394 -1.1166
 1035TIP3    H224741   3.665   5.844   0.639  0.9317  0.9135  0.5473
 1036TIP3   OH224742   3.718   5.209   1.799  0.1314 -0.3339  0.1507
 1036TIP3    H124743   3.762   5.124   1.798 -0.4822 -0.7520  2.3621
 1036TIP3    H224744   3.625   5.188   1.797 -0.0535  0.4560 -2.3387
 1037TIP3   OH224745   3.938   2.363   0.267  0.0940 -0.1358 -0.1584
 1037TIP3    H124746   3.940   2.291   0.205  0.5986 -1.3960  1.2640
 1037TIP3    H224747   3.857   2.410   0.246  1.1131  0.5768 -2.8868
 1038TIP3   OH224748   0.117   6.645   8.611  0.2000 -0.0847 -0.7452
 1038TIP3    H124749   0.164   6.678   8.534  0.4910  1.1014 -0.0827
 1038TIP3    H224750   0.094   6.723   8.661  3.5760 -0.8444  2.4606
 1039TIP3   OH224751   1.944   3.380   1.824 -0.2248  0.0062 -0.0113
 1039TIP3    H124752   1.905   3.459   1.861  3.0554  1.0184  1.6366
 1039TIP3    H224753   1.926   3.312   1.888 -0.2359  0.2093  0.2018
 1040TIP3   OH224754   2.172   3.914   1.572  0.0133 -0.2476  0.7061
 1040TIP3    H124755   2.106   3.853   1.606 -0.3649 -0.5425 -0.5289
 1040TIP3    H224756   2.247   3.858   1.550  0.7132  0.0891  2.1319
 1041TIP3   OH224757   5.633   3.812   2.196 -0.5904  0.1307 -0.0896
 1041TIP3    H124758   5.632   3.822   2.291  1.8817  0.9909 -0.0875
 1041TIP3    H224759   5.635   3.902   2.163  0.9556 -0.1644 -0.8499
 1042TIP3   OH224760   1.911   6.892   2.376 -0.0075  0.0992 -0.3681
 1042TIP3    H124761   1.984   6.888   2.314  0.0784 -1.0864 -0.2114
 1042TIP3    H224762   1.834   6.907   2.321  0.3441  1.4454 -0.5276
 1043TIP3   OH224763   3.850   4.373   8.625  0.4747 -0.0004 -0.7292
 1043TIP3    H124764   3.766   4.405   8.659 -1.1427 -1.4479 -3.0529
 1043TIP3    H224765   3.872   4.435   8.554  0.6099 -0.4244 -1.0643
 1044TIP3   OH224766   5.639   5.792   1.774  0.1379  0.4407 -0.0612
 1044TIP3    H124767   5.585   5.746   1.709  1.3998 -1.0407 -0.1123
 1044TIP3    H224768   5.711   5.829   1.723  2.0978 -2.1892  0.5876
 1045TIP3   OH224769   2.587   0.672   2.247 -0.3590 -0.5533 -0.0289
 1045TIP3    H124770   2.579   0.762   2.276  0.9420 -0.0309 -1.1600
 1045TIP3    H224771   2.510   0.657   2.193 -1.2219 -0.5492  1.1788
 1046TIP3   OH224772   1.309   3.160   1.042 -0.0103 -0.1415  0.6952
 1046TIP3    H124773   1.218   3.171   1.012  0.1636  0.2335  0.2866
 1046TIP3    H224774   1.355   3.236   1.006  0.3786 -0.1009  1.2576
 1047TIP3   OH224775   1.091   2.908   1.282  0.2632  0.5014 -0.1668
 1047TIP3    H124776   1.064   2.870   1.366 -1.5457 -1.8445 -1.6786
 1047TIP3    H224777   1.064   3.000   1.289 -4.0223 -0.5408  0.3699
 1048TIP3   OH224778   2.251   1.475   0.256 -0.6256 -0.3184 -0.4533
 1048TIP3    H124779   2.271   1.566   0.282  0.5670 -0.0645 -2.0764
 1048TIP3    H224780   2.169   1.482   0.207 -1.0823 -0.2889  0.2997
 1049TIP3   OH224781   0.322   4.377   8.225 -0.6898  0.4713  0.0607
 1049TIP3    H124782   0.340   4.415   8.139 -1.3271  0.2909 -0.1568
 1049TIP3    H224783   0.330   4.450   8.286 -0.8508  0.7310 -0.2289
 1050TIP3   OH224784   6.026   6.277   7.868 -0.0284  0.3407 -0.2669
 1050TIP3    H124785   6.119   6.293   7.853 -0.2228  1.5287 -0.2346
 1050TIP3    H224786   6.002   6.212   7.802  1.0894 -0.9208  0.5020
 1051TIP3   OH224787   0.448   4.392   3.098  0.2072 -0.1013  0.3640
 1051TIP3    H124788   0.489   4.311   3.130 -0.9591 -0.5179  0.8615
 1051TIP3    H224789   0.423   4.439   3.177 -2.1189 -0.8313  0.1216
 1052TIP3   OH224790   6.762   4.579   7.153  0.2208 -0.5482 -0.1365
 1052TIP3    H124791   6.758   4.617   7.065  1.9509 -0.7780 -0.3522
 1052TIP3    H224792   6.847   4.537   7.157 -0.4967 -1.9772  1.1004
 1053TIP3   OH224793   5.181   6.340   0.696  0.4061 -0.2552  0.1917
 1053TIP3    H124794   5.113   6.401   0.726  0.2330  0.4136 -1.4671
 1053TIP3    H224795   5.263   6.381   0.721  0.3216  1.0734 -1.5227
 1054TIP3   OH224796   0.582   3.671   3.584 -0.6175 -0.3159 -0.2009
 1054TIP3    H124797   0.674   3.653   3.600 -0.7656 -0.6612  0.2966
 1054TIP3    H224798   0.537   3.589   3.605 -1.1529  0.1736  0.6447
 1055TIP3   OH224799   0.152   4.943   0.652 -0.1236  1.0009  0.0532
 1055TIP3    H124800   0.071   4.992   0.643 -1.0998 -0.4610  0.5624
 1055TIP3    H224801   0.203   4.992   0.716 -1.9506  0.3044  2.1601
 1056TIP3   OH224802   2.712   2.626   0.280  0.1406  0.1560  0.5110
 1056TIP3    H124803   2.782   2.665   0.333 -0.0805 -0.5771  1.3531
 1056TIP3    H224804   2.632   2.667   0.313 -0.1265 -1.1682  1.5986
 1057TIP3   OH224805   1.551   3.623   0.811  0.3653 -0.1346 -0.5241
 1057TIP3    H124806   1.479   3.596   0.754 -0.8153 -0.1374  0.9244
 1057TIP3    H224807   1.567   3.549   0.868 -0.8997  1.0614  1.5002
 1058TIP3   OH224808   1.796   1.486   1.300 -0.0605  0.1386  0.3024
 1058TIP3    H124809   1.886   1.498   1.271  0.3184 -2.4362  0.1911
 1058TIP3    H224810   1.802   1.483   1.396 -0.1025  0.4342  0.3149
 1059TIP3   OH224811   6.646   4.591   7.802  0.6117 -0.3395  0.8988
 1059TIP3    H124812   6.653   4.589   7.707  0.2838  0.0950  0.8615
 1059TIP3    H224813   6.555   4.564   7.819  1.1075 -1.9183  1.1642
 1060TIP3   OH224814   5.107   2.977   7.653 -0.1440  0.1893  0.0051
 1060TIP3    H124815   5.018   2.958   7.683 -0.5725  0.5848 -0.9685
 1060TIP3    H224816   5.098   2.992   7.559  1.2036 -1.3226 -0.4005
 1061TIP3   OH224817   2.193   2.628   2.546 -0.0747 -0.2123  0.0108
 1061TIP3    H124818   2.198   2.705   2.488 -1.9094  0.7751  1.0607
 1061TIP3    H224819   2.236   2.558   2.497  1.3035  1.3788 -1.1546
 1062TIP3   OH224820   0.766   6.587   7.814  0.2620 -0.2046  0.4694
 1062TIP3    H124821   0.709   6.521   7.775 -1.1442  1.5093 -0.5266
 1062TIP3    H224822   0.732   6.671   7.782  1.4001  1.0870  2.4047
 1063TIP3   OH224823   6.151   5.108   2.214 -0.1589 -0.2305 -0.0361
 1063TIP3    H124824   6.067   5.119   2.257 -0.9361  0.1848 -1.5893
 1063TIP3    H224825   6.206   5.064   2.279 -2.0264 -1.9400  0.4623
 1064TIP3   OH224826   1.562   0.997   2.491  0.2114 -0.2073 -0.5419
 1064TIP3    H124827   1.533   1.030   2.406 -2.7134 -1.9351 -0.3695
 1064TIP3    H224828   1.516   0.913   2.500 -0.0630  0.1794  2.9838
 1065TIP3   OH224829   1.501   5.462   2.962  0.4003 -0.2985  0.7461
 1065TIP3    H124830   1.430   5.399   2.974  1.5846 -1.8362  0.0181
 1065TIP3    H224831   1.532   5.480   3.051  0.7464 -1.6101  0.9153
 1066TIP3   OH224832   0.444   1.797   2.546 -0.3716 -0.2705 -0.0599
 1066TIP3    H124833   0.364   1.843   2.522 -0.4366  0.5333  1.5852
 1066TIP3    H224834   0.494   1.859   2.599  1.6745 -0.5189 -1.5583
 1067TIP3   OH224835   1.460   1.714   0.553  0.1874 -0.2065 -0.6659
 1067TIP3    H124836   1.518   1.780   0.591 -1.0255  0.8473 -0.5961
 1067TIP3    H224837   1.401   1.690   0.625 -0.4886 -0.0881 -1.1806
 1068TIP3   OH224838   0.896   5.247   1.686 -0.7906  0.2405 -0.2158
 1068TIP3    H124839   0.929   5.226   1.773  0.1280 -0.4958 -0.7308
 1068TIP3    H224840   0.826   5.184   1.670 -0.4294 -0.1371 -0.3221
 1069TIP3   OH224841   6.699   3.620   2.248 -0.0503  0.1537 -0.6468
 1069TIP3    H124842   6.675   3.690   2.187 -1.1512 -0.6943 -1.2161
 1069TIP3    H224843   6.760   3.661   2.309 -0.4724  1.5430 -1.1274
 1070TIP3   OH224844   4.586   0.415   1.893 -0.3160 -0.1655  0.5592
 1070TIP3    H124845   4.673   0.433   1.929 -0.1075  1.5751 -0.7142
 1070TIP3    H224846   4.581   0.467   1.813 -2.3593 -0.6010  0.3391
 1071TIP3   OH224847   3.481   3.870   2.372 -0.0236 -0.4947  0.0274
 1071TIP3    H124848   3.392   3.858   2.403 -0.4188  1.1785 -0.3342
 1071TIP3    H224849   3.486   3.963   2.350  0.9071 -1.0806 -2.7310
 1072TIP3   OH224850   3.666   0.079   0.109  0.1608 -0.4341  0.1428
 1072TIP3    H124851   3.581   0.084   0.065  0.4431 -0.3499 -0.4017
 1072TIP3    H224852   3.651   0.119   0.195 -0.6754 -1.6454  0.5812
 1073TIP3   OH224853   6.767   3.103   1.576  0.0306  0.4348  0.0401
 1073TIP3    H124854   6.719   3.168   1.627  0.0095 -0.2290  0.8882
 1073TIP3    H224855   6.704   3.032   1.561  1.1716 -1.4078  2.9339
 1074TIP3   OH224856   6.596   4.154   1.197 -0.1641 -0.0463  0.0511
 1074TIP3    H124857   6.628   4.142   1.286  0.1130  0.9243  0.0943
 1074TIP3    H224858   6.653   4.221   1.159 -0.9002  0.2786 -0.5223
 1075TIP3   OH224859   5.606   4.971   8.398 -0.9014 -0.4561 -0.2156
 1075TIP3    H124860   5.618   4.980   8.304  1.8770  5.0332  0.2716
 1075TIP3    H224861   5.674   4.910   8.426 -1.1017 -1.3401 -1.5809
 1076TIP3   OH224862   5.111   2.091   7.467 -0.0852 -0.0661  0.0864
 1076TIP3    H124863   5.121   2.106   7.373  0.2106  1.2622  0.2982
 1076TIP3    H224864   5.201   2.080   7.498 -0.2776 -2.3481 -0.0214
 1077TIP3   OH224865   6.271   6.040   7.116  0.0485  0.3044 -0.6037
 1077TIP3    H124866   6.340   5.991   7.071  0.0206  0.7396 -1.1447
 1077TIP3    H224867   6.302   6.131   7.114  0.6987  0.1635  1.5056
 1078TIP3   OH224868   2.883   1.654   0.991 -0.0514 -0.3848 -0.5237
 1078TIP3    H124869   2.853   1.578   0.941 -0.8476  0.5788 -1.5416
 1078TIP3    H224870   2.979   1.644   0.994 -0.1033 -1.1181 -1.1354
 1079TIP3   OH224871   2.996   2.493   8.189  0.0558 -0.1780  0.0047
 1079TIP3    H124872   2.903   2.506   8.170  0.0286  0.9227  0.7832
 1079TIP3    H224873   3.037   2.490   8.103 -0.8974 -2.6481 -0.4502
 1080TIP3   OH224874   1.908   1.356   2.267  0.2112 -0.3221 -0.0531
 1080TIP3    H124875   1.837   1.346   2.330  2.7414 -0.0946  3.0759
 1080TIP3    H224876   1.958   1.274   2.273  2.3466  0.9546  0.8038
 1081TIP3   OH224877   1.617   0.399   7.310  0.2794  0.0741 -0.6107
 1081TIP3    H124878   1.614   0.467   7.243 -1.0073  0.3782 -0.2620
 1081TIP3    H224879   1.701   0.354   7.295  0.4870  0.8103 -1.7429
 1082TIP3   OH224880   2.081   1.310   7.224  0.1534 -0.2983 -0.2576
 1082TIP3    H124881   2.063   1.218   7.206  0.0941 -0.3298 -0.0440
 1082TIP3    H224882   2.032   1.358   7.157  0.5783 -0.4355 -0.6733
 1083TIP3   OH224883   2.539   2.692   1.239 -0.5321 -0.2902 -0.5852
 1083TIP3    H124884   2.465   2.710   1.181 -0.2442  0.2880 -0.7916
 1083TIP3    H224885   2.616   2.717   1.187 -0.2097 -0.7009 -0.3069
 1084TIP3   OH224886   0.921   5.528   2.356 -0.0032 -0.0369 -0.0910
 1084TIP3    H124887   1.007   5.548   2.394 -0.1871 -0.1843  0.4059
 1084TIP3    H224888   0.883   5.614   2.338 -0.3515  0.0662  1.0579
 1085TIP3   OH224889   0.841   3.234   2.536 -0.1139 -0.0404 -0.1576
 1085TIP3    H124890   0.867   3.180   2.611  1.3849 -0.3449 -0.8562
 1085TIP3    H224891   0.909   3.302   2.531 -1.6374  1.6108  0.3483
 1086TIP3   OH224892   2.998   5.354   0.562 -0.2339  0.8890 -0.2195
 1086TIP3    H124893   2.995   5.429   0.503 -1.7200  0.9509 -0.0970
 1086TIP3    H224894   2.910   5.348   0.599  0.0541 -0.4734  0.3313
 1087TIP3   OH224895   0.577   2.714   8.030 -0.6510 -0.1297  0.0249
 1087TIP3    H124896   0.596   2.797   8.073 -0.4956  0.0780 -0.4367
 1087TIP3    H224897   0.595   2.648   8.097  0.5896  0.1274 -0.0224
 1088TIP3   OH224898   2.724   1.994   0.016  0.2145  0.3103  0.4861
 1088TIP3    H124899   2.721   2.045  -0.065  1.5017  0.6835  0.6583
 1088TIP3    H224900   2.681   2.049   0.081  0.2042  0.5110  0.3114
 1089TIP3   OH224901   5.244   5.811   0.478 -0.3354 -0.1278 -0.3729
 1089TIP3    H124902   5.271   5.830   0.568  0.8031 -0.9806 -0.5068
 1089TIP3    H224903   5.285   5.881   0.426  0.4825 -0.6293 -0.4161
 1090TIP3   OH224904   3.660   3.728   8.431 -0.7396 -0.2508  0.1088
 1090TIP3    H124905   3.680   3.821   8.446 -0.2633 -0.2395 -0.5665
 1090TIP3    H224906   3.670   3.716   8.337 -2.4455 -0.6133 -0.0631
 1091TIP3   OH224907   0.420   0.788   7.584 -0.1949  0.4101 -0.8697
 1091TIP3    H124908   0.458   0.867   7.546  0.2621 -0.1179 -1.5540
 1091TIP3    H224909   0.456   0.717   7.531 -0.8115 -0.2359 -0.4424
 1092TIP3   OH224910   1.027   0.212   7.900 -0.0712 -0.1088 -0.1018
 1092TIP3    H124911   1.019   0.142   7.965 -0.5525 -0.0161 -0.0643
 1092TIP3    H224912   1.040   0.292   7.952  0.7408 -0.1970 -0.1489
 1093TIP3   OH224913   3.652   2.686   3.224 -0.7261 -0.3359 -0.4937
 1093TIP3    H124914   3.659   2.597   3.261 -1.8834  0.7165  2.5962
 1093TIP3    H224915   3.736   2.727   3.245 -0.6347 -0.3243 -0.8751
 1094TIP3   OH224916   2.798   5.791   2.627 -0.0808  0.0213  0.5773
 1094TIP3    H124917   2.875   5.802   2.682 -1.5464  1.9062  2.3705
 1094TIP3    H224918   2.813   5.849   2.552 -0.0986  1.0089  1.3280
 1095TIP3   OH224919   1.671   6.717   7.304  0.0049 -0.3508 -0.0252
 1095TIP3    H124920   1.708   6.631   7.284 -1.1647 -1.1384  1.0614
 1095TIP3    H224921   1.578   6.709   7.284 -0.1692  0.6009  0.3173
 1096TIP3   OH224922   4.750   1.641   2.337 -0.3332  0.6406 -0.2210
 1096TIP3    H124923   4.730   1.570   2.276  0.6013 -0.6976  0.9663
 1096TIP3    H224924   4.841   1.664   2.318  0.0504  0.0309  0.8131
 1097TIP3   OH224925   3.923   2.544   1.042  0.0053 -0.1227  0.1919
 1097TIP3    H124926   4.011   2.513   1.020  0.8294  1.9944  0.1881
 1097TIP3    H224927   3.898   2.599   0.968 -0.9455  0.0009  0.5933
 1098TIP3   OH224928   5.314   3.605   2.103 -0.2168 -0.1024 -0.1865
 1098TIP3    H124929   5.366   3.606   2.183 -0.7107  1.2480  0.1315
 1098TIP3    H224930   5.237   3.658   2.122 -2.1643 -2.6238 -0.4070
 1099TIP3   OH224931   4.867   5.162   1.081 -0.2155  0.0234  0.1196
 1099TIP3    H124932   4.852   5.078   1.039  1.2684  0.3406 -1.1214
 1099TIP3    H224933   4.872   5.141   1.174 -0.7007 -1.1269 -0.0933
 1100TIP3   OH224934   3.380   6.293   2.379 -0.2195 -1.0638 -0.7703
 1100TIP3    H124935   3.399   6.349   2.454  1.2875 -2.6377  0.1043
 1100TIP3    H224936   3.312   6.340   2.330  0.9473  1.4868 -0.1149
 1101TIP3   OH224937   6.440   6.184   0.581 -0.0742  0.3397  0.1057
 1101TIP3    H124938   6.490   6.254   0.622 -1.9253  0.9588  1.4942
 1101TIP3    H224939   6.386   6.228   0.515  0.2464 -0.1057 -0.4612
 1102TIP3   OH224940   1.445   1.523   2.504 -1.0982 -0.5085 -0.5771
 1102TIP3    H124941   1.456   1.532   2.599  2.4848  1.2206 -0.9753
 1102TIP3    H224942   1.409   1.607   2.476 -0.2305 -0.2293 -0.8988
 1103TIP3   OH224943   2.046   2.247   2.667 -1.4727  0.0251 -0.6534
 1103TIP3    H124944   2.015   2.323   2.618 -2.0717  0.8134  0.8720
 1103TIP3    H224945   2.083   2.284   2.748  1.9219 -0.9863 -1.5642
 1104TIP3   OH224946   1.875   5.190   1.230  0.2869 -0.1300  0.3660
 1104TIP3    H124947   1.932   5.241   1.288  0.2817  0.7393 -0.3783
 1104TIP3    H224948   1.932   5.120   1.197  0.2814 -0.6558  1.4208
 1105TIP3   OH224949   1.749   5.174   2.329  0.2326 -0.7350 -0.3494
 1105TIP3    H124950   1.766   5.261   2.366  1.4998 -1.0883 -0.0363
 1105TIP3    H224951   1.771   5.113   2.400 -1.1470 -1.3091 -0.3872
 1106TIP3   OH224952   1.109   1.221   0.110  0.0611  0.3580 -0.3850
 1106TIP3    H124953   1.019   1.251   0.100 -0.0854 -0.1712 -0.6966
 1106TIP3    H224954   1.104   1.149   0.172  0.3136  0.5374 -0.1587
 1107TIP3   OH224955   6.212   6.659   2.134 -0.0661  0.1243 -0.0854
 1107TIP3    H124956   6.300   6.652   2.170 -0.6014 -1.5253  0.9955
 1107TIP3    H224957   6.169   6.726   2.188  0.2908  0.4093 -0.1500
 1108TIP3   OH224958   1.531   1.751   0.120 -0.0281  0.0733  0.0283
 1108TIP3    H124959   1.513   1.657   0.121  0.0741  0.0581  0.7544
 1108TIP3    H224960   1.578   1.766   0.038 -0.2792 -0.4642 -0.2145
 1109TIP3   OH224961   0.089   0.796   8.626  0.1716 -0.3081  0.2212
 1109TIP3    H124962   0.047   0.855   8.563 -0.8619 -2.2657 -1.0435
 1109TIP3    H224963   0.183   0.812   8.614 -0.0706  0.6501 -0.5312
 1110TIP3   OH224964   2.453   4.888   2.413 -0.1184  0.2937  0.5819
 1110TIP3    H124965   2.488   4.829   2.346  0.9757  1.8119 -0.2614
 1110TIP3    H224966   2.358   4.884   2.401 -0.0637 -1.1638  0.4590
 1111TIP3   OH224967   5.866   4.608   0.967  0.4650 -0.1843 -0.5621
 1111TIP3    H124968   5.959   4.606   0.942  0.7421  0.0162  0.4090
 1111TIP3    H224969   5.826   4.669   0.905  1.2009  0.5650 -0.3170
 1112TIP3   OH224970   0.542   2.212   1.931  0.3607  0.0098  0.0399
 1112TIP3    H124971   0.616   2.228   1.989  0.1381  0.3420  0.2423
 1112TIP3    H224972   0.563   2.260   1.851 -0.1377  1.0571  0.5118
 1113TIP3   OH224973   2.667   1.374   0.987  0.0258  0.2450 -0.5303
 1113TIP3    H124974   2.653   1.282   1.011 -0.7952  0.4566 -0.1522
 1113TIP3    H224975   2.683   1.418   1.070  2.1030  0.1932 -0.8497
 1114TIP3   OH224976   2.026   0.494   8.017 -0.2558 -0.0308  0.3249
 1114TIP3    H124977   2.008   0.403   8.042  0.7736 -0.7526 -1.4073
 1114TIP3    H224978   2.122   0.500   8.018 -0.3205  1.4388  1.6597
 1115TIP3   OH224979   4.401   2.380   1.790 -0.2944  0.2393  0.1040
 1115TIP3    H124980   4.404   2.376   1.695  0.3843  1.9065  0.0258
 1115TIP3    H224981   4.352   2.302   1.816 -1.2696  0.2232 -1.6476
 1116TIP3   OH224982   0.768   3.462   8.452 -0.7319 -0.0270  0.0072
 1116TIP3    H124983   0.722   3.427   8.528 -1.2035  0.2111 -0.1597
 1116TIP3    H224984   0.861   3.450   8.472 -0.8674 -0.6286  0.2961
 1117TIP3   OH224985   6.455   4.897   2.744  0.5334 -0.1985 -0.3857
 1117TIP3    H124986   6.490   4.892   2.832 -1.1289 -0.7156  0.2835
 1117TIP3    H224987   6.532   4.889   2.687  1.5115 -1.0792  0.9953
 1118TIP3   OH224988   3.927   3.173   1.476  0.2116 -0.1593  0.2062
 1118TIP3    H124989   3.944   3.082   1.497 -1.1474 -0.2654  1.0126
 1118TIP3    H224990   3.836   3.187   1.505  0.4601  1.4882  0.2797
 1119TIP3   OH224991   4.547   2.457   2.311 -0.5324  0.3748  0.1773
 1119TIP3    H124992   4.498   2.459   2.393 -0.7393  0.0965  0.0638
 1119TIP3    H224993   4.517   2.534   2.263  0.0377  0.8807  0.6121
 1120TIP3   OH224994   3.132   1.216   7.460 -0.6030 -0.4810 -0.7170
 1120TIP3    H124995   3.070   1.165   7.512  0.1656 -0.0549  0.6611
 1120TIP3    H224996   3.095   1.304   7.460  1.5070  0.6290  2.9716
 1121TIP3   OH224997   2.787   0.727   0.007  0.2474  0.4970 -0.3081
 1121TIP3    H124998   2.692   0.732   0.016  0.3355 -0.4118  1.9324
 1121TIP3    H224999   2.812   0.655   0.065  2.3442  0.9611 -0.5678
 1122TIP3   OH225000   0.995   1.498   1.653  0.6219 -0.6158  0.1759
 1122TIP3    H125001   1.018   1.432   1.588 -0.9904 -0.3384 -0.7328
 1122TIP3    H225002   0.930   1.455   1.709  0.6699 -0.2708  0.5015
 1123TIP3   OH225003   3.251   2.288   0.509 -0.5290  0.0147 -0.5611
 1123TIP3    H125004   3.315   2.305   0.577  0.7738 -1.3359 -1.3896
 1123TIP3    H225005   3.216   2.374   0.486  0.8176  0.7523  0.0721
 1124TIP3   OH225006   4.032   2.080   2.500 -0.3694  0.5366 -0.7295
 1124TIP3    H125007   4.019   2.037   2.585  1.0143  2.2795  0.4250
 1124TIP3    H225008   4.045   2.008   2.439 -0.5346 -0.7397  0.6809
 1125TIP3   OH225009   3.590   5.781   2.262 -0.6924  0.0895 -0.0412
 1125TIP3    H125010   3.595   5.845   2.191 -1.7613 -0.5824 -0.7548
 1125TIP3    H225011   3.553   5.703   2.221 -1.1623 -0.3777  1.2229
 1126TIP3   OH225012   4.792   5.462   0.563  0.3709  0.2215  0.1653
 1126TIP3    H125013   4.834   5.397   0.507 -0.4111 -2.2210  2.2697
 1126TIP3    H225014   4.726   5.503   0.506  0.5035 -1.1926 -1.0653
 1127TIP3   OH225015   2.502   0.722   0.771  0.1189 -0.6990 -0.7918
 1127TIP3    H125016   2.548   0.807   0.773 -1.7899  0.4656 -2.4017
 1127TIP3    H225017   2.562   0.662   0.815  1.0685  1.6951  1.5264
 1128TIP3   OH225018   6.241   0.223   8.486  0.3613  0.0044 -0.2260
 1128TIP3    H125019   6.177   0.203   8.417  1.4492 -1.1585 -0.9401
 1128TIP3    H225020   6.236   0.148   8.545 -1.4810  1.5506  1.7656
 1129TIP3   OH225021   5.478   6.442   1.882  0.7134  0.2645  0.0467
 1129TIP3    H125022   5.430   6.452   1.799  0.7462 -0.8843 -0.1373
 1129TIP3    H225023   5.453   6.355   1.913 -0.7298  1.3479  2.1933
 1130TIP3   OH225024   5.868   4.147   0.680 -0.3950 -0.0658 -0.3578
 1130TIP3    H125025   5.902   4.088   0.747  1.1454 -0.6777 -1.6196
 1130TIP3    H225026   5.828   4.090   0.615 -2.0867  0.5338  0.1029
 1131TIP3   OH225027   6.264   2.885   0.701 -0.2506  0.6214 -0.1492
 1131TIP3    H125028   6.287   2.945   0.772  1.2707 -2.2856  2.0445
 1131TIP3    H225029   6.172   2.863   0.718 -0.5958  1.6971 -0.5310
 1132TIP3   OH225030   5.515   3.736   8.606  0.1354 -0.2605  0.0758
 1132TIP3    H125031   5.454   3.749   8.678  1.9807  0.6209  1.5652
 1132TIP3    H225032   5.476   3.785   8.533 -0.8037  0.5153  1.0516
 1133TIP3   OH225033   6.808   3.320   1.124  0.2919 -0.0685  0.3534
 1133TIP3    H125034   6.726   3.285   1.158  0.7016 -0.8985  0.4895
 1133TIP3    H225035   6.783   3.368   1.045 -0.6054  1.4972  1.5480
 1134TIP3   OH225036   0.692   3.667   7.783 -0.0202  0.1431  0.0904
 1134TIP3    H125037   0.714   3.576   7.764 -2.0932 -0.4133  0.1119
 1134TIP3    H225038   0.649   3.698   7.703 -0.3645  0.7485  0.5027
 1135TIP3   OH225039   0.734   4.729   3.488 -0.4598  0.4715 -0.3666
 1135TIP3    H125040   0.732   4.729   3.584  1.7061  1.3551 -0.2664
 1135TIP3    H225041   0.706   4.817   3.464  0.3932  0.7199 -0.4707
 1136TIP3   OH225042   1.022   3.383   8.553  0.5926 -0.1594  0.0783
 1136TIP3    H125043   1.019   3.379   8.648 -1.3410 -1.5361  0.0213
 1136TIP3    H225044   1.050   3.296   8.526 -1.2858 -0.6109 -0.6051
 1137TIP3   OH225045   6.032   5.740   7.789  0.3064 -0.1694  0.1133
 1137TIP3    H125046   6.071   5.720   7.704 -1.0983 -1.1412 -0.3407
 1137TIP3    H225047   6.042   5.659   7.839  0.5086  0.1799  0.6493
 1138TIP3   OH225048   0.896   6.111   8.068 -0.0883  0.0666  0.5081
 1138TIP3    H125049   0.983   6.096   8.031 -1.1821 -2.2746 -1.3703
 1138TIP3    H225050   0.880   6.204   8.053  0.8612 -0.0911 -2.0843
 1139TIP3   OH225051   5.071   0.219   0.003 -0.0764 -0.0982  0.1424
 1139TIP3    H125052   5.145   0.279  -0.008 -0.9505  1.1170  0.6085
 1139TIP3    H225053   5.088   0.148  -0.060 -0.3183  1.9605 -2.4436
 1140TIP3   OH225054   6.095   5.136   1.499 -0.2914  0.2791  0.2775
 1140TIP3    H125055   6.006   5.167   1.482 -0.0952  0.5810 -0.2316
 1140TIP3    H225056   6.145   5.168   1.424 -0.0801 -1.2637 -0.2707
 1141TIP3   OH225057   0.974   6.303   2.283  0.1328  0.5339 -0.4572
 1141TIP3    H125058   0.957   6.293   2.377 -1.2019  1.5735 -0.5683
 1141TIP3    H225059   1.042   6.238   2.265  0.9593  0.8162  1.3703
 1142TIP3   OH225060   2.003   3.905   8.428  0.6948  0.3849  0.2993
 1142TIP3    H125061   1.999   3.890   8.334 -0.2046  0.0413  0.3828
 1142TIP3    H225062   1.918   3.941   8.450  1.4781  2.0422  0.7327
 1143TIP3   OH225063   5.467   4.349   1.906 -0.1137  0.2688 -0.0966
 1143TIP3    H125064   5.472   4.262   1.866 -0.4442  0.6803 -1.0762
 1143TIP3    H225065   5.552   4.362   1.948  0.6350  0.1887 -1.5047
 1144TIP3   OH225066   3.305   0.909   0.211  0.3025  0.1999  0.0373
 1144TIP3    H125067   3.323   0.912   0.117 -0.9067  0.4728 -0.2039
 1144TIP3    H225068   3.217   0.944   0.219  0.4035  0.1997  1.2880
 1145TIP3   OH225069   1.672   3.020   1.080 -0.4380 -0.4277 -0.1707
 1145TIP3    H125070   1.629   3.033   0.996 -0.0357  0.8613 -0.2018
 1145TIP3    H225071   1.639   3.092   1.135  1.0934  0.1730  0.0216
 1146TIP3   OH225072   0.398   3.796   2.485  0.2429 -0.1004 -0.3575
 1146TIP3    H125073   0.335   3.846   2.537  0.5582  1.5625 -1.4805
 1146TIP3    H225074   0.483   3.822   2.520  0.3942 -0.2902 -0.5867
 1147TIP3   OH225075   4.163   4.174   3.232 -0.7430  0.4216 -0.1899
 1147TIP3    H125076   4.117   4.257   3.224 -0.1776  0.7204 -0.3931
 1147TIP3    H225077   4.124   4.132   3.309 -0.3947  1.2887  0.4718
 1148TIP3   OH225078   6.606   5.903   7.774 -0.5667 -0.2631  0.3026
 1148TIP3    H125079   6.531   5.857   7.812 -3.0107  1.5163 -2.0069
 1148TIP3    H225080   6.624   5.856   7.692  0.8310 -0.5955  0.7716
 1149TIP3   OH225081   2.073   4.378   2.519  0.4887 -0.4129 -0.1185
 1149TIP3    H125082   2.118   4.304   2.560 -1.1262 -1.1373  0.4142
 1149TIP3    H225083   2.064   4.352   2.428  0.3371 -0.6744 -0.0311
 1150TIP3   OH225084   6.824   4.252   2.668 -0.1465 -0.3732  0.1968
 1150TIP3    H125085   6.848   4.202   2.590 -0.4514 -1.1800  0.6020
 1150TIP3    H225086   6.842   4.191   2.740  0.4525  0.4774  0.7781
 1151TIP3   OH225087   4.265   2.816   7.973  0.0063 -0.6315 -0.1971
 1151TIP3    H125088   4.225   2.738   7.933 -1.9801 -1.9005  3.7285
 1151TIP3    H225089   4.196   2.882   7.973  0.5841 -0.0129 -0.4672
 1152TIP3   OH225090   2.660   3.827   2.035  0.0608 -0.1293 -0.1990
 1152TIP3    H125091   2.630   3.749   1.988 -1.1090  0.6579 -0.7948
 1152TIP3    H225092   2.613   3.826   2.118  2.5653 -1.8419  1.3459
 1153TIP3   OH225093   1.925   3.022   0.285  0.4739  0.0043  0.1937
 1153TIP3    H125094   1.925   3.117   0.277  1.2355  0.1876  1.9418
 1153TIP3    H225095   1.985   2.992   0.216 -0.1929  0.7079 -0.7327
 1154TIP3   OH225096   0.710   4.865   7.315  0.4401 -0.1423  0.0709
 1154TIP3    H125097   0.652   4.800   7.275  0.3383  0.3708 -0.6213
 1154TIP3    H225098   0.765   4.896   7.243 -0.3334  1.4271  0.1288
 1155TIP3   OH225099   2.063   0.702   8.358  0.0649 -0.1564  0.6411
 1155TIP3    H125100   2.035   0.631   8.300 -0.3996  1.2435 -0.9525
 1155TIP3    H225101   2.109   0.659   8.430 -0.1784 -2.0458 -0.2898
 1156TIP3   OH225102   3.316   4.158   2.344 -0.2745  0.0107  0.0243
 1156TIP3    H125103   3.259   4.235   2.342 -1.0927 -0.4575  2.0615
 1156TIP3    H225104   3.365   4.167   2.426 -0.4189 -1.6370  0.3270
 1157TIP3   OH225105   6.635   6.200   1.451 -0.0910  0.3066 -0.0323
 1157TIP3    H125106   6.603   6.194   1.361 -0.2018  2.2218 -0.1642
 1157TIP3    H225107   6.730   6.214   1.442 -0.2573  1.5910  0.0879
 1158TIP3   OH225108   6.108   6.638   2.672 -0.3325  0.3132 -0.0098
 1158TIP3    H125109   6.031   6.595   2.709  0.3435 -0.3318  0.7001
 1158TIP3    H225110   6.164   6.566   2.642  0.8691  0.6596  1.2936
 1159TIP3   OH225111   5.589   3.048   8.023  0.6226 -0.1315 -0.0256
 1159TIP3    H125112   5.527   2.979   7.998  0.8951  0.0532 -1.2714
 1159TIP3    H225113   5.597   3.102   7.945  2.4643 -0.2304  0.0676
 1160TIP3   OH225114   5.520   4.759   2.361 -0.0441 -0.5076 -0.0747
 1160TIP3    H125115   5.576   4.692   2.320 -0.5730 -0.6832 -0.5128
 1160TIP3    H225116   5.513   4.828   2.295  0.3216 -0.1076  0.2955
 1161TIP3   OH225117   5.378   4.063   3.602 -0.4195  0.2895 -0.1628
 1161TIP3    H125118   5.451   4.032   3.548 -0.6905 -0.6479 -0.0096
 1161TIP3    H225119   5.412   4.142   3.645 -0.0097  0.7270 -1.2568
 1162TIP3   OH225120   3.394   2.270   8.183 -0.0528  0.1535  0.2627
 1162TIP3    H125121   3.407   2.317   8.265 -0.4170 -0.3194  0.6010
 1162TIP3    H225122   3.475   2.284   8.134 -0.1388  1.0769  0.3732
 1163TIP3   OH225123   3.416   6.777   8.592  0.0743 -0.5961 -0.3300
 1163TIP3    H125124   3.372   6.816   8.517 -0.9612 -2.1334 -0.5769
 1163TIP3    H225125   3.509   6.782   8.571 -0.0263  1.5135 -0.4074
 1164TIP3   OH225126   0.142   1.173   7.995 -0.7816 -0.1931 -0.6798
 1164TIP3    H125127   0.098   1.208   8.073 -2.5296 -0.7812 -1.3621
 1164TIP3    H225128   0.225   1.221   7.991 -0.8521  0.1716  1.2726
 1165TIP3   OH225129   2.057   4.925   0.321 -0.0640 -0.0601 -0.3572
 1165TIP3    H125130   1.982   4.945   0.378 -0.3642 -0.2163 -0.6909
 1165TIP3    H225131   2.090   4.842   0.354  0.0743  0.1015 -0.0924
 1166TIP3   OH225132   1.104   6.643   1.609  0.2165  0.0100  0.3406
 1166TIP3    H125133   1.191   6.649   1.570  0.8861  0.4706  1.8384
 1166TIP3    H225134   1.086   6.549   1.613  0.8301 -0.1052  0.4278
 1167TIP3   OH225135   4.272   5.445   0.713  0.1748  0.6867  0.6516
 1167TIP3    H125136   4.190   5.403   0.737  1.1655 -2.0267 -0.3663
 1167TIP3    H225137   4.291   5.414   0.625  2.1065  1.5448  0.7077
 1168TIP3   OH225138   2.515   0.864   1.273 -0.0989 -0.3056  0.4942
 1168TIP3    H125139   2.490   0.776   1.302 -0.1454 -0.8984 -1.2512
 1168TIP3    H225140   2.607   0.856   1.249 -0.0868  0.1373  0.3921
 1169TIP3   OH225141   5.697   6.218   8.531 -0.0996  0.1639  0.3307
 1169TIP3    H125142   5.731   6.176   8.452 -2.8444 -0.6814 -0.5241
 1169TIP3    H225143   5.676   6.308   8.504 -2.7828 -0.6336 -0.5812
 1170TIP3   OH225144   5.357   5.725   2.642  0.4134 -0.1166  0.2375
 1170TIP3    H125145   5.375   5.819   2.642 -0.2704  0.0230 -0.1161
 1170TIP3    H225146   5.287   5.714   2.577  1.3813 -1.0399 -0.7034
 1171TIP3   OH225147   5.880   2.880   1.277 -0.4402  0.7202 -0.5346
 1171TIP3    H125148   5.955   2.877   1.336  0.9030 -0.0685 -2.2005
 1171TIP3    H225149   5.845   2.968   1.288  1.0920  1.3162 -0.1450
 1172TIP3   OH225150   3.365   6.416   8.291 -0.1580 -0.5918  0.4951
 1172TIP3    H125151   3.286   6.467   8.311  1.9518  3.1759  0.1977
 1172TIP3    H225152   3.364   6.407   8.196  0.0676 -0.0006  0.4360
 1173TIP3   OH225153   1.318   5.124   0.502 -0.8072 -0.6470 -0.1545
 1173TIP3    H125154   1.282   5.036   0.508  1.0278 -1.4895 -0.8298
 1173TIP3    H225155   1.359   5.140   0.587 -1.5270 -0.2599  0.1230
 1174TIP3   OH225156   5.083   1.791   1.806 -0.1060 -0.3981 -0.3370
 1174TIP3    H125157   5.158   1.839   1.842  1.5583 -2.1192 -1.3531
 1174TIP3    H225158   5.050   1.739   1.879  2.1463 -2.5208 -0.7135
 1175TIP3   OH225159   4.205   2.090   7.387 -0.2141 -0.3601  0.3477
 1175TIP3    H125160   4.246   2.013   7.348  1.9737  1.0102 -0.2175
 1175TIP3    H225161   4.278   2.146   7.413 -1.7258  1.2829  1.2981
 1176TIP3   OH225162   6.173   6.053   0.913 -0.1021  0.1785  0.5986
 1176TIP3    H125163   6.121   6.050   0.994  0.6326  1.2914  1.1521
 1176TIP3    H225164   6.262   6.034   0.942 -0.2404 -2.3873 -0.4389
 1177TIP3   OH225165   4.998   0.471   2.215  0.2624  0.1770 -0.4062
 1177TIP3    H125166   5.044   0.474   2.299 -0.3454 -0.4981 -0.0381
 1177TIP3    H225167   4.994   0.563   2.187 -1.5378  0.7605  1.4474
 1178TIP3   OH225168   0.500   1.034   7.474  0.0620 -0.3976  0.1378
 1178TIP3    H125169   0.537   1.118   7.447  1.3486 -0.4651  1.5453
 1178TIP3    H225170   0.522   0.974   7.402  2.5355 -0.3614  0.7689
 1179TIP3   OH225171   3.686   5.580   7.820  0.0839 -0.0556  0.5139
 1179TIP3    H125172   3.673   5.645   7.888  0.5339  0.3647  0.1979
 1179TIP3    H225173   3.780   5.580   7.803 -0.2844  1.9872 -2.1731
 1180TIP3   OH225174   1.135   1.511   1.004  0.5916  0.6867  0.3836
 1180TIP3    H125175   1.120   1.462   1.084 -0.2884  1.3356  0.6227
 1180TIP3    H225176   1.074   1.584   1.008  0.3361  0.5861 -1.0031
 1181TIP3   OH225177   2.751   0.021   2.355  0.3214  0.0454  0.0309
 1181TIP3    H125178   2.777   0.102   2.397  1.5367  0.7207 -1.9337
 1181TIP3    H225179   2.815  -0.044   2.385 -1.3971 -0.5996  2.6323
 1182TIP3   OH225180   1.440   1.415   8.527  0.2887 -0.3355  0.4487
 1182TIP3    H125181   1.441   1.470   8.449  4.0438 -3.0458 -1.7966
 1182TIP3    H225182   1.370   1.351   8.510 -1.7737  1.5090  1.4814
 1183TIP3   OH225183   3.177   0.383   2.700  0.8943  0.6237 -0.1378
 1183TIP3    H125184   3.114   0.332   2.753  1.9112  0.3728  0.8598
 1183TIP3    H225185   3.150   0.366   2.610  1.0194 -1.5052  0.1559
 1184TIP3   OH225186   1.275   2.233   1.418  0.1028 -0.9882 -0.3596
 1184TIP3    H125187   1.321   2.311   1.387 -0.8419 -0.5214 -0.6203
 1184TIP3    H225188   1.279   2.239   1.513 -1.5739  0.3798 -0.3422
 1185TIP3   OH225189   1.517   2.421   7.618  0.3934  0.6337  0.0058
 1185TIP3    H125190   1.448   2.476   7.655  0.3634  1.0188 -0.5999
 1185TIP3    H225191   1.480   2.388   7.536  0.5361 -0.0250  0.2035
 1186TIP3   OH225192   3.610   1.882   0.386 -0.0531  0.7483 -0.3408
 1186TIP3    H125193   3.601   1.815   0.318  0.8355  1.0495 -0.7741
 1186TIP3    H225194   3.598   1.834   0.468 -1.3779  0.4192 -0.6990
 1187TIP3   OH225195   4.721   4.171   7.769 -0.4011 -0.2855 -0.0003
 1187TIP3    H125196   4.678   4.202   7.690 -0.5626 -1.6640 -0.4743
 1187TIP3    H225197   4.655   4.179   7.838  0.2045  2.3827  0.3957
 1188TIP3   OH225198   4.131   4.685   1.848 -0.8701  0.3589 -0.4279
 1188TIP3    H125199   4.189   4.705   1.922  0.0664 -0.5759 -0.8841
 1188TIP3    H225200   4.180   4.621   1.797 -1.4751  1.0394 -1.8942
 1189TIP3   OH225201   2.350   4.589   2.330  0.3700 -0.3478  0.2644
 1189TIP3    H125202   2.371   4.664   2.274  0.1482 -2.1387 -2.3908
 1189TIP3    H225203   2.382   4.513   2.281 -0.8289 -2.1345  2.1032
 1190TIP3   OH225204   4.091   3.286   1.266  0.1154  0.0138  0.3829
 1190TIP3    H125205   4.011   3.253   1.307  1.3277  0.3269  3.2261
 1190TIP3    H225206   4.121   3.213   1.211 -1.4990 -0.5136  0.1288
 1191TIP3   OH225207   5.171   1.501   1.665 -0.1462  0.0342 -0.0062
 1191TIP3    H125208   5.250   1.507   1.613 -0.9126 -0.6914 -1.3017
 1191TIP3    H225209   5.182   1.567   1.733  1.0016  0.8226 -0.9232
 1192TIP3   OH225210   2.346   1.457   7.507 -0.1024 -0.7251  0.1527
 1192TIP3    H125211   2.271   1.490   7.558 -1.2016  1.0993 -2.4065
 1192TIP3    H225212   2.420   1.510   7.537 -0.4310 -0.6326  0.8175
 1193TIP3   OH225213   0.634   1.259   1.101  0.3730  0.6453  0.5977
 1193TIP3    H125214   0.597   1.172   1.116  0.7682  0.2120 -0.8547
 1193TIP3    H225215   0.590   1.314   1.166 -1.5092 -0.1918  0.1022
 1194TIP3   OH225216   5.963   6.546   0.683  0.1814  0.0259 -0.2735
 1194TIP3    H125217   5.913   6.508   0.755  0.4598 -1.4104 -0.7914
 1194TIP3    H225218   5.913   6.523   0.605  1.2777 -0.8485 -0.7427
 1195TIP3   OH225219   0.506   5.608   3.665  0.0503  0.2541  0.6672
 1195TIP3    H125220   0.553   5.534   3.626  1.6222  1.3641  0.3586
 1195TIP3    H225221   0.546   5.685   3.626 -2.1369  1.2938  0.3286
 1196TIP3   OH225222   5.799   6.732   2.070  0.4704  0.2188 -0.0328
 1196TIP3    H125223   5.777   6.654   2.018  1.6238  0.2456 -0.5920
 1196TIP3    H225224   5.728   6.793   2.053  0.1734 -0.2600 -0.5551
 1197TIP3   OH225225   3.225   2.549   0.738  0.3261 -0.6182 -0.3215
 1197TIP3    H125226   3.278   2.622   0.771  1.1436  0.3081 -3.3750
 1197TIP3    H225227   3.134   2.579   0.748  0.5994  0.2303 -0.2959
 1198TIP3   OH225228   2.999   3.652   1.003  0.1781 -0.6239  0.9088
 1198TIP3    H125229   2.930   3.594   1.036  0.7811 -0.9760  1.5909
 1198TIP3    H225230   3.015   3.713   1.075 -2.1336  2.0258 -0.6487
 1199TIP3   OH225231   0.430   0.415   2.439  0.1345 -0.2939  0.6405
 1199TIP3    H125232   0.339   0.436   2.458  0.1921 -1.1933  2.0547
 1199TIP3    H225233   0.450   0.342   2.498  1.6432 -0.3900  0.0425
 1200TIP3   OH225234   5.962   3.029   2.271 -0.2061  0.0546 -0.1136
 1200TIP3    H125235   5.901   3.059   2.338  0.5284 -1.7351  1.4346
 1200TIP3    H225236   5.999   2.948   2.306  1.9713  0.3025 -1.6384
 1201TIP3   OH225237   3.686   6.544   0.793  0.0782  0.4223  0.0606
 1201TIP3    H125238   3.695   6.514   0.702 -0.8365  0.5665 -0.0936
 1201TIP3    H225239   3.757   6.502   0.840 -0.8134 -1.5491 -0.2482
 1202TIP3   OH225240   6.887   4.860   8.081  0.2244 -1.4744 -0.1798
 1202TIP3    H125241   6.855   4.771   8.097 -0.6116 -1.1065  0.2439
 1202TIP3    H225242   6.821   4.917   8.120 -0.0009 -0.6188 -1.7439
 1203TIP3   OH225243   1.004   0.015   1.529  0.0228 -0.1195 -0.1511
 1203TIP3    H125244   0.935  -0.046   1.503  0.2681 -0.9408  1.0383
 1203TIP3    H225245   1.059  -0.036   1.588  1.0375  0.8510 -0.2447
 1204TIP3   OH225246   4.467   1.771   2.088  0.0423  0.7469 -0.3758
 1204TIP3    H125247   4.549   1.786   2.135  0.0872  0.1684 -0.2662
 1204TIP3    H225248   4.463   1.677   2.076 -0.4321  0.8075 -0.7044
 1205TIP3   OH225249   0.489   5.767   0.353 -0.2562 -0.2424  0.0042
 1205TIP3    H125250   0.499   5.764   0.258 -2.0391 -1.3676 -0.1959
 1205TIP3    H225251   0.577   5.756   0.388  0.4468  0.4022 -1.5161
 1206TIP3   OH225252   6.289   2.312   1.394 -0.3013  0.7077 -0.2838
 1206TIP3    H125253   6.297   2.284   1.303  0.3275  2.0239 -0.6564
 1206TIP3    H225254   6.197   2.298   1.416 -0.4597  0.4010 -1.1210
 1207TIP3   OH225255   2.665   1.752   1.119 -0.2693  0.8201  0.5243
 1207TIP3    H125256   2.755   1.725   1.100 -1.2868 -2.0645 -0.9262
 1207TIP3    H225257   2.650   1.827   1.062  0.0245 -1.3037 -2.6612
 1208TIP3   OH225258   5.507   5.210   1.074 -0.1651  0.1775 -0.5235
 1208TIP3    H125259   5.498   5.236   0.983  0.6489 -0.4959 -0.8187
 1208TIP3    H225260   5.454   5.272   1.123  0.3989  1.3283 -1.3408
 1209TIP3   OH225261   0.058   4.290   8.261  0.1564 -0.2287 -0.9023
 1209TIP3    H125262   0.034   4.382   8.251  0.9834  0.0147 -0.7473
 1209TIP3    H225263   0.153   4.289   8.252  0.2164 -0.9863 -0.3258
 1210TIP3   OH225264   3.630   2.306   1.560  0.2083  0.1350  1.0322
 1210TIP3    H125265   3.710   2.331   1.512 -2.0437  1.3420 -2.5395
 1210TIP3    H225266   3.619   2.375   1.625  0.3725  1.9637 -0.7562
 1211TIP3   OH225267   3.106   1.829   3.170 -0.2463 -0.5087  0.2219
 1211TIP3    H125268   3.031   1.771   3.181 -0.6440 -0.0365  0.0610
 1211TIP3    H225269   3.122   1.865   3.257 -0.3266 -0.4691  0.2207
 1212TIP3   OH225270   5.904   1.429   0.931  0.1996  0.0167 -0.3165
 1212TIP3    H125271   5.898   1.375   0.852 -1.0580  0.2042 -0.3686
 1212TIP3    H225272   5.815   1.462   0.945  0.5528  0.5739  0.7718
 1213TIP3   OH225273   6.497   3.965   7.196 -0.6663 -0.2777 -1.2000
 1213TIP3    H125274   6.505   4.005   7.110 -2.0068  1.1591 -0.6887
 1213TIP3    H225275   6.470   4.036   7.254 -0.6953 -1.4093  0.2372
 1214TIP3   OH225276   3.477   4.972   7.445 -0.9245 -0.3547  0.5367
 1214TIP3    H125277   3.527   4.890   7.435  0.6468  0.6478 -0.2226
 1214TIP3    H225278   3.539   5.041   7.420 -1.4346  1.2843  3.3482
 1215TIP3   OH225279   3.536   0.864   1.451 -0.4697 -0.8167  0.3204
 1215TIP3    H125280   3.515   0.953   1.422  0.6257 -0.9253 -0.9093
 1215TIP3    H225281   3.460   0.812   1.426 -0.8707 -0.3252  0.5095
 1216TIP3   OH225282   1.159   0.989   1.814  0.0747 -0.5128 -0.2334
 1216TIP3    H125283   1.066   1.008   1.817  0.2217  0.2980  2.4544
 1216TIP3    H225284   1.166   0.909   1.763 -1.8675  0.3772 -2.0234
 1217TIP3   OH225285   5.065   3.140   2.979 -0.2618 -0.0230  0.2189
 1217TIP3    H125286   4.997   3.119   3.043  0.1528 -0.1024  0.6425
 1217TIP3    H225287   5.018   3.165   2.900 -0.8369  2.2232  1.1922
 1218TIP3   OH225288   3.667   2.140   3.170 -0.1370 -1.1796  0.0546
 1218TIP3    H125289   3.756   2.112   3.150  0.9643  1.6579  0.6235
 1218TIP3    H225290   3.646   2.204   3.102 -1.5859 -1.3920  0.2526
 1219TIP3   OH225291   6.047   1.136   1.338  0.2198  0.5032  0.1079
 1219TIP3    H125292   6.100   1.206   1.376  2.5653 -0.3412 -1.3634
 1219TIP3    H225293   6.012   1.089   1.414  0.3108  2.0040  1.1286
 1220TIP3   OH225294   5.715   1.233   0.457 -0.2638 -0.1499 -0.2070
 1220TIP3    H125295   5.701   1.324   0.482 -1.4336 -0.2469 -0.4529
 1220TIP3    H225296   5.751   1.238   0.368 -1.2812  0.0562 -0.6171
 1221TIP3   OH225297   3.724   6.696   2.573 -0.2505  1.0140 -0.2765
 1221TIP3    H125298   3.746   6.727   2.486  1.0688  2.2829  0.4750
 1221TIP3    H225299   3.780   6.746   2.632 -1.1910  0.2765  1.3207
 1222TIP3   OH225300   0.917   4.190   8.221  0.3810  0.4866 -0.8423
 1222TIP3    H125301   0.944   4.167   8.310  0.6121  1.9841 -0.4961
 1222TIP3    H225302   0.826   4.217   8.230  0.4543  0.7956 -1.0381
 1223TIP3   OH225303   3.525   0.658   8.301  0.7419  0.0845 -0.1421
 1223TIP3    H125304   3.518   0.722   8.230  1.1326  0.9641  0.5885
 1223TIP3    H225305   3.611   0.675   8.340  0.1340  0.3098  1.1686
 1224TIP3   OH225306   4.939   6.301   2.567 -0.3102 -0.5605 -0.4058
 1224TIP3    H125307   4.924   6.330   2.477  0.6501  0.1434 -0.3474
 1224TIP3    H225308   4.944   6.205   2.561  1.0213 -0.4618 -1.3211
 1225TIP3   OH225309   4.253   0.035   0.601  0.0587  0.1049  0.1849
 1225TIP3    H125310   4.273   0.072   0.687 -0.1897  1.0945 -0.1738
 1225TIP3    H225311   4.327   0.060   0.546  0.6472 -1.2721  0.3054
 1226TIP3   OH225312   1.141   1.045   0.344 -0.7269  0.2843 -0.1465
 1226TIP3    H125313   1.180   1.107   0.406 -1.7748 -0.6525  1.5589
 1226TIP3    H225314   1.071   1.002   0.395 -0.7226 -1.5409 -1.5759
 1227TIP3   OH225315   5.190   5.435   2.492 -0.2234 -0.2282  0.1230
 1227TIP3    H125316   5.130   5.446   2.417  2.6254  3.1794 -1.9746
 1227TIP3    H225317   5.147   5.481   2.564 -1.0192  0.3926 -0.7231
 1228TIP3   OH225318   6.499   1.004   7.753  0.1180 -0.7369 -0.2557
 1228TIP3    H125319   6.519   1.068   7.685 -0.2904 -0.8456 -0.4852
 1228TIP3    H225320   6.578   1.000   7.807  0.3953 -0.5471 -0.6423
 1229TIP3   OH225321   2.705   5.247   3.543 -0.0519 -0.1444  0.3380
 1229TIP3    H125322   2.756   5.167   3.535  0.6476  0.3047  0.2445
 1229TIP3    H225323   2.751   5.311   3.488  0.3293  0.7808  1.6918
 1230TIP3   OH225324   3.354   4.313   0.858  0.4445  0.0506  0.2987
 1230TIP3    H125325   3.373   4.396   0.814 -1.6029  1.2316  1.4725
 1230TIP3    H225326   3.286   4.272   0.804 -0.2111  0.2734  0.9344
 1231TIP3   OH225327   1.826   5.647   1.592 -0.8314  0.0865 -0.4229
 1231TIP3    H125328   1.759   5.714   1.582  0.1783  1.2454  0.2462
 1231TIP3    H225329   1.793   5.589   1.661 -1.3010  0.4406 -0.3458
 1232TIP3   OH225330   6.823   6.139   0.314 -0.6038 -0.5021 -0.2130
 1232TIP3    H125331   6.747   6.150   0.256 -0.1515 -4.3847 -1.8756
 1232TIP3    H225332   6.894   6.185   0.270 -1.2895  0.5301 -0.2671
 1233TIP3   OH225333   2.947   1.037   3.055  0.0668 -0.6178  0.3822
 1233TIP3    H125334   2.939   0.964   2.993 -1.9895 -0.0258 -0.1119
 1233TIP3    H225335   3.033   1.075   3.036 -0.5563 -0.3585 -2.2429
 1234TIP3   OH225336   0.839   4.774   0.257  0.2213  0.0180 -0.3464
 1234TIP3    H125337   0.844   4.680   0.277 -2.3766 -0.2127 -0.5030
 1234TIP3    H225338   0.842   4.817   0.342 -2.8247 -0.5238  0.1455
 1235TIP3   OH225339   5.668   6.522   8.467  0.3822  0.5041 -0.0505
 1235TIP3    H125340   5.730   6.591   8.490 -1.8634  2.3708  0.8351
 1235TIP3    H225341   5.663   6.526   8.371  1.3314  0.5712 -0.1077
 1236TIP3   OH225342   6.173   1.319   2.670 -0.0900  0.4332 -0.3705
 1236TIP3    H125343   6.111   1.256   2.632 -2.4006  1.3834  1.5077
 1236TIP3    H225344   6.233   1.265   2.722 -0.4174 -0.4065 -0.8385
 1237TIP3   OH225345   4.662   6.544   0.116  0.2699  0.0853 -0.1213
 1237TIP3    H125346   4.706   6.624   0.143  1.0850 -0.1636 -0.6764
 1237TIP3    H225347   4.604   6.571   0.045  0.9175  0.1051 -0.6471
 1238TIP3   OH225348   4.857   5.116   7.251 -0.3912 -0.0520 -0.3077
 1238TIP3    H125349   4.770   5.114   7.290 -0.3126 -1.1937 -0.1663
 1238TIP3    H225350   4.850   5.179   7.179 -0.5848  2.0053  1.3886
 1239TIP3   OH225351   3.741   0.827   0.213 -0.7128 -0.8221  0.4668
 1239TIP3    H125352   3.699   0.788   0.136 -0.9258 -1.6310  0.9777
 1239TIP3    H225353   3.727   0.763   0.282  0.7984 -0.8180  0.8132
 1240TIP3   OH225354   2.929   5.036   8.044  0.1975 -0.3228  0.0705
 1240TIP3    H125355   2.913   5.084   8.125  0.4179  0.1282 -0.1455
 1240TIP3    H225356   2.869   4.962   8.047 -2.1492  1.4182 -0.8305
 1241TIP3   OH225357   5.123   3.274   8.622  0.2336  0.2497 -0.0647
 1241TIP3    H125358   5.169   3.302   8.702  0.5703 -1.0669  0.2283
 1241TIP3    H225359   5.158   3.330   8.553 -0.3351  1.6657  0.7694
 1242TIP3   OH225360   5.957   4.282   8.342  0.4704  0.1055  0.6410
 1242TIP3    H125361   5.978   4.371   8.315  1.5234 -0.2476  0.2265
 1242TIP3    H225362   6.042   4.236   8.342 -0.1547 -1.1116 -0.0233
 1243TIP3   OH225363   5.126   0.722   2.523 -0.0269 -0.3820 -0.5795
 1243TIP3    H125364   5.069   0.662   2.475 -0.4387  2.9447 -4.9134
 1243TIP3    H225365   5.212   0.712   2.482  0.4889  0.3146  0.2776
 1244TIP3   OH225366   4.296   6.798   1.833 -1.0291 -0.4059  0.7449
 1244TIP3    H125367   4.328   6.886   1.854 -0.0730 -0.4949 -0.2301
 1244TIP3    H225368   4.340   6.776   1.751 -2.6564 -1.0702  0.0217
 1245TIP3   OH225369   3.011   1.463   7.509 -0.3099 -0.0053  0.4136
 1245TIP3    H125370   2.968   1.446   7.592 -0.9747 -0.7208 -0.0687
 1245TIP3    H225371   3.092   1.509   7.533  0.1367 -1.3170  1.5533
 1246TIP3   OH225372   4.576   0.794   7.462 -0.2271  0.2891 -0.0719
 1246TIP3    H125373   4.517   0.815   7.389  0.4714 -0.5102 -0.8948
 1246TIP3    H225374   4.524   0.738   7.519 -0.0531 -1.0911 -1.2058
 1247TIP3   OH225375   1.268   2.408   8.206  0.9317 -0.3946  0.6510
 1247TIP3    H125376   1.363   2.420   8.202  1.0758 -1.5513 -0.1210
 1247TIP3    H225377   1.248   2.356   8.128 -0.0342 -1.9520  1.8860
 1248TIP3   OH225378   3.834   6.630   0.041  0.3067 -0.3202  0.1038
 1248TIP3    H125379   3.763   6.630   0.105  1.4966 -0.2966  1.4741
 1248TIP3    H225380   3.864   6.539   0.039  0.3797 -0.2882 -0.3086
 1249TIP3   OH225381   1.604   5.732   2.875  0.0038  0.0044  0.3656
 1249TIP3    H125382   1.549   5.655   2.888 -3.5447  2.3363  0.5854
 1249TIP3    H225383   1.609   5.742   2.780 -0.3975  0.0635  0.3495
 1250TIP3   OH225384   0.279   1.488   0.509  0.0801 -0.0613 -0.0032
 1250TIP3    H125385   0.191   1.481   0.547  1.1404  2.2594  3.3549
 1250TIP3    H225386   0.273   1.561   0.447 -0.3768  0.1326  0.2638
 1251TIP3   OH225387   5.811   2.233   1.694  0.0320  0.4329 -0.3407
 1251TIP3    H125388   5.750   2.165   1.725  0.4919 -0.7329 -1.8751
 1251TIP3    H225389   5.883   2.231   1.758 -0.4107  0.1612  0.1618
 1252TIP3   OH225390   2.202   4.835   0.616 -0.1447 -0.0312 -0.0997
 1252TIP3    H125391   2.174   4.912   0.568 -1.4239 -0.4679 -0.0973
 1252TIP3    H225392   2.120   4.791   0.641  0.5353 -0.8885  0.7011
 1253TIP3   OH225393   3.491   6.504   2.936  0.6809 -0.4286 -0.1948
 1253TIP3    H125394   3.406   6.475   2.902  0.5978 -0.6694  0.2100
 1253TIP3    H225395   3.541   6.423   2.947  0.1481 -0.5425  1.7569
 1254TIP3   OH225396   2.339   3.972   2.757  0.5923 -0.6473 -0.5854
 1254TIP3    H125397   2.388   4.021   2.823 -1.9548 -1.4322  2.1229
 1254TIP3    H225398   2.343   3.881   2.787 -1.2091 -0.9227 -1.0821
 1255TIP3   OH225399   0.484   2.260   2.282 -0.0337  0.2910  0.6417
 1255TIP3    H125400   0.576   2.274   2.260  0.4329 -1.1569  1.4904
 1255TIP3    H225401   0.435   2.297   2.208  1.2322  0.7940  0.0303
 1256TIP3   OH225402   5.200   4.382   8.128  0.6491  0.2175 -0.2334
 1256TIP3    H125403   5.158   4.363   8.045  2.2546 -1.7402 -0.6744
 1256TIP3    H225404   5.158   4.324   8.191  2.3420 -1.5172 -0.6154
 1257TIP3   OH225405   6.348   3.592   0.352  0.6750 -0.7098 -0.5535
 1257TIP3    H125406   6.433   3.548   0.364  1.4937  1.1800  1.0746
 1257TIP3    H225407   6.357   3.674   0.399 -1.8518 -0.1268 -0.9733
 1258TIP3   OH225408   6.781   2.593   7.671 -0.2543 -0.1523  0.5383
 1258TIP3    H125409   6.688   2.570   7.680 -0.3482 -1.1098 -2.0425
 1258TIP3    H225410   6.828   2.515   7.697 -0.2366 -0.1184  0.6060
 1259TIP3   OH225411   0.403   0.203   2.841 -0.2767  0.2771  0.1297
 1259TIP3    H125412   0.320   0.160   2.823 -0.4033 -0.4085  2.0917
 1259TIP3    H225413   0.379   0.293   2.863 -0.7171 -0.2275  1.9563
 1260TIP3   OH225414   3.484   4.595   2.691 -0.3240  0.0966 -0.2685
 1260TIP3    H125415   3.412   4.603   2.628  0.2048  1.1824 -0.7649
 1260TIP3    H225416   3.482   4.504   2.718 -2.2235  0.2144  0.1331
 1261TIP3   OH225417   0.478   6.079   1.922  0.7402  0.0832  0.5875
 1261TIP3    H125418   0.490   6.164   1.965  2.5885 -0.4155  1.1361
 1261TIP3    H225419   0.477   6.016   1.994 -2.6717 -0.2933  0.3853
 1262TIP3   OH225420   2.478   4.768   2.659  0.2649 -0.2244 -0.1630
 1262TIP3    H125421   2.509   4.804   2.576  0.0289 -1.8589 -1.0073
 1262TIP3    H225422   2.406   4.710   2.635  1.5038 -2.3329  0.9045
 1263TIP3   OH225423   0.860   6.689   0.096  0.2285 -0.6853 -0.1994
 1263TIP3    H125424   0.950   6.681   0.127  0.0104 -4.4810 -0.0493
 1263TIP3    H225425   0.848   6.614   0.038 -3.0678 -0.7649  0.4009
 1264TIP3   OH225426   5.629   5.608   8.488 -0.0910 -0.0515  0.0971
 1264TIP3    H125427   5.604   5.596   8.397 -0.2697 -1.7479  0.3349
 1264TIP3    H225428   5.723   5.592   8.490 -0.1342 -0.2827  0.2568
 1265TIP3   OH225429   5.277   1.234   8.587  0.2856  0.1168 -0.8937
 1265TIP3    H125430   5.202   1.274   8.631  1.3525 -0.4337  1.5785
 1265TIP3    H225431   5.253   1.142   8.577 -0.2690  0.3931 -2.2326
 1266TIP3   OH225432   4.868   5.889   0.711 -0.0211 -0.7765  0.0914
 1266TIP3    H125433   4.878   5.802   0.752  0.3103 -0.0137  1.7116
 1266TIP3    H225434   4.893   5.950   0.780  1.9910  0.5721 -1.7020
 1267TIP3   OH225435   5.290   4.345   2.311 -0.1588  0.2865  0.4677
 1267TIP3    H125436   5.368   4.308   2.352  1.1655  1.6526 -0.6771
 1267TIP3    H225437   5.285   4.301   2.226  0.6464  1.6644 -0.3388
 1268TIP3   OH225438   0.569   5.045   8.208  0.1795 -0.0121  0.1095
 1268TIP3    H125439   0.630   5.061   8.280  1.0309 -0.4996 -0.4832
 1268TIP3    H225440   0.582   4.952   8.187 -0.1926  0.0822 -0.5503
 1269TIP3   OH225441   0.346   0.517   0.188 -0.2668  0.1714 -0.6266
 1269TIP3    H125442   0.397   0.524   0.107 -0.7764  0.7972 -0.8966
 1269TIP3    H225443   0.332   0.607   0.215  0.0745 -0.0364  0.2833
 1270TIP3   OH225444   0.609   0.239   2.567  0.5006 -0.0191  0.2110
 1270TIP3    H125445   0.670   0.274   2.501  1.7873 -0.0317  1.3379
 1270TIP3    H225446   0.633   0.285   2.647 -1.6838  0.6954  0.5051
 1271TIP3   OH225447   1.280   1.738   0.954  0.6355 -0.0903 -0.3289
 1271TIP3    H125448   1.242   1.802   1.015  0.0624  0.6883 -1.4707
 1271TIP3    H225449   1.269   1.654   0.999 -1.1665  0.2776  0.0254
 1272TIP3   OH225450   1.437   4.881   2.106  1.0804 -0.4768  0.0399
 1272TIP3    H125451   1.518   4.922   2.137  0.2853 -0.1209  1.7785
 1272TIP3    H225452   1.464   4.793   2.080  2.3003  0.1733 -1.0102
 1273TIP3   OH225453   6.856   0.531   1.195 -0.3137 -0.2409  0.2250
 1273TIP3    H125454   6.792   0.468   1.229 -0.9710  0.9184  1.2064
 1273TIP3    H225455   6.941   0.492   1.215 -0.6703 -1.8836 -1.2387
 1274TIP3   OH225456   6.744   3.591   0.955  0.0433  0.1942 -0.5291
 1274TIP3    H125457   6.678   3.604   0.886  0.4827 -0.8924 -1.1784
 1274TIP3    H225458   6.703   3.628   1.033 -1.2594 -0.2499 -0.9629
 1275TIP3   OH225459   0.217   2.019   3.412 -0.0412 -0.3712  0.0935
 1275TIP3    H125460   0.194   2.099   3.458  1.9264 -0.0353  0.5727
 1275TIP3    H225461   0.206   1.949   3.476 -1.1814 -0.4320 -0.1502
 1276TIP3   OH225462   0.017   5.767   1.379  0.3765 -0.8988 -0.0726
 1276TIP3    H125463  -0.008   5.859   1.372  1.1866 -0.5643  1.1345
 1276TIP3    H225464  -0.066   5.719   1.373 -0.3966  0.0716  1.9087
 1277TIP3   OH225465   4.361   4.751   2.732 -1.0380 -0.5845  0.2034
 1277TIP3    H125466   4.424   4.692   2.691  0.8342  0.8021  0.9361
 1277TIP3    H225467   4.336   4.707   2.813  0.7239 -0.1959  0.9918
 1278TIP3   OH225468   4.379   1.966   0.071 -0.4009  0.0314  0.6040
 1278TIP3    H125469   4.450   1.933   0.126 -0.7494 -1.8922 -0.0284
 1278TIP3    H225470   4.322   2.013   0.132  0.1671 -0.4643  1.5555
 1279TIP3   OH225471   2.932   5.021   3.533 -0.1751  0.4862 -0.3852
 1279TIP3    H125472   2.939   4.958   3.462 -0.3580 -0.4597  0.4053
 1279TIP3    H225473   3.020   5.023   3.572 -0.2791  0.3730 -0.1376
 1280TIP3   OH225474   5.797   2.883   7.913  0.3361  0.2315 -0.0586
 1280TIP3    H125475   5.720   2.930   7.945  1.0849  1.2448  0.2761
 1280TIP3    H225476   5.780   2.869   7.820  0.2744  1.5271 -0.2588
 1281TIP3   OH225477   1.877   1.522   2.576  0.4388 -0.7230 -0.1453
 1281TIP3    H125478   1.861   1.596   2.635  0.4919 -0.4215 -0.5052
 1281TIP3    H225479   1.972   1.508   2.581  1.2890  2.2761 -3.5841
 1282TIP3   OH225480   6.584   1.498   2.220  0.1130  1.1048 -0.1738
 1282TIP3    H125481   6.588   1.402   2.220  2.2281  1.0446  2.7399
 1282TIP3    H225482   6.547   1.521   2.135 -1.1322 -2.2954 -0.6906
 1283TIP3   OH225483   0.733   0.732   8.390  0.7812 -0.0141 -0.3753
 1283TIP3    H125484   0.684   0.785   8.452  0.9023  0.6877 -0.8719
 1283TIP3    H225485   0.678   0.655   8.376 -0.2057  0.7751 -0.9583
 1284TIP3   OH225486   4.524   2.868   0.303  0.5390 -0.2577 -0.1924
 1284TIP3    H125487   4.604   2.913   0.276 -0.6764  1.5756 -0.8379
 1284TIP3    H225488   4.554   2.805   0.369  2.5573  0.0796 -0.7164
 1285TIP3   OH225489   4.509   0.879   0.793  0.3359  0.2552 -0.3298
 1285TIP3    H125490   4.414   0.885   0.801  0.4835  0.2462  1.8164
 1285TIP3    H225491   4.541   0.962   0.828  1.1326  0.5088 -1.5763
 1286TIP3   OH225492   6.898   5.889   7.996  0.0687 -0.4074 -0.1968
 1286TIP3    H125493   6.959   5.877   7.924  0.0842  0.7821 -0.4066
 1286TIP3    H225494   6.933   5.834   8.066  1.9480  0.9361  0.0152
 1287TIP3   OH225495   5.469   5.209   3.027 -0.0243 -0.0017  0.0953
 1287TIP3    H125496   5.473   5.119   2.993 -0.6066 -0.3903  0.9920
 1287TIP3    H225497   5.402   5.205   3.096  0.0429  1.0950  0.2412
 1288TIP3   OH225498   2.344   0.886   8.021 -0.4126 -0.3671 -0.2077
 1288TIP3    H125499   2.437   0.866   8.011  0.5677  2.7449  1.2418
 1288TIP3    H225500   2.326   0.873   8.114 -1.7602 -1.8700 -0.6337
 1289TIP3   OH225501   6.413   5.551   1.581 -0.4407 -0.0329 -0.6209
 1289TIP3    H125502   6.377   5.639   1.591  1.7650  0.8345  0.3385
 1289TIP3    H225503   6.349   5.494   1.624 -1.0086  1.3338  0.4386
 1290TIP3   OH225504   0.577   4.411   0.726 -0.1338 -0.5577  0.1068
 1290TIP3    H125505   0.520   4.453   0.790 -1.2139 -0.1221 -1.1116
 1290TIP3    H225506   0.533   4.423   0.642  1.0328 -1.4952 -0.6781
 1291TIP3   OH225507   5.014   6.089   1.528 -0.1770 -0.2613 -0.7185
 1291TIP3    H125508   5.001   6.176   1.565 -0.1045 -1.3753  2.1955
 1291TIP3    H225509   4.926   6.060   1.503 -0.6760 -0.4817  1.1638
 1292TIP3   OH225510   4.587   2.403   8.054  0.2234 -0.3170  0.1895
 1292TIP3    H125511   4.657   2.467   8.045 -0.4504  0.5230  0.6981
 1292TIP3    H225512   4.529   2.441   8.121 -1.3981 -0.3384 -1.1369
 1293TIP3   OH225513   2.785   3.011   7.237  0.2826 -0.2205  0.3480
 1293TIP3    H125514   2.712   3.069   7.218  1.5452  1.0596 -0.8646
 1293TIP3    H225515   2.785   2.948   7.165  0.7970  0.2399 -0.0639
 1294TIP3   OH225516   1.884   1.975   8.423 -0.2261  0.3506 -0.0775
 1294TIP3    H125517   1.817   1.952   8.486  0.3877  1.5691  1.0728
 1294TIP3    H225518   1.837   2.021   8.353 -0.6464  0.9130  0.5633
 1295TIP3   OH225519   1.293   2.469   2.956 -0.7867  0.5850 -0.3832
 1295TIP3    H125520   1.251   2.412   2.892 -2.2722  1.7159 -0.4777
 1295TIP3    H225521   1.234   2.545   2.963  0.0099  1.0980  1.3401
 1296TIP3   OH225522   0.835   4.469   3.188  0.2166  0.3183  0.3462
 1296TIP3    H125523   0.765   4.498   3.246 -1.2689 -0.0040 -1.1888
 1296TIP3    H225524   0.865   4.387   3.227 -1.7681 -0.6688 -0.0572
 1297TIP3   OH225525   4.156   5.828   0.390  0.2997  0.6652  0.2617
 1297TIP3    H125526   4.215   5.867   0.326  1.2385 -0.5366  0.3690
 1297TIP3    H225527   4.188   5.862   0.474  1.6271 -0.8507  0.4345
 1298TIP3   OH225528   1.033   4.269   1.637 -0.3808  0.4039 -0.8506
 1298TIP3    H125529   1.001   4.272   1.727  0.6310 -0.0726 -0.4670
 1298TIP3    H225530   1.037   4.361   1.610  0.1017  0.6092 -0.1189
 1299TIP3   OH225531   3.639   4.734   0.141 -0.0751  0.4259  0.0814
 1299TIP3    H125532   3.634   4.820   0.099 -0.3946  1.3206  1.8321
 1299TIP3    H225533   3.568   4.735   0.205  0.7090 -0.6314  1.0110
 1300TIP3   OH225534   1.932   2.850   2.166  0.0592  0.4127 -0.4521
 1300TIP3    H125535   2.021   2.873   2.139  0.5575 -0.3338  0.4923
 1300TIP3    H225536   1.878   2.920   2.130  1.0488  1.0008 -0.8537
 1301TIP3   OH225537   1.367   0.823   1.150  0.2885  0.0845  0.2577
 1301TIP3    H125538   1.408   0.907   1.169  0.2914  0.1860 -0.1843
 1301TIP3    H225539   1.293   0.845   1.093  0.1591 -0.1902  0.3194
 1302TIP3   OH225540   0.657   6.835   8.034  0.0054 -0.0322 -0.2589
 1302TIP3    H125541   0.608   6.846   7.952 -1.2459  1.3884  0.6320
 1302TIP3    H225542   0.594   6.795   8.094  0.4014  0.4591  0.4900
 1303TIP3   OH225543   6.076   2.738   2.708  0.2086  0.0961  0.2005
 1303TIP3    H125544   6.070   2.719   2.801 -0.9645 -1.1406 -0.0888
 1303TIP3    H225545   6.090   2.832   2.703  1.3260  0.0357  1.6358
 1304TIP3   OH225546   3.329   2.522   7.497 -0.2527 -0.3902  0.2285
 1304TIP3    H125547   3.333   2.536   7.402 -0.1218 -0.7543  0.1822
 1304TIP3    H225548   3.313   2.429   7.508  0.0946 -0.4103  0.5752
 1305TIP3   OH225549   5.999   3.456   0.033  0.6218  0.7705  0.0822
 1305TIP3    H125550   5.953   3.451  -0.050  1.1653 -2.8862 -0.1692
 1305TIP3    H225551   5.932   3.435   0.099  1.1164 -1.1477  0.0322
 1306TIP3   OH225552   1.287   3.256   2.390 -0.0255  0.7924  0.3227
 1306TIP3    H125553   1.363   3.226   2.441 -0.5299 -2.0502 -0.3787
 1306TIP3    H225554   1.211   3.220   2.438 -0.7228  1.1603 -0.4957
 1307TIP3   OH225555   3.226   3.299   0.159  0.6890 -0.2020  0.1483
 1307TIP3    H125556   3.305   3.351   0.146  0.1161  0.9803  1.2590
 1307TIP3    H225557   3.181   3.303   0.074  1.2798  0.0202 -0.1622
 1308TIP3   OH225558   4.319   4.853   0.912 -0.0349 -0.2210 -1.0774
 1308TIP3    H125559   4.400   4.806   0.892  0.3185  0.7343 -1.9732
 1308TIP3    H225560   4.296   4.896   0.830 -0.8256  0.4563 -0.5071
 1309TIP3   OH225561   3.545   6.458   0.402  0.2577  0.2749 -0.1383
 1309TIP3    H125562   3.461   6.499   0.424  0.2690  0.2775 -0.0981
 1309TIP3    H225563   3.521   6.377   0.357  0.2355  0.3310 -0.2273
 1310TIP3   OH225564   4.221   6.225   8.197  0.1617 -0.2301  0.5254
 1310TIP3    H125565   4.168   6.145   8.198 -0.9188  0.4430 -0.2476
 1310TIP3    H225566   4.271   6.220   8.116 -0.0616 -0.0435  0.3723
 1311TIP3   OH225567   4.836   4.616   0.482  0.1572  0.1636 -0.3349
 1311TIP3    H125568   4.920   4.637   0.521 -0.2673  1.9462 -0.2700
 1311TIP3    H225569   4.839   4.656   0.395 -0.6072  0.2449 -0.3366
 1312TIP3   OH225570   0.634   4.971   3.430 -0.0349 -0.0082  0.6183
 1312TIP3    H125571   0.542   4.970   3.405  0.5534 -1.1267 -1.8790
 1312TIP3    H225572   0.663   5.060   3.414  0.0607 -0.4355 -2.0770
 1313TIP3   OH225573   3.319   6.061   1.542  0.2387 -0.3134 -0.9240
 1313TIP3    H125574   3.339   6.154   1.548 -1.3368  0.0508 -0.8080
 1313TIP3    H225575   3.404   6.019   1.530  0.9835  1.1279 -0.9600
 1314TIP3   OH225576   1.271   3.441   1.424 -0.3600  0.3782  0.3031
 1314TIP3    H125577   1.225   3.426   1.342 -0.0008  1.1737 -0.0546
 1314TIP3    H225578   1.205   3.476   1.483 -0.6260 -0.2255  0.3680
 1315TIP3   OH225579   2.148   4.550   1.448 -0.0746  0.6905 -0.5311
 1315TIP3    H125580   2.106   4.484   1.393  0.2604 -1.0960  1.2275
 1315TIP3    H225581   2.235   4.515   1.465  0.0948  1.5630  0.4914
 1316TIP3   OH225582   3.066   5.925   1.247  0.3307 -0.5271  0.2490
 1316TIP3    H125583   3.151   5.954   1.213  0.7684 -0.7191  1.1546
 1316TIP3    H225584   3.067   5.950   1.339 -1.1489  0.6815 -0.0239
 1317TIP3   OH225585   0.704   3.691   2.668  0.6248 -0.0473  0.1041
 1317TIP3    H125586   0.611   3.694   2.690  0.4788 -2.2898 -0.0259
 1317TIP3    H225587   0.746   3.662   2.749  0.9017 -1.3740 -0.4844
 1318TIP3   OH225588   4.124   5.520   2.565  0.4739  0.3983  0.1631
 1318TIP3    H125589   4.053   5.464   2.534  1.6443 -0.2095 -1.5558
 1318TIP3    H225590   4.173   5.464   2.625 -0.1134  0.6229  0.8736
 1319TIP3   OH225591   0.773   5.008   7.857  0.1032  0.0174 -0.0905
 1319TIP3    H125592   0.796   5.100   7.842  0.5125 -0.5787 -3.8264
 1319TIP3    H225593   0.816   4.960   7.787  1.3968 -3.3742  2.7239
 1320TIP3   OH225594   6.378   0.180   1.362 -0.5553  0.1539  0.3729
 1320TIP3    H125595   6.287   0.194   1.387 -0.2805  1.4031  0.7614
 1320TIP3    H225596   6.408   0.267   1.334 -0.0036 -0.6095 -1.5054
 1321TIP3   OH225597   2.051   1.575   0.640  0.3680 -0.1230  0.1579
 1321TIP3    H125598   2.043   1.576   0.544  0.0245  0.6815  0.1870
 1321TIP3    H225599   1.960   1.567   0.670  0.1805  2.2485  0.4301
 1322TIP3   OH225600   2.119   3.140   2.256  0.0830 -0.0590 -1.0675
 1322TIP3    H125601   2.115   3.068   2.194 -2.0477  0.9286 -2.1983
 1322TIP3    H225602   2.125   3.219   2.201  0.3701  0.7261  0.0500
 1323TIP3   OH225603   6.025   5.402   2.240 -0.5342  0.6646 -0.0626
 1323TIP3    H125604   6.004   5.394   2.333  0.0873  0.5007  0.0700
 1323TIP3    H225605   5.952   5.452   2.203  0.2925  2.7282  0.9464
 1324TIP3   OH225606   4.280   3.438   0.435  0.1408  0.4313  0.5199
 1324TIP3    H125607   4.215   3.455   0.503 -0.5962  0.1080 -0.0893
 1324TIP3    H225608   4.229   3.408   0.360  0.9120  1.0244 -0.2672
 1325TIP3   OH225609   6.506   0.104   2.225  0.6752 -0.6545 -0.3287
 1325TIP3    H125610   6.508   0.074   2.316  1.0817  0.0270 -0.1073
 1325TIP3    H225611   6.414   0.098   2.200  0.2460  0.9209  0.7324
 1326TIP3   OH225612   3.827   4.903   7.592 -0.2237  0.9902  0.3434
 1326TIP3    H125613   3.854   4.983   7.637  0.0513  1.5208 -0.7375
 1326TIP3    H225614   3.893   4.838   7.617  1.4769  1.9591 -1.3233
 1327TIP3   OH225615   4.991   0.883   3.265 -0.1573 -0.0319 -0.1078
 1327TIP3    H125616   4.951   0.853   3.347 -0.2850 -0.3480 -0.2860
 1327TIP3    H225617   5.047   0.811   3.237 -1.2994 -0.5537 -1.1112
 1328TIP3   OH225618   0.172   1.662   3.868  0.3041 -0.1761  0.1512
 1328TIP3    H125619   0.229   1.590   3.839 -0.5305 -1.0548  0.6079
 1328TIP3    H225620   0.127   1.627   3.945  0.8470  1.3266  1.1798
 1329TIP3   OH225621   3.472   3.903   1.010  0.8644 -0.4559  0.0511
 1329TIP3    H125622   3.529   3.827   1.024  0.3151 -1.0572 -0.8635
 1329TIP3    H225623   3.446   3.897   0.918  1.9381  1.6367 -0.4625
 1330TIP3   OH225624   3.417   6.265   0.260 -0.5606  0.2721  0.2954
 1330TIP3    H125625   3.354   6.242   0.328 -0.5803 -0.1785  0.1321
 1330TIP3    H225626   3.366   6.315   0.196 -0.1856  2.0811  1.3713
 1331TIP3   OH225627   4.381   0.390   2.067 -1.1398 -0.2152 -0.8539
 1331TIP3    H125628   4.470   0.358   2.053 -1.7895 -2.4378 -0.2168
 1331TIP3    H225629   4.382   0.479   2.030  1.7876  0.5247  0.7004
 1332TIP3   OH225630   5.250   4.659   1.342 -0.0501  0.0227  0.0787
 1332TIP3    H125631   5.192   4.624   1.410  0.7249 -0.8937  0.2775
 1332TIP3    H225632   5.207   4.740   1.314 -1.3867 -0.5923  0.2698
 1333TIP3   OH225633   4.452   0.519   2.705 -0.2285  0.0623 -0.7424
 1333TIP3    H125634   4.426   0.493   2.793  0.0320 -0.8334 -0.9218
 1333TIP3    H225635   4.542   0.486   2.695 -0.4479 -0.3206 -1.5317
 1334TIP3   OH225636   1.995   4.938   3.684  0.0497  0.4853  0.0482
 1334TIP3    H125637   2.040   4.860   3.717  1.9547  0.8061 -1.5835
 1334TIP3    H225638   1.902   4.912   3.680  0.6279 -1.7462 -0.5105
 1335TIP3   OH225639   4.760   5.101   1.939  0.1734 -0.4327 -0.3593
 1335TIP3    H125640   4.732   5.045   1.866 -0.4181 -1.4043  0.5816
 1335TIP3    H225641   4.855   5.090   1.942 -0.0484 -2.8190  0.8502
 1336TIP3   OH225642   6.305   3.700   2.542  0.0631 -0.2510  0.5049
 1336TIP3    H125643   6.379   3.654   2.502 -0.2662 -0.9735  0.6954
 1336TIP3    H225644   6.324   3.699   2.636 -0.4336 -0.9265  0.6109
 1337TIP3   OH225645   5.761   3.412   0.207 -0.1613 -0.4017  0.3526
 1337TIP3    H125646   5.745   3.327   0.248  0.9899 -0.3989  0.8509
 1337TIP3    H225647   5.682   3.464   0.226  0.0914 -0.5907  2.0740
 1338TIP3   OH225648   5.904   1.499   8.514  0.0821  0.3453 -0.1930
 1338TIP3    H125649   5.842   1.571   8.529  1.6361  1.5054  1.0603
 1338TIP3    H225650   5.934   1.476   8.602  0.7863 -0.8001 -0.7129
 1339TIP3   OH225651   3.097   3.617   8.016 -0.8244 -0.2829  0.3448
 1339TIP3    H125652   3.148   3.540   8.041  0.0450  0.9355  2.5184
 1339TIP3    H225653   3.006   3.592   8.034 -0.9909 -1.9787 -2.2843
 1340TIP3   OH225654   5.642   6.001   0.332 -0.0675 -0.1335 -0.0427
 1340TIP3    H125655   5.634   6.096   0.325  2.4054  0.0298 -1.8799
 1340TIP3    H225656   5.676   5.986   0.420 -0.4959  0.6688  0.2694
 1341TIP3   OH225657   4.091   5.408   1.585  0.0895 -0.1867 -0.1242
 1341TIP3    H125658   4.055   5.485   1.542 -0.9627 -0.8058 -0.3713
 1341TIP3    H225659   4.120   5.351   1.513  0.3969 -0.2507  0.0463
 1342TIP3   OH225660   4.681   2.160   2.856  0.0443  0.0229  0.7765
 1342TIP3    H125661   4.680   2.139   2.762 -1.5999 -0.2367  0.8337
 1342TIP3    H225662   4.712   2.080   2.898 -1.3269 -0.6151  0.6056
 1343TIP3   OH225663   5.586   3.261   2.158 -0.1810 -0.9406  0.3008
 1343TIP3    H125664   5.655   3.257   2.091 -0.2169  0.1187  0.1754
 1343TIP3    H225665   5.633   3.257   2.241 -0.0844 -1.6168  0.2196
 1344TIP3   OH225666   2.227   2.761   0.676  0.1030 -0.4934 -0.2141
 1344TIP3    H125667   2.176   2.762   0.757 -0.5763 -0.2614 -0.6296
 1344TIP3    H225668   2.175   2.814   0.615  2.9760  3.6265  0.5531
 1345TIP3   OH225669   1.869   4.327   7.639  0.4100  0.3483 -0.6879
 1345TIP3    H125670   1.862   4.338   7.544 -0.4766  0.3008 -0.6400
 1345TIP3    H225671   1.842   4.411   7.675  0.4056  0.2542 -0.4712
 1346TIP3   OH225672   2.276   4.291   8.408 -1.0666 -0.8621  0.2317
 1346TIP3    H125673   2.264   4.275   8.314 -0.2011 -1.3102  0.1849
 1346TIP3    H225674   2.188   4.303   8.442 -1.3011  2.2615 -1.1272
 1347TIP3   OH225675   6.213   2.610   2.164  0.8283  0.5484  0.2715
 1347TIP3    H125676   6.272   2.584   2.234  0.4631 -0.2679  0.2812
 1347TIP3    H225677   6.179   2.695   2.191  0.9353  0.3828  0.9344
 1348TIP3   OH225678   2.495   0.567   1.288 -0.2585  0.4434 -0.4601
 1348TIP3    H125679   2.427   0.619   1.330 -1.9864  0.2808 -2.8572
 1348TIP3    H225680   2.465   0.477   1.298 -0.4522  0.3733 -1.5440
 1349TIP3   OH225681   4.104   2.985   2.035  0.1674  0.5990 -0.9109
 1349TIP3    H125682   4.017   3.003   2.001  0.5277  3.9653 -0.4115
 1349TIP3    H225683   4.163   3.006   1.962  0.6483 -0.2842 -0.7961
 1350TIP3   OH225684   2.497   2.121   8.123 -0.1747 -0.6081 -0.1959
 1350TIP3    H125685   2.484   2.210   8.090 -0.5348 -0.8823 -0.7968
 1350TIP3    H225686   2.534   2.073   8.049 -1.1281 -1.2673 -0.2566
 1351TIP3   OH225687   3.947   3.815   0.473 -0.1269 -0.1956 -0.3284
 1351TIP3    H125688   3.948   3.827   0.378 -0.0486 -0.5360 -0.3733
 1351TIP3    H225689   3.900   3.732   0.486  0.7435 -0.6759 -0.1374
 1352TIP3   OH225690   2.944   1.770   7.979 -0.2689  0.0765 -0.2935
 1352TIP3    H125691   2.939   1.782   8.073  0.6183 -0.6739 -0.1408
 1352TIP3    H225692   2.952   1.676   7.967  1.8287  0.2947 -0.9847
 1353TIP3   OH225693   1.676   1.245   1.169 -0.5350 -0.3786 -0.4296
 1353TIP3    H125694   1.612   1.316   1.159  1.7208  1.8977  0.2516
 1353TIP3    H225695   1.735   1.275   1.238  1.6510 -2.0423 -1.4335
 1354TIP3   OH225696   5.233   4.142   3.392  0.2447 -0.1527 -0.2105
 1354TIP3    H125697   5.313   4.106   3.432 -0.2760 -1.9597 -0.7063
 1354TIP3    H225698   5.246   4.237   3.395  1.8226 -0.3532  0.9140
 1355TIP3   OH225699   1.283   1.577   0.707 -0.1727  0.0005  0.1022
 1355TIP3    H125700   1.344   1.504   0.699 -0.0133  0.2632 -1.5160
 1355TIP3    H225701   1.291   1.606   0.798  1.3996 -0.5910  0.1878
 1356TIP3   OH225702   1.892   1.475   7.132  0.8396  0.0578 -0.0767
 1356TIP3    H125703   1.888   1.545   7.067 -2.1571  0.3126  0.2391
 1356TIP3    H225704   1.878   1.520   7.216 -0.9293 -0.8251  0.1514
 1357TIP3   OH225705   0.893   4.434   8.607 -0.0112  0.2173 -0.0258
 1357TIP3    H125706   0.853   4.349   8.622 -1.7594  0.6564 -1.7803
 1357TIP3    H225707   0.981   4.426   8.645  0.0717 -2.5139 -0.5725
 1358TIP3   OH225708   5.463   5.400   8.628  0.1273 -0.4071 -0.8448
 1358TIP3    H125709   5.495   5.467   8.567  0.0053  0.2899 -0.1503
 1358TIP3    H225710   5.523   5.326   8.616  0.8244  0.1697 -0.9585
 1359TIP3   OH225711   3.067   4.403   0.431 -0.1591 -0.1174 -0.5500
 1359TIP3    H125712   3.011   4.380   0.506  2.1451  0.3144  1.4365
 1359TIP3    H225713   3.006   4.416   0.359 -2.6271  0.3295  1.4623
 1360TIP3   OH225714   5.288   2.978   2.662  0.6045 -0.0467 -0.1422
 1360TIP3    H125715   5.357   3.035   2.696 -0.3599 -0.0098  1.9446
 1360TIP3    H225716   5.253   3.024   2.586  1.8640  0.6556 -0.3124
 1361TIP3   OH225717   5.166   0.738   0.573 -0.5662  0.6245  0.2070
 1361TIP3    H125718   5.108   0.802   0.531 -0.5970  0.6942  0.3529
 1361TIP3    H225719   5.197   0.782   0.652  0.1002  0.7771 -0.1403
 1362TIP3   OH225720   2.440   2.794   3.584 -0.3099  0.4190  0.6723
 1362TIP3    H125721   2.445   2.889   3.582 -1.8327  0.5676  2.1591
 1362TIP3    H225722   2.350   2.774   3.559  0.5936 -0.8016 -1.9796
 1363TIP3   OH225723   4.598   4.113   1.617 -0.1937  0.5221 -0.5518
 1363TIP3    H125724   4.510   4.082   1.597 -1.1030  2.2052  0.6388
 1363TIP3    H225725   4.646   4.034   1.644 -1.2075 -0.4638 -1.5450
 1364TIP3   OH225726   1.629   3.550   7.887  0.2059 -0.6672  0.1327
 1364TIP3    H125727   1.656   3.639   7.868 -0.5810 -0.3061  0.6295
 1364TIP3    H225728   1.654   3.500   7.809  3.7918 -0.7490  1.1833
 1365TIP3   OH225729   0.250   1.970   7.620  0.5043  0.1824  0.7886
 1365TIP3    H125730   0.160   1.948   7.645  1.0110 -0.3705  2.2245
 1365TIP3    H225731   0.304   1.909   7.670  1.7637  1.7392  1.3935
 1366TIP3   OH225732   1.987   2.997   8.367 -0.0629 -0.3814  0.1529
 1366TIP3    H125733   2.051   3.020   8.435 -1.4628 -1.2909  1.8805
 1366TIP3    H225734   1.949   3.080   8.341 -0.2354 -0.0828  1.2766
 1367TIP3   OH225735   0.231   5.820   7.210  0.2990  0.0153 -0.0947
 1367TIP3    H125736   0.241   5.794   7.119  1.1282 -0.9772  0.2626
 1367TIP3    H225737   0.294   5.766   7.258  0.6927  1.3148  0.9291
 1368TIP3   OH225738   1.007   2.579   8.147  0.1725 -0.2668 -0.2346
 1368TIP3    H125739   1.006   2.490   8.112  0.3520 -0.1283 -0.5941
 1368TIP3    H225740   1.086   2.581   8.202 -0.0274 -0.4376  0.0605
 1369TIP3   OH225741   5.751   0.321   1.072  0.3007  0.2156  0.2064
 1369TIP3    H125742   5.672   0.359   1.035  0.8804 -0.0611 -1.4080
 1369TIP3    H225743   5.733   0.312   1.165 -2.0556 -1.0192 -0.3056
 1370TIP3   OH225744   5.974   4.034   0.915 -0.1934 -0.2764  0.0141
 1370TIP3    H125745   6.059   4.005   0.949 -0.6040 -1.7002 -0.0785
 1370TIP3    H225746   5.916   3.958   0.928 -0.9408 -0.0653 -1.7584
 1371TIP3   OH225747   5.104   4.832   8.345  0.0251  0.0477  0.4269
 1371TIP3    H125748   5.160   4.853   8.420 -0.6990 -1.7930  1.5762
 1371TIP3    H225749   5.164   4.806   8.276  0.7035 -2.3679  1.7844
 1372TIP3   OH225750   3.108   4.135   8.447  0.0583 -0.0668  0.1155
 1372TIP3    H125751   3.116   4.174   8.534  0.6503  1.4579 -0.5835
 1372TIP3    H225752   3.157   4.194   8.390 -0.0078 -1.2388 -1.2021
 1373TIP3   OH225753   5.983   6.011   3.168 -0.0991  0.4261 -0.0725
 1373TIP3    H125754   5.980   6.072   3.242 -2.3046 -1.1094  1.2148
 1373TIP3    H225755   5.948   6.062   3.095 -1.1392  1.0158  0.7863
 1374TIP3   OH225756   4.069   1.726   0.954  0.6760 -0.3809 -0.1608
 1374TIP3    H125757   3.998   1.708   1.016  0.3016 -0.7602 -0.6969
 1374TIP3    H225758   4.118   1.644   0.947  0.6091 -0.3954 -0.4994
 1375TIP3   OH225759   1.981   4.424   8.644  0.1232 -0.2383  0.3983
 1375TIP3    H125760   1.936   4.367   8.706 -2.6904  0.0834 -1.1859
 1375TIP3    H225761   2.051   4.465   8.695 -0.6153 -1.6854  2.7097
 1376TIP3   OH225762   4.564   2.078   1.515 -0.5267  0.1735  0.2208
 1376TIP3    H125763   4.525   2.133   1.584 -2.1522  0.2331 -0.6974
 1376TIP3    H225764   4.616   2.139   1.463 -0.0143  0.2924  0.8539
 1377TIP3   OH225765   5.849   3.282   7.993  0.1661 -0.3317  0.1293
 1377TIP3    H125766   5.857   3.237   7.909 -2.1880 -0.5078 -0.0603
 1377TIP3    H225767   5.843   3.375   7.970  0.3023 -0.3159  0.1588
 1378TIP3   OH225768   4.624   0.150   8.568 -0.0835  0.0545  0.0304
 1378TIP3    H125769   4.556   0.086   8.587  1.1114 -0.9942  0.9437
 1378TIP3    H225770   4.677   0.153   8.648  2.3587 -1.0013 -1.4266
 1379TIP3   OH225771   3.448   4.108   2.860  0.3143 -0.1852  0.3111
 1379TIP3    H125772   3.370   4.119   2.915 -0.2911 -0.5808 -0.4586
 1379TIP3    H225773   3.431   4.029   2.810  1.2076 -0.2594  0.1094
 1380TIP3   OH225774   0.347   0.393   7.936 -0.5392  0.0020  0.6443
 1380TIP3    H125775   0.318   0.332   7.868  0.0158 -1.3231  1.5427
 1380TIP3    H225776   0.396   0.338   7.998 -2.4103  0.8371  3.0111
 1381TIP3   OH225777   5.425   2.819   7.472  1.0972  0.2606 -0.3294
 1381TIP3    H125778   5.473   2.901   7.458  1.7450  0.4991  2.5477
 1381TIP3    H225779   5.358   2.818   7.405  0.8553  3.3451 -0.2632
 1382TIP3   OH225780   5.506   6.195   8.157  0.0689  0.0511 -0.0731
 1382TIP3    H125781   5.536   6.115   8.200 -0.9266 -0.1665  0.2462
 1382TIP3    H225782   5.463   6.245   8.227 -0.0007  0.5110 -0.4402
 1383TIP3   OH225783   0.124   3.940   2.422  0.4979  0.2324  0.0764
 1383TIP3    H125784   0.126   3.844   2.429 -2.5714  0.1918  5.3912
 1383TIP3    H225785   0.039   3.960   2.384  1.1814  0.9286 -1.1452
 1384TIP3   OH225786   3.740   3.192   2.462 -0.7959  0.2734 -1.0698
 1384TIP3    H125787   3.730   3.177   2.556 -2.8956  1.5402 -1.0281
 1384TIP3    H225788   3.693   3.120   2.421  0.2478 -0.3618 -1.1755
 1385TIP3   OH225789   5.235   2.277   8.371  0.3378  0.3629 -0.2484
 1385TIP3    H125790   5.318   2.261   8.328  0.1313  1.8573 -1.2825
 1385TIP3    H225791   5.181   2.319   8.305 -0.5641  1.2231  0.9821
 1386TIP3   OH225792   5.702   2.266   0.752  0.4369  0.4908  0.5384
 1386TIP3    H125793   5.718   2.360   0.744  1.1583  0.3498  0.2739
 1386TIP3    H225794   5.731   2.229   0.668 -0.3146  0.0911  0.4392
 1387TIP3   OH225795   1.201   6.109   2.278  0.1785 -0.0274 -0.6949
 1387TIP3    H125796   1.232   6.027   2.316 -0.5016  0.4047  0.8915
 1387TIP3    H225797   1.250   6.118   2.197  1.6246 -1.0729  0.0183
 1388TIP3   OH225798   4.343   1.410   0.685 -1.1166 -0.0192  1.2672
 1388TIP3    H125799   4.291   1.347   0.635 -0.9051  0.3812  0.5357
 1388TIP3    H225800   4.397   1.455   0.620 -0.7473  0.4278  1.8665
 1389TIP3   OH225801   0.419   3.494   0.557 -0.2029  0.1948  0.3533
 1389TIP3    H125802   0.382   3.448   0.481  0.8632 -0.2195  0.0592
 1389TIP3    H225803   0.347   3.546   0.591 -0.9878 -0.4206 -0.3197
 1390TIP3   OH225804   4.701   2.434   1.791 -0.0158  0.2664  0.2169
 1390TIP3    H125805   4.607   2.423   1.801  0.3113 -1.3642  2.2961
 1390TIP3    H225806   4.736   2.345   1.794  1.5710  0.7931 -1.1128
 1391TIP3   OH225807   2.554   2.232   6.647  0.4846 -0.3456  0.2290
 1391TIP3    H125808   2.552   2.304   6.710  0.7706 -0.0671 -0.0736
 1391TIP3    H225809   2.585   2.272   6.566 -3.6186  0.2170 -1.3004
 1392TIP3   OH225810   6.295   1.605   1.617  0.3830  0.0094 -0.0608
 1392TIP3    H125811   6.387   1.592   1.595  0.4053  1.6737 -1.1452
 1392TIP3    H225812   6.270   1.685   1.570 -1.6900 -0.5410  0.0065
 1393TIP3   OH225813   5.992   3.278   8.223 -0.6231  0.4277  0.0991
 1393TIP3    H125814   5.973   3.235   8.140  1.5410  0.1102 -0.2848
 1393TIP3    H225815   6.038   3.211   8.275  0.1460  1.3292  0.6269
 1394TIP3   OH225816   2.370   2.218   2.610  0.1744  0.8779 -0.0600
 1394TIP3    H125817   2.301   2.152   2.621  2.2282 -1.2511  1.0485
 1394TIP3    H225818   2.342   2.269   2.534 -2.6204  0.1828  0.3694
 1395TIP3   OH225819   3.068   0.039   2.346 -0.1808 -0.5269  0.2338
 1395TIP3    H125820   3.054   0.075   2.259  2.8384 -0.7266 -0.4375
 1395TIP3    H225821   3.065   0.116   2.404  1.9267  0.2834 -0.6416
 1396TIP3   OH225822   6.818   3.613   2.669 -0.1156 -0.0474 -0.4758
 1396TIP3    H125823   6.802   3.531   2.715  1.0805 -0.3781 -0.6232
 1396TIP3    H225824   6.730   3.645   2.646 -0.5637 -1.9858 -1.6765
 1397TIP3   OH225825   2.629   3.878   2.968 -0.1697  0.3233  0.1879
 1397TIP3    H125826   2.541   3.905   2.996  0.1192  1.9417 -0.3666
 1397TIP3    H225827   2.623   3.783   2.959 -2.1481  0.4942 -0.8173
 1398TIP3   OH225828   5.846   2.479   8.486 -0.1046  0.5598 -0.0992
 1398TIP3    H125829   5.846   2.383   8.489  1.6772  0.5084 -0.3116
 1398TIP3    H225830   5.766   2.505   8.530 -2.4226 -1.0863 -2.9460
 1399TIP3   OH225831   2.284   3.709   1.149 -0.2331  0.4296  0.3468
 1399TIP3    H125832   2.223   3.780   1.131  0.2599  0.8999  0.5101
 1399TIP3    H225833   2.264   3.680   1.238 -0.3706  0.4272  0.3147
 1400TIP3   OH225834   3.785   4.078   2.218 -0.3864 -0.6333  0.2990
 1400TIP3    H125835   3.791   4.006   2.282 -0.2629 -0.4065  0.5454
 1400TIP3    H225836   3.692   4.082   2.196 -0.2492 -1.5692 -0.5276
 1401TIP3   OH225837   2.219   4.031   0.136  0.1326  0.3207 -0.0370
 1401TIP3    H125838   2.241   3.949   0.180 -0.0487 -0.2251 -0.9440
 1401TIP3    H225839   2.262   4.026   0.051  0.8541  1.5644  0.2298
 1402TIP3   OH225840   4.308   2.022   7.853 -0.3701  0.8704  0.1465
 1402TIP3    H125841   4.273   2.098   7.808  1.7544  1.2309 -1.0003
 1402TIP3    H225842   4.393   2.050   7.886 -0.8652 -0.0998  2.4293
 1403TIP3   OH225843   6.746   0.707   2.895  0.3071 -0.7457  0.5635
 1403TIP3    H125844   6.678   0.698   2.962  0.5684 -1.4517  0.7326
 1403TIP3    H225845   6.821   0.743   2.942  0.1001 -0.0755  0.3990
 1404TIP3   OH225846   6.537   3.165   0.815 -0.7446 -0.1911  0.1374
 1404TIP3    H125847   6.533   3.099   0.885 -0.1958  0.2506  0.5977
 1404TIP3    H225848   6.523   3.248   0.860  1.5271  0.2994  0.0662
 1405TIP3   OH225849   4.656   6.592   1.347 -0.0829  0.1476  0.3908
 1405TIP3    H125850   4.669   6.682   1.316  0.1393 -0.1531 -0.4201
 1405TIP3    H225851   4.563   6.575   1.331 -0.2530  0.4182  1.0630
 1406TIP3   OH225852   2.440   3.145   2.686 -0.1949  0.5224  0.9063
 1406TIP3    H125853   2.439   3.193   2.603  1.2550  0.8907  1.0854
 1406TIP3    H225854   2.377   3.074   2.672  0.1034  0.4999 -0.5540
 1407TIP3   OH225855   2.771   5.741   2.105 -0.4796 -0.5335  0.0455
 1407TIP3    H125856   2.742   5.761   2.194  0.9560 -1.3718  0.7357
 1407TIP3    H225857   2.728   5.659   2.084 -1.2066 -0.0897 -0.2459
 1408TIP3   OH225858   0.252   4.575   2.032 -0.4067 -0.2746  0.1219
 1408TIP3    H125859   0.181   4.528   1.989 -0.3470  0.2972 -0.6231
 1408TIP3    H225860   0.222   4.666   2.037  0.9633  0.3490 -1.8315
 1409TIP3   OH225861   6.783   6.236   2.742  0.1349  0.6142  0.1601
 1409TIP3    H125862   6.854   6.176   2.763 -0.7950 -0.8411 -0.6878
 1409TIP3    H225863   6.827   6.313   2.707  1.3519  0.3809  1.0927
 1410TIP3   OH225864   4.371   3.743   1.245  0.5164  0.4686  0.1440
 1410TIP3    H125865   4.365   3.819   1.187  0.3327  0.2993 -0.0615
 1410TIP3    H225866   4.394   3.670   1.186 -1.9915 -0.1982 -0.1287
 1411TIP3   OH225867   1.641   6.267   8.104  0.2599  0.1723 -0.1910
 1411TIP3    H125868   1.691   6.340   8.139  0.7268  0.1932 -0.8842
 1411TIP3    H225869   1.647   6.198   8.170  1.8880 -0.1180 -0.6083
 1412TIP3   OH225870   5.568   5.825   2.042  0.3268  0.2587  0.0302
 1412TIP3    H125871   5.606   5.738   2.042  0.5201  0.3029  1.7259
 1412TIP3    H225872   5.597   5.865   1.960 -0.4255 -1.5159 -1.1479
 1413TIP3   OH225873   6.239   4.983   0.408 -0.7788 -0.4876  0.3153
 1413TIP3    H125874   6.188   4.926   0.466  1.3071 -2.0823  0.7230
 1413TIP3    H225875   6.286   5.042   0.467  1.5000 -2.2431  0.4005
 1414TIP3   OH225876   1.259   1.787   2.849  0.7544  0.5014 -0.5284
 1414TIP3    H125877   1.192   1.853   2.868  0.9714  0.7810 -0.7266
 1414TIP3    H225878   1.335   1.814   2.901  0.9556  0.6017 -0.8738
 1415TIP3   OH225879   3.073   2.900   0.455 -0.0279 -0.1438 -0.0860
 1415TIP3    H125880   3.121   2.829   0.413  0.2987  0.6347 -1.0879
 1415TIP3    H225881   3.111   2.980   0.418 -0.9465  0.5377  0.3794
 1416TIP3   OH225882   0.119   4.906   1.318  0.0130 -0.1514 -0.4122
 1416TIP3    H125883   0.156   4.851   1.249  1.3209  0.2996 -0.0887
 1416TIP3    H225884   0.029   4.922   1.289 -0.6179 -2.8909 -0.2496
 1417TIP3   OH225885   0.853   0.014   2.510  0.6132  0.3293  0.6860
 1417TIP3    H125886   0.946  -0.008   2.504  0.0952 -1.6435 -2.2393
 1417TIP3    H225887   0.823   0.017   2.419 -2.3095  0.2479  1.5478
 1418TIP3   OH225888   6.860   4.537   8.286 -0.3140  0.4859  0.5960
 1418TIP3    H125889   6.845   4.551   8.192 -0.6239 -3.3731 -0.0744
 1418TIP3    H225890   6.780   4.568   8.328 -0.8245  0.8175 -0.5794
 1419TIP3   OH225891   0.804   1.091   2.985  0.8877  0.3225 -0.4391
 1419TIP3    H125892   0.719   1.045   2.984  0.4817  0.9893  0.7964
 1419TIP3    H225893   0.807   1.132   3.071  3.0442 -0.7241  0.0399
 1420TIP3   OH225894   3.243   1.532   1.242  0.2145  0.3942 -0.2251
 1420TIP3    H125895   3.261   1.467   1.174 -1.4959  1.0353 -1.3421
 1420TIP3    H225896   3.317   1.593   1.236  2.0397 -1.5474  1.0874
 1421TIP3   OH225897   0.977   6.599   7.979  0.3678 -0.8661 -0.5323
 1421TIP3    H125898   0.923   6.598   7.900  1.5583 -0.2145 -1.3910
 1421TIP3    H225899   1.064   6.571   7.949  0.8542 -0.5588  0.5333
 1422TIP3   OH225900   0.097   4.783   1.989  0.2594 -0.4543 -0.0978
 1422TIP3    H125901   0.125   4.733   1.912  0.2376 -0.4350 -0.1181
 1422TIP3    H225902   0.002   4.770   1.993  0.2769 -0.5536 -0.0045
 1423TIP3   OH225903   4.900   1.804   0.481 -0.1760 -0.0093  0.2082
 1423TIP3    H125904   4.866   1.726   0.525  3.9133 -0.3549  3.3817
 1423TIP3    H225905   4.858   1.877   0.526 -0.0044 -0.4257  1.0753
 1424TIP3   OH225906   3.956   4.364   2.992  0.2359  0.4250  0.6742
 1424TIP3    H125907   3.875   4.413   2.979  0.6397  1.0856  0.6005
 1424TIP3    H225908   3.957   4.343   3.085 -0.6754 -0.7797  0.4465
 1425TIP3   OH225909   0.357   1.923   8.241  0.2350  0.0991 -0.4639
 1425TIP3    H125910   0.265   1.937   8.219 -0.2247  0.3529  1.4228
 1425TIP3    H225911   0.363   1.830   8.262  0.2639  0.2029  0.0017
 1426TIP3   OH225912   3.442   4.543   8.161 -0.0331 -0.0727  0.5781
 1426TIP3    H125913   3.364   4.546   8.216  0.6454  0.4792  1.5555
 1426TIP3    H225914   3.411   4.514   8.076 -1.4853  1.2026  0.6316
 1427TIP3   OH225915   2.975   1.811   0.482  0.2253 -0.4169  1.0039
 1427TIP3    H125916   2.948   1.840   0.569 -0.4498 -0.4074  0.7964
 1427TIP3    H225917   2.906   1.751   0.454  0.9668 -1.2418  0.9036
 1428TIP3   OH225918   3.863   3.997   3.586  0.1397  0.3536  0.0078
 1428TIP3    H125919   3.859   4.035   3.498  0.6948  1.2823  0.3732
 1428TIP3    H225920   3.792   4.041   3.634  0.7871  0.9438  0.4349
 1429TIP3   OH225921   1.605   5.513   3.209  0.3820 -0.4648 -0.1027
 1429TIP3    H125922   1.633   5.604   3.205 -1.6078  0.1666 -0.8839
 1429TIP3    H225923   1.538   5.512   3.278 -2.4973 -0.3883 -2.6920
 1430TIP3   OH225924   1.980   6.625   7.333 -0.0620 -0.3912  0.3932
 1430TIP3    H125925   2.026   6.709   7.339  0.2037 -0.6307  2.5082
 1430TIP3    H225926   2.035   6.572   7.275 -1.3600  1.4886 -2.8526
 1431TIP3   OH225927   4.170   6.566   1.639 -0.0453  0.9798  0.4488
 1431TIP3    H125928   4.207   6.541   1.723  0.5673  0.6568  0.0878
 1431TIP3    H225929   4.202   6.500   1.578 -1.3837  0.5607  0.1612
 1432TIP3   OH225930   1.812   2.194   1.471 -0.2451 -0.4777 -0.4707
 1432TIP3    H125931   1.800   2.141   1.549 -0.2764 -2.2034 -1.5819
 1432TIP3    H225932   1.763   2.274   1.489 -1.7009 -1.5440  0.6266
 1433TIP3   OH225933   3.284   2.188   3.297  0.2228 -0.1912 -0.9305
 1433TIP3    H125934   3.324   2.274   3.312  0.5596 -0.4954 -0.0432
 1433TIP3    H225935   3.219   2.180   3.366 -0.5130 -0.2318 -1.6183
 1434TIP3   OH225936   5.388   3.398   1.940  0.4526  0.3216  0.3705
 1434TIP3    H125937   5.454   3.345   1.985  1.0918  0.7641 -0.0316
 1434TIP3    H225938   5.342   3.443   2.011  0.9281  0.4103  0.6275
 1435TIP3   OH225939   6.171   1.248   2.998 -0.2582 -0.5784  0.3108
 1435TIP3    H125940   6.108   1.188   2.959 -0.4318 -1.6912  2.2301
 1435TIP3    H225941   6.121   1.328   3.015 -0.3221 -0.2839 -1.0672
 1436TIP3   OH225942   2.506   5.849   1.438 -0.2011  0.3938 -0.2513
 1436TIP3    H125943   2.476   5.853   1.529 -0.9439 -0.0446 -0.4713
 1436TIP3    H225944   2.524   5.756   1.423  0.8764  0.5904 -0.2573
 1437TIP3   OH225945   6.237   3.711   0.656  0.2123 -0.1546 -0.3041
 1437TIP3    H125946   6.246   3.805   0.640 -0.6509  0.1175  0.6426
 1437TIP3    H225947   6.196   3.706   0.742 -0.9913 -1.3704 -0.9157
 1438TIP3   OH225948   2.527   0.268   3.060  0.7576 -0.3709  0.1353
 1438TIP3    H125949   2.470   0.194   3.040 -1.0065  1.3159 -1.6024
 1438TIP3    H225950   2.616   0.235   3.045 -0.0317 -1.7857 -1.9919
 1439TIP3   OH225951   2.610   3.398   7.746  0.1091  0.0157 -0.1762
 1439TIP3    H125952   2.694   3.439   7.728  1.4509 -2.0561  1.0769
 1439TIP3    H225953   2.581   3.437   7.828  1.0272 -0.9823  0.6350
 1440TIP3   OH225954   3.605   4.520   8.611 -0.1842 -0.8169  0.4888
 1440TIP3    H125955   3.546   4.494   8.681  0.9117  0.8397  2.0983
 1440TIP3    H225956   3.647   4.599   8.643 -0.1919  0.4580 -2.3799
 1441TIP3   OH225957   4.980   6.681   8.508 -0.7866  0.8500  0.3885
 1441TIP3    H125958   4.991   6.744   8.437 -0.8065  0.7245  0.2738
 1441TIP3    H225959   4.980   6.595   8.465  1.8607  0.5650  0.7647
 1442TIP3   OH225960   5.811   4.748   0.711  0.0307  0.2663  0.9098
 1442TIP3    H125961   5.899   4.774   0.683 -0.1012  2.2400  2.1123
 1442TIP3    H225962   5.752   4.799   0.656 -0.4452 -1.6981 -0.4968
 1443TIP3   OH225963   5.009   2.045   2.110  0.0384  0.0172 -0.3996
 1443TIP3    H125964   5.077   2.054   2.177  1.4813  1.3904 -1.9546
 1443TIP3    H225965   4.982   2.134   2.090 -0.6797 -0.3881 -1.3481
 1444TIP3   OH225966   4.626   4.918   2.532  0.2951 -0.4347  0.0321
 1444TIP3    H125967   4.667   4.900   2.616  0.2809 -2.2107 -0.2991
 1444TIP3    H225968   4.689   4.888   2.467 -1.2352 -2.7791 -0.4999
 1445TIP3   OH225969   0.771   6.464   3.045 -0.3740  0.5287  0.0455
 1445TIP3    H125970   0.718   6.393   3.080  1.2169  0.1028  1.7660
 1445TIP3    H225971   0.842   6.420   2.998  1.5622  0.7671  2.4914
 1446TIP3   OH225972   0.359   1.791   1.795  0.3144  0.1547 -0.5053
 1446TIP3    H125973   0.379   1.883   1.776 -1.2541  0.4592 -0.8043
 1446TIP3    H225974   0.402   1.742   1.725 -1.1143  0.8990 -1.9887
 1447TIP3   OH225975   5.127   1.851   1.107  0.2178 -0.5543  0.1256
 1447TIP3    H125976   5.153   1.938   1.077  0.8168 -0.8845 -0.3510
 1447TIP3    H225977   5.045   1.864   1.154  0.0271  0.1932 -0.4069
 1448TIP3   OH225978   6.585   5.291   2.657 -0.7285  0.6340  0.7119
 1448TIP3    H125979   6.588   5.256   2.746  0.2961  0.4053  0.5959
 1448TIP3    H225980   6.676   5.290   2.627 -1.1348  0.0201 -0.6002
 1449TIP3   OH225981   2.553   0.200   2.732  0.0839  0.3973  0.0738
 1449TIP3    H125982   2.521   0.283   2.696 -0.4703  0.3231  0.3880
 1449TIP3    H225983   2.493   0.180   2.804 -0.6739 -1.0193 -0.9020
 1450TIP3   OH225984   6.296   0.400   8.248 -0.3645 -0.1899  0.7718
 1450TIP3    H125985   6.319   0.385   8.156 -0.2925  2.4232  0.2791
 1450TIP3    H225986   6.202   0.415   8.247 -0.1292  1.4848  0.8149
 1451TIP3   OH225987   1.680   6.790   1.629 -0.0612 -0.0387  0.3145
 1451TIP3    H125988   1.755   6.734   1.610 -0.0522  0.5075 -1.3873
 1451TIP3    H225989   1.615   6.766   1.563 -1.7522 -1.0797  2.2474
 1452TIP3   OH225990   3.819   6.833   1.841  0.3223  0.3493 -0.6033
 1452TIP3    H125991   3.824   6.743   1.810  0.2580 -0.7506  2.2589
 1452TIP3    H225992   3.726   6.849   1.854  0.4388 -0.8345  2.8794
 1453TIP3   OH225993   4.992   5.262   8.473  0.4890 -0.4019 -0.4680
 1453TIP3    H125994   5.032   5.326   8.414  0.7930  0.6928  0.8815
 1453TIP3    H225995   4.989   5.306   8.558 -2.2964 -0.9504 -0.1901
 1454TIP3   OH225996   4.669   0.357   8.382  0.6330 -0.2821 -0.1306
 1454TIP3    H125997   4.657   0.312   8.298 -1.4502  1.4647 -0.8514
 1454TIP3    H225998   4.618   0.305   8.445  0.2708 -0.3083 -0.4426
 1455TIP3   OH225999   1.487   5.716   8.265  0.7939 -0.2570 -0.6474
 1455TIP3    H126000   1.447   5.746   8.183 -0.7130  0.4110  0.2814
 1455TIP3    H226001   1.511   5.797   8.311  0.7571 -0.5951 -0.0276
 1456TIP3   OH226002   4.022   2.340   7.412 -0.2274  0.1281  0.1732
 1456TIP3    H126003   4.068   2.257   7.403 -1.2449 -0.4769  0.4443
 1456TIP3    H226004   4.072   2.388   7.479  1.0113  0.2097 -0.7838
 1457TIP3   OH226005   3.956   2.715   0.801 -0.2975 -0.0238 -0.4416
 1457TIP3    H126006   4.006   2.642   0.765  0.5863  0.6005 -0.5350
 1457TIP3    H226007   3.895   2.739   0.731 -1.2794 -1.2673 -0.0532
 1458TIP3   OH226008   3.883   5.027   1.409 -0.3213  0.1074  0.3837
 1458TIP3    H126009   3.861   4.943   1.369  0.7319  0.0326 -0.0645
 1458TIP3    H226010   3.973   5.043   1.384  0.0973  0.4897  2.0010
 1459TIP3   OH226011   2.488   1.910   6.993 -0.3384 -0.3917 -0.4101
 1459TIP3    H126012   2.534   1.836   7.032 -0.1758 -1.1355 -1.9695
 1459TIP3    H226013   2.556   1.972   6.969 -0.2942 -0.6522 -0.9740
 1460TIP3   OH226014   2.141   0.097   7.825  0.3965 -0.5344  0.3657
 1460TIP3    H126015   2.202   0.126   7.756 -1.3062  0.9524 -0.5998
 1460TIP3    H226016   2.109   0.012   7.794 -1.3649  0.7001 -1.4756
 1461TIP3   OH226017   1.761   0.590   1.118 -0.2538 -0.7484 -0.0662
 1461TIP3    H126018   1.693   0.630   1.065 -2.7777 -3.0770  1.1558
 1461TIP3    H226019   1.767   0.645   1.196 -0.5936 -0.4375 -0.2578
 1462TIP3   OH226020   0.845   0.810   3.162  0.0454  0.0839 -0.3507
 1462TIP3    H126021   0.793   0.809   3.082 -0.2301 -0.0213 -0.1722
 1462TIP3    H226022   0.816   0.733   3.211  0.0792  0.2479 -0.0665
 1463TIP3   OH226023   0.157   1.102   2.116  0.3012 -0.3992  0.4063
 1463TIP3    H126024   0.187   1.096   2.206 -0.9598 -0.2834  0.8614
 1463TIP3    H226025   0.227   1.149   2.070 -0.0901  1.7730  1.8753
 1464TIP3   OH226026   0.792   6.131   2.623 -0.3361 -0.2105  0.1225
 1464TIP3    H126027   0.805   6.131   2.717 -0.5386  0.7032  0.1563
 1464TIP3    H226028   0.724   6.197   2.607 -0.5495 -0.5901 -0.6300
 1465TIP3   OH226029   0.292   1.644   8.572  0.1409 -0.3183 -0.2585
 1465TIP3    H126030   0.350   1.698   8.626  1.1132 -1.8389  0.2681
 1465TIP3    H226031   0.261   1.575   8.631 -2.5662  0.6497 -0.4080
 1466TIP3   OH226032   2.018   6.529   1.948 -0.0621  0.3354  0.2137
 1466TIP3    H126033   2.002   6.448   1.996 -1.4802  1.1885  1.2770
 1466TIP3    H226034   2.088   6.508   1.887 -1.8364 -2.2892 -1.0779
 1467TIP3   OH226035   0.551   0.551   0.518 -0.4904  0.1683  0.3255
 1467TIP3    H126036   0.534   0.506   0.436  1.4736 -2.2856  1.1237
 1467TIP3    H226037   0.508   0.498   0.584  1.2873 -0.2131  1.2394
 1468TIP3   OH226038   4.334   3.596   0.685  0.7407 -0.2243 -0.4264
 1468TIP3    H126039   4.405   3.611   0.748 -0.1048 -0.8475  0.6918
 1468TIP3    H226040   4.330   3.501   0.675 -0.0757 -0.2094 -0.3070
 1469TIP3   OH226041   6.571   6.468   1.508  0.0845  0.1083  0.1780
 1469TIP3    H126042   6.514   6.471   1.431  0.6080  1.4488 -0.1845
 1469TIP3    H226043   6.611   6.381   1.505  0.2479  0.2144 -1.1929
 1470TIP3   OH226044   2.736   6.631   2.532  0.6361 -0.3520  0.0589
 1470TIP3    H126045   2.727   6.600   2.442  1.1526  2.1538 -0.9515
 1470TIP3    H226046   2.666   6.586   2.580 -1.6883  0.4963 -2.2823
 1471TIP3   OH226047   1.192   4.385   2.693 -0.9820 -0.2385 -0.0619
 1471TIP3    H126048   1.243   4.457   2.730 -0.4627 -0.8011  0.3355
 1471TIP3    H226049   1.158   4.338   2.769 -1.3040 -0.4200 -0.3169
 1472TIP3   OH226050   4.320   2.771   8.256 -0.7106 -0.0521  0.5323
 1472TIP3    H126051   4.372   2.850   8.265 -1.6196  0.4486  1.6098
 1472TIP3    H226052   4.288   2.773   8.166  1.1264 -0.4111 -0.1876
 1473TIP3   OH226053   3.382   1.892   2.324 -0.0631  0.4546  0.2269
 1473TIP3    H126054   3.402   1.856   2.238 -1.6976 -0.6939  0.2992
 1473TIP3    H226055   3.394   1.819   2.384  0.0500  0.9786  0.8537
 1474TIP3   OH226056   1.113   2.250   0.951  0.4235  0.2496 -0.2376
 1474TIP3    H126057   1.208   2.247   0.958  0.3515  0.3010  0.9439
 1474TIP3    H226058   1.089   2.337   0.985 -0.1614 -0.4733  1.2690
 1475TIP3   OH226059   4.280   2.957   1.814  0.2047 -0.0786  0.6462
 1475TIP3    H126060   4.241   2.886   1.763 -1.9446 -0.3408  2.4870
 1475TIP3    H226061   4.323   3.013   1.749  1.0304 -2.4433 -0.9783
 1476TIP3   OH226062   6.317   4.020   3.001  0.2556  0.2612 -0.3151
 1476TIP3    H126063   6.301   4.007   3.095 -0.7858  0.3960 -0.4618
 1476TIP3    H226064   6.412   4.025   2.993  0.3437  0.6080  0.7893
 1477TIP3   OH226065   3.776   4.747   2.083 -0.1703  0.0443 -0.0227
 1477TIP3    H126066   3.860   4.703   2.088 -0.6113 -0.9823 -1.1349
 1477TIP3    H226067   3.752   4.764   2.174  1.1992  0.3229  0.3072
 1478TIP3   OH226068   4.295   1.837   1.204  0.1231 -0.4375 -0.5355
 1478TIP3    H126069   4.205   1.869   1.198  0.2078 -0.2177 -0.6427
 1478TIP3    H226070   4.302   1.801   1.293  0.1748  0.2991 -0.2332
 1479TIP3   OH226071   3.871   0.457   2.678 -0.0652  0.3651  0.4272
 1479TIP3    H126072   3.814   0.466   2.754  0.5502  0.9204  0.8246
 1479TIP3    H226073   3.952   0.419   2.713 -0.7557 -2.0326 -0.3900
 1480TIP3   OH226074   5.732   5.623   0.182  0.1642  0.3507 -0.6915
 1480TIP3    H126075   5.688   5.568   0.117  0.1984  0.5748 -0.9048
 1480TIP3    H226076   5.766   5.561   0.247 -0.9052  0.1980 -0.2461
 1481TIP3   OH226077   5.299   5.209   0.072  0.1851 -0.9183 -0.2883
 1481TIP3    H126078   5.300   5.137   0.009  1.5506 -1.1911  0.0220
 1481TIP3    H226079   5.349   5.279   0.030 -1.4807  0.0319 -0.7644
 1482TIP3   OH226080   0.347   3.198   1.215  0.6383 -0.2306  0.7817
 1482TIP3    H126081   0.322   3.165   1.129  0.6687  0.9989  0.2842
 1482TIP3    H226082   0.314   3.288   1.217  0.3519 -0.3396  2.1850
 1483TIP3   OH226083   2.165   4.514   0.194  0.5783  0.4412 -0.2650
 1483TIP3    H126084   2.190   4.585   0.135  3.6893  2.3412  2.9298
 1483TIP3    H226085   2.225   4.443   0.172  0.5348  0.4680 -0.4798
 1484TIP3   OH226086   3.624   3.033   8.251 -0.1311  0.1882 -0.4397
 1484TIP3    H126087   3.559   3.078   8.197 -0.8493  0.6207  0.7501
 1484TIP3    H226088   3.671   3.103   8.296  1.1242 -0.1223 -1.2149
 1485TIP3   OH226089   2.681   2.074   7.853  0.8796  0.1439  0.2910
 1485TIP3    H126090   2.670   1.982   7.828  1.4388 -0.0702  0.7854
 1485TIP3    H226091   2.627   2.123   7.791 -1.9188 -0.7109  1.8818
 1486TIP3   OH226092   1.379   0.977   7.491 -0.0167  0.2555 -0.6275
 1486TIP3    H126093   1.285   0.992   7.504 -0.3816 -0.0993 -2.5700
 1486TIP3    H226094   1.414   1.063   7.469  0.1274  0.3840  0.0766
 1487TIP3   OH226095   4.375   4.707   7.565 -0.2672 -0.2276 -0.0186
 1487TIP3    H126096   4.453   4.656   7.587  0.0574  1.6223  3.9149
 1487TIP3    H226097   4.408   4.779   7.511 -0.0644 -1.7069 -1.9905
 1488TIP3   OH226098   3.701   0.967   2.868  0.2553 -0.0674 -0.0125
 1488TIP3    H126099   3.638   0.896   2.873  0.0844  0.1408  1.0481
 1488TIP3    H226100   3.783   0.929   2.899  0.0530  0.3021  1.0173
 1489TIP3   OH226101   5.335   4.967   3.020  0.2542 -0.7155 -0.8877
 1489TIP3    H126102   5.266   4.904   3.042  0.6672 -0.7005  0.5540
 1489TIP3    H226103   5.396   4.916   2.967 -0.2644 -1.0665 -1.1580
 1490TIP3   OH226104   0.789   4.549   2.795  0.3392  0.4872  0.2927
 1490TIP3    H126105   0.693   4.549   2.791  0.3427  1.3229 -0.2069
 1490TIP3    H226106   0.812   4.462   2.826 -0.5651  0.1030 -0.0730
 1491TIP3   OH226107   3.237   1.906   2.644  0.7363  0.1822 -0.2851
 1491TIP3    H126108   3.320   1.912   2.690 -0.0203  0.9754  1.0314
 1491TIP3    H226109   3.171   1.929   2.710 -0.4665  0.2882 -1.4828
 1492TIP3   OH226110   4.073   3.056   2.307 -0.5469 -0.1213 -0.3055
 1492TIP3    H126111   4.159   3.081   2.342 -0.5413 -0.8452  0.2305
 1492TIP3    H226112   4.092   3.021   2.220 -0.3375  0.0195 -0.3178
 1493TIP3   OH226113   3.971   4.379   1.875  0.2466  0.1974 -1.1509
 1493TIP3    H126114   4.033   4.404   1.806  0.0011  0.6637 -1.2067
 1493TIP3    H226115   4.016   4.311   1.925  0.4618 -0.0820 -1.7205
 1494TIP3   OH226116   4.100   0.429   7.646 -0.1304  0.5010  0.0733
 1494TIP3    H126117   4.041   0.362   7.680 -0.3216  0.6239 -0.0176
 1494TIP3    H226118   4.187   0.396   7.667 -0.2003 -0.0362 -0.4420
 1495TIP3   OH226119   1.983   6.755   0.943 -0.3702 -0.7165  0.1077
 1495TIP3    H126120   1.978   6.734   0.850 -1.2769  1.0165 -0.2809
 1495TIP3    H226121   2.076   6.752   0.963  0.0723  1.0187 -1.4233
 1496TIP3   OH226122   0.842   5.203   0.217  0.2823 -0.4651 -0.3138
 1496TIP3    H126123   0.765   5.200   0.160 -0.7547  0.5317  0.9508
 1496TIP3    H226124   0.806   5.190   0.305  1.5431  0.1016  0.3055
 1497TIP3   OH226125   1.053   6.455   2.067  0.3834 -0.0043  0.1820
 1497TIP3    H126126   1.005   6.448   2.149 -1.2016 -0.0930 -0.7142
 1497TIP3    H226127   1.056   6.365   2.033 -1.4145  0.3771 -1.1500
 1498TIP3   OH226128   1.437   1.530   1.971  0.2241 -0.5492  0.2020
 1498TIP3    H126129   1.432   1.600   1.905  1.4562 -0.2949  0.3553
 1498TIP3    H226130   1.498   1.466   1.933  0.5180 -0.6605  0.8543
 1499TIP3   OH226131   5.443   1.051   8.325 -0.0775 -0.3195 -0.3802
 1499TIP3    H126132   5.489   0.995   8.388 -1.8919  0.4089  1.7178
 1499TIP3    H226133   5.511   1.080   8.264  1.8205 -0.9042  1.3662
 1500TIP3   OH226134   2.940   4.787   3.342  0.1435  0.0325 -0.3753
 1500TIP3    H126135   3.025   4.743   3.346  0.3417  0.4400 -0.0101
 1500TIP3    H226136   2.886   4.743   3.407 -0.1510 -0.6786 -1.0767
 1501TIP3   OH226137   1.889   2.593   1.379  0.5373  0.2702  0.3516
 1501TIP3    H126138   1.955   2.524   1.370  0.1845  0.0023 -0.2181
 1501TIP3    H226139   1.934   2.673   1.354  0.7948  0.1660  0.4796
 1502TIP3   OH226140   6.515   2.835   0.284  0.5033 -0.6307  0.5720
 1502TIP3    H126141   6.592   2.891   0.294 -1.0639  1.5675  1.0053
 1502TIP3    H226142   6.492   2.841   0.191  0.1240 -0.2826  0.6898
 1503TIP3   OH226143   5.061   4.337   0.509  0.2879 -0.1643  0.3247
 1503TIP3    H126144   5.010   4.354   0.589 -1.9579  0.9746 -1.2448
 1503TIP3    H226145   5.059   4.241   0.500 -1.0564 -0.1941  0.6632
 1504TIP3   OH226146   0.030   6.168   1.847  0.1110 -0.5441  0.1596
 1504TIP3    H126147   0.060   6.259   1.856 -0.1097 -0.4840  0.2881
 1504TIP3    H226148  -0.037   6.158   1.914 -0.1541 -0.6798 -0.1215
 1505TIP3   OH226149   6.296   5.124   1.999 -0.4244 -0.2875  0.2746
 1505TIP3    H126150   6.321   5.043   1.957 -0.9549 -0.1795 -0.2646
 1505TIP3    H226151   6.221   5.100   2.055 -1.2705  0.0213 -0.7032
 1506TIP3   OH226152   4.095   1.441   1.570  0.9202 -0.3043  0.1744
 1506TIP3    H126153   4.029   1.440   1.640  0.7637 -2.6305  0.0519
 1506TIP3    H226154   4.166   1.494   1.606  0.0460  0.1508  1.3104
 1507TIP3   OH226155   5.703   3.654   1.368  0.2513 -0.3632  0.4972
 1507TIP3    H126156   5.650   3.686   1.441 -0.8640  0.7096 -0.7444
 1507TIP3    H226157   5.792   3.683   1.389 -0.5728  3.1405 -0.2170
 1508TIP3   OH226158   5.839   4.207   7.054 -0.2846 -0.3171  0.2601
 1508TIP3    H126159   5.887   4.273   7.104  0.7338 -0.3822 -0.6024
 1508TIP3    H226160   5.837   4.130   7.111  0.2760 -0.1825  0.4620
 1509TIP3   OH226161   6.261   3.967   1.512  0.0290  0.4980  0.0315
 1509TIP3    H126162   6.316   4.044   1.522  0.0135  0.3258  1.9549
 1509TIP3    H226163   6.235   3.945   1.602 -1.1681 -0.8713 -0.6064
 1510TIP3   OH226164   4.045   4.280   2.743 -0.0845 -0.0488  0.0951
 1510TIP3    H126165   4.109   4.210   2.756  0.8859  0.7343 -0.3371
 1510TIP3    H226166   4.014   4.302   2.831  2.3050  1.4258  0.6547
 1511TIP3   OH226167   5.154   2.911   1.340  0.3054 -0.1055 -0.5122
 1511TIP3    H126168   5.199   2.966   1.275 -1.9695  1.0601 -1.1864
 1511TIP3    H226169   5.111   2.973   1.398 -1.8447 -1.1304 -0.9229
 1512TIP3   OH226170   1.741   0.603   7.173 -0.5081  0.2523  0.1251
 1512TIP3    H126171   1.759   0.681   7.225  1.1250 -1.3751  2.1230
 1512TIP3    H226172   1.813   0.598   7.110  0.7450 -0.8431  1.5628
 1513TIP3   OH226173   3.316   6.643   0.369 -0.1434  0.3374 -0.4917
 1513TIP3    H126174   3.372   6.712   0.404  0.5672 -0.0179 -0.8981
 1513TIP3    H226175   3.323   6.651   0.274 -1.4157  0.7815 -0.5720
 1514TIP3   OH226176   4.086   2.907   2.710  0.3520 -0.2092 -0.1737
 1514TIP3    H126177   4.158   2.959   2.745 -1.4057  2.9929 -0.9797
 1514TIP3    H226178   4.015   2.969   2.696 -2.6790 -3.1862  0.6034
 1515TIP3   OH226179   4.866   0.895   1.629 -0.6747 -0.6085  0.6852
 1515TIP3    H126180   4.884   0.963   1.564  0.2676 -0.2259  1.3201
 1515TIP3    H226181   4.907   0.928   1.710 -1.0654 -1.4747  1.2499
 1516TIP3   OH226182   5.950   6.056   0.635  0.1727 -0.0676  0.3809
 1516TIP3    H126183   5.946   5.963   0.612 -2.0817  0.1696 -0.4336
 1516TIP3    H226184   6.017   6.092   0.576  0.5723 -1.0278  0.2242
 1517TIP3   OH226185   1.099   3.952   2.134  0.1528 -0.1912  0.5533
 1517TIP3    H126186   1.028   3.988   2.187  0.7353  1.0372  0.5368
 1517TIP3    H226187   1.142   4.029   2.096  2.1572 -0.8268  1.4027
 1518TIP3   OH226188   0.665   3.917   1.100  0.1266  0.4128 -0.3663
 1518TIP3    H126189   0.634   3.831   1.071 -1.6679  0.5042  1.0594
 1518TIP3    H226190   0.587   3.960   1.135  0.6805  3.1463 -2.1237
 1519TIP3   OH226191   3.128   1.019   1.563  0.6297  0.7315 -0.1157
 1519TIP3    H126192   3.216   1.055   1.569  0.9318 -0.2164  2.0428
 1519TIP3    H226193   3.080   1.082   1.510  2.7294  0.9714 -1.8560
 1520TIP3   OH226194   0.516   5.169   1.152 -0.3879 -0.0544  0.2303
 1520TIP3    H126195   0.582   5.120   1.104  0.8580  0.9077  0.8843
 1520TIP3    H226196   0.433   5.148   1.109  0.2294 -1.8943 -0.1293
 1521TIP3   OH226197   3.353   4.407   0.087  0.1238  0.2992  0.2935
 1521TIP3    H126198   3.273   4.449   0.118 -0.4568  0.1548 -0.9512
 1521TIP3    H226199   3.332   4.314   0.085  0.1044  0.3122 -0.5987
 1522TIP3   OH226200   6.592   5.931   2.672  0.1354 -0.3000 -0.3653
 1522TIP3    H126201   6.612   5.962   2.760 -0.1032 -0.2232 -0.3352
 1522TIP3    H226202   6.583   6.011   2.620  0.1826 -0.3416 -0.4383
 1523TIP3   OH226203   3.825   4.065   8.236  0.1513  0.3601 -0.3768
 1523TIP3    H126204   3.841   4.059   8.142  0.4140 -0.7719 -0.2802
 1523TIP3    H226205   3.907   4.035   8.276 -0.7916 -1.6363  0.1751
 1524TIP3   OH226206   6.237   5.825   0.239  0.8024  0.2687  0.0114
 1524TIP3    H126207   6.319   5.849   0.281  0.1997  1.0768  0.7339
 1524TIP3    H226208   6.256   5.828   0.145  1.3138  1.5018  0.1444
 1525TIP3   OH226209   0.197   0.469   1.332  1.1647  0.4266 -0.1129
 1525TIP3    H126210   0.273   0.410   1.331  2.1221  1.6108 -0.4535
 1525TIP3    H226211   0.173   0.476   1.424  2.6000  1.3920  0.2228
 1526TIP3   OH226212   0.990   6.064   0.845  0.3741  0.3134 -0.2535
 1526TIP3    H126213   1.046   5.991   0.818  1.2455 -0.1448  2.4619
 1526TIP3    H226214   1.051   6.137   0.860 -0.0730  0.5936  0.2405
 1527TIP3   OH226215   4.670   1.421   3.040  0.7927  0.1573 -0.6658
 1527TIP3    H126216   4.617   1.494   3.007 -0.8602 -0.3687  0.6923
 1527TIP3    H226217   4.747   1.464   3.078 -0.6857  1.3924  1.1753
 1528TIP3   OH226218   0.419   3.427   3.585  0.6241  0.3292  0.4488
 1528TIP3    H126219   0.389   3.379   3.509 -0.6025  2.6535 -0.6468
 1528TIP3    H226220   0.340   3.445   3.636  0.6361  2.9072 -0.2862
 1529TIP3   OH226221   3.079   4.255   1.373  0.6172  0.4084  0.4935
 1529TIP3    H126222   3.034   4.172   1.361  0.7602  0.2963  0.7093
 1529TIP3    H226223   3.024   4.304   1.434  0.0108  0.8831 -0.4144
 1530TIP3   OH226224   0.024   1.284   2.298 -0.0491  0.2700  0.0581
 1530TIP3    H126225   0.047   1.237   2.217  1.7247  1.5839 -0.2456
 1530TIP3    H226226   0.107   1.296   2.343 -0.9237  0.2214  1.7473
 1531TIP3   OH226227   2.896   3.715   1.521  0.5783  0.0947  0.2104
 1531TIP3    H126228   2.871   3.628   1.488 -0.4342  1.1141 -1.9200
 1531TIP3    H226229   2.866   3.716   1.611 -1.9736 -0.8356 -0.5511
 1532TIP3   OH226230   0.860   4.571   8.134  0.0088  0.1169  0.3786
 1532TIP3    H126231   0.844   4.659   8.167 -1.8914 -0.0037 -0.0875
 1532TIP3    H226232   0.955   4.560   8.141  0.8274  3.3921 -2.4381
 1533TIP3   OH226233   4.829   3.910   3.346  0.3647 -0.1615  0.3519
 1533TIP3    H126234   4.758   3.846   3.350  1.4356 -1.3957  0.3643
 1533TIP3    H226235   4.788   3.991   3.316 -0.6808 -1.3681 -1.6050
 1534TIP3   OH226236   2.484   5.954   3.405  0.6928 -0.4529  0.4352
 1534TIP3    H126237   2.494   6.037   3.358 -1.0636  0.8111  2.1351
 1534TIP3    H226238   2.572   5.932   3.433  1.1047  1.3572  0.7177
 1535TIP3   OH226239   6.047   3.862   7.322 -0.2559 -0.1609  0.2053
 1535TIP3    H126240   6.113   3.923   7.354  1.0919 -0.6174 -1.5685
 1535TIP3    H226241   5.976   3.918   7.290 -0.5537  0.3448  1.6649
 1536TIP3   OH226242   3.441   4.418   1.203 -0.0080 -0.1574 -0.4632
 1536TIP3    H126243   3.352   4.422   1.169  0.8404  0.5818 -2.7925
 1536TIP3    H226244   3.477   4.337   1.168  0.6780  0.2748 -0.7900
 1537TIP3   OH226245   4.149   5.418   8.515 -0.4498  0.3790  0.6809
 1537TIP3    H126246   4.155   5.512   8.533 -1.1060  0.5394  0.0961
 1537TIP3    H226247   4.068   5.390   8.557 -3.0362  1.1261 -3.2454
 1538TIP3   OH226248   4.053   6.324   7.927 -0.0778 -0.0143 -0.4207
 1538TIP3    H126249   3.975   6.341   7.981  0.6186 -1.0794  0.9861
 1538TIP3    H226250   4.076   6.410   7.892 -1.9280  0.3155 -0.9637
 1539TIP3   OH226251   5.840   6.237   0.262  0.1993  0.3347 -0.0615
 1539TIP3    H126252   5.747   6.261   0.261 -0.3573 -1.6588  0.6702
 1539TIP3    H226253   5.884   6.316   0.293 -0.9618  2.0587 -2.4627
 1540TIP3   OH226254   0.600   1.770   2.061 -0.0181  0.0596 -0.2332
 1540TIP3    H126255   0.539   1.720   2.005 -0.3470  1.1051 -0.8371
 1540TIP3    H226256   0.555   1.853   2.075  0.6627  0.3044  0.5073
 1541TIP3   OH226257   2.617   3.629   8.637 -0.0809  0.0106 -0.0676
 1541TIP3    H126258   2.634   3.701   8.577  0.9747  1.6787  2.0718
 1541TIP3    H226259   2.527   3.603   8.619  0.2230  0.3516 -2.3631
 1542TIP3   OH226260   4.929   6.671   7.730 -0.2956  0.0520  0.2172
 1542TIP3    H126261   5.022   6.653   7.748 -0.2228  1.0323  0.9121
 1542TIP3    H226262   4.889   6.584   7.726  0.3084 -0.3523  1.8923
 1543TIP3   OH226263   1.784   5.462   1.147  0.5400 -0.0063 -0.2860
 1543TIP3    H126264   1.700   5.487   1.186  0.6534 -0.2535  0.1224
 1543TIP3    H226265   1.835   5.428   1.220  2.0453  2.7430  0.0588
 1544TIP3   OH226266   2.711   5.325   8.445 -0.3804 -0.2776  0.0387
 1544TIP3    H126267   2.800   5.314   8.477 -0.0703  0.2889 -0.6009
 1544TIP3    H226268   2.658   5.265   8.499  0.6847 -2.2536 -0.9754
 1545TIP3   OH226269   1.963   5.036   0.097  0.1774  0.0434  0.3892
 1545TIP3    H126270   1.943   5.127   0.117  1.5096  0.4115  0.1654
 1545TIP3    H226271   2.009   5.004   0.174  0.5988 -0.1334  0.0682
 1546TIP3   OH226272   1.917   0.986   0.927  0.0355 -0.1349  0.4772
 1546TIP3    H126273   1.953   0.955   0.844  0.7978 -2.3728  1.5463
 1546TIP3    H226274   1.985   1.043   0.963  1.3423 -2.0095  1.1382
 1547TIP3   OH226275   1.973   4.286   2.248  0.7274 -0.5508  0.1379
 1547TIP3    H126276   2.031   4.275   2.172  1.4200  1.0434  0.3986
 1547TIP3    H226277   1.925   4.367   2.230  1.0090 -0.0730  1.4647
 1548TIP3   OH226278   4.156   4.023   0.098  0.1864  1.1513  0.0719
 1548TIP3    H126279   4.216   4.038   0.171  0.7085  0.8112 -0.2763
 1548TIP3    H226280   4.084   4.084   0.113 -1.5441 -1.3011  2.8246
 1549TIP3   OH226281   2.890   2.743   2.485 -0.4164  0.0735  0.2301
 1549TIP3    H126282   2.956   2.713   2.423  0.6695  1.1261  0.8473
 1549TIP3    H226283   2.917   2.706   2.569  0.3978  1.9000  0.8113
 1550TIP3   OH226284   0.756   3.116   8.270  0.2512  0.1183 -0.0392
 1550TIP3    H126285   0.733   3.145   8.358  2.4670  0.6597  0.4306
 1550TIP3    H226286   0.828   3.055   8.283  2.1530  1.9114 -1.5359
 1551TIP3   OH226287   4.085   6.886   3.422  0.2966  0.5507  0.1791
 1551TIP3    H126288   4.116   6.915   3.335 -1.0845  1.3883 -0.0658
 1551TIP3    H226289   4.066   6.967   3.468 -0.9110  0.0810  0.5332
 1552TIP3   OH226290   1.271   1.036   7.802 -0.5224 -0.2082 -0.3449
 1552TIP3    H126291   1.303   1.125   7.791 -0.0560 -0.4359 -0.8859
 1552TIP3    H226292   1.212   1.022   7.728 -0.7429 -0.2844 -0.1564
 1553TIP3   OH226293   2.772   1.647   7.452 -0.7145 -0.5720  0.5764
 1553TIP3    H126294   2.840   1.614   7.511 -0.1959  1.2226  1.0591
 1553TIP3    H226295   2.820   1.678   7.375 -1.2262 -1.3222 -0.0633
 1554TIP3   OH226296   1.522   1.279   2.638 -0.1552  0.5315  0.4118
 1554TIP3    H126297   1.435   1.244   2.621 -0.3594  0.7996  0.8747
 1554TIP3    H226298   1.506   1.366   2.674  0.2511  0.0677  1.7783
 1555TIP3   OH226299   2.439   3.698   7.401 -0.3067  0.4234  0.3499
 1555TIP3    H126300   2.385   3.663   7.330  0.9056  0.0467 -0.4199
 1555TIP3    H226301   2.505   3.630   7.417  0.6040  1.3122  0.5140
 1556TIP3   OH226302   0.487   1.786   0.105 -0.5768 -0.5563 -0.4079
 1556TIP3    H126303   0.540   1.865   0.107 -0.9068 -0.2531 -2.0214
 1556TIP3    H226304   0.486   1.755   0.195  0.9282  0.3605 -0.0449
 1557TIP3   OH226305   4.171   0.331   0.875 -0.5372  0.0693  0.8909
 1557TIP3    H126306   4.240   0.267   0.893 -0.4616 -0.2449 -0.3996
 1557TIP3    H226307   4.211   0.392   0.813 -0.7933  1.0527  1.6728
 1558TIP3   OH226308   3.140   6.138   1.058  0.5148 -0.5670  0.0335
 1558TIP3    H126309   3.221   6.188   1.048 -0.6510  1.1955 -1.0951
 1558TIP3    H226310   3.163   6.049   1.030  2.2109 -0.2758  0.4033
 1559TIP3   OH226311   1.566   3.886   0.713 -0.1678  0.2028  0.3018
 1559TIP3    H126312   1.558   3.791   0.721  1.0628 -0.0175 -0.6543
 1559TIP3    H226313   1.557   3.919   0.803  0.4994 -0.9295  0.8119
 1560TIP3   OH226314   3.522   2.052   1.630  0.1046  0.0439 -0.2998
 1560TIP3    H126315   3.466   2.083   1.559 -2.8991 -0.1544  1.7740
 1560TIP3    H226316   3.548   2.132   1.676 -0.5088  0.0250  0.0976
 1561TIP3   OH226317   3.036   4.119   7.450 -0.4395  0.1848 -0.4723
 1561TIP3    H126318   3.091   4.040   7.452 -0.9509 -0.1704 -0.2281
 1561TIP3    H226319   3.090   4.185   7.406 -0.9955 -1.0475 -3.2478
 1562TIP3   OH226320   2.259   6.477   1.818 -0.1066  0.3276 -0.2043
 1562TIP3    H126321   2.323   6.435   1.875 -0.7483 -1.4446 -0.7411
 1562TIP3    H226322   2.257   6.568   1.847 -0.1485 -0.4297  2.3597
 1563TIP3   OH226323   0.523   6.247   0.591  0.4635 -0.0621  0.1023
 1563TIP3    H126324   0.614   6.221   0.606  0.3959 -1.1812 -1.1800
 1563TIP3    H226325   0.474   6.205   0.662  0.8061 -0.4290  0.1235
 1564TIP3   OH226326   4.949   4.159   3.515 -0.8569  0.4255 -0.2242
 1564TIP3    H126327   4.927   4.160   3.608 -1.9477 -2.0367 -0.3702
 1564TIP3    H226328   4.865   4.159   3.470 -0.3538  3.0987 -1.3459
 1565TIP3   OH226329   1.771   6.150   1.916  0.7287 -0.6366  0.3089
 1565TIP3    H126330   1.755   6.160   1.822  1.1417 -1.0640  0.1881
 1565TIP3    H226331   1.683   6.140   1.954  0.4566  0.8667  0.1509
 1566TIP3   OH226332   5.658   5.457   1.309  0.0328 -0.2199 -0.2069
 1566TIP3    H126333   5.666   5.361   1.305  0.5931 -0.1379 -1.4949
 1566TIP3    H226334   5.564   5.473   1.312 -0.0893 -0.7879 -0.8028
 1567TIP3   OH226335   2.586   6.295   2.299 -0.2671 -0.2222 -0.0213
 1567TIP3    H126336   2.499   6.279   2.262  0.7225 -2.1785 -1.7013
 1567TIP3    H226337   2.580   6.259   2.388 -0.6880 -2.0979 -0.7586
 1568TIP3   OH226338   1.023   5.503   7.959 -0.1256  0.0165 -0.3565
 1568TIP3    H126339   1.105   5.508   8.009 -0.0088  2.6097 -0.6549
 1568TIP3    H226340   1.042   5.550   7.878 -1.8876  0.6439 -0.4367
 1569TIP3   OH226341   2.936   0.967   7.923 -0.2861 -0.1407  0.4171
 1569TIP3    H126342   2.871   0.970   7.853 -0.2677 -0.1943  0.3977
 1569TIP3    H226343   2.945   0.874   7.944  1.2371 -0.3380 -0.9339
 1570TIP3   OH226344   0.211   1.484   0.898  0.4217 -0.0639 -0.1611
 1570TIP3    H126345   0.167   1.467   0.815 -1.7509 -0.6520  1.0329
 1570TIP3    H226346   0.265   1.562   0.882 -0.7805  0.4727 -1.8262
 1571TIP3   OH226347   1.940   4.720   2.348 -0.0099 -0.3606  0.1603
 1571TIP3    H126348   1.918   4.654   2.413 -0.5836  0.8572  1.2420
 1571TIP3    H226349   2.034   4.734   2.359 -0.1398 -0.0255  0.8673
 1572TIP3   OH226350   5.812   6.671   1.126 -0.0739  0.4791  0.8417
 1572TIP3    H126351   5.828   6.662   1.220  1.3248  1.1499  0.6774
 1572TIP3    H226352   5.801   6.765   1.112 -1.3619  0.2969  0.4782
 1573TIP3   OH226353   0.742   2.077   0.488 -0.3200 -0.0004  0.0196
 1573TIP3    H126354   0.663   2.082   0.434 -0.1713  0.2640 -0.1723
 1573TIP3    H226355   0.813   2.097   0.428 -0.0290 -0.9902  0.0116
 1574TIP3   OH226356   2.234   6.774   1.920 -0.0489  0.3429  0.1119
 1574TIP3    H126357   2.243   6.799   1.828  0.3136  3.2255  0.8227
 1574TIP3    H226358   2.320   6.790   1.958  0.0378 -1.5946  0.8418
 1575TIP3   OH226359   3.230   3.316   1.717  0.0319  0.2033  0.0673
 1575TIP3    H126360   3.269   3.395   1.682  3.0480 -1.1927 -0.0020
 1575TIP3    H226361   3.197   3.269   1.641 -0.9957  0.9381  0.0317
 1576TIP3   OH226362   1.476   2.622   2.352 -0.3936 -0.1298  0.3013
 1576TIP3    H126363   1.464   2.713   2.380 -1.0054 -0.0690 -0.1372
 1576TIP3    H226364   1.565   2.620   2.317 -0.7396  0.5798 -0.6817
 1577TIP3   OH226365   6.337   6.467   0.633  0.3920 -0.3425 -0.5313
 1577TIP3    H126366   6.411   6.525   0.612  1.7020 -2.0801 -0.9314
 1577TIP3    H226367   6.322   6.418   0.552 -0.5837 -0.7015 -0.1464
 1578TIP3   OH226368   0.017   5.546   8.597  0.3111 -0.3142 -0.2477
 1578TIP3    H126369  -0.077   5.551   8.578  0.1970 -0.0940  0.3604
 1578TIP3    H226370   0.058   5.596   8.526 -0.0518 -0.1670 -0.3578
 1579TIP3   OH226371   4.132   4.860   1.130  0.0921 -0.1819  0.3710
 1579TIP3    H126372   4.100   4.772   1.114 -1.8708  0.6445 -0.6547
 1579TIP3    H226373   4.211   4.867   1.076 -0.3481 -0.9867 -0.4100
 1580TIP3   OH226374   4.985   3.873   0.719 -0.6341  0.0055 -0.5292
 1580TIP3    H126375   5.035   3.814   0.775 -0.9373  1.5162  1.4463
 1580TIP3    H226376   4.927   3.816   0.669  1.2938 -1.5753 -1.0708
 1581TIP3   OH226377   4.963   6.149   3.436 -0.0205  0.1344 -0.5355
 1581TIP3    H126378   5.041   6.094   3.426  1.1158  1.7886 -1.4353
 1581TIP3    H226379   4.912   6.133   3.357  0.6037  0.7810 -1.0828
 1582TIP3   OH226380   1.065   0.942   3.035  0.1334  0.2644 -0.2100
 1582TIP3    H126381   1.000   0.990   2.983  0.6914  1.9307  0.5645
 1582TIP3    H226382   1.013   0.880   3.087 -0.5271 -0.6290 -1.8653
 1583TIP3   OH226383   6.430   6.483   1.735  0.0624  0.4113  0.4592
 1583TIP3    H126384   6.463   6.481   1.645 -1.1457 -2.0431 -0.0062
 1583TIP3    H226385   6.431   6.576   1.758  3.1315  0.8934 -1.0073
 1584TIP3   OH226386   4.698   0.483   1.155 -0.0809  0.0432  0.9684
 1584TIP3    H126387   4.695   0.558   1.215  4.6278  2.3866 -1.2104
 1584TIP3    H226388   4.638   0.506   1.084 -0.1282  0.8346  1.2535
 1585TIP3   OH226389   2.741   2.922   1.861 -0.1216  0.2524 -0.1610
 1585TIP3    H126390   2.691   2.842   1.877  0.5270  0.1013  1.3555
 1585TIP3    H226391   2.785   2.906   1.777 -2.1352  0.1780 -1.2538
 1586TIP3   OH226392   5.983   0.864   0.619  0.3338  0.0662 -0.3861
 1586TIP3    H126393   5.949   0.916   0.692  1.6173  0.6043 -0.1413
 1586TIP3    H226394   5.959   0.774   0.640  4.1197 -0.4501  2.8873
 1587TIP3   OH226395   5.236   2.022   0.170 -1.0076 -0.5421  0.0208
 1587TIP3    H126396   5.251   2.001   0.078 -1.7446 -3.2085  0.4287
 1587TIP3    H226397   5.143   2.044   0.175 -0.8658  0.0505  0.0515
 1588TIP3   OH226398   6.468   3.955   2.293  0.2913 -0.3567  0.2298
 1588TIP3    H126399   6.522   3.884   2.259 -0.2547 -1.7189  2.0547
 1588TIP3    H226400   6.434   3.999   2.215  2.2426 -0.7987 -0.9588
 1589TIP3   OH226401   5.719   2.051   1.881 -0.0854  0.0093  0.4626
 1589TIP3    H126402   5.811   2.051   1.907 -0.5203  1.2070  2.1999
 1589TIP3    H226403   5.690   1.962   1.897  0.8157 -0.4537 -0.3589
 1590TIP3   OH226404   4.525   1.646   2.987 -0.2619  0.0400 -0.0209
 1590TIP3    H126405   4.503   1.720   2.929  0.3667  0.9131  0.8285
 1590TIP3    H226406   4.444   1.629   3.035 -0.4810  0.0033 -0.3973
 1591TIP3   OH226407   0.526   5.278   8.527 -0.2504 -0.2083 -0.0715
 1591TIP3    H126408   0.514   5.353   8.468  0.1814 -0.6774 -0.7724
 1591TIP3    H226409   0.445   5.228   8.518  0.1410 -0.7249 -0.9443
 1592TIP3   OH226410   2.993   6.539   7.467  0.2116 -0.2563 -0.1328
 1592TIP3    H126411   3.068   6.558   7.411  0.7205  0.6854  0.8265
 1592TIP3    H226412   3.026   6.552   7.556 -1.2602  0.8878  0.2875
 1593TIP3   OH226413   5.375   5.125   0.830 -0.0604  0.1538  0.2525
 1593TIP3    H126414   5.352   5.059   0.765  1.7771 -1.0985  0.8131
 1593TIP3    H226415   5.465   5.151   0.808  0.0599  0.8028  1.4096
 1594TIP3   OH226416   2.710   4.441   1.213 -0.3106 -0.2203 -0.4185
 1594TIP3    H126417   2.626   4.408   1.179  0.2774 -0.2216 -1.9340
 1594TIP3    H226418   2.687   4.483   1.296 -1.5988 -1.4391 -0.1122
 1595TIP3   OH226419   3.410   5.275   1.105  0.6002  0.3281  0.2100
 1595TIP3    H126420   3.359   5.203   1.067  0.2152  0.3494  0.6837
 1595TIP3    H226421   3.420   5.337   1.033 -0.1866  0.3987  0.1513
 1596TIP3   OH226422   4.836   3.980   8.447 -0.0614  0.2217  0.7426
 1596TIP3    H126423   4.830   4.063   8.495  1.5403  0.5060  0.5052
 1596TIP3    H226424   4.767   3.926   8.484 -0.8291  1.4979  1.2384
 1597TIP3   OH226425   3.134   4.472   6.648  0.4423 -0.0585 -0.5712
 1597TIP3    H126426   3.225   4.456   6.623  0.4969 -1.3452  0.3285
 1597TIP3    H226427   3.125   4.427   6.732 -0.9844  0.1953 -0.5735
 1598TIP3   OH226428   5.295   5.847   2.062 -0.0844 -0.4325  0.0118
 1598TIP3    H126429   5.263   5.826   1.974 -0.0156 -1.3596  0.2015
 1598TIP3    H226430   5.389   5.829   2.058  0.4037  1.8729 -0.4199
 1599TIP3   OH226431   4.768   3.071   2.871  0.3068 -0.3941  0.1547
 1599TIP3    H126432   4.709   3.121   2.928 -1.0706  0.0616 -1.6012
 1599TIP3    H226433   4.723   2.987   2.858  0.6186 -0.5024 -0.2351
 1600TIP3   OH226434   6.164   5.991   1.573 -0.0327  0.0210 -0.7844
 1600TIP3    H126435   6.140   5.907   1.612 -1.1680  0.8841  0.5111
 1600TIP3    H226436   6.259   5.998   1.586 -0.2357 -0.1528  1.0590
 1601TIP3   OH226437   3.080   6.262   1.585  0.2782 -0.2826 -0.2603
 1601TIP3    H126438   3.114   6.219   1.507  0.9659  0.4285 -0.3572
 1601TIP3    H226439   3.122   6.348   1.586 -0.9583  0.3366  0.0207
 1602TIP3   OH226440   1.970   4.524   1.657 -0.6683 -0.0705 -0.2139
 1602TIP3    H126441   1.916   4.602   1.669 -0.8444 -0.1045 -0.7310
 1602TIP3    H226442   2.022   4.543   1.578  0.0194 -0.0699  0.2289
 1603TIP3   OH226443   5.557   2.612   3.112 -0.1366 -0.2603 -0.0399
 1603TIP3    H126444   5.515   2.586   3.031 -0.6188  1.2831 -0.3306
 1603TIP3    H226445   5.522   2.700   3.130  0.5752 -0.2313  1.3995
 1604TIP3   OH226446   5.306   5.690   1.815 -0.3011  0.1418  0.4500
 1604TIP3    H126447   5.348   5.609   1.846 -0.7840 -0.0690  0.5692
 1604TIP3    H226448   5.315   5.687   1.720 -1.5183 -0.7347  0.3473
 1605TIP3   OH226449   4.499   1.840   2.461  0.2772 -0.3042  0.6483
 1605TIP3    H126450   4.526   1.894   2.387 -1.0097  1.1918  1.1812
 1605TIP3    H226451   4.479   1.755   2.424  0.9077  0.0381 -0.4993
 1606TIP3   OH226452   0.401   4.550   0.895  0.0861 -0.3945  0.0820
 1606TIP3    H126453   0.317   4.512   0.872  0.5710 -2.0797  0.9062
 1606TIP3    H226454   0.402   4.635   0.851 -0.5833 -1.7757 -2.8714
 1607TIP3   OH226455   3.456   5.554   2.116  1.2513  0.2689  0.3005
 1607TIP3    H126456   3.398   5.486   2.149  2.0291  0.4702  2.2435
 1607TIP3    H226457   3.507   5.511   2.048  2.7076 -1.5992  2.4178
 1608TIP3   OH226458   2.704   6.011   0.707  0.0204  0.3755  0.2206
 1608TIP3    H126459   2.667   6.065   0.777 -0.1715 -1.4746  1.6113
 1608TIP3    H226460   2.735   5.932   0.751 -0.7784 -1.1865 -1.8615
 1609TIP3   OH226461   0.109   5.104   2.340 -0.2996  0.0802  0.1992
 1609TIP3    H126462   0.124   5.198   2.345 -1.8104  0.3181  0.6127
 1609TIP3    H226463   0.159   5.067   2.413  2.4657  0.2095 -1.4587
 1610TIP3   OH226464   6.022   2.625   1.242  0.7456 -0.1357  0.4475
 1610TIP3    H126465   5.943   2.677   1.260  0.7401  0.1491 -0.3646
 1610TIP3    H226466   5.991   2.535   1.239  0.8123 -0.2431  2.2235
 1611TIP3   OH226467   0.498   0.754   1.824  0.3082 -0.6639  0.3142
 1611TIP3    H126468   0.457   0.818   1.766  0.0821 -1.1879 -0.1032
 1611TIP3    H226469   0.587   0.744   1.790 -0.3112 -2.1702 -0.9330
 1612TIP3   OH226470   5.615   3.990   8.231 -0.4869  0.2089 -0.1416
 1612TIP3    H126471   5.589   3.970   8.321  0.3034 -0.7217 -0.1021
 1612TIP3    H226472   5.606   3.907   8.184  0.3580  0.3670 -0.6077
 1613TIP3   OH226473   4.004   4.952   7.221  0.0561 -0.0239  0.4359
 1613TIP3    H126474   4.003   4.868   7.176  0.3665  0.4236 -0.4530
 1613TIP3    H226475   3.915   4.963   7.254 -1.1927  1.0094 -2.8132
 1614TIP3   OH226476   5.899   5.087   1.701 -0.0248 -0.2690  0.2590
 1614TIP3    H126477   5.912   5.146   1.775 -2.7399 -0.8285  1.2702
 1614TIP3    H226478   5.816   5.113   1.662  0.1164 -1.6033 -1.0450
 1615TIP3   OH226479   4.788   6.489   2.807  0.2902 -0.2386 -0.5209
 1615TIP3    H126480   4.809   6.561   2.866 -0.3478  0.8848 -1.6125
 1615TIP3    H226481   4.693   6.481   2.811  0.2817 -0.4452 -1.0589
 1616TIP3   OH226482   6.701   1.961   3.232  0.0116  0.0271 -0.0799
 1616TIP3    H126483   6.646   1.883   3.231  0.7890 -0.5292 -0.3320
 1616TIP3    H226484   6.677   2.006   3.314  0.2156 -0.9519  0.5339
 1617TIP3   OH226485   3.549   6.322   8.486 -0.2998 -1.0542 -0.0567
 1617TIP3    H126486   3.609   6.254   8.455  0.8251  0.4991 -1.4974
 1617TIP3    H226487   3.489   6.337   8.413  1.0645  1.1907 -0.8365
 1618TIP3   OH226488   5.533   6.723   7.975 -0.3517  0.0106  0.1900
 1618TIP3    H126489   5.507   6.719   7.883  2.2041  1.8999 -0.7045
 1618TIP3    H226490   5.628   6.722   7.974 -0.2413 -0.3958  2.8860
 1619TIP3   OH226491   1.329   6.542   0.349  1.0303 -0.2463 -0.0541
 1619TIP3    H126492   1.325   6.535   0.444  1.6600  0.2059  0.0109
 1619TIP3    H226493   1.341   6.452   0.318  2.2409 -0.2566  0.3793
 1620TIP3   OH226494   6.067   2.272   0.241  0.3816  0.0701 -0.3981
 1620TIP3    H126495   6.031   2.358   0.261  0.5455 -0.2950  1.7195
 1620TIP3    H226496   5.996   2.211   0.264  1.0493 -0.4508  0.3456
 1621TIP3   OH226497   0.768   1.771   1.445 -0.0096 -0.7222  0.4256
 1621TIP3    H126498   0.750   1.687   1.487  2.2250 -0.6903  1.6148
 1621TIP3    H226499   0.761   1.835   1.516  4.4735 -0.7379  1.2099
 1622TIP3   OH226500   5.477   6.209   1.149 -0.3104 -0.1495  0.5210
 1622TIP3    H126501   5.503   6.285   1.097 -1.4793 -0.6564 -0.8738
 1622TIP3    H226502   5.518   6.134   1.105  0.6576 -0.3754  1.7544
 1623TIP3   OH226503   0.133   1.306   3.188 -0.2599  0.2728 -0.0241
 1623TIP3    H126504   0.144   1.386   3.138  1.5764  0.7697  1.1025
 1623TIP3    H226505   0.187   1.318   3.266 -2.3238 -0.8220  1.6873
 1624TIP3   OH226506   1.439   4.628   1.971  0.1274 -0.1002 -0.0060
 1624TIP3    H126507   1.516   4.594   1.927  0.6689 -0.7561  1.3987
 1624TIP3    H226508   1.438   4.585   2.057 -2.0940 -0.5231 -0.1682
 1625TIP3   OH226509   6.774   1.311   0.460  0.5525  0.1595  0.2565
 1625TIP3    H126510   6.705   1.267   0.509  0.5736 -0.4492 -0.2482
 1625TIP3    H226511   6.801   1.248   0.393  1.0039  0.7105 -0.0989
 1626TIP3   OH226512   4.825   4.399   1.183  0.6071 -0.0563 -0.3598
 1626TIP3    H126513   4.810   4.304   1.181 -0.5006  0.1162 -1.1608
 1626TIP3    H226514   4.870   4.418   1.101  1.6064  0.0020  0.1918
 1627TIP3   OH226515   4.403   2.330   1.002  0.0094 -0.0203  0.2246
 1627TIP3    H126516   4.414   2.288   1.087  0.8445  0.8461  0.5677
 1627TIP3    H226517   4.473   2.395   0.998  0.4683 -0.5655 -1.4591
 1628TIP3   OH226518   2.744   3.070   7.553 -0.1964 -0.3088  0.1589
 1628TIP3    H126519   2.830   3.032   7.535 -1.0958 -2.8910  0.8894
 1628TIP3    H226520   2.684   3.021   7.498 -1.0725  3.0050 -2.1160
 1629TIP3   OH226521   6.603   2.603   3.431  0.4008  0.3157 -0.5196
 1629TIP3    H126522   6.622   2.514   3.462  0.2039 -0.0086 -1.3066
 1629TIP3    H226523   6.616   2.598   3.336  0.3041  1.1089 -0.5757
 1630TIP3   OH226524   3.658   5.234   1.218  0.3195 -0.0138 -1.1441
 1630TIP3    H126525   3.640   5.173   1.290  1.0108  1.6138  0.4696
 1630TIP3    H226526   3.577   5.234   1.167  0.0094 -1.6354 -0.7218
 1631TIP3   OH226527   5.612   0.441   1.866  0.2136 -0.2896 -0.1719
 1631TIP3    H126528   5.525   0.470   1.835  0.1409  0.2320  0.5145
 1631TIP3    H226529   5.593   0.386   1.941  0.5014  0.3929  0.4137
 1632TIP3   OH226530   2.980   1.585   1.738  0.1753  0.0635  0.1356
 1632TIP3    H126531   3.042   1.640   1.785  0.3223  0.6812 -0.7524
 1632TIP3    H226532   3.033   1.538   1.674 -0.1134 -0.2498  0.1234
 1633TIP3   OH226533   4.414   1.441   8.352  0.0592 -0.2608 -0.3313
 1633TIP3    H126534   4.453   1.391   8.280 -0.7826 -1.6084  0.1099
 1633TIP3    H226535   4.454   1.528   8.345 -1.3361  0.2527 -3.5318
 1634TIP3   OH226536   5.029   2.159   1.571 -0.0449 -0.0278 -0.0308
 1634TIP3    H126537   5.024   2.069   1.538  2.5141 -0.1159 -0.4288
 1634TIP3    H226538   5.074   2.151   1.655 -0.1275  0.8375  0.1005
 1635TIP3   OH226539   2.325   2.202   1.291  0.5518 -0.2934  0.0442
 1635TIP3    H126540   2.370   2.229   1.371  0.7782  0.4362 -0.3315
 1635TIP3    H226541   2.252   2.263   1.283 -0.3414 -1.2655  0.4711
 1636TIP3   OH226542   6.353   2.113   1.566  0.2056  0.6515 -0.0992
 1636TIP3    H126543   6.342   2.206   1.549 -1.6987  0.4443 -0.2302
 1636TIP3    H226544   6.427   2.087   1.512  1.3429  2.2324  0.6009
 1637TIP3   OH226545   4.156   4.660   8.450 -0.0298  0.0209  0.0327
 1637TIP3    H126546   4.063   4.683   8.449  0.2751  1.3069 -0.8279
 1637TIP3    H226547   4.197   4.726   8.506  0.0273 -2.2503  2.9908
 1638TIP3   OH226548   4.250   2.719   0.479  0.1466  0.5375 -0.5574
 1638TIP3    H126549   4.201   2.639   0.459  1.3651 -0.1438 -0.9096
 1638TIP3    H226550   4.325   2.716   0.421 -0.2151  2.3864 -1.1911
 1639TIP3   OH226551   3.865   3.183   2.886  0.3120  0.0648 -0.2064
 1639TIP3    H126552   3.923   3.256   2.911  0.0958  0.3863 -0.6412
 1639TIP3    H226553   3.909   3.142   2.812  0.6953 -0.5783  0.3605
 1640TIP3   OH226554   4.164   4.410   2.308 -0.1549  0.1488  0.6699
 1640TIP3    H126555   4.080   4.453   2.291  0.3534  2.0919  2.4801
 1640TIP3    H226556   4.226   4.458   2.254 -0.0371 -0.4908  0.2362
 1641TIP3   OH226557   5.759   6.399   0.810 -0.1021 -0.4960  0.5143
 1641TIP3    H126558   5.671   6.431   0.827 -0.4906 -0.5908 -1.1614
 1641TIP3    H226559   5.759   6.308   0.840 -1.6733 -1.6167 -2.4980
 1642TIP3   OH226560   3.770   5.947   1.777 -0.2419 -0.0978  0.0262
 1642TIP3    H126561   3.857   5.980   1.801 -0.5248  0.5543  0.1611
 1642TIP3    H226562   3.737   6.011   1.714 -0.4927 -0.5218 -0.2720
 1643TIP3   OH226563   1.716   3.840   2.465 -0.5034 -0.6193 -0.1531
 1643TIP3    H126564   1.760   3.895   2.401 -0.5914 -1.8879 -1.3610
 1643TIP3    H226565   1.754   3.866   2.549  0.2336  0.5057 -0.8069
 1644TIP3   OH226566   5.231   1.300   1.292  0.3473 -0.3270  0.3935
 1644TIP3    H126567   5.298   1.261   1.348  0.8882 -0.6996 -0.4920
 1644TIP3    H226568   5.175   1.227   1.267  1.3328 -0.5796 -1.2262
 1645TIP3   OH226569   5.691   2.788   8.395  0.0149 -0.0046 -0.3318
 1645TIP3    H126570   5.679   2.695   8.382  0.1976  0.0226 -0.7232
 1645TIP3    H226571   5.639   2.809   8.472 -1.6945 -0.0408 -1.4245
 1646TIP3   OH226572   2.932   4.760   7.718 -0.1235 -0.2450 -0.0607
 1646TIP3    H126573   3.013   4.811   7.709  0.3460 -0.9400  0.2111
 1646TIP3    H226574   2.896   4.757   7.629  0.7559 -0.9311 -0.4008
 1647TIP3   OH226575   0.080   2.661   8.596  0.2469  0.6292 -0.8600
 1647TIP3    H126576   0.029   2.641   8.674 -0.1829  1.9980 -0.7567
 1647TIP3    H226577   0.135   2.584   8.582  0.8103  0.6162  1.1778
 1648TIP3   OH226578   0.046   0.155   2.386  0.2770  0.4817  0.2333
 1648TIP3    H126579  -0.008   0.110   2.321  0.4383 -0.9497  1.0505
 1648TIP3    H226580  -0.005   0.151   2.466  0.8916  0.5811  0.6332
 1649TIP3   OH226581   3.144   1.257   2.766 -0.1441 -0.3507 -0.3129
 1649TIP3    H126582   3.150   1.216   2.852  0.7181 -0.4181 -0.4018
 1649TIP3    H226583   3.101   1.341   2.781 -0.0294 -0.3805  0.1758
 1650TIP3   OH226584   5.099   1.387   0.113 -0.1909  0.0028 -0.0986
 1650TIP3    H126585   5.106   1.482   0.127 -2.5983  0.1044  0.8868
 1650TIP3    H226586   5.124   1.349   0.198 -0.8059 -0.1505  0.0157
 1651TIP3   OH226587   4.797   1.790   1.119  0.6112 -0.3096 -0.5721
 1651TIP3    H126588   4.861   1.816   1.052  0.6707  0.6912 -0.1429
 1651TIP3    H226589   4.713   1.817   1.082  0.4887 -1.0994 -0.8824
 1652TIP3   OH226590   2.560   6.364   0.055 -0.1050  0.0109  0.6516
 1652TIP3    H126591   2.600   6.414   0.125  0.1640  0.5830  0.0964
 1652TIP3    H226592   2.468   6.391   0.055 -0.3144 -0.6704  1.3706
 1653TIP3   OH226593   6.091   1.489   1.331 -0.3831 -0.5358  0.3768
 1653TIP3    H126594   6.152   1.419   1.356 -0.3127 -0.7293 -0.3122
 1653TIP3    H226595   6.037   1.502   1.408 -0.2471 -1.1955  0.5923
 1654TIP3   OH226596   1.446   4.057   0.948  0.3207 -0.1141 -0.1472
 1654TIP3    H126597   1.540   4.077   0.940 -0.0005  2.3761  1.3349
 1654TIP3    H226598   1.414   4.063   0.858  1.2243  1.3140 -0.4203
 1655TIP3   OH226599   2.504   3.254   2.377  0.2823 -0.3696  0.5308
 1655TIP3    H126600   2.553   3.336   2.379  0.4076 -0.4470  1.3647
 1655TIP3    H226601   2.567   3.189   2.348 -0.2565  0.0774 -1.7950
 1656TIP3   OH226602   5.380   0.756   2.011  0.0752 -0.6718  0.5089
 1656TIP3    H126603   5.368   0.750   1.916 -1.3711 -0.3760  0.6474
 1656TIP3    H226604   5.406   0.847   2.025 -1.2400 -0.2804  0.5165
 1657TIP3   OH226605   4.600   3.544   2.179 -0.2685  0.0704 -0.8239
 1657TIP3    H126606   4.625   3.557   2.270 -0.8141 -1.2504 -0.4565
 1657TIP3    H226607   4.683   3.534   2.132 -0.0036 -1.3865 -0.1017
 1658TIP3   OH226608   1.017   6.760   1.966 -0.2059  0.3227 -0.0680
 1658TIP3    H126609   0.988   6.813   1.892  0.2753  0.7565  0.0429
 1658TIP3    H226610   1.008   6.669   1.936 -1.2641  0.4556 -0.1726
 1659TIP3   OH226611   5.778   5.879   0.804 -0.5116  0.0200  0.2804
 1659TIP3    H126612   5.729   5.900   0.724 -0.1766 -0.5141 -0.0737
 1659TIP3    H226613   5.863   5.848   0.772 -0.1810  0.3101  0.8672
 1660TIP3   OH226614   6.231   4.911   7.724  0.2043 -0.3096  0.2785
 1660TIP3    H126615   6.174   4.901   7.800  0.9674  1.1717  1.0996
 1660TIP3    H226616   6.176   4.952   7.658 -0.3553 -1.2389  0.1433
 1661TIP3   OH226617   2.777   1.999   1.406 -0.1325 -1.0633 -0.2447
 1661TIP3    H126618   2.733   2.015   1.490  1.3410 -0.2397  0.3981
 1661TIP3    H226619   2.725   2.048   1.342 -0.1221 -0.0195  0.5174
 1662TIP3   OH226620   4.912   5.501   1.112 -0.6419  0.0746  0.1143
 1662TIP3    H126621   4.831   5.493   1.062 -1.8585  0.6594  1.9093
 1662TIP3    H226622   4.948   5.586   1.086 -0.3703 -0.3578 -0.9758
 1663TIP3   OH226623   0.519   4.699   1.866  0.5745 -0.5221 -0.4340
 1663TIP3    H126624   0.438   4.649   1.868  0.5969 -0.5634 -0.5507
 1663TIP3    H226625   0.501   4.778   1.918  0.5466 -0.6625 -0.2301
 1664TIP3   OH226626   3.810   6.836   2.313 -0.3383 -0.0370  0.0388
 1664TIP3    H126627   3.866   6.823   2.236 -0.4348 -2.3074  0.2835
 1664TIP3    H226628   3.721   6.836   2.278 -0.2967  1.8251 -0.1454
 1665TIP3   OH226629   5.057   4.056   0.508  0.3360  0.0394 -0.1900
 1665TIP3    H126630   4.982   4.040   0.451  0.0143  1.5453 -0.2264
 1665TIP3    H226631   5.044   3.996   0.582 -0.6840 -0.0083 -0.3942
 1666TIP3   OH226632   5.805   5.823   2.367  0.0878  0.0369 -0.1043
 1666TIP3    H126633   5.721   5.783   2.391  1.1500 -1.1203  1.9886
 1666TIP3    H226634   5.869   5.753   2.382  1.4867  1.0366 -1.2182
 1667TIP3   OH226635   2.460   5.771   7.935  0.3072 -0.2257  0.4427
 1667TIP3    H126636   2.436   5.791   7.845 -0.8418 -0.8480  0.5864
 1667TIP3    H226637   2.428   5.846   7.986 -1.0190 -0.8380  0.5737
 1668TIP3   OH226638   1.375   5.437   1.162  0.5318 -0.1329  0.0905
 1668TIP3    H126639   1.395   5.523   1.198 -1.8836  1.1648 -1.4141
 1668TIP3    H226640   1.362   5.381   1.239 -0.2680  1.4812  1.1780
 1669TIP3   OH226641   0.752   3.941   0.099  0.3644  0.3289 -0.2328
 1669TIP3    H126642   0.729   3.866   0.044 -0.5800 -0.6601  1.4273
 1669TIP3    H226643   0.838   3.919   0.134  0.2926  0.2447 -0.1103
 1670TIP3   OH226644   5.979   0.670   1.269  0.6832  0.2327 -0.0801
 1670TIP3    H126645   5.962   0.575   1.268  1.0532  0.1666 -0.7558
 1670TIP3    H226646   5.983   0.694   1.176 -0.9466  1.1908  0.0553
 1671TIP3   OH226647   4.501   4.583   1.089  0.3835  0.5909  0.0000
 1671TIP3    H126648   4.584   4.631   1.090  0.3980  0.6674 -1.7403
 1671TIP3    H226649   4.436   4.648   1.115  0.7966  0.6256  1.0110
 1672TIP3   OH226650   4.491   4.045   0.004 -0.3909 -0.0593  0.4843
 1672TIP3    H126651   4.492   4.057   0.099  0.3782  0.8694  0.3752
 1672TIP3    H226652   4.535   4.123  -0.030  0.1988 -0.8449 -0.5855
 1673TIP3   OH226653   3.379   1.395   1.668  0.1027  0.4994 -0.1874
 1673TIP3    H126654   3.427   1.476   1.687  0.0790  0.5499 -0.3429
 1673TIP3    H226655   3.306   1.395   1.730  1.8712 -0.9834  2.0872
 1674TIP3   OH226656   0.084   5.536   0.452 -0.2986  0.2979  0.0406
 1674TIP3    H126657   0.012   5.586   0.413 -1.2464 -1.5284 -0.6602
 1674TIP3    H226658   0.128   5.496   0.377  0.3354 -0.0559  0.5944
 1675TIP3   OH226659   6.542   1.753   3.221  0.1750 -0.2983 -0.1632
 1675TIP3    H126660   6.522   1.761   3.127  0.3720 -2.8629 -0.5120
 1675TIP3    H226661   6.458   1.733   3.262  0.4495 -1.5481 -0.1800
 1676TIP3   OH226662   2.493   6.083   8.304  0.6548 -0.0916 -0.1443
 1676TIP3    H126663   2.533   6.142   8.240  1.2636  1.3937  1.5145
 1676TIP3    H226664   2.563   6.068   8.369  0.5094 -2.6466 -0.4795
 1677TIP3   OH226665   3.052   1.383   0.197  0.5671 -0.4411 -0.7125
 1677TIP3    H126666   2.983   1.442   0.165  1.9453  1.8898  0.3901
 1677TIP3    H226667   3.030   1.367   0.289  1.2314 -0.0728 -0.4846
 1678TIP3   OH226668   0.136   2.517   7.838  0.3007 -0.2782 -0.1790
 1678TIP3    H126669   0.133   2.533   7.744  1.4885  0.3841 -0.1252
 1678TIP3    H226670   0.183   2.435   7.847  1.6240  0.4615 -0.1175
 1679TIP3   OH226671   0.121   2.438   7.496 -0.1150  0.5122  0.9888
 1679TIP3    H126672   0.042   2.401   7.536  1.0015 -0.6270  2.2212
 1679TIP3    H226673   0.087   2.504   7.436 -1.9648  1.5069  2.9412
 1680TIP3   OH226674   5.953   4.423   0.689  0.8337  0.3801 -0.1819
 1680TIP3    H126675   5.898   4.473   0.749 -1.3869 -0.4879 -1.3697
 1680TIP3    H226676   5.916   4.335   0.691 -0.4255  0.6564 -3.9095
 1681TIP3   OH226677   1.647   2.503   3.768  0.1971 -0.0457  0.8945
 1681TIP3    H126678   1.693   2.586   3.758 -1.5151  0.9498  1.0066
 1681TIP3    H226679   1.711   2.445   3.810  0.9229  1.6637  2.2542
 1682TIP3   OH226680   5.508   2.480   1.843  0.1870  0.6986 -0.5319
 1682TIP3    H126681   5.579   2.508   1.785 -1.1255  1.2690 -1.9279
 1682TIP3    H226682   5.540   2.399   1.883  0.3067 -0.9869 -3.7457
 1683TIP3   OH226683   5.104   0.428   0.291  0.8993 -0.3092  0.2043
 1683TIP3    H126684   5.108   0.431   0.387  0.8006  2.4248  0.2080
 1683TIP3    H226685   5.193   0.402   0.265  0.8806 -1.2596  0.9955
 1684TIP3   OH226686   5.630   3.502   0.556 -0.6625  0.2855 -0.3918
 1684TIP3    H126687   5.566   3.482   0.488 -2.6442 -1.3349  1.7562
 1684TIP3    H226688   5.658   3.416   0.589  0.8301  1.0006  0.3355
 1685TIP3   OH226689   6.704   1.176   2.030  0.1504  0.5245 -0.7013
 1685TIP3    H126690   6.757   1.097   2.040  1.5463  1.5741  0.4741
 1685TIP3    H226691   6.620   1.154   2.072  0.9292  0.0385  0.6528
 1686TIP3   OH226692   5.036   5.965   0.284 -0.8000 -0.2433 -0.0043
 1686TIP3    H126693   4.977   5.916   0.341  0.2525 -0.1614  1.2003
 1686TIP3    H226694   5.093   5.899   0.245 -0.8571 -0.1996 -0.1618
 1687TIP3   OH226695   3.229   1.843   2.088 -0.1155 -0.7477 -0.7893
 1687TIP3    H126696   3.235   1.785   2.012  0.5108 -0.6584 -0.8088
 1687TIP3    H226697   3.153   1.811   2.136 -0.5100 -0.8162 -1.4429
 1688TIP3   OH226698   3.783   4.552   2.861  0.3367  0.2764 -0.1177
 1688TIP3    H126699   3.742   4.632   2.827  0.1874  0.5883  0.7579
 1688TIP3    H226700   3.791   4.495   2.785  0.3377  1.0793 -0.7397
 1689TIP3   OH226701   2.907   1.860   0.179 -0.1753  0.6033 -0.6251
 1689TIP3    H126702   2.914   1.878   0.272 -2.3364 -1.4130  0.0251
 1689TIP3    H226703   2.833   1.913   0.149 -1.5951 -1.1302 -0.3868
 1690TIP3   OH226704   3.613   2.002   8.464 -0.4733  0.0784 -0.2824
 1690TIP3    H126705   3.582   1.946   8.392 -0.7008  1.2526 -1.1365
 1690TIP3    H226706   3.692   2.043   8.429 -1.1345  1.4203 -0.2521
 1691TIP3   OH226707   2.221   6.516   0.926 -0.0921 -0.0386  0.2230
 1691TIP3    H126708   2.226   6.478   1.014  0.1873  1.0165  0.6876
 1691TIP3    H226709   2.230   6.610   0.941  0.7979  0.0898 -1.0183
 1692TIP3   OH226710   6.614   1.937   1.118 -0.0315 -0.3437 -0.2639
 1692TIP3    H126711   6.663   1.921   1.037  0.2410 -0.0832 -0.1495
 1692TIP3    H226712   6.607   2.033   1.124 -1.3870 -0.3840 -0.7840
 1693TIP3   OH226713   2.027   6.259   0.996 -0.0925  0.4878 -0.1127
 1693TIP3    H126714   2.098   6.272   1.058 -0.4352 -1.4141  0.7624
 1693TIP3    H226715   1.993   6.172   1.017 -1.8467  0.8263 -1.3481
 1694TIP3   OH226716   0.058   3.348   0.715  0.1195 -0.1212 -0.3156
 1694TIP3    H126717   0.027   3.296   0.789  1.0896  0.4264  0.5108
 1694TIP3    H226718   0.082   3.433   0.754 -2.4272  1.3867 -1.7596
 1695TIP3   OH226719   2.865   4.826   8.219 -0.9741  0.1610  0.1625
 1695TIP3    H126720   2.920   4.807   8.295  0.0644  1.8065 -0.1310
 1695TIP3    H226721   2.795   4.881   8.253  0.3873  2.2895 -0.2576
 1696TIP3   OH226722   4.742   4.789   2.757  0.4275  0.0899 -0.6685
 1696TIP3    H126723   4.837   4.777   2.767  0.3357 -0.3932 -0.3195
 1696TIP3    H226724   4.706   4.753   2.838  0.0257  1.4473 -0.2204
 1697TIP3   OH226725   1.385   0.075   0.852 -0.3782  0.2875  0.5349
 1697TIP3    H126726   1.387   0.095   0.945  0.0243 -0.0544  0.6034
 1697TIP3    H226727   1.293   0.087   0.826 -0.3540  1.0792  0.8155
 1698TIP3   OH226728   5.457   5.901   8.316 -0.1897 -0.0936  0.1824
 1698TIP3    H126729   5.376   5.889   8.267 -0.3308  1.1574  0.0911
 1698TIP3    H226730   5.431   5.898   8.408 -0.6773  2.2473  0.1648
 1699TIP3   OH226731   2.662   2.181   1.628  0.3268 -0.0957  0.0103
 1699TIP3    H126732   2.584   2.148   1.583 -1.1380  0.0098  2.2758
 1699TIP3    H226733   2.675   2.269   1.592 -1.8284  0.6624  0.8862
 1700TIP3   OH226734   1.685   1.203   0.177 -0.3624 -0.1470  0.2303
 1700TIP3    H126735   1.632   1.264   0.228  0.6847  1.2477 -0.2836
 1700TIP3    H226736   1.666   1.117   0.215 -0.4217  0.7010  2.2691
 1701TIP3   OH226737   4.659   4.142   2.736 -0.2622  0.1582 -0.0861
 1701TIP3    H126738   4.672   4.151   2.642 -1.0339  0.4946 -0.1724
 1701TIP3    H226739   4.746   4.150   2.774 -0.0615  1.0371 -0.7097
 1702TIP3   OH226740   1.542   2.739   1.689 -0.3040  0.0445  0.2643
 1702TIP3    H126741   1.579   2.736   1.601 -0.1557 -0.9716  0.3489
 1702TIP3    H226742   1.569   2.824   1.724  1.0869 -0.2433 -0.0527
 1703TIP3   OH226743   4.731   4.738   1.062  0.3901 -0.1318 -0.0374
 1703TIP3    H126744   4.789   4.779   1.126  0.5767  0.9422 -0.8684
 1703TIP3    H226745   4.790   4.701   0.996  0.1861 -0.8759  0.1905
 1704TIP3   OH226746   1.046   1.620   8.178 -0.4518 -0.3294 -0.5825
 1704TIP3    H126747   0.953   1.600   8.169 -0.6389  0.3535 -0.2025
 1704TIP3    H226748   1.052   1.677   8.254  0.4323 -1.3950  0.1779
 1705TIP3   OH226749   5.781   6.510   0.483 -0.5338 -0.2762  0.6225
 1705TIP3    H126750   5.715   6.442   0.493 -0.8808  0.3138  2.9146
 1705TIP3    H226751   5.733   6.584   0.446 -0.1468 -1.1716 -1.9206
 1706TIP3   OH226752   2.773   4.246   2.851  0.2462 -0.3159  0.6504
 1706TIP3    H126753   2.777   4.335   2.816  0.9294 -0.4060  0.4735
 1706TIP3    H226754   2.711   4.251   2.924 -0.4903  0.0749  0.0032
 1707TIP3   OH226755   4.390   1.350   2.615 -0.0037 -0.5909 -0.3765
 1707TIP3    H126756   4.463   1.346   2.554  1.1910 -3.5796  1.0353
 1707TIP3    H226757   4.422   1.403   2.688  0.1337 -0.5301 -0.4799
 1708TIP3   OH226758   3.077   3.652   2.871 -0.3307  0.8275 -0.4660
 1708TIP3    H126759   3.154   3.630   2.924 -0.5003  1.8298  0.2353
 1708TIP3    H226760   3.007   3.598   2.908  0.4120 -1.6679 -2.4434
 1709TIP3   OH226761   5.227   2.059   8.156  0.0365 -0.4255  0.4006
 1709TIP3    H126762   5.293   2.048   8.225  0.8696 -0.5983 -0.4046
 1709TIP3    H226763   5.171   2.129   8.188  0.4237 -0.4810  1.2412
 1710TIP3   OH226764   1.164   4.053   8.135 -0.7276  0.2652 -0.2431
 1710TIP3    H126765   1.148   4.039   8.041 -0.5363  0.5377 -0.3157
 1710TIP3    H226766   1.077   4.069   8.172 -1.0757 -1.8449 -0.0291
 1711TIP3   OH226767   4.799   1.606   1.966 -0.2414  0.0832  0.1138
 1711TIP3    H126768   4.741   1.659   1.911  2.1715  3.4507  0.5370
 1711TIP3    H226769   4.809   1.656   2.047  1.7028 -1.3240  0.8214
 1712TIP3   OH226770   6.894   1.553   0.395  0.2335 -0.9324  0.8073
 1712TIP3    H126771   6.810   1.598   0.402  1.1755  1.0007  0.5995
 1712TIP3    H226772   6.874   1.470   0.352 -1.3732  0.1001 -0.5678
 1713TIP3   OH226773   6.882   4.312   7.952 -0.6757 -0.4365  0.0039
 1713TIP3    H126774   6.939   4.388   7.944  0.9152 -1.6880 -0.9638
 1713TIP3    H226775   6.803   4.346   7.994 -0.2953  1.8757 -1.0393
 1714TIP3   OH226776   6.121   6.175   0.452 -0.2704 -0.0311 -0.0497
 1714TIP3    H126777   6.138   6.153   0.360 -3.4005 -0.2834 -0.6868
 1714TIP3    H226778   6.114   6.271   0.452 -0.8714 -0.0678 -0.2369
 1715TIP3   OH226779   5.785   4.496   2.675  0.2079  0.7192  0.2604
 1715TIP3    H126780   5.789   4.591   2.660 -1.3829  1.2795  2.7345
 1715TIP3    H226781   5.804   4.486   2.768  0.6308 -1.4542 -0.0117
 1716TIP3   OH226782   5.413   6.569   8.627 -0.5997 -0.3421  0.5214
 1716TIP3    H126783   5.479   6.631   8.594 -0.7890  0.2916  1.3196
 1716TIP3    H226784   5.402   6.507   8.555  0.9795 -0.5518  0.4218
 1717TIP3   OH226785   5.390   6.494   8.204  0.4773  0.0217 -0.0780
 1717TIP3    H126786   5.359   6.437   8.274  0.4168  0.5148  0.3085
 1717TIP3    H226787   5.310   6.529   8.165  0.2949 -3.0442 -2.8697
 1718TIP3   OH226788   4.793   2.959   7.990 -0.1512 -0.1118 -0.1806
 1718TIP3    H126789   4.718   2.901   7.977 -0.7149  0.7145 -0.7059
 1718TIP3    H226790   4.759   3.047   7.973  0.3063  0.5669  2.0108
 1719TIP3   OH226791   6.518   2.931   0.016 -0.9855 -0.7941 -0.0103
 1719TIP3    H126792   6.515   2.915  -0.078  1.1647  0.9632 -0.4879
 1719TIP3    H226793   6.484   3.020   0.027  0.3088 -0.3285  0.5862
 1720TIP3   OH226794   4.881   5.258   0.386  0.2093  0.3749 -0.5785
 1720TIP3    H126795   4.952   5.231   0.326 -0.1902 -0.9990 -0.4722
 1720TIP3    H226796   4.804   5.211   0.354  0.0590 -0.6875  1.1865
 1721TIP3   OH226797   5.622   6.617   2.331 -1.0722  0.3463 -0.3299
 1721TIP3    H126798   5.543   6.600   2.279 -0.8025  0.2463 -0.7067
 1721TIP3    H226799   5.694   6.600   2.272 -0.6817 -2.1284  0.7433
 1722TIP3   OH226800   3.650   5.784   0.200  0.3394 -0.1255 -0.0538
 1722TIP3    H126801   3.584   5.830   0.148  0.2135 -0.5482 -0.2821
 1722TIP3    H226802   3.709   5.747   0.134  0.1124 -0.7633  0.0932
 1723TIP3   OH226803   0.324   5.075   7.849  0.2895 -0.0721 -0.3243
 1723TIP3    H126804   0.293   5.078   7.759 -1.2349  0.4956  0.1848
 1723TIP3    H226805   0.306   5.163   7.884 -0.5374 -0.7119  0.9480
 1724TIP3   OH226806   0.048   3.345   7.533  0.3890 -0.0516  0.4959
 1724TIP3    H126807   0.086   3.413   7.478 -1.9899  1.6748  0.8517
 1724TIP3    H226808   0.124   3.298   7.568  2.0733  1.4180 -0.9564
 1725TIP3   OH226809   0.006   6.199   2.381  0.2681  0.2942  0.3755
 1725TIP3    H126810  -0.023   6.127   2.437  0.5275  0.4300  0.6876
 1725TIP3    H226811  -0.047   6.191   2.302  0.6311 -0.5343  0.2045
 1726TIP3   OH226812   0.971   1.956   1.327 -0.6475 -0.3998  0.3597
 1726TIP3    H126813   1.036   1.894   1.362  0.7066  0.0188 -1.2884
 1726TIP3    H226814   0.887   1.914   1.342  0.2090 -2.4965 -0.3511
 1727TIP3   OH226815   2.636   4.963   0.242  0.4039  0.0835 -0.3172
 1727TIP3    H126816   2.629   4.972   0.337  1.1100 -0.0730 -0.2489
 1727TIP3    H226817   2.548   4.936   0.214  0.6388 -1.6554  0.4917
 1728TIP3   OH226818   6.581   1.946   0.226 -0.0099  0.4907  0.4461
 1728TIP3    H126819   6.490   1.954   0.197 -0.4117 -0.2835  1.4331
 1728TIP3    H226820   6.621   1.885   0.165  0.4026  2.2818 -1.1669
 1729TIP3   OH226821   4.387   4.321   1.410 -0.2678  0.1892 -0.0322
 1729TIP3    H126822   4.413   4.300   1.320 -1.2265 -0.3343 -0.2085
 1729TIP3    H226823   4.305   4.273   1.422 -0.1742  0.2940  1.1094
 1730TIP3   OH226824   6.589   4.513   2.857  0.2421  0.3606  0.0444
 1730TIP3    H126825   6.504   4.534   2.817  0.1323 -0.5780 -0.2507
 1730TIP3    H226826   6.653   4.556   2.801  0.0284 -0.0752 -0.5464
 1731TIP3   OH226827   2.922   6.749   2.668  0.0372 -0.2512  0.4383
 1731TIP3    H126828   2.899   6.787   2.753 -2.1576  0.3107 -0.3498
 1731TIP3    H226829   2.846   6.698   2.643  0.8556 -0.8368 -0.9692
 1732TIP3   OH226830   0.993   4.263   7.723 -0.1220  0.8066  0.3262
 1732TIP3    H126831   0.898   4.274   7.717  0.0404  1.6418 -1.1184
 1732TIP3    H226832   1.026   4.292   7.638  1.2804 -1.3006  0.0673
 1733TIP3   OH226833   4.391   4.191   8.337  0.6581  0.0500  0.5154
 1733TIP3    H126834   4.386   4.107   8.382 -0.8524 -0.9039 -1.3164
 1733TIP3    H226835   4.322   4.244   8.376  0.3422 -0.2386  0.3461
 1734TIP3   OH226836   3.181   4.985   8.448 -0.0745 -0.0275 -0.2164
 1734TIP3    H126837   3.206   5.061   8.499  0.2812 -0.0040 -0.4202
 1734TIP3    H226838   3.221   4.999   8.362  1.5636 -1.3064  0.2918
 1735TIP3   OH226839   1.869   1.201   1.402 -0.1454  0.1809 -0.0961
 1735TIP3    H126840   1.903   1.135   1.463 -1.2926  0.9122  1.4148
 1735TIP3    H226841   1.788   1.231   1.442  0.2263  2.3646 -0.8193
 1736TIP3   OH226842   1.546   4.200   0.328 -0.3086 -0.1228 -0.0930
 1736TIP3    H126843   1.559   4.110   0.359 -1.2341 -0.2786 -0.1257
 1736TIP3    H226844   1.570   4.255   0.402 -2.5139 -0.4941  0.9814
 1737TIP3   OH226845   0.428   0.024   7.855  0.5794 -0.2318  0.0500
 1737TIP3    H126846   0.404   0.095   7.795  1.1388  0.1331  0.2495
 1737TIP3    H226847   0.347   0.004   7.901  0.6238  0.9684  0.6969
 1738TIP3   OH226848   1.697   4.120   1.835  0.0322  0.5551  0.1025
 1738TIP3    H126849   1.650   4.042   1.806  0.2405  0.6681 -0.5650
 1738TIP3    H226850   1.789   4.099   1.822  0.2449  0.0511  2.1003
 1739TIP3   OH226851   0.682   1.421   2.479 -0.1831  0.0468  0.5975
 1739TIP3    H126852   0.759   1.477   2.475 -0.5695  0.5387 -0.3999
 1739TIP3    H226853   0.651   1.417   2.388 -0.6834 -1.0519  0.8047
 1740TIP3   OH226854   1.529   3.620   2.113  0.3776  0.0867  0.3476
 1740TIP3    H126855   1.602   3.612   2.175  0.3665  0.7236  0.4516
 1740TIP3    H226856   1.459   3.568   2.153  0.2930  0.6768  1.0019
 1741TIP3   OH226857   3.249   5.084   0.973  0.3363 -0.0309  0.1444
 1741TIP3    H126858   3.171   5.063   1.024 -0.2875 -0.0672 -0.8156
 1741TIP3    H226859   3.216   5.115   0.889  1.3523 -0.5012 -0.4454
 1742TIP3   OH226860   4.613   4.580   1.357  0.5527  0.6560 -0.1533
 1742TIP3    H126861   4.535   4.616   1.314 -1.8538  0.3311  3.4542
 1742TIP3    H226862   4.626   4.494   1.315 -0.2007  1.2645 -1.7001
 1743TIP3   OH226863   6.656   5.523   1.961 -0.6327  0.0853 -0.3116
 1743TIP3    H126864   6.727   5.459   1.963  1.0781  1.7969  2.6785
 1743TIP3    H226865   6.587   5.485   2.015  0.0517  0.3683  0.7929
 1744TIP3   OH226866   1.460   6.585   0.826  0.4314 -0.0361  0.1696
 1744TIP3    H126867   1.541   6.622   0.862 -0.2846  0.4206  1.3409
 1744TIP3    H226868   1.390   6.624   0.878 -0.4783 -1.3512 -0.0333
 1745TIP3   OH226869   4.792   6.732   2.206  0.3823  0.1797  0.0577
 1745TIP3    H126870   4.864   6.795   2.213  1.2620 -0.9739  2.7263
 1745TIP3    H226871   4.724   6.768   2.263  1.3893 -1.7325  2.6785
 1746TIP3   OH226872   0.685   1.644   3.409 -0.3445  0.2976  0.2023
 1746TIP3    H126873   0.593   1.625   3.424 -0.2032  0.2587  1.0569
 1746TIP3    H226874   0.705   1.715   3.470  0.0068  0.8065 -0.4990
 1747TIP3   OH226875   6.555   4.454   1.018  0.1969 -0.2030  0.3535
 1747TIP3    H126876   6.592   4.398   0.950 -0.5128 -0.8387  0.4763
 1747TIP3    H226877   6.485   4.502   0.973  1.7059  1.6897 -0.1161
 1748TIP3   OH226878   1.725   0.989   7.669  0.3234  0.1811 -0.4849
 1748TIP3    H126879   1.800   1.044   7.646  0.1520  1.4851  1.7189
 1748TIP3    H226880   1.649   1.047   7.660 -0.4060 -0.9588 -2.1429
 1749TIP3   OH226881   1.712   4.984   3.680 -0.0105 -0.0678  0.4119
 1749TIP3    H126882   1.750   5.071   3.666 -2.2618  0.4967 -3.9368
 1749TIP3    H226883   1.619   5.000   3.694 -1.0208 -1.6238 -3.3188
 1750TIP3   OH226884   0.082   4.221   3.388  0.4940 -0.1399  0.7266
 1750TIP3    H126885   0.057   4.130   3.402  1.2414 -0.2061  1.7563
 1750TIP3    H226886   0.124   4.247   3.470  0.3376  1.1187  0.4278
 1751TIP3   OH226887   6.112   0.027   1.073  0.3356  0.2853  0.1868
 1751TIP3    H126888   6.017   0.027   1.065  0.3747  0.3490 -0.2768
 1751TIP3    H226889   6.128   0.001   1.164 -0.0521 -2.3385 -0.4133
 1752TIP3   OH226890   2.036   4.812   1.221 -0.4235 -0.2561  0.1009
 1752TIP3    H126891   2.011   4.861   1.143 -0.5804 -1.5619 -0.6990
 1752TIP3    H226892   1.974   4.739   1.224  0.2533 -0.8176  0.8474
 1753TIP3   OH226893   6.390   3.521   1.965 -0.0036  0.4317 -0.3363
 1753TIP3    H126894   6.311   3.470   1.981  0.4656 -0.8904 -1.8922
 1753TIP3    H226895   6.426   3.538   2.052  0.1948 -2.5497  0.2620
 1754TIP3   OH226896   0.088   3.321   2.168  0.1647 -0.1963  0.1881
 1754TIP3    H126897   0.108   3.339   2.260  0.3325  0.5040  0.0231
 1754TIP3    H226898   0.094   3.407   2.125 -3.9112  0.3261  0.2564
 1755TIP3   OH226899   2.197   4.935   0.935 -0.4499  0.0829  0.3100
 1755TIP3    H126900   2.252   4.999   0.980 -0.3935 -0.9164  1.6920
 1755TIP3    H226901   2.182   4.974   0.848 -0.6605  2.0996  1.1973
 1756TIP3   OH226902   2.121   2.718   1.697 -0.5602 -0.2832 -0.9974
 1756TIP3    H126903   2.186   2.767   1.646  1.8444 -1.3938  0.7680
 1756TIP3    H226904   2.079   2.660   1.634  0.3290  0.2957 -2.1627
 1757TIP3   OH226905   1.421   6.318   1.503  0.4619  0.2001  0.0190
 1757TIP3    H126906   1.353   6.339   1.567  1.3732  1.1645  0.7041
 1757TIP3    H226907   1.408   6.225   1.483 -1.8501  0.6568 -0.8580
 1758TIP3   OH226908   4.410   2.587   0.739 -0.2794 -0.6998  0.3758
 1758TIP3    H126909   4.393   2.680   0.722 -2.6204 -1.0107  0.7172
 1758TIP3    H226910   4.453   2.585   0.824 -0.8632  0.0290  0.6923
 1759TIP3   OH226911   0.716   2.348   2.166 -0.0494 -0.1723 -0.2325
 1759TIP3    H126912   0.803   2.375   2.196 -0.1876 -0.0256  0.0367
 1759TIP3    H226913   0.667   2.429   2.158 -0.3702 -0.3138  0.2774
 1760TIP3   OH226914   0.234   6.523   2.162 -0.3431  0.1133  0.2617
 1760TIP3    H126915   0.150   6.525   2.116 -0.5160  2.9203  0.5162
 1760TIP3    H226916   0.254   6.615   2.179  2.1592 -0.5540  1.3914
 1761TIP3   OH226917   5.658   0.715   0.737  0.2745  0.5928 -0.7989
 1761TIP3    H126918   5.637   0.625   0.712  1.9132  0.5341 -2.1284
 1761TIP3    H226919   5.753   0.715   0.748  0.1184  1.7626  0.9689
 1762TIP3   OH226920   2.335   2.548   7.648  0.5364  0.7797 -0.0712
 1762TIP3    H126921   2.293   2.601   7.581 -1.2563  0.6502  0.8843
 1762TIP3    H226922   2.393   2.609   7.694 -0.1814  1.5129 -0.1081
 1763TIP3   OH226923   6.318   4.622   8.458 -0.6131  0.2085 -0.0071
 1763TIP3    H126924   6.322   4.704   8.407  0.4740  0.3837  0.3353
 1763TIP3    H226925   6.330   4.553   8.393  0.7141  0.4303 -0.0101
 1764TIP3   OH226926   3.441   3.630   2.035  0.0066 -0.2806 -0.0472
 1764TIP3    H126927   3.362   3.633   1.980  1.1477 -0.0285 -1.7367
 1764TIP3    H226928   3.466   3.538   2.035  1.0895 -0.0209 -1.6132
 1765TIP3   OH226929   4.442   3.890   3.405 -0.2141  0.1151  0.0612
 1765TIP3    H126930   4.504   3.945   3.357 -1.7811  0.5455 -1.5726
 1765TIP3    H226931   4.485   3.805   3.410 -0.5562 -0.4454 -3.6119
 1766TIP3   OH226932   5.041   1.515   2.033  0.4345  0.1738 -0.0183
 1766TIP3    H126933   5.036   1.436   2.088  0.6412  0.9369  1.1205
 1766TIP3    H226934   4.954   1.522   1.995  0.5603 -0.8854 -0.5337
 1767TIP3   OH226935   2.406   4.128   1.050  0.2546  0.7781  0.0735
 1767TIP3    H126936   2.398   4.222   1.066  3.1955  1.2262 -0.6157
 1767TIP3    H226937   2.491   4.104   1.086 -1.0575 -2.0052  1.6227
 1768TIP3   OH226938   1.787   3.371   0.378  0.3567  0.1644  0.7320
 1768TIP3    H126939   1.865   3.334   0.419  0.7247  0.3914  0.2359
 1768TIP3    H226940   1.809   3.378   0.285 -0.4473 -0.2858  0.4936
 1769TIP3   OH226941   0.147   5.870   8.262  0.7227  0.1756  0.1302
 1769TIP3    H126942   0.235   5.906   8.257  0.3341  1.2052  0.4959
 1769TIP3    H226943   0.098   5.933   8.314 -0.5380  0.2293 -1.0677
 1770TIP3   OH226944   6.162   0.729   2.078 -0.0343  0.5351 -0.0960
 1770TIP3    H126945   6.181   0.814   2.037 -0.6503  0.9984  0.5633
 1770TIP3    H226946   6.121   0.751   2.161 -0.9894 -0.4185 -0.2989
 1771TIP3   OH226947   6.874   5.541   1.110 -0.2276  0.7434 -0.0074
 1771TIP3    H126948   6.879   5.476   1.040 -1.0543  1.0282 -0.3371
 1771TIP3    H226949   6.954   5.528   1.161 -0.4203 -0.5852 -0.0238
 1772TIP3   OH226950   2.692   2.435   1.507 -0.3803 -0.0454  0.1417
 1772TIP3    H126951   2.638   2.413   1.432  0.5271 -3.5722  0.3788
 1772TIP3    H226952   2.781   2.441   1.473 -0.1519 -0.1373  0.7063
 1773TIP3   OH226953   6.554   3.723   8.233  0.3234 -0.3992 -0.4204
 1773TIP3    H126954   6.549   3.751   8.141  1.7165  0.3736 -0.2887
 1773TIP3    H226955   6.478   3.667   8.245  0.5048 -1.1047 -2.2637
 1774TIP3   OH226956   4.266   0.943   0.271 -0.4332  0.0033 -0.0087
 1774TIP3    H126957   4.215   0.864   0.254  1.6101 -1.1198 -1.2019
 1774TIP3    H226958   4.217   1.012   0.226  0.3787 -1.4852 -3.4741
 1775TIP3   OH226959   6.825   1.129   1.394  0.3479 -0.4511 -0.1385
 1775TIP3    H126960   6.915   1.156   1.375 -0.3382  1.3803 -0.9894
 1775TIP3    H226961   6.799   1.079   1.318  0.2667  0.0293 -0.4306
 1776TIP3   OH226962   0.642   3.039   7.807 -0.3775  0.2452  0.0218
 1776TIP3    H126963   0.569   3.099   7.793  1.1813  2.4736  0.7460
 1776TIP3    H226964   0.677   3.023   7.719 -0.6046  0.7206 -0.1581
 1777TIP3   OH226965   3.576   2.092   0.806 -0.6644 -0.5661  0.6627
 1777TIP3    H126966   3.546   2.046   0.728  1.8542  0.6111 -1.1224
 1777TIP3    H226967   3.528   2.175   0.804  1.7448  0.9231 -1.6741
 1778TIP3   OH226968   6.254   0.464   1.300  0.0331 -0.3835  0.2256
 1778TIP3    H126969   6.267   0.425   1.213  2.2386 -2.7860  1.4572
 1778TIP3    H226970   6.163   0.446   1.321 -0.6643  0.6398 -1.7311
 1779TIP3   OH226971   4.854   0.051   0.361 -0.1709 -0.4886 -0.2777
 1779TIP3    H126972   4.922   0.103   0.403  0.4704 -1.5605  0.0698
 1779TIP3    H226973   4.831   0.099   0.282  1.0092 -0.1120 -0.4037
 1780TIP3   OH226974   0.809   1.613   0.833 -0.2636  0.1843  0.4057
 1780TIP3    H126975   0.895   1.644   0.861 -0.4485  0.1586  1.0359
 1780TIP3    H226976   0.810   1.519   0.856 -0.0753 -0.0573 -0.5573
 1781TIP3   OH226977   5.951   1.985   0.649 -0.1914 -0.7751 -0.9630
 1781TIP3    H126978   6.034   1.947   0.621 -0.3788 -1.7718 -0.2334
 1781TIP3    H226979   5.973   2.040   0.724 -0.1826 -1.0358 -0.7726
 1782TIP3   OH226980   6.750   4.137   0.944 -0.1820  0.0110 -0.1146
 1782TIP3    H126981   6.706   4.207   0.895 -0.0051 -0.5319 -1.0685
 1782TIP3    H226982   6.757   4.065   0.882  0.9384 -0.3530  0.4136
 1783TIP3   OH226983   1.900   4.042   1.188  0.4023  0.0513  0.3843
 1783TIP3    H126984   1.854   4.079   1.263  0.1280  1.5285 -0.4706
 1783TIP3    H226985   1.830   4.008   1.132  0.4854  0.3884  0.0693
 1784TIP3   OH226986   4.351   4.746   2.028 -0.3656 -0.5231  0.2386
 1784TIP3    H126987   4.313   4.694   2.099 -0.6448  0.1204  0.5810
 1784TIP3    H226988   4.413   4.804   2.073 -0.0628 -0.5622 -0.1309
 1785TIP3   OH226989   4.722   3.569   2.968 -0.0964 -0.1708  0.2004
 1785TIP3    H126990   4.793   3.629   2.991  1.1122 -1.1566 -0.8532
 1785TIP3    H226991   4.749   3.529   2.886 -0.4680 -2.7769  1.2473
 1786TIP3   OH226992   6.458   1.729   2.972 -0.0505  0.1280 -0.7029
 1786TIP3    H126993   6.523   1.659   2.969  0.1534  0.3217 -0.7744
 1786TIP3    H226994   6.375   1.684   2.956 -0.0269 -0.2301  0.1191
 1787TIP3   OH226995   2.627   0.235   2.163  0.1291 -0.5748 -0.0527
 1787TIP3    H126996   2.687   0.310   2.163 -0.3123 -0.1818  1.2574
 1787TIP3    H226997   2.683   0.158   2.160  0.5666 -0.2617 -3.1639
 1788TIP3   OH226998   6.752   0.977   3.512  0.4452  0.0612 -0.3967
 1788TIP3    H126999   6.662   0.979   3.479 -0.0980 -1.0104  0.9257
 1788TIP3    H227000   6.806   0.993   3.435 -0.6890 -3.1621 -2.0657
 1789TIP3   OH227001   1.605   0.067   0.656  0.5148 -0.3721  0.1650
 1789TIP3    H127002   1.610   0.158   0.626  0.6699  0.0702  1.4649
 1789TIP3    H227003   1.544   0.069   0.730  2.1650 -0.9140  1.5973
 1790TIP3   OH227004   2.513   1.421   8.374 -0.2495 -0.1475  0.5049
 1790TIP3    H127005   2.534   1.507   8.339  0.8523 -0.2256  0.9455
 1790TIP3    H227006   2.550   1.421   8.462 -1.4226 -0.5964  1.0284
 1791TIP3   OH227007   5.744   4.820   2.070  0.3453 -0.9125  0.3304
 1791TIP3    H127008   5.673   4.883   2.078  1.6993  0.6273  0.8144
 1791TIP3    H227009   5.701   4.736   2.053 -1.5542 -0.0218  0.5658
 1792TIP3   OH227010   5.404   2.511   8.568 -0.0454  0.3557 -0.0948
 1792TIP3    H127011   5.334   2.454   8.601 -0.7055  0.8496 -0.6040
 1792TIP3    H227012   5.379   2.529   8.478  0.1282  1.4939  0.0725
 1793TIP3   OH227013   1.804   3.578   7.653 -0.0284 -0.1091  0.1473
 1793TIP3    H127014   1.884   3.574   7.707  0.0688 -0.4901 -0.0209
 1793TIP3    H227015   1.804   3.667   7.617  0.2469 -0.0623  0.2590
 1794TIP3   OH227016   2.759   2.498   3.276 -0.3534  0.3253 -0.2245
 1794TIP3    H127017   2.720   2.554   3.343 -1.1081 -0.0221 -0.3685
 1794TIP3    H227018   2.837   2.461   3.318 -1.1133 -0.3175  0.6496
 1795TIP3   OH227019   1.772   6.084   1.339 -0.2498 -0.6162  0.1532
 1795TIP3    H127020   1.694   6.118   1.296 -0.9651 -2.1299  0.1682
 1795TIP3    H227021   1.836   6.074   1.268 -0.3114 -0.0289  0.0143
 1796TIP3   OH227022   3.062   6.195   0.107 -0.6093 -0.0981 -0.0746
 1796TIP3    H127023   3.033   6.227   0.021 -0.8732 -0.1608 -0.0088
 1796TIP3    H227024   3.056   6.271   0.165  1.8825  0.6268 -0.6281
 1797TIP3   OH227025   6.637   5.929   1.538 -0.5417  0.1911 -0.8307
 1797TIP3    H127026   6.716   5.959   1.582  0.2991  0.6341 -2.5645
 1797TIP3    H227027   6.576   6.003   1.545 -0.0834  0.6098 -1.1980
 1798TIP3   OH227028   4.748   0.330   2.213 -0.4136  0.2606 -0.8533
 1798TIP3    H127029   4.795   0.247   2.225 -1.0713  0.1158  1.0169
 1798TIP3    H227030   4.813   0.388   2.173  1.5583  0.1760  1.8934
 1799TIP3   OH227031   0.506   6.112   2.840 -0.0878 -0.4780 -0.2507
 1799TIP3    H127032   0.581   6.064   2.876 -0.2334 -1.2725 -0.9942
 1799TIP3    H227033   0.451   6.130   2.916  1.8301  2.0156  0.7134
 1800TIP3   OH227034   4.458   2.164   7.427 -0.3748  0.2617  0.3655
 1800TIP3    H127035   4.498   2.250   7.441 -1.0260  0.4070  1.4627
 1800TIP3    H227036   4.532   2.104   7.419  0.0831  0.8832 -0.1725
 1801TIP3   OH227037   5.749   3.937   2.465 -0.1920 -0.2153  0.3280
 1801TIP3    H127038   5.687   3.986   2.518  0.6150 -1.2438  2.3274
 1801TIP3    H227039   5.825   3.995   2.456 -0.2998 -0.0674  0.3758
 1802TIP3   OH227040   1.704   3.419   8.644  0.1685  0.3593  0.1182
 1802TIP3    H127041   1.797   3.413   8.665  0.1172  1.0041  0.5693
 1802TIP3    H227042   1.661   3.358   8.704  0.2607  0.3478  0.1712
 1803TIP3   OH227043   5.879   3.122   1.630 -0.6003  0.0199 -0.3685
 1803TIP3    H127044   5.952   3.098   1.574 -0.2283 -0.0205  0.1277
 1803TIP3    H227045   5.894   3.213   1.652 -0.2722 -0.2122  0.3775
 1804TIP3   OH227046   6.236   6.132   1.847 -0.2012  0.4749 -0.5180
 1804TIP3    H127047   6.189   6.122   1.765 -0.5390  0.2105 -0.2966
 1804TIP3    H227048   6.250   6.042   1.878  0.4789  0.5476 -0.5983
 1805TIP3   OH227049   3.936   4.021   1.941  0.5298  0.6073  0.9022
 1805TIP3    H127050   3.869   4.052   2.002  0.7416 -0.3768  1.6607
 1805TIP3    H227051   3.994   3.967   1.995 -0.7187 -2.4625 -0.5952
 1806TIP3   OH227052   5.414   5.238   3.479 -0.8842  0.4970  0.8469
 1806TIP3    H127053   5.478   5.302   3.510 -1.0034  0.5188  1.0534
 1806TIP3    H227054   5.379   5.276   3.398  1.9264 -1.1293 -1.3147
 1807TIP3   OH227055   0.115   2.405   2.280  0.3511  0.2543 -0.4570
 1807TIP3    H127056   0.119   2.463   2.356  1.2582  0.3693 -0.5786
 1807TIP3    H227057   0.205   2.405   2.246 -0.3107  1.2060 -2.2966
 1808TIP3   OH227058   6.828   6.906   1.710  0.1081  0.0134  0.2202
 1808TIP3    H127059   6.811   6.907   1.804  0.2861 -1.3713  0.2969
 1808TIP3    H227060   6.905   6.850   1.700 -0.0405 -0.0313 -0.7638
 1809TIP3   OH227061   2.151   2.928   2.702 -0.2326  0.8729 -0.4067
 1809TIP3    H127062   2.226   2.869   2.709  0.4229  1.6756 -0.5381
 1809TIP3    H227063   2.152   2.978   2.783 -0.6340  0.8762 -0.4030
 1810TIP3   OH227064   1.741   4.586   8.596  0.2077 -0.6259  0.1441
 1810TIP3    H127065   1.774   4.667   8.635 -0.4850  0.1032 -0.7161
 1810TIP3    H227066   1.778   4.516   8.649 -0.5556  0.3028  1.9960
 1811TIP3   OH227067   4.763   3.029   1.557 -0.5073 -0.1981  0.0036
 1811TIP3    H127068   4.706   2.974   1.610 -1.6178 -0.1948 -1.1436
 1811TIP3    H227069   4.713   3.109   1.541  0.8299  0.9196  1.0962
 1812TIP3   OH227070   2.053   1.437   7.810  0.1601 -0.3792  0.1104
 1812TIP3    H127071   2.083   1.408   7.896 -0.7940  0.9784  0.9398
 1812TIP3    H227072   1.990   1.370   7.782  0.6641 -0.9551  0.3439
 1813TIP3   OH227073   4.278   2.604   3.098 -0.2874 -0.0755 -0.3326
 1813TIP3    H127074   4.359   2.643   3.064  2.1814 -1.4669  3.3327
 1813TIP3    H227075   4.299   2.511   3.107 -2.4207 -0.5292  0.4598
 1814TIP3   OH227076   4.727   0.234   1.023  0.3270  0.1522 -0.3058
 1814TIP3    H127077   4.665   0.165   1.047  0.8918 -0.6787 -1.1777
 1814TIP3    H227078   4.721   0.297   1.095 -0.2374 -0.7739  0.4843
 1815TIP3   OH227079   2.509   2.034   0.469 -0.4935 -0.2089  0.1946
 1815TIP3    H127080   2.445   2.043   0.398 -0.5415 -0.2466  0.2326
 1815TIP3    H227081   2.591   2.068   0.433 -0.2160 -1.3481 -0.2895
 1816TIP3   OH227082   4.756   2.617   8.002 -0.7932  0.2865 -0.4200
 1816TIP3    H127083   4.818   2.634   7.931 -1.3023 -1.3966 -1.3369
 1816TIP3    H227084   4.708   2.699   8.012  1.3304  1.5342  0.1173
 1817TIP3   OH227085   4.036   3.360   2.360 -0.5248  0.2598 -0.0325
 1817TIP3    H127086   3.995   3.292   2.306  0.4944 -0.0036 -0.4920
 1817TIP3    H227087   4.128   3.335   2.364 -0.7622 -0.4156  2.9088
 1818TIP3   OH227088   6.016   6.532   1.013 -0.1871  0.0558  0.3445
 1818TIP3    H127089   5.941   6.589   1.028  1.1305  2.1361 -0.5419
 1818TIP3    H227090   6.066   6.535   1.094 -0.2732 -0.0934  0.4036
 1819TIP3   OH227091   5.420   2.844   3.105 -0.4662  0.0100 -0.0637
 1819TIP3    H127092   5.426   2.936   3.132 -0.8058  0.3475 -1.0845
 1819TIP3    H227093   5.341   2.840   3.051  0.5828 -0.4317 -1.6606
 1820TIP3   OH227094   4.660   2.626   1.527  0.6543  0.1363 -0.2645
 1820TIP3    H127095   4.751   2.653   1.540  0.6085 -0.1386  0.6758
 1820TIP3    H227096   4.611   2.674   1.594  0.2679 -0.5734 -0.0299
 1821TIP3   OH227097   1.861   4.059   2.288 -0.2464 -0.6382  0.1183
 1821TIP3    H127098   1.900   4.146   2.286 -1.9571  0.4302  3.7353
 1821TIP3    H227099   1.920   4.004   2.236  2.5145  2.0583  0.1272
 1822TIP3   OH227100   2.804   6.039   1.261  0.2548  0.5066 -0.0428
 1822TIP3    H127101   2.797   6.129   1.228  2.1216  1.6326  2.2890
 1822TIP3    H227102   2.894   6.013   1.241  0.6720  0.3358  1.8740
 1823TIP3   OH227103   4.165   5.964   1.225 -0.2853  0.1240  0.6320
 1823TIP3    H127104   4.108   5.935   1.296 -1.4195  0.7624 -0.0033
 1823TIP3    H227105   4.248   5.984   1.269 -1.4528  2.1307  2.1037
 1824TIP3   OH227106   5.707   0.289   1.326 -0.7914 -0.0839 -0.2267
 1824TIP3    H127107   5.710   0.335   1.410  1.9805 -0.4140 -0.0552
 1824TIP3    H227108   5.704   0.196   1.349  3.1927 -0.3759 -0.2773
 1825TIP3   OH227109   2.258   5.065   0.485 -0.0533  0.0015 -0.4868
 1825TIP3    H127110   2.295   5.017   0.411  2.0209  3.6528 -2.0570
 1825TIP3    H227111   2.231   5.149   0.448  1.9334  2.4057  2.9547
 1826TIP3   OH227112   4.088   4.120   2.309 -0.3512  0.1955  0.8946
 1826TIP3    H127113   4.081   4.205   2.264 -1.9651 -0.3896 -0.0532
 1826TIP3    H227114   4.127   4.141   2.394  2.3294  1.4282 -0.5163
 1827TIP3   OH227115   1.153   2.190   3.268 -0.2384  0.5679 -0.1402
 1827TIP3    H127116   1.158   2.253   3.341 -0.7969 -0.4512  0.8086
 1827TIP3    H227117   1.237   2.144   3.271 -0.6972 -0.2746  0.6484
 1828TIP3   OH227118   3.105   1.851   1.014 -0.1405 -0.5106 -0.3930
 1828TIP3    H127119   3.087   1.944   1.027  1.5809 -0.3528  1.2584
 1828TIP3    H227120   3.074   1.809   1.095 -1.4152 -1.4921 -1.3424
 1829TIP3   OH227121   4.551   6.552   0.735 -0.7332 -0.4262 -0.0293
 1829TIP3    H127122   4.526   6.644   0.750 -0.1432 -0.4700  1.3908
 1829TIP3    H227123   4.560   6.545   0.640  3.3552  2.1340 -0.0548
 1830TIP3   OH227124   2.327   5.332   3.593 -0.2921 -0.1066 -0.0514
 1830TIP3    H127125   2.232   5.325   3.583 -0.2314  0.9151 -1.8744
 1830TIP3    H227126   2.350   5.266   3.658 -2.2457 -0.3807  0.4032
 1831TIP3   OH227127   4.444   6.528   3.129  0.0120  0.0342 -0.1506
 1831TIP3    H127128   4.538   6.533   3.148  0.3589  1.4403 -2.0275
 1831TIP3    H227129   4.404   6.593   3.187  0.1885 -0.4471  0.5288
 1832TIP3   OH227130   3.287   5.908   0.577 -0.3626  0.4123 -0.4004
 1832TIP3    H127131   3.302   5.997   0.547  1.0900 -0.1719 -1.5565
 1832TIP3    H227132   3.277   5.857   0.497 -0.0691 -0.6400  0.2102
 1833TIP3   OH227133   1.738   4.626   1.459  0.0609  0.3809 -0.0430
 1833TIP3    H127134   1.725   4.700   1.400  1.5742  0.9323  0.2863
 1833TIP3    H227135   1.796   4.567   1.411  0.5519  0.3980  0.5206
 1834TIP3   OH227136   0.593   0.672   1.403  0.2448 -0.0197 -0.4256
 1834TIP3    H127137   0.608   0.606   1.335  1.7672  0.2833 -0.4202
 1834TIP3    H227138   0.498   0.686   1.402  0.2245  0.0370 -2.5545
 1835TIP3   OH227139   4.336   1.054   8.566  0.0831  0.0168 -0.4695
 1835TIP3    H127140   4.269   1.057   8.635  0.7246  1.0485  0.1265
 1835TIP3    H227141   4.346   0.960   8.547  1.3093 -0.5093  2.2562
 1836TIP3   OH227142   3.523   4.871   8.250 -0.0541 -0.5691 -0.0130
 1836TIP3    H127143   3.519   4.914   8.165  1.6652 -1.8513 -0.7941
 1836TIP3    H227144   3.457   4.802   8.244  0.8284 -1.3668 -0.7472
 1837TIP3   OH227145   1.064   5.140   7.438  0.0295  0.0878 -0.1472
 1837TIP3    H127146   1.057   5.117   7.346 -1.1078 -0.1651 -0.0235
 1837TIP3    H227147   1.156   5.126   7.460 -0.3429 -3.6336 -0.2849
 1838TIP3   OH227148   3.268   2.827   2.412  0.5853  0.6308  0.0527
 1838TIP3    H127149   3.226   2.742   2.397 -1.3805  1.5472  0.0029
 1838TIP3    H227150   3.302   2.821   2.501 -0.0514 -0.0214  0.2666
 1839TIP3   OH227151   1.536   4.014   1.640  0.6771  0.5832  0.2907
 1839TIP3    H127152   1.574   4.047   1.558  2.4125 -1.0408  0.3653
 1839TIP3    H227153   1.448   4.052   1.642  0.3595  0.2782 -2.6076
 1840TIP3   OH227154   3.275   4.855   7.974 -0.0451  0.2711  0.1267
 1840TIP3    H127155   3.334   4.930   7.979  1.0408 -0.5822  0.4475
 1840TIP3    H227156   3.253   4.847   7.881  0.6538  0.3818 -0.0529
 1841TIP3   OH227157   6.201   6.369   2.109  0.1878  0.0794 -0.1314
 1841TIP3    H127158   6.143   6.359   2.034 -0.5574  0.5260  0.3770
 1841TIP3    H227159   6.223   6.462   2.110 -0.8443  0.3309  0.9484
 1842TIP3   OH227160   0.818   4.961   1.530  0.1229 -0.1166 -0.3439
 1842TIP3    H127161   0.825   5.037   1.472  0.1534 -1.5116 -2.2540
 1842TIP3    H227162   0.725   4.956   1.552  0.1317  0.4907 -0.1295
 1843TIP3   OH227163   5.279   3.914   6.936 -1.3629 -0.5162 -0.2252
 1843TIP3    H127164   5.318   3.914   7.023  1.6663  0.9281 -1.4460
 1843TIP3    H227165   5.237   3.828   6.929 -0.3885 -1.2625  2.0924
 1844TIP3   OH227166   4.643   3.563   2.440  0.7160  0.0897 -0.3790
 1844TIP3    H127167   4.634   3.631   2.506 -1.4771 -1.2058  0.7889
 1844TIP3    H227168   4.673   3.486   2.489 -1.7408 -1.1255 -0.5843
 1845TIP3   OH227169   3.368   6.746   1.995  0.1806  0.0711 -0.4469
 1845TIP3    H127170   3.455   6.751   2.034  0.0866  0.0832 -0.2402
 1845TIP3    H227171   3.308   6.760   2.067  0.0242  1.2753 -0.7977
 1846TIP3   OH227172   3.981   0.217   7.797 -0.5621 -0.8876 -0.2839
 1846TIP3    H127173   3.921   0.169   7.854 -1.3154 -0.8578 -1.0300
 1846TIP3    H227174   4.066   0.176   7.810 -0.9079 -1.4569  0.1900
 1847TIP3   OH227175   5.180   0.720   8.454  0.4586 -0.2075 -0.0797
 1847TIP3    H127176   5.191   0.814   8.471  0.7042 -0.1615 -0.4854
 1847TIP3    H227177   5.269   0.686   8.448  0.3708 -0.3502 -0.5876
 1848TIP3   OH227178   5.983   6.739   0.370  0.4976 -0.1897 -0.3082
 1848TIP3    H127179   5.929   6.818   0.378  0.0239 -0.3875 -1.4177
 1848TIP3    H227180   6.054   6.752   0.432  0.6290  1.2908 -0.7414
 1849TIP3   OH227181   3.498   1.854   1.840  0.4152  0.5102 -0.1732
 1849TIP3    H127182   3.524   1.897   1.922 -1.2086  0.7914  0.2280
 1849TIP3    H227183   3.531   1.912   1.771 -0.4526  1.6445  0.3345
 1850TIP3   OH227184   6.733   4.494   1.828 -0.4446  0.2259 -0.2761
 1850TIP3    H127185   6.783   4.497   1.747 -1.4379 -0.6585 -0.9475
 1850TIP3    H227186   6.784   4.438   1.886  0.3251  0.9507 -0.2356
 1851TIP3   OH227187   2.843   5.214   2.936 -0.1144 -0.1697 -0.0475
 1851TIP3    H127188   2.873   5.123   2.938  0.6711  0.0847  0.4813
 1851TIP3    H227189   2.828   5.236   3.028  1.4864  0.7803  0.0377
 1852TIP3   OH227190   2.381   1.402   1.360 -0.5040 -0.2261  0.0235
 1852TIP3    H127191   2.420   1.361   1.437  0.4745  0.5275 -0.0508
 1852TIP3    H227192   2.415   1.491   1.360  0.6854 -0.6282 -2.0675
 1853TIP3   OH227193   0.174   5.749   2.804  0.6900 -0.7318  0.1425
 1853TIP3    H127194   0.244   5.806   2.772 -0.6333  0.4054 -0.8726
 1853TIP3    H227195   0.215   5.696   2.872  2.2522  0.6587  0.3482
 1854TIP3   OH227196   0.258   2.633   0.200 -0.4105  0.2528 -0.2616
 1854TIP3    H127197   0.184   2.576   0.183 -0.0677 -0.8249  1.5162
 1854TIP3    H227198   0.247   2.661   0.291  0.3104  1.7064 -0.5819
 1855TIP3   OH227199   4.467   6.746   1.612 -0.1385 -1.0328  0.1589
 1855TIP3    H127200   4.559   6.721   1.609 -0.1003 -0.8695 -0.0262
 1855TIP3    H227201   4.435   6.728   1.524  0.2997  1.1596 -0.5094
 1856TIP3   OH227202   4.770   1.038   2.147 -0.3313 -0.4553  0.3890
 1856TIP3    H127203   4.832   1.031   2.219 -0.6591 -1.2536  0.6052
 1856TIP3    H227204   4.691   0.994   2.178  0.0161 -2.1704 -0.9753
 1857TIP3   OH227205   0.624   2.491   3.232  0.3345  0.2505 -0.2012
 1857TIP3    H127206   0.684   2.557   3.267 -1.1111 -0.1712  3.6513
 1857TIP3    H227207   0.677   2.412   3.226  0.8056  0.4965  0.5431
 1858TIP3   OH227208   6.130   1.900   1.429  0.2635 -0.1086  0.2011
 1858TIP3    H127209   6.190   1.865   1.363 -1.2068 -2.7860  0.1694
 1858TIP3    H227210   6.047   1.856   1.412 -1.4721  2.6539  0.9413
 1859TIP3   OH227211   2.309   0.974   1.939 -0.0408  0.5438 -0.4198
 1859TIP3    H127212   2.350   0.919   1.872 -0.5196 -0.7481  0.3132
 1859TIP3    H227213   2.372   1.044   1.954  0.9834 -0.2746 -0.7712
 1860TIP3   OH227214   2.824   1.972   7.040 -0.7908  0.1027 -0.0142
 1860TIP3    H127215   2.915   2.000   7.037 -0.0808 -1.9945  0.4857
 1860TIP3    H227216   2.780   2.028   6.976  1.2991 -0.3730 -1.9940
 1861TIP3   OH227217   6.500   4.786   2.167 -0.3951 -0.6266 -0.3737
 1861TIP3    H127218   6.490   4.845   2.092  0.4009 -0.9546 -0.7519
 1861TIP3    H227219   6.568   4.827   2.221  0.2190 -1.2212 -0.6771
 1862TIP3   OH227220   0.146   0.439   0.794  0.4263  0.1611 -0.6562
 1862TIP3    H127221   0.125   0.506   0.860 -0.3338 -0.6729 -0.0271
 1862TIP3    H227222   0.067   0.385   0.790  0.7952 -0.3140 -1.6355
 1863TIP3   OH227223   6.618   4.127   2.014  0.1084 -0.1121 -0.2181
 1863TIP3    H127224   6.564   4.109   1.938  0.6359 -0.6735 -0.4739
 1863TIP3    H227225   6.558   4.166   2.078 -0.2162  0.8820 -1.1104
 1864TIP3   OH227226   5.350   2.750   1.533  0.7900 -0.1658 -0.0219
 1864TIP3    H127227   5.441   2.775   1.552  0.8746 -0.6718  0.2499
 1864TIP3    H227228   5.344   2.755   1.437  1.1791 -0.3831 -0.0619
 1865TIP3   OH227229   4.849   5.583   7.181  0.2459  0.0245  0.1576
 1865TIP3    H127230   4.846   5.675   7.208  3.2370  0.1791  0.3075
 1865TIP3    H227231   4.773   5.544   7.224 -1.1598  2.4029  0.0359
 1866TIP3   OH227232   3.598   0.416   0.010 -0.0960 -0.1472  0.3224
 1866TIP3    H127233   3.531   0.385  -0.051 -0.2243  0.5625  0.0984
 1866TIP3    H227234   3.672   0.356  -0.004  0.0750  0.3184 -0.9231
 1867TIP3   OH227235   0.723   1.847   3.637 -0.4799  0.6917 -0.2050
 1867TIP3    H127236   0.745   1.918   3.697  1.3458  2.7782 -3.0912
 1867TIP3    H227237   0.627   1.850   3.632 -0.4595  3.1107 -0.3544
 1868TIP3   OH227238   4.564   2.942   1.712  0.4513 -0.0756 -0.3684
 1868TIP3    H127239   4.531   2.857   1.742 -0.3005  0.7151  1.1273
 1868TIP3    H227240   4.533   3.004   1.777  0.8208  1.3967 -1.5502
 1869TIP3   OH227241   5.156   5.267   1.811 -0.6616  0.7813 -0.1773
 1869TIP3    H127242   5.077   5.213   1.806 -1.5734  1.6674  2.8604
 1869TIP3    H227243   5.207   5.229   1.882  1.3785  0.6412 -1.6424
 1870TIP3   OH227244   0.846   0.337   0.146 -0.2526  0.1694  0.3079
 1870TIP3    H127245   0.817   0.340   0.055  1.0283  1.2740 -0.1061
 1870TIP3    H227246   0.919   0.275   0.147  0.7577  1.3124  0.2257
 1871TIP3   OH227247   1.880   4.220   0.958  0.1553  0.4530  0.1145
 1871TIP3    H127248   1.969   4.212   0.924 -0.1726 -2.2174 -0.3262
 1871TIP3    H227249   1.884   4.179   1.044 -0.6475  0.3254  0.0928
 1872TIP3   OH227250   3.887   3.440   1.800  0.2971  0.0201  0.5412
 1872TIP3    H127251   3.853   3.351   1.811  2.3938 -1.1373 -1.2958
 1872TIP3    H227252   3.834   3.477   1.729 -0.5327  0.2184  1.2577
 1873TIP3   OH227253   6.598   3.797   2.919  0.1148  0.1004  0.0357
 1873TIP3    H127254   6.572   3.883   2.953  0.2489  0.3332 -0.4382
 1873TIP3    H227255   6.635   3.751   2.994  0.3560  0.5830  0.2142
 1874TIP3   OH227256   5.654   3.706   1.725 -0.1431  0.1071  0.4127
 1874TIP3    H127257   5.624   3.769   1.659  0.6411 -0.2925 -0.3404
 1874TIP3    H227258   5.608   3.732   1.804 -1.1443  0.5708 -0.2967
 1875TIP3   OH227259   1.594   6.365   0.427  0.2609 -0.1402  0.2513
 1875TIP3    H127260   1.673   6.316   0.407 -0.6257 -1.8656  0.7784
 1875TIP3    H227261   1.528   6.329   0.368 -0.6900 -0.4299  1.4387
 1876TIP3   OH227262   3.823   5.189   2.110  0.2547  0.7018  0.3922
 1876TIP3    H127263   3.899   5.131   2.108  0.8893  1.5429 -0.4574
 1876TIP3    H227264   3.852   5.269   2.067 -1.8706  0.1062 -2.4666
 1877TIP3   OH227265   0.024   3.282   1.721 -0.0772 -0.0069 -0.0718
 1877TIP3    H127266   0.016   3.243   1.634 -1.3156  2.2294 -1.0251
 1877TIP3    H227267  -0.000   3.374   1.710  0.9811  0.6781  2.4028
 1878TIP3   OH227268   2.918   0.730   1.727 -0.7335  0.1031 -0.6832
 1878TIP3    H127269   2.875   0.645   1.712 -1.7750  0.6258 -0.7444
 1878TIP3    H227270   2.973   0.742   1.650 -0.8993 -0.3231 -0.8736
 1879TIP3   OH227271   1.689   1.925   2.486  0.1673 -0.4758  0.3102
 1879TIP3    H127272   1.624   1.877   2.537 -1.7682 -0.3987 -1.9283
 1879TIP3    H227273   1.722   1.862   2.423 -0.1132  0.2829 -0.6266
 1880TIP3   OH227274   1.390   2.818   0.215  0.4780 -0.5681  0.3535
 1880TIP3    H127275   1.429   2.901   0.186 -2.0728  0.5781 -0.1154
 1880TIP3    H227276   1.415   2.755   0.149  2.4057 -0.2008  0.6725
 1881TIP3   OH227277   1.699   0.241   1.914  0.4216  0.1979  0.3231
 1881TIP3    H127278   1.669   0.303   1.980  1.6500  0.3981  0.7125
 1881TIP3    H227279   1.686   0.286   1.831 -0.1110  0.3775  0.5024
 1882TIP3   OH227280   1.517   2.350   8.149 -0.5240  0.4354  0.2200
 1882TIP3    H127281   1.520   2.349   8.054 -0.8604  0.7030  0.2064
 1882TIP3    H227282   1.558   2.268   8.175  0.7788  0.9385 -0.1230
 1883TIP3   OH227283   2.615   5.429   0.917 -0.3330 -0.1369  0.5629
 1883TIP3    H127284   2.601   5.428   1.011 -0.0013  0.0309  0.6169
 1883TIP3    H227285   2.569   5.508   0.887  3.1497  2.4157  1.2009
 1884TIP3   OH227286   0.421   0.714   0.864 -0.8400 -0.1953 -0.9342
 1884TIP3    H127287   0.497   0.736   0.811  0.5279 -0.4879  0.8073
 1884TIP3    H227288   0.392   0.797   0.900 -0.4079 -0.2644 -0.4176
 1885TIP3   OH227289   6.338   4.167   1.267 -0.2737 -0.0731 -0.0032
 1885TIP3    H127290   6.425   4.139   1.237 -0.1542 -0.3088  0.5377
 1885TIP3    H227291   6.306   4.093   1.318 -0.9070 -0.0862 -0.4190
 1886TIP3   OH227292   2.737   4.148   1.183  0.4927  0.1772 -0.4698
 1886TIP3    H127293   2.796   4.210   1.138 -0.6640  0.5513 -1.5399
 1886TIP3    H227294   2.730   4.181   1.272 -0.4535  1.8944 -1.1385
 1887TIP3   OH227295   0.099   4.786   8.557  0.3115 -0.4983  0.4065
 1887TIP3    H127296   0.140   4.828   8.481 -0.3719  0.5994  0.6156
 1887TIP3    H227297   0.160   4.802   8.629 -0.6084  1.5223  0.8158
 1888TIP3   OH227298   3.381   0.138   1.388  0.6351 -0.0299  0.4129
 1888TIP3    H127299   3.471   0.130   1.417  0.4553 -1.9243  0.5526
 1888TIP3    H227300   3.387   0.167   1.297  1.4105 -1.1231  0.1096
 1889TIP3   OH227301   6.689   5.427   7.329 -0.4028  0.3394 -0.3527
 1889TIP3    H127302   6.714   5.496   7.268  1.2248  1.8173  1.8387
 1889TIP3    H227303   6.770   5.378   7.344 -0.5776  0.4516  1.1057
 1890TIP3   OH227304   2.550   0.575   8.305 -0.1656  0.1330 -0.4552
 1890TIP3    H127305   2.602   0.529   8.239 -1.5038 -0.2938 -1.2363
 1890TIP3    H227306   2.583   0.665   8.302  1.7000 -0.4838  0.2942
 1891TIP3   OH227307   2.558   1.503   1.649  0.0710  0.3578  0.9436
 1891TIP3    H127308   2.584   1.559   1.576 -0.9631 -0.4541 -0.0661
 1891TIP3    H227309   2.568   1.414   1.616  1.1420 -0.0852  2.3458
 1892TIP3   OH227310   5.126   6.248   3.168  0.2547  0.2654 -0.6955
 1892TIP3    H127311   5.054   6.303   3.199  0.8701 -0.0540  1.4729
 1892TIP3    H227312   5.096   6.158   3.185  1.0271  0.1240 -0.0322
 1893TIP3   OH227313   5.790   3.084   1.005  0.0399  0.0373  0.7025
 1893TIP3    H127314   5.787   3.082   1.101 -1.0716 -1.0847  0.6815
 1893TIP3    H227315   5.738   3.161   0.981  0.7115  0.5906  0.9996
 1894TIP3   OH227316   4.291   0.872   1.665  0.0261 -0.5747  0.0350
 1894TIP3    H127317   4.268   0.964   1.680  0.1317 -0.6763  0.8752
 1894TIP3    H227318   4.231   0.843   1.596 -1.7836 -0.5755  1.5228
 1895TIP3   OH227319   2.807   4.168   1.457 -0.6082 -0.2383 -0.1341
 1895TIP3    H127320   2.848   4.228   1.519  0.7195 -1.5659  0.3380
 1895TIP3    H227321   2.713   4.175   1.475 -0.4721  1.4009  0.1277
 1896TIP3   OH227322   6.739   6.712   2.322 -0.2529 -0.3061 -0.3982
 1896TIP3    H127323   6.790   6.764   2.260 -0.2084  0.4613  0.2684
 1896TIP3    H227324   6.771   6.622   2.309  2.0558  0.2722  0.7234
 1897TIP3   OH227325   4.505   3.352   1.036  0.3705  0.2947  0.2316
 1897TIP3    H127326   4.480   3.263   1.010 -1.0912  1.1042 -1.3512
 1897TIP3    H227327   4.443   3.375   1.105  1.0806 -0.0782  1.0078
 1898TIP3   OH227328   3.527   4.560   2.330  0.3420  0.3081  0.3089
 1898TIP3    H127329   3.451   4.551   2.386 -0.4827  1.0932 -0.6515
 1898TIP3    H227330   3.547   4.654   2.331  1.5043  0.0857  0.7831
 1899TIP3   OH227331   0.247   6.794   1.464  0.1773  0.0487  0.2452
 1899TIP3    H127332   0.175   6.736   1.491  0.2012 -0.7828 -1.3718
 1899TIP3    H227333   0.218   6.881   1.489 -1.5206 -0.2352 -0.5621
 1900TIP3   OH227334   6.416   3.867   0.859 -0.0704  0.0224 -0.1010
 1900TIP3    H127335   6.479   3.928   0.820 -0.1125  0.4706  0.5188
 1900TIP3    H227336   6.430   3.785   0.812  1.6526 -0.1679  0.6855
 1901TIP3   OH227337   6.489   0.134   0.864  0.1751  0.0020  0.0467
 1901TIP3    H127338   6.462   0.221   0.893  1.1507  0.8644 -1.4772
 1901TIP3    H227339   6.452   0.075   0.929 -3.2167  1.2425 -0.5172
 1902TIP3   OH227340   6.406   4.155   8.408 -0.0035 -0.7785 -0.1910
 1902TIP3    H127341   6.320   4.164   8.367 -0.5026 -0.4510  0.8624
 1902TIP3    H227342   6.388   4.163   8.502  1.2758  0.0980  0.0147
 1903TIP3   OH227343   0.280   4.940   8.391 -0.2026 -0.0377  0.1471
 1903TIP3    H127344   0.361   4.892   8.408 -2.3378 -4.3666 -0.4521
 1903TIP3    H227345   0.290   4.970   8.300  0.2195 -1.8710 -0.4659
 1904TIP3   OH227346   0.744   4.712   1.708  0.0375 -0.0538  0.4823
 1904TIP3    H127347   0.750   4.807   1.703 -0.6501 -0.0451 -0.4496
 1904TIP3    H227348   0.667   4.695   1.764 -0.6570 -0.0339 -0.4386
 1905TIP3   OH227349   0.106   4.892   2.904 -0.2648 -0.5424 -0.0350
 1905TIP3    H127350   0.019   4.924   2.929  0.9430  2.8095  0.4008
 1905TIP3    H227351   0.095   4.863   2.813 -1.5383  1.4983 -0.6176
 1906TIP3   OH227352   6.234   0.002   0.020  0.0297 -0.7244  0.4934
 1906TIP3    H127353   6.243  -0.092   0.038  0.0860 -0.7078  0.5537
 1906TIP3    H227354   6.319   0.039   0.044 -0.8502 -0.2297  3.2081
 1907TIP3   OH227355   3.346   1.592   8.028  0.6373  0.3158 -0.0159
 1907TIP3    H127356   3.310   1.606   8.116  0.5634 -0.8958  0.1709
 1907TIP3    H227357   3.380   1.502   8.030  0.2805  0.1245 -1.3384
 1908TIP3   OH227358   0.338   3.396   0.867  0.3848  0.0497  0.3939
 1908TIP3    H127359   0.262   3.344   0.892 -0.6858  1.5258  0.3514
 1908TIP3    H227360   0.328   3.478   0.917  1.7333  0.4294  0.0816
 1909TIP3   OH227361   2.627   4.622   8.552 -0.2304  0.0777  0.0063
 1909TIP3    H127362   2.558   4.567   8.513  0.8459 -0.5886 -1.0297
 1909TIP3    H227363   2.590   4.710   8.551 -1.4510 -0.3944  0.3965
 1910TIP3   OH227364   3.976   1.157   8.330 -0.0271 -0.4601 -0.5625
 1910TIP3    H127365   4.045   1.180   8.393  0.0461  1.5808 -1.3058
 1910TIP3    H227366   4.014   1.176   8.245 -0.9189 -0.9998 -1.0960
 1911TIP3   OH227367   4.564   5.904   8.569 -0.3888 -0.6635 -0.6603
 1911TIP3    H127368   4.490   5.905   8.509 -1.0805 -0.7428  0.1727
 1911TIP3    H227369   4.571   5.993   8.602 -0.0011 -0.6150 -0.8601
 1912TIP3   OH227370   3.545   1.617   1.701  0.6242  0.4248  0.0898
 1912TIP3    H127371   3.561   1.673   1.624  2.3454  0.2075  0.2341
 1912TIP3    H227372   3.544   1.677   1.775 -1.3045  0.6667 -0.0912
 1913TIP3   OH227373   6.784   3.617   1.410 -0.4792  0.3182  0.3164
 1913TIP3    H127374   6.850   3.660   1.464  0.1356 -1.5449  1.1323
 1913TIP3    H227375   6.700   3.650   1.445 -0.0557  0.0588  1.6242
 1914TIP3   OH227376   4.433   1.497   2.097  0.1156 -0.7717  0.4867
 1914TIP3    H127377   4.490   1.425   2.070 -0.0400 -0.7513  0.1064
 1914TIP3    H227378   4.363   1.499   2.032 -0.7030 -1.2330  1.3352
 1915TIP3   OH227379   1.944   0.259   0.188  0.0902  0.5138 -0.0835
 1915TIP3    H127380   1.858   0.223   0.211  0.4360  1.0248  2.3400
 1915TIP3    H227381   1.924   0.342   0.145 -0.6578  0.5788  0.3607
 1916TIP3   OH227382   1.415   0.634   0.784 -0.1790 -0.2769  0.0761
 1916TIP3    H127383   1.416   0.544   0.749 -1.1922 -0.2671 -0.0062
 1916TIP3    H227384   1.336   0.673   0.747  0.4807  0.8004 -0.2283
 1917TIP3   OH227385   3.743   0.494   2.433  0.3988  0.1023  0.6192
 1917TIP3    H127386   3.661   0.454   2.461  0.5992  0.5327  1.9229
 1917TIP3    H227387   3.801   0.484   2.509  1.1929  0.7584  0.1125
 1918TIP3   OH227388   4.090   4.022   8.306 -0.2673 -0.0120 -0.3018
 1918TIP3    H127389   4.113   3.972   8.227 -2.5649 -1.1278 -0.3349
 1918TIP3    H227390   4.133   3.974   8.377  0.5622  0.1174 -0.7067
 1919TIP3   OH227391   6.486   4.970   1.574  0.5788  0.3931  0.0440
 1919TIP3    H127392   6.515   5.061   1.579 -1.5023  1.0347  2.2371
 1919TIP3    H227393   6.555   4.921   1.619  1.7386  0.8267 -1.1877
 1920TIP3   OH227394   0.353   2.298   1.103  0.1871  0.1854 -0.0542
 1920TIP3    H127395   0.398   2.377   1.072 -0.1678 -0.3280 -1.9803
 1920TIP3    H227396   0.370   2.233   1.036  0.8388 -1.5510  1.7078
 1921TIP3   OH227397   0.854   1.389   8.428 -0.4090  0.3042 -0.5857
 1921TIP3    H127398   0.775   1.361   8.382 -1.1090  0.3300  0.5551
 1921TIP3    H227399   0.833   1.377   8.521  1.3306 -0.7781 -0.2868
 1922TIP3   OH227400   3.159   2.351   1.719  0.1059 -0.0567  0.7341
 1922TIP3    H127401   3.210   2.279   1.757  0.1399 -0.9931 -0.9896
 1922TIP3    H227402   3.145   2.325   1.628 -0.1979  1.9740  0.1556
 1923TIP3   OH227403   1.687   2.085   1.944 -0.0206  0.1491  0.4246
 1923TIP3    H127404   1.646   2.038   2.016 -1.2631  1.8987  0.9221
 1923TIP3    H227405   1.739   2.153   1.986 -1.6344  1.8990 -0.2711
 1924TIP3   OH227406   3.460   4.114   0.351  0.1550  0.2567 -0.1154
 1924TIP3    H127407   3.509   4.044   0.394  2.4182  1.6857 -0.1771
 1924TIP3    H227408   3.470   4.097   0.258  2.1208  1.4308 -0.1915
 1925TIP3   OH227409   6.086   4.702   2.112  0.5271  0.3265  0.3705
 1925TIP3    H127410   6.105   4.763   2.040  0.2742  0.5714  0.5105
 1925TIP3    H227411   6.019   4.746   2.164 -0.8613 -0.7621 -0.4315
 1926TIP3   OH227412   3.108   2.233   1.408 -0.3580  0.5247 -0.0091
 1926TIP3    H127413   3.088   2.147   1.445 -1.5349  0.2560 -1.2027
 1926TIP3    H227414   3.204   2.238   1.410 -0.2207 -1.2041 -0.7762
 1927TIP3   OH227415   3.808   4.662   0.504 -0.6931 -0.2790  0.0745
 1927TIP3    H127416   3.724   4.616   0.503 -0.9505  0.1559  0.4661
 1927TIP3    H227417   3.792   4.741   0.452  0.5292 -1.8806 -2.9017
 1928TIP3   OH227418   2.237   5.405   8.013 -0.6310 -0.8910 -1.1603
 1928TIP3    H127419   2.240   5.453   7.930 -1.0739 -1.4219 -1.4925
 1928TIP3    H227420   2.262   5.316   7.989 -0.3878 -0.9598 -0.6542
 1929TIP3   OH227421   3.002   1.886   2.838 -0.5176  0.0601  0.0586
 1929TIP3    H127422   2.953   1.916   2.915 -0.1220 -0.4959  0.5363
 1929TIP3    H227423   2.956   1.808   2.809  0.6035 -1.0272  1.0886
 1930TIP3   OH227424   0.640   6.413   1.465  0.8123  0.0220 -0.1498
 1930TIP3    H127425   0.573   6.478   1.483  0.5438 -0.1216 -0.6232
 1930TIP3    H227426   0.671   6.433   1.376  2.2507  0.8311  0.4866
 1931TIP3   OH227427   1.076   6.063   8.420 -0.3087 -0.4044  0.1203
 1931TIP3    H127428   1.119   6.061   8.505 -0.1504 -0.4313  0.0388
 1931TIP3    H227429   1.035   6.149   8.416 -1.3879 -0.8558  0.7599
 1932TIP3   OH227430   1.000   6.375   0.519  0.1180  0.3684  0.7442
 1932TIP3    H127431   0.995   6.461   0.561 -1.2497  0.4425  0.4618
 1932TIP3    H227432   1.057   6.324   0.577  1.6070  1.6639  0.5096
 1933TIP3   OH227433   1.355   3.471   2.236 -0.3067 -0.2466 -0.4773
 1933TIP3    H127434   1.322   3.389   2.273 -0.8636 -0.0371 -0.5048
 1933TIP3    H227435   1.284   3.533   2.249  0.6031  0.5776  0.7497
 1934TIP3   OH227436   2.118   6.089   7.991  0.1061 -0.1415 -0.0334
 1934TIP3    H127437   2.158   6.176   7.989 -0.2470  0.0501  0.8138
 1934TIP3    H227438   2.185   6.033   8.030 -1.2262  0.6567  3.7729
 1935TIP3   OH227439   3.472   1.442   3.556 -0.0856 -0.5306 -0.2657
 1935TIP3    H127440   3.498   1.350   3.548 -1.5280 -0.8980 -0.9529
 1935TIP3    H227441   3.376   1.440   3.557 -0.1375  0.9803 -0.4677
 1936TIP3   OH227442   1.208   4.676   7.958 -0.4830  0.3415 -0.1014
 1936TIP3    H127443   1.292   4.669   7.911 -1.4115  0.0161 -1.7992
 1936TIP3    H227444   1.169   4.589   7.949 -0.7554  0.3078  1.2269
 1937TIP3   OH227445   5.047   6.616   8.135  0.5182  0.2432  0.6338
 1937TIP3    H127446   5.038   6.678   8.208  1.8213  0.5576  0.5551
 1937TIP3    H227447   5.077   6.669   8.062 -2.2894  0.2190 -0.6428
 1938TIP3   OH227448   5.985   1.419   0.385 -0.1431  0.1267  0.2887
 1938TIP3    H127449   6.013   1.484   0.321  2.0048  0.7595  1.7698
 1938TIP3    H227450   5.931   1.468   0.447 -1.3574 -0.2681 -0.4240
 1939TIP3   OH227451   6.427   2.514   2.007 -0.0716  0.0616 -0.4202
 1939TIP3    H127452   6.465   2.460   2.077  2.1240  2.6747  0.5867
 1939TIP3    H227453   6.339   2.534   2.038 -0.2177 -1.2819  0.1151
 1940TIP3   OH227454   3.748   2.522   1.670  0.1585 -0.3739  0.5104
 1940TIP3    H127455   3.842   2.515   1.653  0.4043  1.5121  0.8546
 1940TIP3    H227456   3.719   2.596   1.617 -1.0062 -0.4938  0.9393
 1941TIP3   OH227457   0.891   4.655   1.957  0.5356 -0.3964  0.3930
 1941TIP3    H127458   0.868   4.716   1.887 -0.1019 -0.4740  0.5324
 1941TIP3    H227459   0.976   4.686   1.989  1.3360 -0.9602 -1.0996
 1942TIP3   OH227460   0.643   6.457   1.743  0.6111  0.2396 -0.1011
 1942TIP3    H127461   0.658   6.442   1.650  1.3545 -2.3710  0.3507
 1942TIP3    H227462   0.556   6.418   1.759  2.1841 -3.2242  0.9487
 1943TIP3   OH227463   5.364   0.906   2.661 -0.3126 -0.3389 -0.2573
 1943TIP3    H127464   5.459   0.901   2.667 -0.1794  1.3217 -0.3651
 1943TIP3    H227465   5.347   0.943   2.574 -1.0358 -0.4023 -0.1518
 1944TIP3   OH227466   0.538   6.859   2.477  0.1011  0.1177  0.2212
 1944TIP3    H127467   0.583   6.928   2.526 -0.1240 -0.7766  1.7556
 1944TIP3    H227468   0.449   6.892   2.466  0.0344  0.1359  0.8044
 1945TIP3   OH227469   0.944   2.135   0.319  0.5949  0.2934 -0.6389
 1945TIP3    H127470   1.036   2.145   0.345  0.3489  2.1328 -0.3265
 1945TIP3    H227471   0.926   2.213   0.266 -0.7379 -0.1365 -0.8538
 1946TIP3   OH227472   3.674   1.657   7.846  0.5875  0.5336 -0.0498
 1946TIP3    H127473   3.762   1.630   7.821  0.5698  0.0042  0.4308
 1946TIP3    H227474   3.618   1.586   7.817  0.1693  1.3431 -1.3016
 1947TIP3   OH227475   2.967   1.997   1.204  0.3420  0.0082 -0.0018
 1947TIP3    H127476   2.895   2.008   1.266  0.1945  0.5915 -0.2699
 1947TIP3    H227477   2.938   2.043   1.125  1.8870  2.1490  0.6035
 1948TIP3   OH227478   2.766   1.780   2.048  0.2540  0.4033 -0.4413
 1948TIP3    H127479   2.697   1.800   2.111 -0.8772  1.0503 -1.8511
 1948TIP3    H227480   2.732   1.707   1.997  0.7795  0.4656 -0.8902
 1949TIP3   OH227481   0.338   0.316   0.617  0.0021  0.0463  0.3644
 1949TIP3    H127482   0.293   0.300   0.534 -0.4875 -0.9596  0.8084
 1949TIP3    H227483   0.272   0.353   0.675  0.7952  2.5912 -0.2261
 1950TIP3   OH227484   1.149   0.857   0.993 -0.4673 -0.1322  0.4363
 1950TIP3    H127485   1.153   0.890   0.903 -0.5466 -0.6297  0.2476
 1950TIP3    H227486   1.075   0.795   0.993  1.2375 -2.2989  0.1009
 1951TIP3   OH227487   0.650   2.734   1.235 -0.1665  0.6804 -0.0653
 1951TIP3    H127488   0.658   2.705   1.326 -0.3116 -1.3469 -0.6513
 1951TIP3    H227489   0.725   2.695   1.191 -0.6117  0.8590 -1.0020
 1952TIP3   OH227490   5.992   1.320   0.666 -0.2148 -0.4409  0.3205
 1952TIP3    H127491   5.928   1.389   0.649  1.6115  2.2059  3.0481
 1952TIP3    H227492   6.044   1.315   0.585 -2.3122 -0.9856 -1.0711
 1953TIP3   OH227493   0.469   2.290   3.417  0.5519  0.1091 -0.3408
 1953TIP3    H127494   0.516   2.337   3.486 -0.2349  1.4283 -0.6870
 1953TIP3    H227495   0.395   2.346   3.395  0.0392 -0.9165 -1.3398
 1954TIP3   OH227496   6.809   2.867   3.482  0.1585 -0.0377  0.5366
 1954TIP3    H127497   6.727   2.820   3.464  1.7384 -2.3732 -1.2026
 1954TIP3    H227498   6.875   2.820   3.431  2.5548  1.9762  1.5727
 1955TIP3   OH227499   3.070   5.963   1.522  0.0066  0.6348  0.0189
 1955TIP3    H127500   3.154   6.009   1.525  0.8442 -0.7732 -0.7795
 1955TIP3    H227501   3.092   5.872   1.545 -1.3201  0.2680 -0.0820
 1956TIP3   OH227502   1.676   0.044   2.224 -0.4762 -0.5535 -0.5340
 1956TIP3    H127503   1.615   0.110   2.192  1.6975  1.3648 -0.9676
 1956TIP3    H227504   1.652  -0.036   2.177 -3.1067 -0.1460 -0.0854
 1957TIP3   OH227505   3.200   4.059   1.079 -0.4192  0.3980 -0.9036
 1957TIP3    H127506   3.243   4.142   1.101 -1.4997  0.6939  0.2170
 1957TIP3    H227507   3.272   3.998   1.063  0.4500  0.7882  1.2031
 1958TIP3   OH227508   3.828   3.523   0.451  0.1174 -0.0755 -0.0910
 1958TIP3    H127509   3.820   3.470   0.372  0.7576  0.3914 -0.4861
 1958TIP3    H227510   3.765   3.486   0.513  0.9756 -1.6683 -0.1393
 1959TIP3   OH227511   3.762   5.648   1.794 -0.3643  0.1510  0.0650
 1959TIP3    H127512   3.725   5.736   1.794 -0.1716  0.2391 -1.1708
 1959TIP3    H227513   3.856   5.661   1.786 -0.4012 -0.1744 -1.0651
 1960TIP3   OH227514   2.064   2.079   2.084 -0.1033 -0.4830  0.1602
 1960TIP3    H127515   2.019   2.027   2.018 -1.7001  1.0291 -0.0248
 1960TIP3    H227516   1.993   2.118   2.136  0.8579  2.7776 -0.7280
 1961TIP3   OH227517   2.964   3.115   1.347 -0.1156 -0.3314  0.0297
 1961TIP3    H127518   2.922   3.057   1.283 -1.2901  0.5581 -0.0555
 1961TIP3    H227519   3.053   3.127   1.315 -0.7992  0.4434 -1.7361
 1962TIP3   OH227520   5.240   5.782   8.229 -0.0787  0.1955  0.0686
 1962TIP3    H127521   5.315   5.737   8.190 -0.7912  1.2762 -2.8254
 1962TIP3    H227522   5.175   5.713   8.241  0.8757 -0.5210  1.3993
 1963TIP3   OH227523   4.983   5.315   0.818 -0.3904 -0.0451 -0.5772
 1963TIP3    H127524   4.902   5.363   0.828 -0.9655 -1.0463 -0.2610
 1963TIP3    H227525   4.957   5.223   0.820  0.8250 -0.4071  0.3087
 1964TIP3   OH227526   0.920   3.155   1.345  0.1208  0.3362 -0.5632
 1964TIP3    H127527   0.911   3.239   1.391  0.2312  1.0126 -1.7167
 1964TIP3    H227528   0.832   3.118   1.346  0.5668 -0.9178  2.3699
 1965TIP3   OH227529   2.401   1.952   2.167 -0.2007  0.4211  0.4166
 1965TIP3    H127530   2.313   1.926   2.194 -0.3402 -0.8521 -1.0914
 1965TIP3    H227531   2.451   1.871   2.168  0.3097  0.6859 -1.0188
 1966TIP3   OH227532   4.095   5.121   2.061 -0.3874 -0.6771  0.7359
 1966TIP3    H127533   4.108   5.069   2.141 -0.2095 -0.3845  0.8978
 1966TIP3    H227534   4.143   5.202   2.077  0.4128 -0.9803 -0.0318
 1967TIP3   OH227535   4.424   0.441   8.104 -0.1488 -0.2904 -0.0865
 1967TIP3    H127536   4.421   0.438   8.009  0.0925  0.2229 -0.1143
 1967TIP3    H227537   4.484   0.371   8.130  0.6379  0.2613 -0.3710
 1968TIP3   OH227538   3.895   5.033   8.209 -0.6554 -0.8829 -0.0197
 1968TIP3    H127539   3.930   5.049   8.121 -1.1067  0.5239  0.0331
 1968TIP3    H227540   3.972   5.016   8.263 -0.0520  1.3045 -0.0915
 1969TIP3   OH227541   1.240   5.507   8.127 -0.1873 -0.0195 -0.1789
 1969TIP3    H127542   1.184   5.473   8.197  0.2059  0.3877  0.3523
 1969TIP3    H227543   1.325   5.466   8.142 -0.0433  0.2349 -0.2844
 1970TIP3   OH227544   0.885   3.012   2.728  0.4112  0.2993  0.1877
 1970TIP3    H127545   0.972   2.975   2.738  0.6397  0.4631 -1.0242
 1970TIP3    H227546   0.854   3.025   2.818  0.4031 -2.5814  0.7137
 1971TIP3   OH227547   4.116   5.764   7.678 -0.3237  0.4701 -0.3210
 1971TIP3    H127548   4.157   5.750   7.593 -1.9033 -0.9619 -0.9002
 1971TIP3    H227549   4.157   5.699   7.735 -0.2168  0.5374 -0.3198
 1972TIP3   OH227550   4.484   5.285   0.117  0.0612 -0.3487 -0.3998
 1972TIP3    H127551   4.557   5.327   0.071  0.9643 -1.6246 -0.1867
 1972TIP3    H227552   4.435   5.241   0.048  0.2274 -0.5563 -0.3842
 1973TIP3   OH227553   1.861   4.594   1.171  0.5896 -0.0183 -0.1085
 1973TIP3    H127554   1.801   4.519   1.174  0.1456  0.3665  0.8886
 1973TIP3    H227555   1.878   4.607   1.078  1.2369 -1.8047 -0.2795
 1974TIP3   OH227556   5.902   6.037   1.463 -0.2000  0.1292 -0.0806
 1974TIP3    H127557   5.931   6.129   1.462  0.3312  0.0066  1.3483
 1974TIP3    H227558   5.978   5.989   1.495  0.0525 -1.0451 -2.2647
 1975TIP3   OH227559   3.691   4.349   0.205  0.2953  0.2567  0.0022
 1975TIP3    H127560   3.629   4.282   0.175  1.6125  0.0545 -2.6182
 1975TIP3    H227561   3.742   4.307   0.274 -1.1228 -0.2411  0.7728
 1976TIP3   OH227562   6.683   5.758   1.095 -0.1275  0.6991  0.0153
 1976TIP3    H127563   6.639   5.771   1.179 -1.1923  0.9740 -0.5571
 1976TIP3    H227564   6.745   5.687   1.111 -1.1173 -0.0353  0.7522
 1977TIP3   OH227565   4.868   3.531   0.792 -0.2339 -0.1751  0.5612
 1977TIP3    H127566   4.929   3.458   0.787  1.8319  1.4224  0.9275
 1977TIP3    H227567   4.887   3.573   0.876 -2.2632  0.0926  0.9586
 1978TIP3   OH227568   5.002   2.676   8.149  0.3193  0.2440 -0.0962
 1978TIP3    H127569   4.925   2.635   8.110 -1.1057  1.8072  0.9322
 1978TIP3    H227570   5.068   2.606   8.153  0.1107 -0.3899 -3.9052
 1979TIP3   OH227571   1.670   2.407   8.393 -0.7194  0.4467 -0.7773
 1979TIP3    H127572   1.624   2.386   8.311 -2.7264  1.0932  0.1081
 1979TIP3    H227573   1.614   2.369   8.461 -0.3895  2.0314  0.4150
 1980TIP3   OH227574   4.745   1.409   8.217 -0.1198 -0.0367  0.4189
 1980TIP3    H127575   4.840   1.419   8.211 -0.0023 -1.1727  0.0559
 1980TIP3    H227576   4.709   1.487   8.173  0.6473  0.1264  0.0719
 1981TIP3   OH227577   4.042   6.007   8.172 -0.7483  0.0493 -0.8163
 1981TIP3    H127578   4.002   6.044   8.250 -1.3639  1.4009 -1.7214
 1981TIP3    H227579   4.026   5.913   8.178  0.3626 -0.0482  1.2918
 1982TIP3   OH227580   4.090   5.860   3.212  0.2670  0.2969  0.1504
 1982TIP3    H127581   4.089   5.766   3.194 -0.6810  0.5939 -1.5986
 1982TIP3    H227582   4.166   5.873   3.268  1.2487 -1.3217 -0.7220
 1983TIP3   OH227583   0.213   1.906   1.495  0.3242  0.3279 -0.6326
 1983TIP3    H127584   0.258   1.969   1.551  1.1433 -0.6851 -0.0955
 1983TIP3    H227585   0.185   1.956   1.419  0.4091  1.4499  0.0523
 1984TIP3   OH227586   2.665   0.348   0.326  0.0598  0.3712 -0.0151
 1984TIP3    H127587   2.690   0.363   0.417 -0.5466 -2.8694  0.8087
 1984TIP3    H227588   2.726   0.402   0.275  1.6126  0.8871  2.2424
 1985TIP3   OH227589   0.228   4.287   0.457  0.1636  0.0918  0.2658
 1985TIP3    H127590   0.137   4.314   0.471 -0.0179 -0.9155  1.2216
 1985TIP3    H227591   0.225   4.230   0.380 -0.2801 -1.0833  1.1239
 1986TIP3   OH227592   3.480   5.457   8.120  0.3880 -0.4712  0.1764
 1986TIP3    H127593   3.417   5.498   8.060 -1.3411 -0.9036  1.6318
 1986TIP3    H227594   3.431   5.441   8.200  2.6660  0.2623  1.8384
 1987TIP3   OH227595   0.155   1.714   1.976  0.7708  0.0112 -0.0597
 1987TIP3    H127596   0.234   1.722   1.922 -0.0711 -0.3950 -1.3856
 1987TIP3    H227597   0.097   1.657   1.926  0.2092 -0.9230  1.6021
 1988TIP3   OH227598   6.019   2.230   1.510 -0.1677  0.4677  0.2095
 1988TIP3    H127599   5.997   2.292   1.579  1.0562  0.6958  0.4178
 1988TIP3    H227600   5.935   2.196   1.479 -0.8013  1.5967  0.6747
 1989TIP3   OH227601   1.709   0.608   0.451 -0.5245 -0.9693  0.5469
 1989TIP3    H127602   1.704   0.679   0.515  0.2048 -0.5877  0.1962
 1989TIP3    H227603   1.801   0.581   0.453 -0.5536 -1.1222 -0.1628
 1990TIP3   OH227604   5.713   4.355   0.167  0.1021  0.6047  0.6560
 1990TIP3    H127605   5.715   4.261   0.189 -1.0584 -0.3710 -2.7946
 1990TIP3    H227606   5.623   4.382   0.186  0.2230  0.8054  0.9350
 1991TIP3   OH227607   3.187   5.054   1.917  0.7182  0.2050 -0.7653
 1991TIP3    H127608   3.123   5.124   1.929 -0.1756 -0.7261  0.2478
 1991TIP3    H227609   3.252   5.069   1.986  0.1176 -0.3723 -0.0586
 1992TIP3   OH227610   3.817   4.789   0.741  0.1364  0.2382  0.3856
 1992TIP3    H127611   3.820   4.744   0.656  1.6677  0.0414  0.5171
 1992TIP3    H227612   3.733   4.762   0.778  0.2561 -1.1720 -0.2744
 1993TIP3   OH227613   2.671   6.497   1.405 -0.2185 -0.7446  0.1007
 1993TIP3    H127614   2.742   6.456   1.453  1.3035  1.2023 -0.3658
 1993TIP3    H227615   2.614   6.534   1.472 -0.1909 -1.3571  0.4636
 1994TIP3   OH227616   6.524   1.277   3.669 -0.3448  0.0614  0.6370
 1994TIP3    H127617   6.486   1.193   3.693  2.0930 -1.8809 -1.7025
 1994TIP3    H227618   6.617   1.270   3.691  0.0698  1.8583 -0.2828
 1995TIP3   OH227619   3.072   6.834   1.196  0.1383  0.9388 -0.6544
 1995TIP3    H127620   3.042   6.917   1.159  0.7960  1.4360 -0.1109
 1995TIP3    H227621   3.028   6.829   1.281 -1.5546 -0.3142 -1.5475
 1996TIP3   OH227622   2.489   0.430   3.365 -0.4747  0.4709  0.2557
 1996TIP3    H127623   2.440   0.373   3.305 -0.9494  0.8102  0.3128
 1996TIP3    H227624   2.516   0.504   3.310 -1.9539  1.3877  0.7051
 1997TIP3   OH227625   0.233   4.973   1.829  0.6785  0.0846 -0.1591
 1997TIP3    H127626   0.191   4.927   1.902  1.7351  0.3385  0.6331
 1997TIP3    H227627   0.235   4.909   1.758  2.5822 -1.3144  1.0693
 1998TIP3   OH227628   2.116   0.987   7.599 -0.0121 -0.4501  0.4337
 1998TIP3    H127629   2.206   0.979   7.632  1.4067  3.0761 -1.9258
 1998TIP3    H227630   2.119   0.948   7.512 -0.8890 -0.5503  0.4407
 1999TIP3   OH227631   2.441   5.681   0.063 -0.4341  0.0315 -0.3136
 1999TIP3    H127632   2.384   5.676  -0.014  2.0777 -1.4567 -2.2189
 1999TIP3    H227633   2.508   5.745   0.039 -0.4864  0.7582  1.3428
 2000TIP3   OH227634   6.314   4.744   8.203 -0.1911  0.1643 -0.1550
 2000TIP3    H127635   6.404   4.772   8.183 -1.1018  2.3893 -1.4983
 2000TIP3    H227636   6.285   4.699   8.124 -1.3583  2.5949 -1.2451
 2001TIP3   OH227637   4.730   6.776   8.544 -0.3157 -0.6688 -0.1118
 2001TIP3    H127638   4.726   6.794   8.638 -0.4862 -1.8446  0.1166
 2001TIP3    H227639   4.812   6.729   8.533  0.0783  0.1335 -0.6838
 2002TIP3   OH227640   1.376   3.359   8.317 -0.7180 -0.2439  0.2828
 2002TIP3    H127641   1.398   3.392   8.230 -1.1721  0.1087  0.2932
 2002TIP3    H227642   1.310   3.291   8.301 -1.9139  0.8402  0.4218
 2003TIP3   OH227643   4.372   0.662   7.588 -0.4429  0.0908  0.2055
 2003TIP3    H127644   4.335   0.592   7.534 -0.1103 -0.6380  0.9026
 2003TIP3    H227645   4.296   0.701   7.632 -0.4669 -1.0666  1.2407
 2004TIP3   OH227646   3.299   6.809   0.956 -0.9684  0.2896 -0.2812
 2004TIP3    H127647   3.229   6.871   0.977  0.3367  1.4561  0.7795
 2004TIP3    H227648   3.373   6.838   1.008  0.5772 -0.4192 -2.0001
 2005TIP3   OH227649   3.452   2.762   1.351  0.2652  0.0102 -0.1057
 2005TIP3    H127650   3.409   2.843   1.379 -0.7965 -0.7670  0.6039
 2005TIP3    H227651   3.384   2.694   1.361  0.9063 -0.8563 -1.3722
 2006TIP3   OH227652   1.238   0.265   2.605  0.0134  0.2074 -0.9313
 2006TIP3    H127653   1.247   0.171   2.618  1.8936  0.4657  0.1294
 2006TIP3    H227654   1.327   0.299   2.615 -1.0121  2.4820  2.3635
 2007TIP3   OH227655   5.327   0.213   2.323  0.3995 -0.2199  0.1079
 2007TIP3    H127656   5.395   0.150   2.349 -0.9994 -1.4077  1.0193
 2007TIP3    H227657   5.267   0.162   2.269 -1.6632 -0.1800  2.2128
 2008TIP3   OH227658   1.088   2.196   2.445 -0.1392  0.5284 -0.5488
 2008TIP3    H127659   0.998   2.216   2.471 -0.6261 -0.3936 -1.4155
 2008TIP3    H227660   1.126   2.281   2.422  0.0195  1.2547  2.1155
 2009TIP3   OH227661   2.162   4.414   1.097  0.5364  0.3606 -0.5157
 2009TIP3    H127662   2.181   4.505   1.120  0.6658 -0.0059  0.8942
 2009TIP3    H227663   2.124   4.376   1.176  1.3813 -1.0863 -0.7734
 2010TIP3   OH227664   1.427   5.544   7.789 -0.1039  0.6444  0.0084
 2010TIP3    H127665   1.373   5.477   7.748 -0.5474 -0.3473  2.1179
 2010TIP3    H227666   1.368   5.618   7.802 -0.1642  0.6700 -0.3956
 2011TIP3   OH227667   0.035   6.539   0.312 -0.2545 -0.3824  0.0796
 2011TIP3    H127668   0.066   6.452   0.289 -0.9076 -1.3425  2.4610
 2011TIP3    H227669   0.101   6.598   0.278  1.4060 -1.9773  0.3897
 2012TIP3   OH227670   1.602   4.394   8.219  0.2193 -0.6747  0.3206
 2012TIP3    H127671   1.529   4.343   8.255 -0.8850 -0.0897 -1.0235
 2012TIP3    H227672   1.567   4.482   8.207  1.2085 -0.3246 -0.1711
 2013TIP3   OH227673   4.186   5.778   2.502 -0.0900  0.1691  0.0253
 2013TIP3    H127674   4.158   5.691   2.529 -0.9047  0.6984  0.9855
 2013TIP3    H227675   4.122   5.804   2.436 -0.8280  0.6533  0.9008
 2014TIP3   OH227676   6.410   5.248   2.923  1.0637  0.2071  0.0877
 2014TIP3    H127677   6.342   5.182   2.938  1.4918 -0.0680  0.8710
 2014TIP3    H227678   6.366   5.331   2.937  0.3331  0.1496 -1.6212
 2015TIP3   OH227679   2.521   3.140   1.896  0.3046 -0.5537 -0.2564
 2015TIP3    H127680   2.494   3.187   1.975  0.6964  2.0269 -1.5593
 2015TIP3    H227681   2.593   3.084   1.926 -0.1696 -0.3476  1.3883
 2016TIP3   OH227682   5.414   2.705   7.718  0.1459 -0.8079  0.2654
 2016TIP3    H127683   5.495   2.754   7.728  1.0107 -2.5367  2.5696
 2016TIP3    H227684   5.393   2.712   7.624  1.8467  1.3020 -0.0332
 2017TIP3   OH227685   4.790   4.108   1.204  0.2699  0.1659 -0.3394
 2017TIP3    H127686   4.837   4.024   1.202  0.0962  0.0774 -0.7337
 2017TIP3    H227687   4.732   4.105   1.128  1.7164  1.4898 -1.5594
 2018TIP3   OH227688   5.759   3.173   2.402 -0.1442 -0.4596  0.2206
 2018TIP3    H127689   5.687   3.111   2.416  0.1518 -0.3594  2.5708
 2018TIP3    H227690   5.758   3.229   2.479  1.3200  0.7407 -0.5717
 2019TIP3   OH227691   4.450   5.119   8.064  0.2572  0.7638 -0.3495
 2019TIP3    H127692   4.369   5.140   8.017  0.6777 -0.0122 -1.4677
 2019TIP3    H227693   4.485   5.204   8.090 -1.2871  1.0842  0.8368
 2020TIP3   OH227694   0.951   5.164   8.523 -0.4128  0.3958  0.2249
 2020TIP3    H127695   0.873   5.142   8.471 -0.0034 -0.3195 -0.1035
 2020TIP3    H227696   1.022   5.116   8.481  0.1968  0.9657  0.5812
 2021TIP3   OH227697   1.744   6.837   0.364 -0.0710 -0.3198  0.2106
 2021TIP3    H127698   1.714   6.764   0.310  1.5609 -1.4770  0.7839
 2021TIP3    H227699   1.830   6.861   0.328  0.4130 -0.1858  1.4057
 2022TIP3   OH227700   4.326   3.078   8.606 -0.1239 -0.2942 -0.3341
 2022TIP3    H127701   4.400   3.139   8.600 -0.8435  0.8377  1.3586
 2022TIP3    H227702   4.248   3.134   8.603 -0.8090 -1.0613  1.5032
 2023TIP3   OH227703   0.754   5.011   1.825  0.2931 -0.2664  0.3619
 2023TIP3    H127704   0.683   5.069   1.797 -1.2855 -2.0779  0.3493
 2023TIP3    H227705   0.801   5.060   1.893 -0.3644  1.3483 -0.2930
 2024TIP3   OH227706   5.480   5.675   7.292  0.5070  0.0301 -0.7350
 2024TIP3    H127707   5.573   5.691   7.276  1.7694 -1.4917  3.7151
 2024TIP3    H227708   5.460   5.597   7.241  2.0529 -0.3580 -0.7966
 2025TIP3   OH227709   1.924   5.920   7.607 -0.5501 -0.4607 -0.1456
 2025TIP3    H127710   1.941   5.830   7.579  0.6062 -0.3056  0.0303
 2025TIP3    H227711   1.945   5.921   7.700 -1.6817 -0.2797  0.1259
 2026TIP3   OH227712   6.193   3.226   8.030 -0.6459  0.1491  0.7202
 2026TIP3    H127713   6.133   3.258   7.962 -1.5149  0.8564  1.7861
 2026TIP3    H227714   6.149   3.150   8.067 -0.7015  0.4245  1.2275
 2027TIP3   OH227715   1.943   5.877   8.572 -0.0314 -0.0170  0.0027
 2027TIP3    H127716   2.003   5.855   8.643 -1.7739  1.1278  1.9224
 2027TIP3    H227717   1.955   5.972   8.559 -0.7789  0.0551 -0.2082
 2028TIP3   OH227718   2.289   0.695   1.383 -0.2523 -0.0906  0.2807
 2028TIP3    H127719   2.242   0.624   1.427 -0.4570  0.4842  1.0138
 2028TIP3    H227720   2.220   0.752   1.350 -0.0889  0.2524  0.5185
 2029TIP3   OH227721   0.873   4.103   1.075 -0.0952 -0.1534  0.2896
 2029TIP3    H127722   0.817   4.052   1.133 -0.9905  0.9793  0.4614
 2029TIP3    H227723   0.913   4.037   1.017 -1.8709 -0.9837 -0.0623
 2030TIP3   OH227724   4.089   2.829   0.999 -0.2824  0.6050 -0.4747
 2030TIP3    H127725   4.041   2.781   0.931 -1.4090 -1.9671  1.9030
 2030TIP3    H227726   4.029   2.831   1.073  2.5150 -1.1233  2.0671
 2031TIP3   OH227727   0.501   3.501   1.811 -0.1746  0.0689  0.4023
 2031TIP3    H127728   0.415   3.467   1.837 -0.9049  0.6628 -1.1152
 2031TIP3    H227729   0.485   3.594   1.794  0.4042 -0.1343 -1.3821
 2032TIP3   OH227730   1.163   0.906   0.724 -0.3867  0.1880 -0.1628
 2032TIP3    H127731   1.171   0.824   0.675  2.3485  0.3849 -0.1737
 2032TIP3    H227732   1.083   0.947   0.690 -0.5114 -1.3477 -1.8490
 2033TIP3   OH227733   3.692   1.478   1.980  0.7416 -0.3827  0.2518
 2033TIP3    H127734   3.606   1.446   2.007  1.3216 -2.6170 -0.3398
 2033TIP3    H227735   3.752   1.445   2.046  1.2430  0.7555  0.3973
 2034TIP3   OH227736   5.566   4.987   7.682 -0.1099 -0.1445  0.2884
 2034TIP3    H127737   5.591   5.076   7.656  0.0073 -0.2505  0.0331
 2034TIP3    H227738   5.508   4.957   7.612 -0.6288 -0.0485  0.6772
 2035TIP3   OH227739   6.380   1.720   2.383  0.3417 -0.1984 -0.7508
 2035TIP3    H127740   6.418   1.781   2.446 -1.1432  1.3968 -1.3246
 2035TIP3    H227741   6.448   1.710   2.316  0.4447  1.2284 -0.8893
 2036TIP3   OH227742   5.832   6.493   7.866  0.0415  0.1281 -0.2166
 2036TIP3    H127743   5.830   6.551   7.790  3.1013 -0.7066 -1.0922
 2036TIP3    H227744   5.901   6.429   7.845  0.1261 -0.9064  2.7344
 2037TIP3   OH227745   1.318   4.801   7.123 -0.5743  0.1697 -0.2162
 2037TIP3    H127746   1.251   4.864   7.148  0.5464 -0.0593  4.2223
 2037TIP3    H227747   1.382   4.853   7.073 -1.2210  1.8397  0.6024
 2038TIP3   OH227748   6.351   3.154   1.552  0.0204 -1.5419  0.1669
 2038TIP3    H127749   6.256   3.160   1.565  0.0786 -2.2119  1.0115
 2038TIP3    H227750   6.368   3.060   1.548  0.5969 -1.4168 -0.4407
 2039TIP3   OH227751   5.662   4.426   0.561 -0.0096  0.6353  0.8894
 2039TIP3    H127752   5.567   4.417   0.555  0.2849 -3.3462 -0.8326
 2039TIP3    H227753   5.685   4.381   0.642  0.4839  0.6594  0.7665
 2040TIP3   OH227754   3.106   2.614   2.360  0.3883 -0.4109  0.6024
 2040TIP3    H127755   3.155   2.593   2.281 -2.5296 -2.6668 -0.8444
 2040TIP3    H227756   3.055   2.535   2.378 -1.4464  1.1340  2.9102
 2041TIP3   OH227757   1.040   5.865   8.247 -0.3569  0.5907 -0.2163
 2041TIP3    H127758   1.060   5.934   8.311  0.7697  0.7968 -0.7766
 2041TIP3    H227759   1.089   5.890   8.169 -1.8648  0.4451 -1.2544
 2042TIP3   OH227760   3.988   1.232   1.156 -0.2899 -0.1678  0.0053
 2042TIP3    H127761   3.973   1.209   1.248 -1.1448  1.2854  0.2619
 2042TIP3    H227762   3.998   1.148   1.112 -1.8679 -0.9841  1.0931
 2043TIP3   OH227763   6.038   1.466   0.105  0.1319 -0.0368 -0.1462
 2043TIP3    H127764   6.082   1.551   0.105  2.7624 -1.0957  4.0694
 2043TIP3    H227765   5.955   1.482   0.150  0.0070  0.4730 -0.5418
 2044TIP3   OH227766   6.201   5.328   8.221 -0.0109  0.2641 -0.8271
 2044TIP3    H127767   6.239   5.286   8.298 -2.8667 -0.6142  0.2332
 2044TIP3    H227768   6.188   5.257   8.158  1.5856  0.8501 -1.8893
 2045TIP3   OH227769   0.215   4.226   3.044 -0.0509  0.3383  0.3444
 2045TIP3    H127770   0.283   4.293   3.047  0.4980 -0.0871 -1.4994
 2045TIP3    H227771   0.263   4.144   3.033 -0.8417  0.0358 -1.0217
 2046TIP3   OH227772   3.999   6.885   0.453 -0.5668 -0.6499 -0.1061
 2046TIP3    H127773   4.084   6.896   0.496 -1.1381  1.9548  0.5345
 2046TIP3    H227774   4.020   6.855   0.365  1.2066  1.5170 -0.5180
 2047TIP3   OH227775   4.587   0.553   2.283 -0.7101  0.2210 -0.9559
 2047TIP3    H127776   4.501   0.526   2.314 -0.0089  1.0928  2.0895
 2047TIP3    H227777   4.638   0.472   2.278 -0.6618  0.0770  1.0450
 2048TIP3   OH227778   6.132   0.156   3.154  0.3213 -0.6266  0.2729
 2048TIP3    H127779   6.215   0.191   3.187  0.4780 -2.0143  1.4436
 2048TIP3    H227780   6.079   0.143   3.232 -0.0097 -2.2483 -0.1918
 2049TIP3   OH227781   3.765   5.610   0.599 -0.1307 -0.1552 -0.0541
 2049TIP3    H127782   3.691   5.577   0.547 -0.9459 -0.3013  1.1473
 2049TIP3    H227783   3.740   5.590   0.690  1.5681 -0.5370  0.3496
 2050TIP3   OH227784   4.140   1.150   0.130 -0.5480 -0.1737 -0.2466
 2050TIP3    H127785   4.055   1.113   0.153 -0.7061 -0.6412 -1.4892
 2050TIP3    H227786   4.127   1.245   0.136 -0.4150 -0.2513  2.0163
 2051TIP3   OH227787   5.483   1.416   8.621 -0.0827  0.0279 -0.1948
 2051TIP3    H127788   5.544   1.363   8.571  0.4517  0.3193  0.1411
 2051TIP3    H227789   5.398   1.374   8.609  0.5060 -1.5992  1.0264
 2052TIP3   OH227790   2.289   6.625   8.646 -0.5084 -0.0283  0.6884
 2052TIP3    H127791   2.297   6.566   8.721 -0.8493 -1.2571 -0.2111
 2052TIP3    H227792   2.302   6.569   8.570  1.5370  1.4858 -0.1597
 2053TIP3   OH227793   0.460   6.615   1.027 -0.1270  0.1447  0.0580
 2053TIP3    H127794   0.547   6.640   0.998  0.4678  0.8135  2.2425
 2053TIP3    H227795   0.410   6.604   0.946  1.7697  0.4707 -1.2146
 2054TIP3   OH227796   2.265   2.828   2.309  0.1536 -0.5115  0.1057
 2054TIP3    H127797   2.208   2.904   2.315  1.1276  0.1267  1.9823
 2054TIP3    H227798   2.280   2.817   2.215 -0.1400  1.4998 -0.2218
 2055TIP3   OH227799   0.730   2.520   8.498 -0.1239 -0.0217 -0.5527
 2055TIP3    H127800   0.801   2.459   8.519 -0.9055 -1.6011 -2.2359
 2055TIP3    H227801   0.657   2.492   8.553  0.3601  1.2467  0.7667
 2056TIP3   OH227802   1.429   3.898   2.537 -0.2341 -0.4811 -0.1609
 2056TIP3    H127803   1.516   3.859   2.541 -0.4455 -0.8997  0.4545
 2056TIP3    H227804   1.410   3.907   2.443  0.4783 -0.3555 -0.2987
 2057TIP3   OH227805   2.497   2.395   3.403  0.8284  0.2712 -0.2127
 2057TIP3    H127806   2.521   2.487   3.391 -1.4613  1.0152  0.4696
 2057TIP3    H227807   2.482   2.386   3.497 -4.6011  0.8750 -0.6969
 2058TIP3   OH227808   2.023   3.421   8.083  0.0053  0.1353  0.0694
 2058TIP3    H127809   2.109   3.410   8.124 -0.4523  0.7582  1.2457
 2058TIP3    H227810   2.042   3.439   7.991  1.0285 -2.3547 -0.2797
 2059TIP3   OH227811   1.982   4.817   2.962  0.3567 -0.3628 -0.0557
 2059TIP3    H127812   2.017   4.895   3.005 -0.3057  1.1651 -2.1442
 2059TIP3    H227813   1.927   4.776   3.029  1.3045  0.5071  1.3224
 2060TIP3   OH227814   3.771   4.020   1.164 -0.5407  0.3121  0.2782
 2060TIP3    H127815   3.813   4.020   1.250 -0.3609 -0.1557  0.1946
 2060TIP3    H227816   3.777   3.929   1.134  0.2462  0.6528 -0.6454
 2061TIP3   OH227817   3.642   3.339   0.776  0.0017 -0.0418 -0.2076
 2061TIP3    H127818   3.731   3.374   0.776  0.0189 -0.0735  0.5430
 2061TIP3    H227819   3.590   3.408   0.818  0.1438 -1.1482  1.9297
 2062TIP3   OH227820   5.877   5.965   2.900  0.1922 -0.1084 -0.6071
 2062TIP3    H127821   5.969   5.982   2.921 -0.0215 -0.3403  0.5550
 2062TIP3    H227822   5.840   6.052   2.882  0.4011  0.0960 -0.0729
 2063TIP3   OH227823   3.705   3.761   1.075  0.2118  0.3187  0.0354
 2063TIP3    H127824   3.725   3.673   1.108 -0.1462  0.0324 -0.5095
 2063TIP3    H227825   3.744   3.763   0.988  0.0148  0.6200 -0.0449
 2064TIP3   OH227826   0.632   3.928   2.414 -0.1694 -0.0006  0.1959
 2064TIP3    H127827   0.593   3.940   2.327 -0.0672  0.4979  0.2175
 2064TIP3    H227828   0.683   4.007   2.428 -0.3465  0.0095  0.7936
 2065TIP3   OH227829   3.743   4.032   1.476  0.1404 -0.5169 -0.2047
 2065TIP3    H127830   3.665   4.064   1.430  0.4897  1.5561  0.5431
 2065TIP3    H227831   3.793   4.111   1.495  1.1512 -1.5541  1.6386
 2066TIP3   OH227832   0.384   0.253   7.404 -0.1279 -0.3620  0.4687
 2066TIP3    H127833   0.367   0.346   7.422  1.1440  0.3912 -1.7951
 2066TIP3    H227834   0.479   0.248   7.392 -0.0607 -2.1601  1.3575
 2067TIP3   OH227835   4.323   4.796   1.556 -0.3853 -0.5139  0.7371
 2067TIP3    H127836   4.326   4.840   1.641 -1.1000 -1.7120  1.4255
 2067TIP3    H227837   4.267   4.852   1.502 -1.5875 -0.7336  1.7038
 2068TIP3   OH227838   1.134   6.853   2.496 -0.0682 -0.1932  0.4580
 2068TIP3    H127839   1.172   6.784   2.441  1.6765 -0.2457  1.6453
 2068TIP3    H227840   1.208   6.887   2.546 -0.8562  2.5640 -0.0504
 2069TIP3   OH227841   3.112   2.489   1.095 -0.3474 -0.2779  0.8079
 2069TIP3    H127842   3.023   2.455   1.101 -0.5969  0.4604  1.5335
 2069TIP3    H227843   3.113   2.564   1.154  0.5696  0.1344  0.2940
 2070TIP3   OH227844   1.944   1.565   0.401 -0.0216  0.1325  0.3374
 2070TIP3    H127845   1.949   1.481   0.355  0.7376  0.0081  0.6439
 2070TIP3    H227846   1.850   1.579   0.415 -0.3253  0.3753 -1.6329
 2071TIP3   OH227847   0.100   0.624   0.996 -0.3574 -0.0404  0.4072
 2071TIP3    H127848   0.104   0.719   0.998  0.2954 -0.0067 -0.9530
 2071TIP3    H227849   0.046   0.600   1.071 -1.0119  1.4184  0.4308
 2072TIP3   OH227850   2.409   4.321   2.232 -0.1471 -0.1021  0.0713
 2072TIP3    H127851   2.476   4.286   2.173 -0.1403 -0.3505  0.2265
 2072TIP3    H227852   2.377   4.245   2.280 -0.9398 -0.0844 -0.4013
 2073TIP3   OH227853   6.674   1.315   1.533 -0.0012 -0.6160  0.0973
 2073TIP3    H127854   6.646   1.276   1.616  0.6856  0.4313  0.8395
 2073TIP3    H227855   6.712   1.242   1.484 -1.1908 -1.4216  0.3291
 2074TIP3   OH227856   0.401   0.355   2.162 -0.0724  0.1148 -0.4101
 2074TIP3    H127857   0.436   0.432   2.117 -0.9038  0.6586 -0.1575
 2074TIP3    H227858   0.423   0.369   2.254 -1.3674  0.7283 -0.1686
 2075TIP3   OH227859   1.887   2.606   8.438  0.3084 -0.6582  0.0415
 2075TIP3    H127860   1.841   2.682   8.474  0.9322 -1.1748  2.0546
 2075TIP3    H227861   1.822   2.536   8.440  0.2855 -0.6421 -0.0803
 2076TIP3   OH227862   2.805   1.762   2.424  0.0185  0.4598 -0.1072
 2076TIP3    H127863   2.730   1.703   2.436  0.8195 -0.5191  0.1639
 2076TIP3    H227864   2.766   1.843   2.392 -1.2655  0.2730  0.9089
 2077TIP3   OH227865   5.494   5.594   2.831  0.2961 -0.2022  0.0598
 2077TIP3    H127866   5.428   5.537   2.869  0.7304 -1.6523 -1.2390
 2077TIP3    H227867   5.446   5.647   2.767 -0.0443  0.6732  1.0142
 2078TIP3   OH227868   2.574   1.132   8.638 -0.3856  0.2047  0.7844
 2078TIP3    H127869   2.632   1.185   8.584 -1.6502  0.7125 -0.1326
 2078TIP3    H227870   2.578   1.171   8.725  0.1204  0.6427  0.5657
 2079TIP3   OH227871   5.168   5.861   1.540 -0.0777 -0.2742 -0.1038
 2079TIP3    H127872   5.108   5.935   1.548 -4.2201 -3.3038  0.3434
 2079TIP3    H227873   5.189   5.856   1.447 -0.5163  0.8254 -0.2748
 2080TIP3   OH227874   0.654   6.222   3.091 -0.3962 -0.1656 -0.1877
 2080TIP3    H127875   0.598   6.178   3.154  0.5091  0.1752  0.8851
 2080TIP3    H227876   0.698   6.151   3.044  0.6501 -0.4327  1.1543
 2081TIP3   OH227877   6.736   4.595   7.487 -0.9105 -0.2764  0.4660
 2081TIP3    H127878   6.694   4.520   7.445  0.2517 -1.0126  0.5577
 2081TIP3    H227879   6.828   4.586   7.464 -0.6394  0.6857  1.1407
 2082TIP3   OH227880   5.125   4.226   1.158  0.2441 -0.2504 -0.1561
 2082TIP3    H127881   5.080   4.168   1.097 -0.4204 -0.1957  0.2605
 2082TIP3    H227882   5.159   4.168   1.226 -0.0976 -0.1950  0.0658
 2083TIP3   OH227883   5.682   6.057   1.603  0.0765  0.3246  0.1374
 2083TIP3    H127884   5.765   6.032   1.563 -0.3310  1.4655 -1.5522
 2083TIP3    H227885   5.617   6.044   1.534 -1.0194  0.2526  1.1551
 2084TIP3   OH227886   5.614   5.929   1.021  0.9899 -0.3884  0.0361
 2084TIP3    H127887   5.666   5.957   1.096  1.4965  1.5537 -0.9585
 2084TIP3    H227888   5.677   5.921   0.949  0.1927  0.3899 -0.7846
 2085TIP3   OH227889   4.747   0.784   2.681  0.3402 -0.3463  0.0465
 2085TIP3    H127890   4.774   0.844   2.751 -0.0140 -1.9411  1.6364
 2085TIP3    H227891   4.652   0.780   2.688  0.0325  1.3195 -2.1796
 2086TIP3   OH227892   0.591   5.202   0.121  0.3559 -0.5356  0.2987
 2086TIP3    H127893   0.535   5.124   0.115  0.8107 -0.9582  1.2545
 2086TIP3    H227894   0.562   5.258   0.049 -1.3428 -0.6983  0.8104
 2087TIP3   OH227895   1.975   4.161   8.023 -0.5079 -0.0369  0.0605
 2087TIP3    H127896   1.907   4.095   8.040 -0.3339  0.3863  2.8213
 2087TIP3    H227897   1.930   4.245   8.032  0.4523  0.2820  2.9703
 2088TIP3   OH227898   5.019   5.560   2.705 -0.0418  0.7700 -0.5719
 2088TIP3    H127899   5.066   5.614   2.769 -0.3969  0.4821 -0.0585
 2088TIP3    H227900   4.927   5.581   2.720 -0.4386 -1.9700  1.5496
 2089TIP3   OH227901   6.790   1.888   0.905  0.5054  0.4753 -0.3726
 2089TIP3    H127902   6.851   1.934   0.847 -0.4183 -2.2717 -3.8870
 2089TIP3    H227903   6.705   1.896   0.861 -0.4808 -0.8255  1.2041
 2090TIP3   OH227904   5.471   3.040   1.745  0.2957  0.4460  0.1534
 2090TIP3    H127905   5.487   2.988   1.666  1.2641  0.4166  0.3547
 2090TIP3    H227906   5.497   3.129   1.722  3.1590 -0.0013  1.1638
 2091TIP3   OH227907   2.985   5.601   0.066  0.0537 -0.6991 -0.1047
 2091TIP3    H127908   2.907   5.636   0.109 -0.3893 -1.7047 -0.0665
 2091TIP3    H227909   3.038   5.566   0.138 -0.3001 -1.6381 -0.3002
 2092TIP3   OH227910   0.772   2.542   0.902  0.1172  0.4800 -0.0873
 2092TIP3    H127911   0.829   2.474   0.866  0.3362  0.2396  0.6834
 2092TIP3    H227912   0.719   2.497   0.967  0.2958  1.0510  0.4676
 2093TIP3   OH227913   5.857   4.751   2.560  0.2628 -0.4886  0.4637
 2093TIP3    H127914   5.859   4.750   2.464 -3.0607  1.1133  0.2437
 2093TIP3    H227915   5.911   4.827   2.583  0.1974 -0.2177 -0.2295
 2094TIP3   OH227916   3.892   6.554   1.783  0.5964  0.4872  0.4861
 2094TIP3    H127917   3.938   6.541   1.700  0.7951 -0.4721  0.7407
 2094TIP3    H227918   3.954   6.525   1.850  0.0170  0.1905  0.9009
 2095TIP3   OH227919   0.062   2.371   0.886 -0.0713 -0.3411  0.6750
 2095TIP3    H127920   0.150   2.346   0.857 -0.8746 -1.2991 -1.0943
 2095TIP3    H227921   0.069   2.464   0.907  1.0099  0.0163 -1.0879
 2096TIP3   OH227922   3.058   2.017   8.422 -0.0912  0.2859 -0.2942
 2096TIP3    H127923   3.091   2.087   8.366  3.0366 -1.7363 -1.2228
 2096TIP3    H227924   3.090   2.039   8.510 -0.3772  0.7095 -0.2911
 2097TIP3   OH227925   4.421   0.117   1.568  0.4330  0.1750 -0.5587
 2097TIP3    H127926   4.451   0.028   1.586  2.0674  0.2222 -2.6086
 2097TIP3    H227927   4.376   0.111   1.484  0.1007  1.1984 -0.4767
 2098TIP3   OH227928   4.970   4.591   8.364 -0.4668  0.2841 -0.2226
 2098TIP3    H127929   5.016   4.675   8.371 -1.1092  0.7233 -1.1569
 2098TIP3    H227930   4.958   4.563   8.455 -1.0347  1.6482  0.1460
 2099TIP3   OH227931   5.740   2.566   1.031  0.1773  0.2502 -0.4310
 2099TIP3    H127932   5.668   2.511   1.002 -0.1077  0.3530  0.0676
 2099TIP3    H227933   5.806   2.559   0.961  1.0914 -2.4517  0.5975
 2100TIP3   OH227934   2.445   2.915   0.705  0.6654 -0.4032  0.6643
 2100TIP3    H127935   2.408   2.988   0.755  0.7946 -0.2064  0.4748
 2100TIP3    H227936   2.374   2.852   0.699  0.4908 -0.2093  0.6690
 2101TIP3   OH227937   4.584   1.032   7.626 -0.8520  0.5873 -0.0610
 2101TIP3    H127938   4.588   0.976   7.549 -1.5279  0.8561 -0.2944
 2101TIP3    H227939   4.491   1.048   7.640 -0.6690  1.9617 -0.2423
 2102TIP3   OH227940   4.036   5.898   1.455  0.3348  0.2912 -0.5268
 2102TIP3    H127941   3.999   5.812   1.478  2.7015 -0.9074 -0.8883
 2102TIP3    H227942   3.959   5.953   1.440 -1.3067 -1.9272 -0.9279
 2103TIP3   OH227943   6.318   2.279   0.413  0.0485  0.4238 -0.0024
 2103TIP3    H127944   6.408   2.297   0.442 -0.7226  1.0364  2.2117
 2103TIP3    H227945   6.317   2.304   0.321  2.5430 -1.1027 -0.5478
 2104TIP3   OH227946   5.888   0.314   2.813  0.7730  0.0296  0.5382
 2104TIP3    H127947   5.837   0.256   2.870 -0.6780 -1.3850 -2.0268
 2104TIP3    H227948   5.974   0.271   2.807  0.0946 -1.2794 -0.3725
 2105TIP3   OH227949   3.658   4.007   1.751 -0.4520  0.0285  0.2311
 2105TIP3    H127950   3.634   4.017   1.659 -2.0956 -1.2029  0.4808
 2105TIP3    H227951   3.645   3.914   1.769  0.0327  0.2115  1.6698
 2106TIP3   OH227952   0.210   3.246   0.059 -0.6515 -0.1337  0.2453
 2106TIP3    H127953   0.273   3.229  -0.012 -1.4085  0.0708 -0.4972
 2106TIP3    H227954   0.125   3.250   0.014 -1.1323  0.0741  1.1646
 2107TIP3   OH227955   1.954   5.930   0.647  0.3860 -0.0680 -0.2088
 2107TIP3    H127956   1.908   6.003   0.690  1.1107 -0.2623  0.9436
 2107TIP3    H227957   2.044   5.961   0.636  0.9437 -1.1069  1.1760
 2108TIP3   OH227958   6.186   3.583   2.941 -0.5412  0.0922  0.4098
 2108TIP3    H127959   6.104   3.539   2.964 -0.5279 -2.0899 -2.9518
 2108TIP3    H227960   6.247   3.512   2.921  0.5696  1.5925 -2.0405
 2109TIP3   OH227961   5.366   2.747   1.186 -0.1196 -0.4697  0.0632
 2109TIP3    H127962   5.442   2.802   1.205 -0.5738  0.3395 -0.3625
 2109TIP3    H227963   5.292   2.808   1.189 -0.3025 -0.2826 -3.8427
 2110TIP3   OH227964   4.223   4.319   0.017  0.1145  0.0507  0.1976
 2110TIP3    H127965   4.150   4.274   0.059 -0.7041  0.5148 -0.6958
 2110TIP3    H227966   4.192   4.340  -0.071  0.1705  2.9734  0.7506
 2111TIP3   OH227967   2.021   2.068   1.366  0.2775  0.3893  0.0112
 2111TIP3    H127968   2.002   1.997   1.305  0.5158 -0.0134  0.3968
 2111TIP3    H227969   1.936   2.088   1.406  0.6308 -1.7140  2.0587
 2112TIP3   OH227970   1.496   3.730   0.279  0.0207  0.3682 -0.4068
 2112TIP3    H127971   1.554   3.669   0.323 -0.2402 -0.0161 -0.5943
 2112TIP3    H227972   1.408   3.698   0.297 -0.1445  0.9880 -0.0624
 2113TIP3   OH227973   0.928   3.888   8.435 -0.2126  0.0664  0.1111
 2113TIP3    H127974   0.846   3.881   8.385 -0.1523 -0.5730  0.0860
 2113TIP3    H227975   0.933   3.980   8.460 -1.0450  0.0720  0.2951
 2114TIP3   OH227976   5.653   1.768   1.910 -0.4179 -0.1757 -0.6262
 2114TIP3    H127977   5.640   1.696   1.973  0.8500 -1.1838 -1.4635
 2114TIP3    H227978   5.578   1.762   1.852 -1.7155  0.8946  0.8538
 2115TIP3   OH227979   6.135   3.430   2.117 -0.2984 -0.6157 -0.1350
 2115TIP3    H127980   6.088   3.362   2.069  1.0652 -2.0562  0.5032
 2115TIP3    H227981   6.145   3.395   2.205  1.6315 -0.2052 -0.1495
 2116TIP3   OH227982   0.335   5.473   2.053 -0.2081 -0.0802 -0.8046
 2116TIP3    H127983   0.259   5.513   2.010 -0.0741 -1.1260 -2.0903
 2116TIP3    H227984   0.405   5.536   2.039 -0.7569  0.7598  0.1356
 2117TIP3   OH227985   1.351   0.420   0.583 -0.3586  0.2643  0.0722
 2117TIP3    H127986   1.272   0.387   0.541 -0.8646 -0.6332  1.6514
 2117TIP3    H227987   1.402   0.458   0.511 -0.9533 -1.6215 -1.4455
 2118TIP3   OH227988   4.441   4.268   1.130 -0.7028  0.2188 -0.3836
 2118TIP3    H127989   4.481   4.355   1.121  0.6756 -0.4169 -0.5807
 2118TIP3    H227990   4.510   4.207   1.103 -1.9367 -0.9069 -1.1031
 2119TIP3   OH227991   0.410   1.137   0.348  0.0734 -0.4401  0.3086
 2119TIP3    H127992   0.341   1.123   0.284  0.5157 -1.2441 -0.0188
 2119TIP3    H227993   0.476   1.070   0.327  0.7880  0.0795  0.8271
 2120TIP3   OH227994   0.557   6.282   2.652 -0.1917 -0.2726 -0.1442
 2120TIP3    H127995   0.536   6.223   2.725 -1.9976  1.2218  0.6381
 2120TIP3    H227996   0.482   6.342   2.648  0.6914  0.7787 -2.1251
 2121TIP3   OH227997   4.682   3.860   1.737 -0.0389 -0.1815  0.8887
 2121TIP3    H127998   4.609   3.801   1.718  0.1776 -0.8454  2.0713
 2121TIP3    H227999   4.754   3.825   1.685 -0.8685  1.3323 -1.4692
 2122TIP3   OH228000   4.549   3.712   3.138  0.2386  0.1980  0.3698
 2122TIP3    H128001   4.590   3.648   3.079  0.9486 -0.1186  1.1785
 2122TIP3    H228002   4.574   3.797   3.102  0.5940  0.0079  0.1580
 2123TIP3   OH228003   1.426   1.232   7.417 -0.2510  0.0549 -0.1767
 2123TIP3    H128004   1.366   1.298   7.451  0.4210 -0.0448  1.2617
 2123TIP3    H228005   1.432   1.251   7.323 -2.2322  0.2681 -0.2930
 2124TIP3   OH228006   2.188   4.508   7.852  1.1487  0.0575  0.4968
 2124TIP3    H128007   2.221   4.571   7.917 -0.1346  1.2632  0.0338
 2124TIP3    H228008   2.233   4.427   7.873  0.9086  0.4471  2.8004
 2125TIP3   OH228009   0.622   6.398   8.625 -0.1020 -0.2139 -0.0051
 2125TIP3    H128010   0.642   6.395   8.531 -2.2295 -0.4862 -0.5025
 2125TIP3    H228011   0.570   6.319   8.641  1.5453 -1.0131  1.7799
 2126TIP3   OH228012   6.150   6.515   1.259 -0.1925  0.0666  0.3099
 2126TIP3    H128013   6.202   6.444   1.220 -2.5392 -1.2749 -0.5783
 2126TIP3    H228014   6.203   6.546   1.333  1.8598 -1.1485 -0.5691
 2127TIP3   OH228015   3.627   6.127   3.155  0.5039 -0.4508  0.1830
 2127TIP3    H128016   3.627   6.160   3.065  0.3991  1.4619  0.8568
 2127TIP3    H228017   3.718   6.102   3.171  0.8461  0.6698  0.0494
 2128TIP3   OH228018   1.741   1.700   2.369 -0.5099  0.2709 -0.1570
 2128TIP3    H128019   1.798   1.655   2.432 -0.2950 -1.5712 -1.5772
 2128TIP3    H228020   1.676   1.634   2.345 -0.2166  0.6925 -2.3043
 2129TIP3   OH228021   0.561   0.207   8.642 -0.2748  0.4280  0.5227
 2129TIP3    H128022   0.542   0.148   8.715 -0.9139  1.9023  1.5924
 2129TIP3    H228023   0.513   0.169   8.568 -0.2752 -0.6549  1.0613
 2130TIP3   OH228024   2.817   5.569   8.043  0.1052  0.3377 -0.1356
 2130TIP3    H128025   2.739   5.516   8.058  0.2443 -0.0290 -0.6647
 2130TIP3    H228026   2.844   5.547   7.953  3.3788 -2.9577  1.3800
 2131TIP3   OH228027   5.939   4.193   3.816 -0.2688 -0.1895  0.0572
 2131TIP3    H128028   5.853   4.214   3.855  0.7235 -0.7841  2.8041
 2131TIP3    H228029   5.927   4.208   3.722 -3.6040 -1.0175  0.2173
 2132TIP3   OH228030   2.843   1.866   8.449  0.5057 -0.0530 -0.2521
 2132TIP3    H128031   2.796   1.918   8.513  0.1816  0.3225 -0.7848
 2132TIP3    H228032   2.916   1.921   8.421  1.6192 -0.8391  0.9701
 2133TIP3   OH228033   4.073   2.648   0.146 -0.0544  0.0405 -0.1899
 2133TIP3    H128034   4.106   2.719   0.090  2.0033 -0.8483 -0.2162
 2133TIP3    H228035   3.982   2.670   0.161 -0.0519  1.5735 -1.9465
 2134TIP3   OH228036   4.022   4.956   0.879  0.1971 -0.3334 -0.1685
 2134TIP3    H128037   4.011   4.933   0.971 -2.9500  2.3389  0.2911
 2134TIP3    H228038   3.941   4.929   0.837 -0.0056  1.8252 -1.3102
 2135TIP3   OH228039   0.877   5.975   0.352 -0.3647 -0.8772 -0.4395
 2135TIP3    H128040   0.927   5.936   0.281 -0.2183 -0.6259 -0.4752
 2135TIP3    H228041   0.907   6.066   0.356  1.0964 -1.3578  1.2096
 2136TIP3   OH228042   5.350   3.037   1.127  0.6377  0.5568 -0.8528
 2136TIP3    H128043   5.377   3.007   1.040 -1.3450 -0.2434 -1.2504
 2136TIP3    H228044   5.299   3.116   1.110 -0.6523 -0.1729 -0.5809
 2137TIP3   OH228045   6.331   1.125   7.979  0.2654 -0.3822 -0.1744
 2137TIP3    H128046   6.326   1.221   7.974 -0.5015 -0.3672  0.5583
 2137TIP3    H228047   6.355   1.097   7.891  2.1883  0.5692 -0.0214
 2138TIP3   OH228048   3.767   6.492   2.191  0.0941 -0.0698  0.4382
 2138TIP3    H128049   3.716   6.457   2.118  1.1703 -1.2092  0.1989
 2138TIP3    H228050   3.845   6.437   2.194 -0.2255 -0.5044  2.9049
 2139TIP3   OH228051   0.811   1.066   0.255 -0.4590  0.2688 -0.5599
 2139TIP3    H128052   0.812   1.061   0.350  2.2188  0.4537 -0.5076
 2139TIP3    H228053   0.816   1.160   0.235  2.5393  0.1643 -0.7458
 2140TIP3   OH228054   5.133   5.941   1.834  0.3732 -0.3254 -0.2136
 2140TIP3    H128055   5.226   5.952   1.817  0.2878  0.3235 -0.2553
 2140TIP3    H228056   5.103   5.886   1.762  0.6224 -0.1116 -0.4838
 2141TIP3   OH228057   4.013   4.155   1.232 -0.1327 -0.4747  0.5518
 2141TIP3    H128058   3.955   4.131   1.159 -0.0313 -1.0870  0.6685
 2141TIP3    H228059   4.053   4.237   1.204 -1.4894  0.2773  0.7121
 2142TIP3   OH228060   1.362   6.206   8.082 -0.1099  0.1145  0.3118
 2142TIP3    H128061   1.380   6.156   8.162  0.3798  0.0830  0.1843
 2142TIP3    H228062   1.440   6.260   8.069  0.6004 -1.1439 -1.0939
 2143TIP3   OH228063   5.297   5.597   7.468  0.2194  0.1080 -0.4625
 2143TIP3    H128064   5.221   5.594   7.410 -0.9218 -0.2286  0.9653
 2143TIP3    H228065   5.359   5.655   7.424 -0.5734 -0.1816 -2.0123
 2144TIP3   OH228066   1.109   6.619   0.174  0.1878 -0.3629 -0.1608
 2144TIP3    H128067   1.120   6.592   0.083 -0.6692 -1.8802  0.1459
 2144TIP3    H228068   1.175   6.568   0.222 -0.4435 -0.7978  0.2570
 2145TIP3   OH228069   1.929   2.594   1.053 -0.0467 -0.3168  0.1760
 2145TIP3    H128070   1.864   2.525   1.038 -2.0436  1.5175 -0.1489
 2145TIP3    H228071   1.907   2.627   1.140  0.0519  0.7063 -0.1781
 2146TIP3   OH228072   2.766   5.533   2.520 -0.4768 -0.4917  0.1539
 2146TIP3    H128073   2.775   5.493   2.606  0.3786  2.2509  1.4236
 2146TIP3    H228074   2.769   5.627   2.536 -3.3880  0.2519 -2.5491
 2147TIP3   OH228075   1.776   2.662   2.305  0.6482 -0.3669 -0.0370
 2147TIP3    H128076   1.832   2.727   2.261  1.5949 -0.5990  0.7994
 2147TIP3    H228077   1.749   2.705   2.386  1.9384 -1.2792  0.9178
 2148TIP3   OH228078   4.503   6.395   1.500 -0.3644  0.0827  0.1981
 2148TIP3    H128079   4.437   6.460   1.476 -0.0372  0.4186  0.2129
 2148TIP3    H228080   4.581   6.419   1.450 -0.1836 -0.1798  0.3506
 2149TIP3   OH228081   1.193   4.030   3.368  0.3036  0.5267  1.0817
 2149TIP3    H128082   1.187   4.079   3.450 -0.1891 -1.3393  2.2150
 2149TIP3    H228083   1.131   3.958   3.378  1.9467 -1.1330  0.1004
 2150TIP3   OH228084   4.073   4.346   1.469 -0.1967 -0.3148 -0.1685
 2150TIP3    H128085   4.055   4.282   1.400 -0.3414 -2.4464  1.7002
 2150TIP3    H228086   3.987   4.374   1.499 -0.1335  1.3884 -1.4556
 2151TIP3   OH228087   4.817   5.285   7.012 -0.2339 -0.3031 -0.1489
 2151TIP3    H128088   4.766   5.284   6.931 -0.2368 -0.6018 -0.1434
 2151TIP3    H228089   4.812   5.376   7.043  0.6489  0.0629 -1.0361
 2152TIP3   OH228090   3.615   4.146   0.743 -0.5514  0.3326 -0.4145
 2152TIP3    H128091   3.536   4.134   0.796 -1.0894  0.6410 -1.1412
 2152TIP3    H228092   3.642   4.236   0.760  0.1850 -0.0447  0.5430
 2153TIP3   OH228093   0.435   1.640   1.580 -0.3474 -0.0502  0.0339
 2153TIP3    H128094   0.435   1.692   1.500 -0.3950 -1.0671 -0.6307
 2153TIP3    H228095   0.526   1.611   1.589 -0.3732 -0.0606  0.2800
 2154TIP3   OH228096   5.204   1.846   8.569  0.1006 -0.3179  0.3477
 2154TIP3    H128097   5.232   1.929   8.530 -0.8858 -0.0981  0.0590
 2154TIP3    H228098   5.150   1.805   8.501 -5.5983  2.1192  2.6999
 2155TIP3   OH228099   3.511   2.805   7.966  0.3064 -0.3958  0.0638
 2155TIP3    H128100   3.489   2.783   8.056 -2.2500  0.0893 -0.3546
 2155TIP3    H228101   3.468   2.738   7.914  0.3395  0.2715 -0.8516
 2156TIP3   OH228102   6.666   0.837   3.742 -0.0480 -0.0163  0.0557
 2156TIP3    H128103   6.579   0.878   3.739 -0.1329 -0.1858  0.1331
 2156TIP3    H228104   6.715   0.878   3.672  0.4743  1.5829  1.3046
 2157TIP3   OH228105   6.334   4.601   1.600  0.0092  0.1356  0.5132
 2157TIP3    H128106   6.413   4.585   1.652 -1.5073 -1.4208  2.5286
 2157TIP3    H228107   6.301   4.513   1.579 -1.8647  0.7126  0.8858
 2158TIP3   OH228108   3.740   5.872   8.241 -0.5429  0.0779  0.3643
 2158TIP3    H128109   3.717   5.862   8.333 -1.5455  2.8042  0.4990
 2158TIP3    H228110   3.796   5.950   8.238 -0.4212 -0.0219 -1.3241
 2159TIP3   OH228111   4.269   3.636   8.448 -0.4654  0.2519 -0.9684
 2159TIP3    H128112   4.363   3.619   8.444 -0.8069 -2.0371 -0.5379
 2159TIP3    H228113   4.263   3.730   8.465  1.7443  0.3125 -0.0934
 2160TIP3   OH228114   6.790   0.694   1.501 -0.0185 -0.3793 -0.2410
 2160TIP3    H128115   6.838   0.628   1.550 -1.0993  0.4849  2.1479
 2160TIP3    H228116   6.714   0.647   1.465  0.2103 -0.8209 -0.1460
 2161TIP3   OH228117   1.716   2.882   2.483 -0.0070 -0.4358 -0.0281
 2161TIP3    H128118   1.749   2.972   2.489 -0.2053 -0.3964  0.5256
 2161TIP3    H228119   1.761   2.836   2.554  2.4485 -1.5489 -2.1569
 2162TIP3   OH228120   0.110   0.466   8.135 -0.4922  0.0332  0.4699
 2162TIP3    H128121   0.101   0.558   8.160  0.7162  0.3375 -0.1474
 2162TIP3    H228122   0.175   0.466   8.065 -3.0828 -0.8789 -2.1447
 2163TIP3   OH228123   1.876   0.430   1.586 -0.3146 -0.0986  0.1531
 2163TIP3    H128124   1.929   0.502   1.618  1.2314 -0.7803 -0.7691
 2163TIP3    H228125   1.787   0.449   1.618  0.1254  1.9574  0.2755
 2164TIP3   OH228126   4.538   6.180   0.011  0.0263 -0.3603  0.0207
 2164TIP3    H128127   4.459   6.214   0.053 -0.0578 -1.3713  0.7083
 2164TIP3    H228128   4.609   6.201   0.072  0.0615 -0.8704  0.1550
 2165TIP3   OH228129   3.158   1.719   0.174 -0.7727 -0.7632 -0.6753
 2165TIP3    H128130   3.179   1.731   0.081 -0.6566 -0.3771 -0.6027
 2165TIP3    H228131   3.090   1.784   0.192  0.2875  0.2343 -0.1267
 2166TIP3   OH228132   0.669   3.593   0.612 -0.6341 -0.3149 -0.1376
 2166TIP3    H128133   0.583   3.566   0.579 -1.1379 -0.0905  0.9576
 2166TIP3    H228134   0.722   3.513   0.609 -0.7237 -0.3472 -1.2703
 2167TIP3   OH228135   3.889   2.084   0.146  0.6448 -0.1461  0.3866
 2167TIP3    H128136   3.802   2.121   0.130  1.5212  2.4499  1.0397
 2167TIP3    H228137   3.883   2.044   0.233 -0.1270 -0.8061  0.0346
 2168TIP3   OH228138   5.512   3.463   2.574  0.3393  0.3627  0.1768
 2168TIP3    H128139   5.492   3.389   2.516  0.7161  0.0763  0.4001
 2168TIP3    H228140   5.428   3.506   2.588 -0.2315 -1.0896  1.4819
 2169TIP3   OH228141   4.937   0.827   8.153 -0.4310 -0.4354 -0.9138
 2169TIP3    H128142   4.902   0.804   8.067  0.5238 -1.0955 -1.1485
 2169TIP3    H228143   4.923   0.921   8.161 -0.2739 -0.3115 -1.9270
 2170TIP3   OH228144   0.551   5.850   2.340  0.2762  0.0470  0.0926
 2170TIP3    H128145   0.475   5.792   2.346 -0.0239  0.5158  1.1529
 2170TIP3    H228146   0.514   5.937   2.332  0.7066  0.2651  0.4461
 2171TIP3   OH228147   4.186   5.171   1.783 -0.4702 -0.0394 -0.0067
 2171TIP3    H128148   4.131   5.163   1.860 -0.0395  1.5319  0.5018
 2171TIP3    H228149   4.162   5.256   1.745  2.1540  1.1384  0.7411
 2172TIP3   OH228150   4.395   3.961   2.621  0.8683  0.3421 -0.1511
 2172TIP3    H128151   4.331   3.896   2.592 -0.5590  0.7228  1.9045
 2172TIP3    H228152   4.471   3.910   2.648  0.7610 -0.2712 -0.9831
 2173TIP3   OH228153   2.539   1.476   0.752 -0.0281  0.3844 -0.5920
 2173TIP3    H128154   2.446   1.473   0.730  0.1374 -0.0521 -1.2616
 2173TIP3    H228155   2.541   1.475   0.848 -0.6640 -2.9563 -0.4824
 2174TIP3   OH228156   0.890   3.216   0.568 -0.1170  0.1427  0.1678
 2174TIP3    H128157   0.820   3.157   0.541  0.6078 -0.7321  0.1803
 2174TIP3    H228158   0.886   3.216   0.664  0.7133 -0.9256  0.2178
 2175TIP3   OH228159   5.464   5.303   2.539  0.5233  0.0191 -0.0590
 2175TIP3    H128160   5.495   5.317   2.449  1.7901 -2.1872 -0.0560
 2175TIP3    H228161   5.375   5.337   2.540  0.5441  0.2461 -2.1149
 2176TIP3   OH228162   4.606   5.103   1.492  0.1717 -0.0052  0.5672
 2176TIP3    H128163   4.514   5.106   1.518  0.3955  0.9685  1.3073
 2176TIP3    H228164   4.638   5.191   1.510  1.4818 -0.5925  1.2014
 2177TIP3   OH228165   2.147   3.335   2.068  0.3919 -0.2125  0.1692
 2177TIP3    H128166   2.165   3.312   1.977  1.8642  0.4119  0.2713
 2177TIP3    H228167   2.125   3.428   2.066  2.6813  0.4049  0.6552
 2178TIP3   OH228168   3.453   0.278   8.468  0.2403  0.1737 -0.2888
 2178TIP3    H128169   3.376   0.301   8.417  0.2070  1.2379  0.2120
 2178TIP3    H228170   3.526   0.286   8.407 -0.0855 -1.4712 -0.9372
 2179TIP3   OH228171   6.590   0.473   0.590  0.2375  0.1787 -0.4192
 2179TIP3    H128172   6.624   0.474   0.501  0.6159 -0.1378 -0.2867
 2179TIP3    H228173   6.514   0.415   0.587  0.5874 -0.2839 -0.4235
 2180TIP3   OH228174   6.486   6.253   1.879 -0.4846  0.3137 -0.1970
 2180TIP3    H128175   6.478   6.333   1.828 -1.2584 -1.4719 -3.1363
 2180TIP3    H228176   6.397   6.221   1.889 -0.2379  0.0403  1.3760
 2181TIP3   OH228177   3.979   5.703   3.699 -0.5422  0.1447 -0.5164
 2181TIP3    H128178   3.999   5.674   3.610  1.7716  0.0787 -0.0550
 2181TIP3    H228179   3.890   5.672   3.716 -0.4227 -1.2742 -2.2255
 2182TIP3   OH228180   5.815   2.836   2.108 -0.4343  0.1562  0.1661
 2182TIP3    H128181   5.906   2.832   2.137 -0.2250  2.5037 -0.0193
 2182TIP3    H228182   5.819   2.881   2.024 -1.7201 -0.3558 -0.1926
 2183TIP3   OH228183   3.097   2.699   1.278 -0.1417 -0.4332  0.5804
 2183TIP3    H128184   3.076   2.791   1.292  1.3478  0.3621 -1.7135
 2183TIP3    H228185   3.177   2.684   1.329  0.9763  0.3000 -0.8582
 2184TIP3   OH228186   6.682   6.080   1.998  0.1316  0.0686  0.1874
 2184TIP3    H128187   6.632   6.134   1.936  0.3116  0.4505  0.3748
 2184TIP3    H228188   6.656   5.990   1.977 -0.1295  0.2224 -0.1619
 2185TIP3   OH228189   5.497   4.424   1.064  0.2938 -0.5781 -0.0967
 2185TIP3    H128190   5.406   4.439   1.089 -0.8047  1.3338 -4.3617
 2185TIP3    H228191   5.543   4.502   1.096 -0.0466 -0.4546  0.1052
 2186TIP3   OH228192   4.249   3.006   1.423 -0.0743 -0.5882  0.0840
 2186TIP3    H128193   4.305   3.000   1.346  3.0691  0.4831  2.0812
 2186TIP3    H228194   4.186   3.075   1.402 -1.6686 -2.6706 -2.7131
 2187TIP3   OH228195   2.408   2.654   1.669  0.1396  0.2279  0.3564
 2187TIP3    H128196   2.396   2.601   1.747  0.6911 -0.9544 -0.3218
 2187TIP3    H228197   2.457   2.730   1.698  2.4780 -1.3408  0.8051
 2188TIP3   OH228198   5.589   2.124   2.930  0.4264 -0.3190 -0.2257
 2188TIP3    H128199   5.543   2.047   2.963  0.2207  0.5014  1.5444
 2188TIP3    H228200   5.680   2.095   2.920  0.0144 -1.2726 -1.3617
 2189TIP3   OH228201   5.458   3.453   7.981 -0.8354  0.1506  0.4356
 2189TIP3    H128202   5.517   3.446   8.056 -3.1065  0.2304  2.3649
 2189TIP3    H228203   5.380   3.405   8.008 -1.3060 -0.8639 -2.4252
 2190TIP3   OH228204   3.048   1.388   8.211 -0.7347 -0.2615  0.6938
 2190TIP3    H128205   3.101   1.308   8.211 -0.3471 -0.0309 -0.6361
 2190TIP3    H228206   3.061   1.425   8.299  2.8952  0.7611 -0.0837
 2191TIP3   OH228207   3.647   0.340   8.283  0.6858  0.6979  0.5515
 2191TIP3    H128208   3.702   0.330   8.205 -1.1806 -0.6026 -0.6682
 2191TIP3    H228209   3.644   0.434   8.299  2.4108  0.8668  0.0691
 2192TIP3   OH228210   5.956   2.296   2.519  0.2416 -0.0364  0.0154
 2192TIP3    H128211   6.008   2.258   2.590  2.3745 -1.9185 -2.3378
 2192TIP3    H228212   6.013   2.364   2.483 -1.4772  2.0313  0.9778
 2193TIP3   OH228213   0.464   3.671   7.927 -0.0738  0.4832  0.0489
 2193TIP3    H128214   0.469   3.766   7.913 -0.0043  0.4292 -0.2973
 2193TIP3    H228215   0.538   3.636   7.879  0.0842  0.2786  0.4379
 2194TIP3   OH228216   1.199   3.887   0.597 -0.1086 -0.3552  0.3768
 2194TIP3    H128217   1.121   3.838   0.571 -0.2891 -0.9747  1.9621
 2194TIP3    H228218   1.271   3.826   0.582 -0.0202 -0.1187 -0.1938
 2195TIP3   OH228219   0.203   4.256   2.764  0.3037  0.2272 -0.5529
 2195TIP3    H128220   0.201   4.243   2.859  0.4174  2.0873 -0.2697
 2195TIP3    H228221   0.118   4.297   2.744  0.4121  0.1321 -1.2145
 2196TIP3   OH228222   6.655   0.396   2.562  0.4372 -0.4088  0.2132
 2196TIP3    H128223   6.692   0.481   2.539 -1.2497  0.1187 -0.7425
 2196TIP3    H228224   6.640   0.401   2.656 -0.9040  0.9343 -0.0240
 2197TIP3   OH228225   1.351   2.123   3.010  0.0903  0.1702  0.3182
 2197TIP3    H128226   1.390   2.142   2.925 -1.7598  0.1914 -0.5746
 2197TIP3    H228227   1.385   2.037   3.034  0.5013  0.0950 -0.5287
 2198TIP3   OH228228   6.478   0.618   2.759  0.0449  0.3427  0.2654
 2198TIP3    H128229   6.455   0.526   2.774  0.7929  0.0201 -0.5221
 2198TIP3    H228230   6.570   0.624   2.782  0.5836  0.3808 -1.7635
 2199TIP3   OH228231   3.884   5.069   8.641  0.4369 -0.5578 -0.2343
 2199TIP3    H128232   3.954   5.021   8.685  0.0164  0.5247  1.7311
 2199TIP3    H228233   3.892   5.159   8.672 -1.4405 -0.2754 -0.4368
 2200TIP3   OH228234   4.887   4.227   2.140  0.4840 -1.0917 -0.8075
 2200TIP3    H128235   4.890   4.145   2.190  0.4848  0.0497  1.1863
 2200TIP3    H228236   4.798   4.231   2.105  0.0554 -1.3231  0.2184
 2201TIP3   OH228237   2.687   1.762   7.140 -0.0602 -0.0391  0.5291
 2201TIP3    H128238   2.756   1.698   7.157  0.0230  0.3994  1.9024
 2201TIP3    H228239   2.734   1.838   7.106  0.0792  0.0658  0.9521
 2202TIP3   OH228240   6.178   4.685   2.509  0.1881  0.0970  0.2696
 2202TIP3    H128241   6.215   4.603   2.475 -0.9353  0.0012 -0.8037
 2202TIP3    H228242   6.163   4.667   2.602  1.4355 -0.3492  0.4054
 2203TIP3   OH228243   6.672   6.522   2.689 -0.3098  0.0806 -0.0919
 2203TIP3    H128244   6.715   6.538   2.773  1.8882  2.9544 -1.5626
 2203TIP3    H228245   6.742   6.489   2.632 -1.0412  0.8148 -1.4713
 2204TIP3   OH228246   5.862   2.846   1.624 -0.5565 -0.3739  0.1622
 2204TIP3    H128247   5.948   2.813   1.599  0.0536  0.0637  1.5540
 2204TIP3    H228248   5.872   2.941   1.624 -1.2309 -0.2961 -0.2620
 2205TIP3   OH228249   0.092   4.598   7.429  0.0991  0.0093 -0.6361
 2205TIP3    H128250   0.126   4.558   7.349  0.9645  0.0061 -0.2789
 2205TIP3    H228251   0.114   4.691   7.421  0.3640 -0.0255 -0.3123
 2206TIP3   OH228252   6.026   4.025   3.346  0.0611  0.0293  0.0641
 2206TIP3    H128253   5.974   3.971   3.287  1.4905 -1.8381  0.3997
 2206TIP3    H228254   6.084   3.963   3.390  0.6361  1.6612  1.7343
 2207TIP3   OH228255   1.788   6.200   0.741  0.7193 -0.0878 -0.2774
 2207TIP3    H128256   1.746   6.139   0.801  1.6744 -1.7817 -1.2751
 2207TIP3    H228257   1.849   6.250   0.795  0.8754 -0.9307  0.3333
 2208TIP3   OH228258   0.913   0.963   2.440  0.4619 -0.1264  0.1783
 2208TIP3    H128259   0.863   0.996   2.366  1.0721  0.0977 -0.1414
 2208TIP3    H228260   0.850   0.914   2.492 -0.2342  0.7037  0.1296
 2209TIP3   OH228261   4.186   4.983   1.355  0.4426  0.0477 -0.1007
 2209TIP3    H128262   4.173   4.946   1.267 -0.0885  1.6194 -0.7294
 2209TIP3    H228263   4.219   5.072   1.338 -0.9254  0.8576  1.2565
 2210TIP3   OH228264   2.583   2.158   7.593 -0.3123 -0.6790 -0.0480
 2210TIP3    H128265   2.539   2.177   7.511 -0.1391 -0.8227 -0.1734
 2210TIP3    H228266   2.513   2.133   7.653 -0.6686  1.1786  0.3789
 2211TIP3   OH228267   6.401   5.815   2.372 -0.0080 -0.2962 -0.7567
 2211TIP3    H128268   6.365   5.800   2.460  0.4220 -1.0547 -0.6944
 2211TIP3    H228269   6.325   5.836   2.318 -0.4755 -1.2419 -0.4946
 2212TIP3   OH228270   3.835   2.693   0.267 -0.2622  0.2264  0.5647
 2212TIP3    H128271   3.777   2.621   0.292 -0.8216  0.6073  0.3740
 2212TIP3    H228272   3.780   2.771   0.272  0.8071  0.9368  2.6632
 2213TIP3   OH228273   6.781   1.609   1.566  0.0009 -0.0634  0.0643
 2213TIP3    H128274   6.706   1.556   1.539  0.8181 -0.5393 -1.3666
 2213TIP3    H228275   6.836   1.549   1.617  0.4458 -0.3488 -0.7271
 2214TIP3   OH228276   4.107   5.333   0.465  0.2671  0.2191  0.1885
 2214TIP3    H128277   4.084   5.416   0.424 -1.6143 -0.9519 -1.2773
 2214TIP3    H228278   4.192   5.311   0.428 -0.7516 -0.1198 -2.1135
 2215TIP3   OH228279   1.027   4.999   0.735 -0.0048 -0.1876 -0.3492
 2215TIP3    H128280   1.088   5.073   0.734  0.5063 -0.4851  2.2744
 2215TIP3    H228281   1.082   4.922   0.718 -0.0837 -0.2305 -0.4107
 2216TIP3   OH228282   5.321   3.070   8.523 -0.2234  0.3121  0.3778
 2216TIP3    H128283   5.326   3.053   8.429 -1.4863 -0.9049  0.4848
 2216TIP3    H228284   5.272   3.152   8.531  2.8002  2.3020 -0.0643
 2217TIP3   OH228285   2.246   6.439   2.739  0.3250 -0.0007  0.5493
 2217TIP3    H128286   2.211   6.402   2.820 -0.9249 -1.7467 -0.7009
 2217TIP3    H228287   2.169   6.452   2.683  1.1918  0.7312 -0.5227
 2218TIP3   OH228288   1.896   5.505   3.141 -0.0349  0.5679  0.2928
 2218TIP3    H128289   1.825   5.444   3.164  0.1972  0.5525  0.9862
 2218TIP3    H228290   1.973   5.450   3.129 -0.0167  0.6406  0.0582
 2219TIP3   OH228291   2.607   4.872   3.942  0.3030  0.1173  0.0806
 2219TIP3    H128292   2.560   4.950   3.914  0.3606 -0.5877 -2.1402
 2219TIP3    H228293   2.698   4.887   3.914 -0.0039 -1.3973 -1.9229
 2220TIP3   OH228294   3.898   0.904   7.640 -0.1156 -0.4377  0.4772
 2220TIP3    H128295   3.875   0.973   7.702 -2.4077 -1.6306  1.0819
 2220TIP3    H228296   3.865   0.934   7.556  1.9946  0.6771 -0.0228
 2221TIP3   OH228297   0.921   3.473   0.466  0.1710  0.0530  0.2266
 2221TIP3    H128298   0.867   3.493   0.389  1.6367 -0.2832 -0.9453
 2221TIP3    H228299   0.909   3.379   0.480 -0.9733  0.3131  1.1455
 2222TIP3   OH228300   4.999   3.177   8.087 -0.4686 -0.0399 -0.2103
 2222TIP3    H128301   4.960   3.112   8.145  0.6024 -0.5233  0.0017
 2222TIP3    H228302   4.941   3.179   8.010 -1.3060 -0.1694  0.4095
 2223TIP3   OH228303   6.296   4.060   7.922 -0.2807  0.3740  0.1040
 2223TIP3    H128304   6.254   4.006   7.855 -0.4389  0.7626 -0.1116
 2223TIP3    H228305   6.302   4.003   7.998  0.0005 -0.1118 -0.2713
 2224TIP3   OH228306   6.262   0.787   1.701 -0.7910 -0.3702 -0.0750
 2224TIP3    H128307   6.232   0.748   1.619 -0.2221 -0.9379 -0.0196
 2224TIP3    H228308   6.347   0.826   1.680 -1.0111  0.1922  0.0534
 2225TIP3   OH228309   2.555   3.246   8.216 -0.2970 -0.0314 -0.1936
 2225TIP3    H128310   2.581   3.334   8.190 -1.5969  0.9681  1.7212
 2225TIP3    H228311   2.607   3.226   8.293  0.0895 -1.0364 -0.6856
 2226TIP3   OH228312   1.267   4.178   0.522 -0.1796 -0.1987  0.1806
 2226TIP3    H128313   1.329   4.186   0.449 -1.1535  0.7714 -0.5805
 2226TIP3    H228314   1.249   4.085   0.529 -1.2399 -0.1817 -1.8517
 2227TIP3   OH228315   6.605   4.725   2.532 -0.0015 -0.2742 -0.1451
 2227TIP3    H128316   6.634   4.754   2.446  1.7842  0.3690  0.6341
 2227TIP3    H228317   6.624   4.631   2.534  1.3422 -0.0128  0.0610
 2228TIP3   OH228318   6.477   0.101   0.058  0.6584 -0.2452 -0.1474
 2228TIP3    H128319   6.549   0.049   0.094  1.9404  1.3399 -0.3270
 2228TIP3    H228320   6.520   0.170   0.007 -0.9431  1.3927  0.6162
 2229TIP3   OH228321   6.268   2.447   1.017  0.3079 -0.3531  0.1992
 2229TIP3    H128322   6.236   2.458   0.928 -1.1936  0.8186  0.8345
 2229TIP3    H228323   6.249   2.356   1.038 -0.7429 -0.2410 -0.1824
 2230TIP3   OH228324   0.387   2.242   2.520  0.2529 -0.1024 -0.2226
 2230TIP3    H128325   0.452   2.205   2.581 -0.0634 -0.7570 -0.2693
 2230TIP3    H228326   0.424   2.227   2.433  1.1875  1.7531 -0.1887
 2231TIP3   OH228327   4.750   6.686   1.652  0.3632 -0.1674 -0.0150
 2231TIP3    H128328   4.767   6.776   1.680 -1.8999  0.9954 -1.9999
 2231TIP3    H228329   4.825   6.664   1.597  1.2616  0.2325  1.0088
 2232TIP3   OH228330   1.739   4.158   2.562 -0.1537 -0.7073  0.1325
 2232TIP3    H128331   1.709   4.079   2.608  2.0820 -1.8622 -0.2341
 2232TIP3    H228332   1.779   4.125   2.481  0.3220  0.8655 -0.3122
 2233TIP3   OH228333   1.379   2.263   2.225 -0.2509 -0.1606  0.4980
 2233TIP3    H128334   1.328   2.285   2.302  0.0198  3.0463 -0.1101
 2233TIP3    H228335   1.468   2.250   2.257 -0.5599 -1.2269  0.9711
 2234TIP3   OH228336   5.173   4.469   1.857  0.5625  0.1323 -0.2129
 2234TIP3    H128337   5.167   4.383   1.899  0.0382  0.3610  0.1866
 2234TIP3    H228338   5.082   4.498   1.848  0.6619  0.1407 -1.4102
 2235TIP3   OH228339   4.291   5.938   8.418 -0.0638  0.0701  0.0231
 2235TIP3    H128340   4.248   5.883   8.352 -1.5641 -0.9679  1.7989
 2235TIP3    H228341   4.228   6.006   8.437  0.0654 -0.0528  0.9061
 2236TIP3   OH228342   4.958   3.693   0.996  0.1224  0.1554 -0.0857
 2236TIP3    H128343   5.048   3.714   1.022 -0.6957  1.0388  2.2076
 2236TIP3    H228344   4.905   3.761   1.036 -1.5617  0.0491 -1.9659
 2237TIP3   OH228345   0.472   0.987   0.788  0.7985 -0.0260 -0.0608
 2237TIP3    H128346   0.412   0.960   0.718 -1.6166  0.3133  1.7352
 2237TIP3    H228347   0.437   1.070   0.819  0.5748 -1.0609  2.7857
 2238TIP3   OH228348   3.198   6.891   0.112 -0.1081 -0.0176 -0.2523
 2238TIP3    H128349   3.269   6.852   0.061  0.3350 -0.0779  0.4012
 2238TIP3    H228350   3.243   6.939   0.183 -0.7050  0.2543 -0.0534
 2239TIP3   OH228351   6.596   4.399   3.868  0.3141 -0.0263 -0.5896
 2239TIP3    H128352   6.509   4.421   3.835 -0.4400  0.5738  1.6127
 2239TIP3    H228353   6.635   4.483   3.891  0.4278 -0.4328  0.8008
 2240TIP3   OH228354   1.214   2.002   2.157 -0.1057  0.0462 -0.0701
 2240TIP3    H128355   1.145   2.034   2.099 -1.2914 -1.5558  0.4070
 2240TIP3    H228356   1.244   2.080   2.204 -0.4120  1.0461 -1.4771
 2241TIP3   OH228357   0.613   0.675   3.037 -0.4164 -0.8723  0.1105
 2241TIP3    H128358   0.558   0.682   3.115  0.4460  0.5281  0.6242
 2241TIP3    H228359   0.659   0.592   3.048 -1.6650 -1.5881  0.1444
 2242TIP3   OH228360   2.661   2.263   7.106 -0.0458 -0.5828  0.3585
 2242TIP3    H128361   2.753   2.287   7.121 -0.0707 -0.6536  0.6484
 2242TIP3    H228362   2.615   2.346   7.100 -0.0461 -0.5472  0.7868
 2243TIP3   OH228363   3.576   4.552   0.460 -0.1085  0.6105  0.2377
 2243TIP3    H128364   3.494   4.508   0.484  0.7181 -0.6164  0.8662
 2243TIP3    H228365   3.597   4.518   0.374 -0.9244  1.9463 -0.5399
 2244TIP3   OH228366   3.526   0.016   2.440  0.2550  0.5745  0.5630
 2244TIP3    H128367   3.604   0.025   2.494  0.3328 -0.8450  0.7351
 2244TIP3    H228368   3.453   0.012   2.502  0.5337 -3.5740  0.9091
 2245TIP3   OH228369   2.875   4.638   0.029 -0.1379 -0.0427 -0.3152
 2245TIP3    H128370   2.796   4.640  -0.026  0.5604  0.8152 -1.3031
 2245TIP3    H228371   2.841   4.644   0.118 -1.3057 -1.6791 -0.5957
 2246TIP3   OH228372   5.869   3.579   8.035  0.1716  0.1241 -0.2558
 2246TIP3    H128373   5.936   3.587   8.103  2.6699 -2.3854 -2.1805
 2246TIP3    H228374   5.891   3.647   7.971 -0.4280  0.6243  0.0559
 2247TIP3   OH228375   6.840   4.220   7.407 -0.5593 -0.0470 -0.1088
 2247TIP3    H128376   6.889   4.273   7.470  0.9722  0.8978 -1.9627
 2247TIP3    H228377   6.749   4.249   7.416 -0.4273 -0.1630  1.8371
 2248TIP3   OH228378   5.662   2.994   0.664 -0.8589 -0.0344 -0.4344
 2248TIP3    H128379   5.727   2.925   0.672  0.3554  1.0863 -0.1873
 2248TIP3    H228380   5.578   2.950   0.677 -0.0582 -1.2465  0.9641
 2249TIP3   OH228381   0.686   0.765   2.267 -0.8614  0.3297  0.4568
 2249TIP3    H128382   0.643   0.744   2.351 -1.8785  0.0559 -0.1155
 2249TIP3    H228383   0.628   0.829   2.226 -0.6417  0.0674 -0.2727
 2250TIP3   OH228384   0.657   5.981   8.467 -0.0686 -0.0307  0.2531
 2250TIP3    H128385   0.703   5.949   8.545 -0.8045 -1.2406  0.2260
 2250TIP3    H228386   0.725   6.022   8.414  0.7093 -0.4584  0.8928
 2251TIP3   OH228387   6.184   5.907   1.999  0.0101  0.6389  0.0492
 2251TIP3    H128388   6.090   5.922   1.992 -0.0495  0.1700 -0.2145
 2251TIP3    H228389   6.195   5.814   1.979  0.4501  0.5073  0.8525
 2252TIP3   OH228390   0.652   4.260   1.994  0.3001 -0.6220 -0.1645
 2252TIP3    H128391   0.659   4.297   2.081  1.4487 -3.4711  1.0967
 2252TIP3    H228392   0.585   4.313   1.950 -0.9833  0.3566  2.7139
 2253TIP3   OH228393   1.606   3.464   2.946 -0.0470  0.1042 -0.1069
 2253TIP3    H128394   1.669   3.534   2.967  0.4503 -0.5222  0.5646
 2253TIP3    H228395   1.644   3.385   2.986 -1.4530 -0.2248  0.6527
 2254TIP3   OH228396   5.139   5.502   0.724 -0.5323  0.1102 -0.0890
 2254TIP3    H128397   5.136   5.452   0.642 -0.3634 -1.8854  1.0367
 2254TIP3    H228398   5.087   5.449   0.785 -2.5836  2.6820  0.5428
 2255TIP3   OH228399   3.655   4.155   7.672  0.6309  0.2241 -0.2424
 2255TIP3    H128400   3.610   4.239   7.669  1.8528  1.2094  3.7549
 2255TIP3    H228401   3.587   4.091   7.653 -1.4399  1.9001  1.0570
 2256TIP3   OH228402   6.407   5.939   1.028 -0.0880  0.0338 -0.5520
 2256TIP3    H128403   6.387   5.986   1.109 -1.1391 -1.2285 -0.0530
 2256TIP3    H228404   6.498   5.963   1.008  0.2855  0.1462  1.1496
 2257TIP3   OH228405   3.069   0.181   8.639  0.2135  0.2395  0.8697
 2257TIP3    H128406   3.099   0.160   8.551 -0.4175  0.7090  0.5356
 2257TIP3    H228407   3.107   0.113   8.695 -0.6528 -0.9711  0.0165
 2258TIP3   OH228408   4.897   4.556   0.807  0.4695  0.0602  0.5379
 2258TIP3    H128409   4.940   4.597   0.882  1.5502  0.3427 -0.2186
 2258TIP3    H228410   4.921   4.612   0.733 -0.2116 -0.4718 -0.0889
 2259TIP3   OH228411   2.506   6.751   1.043 -0.1735 -0.3871  0.1238
 2259TIP3    H128412   2.546   6.838   1.040  1.1435 -0.8683  2.0286
 2259TIP3    H228413   2.531   6.710   0.960  2.7773 -0.3817  0.9030
 2260TIP3   OH228414   6.887   3.573   1.753 -0.0877 -0.1407  0.0347
 2260TIP3    H128415   6.861   3.658   1.788 -0.0259 -0.4957  0.9643
 2260TIP3    H228416   6.806   3.537   1.715 -0.1905  0.1758 -0.0466
 2261TIP3   OH228417   5.694   1.143   3.060 -0.1690  0.1182 -0.2085
 2261TIP3    H128418   5.735   1.132   3.146 -1.2362  2.3020  0.6519
 2261TIP3    H228419   5.668   1.054   3.035 -1.6124 -0.3895  2.6639
 2262TIP3   OH228420   2.563   4.565   1.414 -0.1221 -0.6373 -0.2517
 2262TIP3    H128421   2.497   4.503   1.444 -0.6455 -0.0212 -0.1124
 2262TIP3    H228422   2.519   4.617   1.346 -0.4523  1.1031  1.2150
 2263TIP3   OH228423   0.182   1.873   3.646 -0.4473  0.3676  0.1158
 2263TIP3    H128424   0.091   1.892   3.623 -0.2022 -1.2001 -2.6967
 2263TIP3    H228425   0.176   1.814   3.721 -1.6776  1.2778  0.7607
 2264TIP3   OH228426   4.554   1.526   0.068 -0.4888  0.1793  0.5768
 2264TIP3    H128427   4.529   1.434   0.066 -0.0252  0.0562  0.5011
 2264TIP3    H228428   4.478   1.572   0.030 -0.5576 -0.2069  0.2430
 2265TIP3   OH228429   1.986   4.354   3.332 -0.0215  0.4540 -0.4865
 2265TIP3    H128430   1.899   4.384   3.361  0.0071 -0.4971  0.6699
 2265TIP3    H228431   2.045   4.382   3.402  0.3124 -0.4959 -0.3822
 2266TIP3   OH228432   2.302   5.955   8.141  0.2214  0.1480 -0.4126
 2266TIP3    H128433   2.229   5.924   8.194 -0.5467  1.6894 -0.5267
 2266TIP3    H228434   2.368   5.983   8.204  0.0962  0.1828 -0.2984
 2267TIP3   OH228435   0.313   6.393   2.611  0.1059  0.1081  0.0069
 2267TIP3    H128436   0.342   6.357   2.527  1.6145  1.9196 -0.3385
 2267TIP3    H228437   0.237   6.447   2.589  0.1317  0.1027 -0.0964
 2268TIP3   OH228438   2.484   2.910   1.424 -0.3886  0.0732  0.0346
 2268TIP3    H128439   2.482   2.824   1.382 -2.7040  0.3712 -0.6239
 2268TIP3    H228440   2.441   2.896   1.509 -0.4071  0.4960  0.0970
 2269TIP3   OH228441   6.169   0.379   0.401  0.0660 -0.1382 -0.1384
 2269TIP3    H128442   6.173   0.469   0.368 -1.4734 -0.1400 -0.4011
 2269TIP3    H228443   6.104   0.337   0.346  1.4950 -1.7335 -0.6950
 2270TIP3   OH228444   5.380   6.388   2.298  0.5254 -0.0856 -0.5619
 2270TIP3    H128445   5.404   6.439   2.220 -0.2808  0.1573 -0.6509
 2270TIP3    H228446   5.465   6.366   2.338  0.9017  1.1165 -0.6497
 2271TIP3   OH228447   5.040   6.059   8.543  0.1788 -0.6391  0.7206
 2271TIP3    H128448   5.060   6.064   8.449  0.5228  0.4119  0.8271
 2271TIP3    H228449   5.006   5.971   8.556 -0.3052 -0.6504 -0.4816
 2272TIP3   OH228450   6.705   6.136   8.479  0.0722  0.0333  0.2044
 2272TIP3    H128451   6.735   6.226   8.465  5.0094 -1.0936  1.5733
 2272TIP3    H228452   6.667   6.137   8.567 -0.9366  0.9057 -0.2135
 2273TIP3   OH228453   2.005   3.430   2.436 -0.1568  0.0127  0.1387
 2273TIP3    H128454   2.014   3.335   2.443 -3.1706 -0.3773  0.0264
 2273TIP3    H228455   2.004   3.461   2.526  0.7172 -0.0409  0.1784
 2274TIP3   OH228456   0.471   0.605   8.359  0.1186 -0.1918  0.5707
 2274TIP3    H128457   0.424   0.613   8.276  1.0623 -2.3257 -0.2337
 2274TIP3    H228458   0.437   0.677   8.412  0.5552  2.2095 -2.1325
 2275TIP3   OH228459   1.552   2.749   1.019  0.4855  0.1430  0.0040
 2275TIP3    H128460   1.549   2.665   1.064 -0.8496  0.7536  1.1437
 2275TIP3    H228461   1.537   2.814   1.088  0.6037  1.2649 -0.9784
 2276TIP3   OH228462   3.021   4.510   2.730 -0.1894 -0.1062  0.0884
 2276TIP3    H128463   2.932   4.509   2.764  0.8014 -0.4989  2.9627
 2276TIP3    H228464   3.067   4.443   2.780  2.4456  2.1827  1.0287
 2277TIP3   OH228465   4.571   6.874   2.335  0.3446  0.5701 -0.1384
 2277TIP3    H128466   4.522   6.858   2.254  0.6927  1.4210 -0.5251
 2277TIP3    H228467   4.548   6.963   2.360 -1.4728 -0.3801  1.9296
 2278TIP3   OH228468   4.011   0.971   1.044  0.7159 -0.3927  0.0197
 2278TIP3    H128469   3.996   1.005   0.956  0.0996  0.4254  0.4341
 2278TIP3    H228470   3.971   0.884   1.044 -0.3697  0.0897 -0.1526
 2279TIP3   OH228471   5.881   0.518   2.135 -0.1298  0.4367 -0.4517
 2279TIP3    H128472   5.944   0.467   2.085  2.4621  1.6317  1.3365
 2279TIP3    H228473   5.859   0.592   2.079 -1.1735 -0.7442 -1.6692
 2280TIP3   OH228474   1.094   0.619   0.601 -0.5237 -0.5892 -0.3409
 2280TIP3    H128475   1.111   0.571   0.521 -1.2656  0.4895 -1.1783
 2280TIP3    H228476   1.048   0.557   0.658 -1.1704 -0.9623 -1.2619
 2281TIP3   OH228477   6.882   4.586   1.307 -0.6836  0.0511 -0.0377
 2281TIP3    H128478   6.853   4.634   1.229 -3.3310 -4.0702 -1.9636
 2281TIP3    H228479   6.956   4.533   1.276 -2.2481 -2.2145 -0.1840
 2282TIP3   OH228480   0.613   5.528   1.823  0.2222  0.5403  0.1492
 2282TIP3    H128481   0.536   5.554   1.773  0.7207  1.7396 -0.0323
 2282TIP3    H228482   0.605   5.575   1.906 -0.7612 -1.6807  1.4005
 2283TIP3   OH228483   3.065   3.402   1.411  0.3682 -0.2190 -0.0416
 2283TIP3    H128484   3.144   3.349   1.423 -0.1942 -1.1438 -0.2773
 2283TIP3    H228485   3.097   3.487   1.381  1.3166 -0.3049  0.6724
 2284TIP3   OH228486   4.442   1.121   0.989 -0.2143 -0.0964  0.4905
 2284TIP3    H128487   4.533   1.120   1.018  0.1586 -0.2561 -0.6485
 2284TIP3    H228488   4.398   1.178   1.052  1.1830  2.1372 -0.4233
 2285TIP3   OH228489   5.779   0.748   1.436 -0.4272 -0.0754 -0.2477
 2285TIP3    H128490   5.830   0.707   1.367 -0.7046  1.1356 -1.2204
 2285TIP3    H228491   5.741   0.826   1.394 -0.3886  0.8390  1.3398
 2286TIP3   OH228492   3.634   2.480   1.040 -0.4505  0.9876 -0.5021
 2286TIP3    H128493   3.611   2.395   1.004 -2.4196  0.9408  0.6979
 2286TIP3    H228494   3.728   2.474   1.058  0.2720  0.4328 -3.8207
 2287TIP3   OH228495   0.161   3.791   2.078 -0.0715  0.5034 -0.1919
 2287TIP3    H128496   0.134   3.699   2.075  1.1731  0.1550 -2.8222
 2287TIP3    H228497   0.124   3.830   1.999 -0.0096  2.1304  0.5315
 2288TIP3   OH228498   6.382   6.332   1.275  0.5005  0.0749  0.0642
 2288TIP3    H128499   6.447   6.277   1.230  1.6279  0.9124  0.6495
 2288TIP3    H228500   6.312   6.271   1.298  0.1503 -0.5097 -2.2634
 2289TIP3   OH228501   0.352   6.045   0.749  0.1313  0.7956  0.1468
 2289TIP3    H128502   0.335   5.986   0.675  0.9147  0.3871  0.2833
 2289TIP3    H228503   0.377   5.987   0.821  0.4795  1.2682  0.4107
 2290TIP3   OH228504   2.251   0.360   1.134  0.1206 -0.1403 -0.1044
 2290TIP3    H128505   2.257   0.353   1.039 -1.4233  1.1804 -0.3590
 2290TIP3    H228506   2.170   0.409   1.149  1.7918  2.3211  1.7590
 2291TIP3   OH228507   4.412   2.469   2.544  0.2592  0.1329  0.1196
 2291TIP3    H128508   4.411   2.409   2.619  0.8374 -0.0554 -0.0196
 2291TIP3    H228509   4.395   2.555   2.582 -0.0873 -0.0498  0.3852
 2292TIP3   OH228510   3.809   2.627   1.359  0.0186 -0.2410 -0.9998
 2292TIP3    H128511   3.732   2.643   1.413 -0.6339 -1.7183 -1.4484
 2292TIP3    H228512   3.783   2.653   1.271  0.2465 -0.1667 -1.0477
 2293TIP3   OH228513   5.393   0.125   1.869 -0.4465  0.3305 -0.2398
 2293TIP3    H128514   5.336   0.202   1.877  0.1710  0.6256  1.8870
 2293TIP3    H228515   5.452   0.147   1.797  0.2340  2.2161  0.8295
 2294TIP3   OH228516   4.501   0.356   0.752  0.1849  0.3668  0.0067
 2294TIP3    H128517   4.594   0.370   0.736  0.3616 -1.0770 -0.3598
 2294TIP3    H228518   4.468   0.318   0.670 -0.3691 -0.6895  0.7013
 2295TIP3   OH228519   6.551   3.003   1.030 -0.1264  0.3575 -0.0223
 2295TIP3    H128520   6.620   2.937   1.024 -0.1964  0.3775 -1.7116
 2295TIP3    H228521   6.586   3.069   1.089  1.1363  0.1569 -0.5073
 2296TIP3   OH228522   5.488   4.777   2.891 -0.3811  0.5789  0.6550
 2296TIP3    H128523   5.496   4.775   2.795 -1.2619 -0.7588  0.5829
 2296TIP3    H228524   5.513   4.690   2.919  1.8236  1.5244  1.8722
 2297TIP3   OH228525   4.114   2.522   1.919  0.0402 -0.0768 -0.2967
 2297TIP3    H128526   4.193   2.470   1.900  0.5681  0.0606  1.3413
 2297TIP3    H228527   4.056   2.505   1.845  0.7043 -2.0191 -0.4509
 2298TIP3   OH228528   5.008   2.149   2.549 -0.2191  0.1959 -0.0829
 2298TIP3    H128529   4.994   2.197   2.631 -0.5837 -0.2255  0.1060
 2298TIP3    H228530   4.942   2.079   2.550  0.8305 -0.8224  0.0341
 2299TIP3   OH228531   6.085   1.447   1.674 -0.1735  0.3734  0.0808
 2299TIP3    H128532   6.164   1.475   1.629 -0.0330 -2.6693 -1.8284
 2299TIP3    H228533   6.113   1.429   1.764  0.4508  2.5822  0.3907
 2300TIP3   OH228534   6.775   3.345   0.165  0.1822 -0.5334 -0.3468
 2300TIP3    H128535   6.681   3.359   0.158  0.1675  0.4333  1.2486
 2300TIP3    H228536   6.803   3.402   0.236  2.0233 -0.6437 -0.9122
 2301TIP3   OH228537   5.785   6.135   0.910 -0.1261  1.0090  0.2757
 2301TIP3    H128538   5.798   6.042   0.896 -1.7150  0.7435  0.4019
 2301TIP3    H228539   5.694   6.151   0.884  0.0998  2.5123  0.3027
 2302TIP3   OH228540   1.257   4.486   0.606 -0.1215  0.0173  0.4294
 2302TIP3    H128541   1.313   4.555   0.643  1.9664  0.8245 -3.5746
 2302TIP3    H228542   1.316   4.412   0.593 -0.1092  0.4460 -2.7524
 2303TIP3   OH228543   6.193   5.854   3.196  0.1491 -0.3301 -0.0598
 2303TIP3    H128544   6.179   5.769   3.153 -0.4214  0.0718 -0.6846
 2303TIP3    H228545   6.110   5.900   3.186  0.0217 -0.1842  1.4076
 2304TIP3   OH228546   5.398   2.016   1.873  0.0318 -0.3416 -0.2984
 2304TIP3    H128547   5.440   2.061   1.800 -1.5012 -0.4717 -1.3149
 2304TIP3    H228548   5.402   1.924   1.850  0.9984 -0.5386  0.6003
 2305TIP3   OH228549   3.716   5.741   0.955  0.1397 -0.5606 -0.3970
 2305TIP3    H128550   3.658   5.708   0.886  0.7567 -1.7855 -0.3630
 2305TIP3    H228551   3.803   5.705   0.933  0.6026  0.0827  0.3111
 2306TIP3   OH228552   6.493   0.827   8.570  0.1860  0.0563 -0.2496
 2306TIP3    H128553   6.419   0.833   8.631 -0.1553 -0.6886 -0.5833
 2306TIP3    H228554   6.569   0.809   8.626 -0.0098  0.0795  0.0250
 2307TIP3   OH228555   3.364   0.374   0.631 -0.2825 -0.7555  0.3732
 2307TIP3    H128556   3.429   0.388   0.700  0.8495 -1.7171 -0.4547
 2307TIP3    H228557   3.322   0.291   0.654 -0.6228 -0.5646  0.4467
 2308TIP3   OH228558   0.611   2.220   3.201  0.6843 -0.0043  0.0676
 2308TIP3    H128559   0.654   2.145   3.242 -1.4376 -1.9065 -0.9785
 2308TIP3    H228560   0.561   2.261   3.272  1.5993  0.2808  0.5716
 2309TIP3   OH228561   4.684   3.702   0.157  0.1004 -0.2657 -0.4204
 2309TIP3    H128562   4.598   3.693   0.199 -0.3039  0.0105 -1.1740
 2309TIP3    H228563   4.732   3.761   0.215  0.4642 -1.9013  1.0146
 2310TIP3   OH228564   5.183   1.824   0.405  0.3379 -0.6512  0.3316
 2310TIP3    H128565   5.174   1.836   0.311  0.4393  1.4599  0.5396
 2310TIP3    H228566   5.092   1.821   0.437  0.3031 -0.2709  0.2735
 2311TIP3   OH228567   1.005   5.481   0.001 -0.7750  0.2224  0.1012
 2311TIP3    H128568   0.986   5.557  -0.053 -1.9355  0.7153  1.1431
 2311TIP3    H228569   1.093   5.454  -0.025 -0.3569  1.8884 -0.3269
 2312TIP3   OH228570   0.627   2.219   7.892 -0.4655 -0.2255  0.1860
 2312TIP3    H128571   0.640   2.287   7.826  1.9413  1.0658  1.8505
 2312TIP3    H228572   0.691   2.152   7.869 -1.5994 -1.1479 -0.3971
 2313TIP3   OH228573   3.486   5.139   8.521  0.5578 -0.0838 -0.0333
 2313TIP3    H128574   3.511   5.149   8.429  2.3875 -0.7576  0.3353
 2313TIP3    H228575   3.463   5.046   8.529 -0.6484  0.2007 -0.0148
 2314TIP3   OH228576   3.303   1.998   8.132  0.1285 -0.0292  0.0228
 2314TIP3    H128577   3.340   1.919   8.170 -0.4666  0.0046  0.7033
 2314TIP3    H228578   3.364   2.068   8.156  0.2471 -0.1576  0.0937
 2315TIP3   OH228579   5.900   3.042   2.663 -0.3192  0.0367  0.2140
 2315TIP3    H128580   5.992   3.035   2.638 -0.3285  0.2847  0.1056
 2315TIP3    H228581   5.858   3.086   2.589 -0.2506  1.2431  0.8729
 2316TIP3   OH228582   0.999   4.826   7.478 -0.3984 -0.3219  0.3074
 2316TIP3    H128583   1.035   4.754   7.427  0.2363  0.5112 -0.4563
 2316TIP3    H228584   1.058   4.834   7.553 -0.2091 -0.2973  0.1551
 2317TIP3   OH228585   0.917   6.643   1.396  0.1862  0.4240 -0.8747
 2317TIP3    H128586   0.954   6.640   1.484 -0.4926 -0.9809 -0.6115
 2317TIP3    H228587   0.823   6.630   1.409  0.1173 -0.0903 -1.8341
 2318TIP3   OH228588   0.486   0.067   0.219  0.6889  0.2715  0.1791
 2318TIP3    H128589   0.570   0.034   0.251  0.6774 -0.6282 -0.6546
 2318TIP3    H228590   0.430  -0.011   0.215 -0.4370  0.9915  1.4538
 2319TIP3   OH228591   6.487   5.256   7.334 -0.5703 -0.4383 -0.1913
 2319TIP3    H128592   6.497   5.214   7.249  0.2424 -2.7207  0.9442
 2319TIP3    H228593   6.550   5.328   7.333  0.1430 -1.0613 -1.1561
 2320TIP3   OH228594   5.280   6.130   2.350 -0.4095 -0.3498 -0.4976
 2320TIP3    H128595   5.318   6.215   2.330 -2.9506  0.6234 -1.6415
 2320TIP3    H228596   5.341   6.066   2.314  1.7066  0.9208  0.6567
 2321TIP3   OH228597   6.534   2.149   2.681 -0.4199 -0.4893  0.0640
 2321TIP3    H128598   6.622   2.143   2.718 -0.5532 -0.6119  0.3626
 2321TIP3    H228599   6.530   2.237   2.642  0.1247 -0.7955 -0.6983
 2322TIP3   OH228600   4.662   1.149   2.935 -0.2466 -0.1339  0.3189
 2322TIP3    H128601   4.622   1.219   2.986 -1.3899  0.2174 -1.0025
 2322TIP3    H228602   4.748   1.137   2.975  0.1444  2.2909  0.3752
 2323TIP3   OH228603   0.292   2.837   8.382  0.2280  0.6659 -0.4339
 2323TIP3    H128604   0.282   2.750   8.343  0.8727  0.2117  0.3778
 2323TIP3    H228605   0.206   2.856   8.420  0.7097 -0.6846  1.4708
 2324TIP3   OH228606   2.885   6.690   3.087 -0.2775  0.2992 -0.1472
 2324TIP3    H128607   2.832   6.676   3.007 -0.8965  1.5711  0.0127
 2324TIP3    H228608   2.848   6.769   3.126  2.0365  1.5153 -0.2482
 2325TIP3   OH228609   5.663   5.255   2.710  0.1595  0.3485  0.3774
 2325TIP3    H128610   5.634   5.179   2.760  0.6815 -0.1079 -0.0020
 2325TIP3    H228611   5.590   5.274   2.651  0.1014  0.0296  0.3457
 2326TIP3   OH228612   4.745   4.767   1.927  0.2177 -0.1326  0.3479
 2326TIP3    H128613   4.715   4.772   1.837  2.0821  2.0112 -0.2430
 2326TIP3    H228614   4.781   4.854   1.946  0.8643 -0.8347  2.8050
 2327TIP3   OH228615   4.918   3.498   8.183 -0.4452 -0.1939 -0.0368
 2327TIP3    H128616   5.004   3.499   8.142 -0.9804  0.3089 -1.2244
 2327TIP3    H228617   4.935   3.498   8.277  0.8839  1.6306 -0.2144
 2328TIP3   OH228618   1.114   1.544   0.473  0.3646  0.1015 -0.9430
 2328TIP3    H128619   1.183   1.588   0.523  0.8362  0.2553 -1.7153
 2328TIP3    H228620   1.067   1.615   0.429  0.6470 -0.1019 -1.5875
 2329TIP3   OH228621   0.334   4.562   3.290  0.1806 -0.5319  0.1942
 2329TIP3    H128622   0.255   4.560   3.344  0.3211  1.2558  0.5361
 2329TIP3    H228623   0.321   4.637   3.232  2.1945  0.7044  1.2196
 2330TIP3   OH228624   2.184   4.202   0.851 -0.2580  0.4826  0.4872
 2330TIP3    H128625   2.239   4.213   0.774  0.4090  2.1994  1.1635
 2330TIP3    H228626   2.212   4.272   0.911 -1.4305 -0.1912  1.8824
 2331TIP3   OH228627   4.474   3.105   2.641  0.3576 -0.7785  0.3910
 2331TIP3    H128628   4.453   3.177   2.700  0.8755 -0.7260  0.5126
 2331TIP3    H228629   4.441   3.027   2.686  0.0284 -0.6521  0.3754
 2332TIP3   OH228630   3.515   6.311   1.486  0.2209 -0.1433 -0.1537
 2332TIP3    H128631   3.529   6.350   1.399 -2.2399 -0.0905 -0.6012
 2332TIP3    H228632   3.545   6.221   1.477  0.3539 -0.0290 -0.9717
 2333TIP3   OH228633   3.070   1.205   0.758 -0.1366 -0.2757  0.4860
 2333TIP3    H128634   3.137   1.259   0.800  2.1385 -1.3501 -1.5023
 2333TIP3    H228635   2.995   1.210   0.817  1.7312  0.8463  2.9685
 2334TIP3   OH228636   6.504   3.251   2.055  0.4420 -0.1955  0.1864
 2334TIP3    H128637   6.491   3.239   2.149 -0.1861 -2.3424 -0.1208
 2334TIP3    H228638   6.443   3.320   2.031 -0.8455 -0.9940  1.0487
 2335TIP3   OH228639   0.584   1.392   8.405 -0.1930  0.4049  0.2452
 2335TIP3    H128640   0.604   1.454   8.475  0.3910  1.4450 -0.8029
 2335TIP3    H228641   0.499   1.420   8.371 -0.7414 -0.4422  0.8860
 2336TIP3   OH228642   3.457   5.975   1.211  0.7043 -0.8150 -0.5921
 2336TIP3    H128643   3.473   6.062   1.172  2.2188 -1.0650 -0.5842
 2336TIP3    H228644   3.381   5.942   1.164  1.1976 -0.2131 -1.8730
 2337TIP3   OH228645   6.781   4.947   1.184  0.6820 -0.3981  0.2868
 2337TIP3    H128646   6.728   4.973   1.109 -1.5305 -2.2739  1.0876
 2337TIP3    H228647   6.760   5.011   1.252  0.1334 -0.5818  0.2969
 2338TIP3   OH228648   0.380   2.053   7.928 -0.1426  0.0362 -0.4961
 2338TIP3    H128649   0.445   2.122   7.920  1.8706 -1.3032  2.5165
 2338TIP3    H228650   0.429   1.972   7.913 -1.5518 -0.9253 -0.1085
 2339TIP3   OH228651   3.370   3.141   1.915  0.0299  0.1137  0.2602
 2339TIP3    H128652   3.425   3.196   1.971 -0.6350  0.7367  0.3079
 2339TIP3    H228653   3.332   3.201   1.852  0.3261 -0.4964 -0.5276
 2340TIP3   OH228654   2.337   5.224   3.042 -0.0999  0.2728 -0.4347
 2340TIP3    H128655   2.307   5.137   3.019 -0.4884 -0.1519  1.5020
 2340TIP3    H228656   2.403   5.210   3.110 -2.6166  1.5041  2.4847
 2341TIP3   OH228657   2.757   2.216   2.067 -0.5952  0.4706 -0.3765
 2341TIP3    H128658   2.681   2.239   2.120 -0.3664  0.0967  0.1236
 2341TIP3    H228659   2.721   2.182   1.986 -0.9839 -0.5612  0.2134
 2342TIP3   OH228660   0.944   0.562   8.141  0.2216 -0.0637 -0.8197
 2342TIP3    H128661   0.870   0.526   8.093  0.5518 -0.3516 -1.1159
 2342TIP3    H228662   0.917   0.558   8.233  0.4558 -1.5616 -0.8029
 2343TIP3   OH228663   3.353   5.438   2.799  0.1152 -0.6158  0.7134
 2343TIP3    H128664   3.315   5.382   2.867 -1.3824 -0.6678 -0.1375
 2343TIP3    H228665   3.323   5.400   2.716  0.3787  0.5323  0.0740
 2344TIP3   OH228666   2.260   0.617   7.976 -0.0817 -0.0653 -0.3153
 2344TIP3    H128667   2.303   0.588   7.895  1.2410 -0.0398  0.3461
 2344TIP3    H228668   2.291   0.706   7.988 -0.9914  0.2466 -0.2397
 2345TIP3   OH228669   5.026   0.495   8.444 -0.1132 -0.3468 -0.5902
 2345TIP3    H128670   5.068   0.459   8.522 -1.3930  1.0740  0.8191
 2345TIP3    H228671   5.053   0.587   8.442  0.1725 -0.4339 -2.0492
 2346TIP3   OH228672   5.302   1.435   7.944 -0.8476  0.5165 -0.2479
 2346TIP3    H128673   5.258   1.378   8.006  1.5567 -1.5046 -0.2301
 2346TIP3    H228674   5.296   1.523   7.983 -1.8020 -0.2301  1.3876
 2347TIP3   OH228675   5.622   2.987   2.910 -0.1330 -0.1244 -0.4440
 2347TIP3    H128676   5.578   2.994   2.995  0.9435 -2.5638  0.4126
 2347TIP3    H228677   5.578   2.915   2.866  0.3979  0.0482 -1.2801
 2348TIP3   OH228678   1.604   6.327   2.514 -0.4866  0.2528  0.3638
 2348TIP3    H128679   1.672   6.380   2.555 -0.1697 -0.2363  0.4715
 2348TIP3    H228680   1.539   6.391   2.483 -0.1797  0.6915  0.6218
 2349TIP3   OH228681   1.291   0.056   0.041  0.7192 -0.3576  0.0910
 2349TIP3    H128682   1.297   0.131   0.100 -1.1299 -0.0962 -0.0220
 2349TIP3    H228683   1.340  -0.013   0.087  1.5645  0.6007  0.6705
 2350TIP3   OH228684   3.766   1.950   1.293  0.4211 -0.1634 -0.2465
 2350TIP3    H128685   3.708   1.955   1.218  0.8336 -0.1888 -0.5723
 2350TIP3    H228686   3.708   1.944   1.369  0.0037 -0.0631 -0.5573
 2351TIP3   OH228687   2.191   1.942   7.317  0.2190 -0.4080 -0.1016
 2351TIP3    H128688   2.181   1.946   7.222  0.2527 -1.9968 -0.1941
 2351TIP3    H228689   2.109   1.902   7.348 -1.5264  3.5314  0.9745
 2352TIP3   OH228690   1.814   1.501   1.604  0.0357 -0.2063  0.0823
 2352TIP3    H128691   1.877   1.458   1.663  0.4569  0.7335  0.3328
 2352TIP3    H228692   1.826   1.594   1.620 -0.1439  0.0502 -1.1999
 2353TIP3   OH228693   0.870   4.184   7.403  0.4684 -0.3482 -0.4282
 2353TIP3    H128694   0.932   4.254   7.422  0.7209 -0.7728  0.3434
 2353TIP3    H228695   0.919   4.103   7.419 -0.2877 -0.6920  0.2170
 2354TIP3   OH228696   5.845   4.507   0.358  0.8921 -0.2067  0.2663
 2354TIP3    H128697   5.799   4.476   0.279 -1.5021  1.4766  0.8912
 2354TIP3    H228698   5.802   4.461   0.430  0.3471  1.1484  0.8429
 2355TIP3   OH228699   5.796   2.522   0.761  0.3110 -0.2253  0.5682
 2355TIP3    H128700   5.709   2.558   0.745 -0.0153 -0.5257  1.5419
 2355TIP3    H228701   5.856   2.589   0.731 -0.2713  0.5336  1.0599
 2356TIP3   OH228702   2.079   6.096   0.120  0.6237  0.0766 -0.1196
 2356TIP3    H128703   2.126   6.150   0.184  1.6807  1.9228 -2.3481
 2356TIP3    H228704   2.131   6.015   0.115  0.2070 -0.3537  1.6977
 2357TIP3   OH228705   4.602   1.723   1.793  0.1914 -0.0471 -0.4494
 2357TIP3    H128706   4.510   1.697   1.804 -0.2956  1.3132 -1.0688
 2357TIP3    H228707   4.603   1.773   1.711  1.4874 -0.0373 -0.4451
 2358TIP3   OH228708   1.832   5.899   3.015 -0.0726  0.7719 -0.2384
 2358TIP3    H128709   1.745   5.939   3.006 -0.3367  0.6043  1.2134
 2358TIP3    H228710   1.892   5.973   3.018 -0.2617  0.9336 -0.4173
 2359TIP3   OH228711   2.610   1.250   0.520  0.5939  0.4094  0.6784
 2359TIP3    H128712   2.615   1.314   0.592 -0.7812  0.1290  1.0477
 2359TIP3    H228713   2.628   1.301   0.441  2.1944  0.7159  1.1953
 2360TIP3   OH228714   6.871   3.075   1.886  0.1409  0.3892 -0.3170
 2360TIP3    H128715   6.777   3.069   1.867 -0.1217  2.4287  0.0910
 2360TIP3    H228716   6.900   3.153   1.838  2.2500 -1.6129 -2.5639
 2361TIP3   OH228717   5.750   1.042   3.312  0.3226 -0.1360  0.6254
 2361TIP3    H128718   5.686   0.977   3.281  1.2221 -1.2128  0.9682
 2361TIP3    H228719   5.755   1.027   3.406 -0.6023  1.5056  0.9739
 2362TIP3   OH228720   1.034   3.739   2.618 -0.5891  0.2018 -0.3676
 2362TIP3    H128721   0.949   3.709   2.585  0.6611 -1.7583 -2.0353
 2362TIP3    H228722   1.070   3.793   2.547 -0.7864  1.8357  0.7174
 2363TIP3   OH228723   3.542   4.073   2.167  0.2117  0.2400 -0.0026
 2363TIP3    H128724   3.511   4.001   2.111  0.6348 -1.1080  1.4221
 2363TIP3    H228725   3.472   4.138   2.164 -0.9812 -0.9960  0.0348
 2364TIP3   OH228726   6.265   1.052   8.394 -0.3498  0.4589  0.2615
 2364TIP3    H128727   6.351   1.031   8.358 -0.3483  1.3416 -0.2904
 2364TIP3    H228728   6.203   1.001   8.342 -0.1830 -0.0191  0.5249
 2365TIP3   OH228729   0.003   2.237   0.425  0.1756 -0.3237 -1.2351
 2365TIP3    H128730  -0.061   2.218   0.357 -0.7266 -1.0240 -0.2287
 2365TIP3    H228731  -0.034   2.311   0.473 -0.4586 -1.3936  0.0067
 2366TIP3   OH228732   5.134   0.138   0.251  0.1281  0.7434  0.0466
 2366TIP3    H128733   5.105   0.163   0.163 -1.2400  1.1084  0.5701
 2366TIP3    H228734   5.139   0.221   0.299  2.2486  0.7061 -0.0437
 2367TIP3   OH228735   6.278   2.641   1.300 -0.2355 -0.0436  0.4626
 2367TIP3    H128736   6.309   2.554   1.327  0.8759  0.0887 -0.3108
 2367TIP3    H228737   6.183   2.632   1.293 -0.1244 -1.2237  0.3070
 2368TIP3   OH228738   3.028   2.090   1.635 -0.0963  0.1907  0.2362
 2368TIP3    H128739   3.008   2.008   1.680 -0.9149  0.5384  0.5219
 2368TIP3    H228740   2.961   2.151   1.665 -0.1855  0.6484 -0.8432
 2369TIP3   OH228741   1.311   3.843   8.222  0.2332  0.3178 -0.1232
 2369TIP3    H128742   1.255   3.908   8.181 -1.8205 -2.1347 -1.4387
 2369TIP3    H228743   1.254   3.797   8.283  1.0981 -1.4128 -0.5586
 2370TIP3   OH228744   0.473   5.643   8.251 -0.1875  0.4980 -0.0901
 2370TIP3    H128745   0.536   5.572   8.238  0.0480  0.5108  0.9119
 2370TIP3    H228746   0.419   5.642   8.172 -0.2812 -0.8914 -0.0280
 2371TIP3   OH228747   2.606   2.474   0.892 -0.6394  0.0258  0.0341
 2371TIP3    H128748   2.603   2.488   0.797  2.3851  1.1053  0.0091
 2371TIP3    H228749   2.591   2.560   0.929  0.0723 -0.0349  0.4686
 2372TIP3   OH228750   1.731   3.907   0.195 -0.3582 -0.2507 -0.6079
 2372TIP3    H128751   1.652   3.852   0.192  0.7365 -1.8784 -0.8245
 2372TIP3    H228752   1.765   3.903   0.106 -0.0301  0.4669 -0.5174
 2373TIP3   OH228753   6.298   1.323   0.546  0.2040  0.2512 -0.1815
 2373TIP3    H128754   6.246   1.247   0.519  1.8974 -0.7754 -0.7398
 2373TIP3    H228755   6.360   1.336   0.474  1.4889  0.6658  0.9528
 2374TIP3   OH228756   6.620   3.754   1.142  0.4070 -0.3071  0.4659
 2374TIP3    H128757   6.672   3.831   1.121 -0.9623  0.0274 -1.9986
 2374TIP3    H228758   6.544   3.788   1.190 -1.2454  0.2961 -2.3480
 2375TIP3   OH228759   2.293   4.701   8.034  0.5582  0.6860 -0.0638
 2375TIP3    H128760   2.255   4.787   8.017 -0.6748 -0.2628 -2.6820
 2375TIP3    H228761   2.385   4.709   8.007  0.4559  1.2119 -0.2680
 2376TIP3   OH228762   3.857   2.938   1.216  0.6118 -0.6003 -0.4725
 2376TIP3    H128763   3.790   2.872   1.196 -1.3581  1.3031 -0.4441
 2376TIP3    H228764   3.888   2.914   1.304 -0.4283 -1.2050 -0.2517
 2377TIP3   OH228765   4.816   1.060   2.508 -0.3851  0.0212  0.4243
 2377TIP3    H128766   4.757   1.045   2.582 -1.0160  2.0607  0.3873
 2377TIP3    H228767   4.837   0.972   2.477 -1.4728 -0.8352  1.9469
 2378TIP3   OH228768   4.376   0.473   8.569 -0.4097 -0.1837 -0.0576
 2378TIP3    H128769   4.462   0.500   8.537 -1.0782  0.7877 -1.1303
 2378TIP3    H228770   4.314   0.518   8.511 -1.6422 -0.6782  0.8344
 2379TIP3   OH228771   6.436   5.424   0.029  0.0935  0.6593  0.0198
 2379TIP3    H128772   6.455   5.429  -0.065  1.7567  2.0589  0.3828
 2379TIP3    H228773   6.494   5.489   0.069  0.7782 -1.1782  2.2278
 2380TIP3   OH228774   4.971   2.304   1.295 -0.3299 -0.1558  0.1753
 2380TIP3    H128775   5.031   2.269   1.229  0.6193  0.2809  0.7922
 2380TIP3    H228776   4.997   2.261   1.376 -1.4160 -0.5991  0.3079
 2381TIP3   OH228777   2.695   5.868   8.046 -0.3947  0.5472  0.1571
 2381TIP3    H128778   2.620   5.821   8.011 -0.1589 -0.9350  1.5068
 2381TIP3    H228779   2.772   5.821   8.012 -0.0984  1.2294 -0.1359
 2382TIP3   OH228780   5.921   6.065   2.300  0.0950  0.8652 -0.2613
 2382TIP3    H128781   5.861   5.991   2.306  0.1602  0.8381  0.0723
 2382TIP3    H228782   5.886   6.129   2.362  1.2240  0.2683  1.0459
 2383TIP3   OH228783   0.560   0.186   7.630  0.3014 -0.0195  0.9626
 2383TIP3    H128784   0.624   0.216   7.566 -0.7805  0.4954  0.0805
 2383TIP3    H228785   0.480   0.171   7.579 -0.4464 -0.0955  2.1138
 2384TIP3   OH228786   6.661   2.083   0.516  0.3816 -0.2329  0.0379
 2384TIP3    H128787   6.638   2.176   0.513  0.5268 -0.2064 -0.3953
 2384TIP3    H228788   6.644   2.052   0.427  0.6545 -0.5420  0.0924
 2385TIP3   OH228789   5.854   6.215   2.540  0.7098  0.0310  0.7822
 2385TIP3    H128790   5.817   6.186   2.624 -2.4287  1.2023 -0.0523
 2385TIP3    H228791   5.931   6.266   2.564  0.8027 -0.9618  2.8086
 2386TIP3   OH228792   5.771   5.552   7.268 -0.5200 -0.2023 -0.4369
 2386TIP3    H128793   5.753   5.473   7.320 -0.7370  0.2538  0.2001
 2386TIP3    H228794   5.764   5.523   7.177 -4.3692 -0.1953 -0.3375
 2387TIP3   OH228795   0.790   1.669   0.182  0.1535  0.4364  0.2206
 2387TIP3    H128796   0.868   1.704   0.139  1.6075 -1.5011  1.1351
 2387TIP3    H228797   0.778   1.723   0.260  0.0602  1.2677 -0.3617
 2388TIP3   OH228798   0.930   4.139   2.526  0.0102 -0.2898 -0.5050
 2388TIP3    H128799   1.020   4.107   2.535  0.0287 -0.0609  0.2519
 2388TIP3    H228800   0.902   4.156   2.616 -0.7201 -0.1602 -0.7485
 2389TIP3   OH228801   0.959   2.069   8.460  0.4122  0.0912 -0.2383
 2389TIP3    H128802   0.969   2.028   8.546 -0.7998 -0.6991 -0.4456
 2389TIP3    H228803   1.018   2.144   8.462  1.6420 -0.8506  0.6743
 2390TIP3   OH228804   1.582   0.992   2.843  0.3584  0.1170 -0.3659
 2390TIP3    H128805   1.510   0.978   2.904  0.0523 -0.0726 -0.7700
 2390TIP3    H228806   1.660   0.997   2.899 -0.0230  0.8690  0.1219
 2391TIP3   OH228807   5.059   4.450   2.670 -0.3114 -0.3587 -0.0443
 2391TIP3    H128808   5.066   4.377   2.732  1.3375  0.6094  0.9787
 2391TIP3    H228809   5.038   4.526   2.725 -1.8184  0.0135 -1.0768
 2392TIP3   OH228810   4.121   5.217   0.831 -0.1784  0.1511  0.4412
 2392TIP3    H128811   4.107   5.125   0.856 -1.5081  0.1076 -0.3609
 2392TIP3    H228812   4.042   5.241   0.783  0.9738  1.1339 -1.0599
 2393TIP3   OH228813   3.842   0.301   8.073  0.6050  0.2506 -0.0483
 2393TIP3    H128814   3.826   0.207   8.065  1.0408  0.1152  0.5849
 2393TIP3    H228815   3.825   0.336   7.986 -2.1302 -0.0092  0.3045
 2394TIP3   OH228816   4.841   5.777   1.901  0.0585  0.0839  0.1101
 2394TIP3    H128817   4.897   5.847   1.866  1.1467 -0.2933  1.0566
 2394TIP3    H228818   4.805   5.734   1.824  0.3566  0.8996 -0.4979
 2395TIP3   OH228819   5.176   1.094   2.007  0.8636 -0.2611  0.3947
 2395TIP3    H128820   5.175   1.182   1.970 -0.0897  0.1637  1.3654
 2395TIP3    H228821   5.225   1.042   1.944 -1.8043  0.0870 -2.1970
 2396TIP3   OH228822   3.821   2.093   7.263  0.4345 -0.8501 -0.1010
 2396TIP3    H128823   3.864   2.064   7.183  0.6164 -0.0709 -0.2942
 2396TIP3    H228824   3.893   2.111   7.324  0.4721  1.3275 -0.7196
 2397TIP3   OH228825   1.322   6.871   7.401  0.3714 -0.4223  0.3598
 2397TIP3    H128826   1.356   6.931   7.335  0.0037 -0.3634  0.2194
 2397TIP3    H228827   1.321   6.922   7.482  1.6569 -0.7634  0.6144
 2398TIP3   OH228828   1.842   4.495   0.897 -0.4415  0.9429 -0.2521
 2398TIP3    H128829   1.854   4.407   0.931 -1.3962  1.4778  1.5852
 2398TIP3    H228830   1.875   4.491   0.807  0.0818 -1.1097 -0.0071
 2399TIP3   OH228831   3.276   4.583   1.955 -0.3652  0.2413 -0.0158
 2399TIP3    H128832   3.187   4.558   1.931  0.0978 -0.8099 -0.7289
 2399TIP3    H228833   3.280   4.677   1.939 -1.3061  0.2777 -0.1017
 2400TIP3   OH228834   5.569   4.264   8.332  0.1039 -0.1621  0.0151
 2400TIP3    H128835   5.514   4.214   8.392 -0.1070 -0.0308 -0.0656
 2400TIP3    H228836   5.540   4.355   8.343  1.5835  0.1878  1.3495
 2401TIP3   OH228837   1.050   2.760   0.880 -0.0726  0.0313  0.0392
 2401TIP3    H128838   0.974   2.793   0.833 -0.3939  0.8769  1.1037
 2401TIP3    H228839   1.059   2.669   0.852 -0.4945  0.3933 -1.3083
 2402TIP3   OH228840   2.538   5.118   0.694  0.3218  0.0277  0.7209
 2402TIP3    H128841   2.454   5.105   0.648  0.9806  0.4668 -0.6771
 2402TIP3    H228842   2.513   5.129   0.786 -1.0751 -0.7566  0.4761
 2403TIP3   OH228843   0.177   4.690   2.712  0.3984  0.4416 -0.1140
 2403TIP3    H128844   0.152   4.643   2.791 -0.9242  2.0780  0.5178
 2403TIP3    H228845   0.101   4.681   2.653  1.9564 -2.0571 -1.9039
 2404TIP3   OH228846   3.737   3.024   8.592  0.7089 -0.3288  0.0040
 2404TIP3    H128847   3.796   3.038   8.667 -1.5973  0.0819  1.8555
 2404TIP3    H228848   3.739   3.107   8.544  1.0873 -0.0762  0.4507
 2405TIP3   OH228849   3.947   5.612   1.450  0.4735  0.2420 -0.4007
 2405TIP3    H128850   3.944   5.641   1.359 -0.0625  1.2982 -0.0591
 2405TIP3    H228851   3.856   5.615   1.479  0.8378  1.7395  0.7096
 2406TIP3   OH228852   2.524   5.935   0.490  0.3329  0.0462  0.1795
 2406TIP3    H128853   2.496   5.844   0.482  1.6704 -0.2542 -1.5500
 2406TIP3    H228854   2.560   5.940   0.579  0.5790 -1.2118  0.1744
 2407TIP3   OH228855   3.050   6.657   0.948  0.3839 -0.3443 -0.3741
 2407TIP3    H128856   3.010   6.651   1.035  1.1509 -1.3471 -0.0673
 2407TIP3    H228857   3.140   6.682   0.965  1.1480 -2.6188 -0.6769
 2408TIP3   OH228858   6.781   5.904   3.002 -0.2825 -0.1049  0.0888
 2408TIP3    H128859   6.700   5.863   2.971 -1.9398  1.2617  2.3133
 2408TIP3    H228860   6.808   5.850   3.076 -0.9222  1.1639  1.2799
 2409TIP3   OH228861   5.901   6.644   2.996  0.1591  0.3095 -0.1665
 2409TIP3    H128862   5.890   6.627   2.903  4.4611  0.5481 -0.9458
 2409TIP3    H228863   5.948   6.567   3.029  1.7053  1.6704  0.9644
 2410TIP3   OH228864   1.915   4.972   1.893  0.0984 -0.1685 -0.8393
 2410TIP3    H128865   1.874   4.962   1.979 -0.7161  0.0824 -1.1882
 2410TIP3    H228866   1.897   4.889   1.849 -2.2460  0.8128 -1.8933
 2411TIP3   OH228867   1.280   1.081   2.855 -0.4798  0.3775  0.0698
 2411TIP3    H128868   1.329   1.156   2.888  0.0539  0.6394 -1.2781
 2411TIP3    H228869   1.205   1.074   2.915 -1.2986  2.8334 -0.5438
 2412TIP3   OH228870   2.800   0.114   8.462 -0.0389  0.3061 -0.7850
 2412TIP3    H128871   2.780   0.033   8.509 -0.6089  1.6509  1.4252
 2412TIP3    H228872   2.896   0.117   8.459  0.1444  1.0217  2.0815
 2413TIP3   OH228873   3.901   5.135   1.120 -0.3921 -0.3617  0.5366
 2413TIP3    H128874   3.880   5.108   1.031 -0.3252  0.5268  0.2497
 2413TIP3    H228875   3.816   5.147   1.162 -0.4238 -1.1250  0.7072
 2414TIP3   OH228876   1.425   3.927   7.828  0.0138 -0.8046 -0.0087
 2414TIP3    H128877   1.349   3.918   7.771 -0.3090 -0.8789  0.4296
 2414TIP3    H228878   1.444   4.021   7.828 -0.5403 -0.6921  0.4748
 2415TIP3   OH228879   2.953   4.251   1.028  0.0889  0.3018  0.9539
 2415TIP3    H128880   3.025   4.300   1.067  0.9499  0.4847 -0.7848
 2415TIP3    H228881   2.994   4.170   0.996 -0.6317  0.0611  0.6265
 2416TIP3   OH228882   2.048   1.306   2.698  0.2080 -0.1401 -0.0986
 2416TIP3    H128883   1.962   1.277   2.729 -0.2767  1.6124  0.2772
 2416TIP3    H228884   2.108   1.285   2.770 -0.2536  0.4352  0.4635
 2417TIP3   OH228885   2.971   5.526   2.940  0.1794 -0.5009  0.3821
 2417TIP3    H128886   2.908   5.523   3.012 -0.5865  0.5156 -0.2149
 2417TIP3    H228887   2.936   5.467   2.874 -1.5479  1.8831 -0.9845
 2418TIP3   OH228888   5.471   0.355   3.459  0.5997 -0.1900  0.4346
 2418TIP3    H128889   5.443   0.395   3.377 -0.5310 -1.5691  0.1118
 2418TIP3    H228890   5.537   0.416   3.494 -1.9288  2.6279  0.6653
 2419TIP3   OH228891   4.004   4.594   3.249  0.1357 -0.1357 -0.2214
 2419TIP3    H128892   4.008   4.502   3.226  1.2346 -0.5887  1.5494
 2419TIP3    H228893   3.911   4.617   3.244 -0.5569 -2.0991  1.9590
 2420TIP3   OH228894   0.295   3.659   8.221 -0.1742 -0.2252 -0.4308
 2420TIP3    H128895   0.217   3.652   8.276 -0.7504 -0.5289 -1.2602
 2420TIP3    H228896   0.340   3.737   8.253  0.3018 -1.2037  1.4399
 2421TIP3   OH228897   0.182   0.084   0.998 -0.0239  0.3567  0.1229
 2421TIP3    H128898   0.114   0.151   1.008 -0.0176  0.1928  1.3988
 2421TIP3    H228899   0.261   0.124   1.035  0.1474 -0.1050  0.2627
 2422TIP3   OH228900   3.309   5.363   1.402  0.0183 -0.0097 -0.2271
 2422TIP3    H128901   3.328   5.319   1.319 -0.3802 -0.0960 -0.2746
 2422TIP3    H228902   3.391   5.357   1.451 -0.7976 -3.4385  0.9721
 2423TIP3   OH228903   0.655   1.804   8.209  0.3281  0.4575  0.4465
 2423TIP3    H128904   0.571   1.759   8.216  0.7523 -0.4219  0.0791
 2423TIP3    H228905   0.645   1.884   8.261 -1.0380  0.8394 -0.3448
 2424TIP3   OH228906   6.620   0.341   8.319  0.3758  0.2029  0.1668
 2424TIP3    H128907   6.697   0.306   8.363  0.3299  0.6155  0.5860
 2424TIP3    H228908   6.642   0.337   8.226 -0.1666 -2.1872  0.0759
 2425TIP3   OH228909   0.616   5.306   7.700  0.9913  0.2025 -0.0566
 2425TIP3    H128910   0.710   5.293   7.687  1.3146  1.3747  0.8873
 2425TIP3    H228911   0.606   5.314   7.795 -0.0299  0.3059 -0.1636
 2426TIP3   OH228912   2.785   3.952   8.634  0.2255 -0.1013 -0.0733
 2426TIP3    H128913   2.851   3.943   8.564  0.2348 -0.9947  0.0379
 2426TIP3    H228914   2.824   3.907   8.709  0.5656  1.5468  0.7757
 2427TIP3   OH228915   1.967   5.290   7.966  0.1157  0.1202  0.2071
 2427TIP3    H128916   2.019   5.369   7.982 -1.1503  1.0550 -0.1528
 2427TIP3    H228917   2.010   5.222   8.018  1.0252  1.1201  0.8033
 2428TIP3   OH228918   1.641   0.035   7.517 -0.7410  0.6419  0.3804
 2428TIP3    H128919   1.709   0.102   7.513 -2.4474  2.4434  0.1651
 2428TIP3    H228920   1.652  -0.015   7.436 -0.8053  2.0716 -0.5369
 2429TIP3   OH228921   6.808   5.158   7.866 -0.1846 -0.1173 -0.4926
 2429TIP3    H128922   6.716   5.130   7.869  0.2480 -1.6454 -0.5157
 2429TIP3    H228923   6.814   5.212   7.788 -1.0022 -0.2665 -0.6721
 2430TIP3   OH228924   4.917   1.038   0.003  0.5753  0.2145  0.2944
 2430TIP3    H128925   4.938   1.045   0.096  2.0461 -0.7496  0.0738
 2430TIP3    H228926   4.950   1.120  -0.036  1.2724 -0.0079  0.4106
 2431TIP3   OH228927   1.793   6.070   7.240 -0.3462 -0.0557  0.2514
 2431TIP3    H128928   1.736   6.068   7.318 -0.2473  0.1955  0.3295
 2431TIP3    H228929   1.827   6.159   7.238 -0.2080 -0.1159  0.0189
 2432TIP3   OH228930   2.959   4.816   8.481  0.1597 -0.2832 -0.3574
 2432TIP3    H128931   3.020   4.889   8.474  0.5352 -0.7323 -2.5607
 2432TIP3    H228932   2.977   4.778   8.568  3.0399 -0.3785 -0.8841
 2433TIP3   OH228933   0.432   4.156   0.869  0.8900  0.1176  0.6039
 2433TIP3    H128934   0.494   4.143   0.796 -0.3581  1.0472 -0.6848
 2433TIP3    H228935   0.478   4.214   0.929  0.7659  2.1153 -1.0992
 2434TIP3   OH228936   3.091   2.730   7.883  0.7250 -0.5192  0.5611
 2434TIP3    H128937   3.054   2.732   7.795  2.4281  0.4431 -0.1734
 2434TIP3    H228938   3.104   2.637   7.902 -0.1858 -0.7578  0.0382
 2435TIP3   OH228939   0.120   3.924   7.094 -0.3519 -0.7149  0.0434
 2435TIP3    H128940   0.044   3.962   7.138 -0.6200  1.7440 -2.2640
 2435TIP3    H228941   0.195   3.964   7.137 -0.6055  1.5115 -1.4274
 2436TIP3   OH228942   1.225   1.524   2.752  0.2202 -0.1110  0.0049
 2436TIP3    H128943   1.305   1.503   2.799  0.3332  0.4697  0.0791
 2436TIP3    H228944   1.208   1.616   2.772 -1.2450 -0.5870  1.1582
 2437TIP3   OH228945   1.322   4.091   8.588  0.4403  0.7119 -0.1208
 2437TIP3    H128946   1.363   4.004   8.590  0.4162  0.6914 -0.4894
 2437TIP3    H228947   1.368   4.140   8.656 -0.4943 -0.0043  1.0730
 2438TIP3   OH228948   6.091   2.713   8.089  0.6511  0.2451  0.0845
 2438TIP3    H128949   6.048   2.720   8.003  0.8489  0.4770  0.0054
 2438TIP3    H228950   6.069   2.625   8.119  1.8356 -0.4023 -0.8802
 2439TIP3   OH228951   0.242   2.765   0.470 -0.3732 -0.1032 -0.1318
 2439TIP3    H128952   0.333   2.754   0.497  0.2706  0.7618 -1.8334
 2439TIP3    H228953   0.236   2.856   0.443 -2.0267  0.1199  0.8716
 2440TIP3   OH228954   4.148   0.416   3.173 -0.1474  0.1577  0.1220
 2440TIP3    H128955   4.131   0.411   3.267  0.6788 -2.0018  0.2232
 2440TIP3    H228956   4.237   0.383   3.163  0.0488  1.0459 -1.3697
 2441TIP3   OH228957   6.595   5.125   3.124  0.4314 -0.8073  0.1330
 2441TIP3    H128958   6.524   5.143   3.185 -1.0771 -1.1179 -1.4475
 2441TIP3    H228959   6.569   5.170   3.043  1.9383 -1.0906 -0.5453
 2442TIP3   OH228960   5.891   4.271   2.240  0.1691 -0.3020 -0.3646
 2442TIP3    H128961   5.923   4.209   2.306  3.8415  0.3358 -1.2913
 2442TIP3    H228962   5.886   4.355   2.285  1.9399 -0.0199 -0.5932
 2443TIP3   OH228963   4.580   6.126   2.146 -0.0439  0.4421 -0.0235
 2443TIP3    H128964   4.567   6.210   2.102 -2.1617 -0.2993 -0.9100
 2443TIP3    H228965   4.582   6.061   2.075  1.5614 -0.3037  0.6425
 2444TIP3   OH228966   6.226   4.080   7.436  0.1277  0.0848  0.2133
 2444TIP3    H128967   6.306   4.123   7.406  1.1720 -0.9254  1.4114
 2444TIP3    H228968   6.192   4.137   7.504 -0.5149  0.8079 -0.6951
 2445TIP3   OH228969   4.582   3.612   1.093 -0.1145  0.4404  0.5099
 2445TIP3    H128970   4.637   3.572   1.160  2.4509 -0.3245 -1.8826
 2445TIP3    H228971   4.556   3.539   1.036 -2.6759  0.9839  0.8530
 2446TIP3   OH228972   0.522   1.370   2.224 -0.3413 -0.0180  0.5329
 2446TIP3    H128973   0.566   1.395   2.142 -1.1240 -1.4574 -0.3766
 2446TIP3    H228974   0.456   1.438   2.237  0.0705  0.4547  0.2033
 2447TIP3   OH228975   4.255   0.233   8.453  0.2085  0.0225 -0.3096
 2447TIP3    H128976   4.309   0.153   8.455 -0.5680 -0.4981  0.5101
 2447TIP3    H228977   4.312   0.301   8.490  0.4797 -0.4162  0.0922
 2448TIP3   OH228978   5.038   1.108   1.475  0.2473  0.3842  0.4405
 2448TIP3    H128979   5.007   1.195   1.450 -0.9017 -0.2180 -0.2519
 2448TIP3    H228980   5.105   1.126   1.541  1.6467  1.9041 -1.2727
 2449TIP3   OH228981   4.456   3.008   1.177 -0.3318 -0.2920  0.3282
 2449TIP3    H128982   4.531   3.066   1.161 -0.6445  0.2846  0.8950
 2449TIP3    H228983   4.495   2.932   1.222  0.2888 -1.1828 -1.6166
 2450TIP3   OH228984   3.422   2.134   0.336 -0.0464 -0.0172  0.4058
 2450TIP3    H128985   3.340   2.086   0.325  0.5474 -0.9616 -0.0026
 2450TIP3    H228986   3.401   2.203   0.399 -0.3906 -2.1709  2.7991
 2451TIP3   OH228987   5.158   2.443   0.490 -0.5716  0.3352  0.0771
 2451TIP3    H128988   5.133   2.351   0.482 -0.2356  0.1913  0.5958
 2451TIP3    H228989   5.160   2.475   0.400  0.6049 -0.5199 -0.2235
 2452TIP3   OH228990   2.863   4.288   0.030  0.6049 -0.3131 -0.1849
 2452TIP3    H128991   2.771   4.273   0.055  0.1883 -1.2264 -2.0555
 2452TIP3    H228992   2.858   4.313  -0.062  2.1777  0.9392  0.0251
 2453TIP3   OH228993   0.512   2.425   2.828  0.5750  0.6562  0.6016
 2453TIP3    H128994   0.530   2.489   2.897  1.6760 -0.5961  1.5236
 2453TIP3    H228995   0.463   2.356   2.872 -0.4611  0.7594 -0.3453
 2454TIP3   OH228996   4.074   6.577   2.318  0.0145 -0.4146  0.0994
 2454TIP3    H128997   4.164   6.547   2.335  0.4269  0.8479  0.2059
 2454TIP3    H228998   4.082   6.640   2.247 -0.4720  1.3481  1.5342
 2455TIP3   OH228999   1.579   3.607   2.711  0.3370 -0.2630  0.3417
 2455TIP3    H129000   1.572   3.605   2.616  0.4723 -1.6018  0.3363
 2455TIP3    H229001   1.493   3.634   2.742  0.7984  1.9386 -0.1886
 2456TIP3   OH229002   1.668   0.988   1.679 -0.6144  0.1683  0.1554
 2456TIP3    H129003   1.751   1.034   1.687 -0.9679  0.7396  0.6280
 2456TIP3    H229004   1.657   0.975   1.584 -1.2449  2.4847 -0.1624
 2457TIP3   OH229005   0.417   2.632   2.700 -0.3746  0.6270  0.2670
 2457TIP3    H129006   0.442   2.562   2.760 -2.0247  0.9158  1.3557
 2457TIP3    H229007   0.474   2.620   2.624 -0.4698 -1.7693  0.5026
 2458TIP3   OH229008   3.303   1.487   1.980 -0.0204 -0.7417 -0.8545
 2458TIP3    H129009   3.248   1.418   2.018 -0.1177 -1.2682 -1.9352
 2458TIP3    H229010   3.378   1.493   2.039 -1.4051  0.3166  0.9343
 2459TIP3   OH229011   1.380   0.860   1.527 -0.1966 -0.4436  0.4308
 2459TIP3    H129012   1.473   0.878   1.517 -0.2529 -0.7384 -0.6670
 2459TIP3    H229013   1.339   0.905   1.453 -1.0580  0.6320  1.5100
 2460TIP3   OH229014   6.817   0.366   2.112  0.0807 -0.0877  0.2034
 2460TIP3    H129015   6.829   0.433   2.180  0.9194 -0.1681  0.1389
 2460TIP3    H229016   6.836   0.412   2.030 -1.1904  0.0801 -0.0237
 2461TIP3   OH229017   6.884   0.698   8.276  0.6370 -0.4146 -0.1888
 2461TIP3    H129018   6.792   0.697   8.248 -0.5259 -2.1661  3.1884
 2461TIP3    H229019   6.895   0.782   8.320  0.9302  0.1198 -1.2482
 2462TIP3   OH229020   6.285   6.006   1.262  0.1366  0.2371 -0.6433
 2462TIP3    H129021   6.228   5.941   1.221 -0.8972  0.4854  0.3520
 2462TIP3    H229022   6.226   6.079   1.284  0.6434  0.0951  1.2995
 2463TIP3   OH229023   0.416   3.932   0.176 -0.5006 -0.5059 -0.6283
 2463TIP3    H129024   0.488   3.917   0.115 -1.0439 -0.2652 -1.3406
 2463TIP3    H229025   0.341   3.886   0.137 -0.5616 -1.3789  0.4751
 2464TIP3   OH229026   5.336   5.380   8.218 -0.2784  0.3408 -0.1008
 2464TIP3    H129027   5.257   5.426   8.249 -0.0269 -0.1355  1.3454
 2464TIP3    H229028   5.326   5.377   8.123 -1.5657  1.0906 -0.0232
 2465TIP3   OH229029   0.676   3.963   0.366  0.6186  0.4373  0.0187
 2465TIP3    H129030   0.677   4.001   0.278 -0.6725 -0.2240 -0.3138
 2465TIP3    H229031   0.601   3.903   0.365  0.1726  0.9050  1.7699
 2466TIP3   OH229032   6.511   5.774   8.074 -0.2368 -0.0216 -0.2940
 2466TIP3    H129033   6.492   5.744   7.986 -0.7884 -1.6240  0.3381
 2466TIP3    H229034   6.465   5.858   8.082 -1.0924 -0.3951 -1.1539
 2467TIP3   OH229035   2.346   6.172   2.179  0.1019 -0.4563 -0.2324
 2467TIP3    H129036   2.384   6.182   2.092  0.2364  0.3634 -0.0872
 2467TIP3    H229037   2.315   6.082   2.182  2.5280 -1.3389 -0.1362
 2468TIP3   OH229038   5.555   0.462   0.963 -0.0817  0.2414  0.4139
 2468TIP3    H129039   5.524   0.467   0.872  2.6935 -0.4221 -0.6768
 2468TIP3    H229040   5.598   0.547   0.978  0.8216 -0.2276  0.5312
 2469TIP3   OH229041   2.002   3.743   1.714  0.0195  0.0934  0.1577
 2469TIP3    H129042   2.083   3.699   1.739 -0.0473 -0.6260 -0.8497
 2469TIP3    H229043   1.948   3.674   1.675  0.0691  1.1006 -1.8208
 2470TIP3   OH229044   2.754   4.600   2.123  0.0594  0.0477 -0.0498
 2470TIP3    H129045   2.704   4.617   2.202 -1.9060 -0.1503 -1.1862
 2470TIP3    H229046   2.793   4.514   2.137  2.1117  1.1819  1.8025
 2471TIP3   OH229047   2.841   1.731   3.214 -0.9445 -0.4669 -0.2534
 2471TIP3    H129048   2.782   1.747   3.140 -2.7412 -0.6352  1.0686
 2471TIP3    H229049   2.786   1.744   3.291  0.9468 -0.0028  1.0768
 2472TIP3   OH229050   3.008   5.055   0.391 -0.4997  0.5437 -0.2564
 2472TIP3    H129051   2.936   5.098   0.437  1.0110  3.5556 -0.4552
 2472TIP3    H229052   3.086   5.098   0.424  1.5301 -3.7844  1.2713
 2473TIP3   OH229053   2.548   1.608   7.590 -1.0375  0.2015  0.3898
 2473TIP3    H129054   2.543   1.702   7.609 -0.8108  0.5989 -1.3566
 2473TIP3    H229055   2.638   1.595   7.558 -0.6039 -0.9095  1.9087
 2474TIP3   OH229056   5.869   0.445   0.465 -0.2326  0.5130 -0.3099
 2474TIP3    H129057   5.831   0.479   0.384 -1.4121  0.0300  0.0314
 2474TIP3    H229058   5.934   0.381   0.436 -0.2911  0.7067 -0.8831
 2475TIP3   OH229059   2.040   0.569   0.614  0.4287  0.5940 -0.5331
 2475TIP3    H129060   2.097   0.638   0.647 -1.8805  2.8577 -0.9520
 2475TIP3    H229061   2.013   0.599   0.527  1.0905 -1.9706 -1.7208
 2476TIP3   OH229062   6.701   3.519   7.988 -0.6740  0.1126  0.0981
 2476TIP3    H129063   6.681   3.486   7.901 -1.8172  0.7373  0.1123
 2476TIP3    H229064   6.654   3.603   7.994  0.5908  0.8106  0.7665
 2477TIP3   OH229065   2.822   2.642   1.143 -0.4580  0.4271  0.3013
 2477TIP3    H129066   2.864   2.706   1.201 -0.8148  0.5902  0.3820
 2477TIP3    H229067   2.880   2.566   1.145  0.7231  1.2621 -0.9195
 2478TIP3   OH229068   2.111   3.019   1.164 -0.2473  0.4404  0.5748
 2478TIP3    H129069   2.054   3.061   1.229  0.7085  1.7110  0.6333
 2478TIP3    H229070   2.070   3.039   1.080 -0.6312  0.1427  0.6841
 2479TIP3   OH229071   4.031   0.900   8.498 -0.7636 -0.1193 -0.0227
 2479TIP3    H129072   3.987   0.964   8.554  0.5806  0.8731 -0.0659
 2479TIP3    H229073   4.117   0.889   8.537  0.2628  0.7053 -1.9550
 2480TIP3   OH229074   5.315   3.677   7.474 -0.2505 -0.2995 -0.1779
 2480TIP3    H129075   5.368   3.682   7.554 -0.3509 -1.2742 -0.0383
 2480TIP3    H229076   5.225   3.674   7.505 -0.4211  1.4737 -0.4217
 2481TIP3   OH229077   2.183   0.429   1.564  0.1975  0.0500 -0.4897
 2481TIP3    H129078   2.238   0.382   1.501  1.9390  0.3052  0.7599
 2481TIP3    H229079   2.127   0.360   1.601  2.1304 -0.9687  0.7091
 2482TIP3   OH229080   4.482   5.389   3.454 -0.1150  0.3258 -0.2938
 2482TIP3    H129081   4.422   5.401   3.528 -0.0985 -0.0742 -0.2112
 2482TIP3    H229082   4.507   5.297   3.459  0.8773  0.5991 -0.0414
 2483TIP3   OH229083   2.678   2.796   0.058 -0.6612 -0.1327  0.2848
 2483TIP3    H129084   2.683   2.750   0.142 -2.1830 -0.9114 -0.0278
 2483TIP3    H229085   2.625   2.740   0.003 -0.7583  0.9961 -0.8016
 2484TIP3   OH229086   6.662   4.985   8.171  0.2944  0.4937 -0.1539
 2484TIP3    H129087   6.609   4.919   8.215 -0.5668 -0.1056 -2.0107
 2484TIP3    H229088   6.635   5.068   8.210  0.2503 -0.0803  1.0831
 2485TIP3   OH229089   4.405   2.861   0.718  0.0710 -0.5425  0.2820
 2485TIP3    H129090   4.354   2.906   0.650 -1.0435  0.6634  1.8279
 2485TIP3    H229091   4.455   2.931   0.760 -1.2626 -0.7543  2.3726
 2486TIP3   OH229092   3.781   3.204   1.161 -0.2010 -0.3279 -0.0185
 2486TIP3    H129093   3.809   3.114   1.180 -2.1712 -0.9762  0.0810
 2486TIP3    H229094   3.755   3.240   1.246  1.6552  0.7821  0.1244
 2487TIP3   OH229095   4.772   5.104   0.193 -0.7983  0.4479  0.0923
 2487TIP3    H129096   4.764   5.111   0.098  0.6992 -1.7922 -0.2695
 2487TIP3    H229097   4.695   5.053   0.220  0.3080 -1.5668 -0.3809
 2488TIP3   OH229098   1.027   4.400   2.463  0.0472 -0.4673 -0.5037
 2488TIP3    H129099   1.089   4.403   2.536 -1.3145 -2.3590  0.8173
 2488TIP3    H229100   0.975   4.322   2.479 -4.0824  2.0478 -0.3636
 2489TIP3   OH229101   3.968   1.190   1.744  0.4270  0.5223 -0.2502
 2489TIP3    H129102   3.910   1.266   1.744 -0.3740 -0.0768 -0.4673
 2489TIP3    H229103   3.941   1.139   1.821 -0.7748 -0.8091 -1.4893
 2490TIP3   OH229104   1.649   6.765   8.521 -0.2581  0.2833  0.5618
 2490TIP3    H129105   1.613   6.695   8.467  1.0989  1.1947 -1.6217
 2490TIP3    H229106   1.744   6.753   8.516  0.0138  2.4384 -0.1310
 2491TIP3   OH229107   1.575   0.704   2.313  0.2893 -0.4512  0.2222
 2491TIP3    H129108   1.510   0.762   2.273 -0.2568 -1.1387  0.0921
 2491TIP3    H229109   1.555   0.706   2.406  0.7270  0.1239  0.3072
 2492TIP3   OH229110   3.452   1.929   2.838 -0.1750  0.8620 -0.2659
 2492TIP3    H129111   3.536   1.893   2.867 -1.3545 -2.5110 -0.6040
 2492TIP3    H229112   3.404   1.945   2.919 -0.8292 -1.6751 -0.0795
 2493TIP3   OH229113   4.474   3.962   7.749 -0.2224  0.0608 -0.1208
 2493TIP3    H129114   4.534   3.915   7.807 -0.4052 -0.3309 -0.2492
 2493TIP3    H229115   4.397   3.979   7.802 -0.7376 -1.0439 -0.4847
 2494TIP3   OH229116   0.956   0.739   2.770 -0.4740  0.4689  0.3943
 2494TIP3    H129117   1.011   0.817   2.777  0.8548  0.2210 -4.0707
 2494TIP3    H229118   1.002   0.673   2.822  2.1460  0.9829 -1.0991
 2495TIP3   OH229119   0.986   3.466   2.455 -0.2454  0.2781 -0.6180
 2495TIP3    H129120   0.970   3.552   2.417  0.9298  0.9482  0.3457
 2495TIP3    H229121   1.076   3.470   2.488 -0.1513 -1.3335 -0.5763
 2496TIP3   OH229122   6.546   0.371   2.827 -0.3028  0.3401 -0.0020
 2496TIP3    H129123   6.538   0.276   2.819 -2.2837  0.3274  1.3737
 2496TIP3    H229124   6.638   0.386   2.851 -0.3991 -1.3959  1.6260
 2497TIP3   OH229125   0.748   3.709   8.246 -0.4126  0.6049  1.0812
 2497TIP3    H129126   0.760   3.715   8.151 -0.7746  2.2887  1.1135
 2497TIP3    H229127   0.726   3.617   8.261  1.0686 -0.0240 -0.2847
 2498TIP3   OH229128   6.371   0.969   0.433 -0.2974  0.4185 -0.2075
 2498TIP3    H129129   6.284   0.982   0.470  0.0598 -0.0433  0.8129
 2498TIP3    H229130   6.375   1.031   0.359 -1.3862  0.6210 -0.1105
 2499TIP3   OH229131   1.845   4.990   2.520 -0.4465 -0.3086 -0.6117
 2499TIP3    H129132   1.921   5.048   2.528 -0.8302  0.0392  0.8525
 2499TIP3    H229133   1.870   4.912   2.570 -0.2950 -1.0625 -1.8067
 2500TIP3   OH229134   6.832   3.106   8.417 -0.4968 -0.1233  0.2628
 2500TIP3    H129135   6.810   3.014   8.403 -0.2887  0.1061 -2.0095
 2500TIP3    H229136   6.762   3.155   8.373  0.8544  0.7074 -1.0959
 2501TIP3   OH229137   4.486   1.950   2.877 -0.2966 -0.0761 -0.0481
 2501TIP3    H129138   4.496   2.019   2.944  3.9245  1.4073 -1.8116
 2501TIP3    H229139   4.466   1.998   2.797  0.9915 -1.0468 -0.9807
 2502TIP3   OH229140   5.965   4.569   1.294 -0.0333  0.3624 -0.2037
 2502TIP3    H129141   6.025   4.502   1.262  0.0107 -0.1895  0.9582
 2502TIP3    H229142   6.018   4.649   1.298  0.6292 -0.1029  0.7452
 2503TIP3   OH229143   0.440   0.586   2.030 -0.4994  0.0489  0.3247
 2503TIP3    H129144   0.454   0.668   1.982  0.8695 -0.0768  0.4634
 2503TIP3    H229145   0.360   0.602   2.080 -1.7840  0.2910 -1.7003
 2504TIP3   OH229146   4.897   5.817   8.526 -0.1580  0.3852 -0.2042
 2504TIP3    H129147   4.970   5.755   8.530 -0.8289 -0.3851  0.2842
 2504TIP3    H229148   4.851   5.806   8.609  0.0787  2.0173  0.1873
 2505TIP3   OH229149   4.039   3.432   0.581  0.3054  0.0063  0.1379
 2505TIP3    H129150   3.978   3.466   0.516 -0.1817 -1.7379 -0.3771
 2505TIP3    H229151   3.990   3.435   0.664 -0.2469 -0.7017 -0.1465
 2506TIP3   OH229152   0.967   1.792   8.397  0.7731 -0.0583  0.4410
 2506TIP3    H129153   0.984   1.886   8.390  0.6515 -0.1656 -2.6807
 2506TIP3    H229154   0.873   1.783   8.385  0.5503 -0.5408  2.2293
 2507TIP3   OH229155   1.815   0.933   0.312  0.5006 -0.0879 -0.2397
 2507TIP3    H129156   1.729   0.900   0.336  1.3774 -3.3834 -1.0117
 2507TIP3    H229157   1.839   0.993   0.382 -0.9544 -1.8519  1.8916
 2508TIP3   OH229158   1.234   2.425   2.439 -0.1326  0.0651  0.4750
 2508TIP3    H129159   1.186   2.493   2.486  0.9665  1.0692  0.2135
 2508TIP3    H229160   1.296   2.474   2.384  0.2258 -1.1395 -0.2299
 2509TIP3   OH229161   2.873   2.085   0.983 -0.2128  0.3194  1.0077
 2509TIP3    H129162   2.852   2.114   0.894  0.2697 -0.7058  0.5336
 2509TIP3    H229163   2.816   2.010   0.997  1.0538 -0.7266  0.7930
 2510TIP3   OH229164   2.996   0.481   3.589  0.0014 -0.0115 -0.2996
 2510TIP3    H129165   3.018   0.414   3.525 -0.8927  1.8374 -2.6670
 2510TIP3    H229166   2.903   0.470   3.606 -1.0258  2.4938 -3.2911
 2511TIP3   OH229167   2.034   5.640   0.281 -0.0862 -0.2848 -0.1105
 2511TIP3    H129168   2.125   5.617   0.301  0.8616  2.2774 -1.0827
 2511TIP3    H229169   1.991   5.645   0.366  1.1835  0.2855  0.5141
 2512TIP3   OH229170   4.076   0.328   1.289  0.1029 -0.2768  0.0683
 2512TIP3    H129171   3.981   0.317   1.295 -0.2886  2.1962 -0.4513
 2512TIP3    H229172   4.109   0.242   1.262 -1.9644 -1.1765  0.2198
 2513TIP3   OH229173   6.334   1.923   1.188  0.3748  0.4927  0.2588
 2513TIP3    H129174   6.425   1.919   1.158  0.0616  1.0617 -0.7756
 2513TIP3    H229175   6.319   1.836   1.227  1.0116  0.0013 -0.5578
 2514TIP3   OH229176   6.040   6.774   1.921 -0.2060  0.3457 -0.1328
 2514TIP3    H129177   5.968   6.749   1.979  0.1981  1.1011  0.7159
 2514TIP3    H229178   6.118   6.771   1.977  0.0630  2.0130 -0.3640
 2515TIP3   OH229179   0.814   2.650   2.451  0.2237  0.0483 -0.2710
 2515TIP3    H129180   0.795   2.744   2.453 -2.0180 -0.0848 -4.3088
 2515TIP3    H229181   0.743   2.609   2.499  0.2799  0.3224  0.0490
 2516TIP3   OH229182   1.725   3.689   1.298 -0.1790  0.0131  0.2322
 2516TIP3    H129183   1.698   3.615   1.353 -0.9001  1.2217  1.5713
 2516TIP3    H229184   1.747   3.759   1.360 -0.0232  1.0942 -0.9998
 2517TIP3   OH229185   2.391   5.798   1.676  0.3011 -0.1929 -0.2491
 2517TIP3    H129186   2.306   5.842   1.679  0.0103 -0.6558 -1.3105
 2517TIP3    H229187   2.421   5.798   1.767 -1.8806 -2.1064  0.5560
 2518TIP3   OH229188   4.602   1.420   7.867 -0.0566  0.3842 -0.0974
 2518TIP3    H129189   4.530   1.358   7.852 -0.0908 -0.0074  1.4440
 2518TIP3    H229190   4.678   1.365   7.883 -0.3434  0.6301  2.5316
 2519TIP3   OH229191   1.729   2.035   0.886  0.2861  0.3800  0.1397
 2519TIP3    H129192   1.789   1.960   0.891 -0.3653 -0.3280 -1.7668
 2519TIP3    H229193   1.722   2.066   0.976  2.3157 -0.4648  0.6383
 2520TIP3   OH229194   2.650   3.462   2.516  0.2327  0.5034  0.4648
 2520TIP3    H129195   2.743   3.442   2.510 -0.0439 -0.3944 -1.6522
 2520TIP3    H229196   2.643   3.555   2.494  0.6235  0.5978  0.7315
 2521TIP3   OH229197   3.101   3.744   0.397  0.0156 -0.0398  0.1144
 2521TIP3    H129198   3.165   3.713   0.461  0.8134  1.9091  0.3366
 2521TIP3    H229199   3.139   3.824   0.361 -0.5157 -0.9420 -2.6904
 2522TIP3   OH229200   0.580   6.140   8.074 -0.3080 -0.3745 -0.1939
 2522TIP3    H129201   0.512   6.085   8.035  0.2620 -1.0080 -0.3128
 2522TIP3    H229202   0.634   6.166   7.999  0.9547 -1.8198  0.1699
 2523TIP3   OH229203   4.543   0.654   0.650 -0.3003  0.2244 -0.3287
 2523TIP3    H129204   4.487   0.680   0.577  0.3139  1.7323 -0.3052
 2523TIP3    H229205   4.545   0.732   0.707 -1.5792 -1.2130  1.8294
 2524TIP3   OH229206   3.912   3.515   2.164 -0.1156  0.3073 -0.0538
 2524TIP3    H129207   3.975   3.516   2.236  0.6936 -1.1098 -0.6920
 2524TIP3    H229208   3.831   3.483   2.204  0.3567 -0.5783  0.2284
 2525TIP3   OH229209   1.251   2.247   1.705  0.0084 -0.2010  0.4756
 2525TIP3    H129210   1.185   2.300   1.748 -0.5966 -1.2642  0.8930
 2525TIP3    H229211   1.255   2.166   1.756  1.6713 -0.1537  0.5049
 2526TIP3   OH229212   5.308   4.785   7.853 -0.3578  0.1236 -0.5358
 2526TIP3    H129213   5.239   4.840   7.890 -0.8220 -0.2685 -0.8189
 2526TIP3    H229214   5.297   4.793   7.759 -0.8086 -0.9300 -0.5811
 2527TIP3   OH229215   0.327   2.831   2.218 -0.4736 -0.1690 -0.3137
 2527TIP3    H129216   0.298   2.887   2.290  0.5568  0.7601 -0.6121
 2527TIP3    H229217   0.251   2.828   2.158 -0.3265  1.4600 -0.6214
 2528TIP3   OH229218   1.614   0.406   1.691  0.2549  0.2148  0.4700
 2528TIP3    H129219   1.555   0.351   1.638  1.9204  3.5217 -5.7800
 2528TIP3    H229220   1.555   0.468   1.735 -1.1596 -1.0511  0.4613
 2529TIP3   OH229221   5.708   4.344   2.034  0.0660  0.4515  0.4188
 2529TIP3    H129222   5.766   4.316   2.105  1.1993  2.1257  0.2206
 2529TIP3    H229223   5.756   4.415   1.991 -1.3399  0.6168 -0.9554
 2530TIP3   OH229224   2.259   5.391   0.711  0.0032 -0.3909  0.2074
 2530TIP3    H129225   2.342   5.396   0.664 -1.0992  0.9827 -1.7178
 2530TIP3    H229226   2.260   5.467   0.768  0.5245 -1.0239  1.0792
 2531TIP3   OH229227   3.919   2.315   3.246  0.9862  0.1705  0.0721
 2531TIP3    H129228   3.915   2.220   3.258 -1.4504  0.2587  0.4915
 2531TIP3    H229229   3.933   2.349   3.334 -0.4863  0.2415  0.3053
 2532TIP3   OH229230   2.531   5.141   1.617 -0.0277 -0.1484  0.0003
 2532TIP3    H129231   2.577   5.225   1.611  1.3097 -0.9279 -0.8750
 2532TIP3    H229232   2.503   5.122   1.528 -0.1964 -0.7043  0.1679
 2533TIP3   OH229233   1.289   4.903   1.236 -0.3445 -0.4679 -0.0030
 2533TIP3    H129234   1.302   4.905   1.330 -1.3803 -1.3002  0.1709
 2533TIP3    H229235   1.197   4.923   1.223 -0.3714 -1.0189 -0.7864
 2534TIP3   OH229236   5.023   3.413   1.939  0.3593 -0.3789 -0.1752
 2534TIP3    H129237   4.965   3.344   1.972  0.2164 -0.5877 -0.8408
 2534TIP3    H229238   5.111   3.377   1.949  0.2393 -1.1424 -1.5391
 2535TIP3   OH229239   5.351   3.650   2.393 -0.7487  0.2698  0.2982
 2535TIP3    H129240   5.286   3.587   2.424  1.1600 -1.0095  1.9110
 2535TIP3    H229241   5.366   3.708   2.467 -0.7912  1.2155 -0.4150
 2536TIP3   OH229242   2.515   4.768   2.160 -0.1384  0.1935  0.0778
 2536TIP3    H129243   2.452   4.754   2.088 -0.8656  0.8270  0.5778
 2536TIP3    H229244   2.600   4.768   2.117 -0.5437  0.2895 -0.7527
 2537TIP3   OH229245   1.382   5.042   8.116  0.2401  0.4202  0.4985
 2537TIP3    H129246   1.434   5.032   8.037  2.1278 -0.1649  1.7316
 2537TIP3    H229247   1.421   5.116   8.162  0.3473 -0.3552  1.7064
 2538TIP3   OH229248   5.461   0.777   0.307 -0.1743 -0.3095  0.3446
 2538TIP3    H129249   5.400   0.851   0.300 -0.1851 -0.2748  0.7875
 2538TIP3    H229250   5.529   0.808   0.368 -0.3909 -0.8036  0.8452
 2539TIP3   OH229251   4.101   6.543   7.747  0.1604  0.2361  0.5209
 2539TIP3    H129252   4.010   6.537   7.718  0.1330  1.6225  0.2442
 2539TIP3    H229253   4.144   6.600   7.682  1.4520 -1.0787  0.1556
 2540TIP3   OH229254   4.234   0.777   2.201  0.0386 -0.0850  0.0131
 2540TIP3    H129255   4.303   0.823   2.248  0.2661  0.8017 -1.1442
 2540TIP3    H229256   4.275   0.747   2.121 -0.4305 -1.2705  0.2039
 2541TIP3   OH229257   5.691   0.068   8.429  0.8259 -0.0547 -0.3219
 2541TIP3    H129258   5.754   0.139   8.418 -1.2860  1.6994 -1.9180
 2541TIP3    H229259   5.677   0.034   8.341  0.2027 -1.0168  0.1267
 2542TIP3   OH229260   6.845   5.287   2.578 -0.0141 -0.2044 -1.0856
 2542TIP3    H129261   6.860   5.356   2.642  1.0493 -0.0001 -1.5405
 2542TIP3    H229262   6.915   5.223   2.595 -1.1683 -1.3595 -0.4481
 2543TIP3   OH229263   6.242   4.798   0.180  0.3375 -0.3653 -0.4675
 2543TIP3    H129264   6.174   4.743   0.219 -0.5534  0.0292 -1.4332
 2543TIP3    H229265   6.251   4.872   0.240  0.5320 -0.8418  0.0995
 2544TIP3   OH229266   0.877   4.516   7.135  0.2740  0.3833  0.0090
 2544TIP3    H129267   0.932   4.561   7.199 -0.3867  1.5022 -0.1895
 2544TIP3    H229268   0.938   4.464   7.083  1.1014  1.3171  0.0180
 2545TIP3   OH229269   6.046   4.627   0.535  0.5240 -0.3262  0.5581
 2545TIP3    H129270   5.994   4.556   0.573  1.9391 -2.0993 -0.6660
 2545TIP3    H229271   6.034   4.617   0.440  1.7860  0.2426  0.3252
 2546TIP3   OH229272   4.917   2.007   7.774 -0.0959  0.0691  0.2324
 2546TIP3    H129273   4.872   2.085   7.807 -0.6619 -0.0744 -0.1702
 2546TIP3    H229274   4.889   2.001   7.683  1.9074  0.8068 -0.4873
 2547TIP3   OH229275   0.457   5.375   0.624 -0.1520  0.3062 -0.5088
 2547TIP3    H129276   0.383   5.387   0.684 -0.3121  1.7102 -0.9581
 2547TIP3    H229277   0.447   5.444   0.559  2.8819  2.1617  0.7704
 2548TIP3   OH229278   0.055   3.881   8.459 -0.0021  0.2797  0.6994
 2548TIP3    H129279   0.065   3.792   8.425  1.8725  0.4920  0.6166
 2548TIP3    H229280   0.026   3.932   8.383  0.1128 -0.0308  0.4472
 2549TIP3   OH229281   1.315   5.166   1.674  0.1357 -0.3055 -0.4119
 2549TIP3    H129282   1.244   5.192   1.732  1.3071 -0.5896  1.2227
 2549TIP3    H229283   1.351   5.087   1.715  2.0298  0.4090 -0.6175
 2550TIP3   OH229284   6.440   6.576   2.794  0.3880  0.0371 -0.2827
 2550TIP3    H129285   6.418   6.516   2.866  1.1994  0.3876  0.2730
 2550TIP3    H229286   6.525   6.545   2.762  0.6166  0.6375 -0.2646
 2551TIP3   OH229287   4.534   5.418   1.836 -0.2477 -0.3744  0.4556
 2551TIP3    H129288   4.456   5.460   1.802  0.9748  0.8013 -1.0479
 2551TIP3    H229289   4.574   5.376   1.760  0.9022 -0.4186  1.0584
 2552TIP3   OH229290   3.626   5.764   8.013  0.3669 -0.0998 -0.4684
 2552TIP3    H129291   3.660   5.781   8.101  0.7040 -1.5103 -0.3084
 2552TIP3    H229292   3.618   5.851   7.973 -0.2831  0.6091  1.1232
 2553TIP3   OH229293   3.640   2.852   0.902  0.1140  0.0491 -0.2364
 2553TIP3    H129294   3.674   2.820   0.986 -0.8759  1.0771  0.5754
 2553TIP3    H229295   3.610   2.941   0.920  0.4101  0.5041 -1.8297
 2554TIP3   OH229296   6.076   3.121   8.456 -0.8408  0.1582 -0.5857
 2554TIP3    H129297   6.172   3.113   8.458 -0.8066  0.5984 -0.3959
 2554TIP3    H229298   6.044   3.038   8.492 -0.5208  0.3515  0.1479
 2555TIP3   OH229299   0.772   0.419   3.083  0.7582  0.1664  0.7925
 2555TIP3    H129300   0.734   0.349   3.136  1.1787  0.1834  1.1206
 2555TIP3    H229301   0.846   0.451   3.135  2.1324 -0.8452 -0.4742
 2556TIP3   OH229302   1.362   3.238   8.583  0.4190  1.0542 -0.4847
 2556TIP3    H129303   1.276   3.196   8.579  0.8119  0.2529 -0.6343
 2556TIP3    H229304   1.366   3.293   8.504 -0.1728  1.5334 -0.1863
 2557TIP3   OH229305   5.882   4.882   0.041 -0.0767 -0.3182 -0.4668
 2557TIP3    H129306   5.942   4.856   0.111  1.5194 -0.1546 -1.7128
 2557TIP3    H229307   5.928   4.952  -0.005 -0.9914 -0.5532 -1.7989
 2558TIP3   OH229308   3.561   4.007   7.241  0.4433 -0.0492  0.4701
 2558TIP3    H129309   3.509   3.946   7.293  0.1294 -0.3821 -0.2244
 2558TIP3    H229310   3.518   4.091   7.252  0.7508  0.0097  1.2580
 2559TIP3   OH229311   2.984   2.052   8.031 -0.1163 -0.3135 -0.2023
 2559TIP3    H129312   2.951   1.963   8.033  1.1492 -0.8073  0.0422
 2559TIP3    H229313   3.055   2.052   8.095  2.1416 -0.0748 -2.5415
 2560TIP3   OH229314   4.502   0.864   1.107 -0.2954 -0.5639  0.6118
 2560TIP3    H129315   4.438   0.799   1.079  0.6353 -1.3194  0.1830
 2560TIP3    H229316   4.458   0.948   1.093 -0.6576 -1.0068 -1.0643
 2561TIP3   OH229317   5.929   6.657   0.126  0.2576 -0.1447  0.0501
 2561TIP3    H129318   5.947   6.662   0.220 -0.1103  0.7332  0.0836
 2561TIP3    H229319   5.881   6.575   0.115 -1.2908  0.6081  0.9089
 2562TIP3   OH229320   3.121   4.554   0.151 -0.3743  0.2317 -0.7631
 2562TIP3    H129321   3.134   4.648   0.161 -0.8500  0.1517  0.9277
 2562TIP3    H229322   3.033   4.545   0.113 -0.8461  0.4601  0.2472
 2563TIP3   OH229323   0.230   0.645   0.619 -0.4159  0.9343  0.0967
 2563TIP3    H129324   0.292   0.708   0.656  0.4931  0.4981 -0.6275
 2563TIP3    H229325   0.255   0.561   0.659  2.5794 -0.1709 -3.5039
 2564TIP3   OH229326   0.289   2.817   3.042  0.1004 -0.2299 -0.4219
 2564TIP3    H129327   0.370   2.779   3.009 -0.9685 -1.9729 -1.1879
 2564TIP3    H229328   0.315   2.861   3.124  2.0198  0.4740 -1.3398
 2565TIP3   OH229329   2.294   3.478   8.162 -0.0847  0.3623 -0.5247
 2565TIP3    H129330   2.383   3.507   8.143 -0.6006  1.9568 -0.6497
 2565TIP3    H229331   2.264   3.536   8.232 -1.4529  0.7017 -1.3461
 2566TIP3   OH229332   2.628   4.049   2.758 -0.2832 -0.7239 -0.0334
 2566TIP3    H129333   2.593   3.998   2.831 -0.8161 -0.9680 -0.4480
 2566TIP3    H229334   2.678   4.120   2.799 -0.4108 -0.9744  0.5595
 2567TIP3   OH229335   0.609   6.118   1.665 -0.1225 -0.0623  0.0901
 2567TIP3    H129336   0.554   6.123   1.744  0.3639 -3.9376  0.8646
 2567TIP3    H229337   0.552   6.151   1.595 -1.2448  1.6934  1.7216
 2568TIP3   OH229338   2.779   3.257   1.062 -0.3505 -0.0314  0.0569
 2568TIP3    H129339   2.776   3.204   1.142 -3.1013  0.3429  0.2797
 2568TIP3    H229340   2.816   3.341   1.090  1.9899 -1.0256  0.1476
 2569TIP3   OH229341   0.084   1.563   8.391 -0.2268 -0.4967 -0.1455
 2569TIP3    H129342   0.176   1.541   8.381 -0.6884 -4.4087  2.1119
 2569TIP3    H229343   0.037   1.489   8.354 -2.4873  0.9050 -0.2678
 2570TIP3   OH229344   1.224   3.071   0.360 -0.6493  0.3645  0.6169
 2570TIP3    H129345   1.317   3.089   0.348 -0.9505  1.2675 -0.6870
 2570TIP3    H229346   1.214   3.055   0.454  1.0650 -1.4491  0.5498
 2571TIP3   OH229347   0.008   5.735   2.291 -0.2655 -0.1471 -0.3144
 2571TIP3    H129348  -0.006   5.644   2.316 -1.1896  0.5083  1.7375
 2571TIP3    H229349  -0.079   5.766   2.264  0.0192  0.1866 -0.8719
 2572TIP3   OH229350   4.212   4.399   8.395 -0.3798 -0.2400  0.1239
 2572TIP3    H129351   4.186   4.490   8.412 -0.5496 -0.1064 -0.8063
 2572TIP3    H229352   4.170   4.377   8.312  1.6150 -0.3507 -0.9061
 2573TIP3   OH229353   3.029   6.354   8.556  0.1497 -0.0534 -0.1668
 2573TIP3    H129354   2.990   6.325   8.473 -0.8506 -2.2209  0.9977
 2573TIP3    H229355   3.064   6.441   8.536  1.8337 -1.3053 -3.4513
 2574TIP3   OH229356   1.537   6.617   1.148 -0.3652  0.0628  0.1745
 2574TIP3    H129357   1.565   6.531   1.179 -1.3061 -0.5529 -0.6064
 2574TIP3    H229358   1.569   6.678   1.214  0.9843 -0.7945  0.3546
 2575TIP3   OH229359   2.037   4.135   7.387  0.0490  0.6310  0.1860
 2575TIP3    H129360   2.081   4.096   7.312 -0.5516  1.2277 -0.4988
 2575TIP3    H229361   1.965   4.075   7.407 -1.9505  2.0934 -1.9521
 2576TIP3   OH229362   3.238   2.057   3.011 -0.4342  0.3053  0.2081
 2576TIP3    H129363   3.289   2.069   3.091  0.1024 -1.1412  0.1173
 2576TIP3    H229364   3.181   1.983   3.030 -1.1273  0.6811 -0.3665
 2577TIP3   OH229365   6.420   6.453   2.516  0.0310 -0.0342 -1.1004
 2577TIP3    H129366   6.447   6.505   2.441  1.3321 -1.7426 -1.8780
 2577TIP3    H229367   6.432   6.511   2.591 -1.5925  1.8120 -2.1646
 2578TIP3   OH229368   2.277   6.065   0.960 -0.1612  0.1560  0.7359
 2578TIP3    H129369   2.236   6.111   1.033 -1.5842  0.1158 -0.0017
 2578TIP3    H229370   2.362   6.108   0.948  0.0313  0.2484  2.2974
 2579TIP3   OH229371   2.490   6.665   0.747  0.1068  0.4854  0.2103
 2579TIP3    H129372   2.558   6.700   0.690  1.1176  0.8998  1.6288
 2579TIP3    H229373   2.408   6.699   0.710  0.7514  0.8974 -0.8690
 2580TIP3   OH229374   4.551   6.035   0.885  0.0484 -0.0194 -0.1709
 2580TIP3    H129375   4.575   6.071   0.799  0.8453  1.4485  0.6223
 2580TIP3    H229376   4.593   5.950   0.888 -0.7408 -0.5096 -1.5725
 2581TIP3   OH229377   3.636   5.961   2.657  0.3348  0.3742 -0.4006
 2581TIP3    H129378   3.632   5.950   2.752 -1.0857  2.8932 -0.0724
 2581TIP3    H229379   3.729   5.969   2.638  0.6535 -0.3620  0.7345
 2582TIP3   OH229380   2.215   6.361   8.013  0.2135 -0.8686  0.8675
 2582TIP3    H129381   2.279   6.382   8.081 -2.1125 -1.6117  3.4875
 2582TIP3    H229382   2.173   6.445   7.993  0.2611 -0.7996  1.0593
 2583TIP3   OH229383   6.092   2.028   3.014  0.1290  0.5752 -0.3000
 2583TIP3    H129384   6.125   2.061   2.931  1.7302 -0.3880 -0.0899
 2583TIP3    H229385   6.167   1.984   3.054 -1.7304 -3.2918 -0.5703
 2584TIP3   OH229386   3.184   0.657   8.379 -0.2411 -0.2849  0.1178
 2584TIP3    H129387   3.167   0.700   8.295  0.5301 -1.8473 -0.8893
 2584TIP3    H229388   3.276   0.633   8.376 -0.4903 -1.4470  0.8914
 2585TIP3   OH229389   2.319   4.236   7.868  0.2036  0.0519  0.4848
 2585TIP3    H129390   2.269   4.205   7.792  2.1917  0.6213 -1.1549
 2585TIP3    H229391   2.402   4.189   7.863  1.2685  1.7756  0.9466
 2586TIP3   OH229392   0.567   5.094   7.445 -0.3297  0.0794 -0.4893
 2586TIP3    H129393   0.506   5.025   7.417  0.3405 -0.8534  0.2724
 2586TIP3    H229394   0.514   5.174   7.445 -1.1202 -0.4115 -1.4429
 2587TIP3   OH229395   0.817   5.671   1.728 -0.2809 -0.1346  0.3462
 2587TIP3    H129396   0.752   5.734   1.696  1.2913  0.9815 -0.8189
 2587TIP3    H229397   0.765   5.597   1.760 -2.1130  0.7479 -0.4384
 2588TIP3   OH229398   0.695   6.630   0.572  0.5149 -0.1340  0.5389
 2588TIP3    H129399   0.766   6.689   0.546  1.5955 -1.1813  1.0132
 2588TIP3    H229400   0.673   6.582   0.492  1.6951 -1.1555  0.7881
 2589TIP3   OH229401   4.589   0.320   1.609 -0.7913 -0.1952  0.2116
 2589TIP3    H129402   4.526   0.248   1.612  0.7095 -1.5990 -0.4713
 2589TIP3    H229403   4.651   0.295   1.540 -0.1192  1.6706  0.0868
 2590TIP3   OH229404   2.806   4.112   2.217  0.0807 -0.0664  0.2238
 2590TIP3    H129405   2.887   4.085   2.261 -0.1534 -0.1331  0.6245
 2590TIP3    H229406   2.741   4.049   2.247 -0.0430 -0.2400 -0.3886
 2591TIP3   OH229407   3.139   6.611   0.596 -0.0533  0.1309  0.2273
 2591TIP3    H129408   3.182   6.646   0.518  1.6822  0.6745  1.3731
 2591TIP3    H229409   3.205   6.555   0.637 -1.2784 -0.9389  0.7945
 2592TIP3   OH229410   0.843   2.834   8.226  0.4668  0.2797  0.6930
 2592TIP3    H129411   0.898   2.838   8.304  2.7307 -1.1497 -0.7141
 2592TIP3    H229412   0.818   2.741   8.219 -1.3822  0.7257  0.7454
 2593TIP3   OH229413   0.470   2.781   7.797 -0.2566 -0.1226 -0.4778
 2593TIP3    H129414   0.512   2.863   7.822  0.0223 -0.2222 -0.6097
 2593TIP3    H229415   0.485   2.722   7.870  0.1765 -0.2788 -0.6918
 2594TIP3   OH229416   2.775   2.950   1.511 -0.5352  0.2554  0.1082
 2594TIP3    H129417   2.807   3.028   1.466 -1.3133  0.2495 -0.4894
 2594TIP3    H229418   2.683   2.943   1.483 -0.9287  0.0352  1.4161
 2595TIP3   OH229419   2.501   5.448   8.293  0.6501 -0.0255 -0.0015
 2595TIP3    H129420   2.522   5.541   8.307 -1.1531  0.3383  0.4934
 2595TIP3    H229421   2.566   5.401   8.345  1.3100  0.9588  0.1045
 2596TIP3   OH229422   3.700   0.313   1.630  0.8417 -0.1624  0.0418
 2596TIP3    H129423   3.695   0.251   1.557 -1.3034 -0.0947  0.0773
 2596TIP3    H229424   3.732   0.394   1.591  1.5105 -0.6480 -0.4387
 2597TIP3   OH229425   2.795   3.430   8.334 -0.0228 -0.0465 -0.0570
 2597TIP3    H129426   2.718   3.467   8.292  0.6645 -0.7371 -2.0449
 2597TIP3    H229427   2.765   3.345   8.368 -0.0925 -0.4423 -1.0761
 2598TIP3   OH229428   3.863   1.243   2.949  0.4563 -0.2058 -0.0259
 2598TIP3    H129429   3.799   1.187   2.995 -1.4909  0.7290 -1.4346
 2598TIP3    H229430   3.859   1.326   2.996 -0.0856  0.1468 -0.6863
 2599TIP3   OH229431   5.974   4.857   1.516 -0.3425 -0.1018  0.7714
 2599TIP3    H129432   6.064   4.874   1.487 -0.4113  0.4716  0.8888
 2599TIP3    H229433   5.966   4.906   1.598 -0.5173 -0.7884  1.1736
 2600TIP3   OH229434   2.088   0.830   1.102  0.6441 -0.2977  0.3624
 2600TIP3    H129435   2.023   0.860   1.038 -0.2264  2.0261  2.1607
 2600TIP3    H229436   2.155   0.787   1.050 -1.4359 -1.1630 -1.7723
 2601TIP3   OH229437   6.435   0.094   1.847  0.4158 -0.5542 -0.8103
 2601TIP3    H129438   6.483   0.089   1.764  0.0490  1.2567 -1.1768
 2601TIP3    H229439   6.490   0.149   1.903 -0.0214 -0.5799 -0.3454
 2602TIP3   OH229440   4.015   2.445   8.618 -0.1839  0.5074  0.2926
 2602TIP3    H129441   4.096   2.472   8.575 -0.3351 -0.1122 -0.3982
 2602TIP3    H229442   3.997   2.515   8.681 -0.0214  1.4942 -0.7249
 2603TIP3   OH229443   2.109   1.514   8.398 -0.2529 -0.0537  0.1221
 2603TIP3    H129444   2.057   1.589   8.369  0.9347  1.3747  1.5115
 2603TIP3    H229445   2.174   1.502   8.329  0.3692  1.0574  0.5005
 2604TIP3   OH229446   1.482   1.145   2.280 -0.2678  0.4087  0.3878
 2604TIP3    H129447   1.538   1.147   2.202  0.8651  0.6026  1.1757
 2604TIP3    H229448   1.415   1.211   2.262  0.9001  1.6087  0.2025
 2605TIP3   OH229449   4.647   0.711   1.308 -0.0092  0.1777  0.2905
 2605TIP3    H129450   4.579   0.694   1.373  0.9222 -0.6740  1.0656
 2605TIP3    H229451   4.622   0.796   1.270 -0.7434  0.5517  1.5263
 2606TIP3   OH229452   4.380   4.701   3.012  0.3903  0.4864  0.3204
 2606TIP3    H129453   4.474   4.684   3.007  0.9098  3.2685 -2.0256
 2606TIP3    H229454   4.373   4.785   3.059 -0.7907  0.9319 -0.6020
 2607TIP3   OH229455   1.517   5.846   0.610  0.3473  0.0299 -0.0362
 2607TIP3    H129456   1.424   5.853   0.631  0.1179 -0.3859 -0.8376
 2607TIP3    H229457   1.527   5.756   0.578  0.7853  0.4256 -1.0474
 2608TIP3   OH229458   5.110   1.568   1.368  0.5041 -0.3059  0.9142
 2608TIP3    H129459   5.049   1.566   1.294  0.0498  1.4884  1.1914
 2608TIP3    H229460   5.139   1.478   1.378  1.9017 -0.3781 -2.5123
 2609TIP3   OH229461   4.128   3.377   2.742 -0.9603 -0.2808  0.2569
 2609TIP3    H129462   4.186   3.401   2.669  0.0613  0.8683  1.3916
 2609TIP3    H229463   4.172   3.303   2.784 -2.2115 -1.8274 -1.0010
 2610TIP3   OH229464   2.444   0.459   0.194  0.1195  0.2071  0.4923
 2610TIP3    H129465   2.512   0.429   0.253  0.7820  1.6472  0.5129
 2610TIP3    H229466   2.488   0.519   0.134 -0.4005 -1.6556 -1.9101
 2611TIP3   OH229467   4.994   6.605   2.617  0.1337  0.5034 -0.6548
 2611TIP3    H129468   5.026   6.578   2.531  1.4042 -0.1882  0.0082
 2611TIP3    H229469   4.945   6.686   2.600  1.8694  1.3702 -1.8218
 2612TIP3   OH229470   1.898   3.812   8.197  0.0884 -0.2129  0.3590
 2612TIP3    H129471   1.932   3.771   8.118  0.5339  0.2516  0.3006
 2612TIP3    H229472   1.862   3.740   8.248 -0.3447 -0.4928 -0.3360
 2613TIP3   OH229473   6.620   1.027   8.452  0.0291 -0.1270 -0.2089
 2613TIP3    H129474   6.579   0.945   8.479 -0.5821  0.0833 -0.4778
 2613TIP3    H229475   6.568   1.057   8.378  0.9078 -0.0380 -0.8116
 2614TIP3   OH229476   0.698   1.949   8.465 -0.1465 -0.5695 -0.4300
 2614TIP3    H129477   0.653   1.975   8.546  1.6849  1.8125 -0.0635
 2614TIP3    H229478   0.766   2.015   8.453 -0.8715 -0.3137 -4.4442
 2615TIP3   OH229479   3.809   4.737   1.370 -0.3571  0.4355 -0.1116
 2615TIP3    H129480   3.772   4.684   1.440  0.0593  0.8357  0.4142
 2615TIP3    H229481   3.891   4.693   1.348 -1.5238 -0.9960 -1.9233
 2616TIP3   OH229482   6.537   2.838   7.396 -0.1436  0.1128 -0.0427
 2616TIP3    H129483   6.471   2.855   7.329 -0.2129 -1.1333 -0.3282
 2616TIP3    H229484   6.616   2.880   7.363 -0.6100  1.0127 -0.0390
 2617TIP3   OH229485   1.304   3.979   1.202  0.8327  0.5667 -0.0633
 2617TIP3    H129486   1.368   4.011   1.138  0.0376  0.9881 -0.6686
 2617TIP3    H229487   1.253   4.056   1.225 -1.2420 -0.2235 -1.6946
 2618TIP3   OH229488   5.896   3.019   3.512 -0.2012  0.0446  0.3386
 2618TIP3    H129489   5.907   2.929   3.541  1.3639 -0.0130 -0.3006
 2618TIP3    H229490   5.964   3.031   3.446 -0.8284  1.4880 -0.0917
 2619TIP3   OH229491   4.894   1.370   1.379 -0.3083 -0.2864 -0.2064
 2619TIP3    H129492   4.820   1.323   1.340 -0.3503  0.7700 -1.4514
 2619TIP3    H229493   4.892   1.456   1.339  2.2810 -0.5853 -1.1696
 2620TIP3   OH229494   0.563   2.736   3.030  0.0882 -0.3328  0.1480
 2620TIP3    H129495   0.650   2.777   3.020  0.5559 -1.5651 -1.0625
 2620TIP3    H229496   0.577   2.669   3.097 -0.4401  0.7688  1.4041
 2621TIP3   OH229497   0.882   4.963   2.813  0.2996  0.1001 -0.2966
 2621TIP3    H129498   0.904   4.890   2.756  1.5779  0.9444 -0.9205
 2621TIP3    H229499   0.940   5.034   2.786 -0.4103  1.1352  0.7662
 2622TIP3   OH229500   2.279   1.940   1.194 -0.2634 -0.3095  0.0051
 2622TIP3    H129501   2.189   1.931   1.163 -1.2870  0.4764  2.5047
 2622TIP3    H229502   2.287   2.033   1.218  1.4404 -0.2227 -0.7723
 2623TIP3   OH229503   2.494   4.397   2.794 -0.1317 -0.2475 -0.4777
 2623TIP3    H129504   2.427   4.330   2.781 -1.6159  1.0398  0.1169
 2623TIP3    H229505   2.473   4.465   2.729  0.1372  0.4881  0.1798
 2624TIP3   OH229506   0.359   3.526   2.080  0.0683 -0.0110 -0.3780
 2624TIP3    H129507   0.337   3.569   2.163 -2.5509  0.2219 -1.0891
 2624TIP3    H229508   0.384   3.598   2.022 -1.7554  0.3517 -0.8018
 2625TIP3   OH229509   4.846   0.635   2.446 -0.0283 -0.1804 -0.3772
 2625TIP3    H129510   4.805   0.713   2.484  1.0941  0.3253 -0.1587
 2625TIP3    H229511   4.795   0.617   2.368 -1.4582 -0.3496  0.5637
 2626TIP3   OH229512   4.253   1.926   2.153  0.6390  0.6496  0.2218
 2626TIP3    H129513   4.322   1.860   2.140 -0.2086 -0.2599  0.2205
 2626TIP3    H229514   4.221   1.909   2.241 -0.3206  0.3498 -0.1771
 2627TIP3   OH229515   2.735   4.093   7.390  0.2042  0.0057  0.1821
 2627TIP3    H129516   2.823   4.119   7.417  0.6075 -1.1928  0.1191
 2627TIP3    H229517   2.728   4.001   7.418  0.1315 -0.9056 -2.4883
 2628TIP3   OH229518   1.217   1.155   0.584  0.6963  0.2405  0.0368
 2628TIP3    H129519   1.232   1.072   0.629 -0.9709 -0.9497 -1.4618
 2628TIP3    H229520   1.185   1.214   0.652  0.0803 -0.9248  0.7928
 2629TIP3   OH229521   1.919   5.696   0.528  0.8128  0.2031 -0.3604
 2629TIP3    H129522   1.935   5.785   0.559 -0.7933  0.9392 -1.4965
 2629TIP3    H229523   1.824   5.690   0.520  0.8727 -1.7057 -0.0942
 2630TIP3   OH229524   5.640   4.053   7.543 -0.5806 -0.0524 -0.3168
 2630TIP3    H129525   5.609   4.091   7.625 -2.6944 -1.6324 -0.2943
 2630TIP3    H229526   5.647   4.127   7.483 -2.1934  0.7148  0.3899
 2631TIP3   OH229527   6.602   4.303   8.051 -0.6550  0.2522 -0.7317
 2631TIP3    H129528   6.598   4.216   8.091  0.2261  0.2379 -0.6515
 2631TIP3    H229529   6.512   4.335   8.054 -0.5818  0.3475  1.4398
 2632TIP3   OH229530   5.015   1.014   0.765  0.4989 -0.2850  0.1690
 2632TIP3    H129531   5.047   0.987   0.851 -0.2668 -1.7364  0.0398
 2632TIP3    H229532   5.086   0.991   0.704  1.2271  1.1580  0.4326
 2633TIP3   OH229533   5.183   0.018   2.574  0.2929 -0.8459 -0.4523
 2633TIP3    H129534   5.255  -0.033   2.611  1.8736  1.1441 -0.6311
 2633TIP3    H229535   5.204   0.027   2.481 -1.8303 -2.8077 -1.2080
 2634TIP3   OH229536   4.394   4.742   1.285  0.0931  0.9344  0.4700
 2634TIP3    H129537   4.367   4.704   1.369 -1.3776  2.2750  0.6682
 2634TIP3    H229538   4.370   4.834   1.293  0.9258  1.2993 -1.0352
 2635TIP3   OH229539   2.903   3.704   8.244 -0.1961 -0.3430 -0.0801
 2635TIP3    H129540   2.921   3.620   8.285 -0.6453 -0.3618  0.0817
 2635TIP3    H229541   2.826   3.689   8.190 -1.9029  0.5828  1.9666
 2636TIP3   OH229542   5.607   4.603   1.492  0.0040  0.0606  0.0740
 2636TIP3    H129543   5.561   4.572   1.414 -1.4055  0.5843  0.6701
 2636TIP3    H229544   5.631   4.693   1.470  2.1258 -0.6534 -0.8005
 2637TIP3   OH229545   1.562   0.894   0.384 -0.4801  0.4040  0.0267
 2637TIP3    H129546   1.507   0.887   0.306  0.1931 -1.8608 -0.3176
 2637TIP3    H229547   1.500   0.901   0.457 -1.3188 -2.1821 -0.3366
 2638TIP3   OH229548   5.571   6.269   0.256  0.4116 -0.0744 -0.1804
 2638TIP3    H129549   5.525   6.306   0.331 -0.2091  0.1926 -0.6883
 2638TIP3    H229550   5.503   6.249   0.193  0.5870 -2.9039  0.3748
 2639TIP3   OH229551   4.043   0.567   2.093  0.1619 -0.0133  0.0024
 2639TIP3    H129552   4.119   0.549   2.148 -1.3080 -2.0875  1.5038
 2639TIP3    H229553   4.073   0.546   2.004  0.8082 -3.0212  0.7923
 2640TIP3   OH229554   6.388   0.982   0.907  0.2295 -0.0215  0.4954
 2640TIP3    H129555   6.400   1.048   0.976 -1.8198  0.3087  0.5961
 2640TIP3    H229556   6.318   1.017   0.852  0.2569 -1.3403 -0.4302
 2641TIP3   OH229557   2.539   1.873   7.395 -0.0422  0.0409 -0.3440
 2641TIP3    H129558   2.479   1.902   7.326 -0.2828  1.5127  0.4258
 2641TIP3    H229559   2.489   1.885   7.476  1.6814  2.7009  0.4519
 2642TIP3   OH229560   0.377   1.925   3.017  0.1521 -0.0323 -0.1830
 2642TIP3    H129561   0.413   1.921   3.106 -0.7659 -1.0421  0.1623
 2642TIP3    H229562   0.452   1.948   2.962  0.7719  0.4201  0.8166
 2643TIP3   OH229563   1.293   6.017   1.187 -0.5964  0.2901  0.2327
 2643TIP3    H129564   1.310   5.983   1.275 -2.5935  1.5142  1.1727
 2643TIP3    H229565   1.267   5.941   1.136 -0.8410 -0.2325  1.1136
 2644TIP3   OH229566   0.020   5.095   0.920  0.2748  0.5515 -0.2197
 2644TIP3    H129567   0.083   5.111   0.990  0.1991 -0.9722  0.2387
 2644TIP3    H229568   0.024   5.174   0.866  1.5471  1.0707  0.5695
 2645TIP3   OH229569   6.692   1.850   1.903  0.3618  0.1465  0.5538
 2645TIP3    H129570   6.645   1.929   1.927  0.4966  1.1467 -2.1281
 2645TIP3    H229571   6.624   1.785   1.886  0.0919  0.5922 -0.0990
 2646TIP3   OH229572   3.978   2.874   8.275 -0.5472 -0.3521 -0.1983
 2646TIP3    H129573   3.985   2.783   8.245 -1.3736 -0.3777 -0.3330
 2646TIP3    H229574   3.899   2.876   8.328 -0.2054  0.1646  0.3021
 2647TIP3   OH229575   4.281   4.813   0.421 -0.0036 -0.6339 -0.6470
 2647TIP3    H129576   4.276   4.874   0.494  0.2131  0.6544 -1.6623
 2647TIP3    H229577   4.199   4.764   0.424 -0.2660 -0.1592  0.0912
 2648TIP3   OH229578   5.885   2.725   0.606  0.1557  0.0784  0.2723
 2648TIP3    H129579   5.970   2.700   0.568 -0.0115 -0.1548  0.0444
 2648TIP3    H229580   5.823   2.716   0.533  0.2932  2.5044 -0.2206
 2649TIP3   OH229581   0.173   5.508   0.197  0.2298  0.2657  0.2638
 2649TIP3    H129582   0.210   5.423   0.172 -2.1896 -0.8705  0.2169
 2649TIP3    H229583   0.146   5.547   0.114 -0.2953  0.2589  0.4308
 2650TIP3   OH229584   2.364   0.524   2.084  0.5362 -0.3342 -0.2866
 2650TIP3    H129585   2.286   0.575   2.064 -0.3616 -2.5267 -2.9946
 2650TIP3    H229586   2.340   0.474   2.162 -0.5992 -0.5521 -0.7499
 2651TIP3   OH229587   2.032   5.389   0.989  0.0019  0.6122  0.2050
 2651TIP3    H129588   2.064   5.478   1.002 -0.0157  0.6933 -0.3177
 2651TIP3    H229589   2.089   5.335   1.043 -2.0114  1.2603  3.2510
 2652TIP3   OH229590   6.678   1.640   0.717  0.1207 -0.1624 -0.4225
 2652TIP3    H129591   6.654   1.638   0.625  0.2478 -0.0338 -0.4585
 2652TIP3    H229592   6.768   1.674   0.718 -0.7204  2.1903 -0.0716
 2653TIP3   OH229593   2.062   3.853   2.246  0.0012  0.4121 -0.0850
 2653TIP3    H129594   2.133   3.889   2.193  1.1787 -1.8835 -0.2021
 2653TIP3    H229595   2.093   3.863   2.336 -1.2513  2.7662  0.1672
 2654TIP3   OH229596   3.820   6.413   3.584  0.0294  0.3179  0.1868
 2654TIP3    H129597   3.846   6.372   3.501  0.2504  2.0767 -0.6720
 2654TIP3    H229598   3.787   6.499   3.558 -0.1177  0.8215  1.9267
 2655TIP3   OH229599   0.950   2.659   0.233  0.2726 -0.3281 -0.2341
 2655TIP3    H129600   0.969   2.749   0.259  0.2848 -0.4691  0.2546
 2655TIP3    H229601   1.021   2.636   0.173 -0.1682  0.2562 -1.0000
 2656TIP3   OH229602   5.639   1.443   1.604  0.0135  0.3878 -0.2407
 2656TIP3    H129603   5.699   1.466   1.675  2.1023  0.2629 -1.8717
 2656TIP3    H229604   5.599   1.361   1.632  1.9899 -0.5015  0.1774
 2657TIP3   OH229605   2.543   2.738   2.359  0.0108  0.4118  0.4673
 2657TIP3    H129606   2.463   2.760   2.312  2.0823  1.7934 -2.7569
 2657TIP3    H229607   2.577   2.822   2.389 -0.3706 -0.2902  3.1827
 2658TIP3   OH229608   3.335   3.591   1.029  0.2716 -0.3751  0.1854
 2658TIP3    H129609   3.250   3.635   1.035  1.1962  1.6347 -0.6286
 2658TIP3    H229610   3.347   3.551   1.115 -0.7269  0.7981  0.9094
 2659TIP3   OH229611   2.528   1.709   2.231  0.0600 -0.1448 -0.0498
 2659TIP3    H129612   2.499   1.645   2.166 -1.8043 -1.1121  1.6299
 2659TIP3    H229613   2.473   1.692   2.307  1.6498  1.4393  1.5373
 2660TIP3   OH229614   1.295   3.951   1.854  0.8365  0.2175  0.0372
 2660TIP3    H129615   1.292   4.014   1.782  2.1216  0.9272  0.5590
 2660TIP3    H229616   1.236   3.988   1.921 -0.1267 -0.2925 -0.5074
 2661TIP3   OH229617   0.429   1.808   7.406 -0.5983 -0.3558  0.3049
 2661TIP3    H129618   0.406   1.722   7.371 -0.9716  0.7932 -2.5441
 2661TIP3    H229619   0.345   1.847   7.432 -1.0236  0.6367 -2.2731
 2662TIP3   OH229620   0.713   0.433   7.690  0.5120 -0.0240 -0.2654
 2662TIP3    H129621   0.655   0.358   7.704 -0.7049  1.4049  3.5581
 2662TIP3    H229622   0.669   0.484   7.621 -0.2384 -1.2960 -0.7680
 2663TIP3   OH229623   1.626   0.896   1.935 -0.0059  0.3853 -0.4044
 2663TIP3    H129624   1.637   0.934   1.848 -2.0576  2.7037  0.2431
 2663TIP3    H229625   1.531   0.897   1.950  0.3121  0.6487  2.1006
 2664TIP3   OH229626   2.674   5.871   2.354  0.3238  0.5471  0.0897
 2664TIP3    H129627   2.602   5.807   2.358 -0.1438  1.1076  0.8681
 2664TIP3    H229628   2.641   5.947   2.402  1.1963  1.0604 -0.1116
 2665TIP3   OH229629   0.472   4.260   2.384  0.4491 -0.4655  0.4633
 2665TIP3    H129630   0.376   4.257   2.385  0.2022  2.7986 -0.8373
 2665TIP3    H229631   0.496   4.263   2.477 -0.5576 -2.7419  0.8487
 2666TIP3   OH229632   0.283   5.868   0.541  0.7395 -0.0364 -0.1313
 2666TIP3    H129633   0.215   5.874   0.473 -0.1944 -3.2877  0.3785
 2666TIP3    H229634   0.366   5.870   0.493  0.2761  1.6853 -0.9537
 2667TIP3   OH229635   6.545   6.757   1.403 -0.4254  0.0044  0.5613
 2667TIP3    H129636   6.601   6.816   1.353  1.2500 -0.4416  1.8092
 2667TIP3    H229637   6.599   6.680   1.419 -2.0617 -1.2558  0.2510
 2668TIP3   OH229638   5.829   5.672   1.937 -0.4407  0.0978  0.2840
 2668TIP3    H129639   5.769   5.688   1.864 -1.2751  2.2657  1.3469
 2668TIP3    H229640   5.849   5.759   1.971  1.2366 -0.7453  1.6412
 2669TIP3   OH229641   1.755   0.479   3.227 -0.3844  0.0998 -0.0495
 2669TIP3    H129642   1.816   0.414   3.195  0.7351  0.3535  1.4780
 2669TIP3    H229643   1.678   0.470   3.170  1.1106 -0.0820 -2.1471
 2670TIP3   OH229644   2.164   0.100   1.111  0.2256 -0.5052  0.3183
 2670TIP3    H129645   2.127   0.178   1.069  0.1191  0.0217  1.3743
 2670TIP3    H229646   2.119   0.093   1.195  0.6581 -1.3706  0.4916
 2671TIP3   OH229647   6.877   5.324   0.256 -0.3154 -0.2688 -0.5671
 2671TIP3    H129648   6.910   5.244   0.298  1.2705  0.1670 -0.9240
 2671TIP3    H229649   6.955   5.366   0.220 -1.1012  1.5172 -0.2883
 2672TIP3   OH229650   2.683   6.324   2.574  0.1977  0.6213  0.6955
 2672TIP3    H129651   2.737   6.356   2.646  1.1138  3.7460 -1.1682
 2672TIP3    H229652   2.617   6.392   2.561  0.3926  0.4514 -1.6864
 2673TIP3   OH229653   4.322   3.980   3.112 -0.2218  0.3034 -0.1717
 2673TIP3    H129654   4.269   4.045   3.158  1.5929  1.4480  0.4386
 2673TIP3    H229655   4.407   3.984   3.156 -0.3921 -3.5844  0.9469
 2674TIP3   OH229656   3.287   3.245   1.431 -0.2512 -0.1200 -0.0374
 2674TIP3    H129657   3.299   3.189   1.355 -0.0778  0.5659 -0.5283
 2674TIP3    H229658   3.372   3.289   1.442 -0.8806  1.3295 -0.7246
 2675TIP3   OH229659   2.576   6.068   2.539 -0.2144 -0.2238  0.7893
 2675TIP3    H129660   2.554   6.038   2.628 -1.7370 -0.0969  0.4843
 2675TIP3    H229661   2.621   6.151   2.552 -1.4894  0.3955  1.4254
 2676TIP3   OH229662   3.955   1.165   2.674  0.2091  0.6627 -0.5619
 2676TIP3    H129663   3.993   1.087   2.715 -0.2219 -1.1627 -3.3640
 2676TIP3    H229664   3.887   1.193   2.735  1.5202 -0.0828  1.3365
 2677TIP3   OH229665   0.078   4.573   7.875  0.1435  0.1024 -0.5013
 2677TIP3    H129666   0.167   4.573   7.839 -0.5170 -0.2920 -2.2417
 2677TIP3    H229667   0.024   4.613   7.806 -1.0455  0.2659  0.4853
 2678TIP3   OH229668   5.559   4.138   1.463  0.2501  0.3750  0.0018
 2678TIP3    H129669   5.528   4.226   1.484 -0.2392  0.4318 -0.8989
 2678TIP3    H229670   5.604   4.148   1.379  0.1351 -0.2473 -0.1378
 2679TIP3   OH229671   5.755   6.028   1.233 -0.1479 -0.1475 -0.7876
 2679TIP3    H129672   5.781   5.993   1.318  2.3409  0.3006 -1.2776
 2679TIP3    H229673   5.740   6.121   1.249  1.3277  0.1487 -0.9775
 2680TIP3   OH229674   4.711   4.712   8.051  0.7480  0.2411 -0.4457
 2680TIP3    H129675   4.648   4.781   8.031  0.3821  0.0867  0.1326
 2680TIP3    H229676   4.688   4.641   7.991  1.0232  0.5586 -0.9320
 2681TIP3   OH229677   6.151   6.530   8.476 -0.1365 -0.1427  0.0286
 2681TIP3    H129678   6.077   6.519   8.535 -0.4973  0.5912 -0.2781
 2681TIP3    H229679   6.112   6.537   8.389  0.3096  0.0057 -0.1617
 2682TIP3   OH229680   3.273   3.905   8.085 -0.7335 -0.4614 -0.0504
 2682TIP3    H129681   3.272   3.982   8.141  0.2477  0.4545 -1.2422
 2682TIP3    H229682   3.246   3.936   7.999 -0.6713 -1.5151 -0.4755
 2683TIP3   OH229683   0.041   5.194   2.865 -0.1874  0.0665  0.7841
 2683TIP3    H129684   0.115   5.248   2.894  0.1919  0.3263 -0.6162
 2683TIP3    H229685  -0.035   5.251   2.874  0.3110  1.2020 -1.4818
 2684TIP3   OH229686   5.726   1.444   1.853 -0.0178  0.3953  0.3105
 2684TIP3    H129687   5.664   1.380   1.886 -1.4138  1.6731  0.2625
 2684TIP3    H229688   5.768   1.480   1.931  0.3469 -0.1566  0.3700
 2685TIP3   OH229689   0.273   3.186   1.797  0.2227 -0.2917 -0.1767
 2685TIP3    H129690   0.286   3.138   1.716 -1.2250 -1.0579  0.0228
 2685TIP3    H229691   0.193   3.237   1.783  0.2858  0.0259  0.5620
 2686TIP3   OH229692   6.372   4.293   2.655  0.1652  0.1715  0.1527
 2686TIP3    H129693   6.288   4.293   2.609 -0.1592 -1.0474  0.6858
 2686TIP3    H229694   6.421   4.366   2.617 -0.8573  0.4470 -0.6780
 2687TIP3   OH229695   5.292   4.618   8.229 -0.0571  0.2171 -0.5945
 2687TIP3    H129696   5.241   4.541   8.205 -0.5756  1.0395 -2.3001
 2687TIP3    H229697   5.360   4.585   8.288 -0.0792 -1.5858 -1.5221
 2688TIP3   OH229698   6.108   4.975   7.251 -0.2169 -0.0058  0.0283
 2688TIP3    H129699   6.134   5.031   7.324  0.1073 -1.1953  0.8369
 2688TIP3    H229700   6.050   5.031   7.198  0.5175  1.2619  0.5225
 2689TIP3   OH229701   3.760   0.663   8.450  0.0601  0.0179 -0.3447
 2689TIP3    H129702   3.842   0.625   8.479  0.1353  0.6946  0.3555
 2689TIP3    H229703   3.701   0.654   8.525 -0.2473  0.2911 -0.5497
 2690TIP3   OH229704   5.364   0.348   0.214  0.3401  0.1600  0.3251
 2690TIP3    H129705   5.383   0.412   0.146 -1.6908  0.2772 -0.2184
 2690TIP3    H229706   5.369   0.263   0.170 -3.0047  0.3115 -0.6838
 2691TIP3   OH229707   6.694   1.212   8.062 -0.3506  0.4768 -0.4755
 2691TIP3    H129708   6.772   1.212   8.117  0.1952 -1.5137 -1.1430
 2691TIP3    H229709   6.682   1.303   8.037  0.1801  1.2273  1.7951
 2692TIP3   OH229710   3.535   0.813   3.132  0.1325  0.2383  0.4411
 2692TIP3    H129711   3.521   0.721   3.111  2.4536  0.5421 -3.2737
 2692TIP3    H229712   3.469   0.860   3.082 -0.2981  0.6982  1.4080
 2693TIP3   OH229713   2.533   6.457   7.270 -0.3294 -0.5888  0.4918
 2693TIP3    H129714   2.469   6.424   7.333 -0.6229 -1.1621 -0.0946
 2693TIP3    H229715   2.618   6.442   7.312 -0.4926 -1.5330  0.4899
 2694TIP3   OH229716   6.059   5.188   0.314 -0.2679 -0.4377 -0.1172
 2694TIP3    H129717   6.084   5.103   0.349 -0.5519 -0.4880 -0.0352
 2694TIP3    H229718   6.113   5.199   0.236  0.5739 -0.2001  0.4922
 2695TIP3   OH229719   2.779   4.318   2.512 -0.0261 -0.3313 -0.5609
 2695TIP3    H129720   2.723   4.246   2.483  0.0277  0.2990 -2.3879
 2695TIP3    H229721   2.868   4.285   2.501  0.0064 -0.8873  1.1380
 2696TIP3   OH229722   1.104   3.288   0.274 -0.4677 -0.2986  0.0009
 2696TIP3    H129723   1.178   3.347   0.290 -1.0117 -0.1123  2.1893
 2696TIP3    H229724   1.144   3.201   0.271 -0.1158 -0.1936  1.1213
 2697TIP3   OH229725   4.280   1.286   1.130 -0.1564  0.1795 -0.3287
 2697TIP3    H129726   4.286   1.341   1.209  0.2316 -1.9360  1.1954
 2697TIP3    H229727   4.187   1.261   1.126 -0.1154  0.0370 -0.3735
 2698TIP3   OH229728   5.154   5.791   2.872 -0.1107 -0.0115  0.7169
 2698TIP3    H129729   5.207   5.736   2.815  1.0234  1.1225  0.6254
 2698TIP3    H229730   5.164   5.753   2.959  0.4728 -0.0851  0.6182
 2699TIP3   OH229731   0.307   2.993   1.005 -0.7687  0.3353  0.1731
 2699TIP3    H129732   0.348   2.915   1.043 -2.5466 -0.7294  0.0273
 2699TIP3    H229733   0.350   3.003   0.920 -2.2789 -2.1354 -0.9949
 2700TIP3   OH229734   4.929   3.651   2.254 -0.5367 -0.5570 -0.0327
 2700TIP3    H129735   4.962   3.679   2.340  0.1067  0.1123 -0.4831
 2700TIP3    H229736   4.879   3.571   2.272  0.2992 -0.8989  0.8519
 2701TIP3   OH229737   3.226   1.868   0.781  0.2739 -0.7082  0.3942
 2701TIP3    H129738   3.302   1.922   0.800 -0.0104 -0.3560  0.5448
 2701TIP3    H229739   3.182   1.859   0.866 -0.5455  0.1596  0.0725
 2702TIP3   OH229740   4.524   5.276   8.252 -0.4623  0.4614 -0.5211
 2702TIP3    H129741   4.603   5.254   8.303 -0.6343 -1.0197 -0.8501
 2702TIP3    H229742   4.477   5.338   8.308  0.0782  0.0181  0.4630
 2703TIP3   OH229743   5.208   2.658   0.652 -0.7485  0.2933 -0.0067
 2703TIP3    H129744   5.129   2.678   0.703 -0.7771  0.0207  0.0603
 2703TIP3    H229745   5.182   2.584   0.597  0.1027 -1.3256  1.6522
 2704TIP3   OH229746   4.856   2.211   7.525  0.2215 -0.1020  0.0631
 2704TIP3    H129747   4.942   2.187   7.490 -0.5450 -1.0922 -1.2378
 2704TIP3    H229748   4.813   2.127   7.542 -0.3901  0.3793  1.0097
 2705TIP3   OH229749   4.150   6.795   0.248  0.2054  0.3164  0.3394
 2705TIP3    H129750   4.193   6.847   0.180 -1.6246  0.2239 -0.9284
 2705TIP3    H229751   4.169   6.704   0.225  0.8456  0.3066  0.8468
 2706TIP3   OH229752   3.556   4.816   2.365  0.5613  0.2758  0.3154
 2706TIP3    H129753   3.461   4.819   2.374  0.4638 -1.8034  0.4277
 2706TIP3    H229754   3.579   4.898   2.322 -1.5960 -0.3731 -2.2760
 2707TIP3   OH229755   5.052   2.036   8.473 -0.1133  0.2299  0.2653
 2707TIP3    H129756   4.984   2.098   8.500  0.3787  0.2123  1.6093
 2707TIP3    H229757   5.126   2.092   8.450 -0.0440  0.1859  0.3814
 2708TIP3   OH229758   6.599   0.076   2.768  0.4331  0.5457 -0.0027
 2708TIP3    H129759   6.612   0.044   2.857 -0.1145  0.9012  0.2113
 2708TIP3    H229760   6.587  -0.003   2.715 -2.4211  0.3515  0.7494
 2709TIP3   OH229761   5.210   1.772   2.185  0.0683  0.1501  0.2862
 2709TIP3    H129762   5.244   1.687   2.210 -2.4207 -0.3233  2.4949
 2709TIP3    H229763   5.284   1.832   2.197  0.7595 -1.0688  2.8801
 2710TIP3   OH229764   6.499   6.631   3.740  0.3944  0.3698 -0.6670
 2710TIP3    H129765   6.468   6.721   3.733 -0.0348  0.3317  0.5232
 2710TIP3    H229766   6.574   6.627   3.679  1.6835  2.0926  0.6760
 2711TIP3   OH229767   6.046   4.542   8.254 -0.3783  0.2093  0.5232
 2711TIP3    H129768   6.076   4.517   8.341  2.0380 -1.0117 -0.5573
 2711TIP3    H229769   6.109   4.607   8.225  0.0093 -0.7874 -0.9954
 2712TIP3   OH229770   4.183   2.654   7.732  0.1170 -0.6552 -0.1887
 2712TIP3    H129771   4.251   2.646   7.664  0.4302 -1.6514  0.2324
 2712TIP3    H229772   4.103   2.673   7.683  0.5958  0.0758 -0.7261
 2713TIP3   OH229773   2.483   6.093   3.133  0.3535 -0.4841 -0.1171
 2713TIP3    H129774   2.391   6.067   3.142 -0.2874  0.7179 -2.4465
 2713TIP3    H229775   2.528   6.013   3.104 -0.3042 -0.6504 -0.7056
 2714TIP3   OH229776   4.644   5.392   1.520  0.7871 -0.0628  0.7054
 2714TIP3    H129777   4.699   5.398   1.442  1.7347  0.6261  1.4091
 2714TIP3    H229778   4.667   5.469   1.572 -1.8934  1.0927  0.3575
 2715TIP3   OH229779   4.671   4.037   7.194 -0.3836 -0.8578 -0.3228
 2715TIP3    H129780   4.723   4.096   7.139  0.3139 -0.6843  0.4850
 2715TIP3    H229781   4.631   3.976   7.133  2.3523 -2.2340 -0.9007
 2716TIP3   OH229782   2.840   4.559   0.993  0.4835 -0.2911  0.1131
 2716TIP3    H129783   2.823   4.538   1.085  0.5656 -0.8702 -0.0003
 2716TIP3    H229784   2.754   4.553   0.951  0.6899 -1.6402 -0.1537
 2717TIP3   OH229785   6.415   0.027   1.119 -0.1815 -0.5741  0.1473
 2717TIP3    H129786   6.320   0.022   1.109 -0.1971 -0.9800  0.4841
 2717TIP3    H229787   6.430   0.039   1.213  0.1677 -3.1815  0.5016
 2718TIP3   OH229788   0.848   5.257   2.340 -0.0991 -0.1541 -0.7950
 2718TIP3    H129789   0.762   5.279   2.377 -0.4986 -0.1424 -1.7192
 2718TIP3    H229790   0.895   5.341   2.337 -0.4688  0.0395 -1.3395
 2719TIP3   OH229791   4.607   5.339   7.738  0.1950 -0.0443  0.3826
 2719TIP3    H129792   4.613   5.398   7.813  1.4436  0.9823 -0.4691
 2719TIP3    H229793   4.690   5.351   7.692 -1.0621  0.4640 -1.9327
 2720TIP3   OH229794   0.671   6.795   1.932  0.0544 -0.4756 -0.4565
 2720TIP3    H129795   0.693   6.881   1.967 -1.9809 -0.0763 -0.0243
 2720TIP3    H229796   0.739   6.737   1.965 -0.2845  0.3922  1.9542
 2721TIP3   OH229797   3.285   5.580   7.556 -0.5327  0.0688 -0.3317
 2721TIP3    H129798   3.231   5.545   7.627 -0.8079 -0.7438 -0.9216
 2721TIP3    H229799   3.279   5.514   7.487 -1.0889  1.2739 -1.5030
 2722TIP3   OH229800   5.962   1.059   2.320 -0.0561  0.0087 -0.3627
 2722TIP3    H129801   5.990   1.049   2.411 -2.4788 -1.4975  0.3282
 2722TIP3    H229802   5.988   1.148   2.296  1.5884  0.0701  1.4185
 2723TIP3   OH229803   0.776   6.146   0.568  0.2145  0.2946  0.1757
 2723TIP3    H129804   0.856   6.135   0.620  0.7443  1.3889 -0.3640
 2723TIP3    H229805   0.760   6.060   0.529  0.5369 -0.2018  1.1037
 2724TIP3   OH229806   5.943   2.474   2.268  0.3041 -0.0633 -0.5209
 2724TIP3    H129807   5.862   2.521   2.248 -1.3921 -1.4519  2.4412
 2724TIP3    H229808   5.985   2.528   2.335  0.0332 -1.0216  0.4503
 2725TIP3   OH229809   6.549   2.723   1.875  0.1240  0.0330  0.4444
 2725TIP3    H129810   6.479   2.680   1.924 -0.1884 -0.0687 -0.0825
 2725TIP3    H229811   6.615   2.656   1.864  0.0227 -0.0588  0.3903
 2726TIP3   OH229812   4.548   2.772   7.695  0.1097 -0.1523  0.2494
 2726TIP3    H129813   4.488   2.706   7.661  0.4699 -0.8005  0.8620
 2726TIP3    H229814   4.551   2.838   7.626  1.0710 -1.5844 -1.1365
 2727TIP3   OH229815   0.172   0.964   7.832  0.4322 -0.7351 -0.3946
 2727TIP3    H129816   0.153   1.035   7.893 -0.2575 -0.6513 -0.7001
 2727TIP3    H229817   0.245   0.996   7.780 -0.5308  0.1766 -1.2135
 2728TIP3   OH229818   2.815   1.991   7.329 -0.1183  0.1768 -0.0422
 2728TIP3    H129819   2.758   1.915   7.336  3.1937 -2.4954  0.9412
 2728TIP3    H229820   2.792   2.032   7.246 -1.8198 -2.1405 -0.7937
 2729TIP3   OH229821   1.526   0.493   7.541  0.7164  0.2291  0.2120
 2729TIP3    H129822   1.540   0.587   7.556 -1.4238  0.5768  0.3464
 2729TIP3    H229823   1.562   0.476   7.454  1.3682  1.1156  0.3030
 2730TIP3   OH229824   4.430   4.471   0.846 -0.4461 -0.0283  0.1568
 2730TIP3    H129825   4.452   4.524   0.770  1.3755 -0.2687  0.4576
 2730TIP3    H229826   4.441   4.530   0.920  1.9414 -0.8020  0.5271
 2731TIP3   OH229827   4.519   2.365   1.532 -1.2467 -0.0911 -0.4244
 2731TIP3    H129828   4.604   2.409   1.529  0.3892 -2.9839 -0.8864
 2731TIP3    H229829   4.460   2.421   1.481  0.8857  1.0888 -1.7391
 2732TIP3   OH229830   3.961   0.029   2.093  0.2994 -0.0039  0.3060
 2732TIP3    H129831   3.932   0.015   2.003  1.0898 -1.3755  0.2383
 2732TIP3    H229832   4.011   0.111   2.090  0.8608 -0.3664 -0.6461
 2733TIP3   OH229833   4.782   6.368   0.537  0.4656  0.3790 -0.1628
 2733TIP3    H129834   4.870   6.336   0.518  0.5027  1.0140 -1.1051
 2733TIP3    H229835   4.790   6.464   0.536 -0.0801  0.4428  0.5116
 2734TIP3   OH229836   3.744   5.238   1.490 -0.1199 -0.0051  0.6086
 2734TIP3    H129837   3.741   5.190   1.573  0.5144  1.1569  1.3267
 2734TIP3    H229838   3.807   5.188   1.436 -0.0680 -0.4184  1.0462
 2735TIP3   OH229839   1.863   6.589   1.592 -0.0279 -0.0838 -0.7937
 2735TIP3    H129840   1.958   6.577   1.585  0.1070  1.1300 -1.3250
 2735TIP3    H229841   1.829   6.500   1.599  1.1593 -0.5360 -0.3981
 2736TIP3   OH229842   0.610   6.573   3.472 -0.5844 -0.9338 -0.1432
 2736TIP3    H129843   0.685   6.560   3.414 -1.4270  0.3748 -1.5919
 2736TIP3    H229844   0.648   6.578   3.559  1.1164  0.4344 -0.9047
 2737TIP3   OH229845   5.636   3.365   8.170 -0.2064 -0.1834  0.0453
 2737TIP3    H129846   5.681   3.432   8.222 -1.9020  0.5917  0.5939
 2737TIP3    H229847   5.706   3.312   8.133  1.1290 -0.5089  2.7737
 2738TIP3   OH229848   6.514   4.905   1.934 -0.8953  0.4726 -0.1721
 2738TIP3    H129849   6.574   4.962   1.887 -1.7026  1.4410 -0.0480
 2738TIP3    H229850   6.472   4.853   1.865  0.1398 -0.3014 -0.2511
 2739TIP3   OH229851   6.908   6.542   0.580  0.1789 -0.6892  0.4772
 2739TIP3    H129852   6.937   6.568   0.493  0.9340  0.3485  1.0118
 2739TIP3    H229853   6.938   6.452   0.591 -1.6886 -1.5719 -1.0850
 2740TIP3   OH229854   4.673   3.077   0.966  0.3722 -0.6800 -0.0531
 2740TIP3    H129855   4.748   3.120   0.926 -0.2002  0.9315  0.4943
 2740TIP3    H229856   4.624   3.039   0.893 -0.5857  2.0618 -0.9956
 2741TIP3   OH229857   5.153   0.665   7.637  0.0722  0.2153  0.3129
 2741TIP3    H129858   5.137   0.574   7.612 -0.1116 -0.1678  1.7163
 2741TIP3    H229859   5.223   0.660   7.702 -0.4679  0.9874  0.9696
 2742TIP3   OH229860   6.409   1.397   3.443 -0.1338  0.4542 -0.1781
 2742TIP3    H129861   6.318   1.374   3.462  0.1203  0.9107  1.8972
 2742TIP3    H229862   6.459   1.357   3.515  1.2508  0.6092 -1.0206
 2743TIP3   OH229863   1.846   6.048   2.470  0.2937 -0.0910  0.6375
 2743TIP3    H129864   1.896   6.130   2.473  0.8499 -0.3967 -0.2101
 2743TIP3    H229865   1.881   5.996   2.542  1.4717 -0.4476 -0.1677
 2744TIP3   OH229866   1.965   5.643   2.338  0.1357 -0.1397 -0.3332
 2744TIP3    H129867   2.030   5.620   2.272 -0.2720  1.5754 -1.3890
 2744TIP3    H229868   2.017   5.669   2.414  0.7649  1.7819 -1.3625
 2745TIP3   OH229869   6.001   2.171   0.986 -0.4570 -0.2747 -0.2259
 2745TIP3    H129870   5.945   2.228   1.039 -1.6474 -0.7521 -0.9134
 2745TIP3    H229871   6.027   2.225   0.912  0.9484  0.2942  0.6411
 2746TIP3   OH229872   4.068   4.527   0.416  0.1557  0.0834  0.2006
 2746TIP3    H129873   4.079   4.543   0.510  0.9990  1.2514 -0.0795
 2746TIP3    H229874   3.974   4.535   0.401  0.2667  3.0462  0.4428
 2747TIP3   OH229875   2.841   0.511   0.191  0.1513  0.3363  0.5127
 2747TIP3    H129876   2.817   0.570   0.262  0.2718 -0.5666  1.3253
 2747TIP3    H229877   2.935   0.495   0.204 -0.0815 -0.7985  0.9078
 2748TIP3   OH229878   3.764   4.944   0.393  0.0295 -0.0927  0.1462
 2748TIP3    H129879   3.711   4.971   0.318 -1.1819  1.0210  1.3412
 2748TIP3    H229880   3.798   5.026   0.429  1.4346 -0.6931  0.2322
 2749TIP3   OH229881   3.238   6.716   8.148  0.6329 -0.5778  0.2365
 2749TIP3    H129882   3.310   6.678   8.098 -0.1858 -0.5813 -0.9787
 2749TIP3    H229883   3.185   6.763   8.083  0.6721  1.2121  1.4304
 2750TIP3   OH229884   6.457   3.355   2.712  0.1439 -0.3650  0.1701
 2750TIP3    H129885   6.541   3.348   2.757  0.4325 -2.5289 -0.5938
 2750TIP3    H229886   6.393   3.371   2.782  0.9613 -0.5885  0.9813
 2751TIP3   OH229887   6.639   1.471   2.632 -0.7528  0.2364 -0.0173
 2751TIP3    H129888   6.608   1.382   2.649 -1.5428  0.1263 -1.8075
 2751TIP3    H229889   6.704   1.461   2.562 -2.4774  1.2291 -1.8569
 2752TIP3   OH229890   4.452   3.788   2.843  0.5591  0.0783 -0.4160
 2752TIP3    H129891   4.419   3.876   2.863 -0.5159 -0.3201 -0.3613
 2752TIP3    H229892   4.458   3.745   2.928 -3.7654 -1.5315 -0.7005
 2753TIP3   OH229893   2.481   6.836   8.022 -0.0234  0.4214  0.2756
 2753TIP3    H129894   2.528   6.824   8.105  1.2818  0.5384 -0.4285
 2753TIP3    H229895   2.449   6.926   8.025 -3.5491 -0.6744  2.3839
 2754TIP3   OH229896   2.753   4.660   1.575  0.1465  0.4029  0.0926
 2754TIP3    H129897   2.689   4.626   1.512  1.6424 -1.1205 -0.7087
 2754TIP3    H229898   2.701   4.681   1.653 -1.5898  1.2230 -1.2176
 2755TIP3   OH229899   3.070   1.948   7.433 -0.1248  0.0725  0.4787
 2755TIP3    H129900   2.989   1.970   7.387  0.0197  0.3445  0.3477
 2755TIP3    H229901   3.062   1.991   7.518 -0.1552  0.0327  0.4955
 2756TIP3   OH229902   4.243   2.356   3.416 -0.0210  0.1077  0.5219
 2756TIP3    H129903   4.269   2.345   3.324  0.3519  1.7335  0.3960
 2756TIP3    H229904   4.287   2.285   3.462 -2.0514 -2.1674 -0.8403
 2757TIP3   OH229905   2.945   1.559   2.551  0.4998  0.1793  0.1721
 2757TIP3    H129906   2.910   1.637   2.508  1.8708  0.6146 -0.2165
 2757TIP3    H229907   3.030   1.544   2.508  0.4140 -1.3320  0.4615
 2758TIP3   OH229908   4.567   5.432   2.087 -0.0868 -0.6395 -0.2057
 2758TIP3    H129909   4.532   5.520   2.099  0.4868 -0.5460  0.9631
 2758TIP3    H229910   4.563   5.416   1.993 -0.8270  0.3654 -0.3538
 2759TIP3   OH229911   6.111   1.823   2.066 -0.4586 -0.1865 -0.3223
 2759TIP3    H129912   6.108   1.769   1.987 -0.2759 -0.3490 -0.2217
 2759TIP3    H229913   6.100   1.760   2.138 -1.8135  0.1080 -0.2620
 2760TIP3   OH229914   1.333   2.743   1.448  0.2182  0.1321 -0.0504
 2760TIP3    H129915   1.244   2.766   1.472  0.1333 -0.3677  0.1451
 2760TIP3    H229916   1.386   2.769   1.524 -0.0907 -1.7276  0.8804
 2761TIP3   OH229917   2.152   5.028   2.139 -0.9163  0.0639 -0.1731
 2761TIP3    H129918   2.101   5.071   2.070 -0.0114 -0.7021 -1.3504
 2761TIP3    H229919   2.191   4.952   2.096  1.5817  0.8528  0.5367
 2762TIP3   OH229920   2.356   3.534   8.520 -0.3507 -0.5339  0.2414
 2762TIP3    H129921   2.367   3.447   8.484 -0.8049 -1.6417  2.5594
 2762TIP3    H229922   2.301   3.580   8.456  0.7846 -1.5534 -1.5308
 2763TIP3   OH229923   3.008   1.487   2.822 -1.0267  0.1952  0.7091
 2763TIP3    H129924   2.990   1.509   2.730 -0.8157 -0.2897  0.5465
 2763TIP3    H229925   3.053   1.564   2.857 -0.5373  0.1330  0.2272
 2764TIP3   OH229926   4.427   0.498   1.244 -0.2487  0.1413  0.2361
 2764TIP3    H129927   4.438   0.521   1.152 -0.1311 -1.9350 -0.2998
 2764TIP3    H229928   4.488   0.426   1.259 -0.2461  0.4530  1.9591
 2765TIP3   OH229929   0.052   1.734   1.074  0.6498 -0.2076 -0.4898
 2765TIP3    H129930  -0.015   1.781   1.025  2.5734  1.0102 -2.1499
 2765TIP3    H229931   0.129   1.736   1.016  2.5479 -0.2255  1.8812
 2766TIP3   OH229932   5.730   1.769   0.545 -0.0864  0.0570 -0.6308
 2766TIP3    H129933   5.662   1.822   0.503 -0.2832 -0.3404 -0.8151
 2766TIP3    H229934   5.730   1.798   0.636  0.0802  0.6539 -0.8191
 2767TIP3   OH229935   3.362   5.720   7.963 -0.4092 -0.0384  0.6496
 2767TIP3    H129936   3.372   5.673   7.880  0.7529  1.5136 -0.1195
 2767TIP3    H229937   3.451   5.741   7.991 -0.8805  2.4250  0.5251
 2768TIP3   OH229938   4.590   5.587   2.572 -0.6349  0.1890  0.4496
 2768TIP3    H129939   4.636   5.537   2.504 -0.4651  0.0373  0.6749
 2768TIP3    H229940   4.503   5.602   2.535  0.1082  1.9610 -0.7148
 2769TIP3   OH229941   4.436   2.461   8.544 -0.0582 -0.1386  0.8241
 2769TIP3    H129942   4.419   2.375   8.581  1.0611 -0.8452 -0.2284
 2769TIP3    H229943   4.349   2.502   8.538 -0.7675 -1.6419  0.2805
 2770TIP3   OH229944   0.969   6.570   2.504 -0.6905  0.4916 -0.8820
 2770TIP3    H129945   1.054   6.571   2.460 -0.6406 -1.1630 -0.8718
 2770TIP3    H229946   0.972   6.646   2.563  1.2037 -0.1263 -0.0925
 2771TIP3   OH229947   0.202   5.379   2.277 -0.4862  0.5461 -0.3382
 2771TIP3    H129948   0.268   5.398   2.210 -0.8794  3.4072 -0.0431
 2771TIP3    H229949   0.119   5.402   2.235 -0.9309  0.3578  0.4373
 2772TIP3   OH229950   1.385   4.630   1.176  0.4716  0.1077  0.2985
 2772TIP3    H129951   1.372   4.724   1.188  0.5183  0.2336 -0.5822
 2772TIP3    H229952   1.328   4.590   1.242 -0.5137  0.7397 -0.1412
 2773TIP3   OH229953   1.771   3.864   2.749 -0.1258 -0.4728  0.2256
 2773TIP3    H129954   1.814   3.790   2.793  1.1273 -0.0734 -0.2928
 2773TIP3    H229955   1.813   3.941   2.785 -1.8689  0.0737  1.2413
 2774TIP3   OH229956   6.622   4.975   0.467  0.1015  0.4724 -0.2549
 2774TIP3    H129957   6.600   4.928   0.386  0.5964  0.2066 -0.2377
 2774TIP3    H229958   6.537   5.003   0.502 -0.0261  2.2940 -1.8644
 2775TIP3   OH229959   2.168   6.759   1.459 -0.4954  0.3331 -0.2349
 2775TIP3    H129960   2.241   6.748   1.398  0.4262  3.8008  0.0451
 2775TIP3    H229961   2.161   6.674   1.503  1.0121 -1.2180 -2.7338
 2776TIP3   OH229962   1.007   5.609   7.691  0.3856  0.0926 -0.1168
 2776TIP3    H129963   0.939   5.673   7.672 -0.5732 -0.6035  0.8475
 2776TIP3    H229964   0.977   5.528   7.651  0.7963 -0.1411  0.0376
 2777TIP3   OH229965   1.643   0.139   0.219 -0.4690  0.0028  0.2575
 2777TIP3    H129966   1.589   0.186   0.282 -0.8145 -0.4658  0.3210
 2777TIP3    H229967   1.661   0.055   0.262 -1.2790 -0.5945 -0.5370
 2778TIP3   OH229968   0.149   4.162   2.199 -0.4033 -0.0988 -0.4778
 2778TIP3    H129969   0.133   4.099   2.269  0.0473  0.2312 -0.0718
 2778TIP3    H229970   0.245   4.165   2.190 -0.4081  0.7273 -0.3055
 2779TIP3   OH229971   4.307   6.156   1.004 -0.3447 -0.3055 -0.2039
 2779TIP3    H129972   4.340   6.246   1.010  0.3288 -0.5036 -0.7538
 2779TIP3    H229973   4.386   6.103   0.986 -0.7087 -1.0198  0.2612
 2780TIP3   OH229974   3.019   5.739   2.280  0.1389  0.9978 -1.0443
 2780TIP3    H129975   2.949   5.743   2.215 -0.6677  0.2289 -0.2434
 2780TIP3    H229976   3.015   5.650   2.314  0.8999  1.2314 -0.3179
 2781TIP3   OH229977   4.321   5.616   1.749 -0.2735 -0.2004 -0.2197
 2781TIP3    H129978   4.392   5.677   1.770 -1.6994  1.3476  0.3231
 2781TIP3    H229979   4.310   5.624   1.654  0.3830 -0.5919 -0.3352
 2782TIP3   OH229980   2.736   4.379   1.814  0.5732 -0.3151 -0.4657
 2782TIP3    H129981   2.678   4.319   1.767  0.9632 -0.5944 -0.6011
 2782TIP3    H229982   2.812   4.325   1.836 -0.1341 -0.5333  1.6178
 2783TIP3   OH229983   5.853   5.213   1.216 -0.4475  0.1015  0.3059
 2783TIP3    H129984   5.816   5.192   1.130  2.7997  0.6375 -1.4215
 2783TIP3    H229985   5.821   5.144   1.274 -1.6555 -1.0892 -1.6657
 2784TIP3   OH229986   6.794   4.426   3.633  0.5602  0.4858  0.0622
 2784TIP3    H129987   6.842   4.477   3.698  1.1408  0.1498 -0.0956
 2784TIP3    H229988   6.832   4.453   3.549  0.6302  0.0477 -0.0480
 2785TIP3   OH229989   5.204   0.413   3.500  0.4041  0.3387  0.1105
 2785TIP3    H129990   5.291   0.395   3.464  0.0599  1.2852 -1.2806
 2785TIP3    H229991   5.221   0.459   3.582  1.2274  0.7763 -0.2860
 2786TIP3   OH229992   1.771   2.024   6.660 -0.4362  0.8596  0.1311
 2786TIP3    H129993   1.863   2.048   6.648 -0.5374  1.7982  1.0298
 2786TIP3    H229994   1.723   2.086   6.605 -0.5483  0.6275 -0.0308
 2787TIP3   OH229995   1.493   0.518   1.950 -0.1643  0.0742 -0.1514
 2787TIP3    H129996   1.450   0.436   1.924  0.6849 -0.4695  0.0977
 2787TIP3    H229997   1.431   0.560   2.009 -2.0536  1.2333 -2.7701
 2788TIP3   OH229998   2.646   3.765   2.609  0.3554  0.0530 -0.0585
 2788TIP3    H129999   2.729   3.774   2.655 -0.3692 -0.9960  1.5320
 2788TIP3    H230000   2.582   3.807   2.667 -0.1139  1.8782 -1.7747
 2789TIP3   OH230001   2.700   2.313   2.424  0.0130 -0.2557  0.4768
 2789TIP3    H130002   2.652   2.310   2.507  0.9061 -0.1518  1.0090
 2789TIP3    H230003   2.787   2.344   2.448  0.9006 -2.0597 -0.1814
 2790TIP3   OH230004   2.714   0.946   1.663  0.1682  0.5590  0.1599
 2790TIP3    H130005   2.796   0.908   1.633  0.0217  0.4550 -0.1138
 2790TIP3    H230006   2.677   0.879   1.721  0.3798  0.6967  0.4530
 2791TIP3   OH230007   1.295   0.197   1.635 -0.1031  0.0893  0.3772
 2791TIP3    H130008   1.276   0.283   1.597  0.8944  0.1919  0.0766
 2791TIP3    H230009   1.371   0.166   1.586  1.8396  0.6296  2.8651
 2792TIP3   OH230010   2.084   5.753   1.572  0.2882 -0.6565  0.0143
 2792TIP3    H130011   1.999   5.710   1.570 -0.4560  0.7409 -0.1285
 2792TIP3    H230012   2.116   5.738   1.661 -0.1310 -1.1419  0.0903
 2793TIP3   OH230013   5.446   4.436   0.288 -0.1838  0.2748 -0.2151
 2793TIP3    H130014   5.356   4.441   0.256 -0.1470 -0.9623 -0.5824
 2793TIP3    H230015   5.437   4.423   0.383 -0.4004  0.1218 -0.2547
 2794TIP3   OH230016   5.501   4.549   7.043 -0.8627  0.7365 -0.6328
 2794TIP3    H130017   5.524   4.605   6.969 -0.4155 -0.8701 -1.7640
 2794TIP3    H230018   5.517   4.460   7.012 -0.3865  0.0163  1.5122
 2795TIP3   OH230019   5.003   1.529   1.111 -0.0739 -0.3253  0.3669
 2795TIP3    H130020   5.037   1.447   1.075  0.6098  0.4439 -0.8065
 2795TIP3    H230021   4.913   1.533   1.080 -0.6909 -1.4463  1.8853
 2796TIP3   OH230022   2.043   2.923   0.541  0.0056  0.1062  0.6039
 2796TIP3    H130023   1.962   2.943   0.588 -0.4130 -0.6329  0.2175
 2796TIP3    H230024   2.019   2.929   0.448  0.0413 -1.4132  0.4798
 2797TIP3   OH230025   1.090   5.123   2.339  0.7295  0.0621  0.2026
 2797TIP3    H130026   1.083   5.078   2.424  1.3757 -2.2913 -0.9145
 2797TIP3    H230027   1.000   5.147   2.317  0.3261 -0.9607  0.7004
 2798TIP3   OH230028   5.741   4.283   8.031 -0.5939  0.0738 -0.5821
 2798TIP3    H130029   5.678   4.355   8.023  0.2193  0.8698 -0.1155
 2798TIP3    H230030   5.825   4.322   8.005 -0.2578 -0.9204 -1.0391
 2799TIP3   OH230031   0.428   4.756   2.892  0.2916  0.2271 -0.0044
 2799TIP3    H130032   0.373   4.768   2.970  0.6702  0.6918  0.1968
 2799TIP3    H230033   0.486   4.684   2.915 -0.8404 -0.8956 -0.5669
 2800TIP3   OH230034   6.896   5.335   1.901  0.1036 -0.3290  0.0953
 2800TIP3    H130035   6.908   5.279   1.978 -0.9786  0.2264  0.6859
 2800TIP3    H230036   6.946   5.414   1.921 -2.6327  1.1655  1.7018
 2801TIP3   OH230037   3.949   2.901   1.487  0.3328 -0.3715  0.3329
 2801TIP3    H130038   3.896   2.845   1.544 -0.0729 -1.0518 -0.6968
 2801TIP3    H230039   4.037   2.866   1.495 -0.1994 -2.3332 -1.6514
 2802TIP3   OH230040   6.194   1.682   3.148 -0.2350  0.1072 -0.3334
 2802TIP3    H130041   6.141   1.654   3.074 -1.6358  3.6939 -0.8637
 2802TIP3    H230042   6.143   1.656   3.225 -1.3267  0.8816 -0.7765
 2803TIP3   OH230043   5.402   6.689   0.214  0.0968 -0.1090 -0.4298
 2803TIP3    H130044   5.402   6.621   0.147  1.0704 -1.4068  0.8024
 2803TIP3    H230045   5.486   6.678   0.259 -0.6156  0.5210  1.1458
 2804TIP3   OH230046   4.545   0.698   7.917 -0.0020  0.3966  0.2464
 2804TIP3    H130047   4.587   0.700   7.831 -1.4567  1.0548 -0.4950
 2804TIP3    H230048   4.476   0.632   7.908  0.1966  0.0539  1.1080
 2805TIP3   OH230049   1.783   6.625   1.309  0.0361  0.3198  0.7071
 2805TIP3    H130050   1.818   6.602   1.395  3.0050  0.5080 -0.3263
 2805TIP3    H230051   1.741   6.545   1.278  0.9585 -0.4685  1.4071
 2806TIP3   OH230052   4.973   6.666   1.502 -0.1644 -0.0035 -0.3150
 2806TIP3    H130053   4.945   6.716   1.426 -0.9435 -0.7747 -0.5445
 2806TIP3    H230054   5.022   6.592   1.466  2.8404  1.6300  0.0849
 2807TIP3   OH230055   0.781   0.226   0.751  0.1044  0.0701 -0.0277
 2807TIP3    H130056   0.704   0.278   0.774  0.9621  1.8542 -1.0095
 2807TIP3    H230057   0.763   0.192   0.664  0.9749  1.7163 -0.8949
 2808TIP3   OH230058   2.906   2.632   0.487 -0.1269 -0.5066  0.6495
 2808TIP3    H130059   2.852   2.561   0.521  0.2326  0.4809  3.5355
 2808TIP3    H230060   2.876   2.710   0.533 -0.0732  1.1746 -1.9319
 2809TIP3   OH230061   2.635   5.379   1.594 -0.4425 -0.7920  0.1604
 2809TIP3    H130062   2.692   5.426   1.533 -0.7436 -0.4386  0.1470
 2809TIP3    H230063   2.559   5.437   1.605 -1.4548 -1.8704 -0.8954
 2810TIP3   OH230064   5.582   1.679   1.448  0.7045  0.0158 -0.1561
 2810TIP3    H130065   5.596   1.587   1.425 -0.3686  0.2612 -1.9297
 2810TIP3    H230066   5.491   1.682   1.476  0.9273  0.4369  0.5321
 2811TIP3   OH230067   0.824   6.905   0.869  0.4612  0.1285  0.3245
 2811TIP3    H130068   0.800   6.928   0.958 -0.8022 -0.9154  0.2845
 2811TIP3    H230069   0.830   6.989   0.823 -3.2343  0.5761  0.3530
 2812TIP3   OH230070   1.182   2.575   1.258  0.6838  0.0930  0.3098
 2812TIP3    H130071   1.201   2.482   1.270  1.6089 -0.0304 -1.7155
 2812TIP3    H230072   1.242   2.620   1.317  2.7544 -0.5276 -1.2102
 2813TIP3   OH230073   5.587   5.119   1.345 -0.0721 -0.0072  0.7410
 2813TIP3    H130074   5.522   5.189   1.344  0.8314  0.8728  1.5613
 2813TIP3    H230075   5.575   5.073   1.262 -1.1279  0.7014  0.4951
 2814TIP3   OH230076   6.098   0.658   2.774 -0.4116  0.1313 -0.2720
 2814TIP3    H130077   6.125   0.707   2.696 -3.2213  2.5266  0.0589
 2814TIP3    H230078   6.151   0.696   2.845  0.9756 -0.8991 -0.7225
 2815TIP3   OH230079   5.416   0.476   3.215 -0.0588 -0.8477 -0.2928
 2815TIP3    H130080   5.326   0.484   3.183  0.1042 -1.2810 -0.8666
 2815TIP3    H230081   5.463   0.548   3.173 -0.0256 -0.9240 -0.3862
 2816TIP3   OH230082   2.377   2.518   8.066  0.1693  0.1474 -0.5221
 2816TIP3    H130083   2.443   2.524   8.136  0.3336  0.8854 -0.7367
 2816TIP3    H230084   2.418   2.558   7.990  0.5749 -1.9756 -1.5206
 2817TIP3   OH230085   5.848   5.056   0.555  0.4026  0.2839 -0.1875
 2817TIP3    H130086   5.783   4.985   0.552 -0.7566  1.3198 -3.2132
 2817TIP3    H230087   5.931   5.011   0.572 -0.1457 -2.0325 -2.8716
 2818TIP3   OH230088   5.437   4.552   7.662  0.1511  0.2467  0.0284
 2818TIP3    H130089   5.502   4.620   7.679  0.3057  0.8548 -2.5457
 2818TIP3    H230090   5.399   4.532   7.748  2.3290  1.2793  1.3172
 2819TIP3   OH230091   5.145   5.162   0.299 -0.3717  0.7692 -0.2594
 2819TIP3    H130092   5.165   5.070   0.312  0.6293  1.1716  1.3975
 2819TIP3    H230093   5.198   5.188   0.223 -0.2018  0.1238 -0.3634
 2820TIP3   OH230094   6.221   5.222   0.083 -0.0131 -0.0706  0.1733
 2820TIP3    H130095   6.275   5.287   0.037 -1.4016  0.9765 -0.0495
 2820TIP3    H230096   6.192   5.163   0.014 -0.2951  0.1955  0.0629
 2821TIP3   OH230097   2.802   3.434   1.494 -0.4886  0.0688  0.1461
 2821TIP3    H130098   2.732   3.379   1.457  0.4364  0.1774 -1.9031
 2821TIP3    H230099   2.883   3.388   1.472  0.1706  0.6700  1.2180
 2822TIP3   OH230100   0.459   1.523   2.624 -0.0319  0.2806  0.5531
 2822TIP3    H130101   0.459   1.612   2.587 -0.7459 -0.4393 -1.3227
 2822TIP3    H230102   0.533   1.480   2.582 -0.0063 -0.1685  1.0542
 2823TIP3   OH230103   2.704   4.579   2.388  0.7604 -0.1134 -0.4424
 2823TIP3    H130104   2.652   4.612   2.461  1.6319 -0.7492  0.4848
 2823TIP3    H230105   2.741   4.497   2.420 -1.0296 -1.8808 -2.5242
 2824TIP3   OH230106   0.457   6.216   0.097  0.1898 -0.1010  0.4361
 2824TIP3    H130107   0.394   6.256   0.037 -0.4978  0.1442  1.3074
 2824TIP3    H230108   0.449   6.122   0.082  0.2861 -0.0288 -0.1043
 2825TIP3   OH230109   3.259   3.191   8.527  0.4725  0.2071  0.5410
 2825TIP3    H130110   3.170   3.160   8.513  0.3549  1.6238 -2.5864
 2825TIP3    H230111   3.313   3.112   8.528 -0.6683 -0.5806  1.3420
 2826TIP3   OH230112   3.425   4.502   1.623 -0.5361 -0.0868  0.2690
 2826TIP3    H130113   3.479   4.572   1.659 -0.2346  0.4418 -1.1489
 2826TIP3    H230114   3.487   4.434   1.596 -0.6426  0.1126 -0.4914
 2827TIP3   OH230115   3.946   6.706   8.334  0.3544  0.0936 -0.3363
 2827TIP3    H130116   3.895   6.785   8.352 -0.6889 -0.3255 -1.3661
 2827TIP3    H230117   3.906   6.668   8.256  0.8935 -1.4116  0.0770
 2828TIP3   OH230118   1.582   5.806   0.057 -0.4915 -0.4709 -0.4665
 2828TIP3    H130119   1.626   5.861   0.122  0.1666 -1.6596  0.1413
 2828TIP3    H230120   1.653   5.768   0.006 -1.0260  0.8606 -2.2768
 2829TIP3   OH230121   3.667   2.644   2.154 -0.2853  0.9043 -0.8713
 2829TIP3    H130122   3.615   2.564   2.166  2.3074 -1.0307 -1.5229
 2829TIP3    H230123   3.734   2.638   2.222  0.7151  1.8430 -1.7476
 2830TIP3   OH230124   3.234   1.711   1.843 -0.0620 -0.1416 -0.3850
 2830TIP3    H130125   3.314   1.752   1.810  0.0651  1.5431  1.7960
 2830TIP3    H230126   3.265   1.639   1.898 -0.0128  0.5021  0.4484
 2831TIP3   OH230127   5.621   0.553   3.589 -0.4236 -0.3505  0.7495
 2831TIP3    H130128   5.681   0.628   3.589 -0.8335  0.1834 -3.0410
 2831TIP3    H230129   5.640   0.507   3.671  1.3642  2.6697  2.2126
 2832TIP3   OH230130   4.446   4.375   8.115  0.1744  0.0994  0.8087
 2832TIP3    H130131   4.401   4.339   8.191  1.0166  0.3223  1.4317
 2832TIP3    H230132   4.452   4.469   8.133 -0.1807  0.2561  0.1617
 2833TIP3   OH230133   2.858   4.496   7.639  0.6291 -0.0723 -0.6095
 2833TIP3    H130134   2.871   4.538   7.553  0.8684  0.4782 -0.3130
 2833TIP3    H230135   2.886   4.563   7.702  2.4545 -1.1876 -0.1651
 2834TIP3   OH230136   3.226   4.804   3.375  0.2644  0.2855  0.1880
 2834TIP3    H130137   3.308   4.847   3.350  0.3311  0.8351  1.2640
 2834TIP3    H230138   3.254   4.728   3.426  0.1131  0.1613  0.0863
 2835TIP3   OH230139   2.199   1.196   2.929 -0.2307 -0.9423  0.0915
 2835TIP3    H130140   2.248   1.158   3.002  0.5618 -0.5318 -0.2137
 2835TIP3    H230141   2.226   1.288   2.928 -0.5350 -0.8565 -0.4768
 2836TIP3   OH230142   6.393   4.436   0.331 -0.0402 -0.2405 -0.3870
 2836TIP3    H130143   6.432   4.482   0.257  1.7477 -1.1773 -0.0926
 2836TIP3    H230144   6.420   4.345   0.319 -1.6368 -0.8286  0.2169
 2837TIP3   OH230145   3.262   2.555   1.445  0.3651  0.1996  0.3217
 2837TIP3    H130146   3.300   2.469   1.427  0.0298  0.1852 -0.3816
 2837TIP3    H230147   3.273   2.567   1.539  2.2782  0.2761  0.1372
 2838TIP3   OH230148   3.950   1.239   2.388 -0.1092 -0.4330 -0.2567
 2838TIP3    H130149   4.009   1.177   2.345  0.3877 -0.0284 -0.1681
 2838TIP3    H230150   3.947   1.209   2.479  0.2187 -0.2694 -0.1891
 2839TIP3   OH230151   1.396   2.177   0.626  0.0750 -0.1103 -0.5247
 2839TIP3    H130152   1.449   2.127   0.689  0.1061 -0.3905 -0.7729
 2839TIP3    H230153   1.451   2.183   0.548 -0.1265 -0.1140 -0.6667
 2840TIP3   OH230154   2.519   4.697   1.170  0.3243  0.0242 -0.1164
 2840TIP3    H130155   2.529   4.752   1.092 -1.7549 -1.6196 -1.6879
 2840TIP3    H230156   2.425   4.682   1.176  0.4365  0.0307  2.7365
 2841TIP3   OH230157   1.548   1.743   0.837 -0.5021 -0.0689  0.6147
 2841TIP3    H130158   1.598   1.733   0.918 -0.2879 -0.0992  0.4798
 2841TIP3    H230159   1.457   1.748   0.866 -0.3392  1.2010  0.9543
 2842TIP3   OH230160   5.232   3.335   8.078 -0.1642 -0.1574  0.0014
 2842TIP3    H130161   5.187   3.395   8.018  0.7154  0.0088 -0.5087
 2842TIP3    H230162   5.171   3.262   8.089 -0.6917  0.2107 -0.4202
 2843TIP3   OH230163   6.340   3.450   7.986 -0.0160 -0.2568  0.1402
 2843TIP3    H130164   6.426   3.408   7.973 -0.0558 -1.0535  2.1329
 2843TIP3    H230165   6.281   3.377   8.005 -0.7255  0.4528  0.7024
 2844TIP3   OH230166   0.253   1.717   2.859 -0.4580 -0.3265  0.0343
 2844TIP3    H130167   0.185   1.763   2.810 -0.8566  0.1134  0.9932
 2844TIP3    H230168   0.300   1.785   2.906 -0.0629 -0.7457  0.2601
 2845TIP3   OH230169   5.944   3.035   0.633  0.0672  0.2498 -0.2887
 2845TIP3    H130170   5.856   3.072   0.626 -0.3995 -0.3215  1.7395
 2845TIP3    H230171   5.929   2.947   0.670  1.5089  0.3852  0.6805
 2846TIP3   OH230172   4.337   6.228   1.811 -1.1042 -0.2078  0.0586
 2846TIP3    H130173   4.424   6.262   1.833 -1.5554  2.2083 -1.4937
 2846TIP3    H230174   4.354   6.140   1.776  0.6106 -0.1031  0.5365
 2847TIP3   OH230175   3.840   2.911   2.309 -0.1833  0.0068  0.0986
 2847TIP3    H130176   3.868   2.827   2.345 -1.4601 -0.7020 -0.4849
 2847TIP3    H230177   3.921   2.962   2.301  0.5540 -0.9992  0.8626
 2848TIP3   OH230178   1.700   1.205   8.041 -0.1528  0.1667 -0.0637
 2848TIP3    H130179   1.639   1.278   8.034 -0.0562  0.1306 -1.9007
 2848TIP3    H230180   1.644   1.127   8.038 -0.2099  0.1414  1.2654
 2849TIP3   OH230181   4.981   3.455   1.462  0.4731 -0.5299 -0.6277
 2849TIP3    H130182   4.974   3.511   1.540 -0.1443  0.5793 -1.4550
 2849TIP3    H230183   5.037   3.383   1.490 -0.4002 -0.5908  1.0915
 2850TIP3   OH230184   6.379   0.373   2.196 -0.1193 -0.5739  0.2371
 2850TIP3    H130185   6.438   0.312   2.152 -0.4129 -1.2994  0.8188
 2850TIP3    H230186   6.383   0.348   2.289 -2.8473 -1.9948  0.0771
 2851TIP3   OH230187   6.566   6.467   0.116 -0.2061 -0.5770 -0.0542
 2851TIP3    H130188   6.597   6.420   0.194  1.3341  0.1897 -0.1522
 2851TIP3    H230189   6.499   6.410   0.079  0.9510 -2.2812  0.3186
 2852TIP3   OH230190   1.653   6.766   0.892  0.4074  0.5829 -0.2784
 2852TIP3    H130191   1.588   6.835   0.902  0.0808  0.1670  0.5631
 2852TIP3    H230192   1.713   6.778   0.965 -0.7750 -1.1948  1.0831
 2853TIP3   OH230193   2.105   3.687   8.631  0.0665 -0.4499  0.1591
 2853TIP3    H130194   2.176   3.661   8.571 -1.2895  1.4017 -2.4592
 2853TIP3    H230195   2.075   3.772   8.597 -2.5253 -0.5228  1.9844
 2854TIP3   OH230196   3.838   6.805   1.374  0.2495 -0.2918 -0.1232
 2854TIP3    H130197   3.876   6.738   1.318 -1.5207 -2.7356  1.3486
 2854TIP3    H230198   3.903   6.819   1.443  0.4149 -0.9332 -0.1449
 2855TIP3   OH230199   4.826   5.068   3.282  0.5229 -0.3199 -0.3403
 2855TIP3    H130200   4.784   5.099   3.363 -0.3391 -1.8040 -0.1871
 2855TIP3    H230201   4.919   5.087   3.295  0.7385 -2.4150  1.9709
 2856TIP3   OH230202   6.001   5.923   0.315  0.1110 -0.2891  0.9009
 2856TIP3    H130203   6.001   5.886   0.403  1.3533  0.0917  1.0763
 2856TIP3    H230204   6.075   5.882   0.271 -0.4573 -0.4204  0.0508
 2857TIP3   OH230205   1.259   3.687   8.555 -0.3172 -0.1784  0.4320
 2857TIP3    H130206   1.305   3.749   8.612  0.9894  0.5203 -1.2752
 2857TIP3    H230207   1.205   3.635   8.614  0.6281  0.7945  2.2336
 2858TIP3   OH230208   0.184   5.483   1.286 -0.5510 -0.7719 -0.0269
 2858TIP3    H130209   0.167   5.531   1.367  1.0385  3.4361 -1.9178
 2858TIP3    H230210   0.265   5.435   1.302  0.5935  1.2405  0.5141
 2859TIP3   OH230211   6.323   3.985   2.516  0.1110  0.4511  1.2520
 2859TIP3    H130212   6.357   3.977   2.427  0.5560  1.5075  1.3060
 2859TIP3    H230213   6.335   3.899   2.555  0.7887  0.2352  0.5880
 2860TIP3   OH230214   1.391   3.246   2.007 -0.0794  0.3180 -0.3153
 2860TIP3    H130215   1.347   3.303   2.070 -1.9034  0.3796 -1.5697
 2860TIP3    H230216   1.365   3.157   2.032  2.2618  0.0072  1.2605
 2861TIP3   OH230217   6.624   4.492   0.554 -0.0671 -0.0285 -0.4701
 2861TIP3    H130218   6.694   4.537   0.508 -1.0874  3.5035  1.0737
 2861TIP3    H230219   6.549   4.495   0.494 -0.2248  0.7370 -0.2490
 2862TIP3   OH230220   2.676   6.777   0.591  0.0673 -0.1859 -0.0999
 2862TIP3    H130221   2.767   6.781   0.622 -0.0596  0.2865  0.2205
 2862TIP3    H230222   2.674   6.837   0.517  0.1460 -0.6132 -0.4522
 2863TIP3   OH230223   3.718   1.873   1.573  0.4358 -0.5073  0.4744
 2863TIP3    H130224   3.661   1.947   1.595 -0.1768  0.0452 -2.5077
 2863TIP3    H230225   3.663   1.814   1.522  1.5861 -1.8183  0.6947
 2864TIP3   OH230226   4.739   2.594   8.415  0.3441 -0.2070 -0.4469
 2864TIP3    H130227   4.802   2.535   8.373  0.1762  0.8892 -2.3494
 2864TIP3    H230228   4.654   2.560   8.388  0.0661 -1.3756  1.6937
 2865TIP3   OH230229   3.371   4.380   0.447 -0.3784 -0.3186 -0.1920
 2865TIP3    H130230   3.277   4.373   0.465 -0.5049  1.1640 -0.2154
 2865TIP3    H230231   3.401   4.289   0.444 -1.9158 -0.8337 -0.7792
 2866TIP3   OH230232   3.121   1.764   8.549  0.3132 -0.2537  0.0267
 2866TIP3    H130233   3.040   1.723   8.580 -0.1853 -0.8695 -1.9689
 2866TIP3    H230234   3.092   1.841   8.500  0.9788 -0.1194 -0.1706
 2867TIP3   OH230235   1.414   0.617   7.972  0.6157 -0.0347  0.3220
 2867TIP3    H130236   1.498   0.607   8.016  0.4357  2.1983  1.3328
 2867TIP3    H230237   1.430   0.684   7.906 -0.4408  0.7135  0.7965
 2868TIP3   OH230238   5.575   5.525   8.209 -0.4616  0.3560 -0.3286
 2868TIP3    H130239   5.485   5.492   8.208 -0.4887  0.4012  0.2490
 2868TIP3    H230240   5.584   5.574   8.128  0.0298 -2.2761 -2.0065
 2869TIP3   OH230241   0.476   3.126   2.301 -0.4897 -0.4320  0.2680
 2869TIP3    H130242   0.419   3.174   2.242 -1.3266  0.4302  1.7091
 2869TIP3    H230243   0.416   3.077   2.358  0.1376  0.7772  2.0544
 2870TIP3   OH230244   5.887   0.807   0.921  0.4325 -0.4644  0.6041
 2870TIP3    H130245   5.922   0.862   0.991  0.4954  2.5834 -1.5765
 2870TIP3    H230246   5.960   0.749   0.898  2.9410  2.9857 -1.1487
 2871TIP3   OH230247   0.197   3.836   0.025 -0.2765 -0.1285  0.1664
 2871TIP3    H130248   0.135   3.848  -0.048  0.6008 -1.0254 -0.7636
 2871TIP3    H230249   0.195   3.742   0.042  0.7829 -0.1570  0.1672
 2872TIP3   OH230250   6.538   0.703   3.079  0.1059 -0.0353  0.3031
 2872TIP3    H130251   6.566   0.778   3.131  1.5836  0.2916 -0.8778
 2872TIP3    H230252   6.492   0.646   3.141  0.6914  0.9159  1.6583
 2873TIP3   OH230253   1.845   4.521   2.596  0.4204 -0.4100  0.3795
 2873TIP3    H130254   1.770   4.463   2.589  0.3968 -0.6945  2.5230
 2873TIP3    H230255   1.919   4.468   2.565  0.0953 -0.9208  0.4691
 2874TIP3   OH230256   3.732   0.694   1.847 -0.8173  0.4307  0.0257
 2874TIP3    H130257   3.647   0.696   1.802 -0.2310 -0.3625 -1.1637
 2874TIP3    H230258   3.724   0.621   1.908 -0.8067 -0.0179 -0.4970
 2875TIP3   OH230259   0.328   1.127   1.130 -0.1808  0.1531  0.0182
 2875TIP3    H130260   0.279   1.047   1.110 -1.5408  0.5995  1.3547
 2875TIP3    H230261   0.406   1.096   1.176 -0.5646 -0.4367  0.2905
 2876TIP3   OH230262   4.786   2.763   8.642 -0.0825  0.8069 -0.4641
 2876TIP3    H130263   4.807   2.721   8.559  1.1771  0.0036  0.2438
 2876TIP3    H230264   4.699   2.730   8.664  0.1128  0.0359 -0.8417
 2877TIP3   OH230265   2.495   6.857   1.930 -0.2877  0.0117 -0.0876
 2877TIP3    H130266   2.504   6.842   1.836 -3.0656 -1.5503 -0.2299
 2877TIP3    H230267   2.460   6.946   1.937 -1.5362 -0.4091 -0.6884
 2878TIP3   OH230268   3.485   5.021   1.370  0.7940 -0.1603 -0.0705
 2878TIP3    H130269   3.426   4.981   1.434  0.4777 -0.2968 -0.4464
 2878TIP3    H230270   3.560   5.051   1.423  1.0421 -1.2489  0.2266
 2879TIP3   OH230271   4.352   0.674   1.961 -0.5170  0.5681 -0.3417
 2879TIP3    H130272   4.339   0.662   1.867 -0.6657 -1.0005 -0.1422
 2879TIP3    H230273   4.422   0.740   1.967  1.0546 -0.8829 -1.6032
 2880TIP3   OH230274   5.420   0.628   8.293 -0.2712 -0.7189 -0.0253
 2880TIP3    H130275   5.501   0.675   8.313  0.9862 -3.6017  2.3556
 2880TIP3    H230276   5.438   0.583   8.211 -0.2720  0.2313 -0.5671
 2881TIP3   OH230277   3.176   5.713   2.594  0.0506 -0.2141  0.7081
 2881TIP3    H130278   3.185   5.623   2.563  0.1145 -0.1731  0.6047
 2881TIP3    H230279   3.197   5.766   2.517 -0.3717 -0.1124  0.6611
 2882TIP3   OH230280   6.571   3.052   1.883 -0.1179 -0.3285  0.1406
 2882TIP3    H130281   6.552   3.101   1.963 -0.5221 -0.0262 -0.1386
 2882TIP3    H230282   6.487   3.047   1.837 -0.3422 -2.1859  0.6489
 2883TIP3   OH230283   2.316   4.024   8.488 -0.6300 -0.3286 -0.0028
 2883TIP3    H130284   2.326   4.110   8.448  0.0294 -0.1871  0.4436
 2883TIP3    H230285   2.241   3.985   8.443  0.4013 -0.3897 -1.7732
 2884TIP3   OH230286   5.927   4.034   8.153  0.3822 -0.7207 -0.0007
 2884TIP3    H130287   5.953   4.046   8.062  1.7621  0.9680  0.5661
 2884TIP3    H230288   5.931   3.939   8.166  2.9450 -0.8210 -0.9534
 2885TIP3   OH230289   2.551   3.159   7.187 -0.2095 -0.5425  0.9242
 2885TIP3    H130290   2.541   3.254   7.196  1.5910 -0.3041  0.7681
 2885TIP3    H230291   2.476   3.123   7.235 -0.4974  0.9417  1.6721
 2886TIP3   OH230292   5.004   2.669   2.587  0.0637 -0.0652 -0.3242
 2886TIP3    H130293   5.045   2.597   2.635  1.1262 -0.2944 -1.5172
 2886TIP3    H230294   5.069   2.694   2.521  0.4041  3.0924  1.0441
 2887TIP3   OH230295   1.688   0.877   8.312 -0.2001  0.5654 -0.0680
 2887TIP3    H130296   1.781   0.898   8.322  0.0157 -0.0260 -0.7028
 2887TIP3    H230297   1.645   0.920   8.385  0.1947  3.2737 -1.2876
 2888TIP3   OH230298   1.523   5.600   7.385  0.5936  0.0408  0.2255
 2888TIP3    H130299   1.576   5.532   7.343  0.5252  0.0704  0.0888
 2888TIP3    H230300   1.432   5.574   7.367  0.5275 -0.6595  1.4878
 2889TIP3   OH230301   1.066   6.591   2.820  0.0783 -0.2382  0.6933
 2889TIP3    H130302   1.006   6.518   2.804  0.1260  0.0177 -0.8022
 2889TIP3    H230303   1.095   6.579   2.910 -0.1762 -1.8695  0.5862
 2890TIP3   OH230304   4.061   2.507   7.906 -0.0576  0.7889  0.1285
 2890TIP3    H130305   4.118   2.549   7.841 -0.4928  1.5846  0.2510
 2890TIP3    H230306   4.121   2.476   7.974  0.4485 -0.4048 -0.8143
 2891TIP3   OH230307   5.221   0.757   0.869 -0.3153 -0.1322 -0.3199
 2891TIP3    H130308   5.176   0.820   0.926 -0.3172 -0.9832  0.6419
 2891TIP3    H230309   5.297   0.728   0.919  0.3034 -0.0836 -1.1992
 2892TIP3   OH230310   4.000   1.076   0.513 -0.1862  0.1187  0.7343
 2892TIP3    H130311   4.016   0.986   0.542  1.1285  0.6768  1.8966
 2892TIP3    H230312   3.919   1.072   0.463 -0.5719 -1.5689  1.4387
 2893TIP3   OH230313   4.561   3.829   0.940  0.2332 -0.7899  0.7046
 2893TIP3    H130314   4.553   3.780   0.859 -0.5847  1.5867 -0.7460
 2893TIP3    H230315   4.559   3.762   1.009 -0.7962 -2.7630 -1.1282
 2894TIP3   OH230316   5.340   4.674   0.499 -0.2274  0.1174  0.6232
 2894TIP3    H130317   5.245   4.669   0.490 -0.0543 -0.7833 -1.1194
 2894TIP3    H230318   5.367   4.584   0.513  0.4329  0.2513  0.2518
 2895TIP3   OH230319   4.638   4.544   8.430  0.1832  0.1313  0.1847
 2895TIP3    H130320   4.595   4.605   8.371  1.0784  1.9154  1.2834
 2895TIP3    H230321   4.683   4.600   8.493  1.3397 -1.6786  1.0416
 2896TIP3   OH230322   5.971   5.524   0.324  0.2490 -1.1219 -0.1106
 2896TIP3    H130323   5.974   5.614   0.290 -0.7429 -1.2833 -0.6681
 2896TIP3    H230324   6.034   5.524   0.396 -1.1744  0.6067  1.2339
 2897TIP3   OH230325   4.761   1.521   0.995 -0.0490  0.2309 -0.0128
 2897TIP3    H130326   4.710   1.601   1.006 -0.8335 -0.0734 -1.2533
 2897TIP3    H230327   4.711   1.469   0.932  1.5238 -0.3064 -0.8700
 2898TIP3   OH230328   2.895   2.333   1.109  0.2915 -0.4253  0.7185
 2898TIP3    H130329   2.912   2.243   1.081 -0.4378 -0.8238  1.5088
 2898TIP3    H230330   2.869   2.325   1.200 -0.5705  0.5119  0.5663
 2899TIP3   OH230331   0.431   0.592   7.182  0.3469 -0.2722  0.1508
 2899TIP3    H130332   0.335   0.593   7.190  0.3312  0.0705 -0.0758
 2899TIP3    H230333   0.447   0.550   7.097  0.3712  0.3605 -0.1649
 2900TIP3   OH230334   6.618   1.423   0.099 -0.1814  0.6303 -0.2104
 2900TIP3    H130335   6.681   1.492   0.081  1.0934 -0.4355 -0.0279
 2900TIP3    H230336   6.661   1.343   0.069 -0.6251 -0.3857  1.6714
 2901TIP3   OH230337   4.124   5.871   1.988  0.2541 -0.8212 -0.7488
 2901TIP3    H130338   4.217   5.890   1.996 -0.0390  0.6300 -0.4751
 2901TIP3    H230339   4.088   5.944   1.937 -0.7170 -1.4171 -0.9610
 2902TIP3   OH230340   1.308   0.815   2.761 -0.0654 -0.3952 -0.4945
 2902TIP3    H130341   1.306   0.911   2.766  0.4346 -0.3609 -0.8825
 2902TIP3    H230342   1.334   0.787   2.849  0.7565 -0.1303 -0.6452
 2903TIP3   OH230343   6.875   4.750   3.291  0.1989 -0.3277  0.1902
 2903TIP3    H130344   6.889   4.662   3.326  0.8763  0.3945  1.8482
 2903TIP3    H230345   6.817   4.737   3.216 -2.6130 -1.8448  2.4353
 2904TIP3   OH230346   1.182   6.312   2.933 -0.3516  0.0433 -0.3721
 2904TIP3    H130347   1.251   6.251   2.959  0.7254  0.9778 -0.9602
 2904TIP3    H230348   1.187   6.383   2.996  0.0516  0.7062 -1.1410
 2905TIP3   OH230349   0.333   6.745   0.228 -0.1723  0.7175 -0.5048
 2905TIP3    H130350   0.367   6.718   0.143  0.9394  0.2630  0.0645
 2905TIP3    H230351   0.325   6.663   0.278 -0.7108  0.9888 -0.1345
 2906TIP3   OH230352   5.756   3.014   8.250 -0.3368 -0.1259  0.0083
 2906TIP3    H130353   5.701   3.015   8.172 -0.7498 -0.2466  0.2936
 2906TIP3    H230354   5.730   2.934   8.296 -0.8481  0.4857  0.7958
 2907TIP3   OH230355   0.894   0.839   2.066 -0.1136  0.2443  0.3664
 2907TIP3    H130356   0.838   0.811   2.139 -2.7455  1.0957 -1.2205
 2907TIP3    H230357   0.915   0.930   2.085  1.1402 -0.1690  1.1335
 2908TIP3   OH230358   4.504   1.325   3.523  0.4479 -0.4894 -0.1647
 2908TIP3    H130359   4.557   1.299   3.448  0.9227 -0.5605  0.1947
 2908TIP3    H230360   4.419   1.285   3.507  0.5517 -0.5226 -0.6526
 2909TIP3   OH230361   6.431   5.109   0.598 -0.4879 -0.2915  0.1751
 2909TIP3    H130362   6.446   5.097   0.691 -0.3097  0.7488  0.2855
 2909TIP3    H230363   6.487   5.182   0.573 -0.7975 -0.3285 -0.6743
 2910TIP3   OH230364   5.046   1.351   2.986  0.3148  0.4131 -0.3088
 2910TIP3    H130365   5.098   1.279   3.023 -1.2401 -0.6454 -0.0453
 2910TIP3    H230366   5.028   1.323   2.896  1.2392  1.3771 -0.8125
 2911TIP3   OH230367   1.623   1.676   3.292 -0.3870  0.0470  0.2749
 2911TIP3    H130368   1.615   1.771   3.285  1.4874  0.3699  1.8530
 2911TIP3    H230369   1.561   1.642   3.226 -0.7631  2.3297 -0.6399
 2912TIP3   OH230370   4.770   6.858   0.986 -0.6146 -0.4798  0.2788
 2912TIP3    H130371   4.799   6.942   0.950 -3.3767 -0.6353 -2.8767
 2912TIP3    H230372   4.850   6.806   0.993  0.6196  0.7759 -2.6825
 2913TIP3   OH230373   0.467   1.291   0.553  0.2920 -0.1409  0.4542
 2913TIP3    H130374   0.416   1.368   0.526  0.0585  0.0986  1.5204
 2913TIP3    H230375   0.443   1.223   0.490 -0.1019  0.4412 -0.0316
 2914TIP3   OH230376   6.156   0.887   8.086 -0.5784 -0.2627  0.1912
 2914TIP3    H130377   6.248   0.863   8.099 -0.3726  1.8652  3.6033
 2914TIP3    H230378   6.114   0.804   8.061  1.9183 -1.6584  0.2311
 2915TIP3   OH230379   0.386   4.957   2.587  0.7511  0.0153  0.0399
 2915TIP3    H130380   0.336   5.037   2.599 -0.1862 -0.7217  1.2515
 2915TIP3    H230381   0.416   4.961   2.497 -1.6430  0.4078 -0.8077
 2916TIP3   OH230382   3.209   0.925   1.079  0.1250 -0.4186  0.1315
 2916TIP3    H130383   3.249   0.999   1.034  3.7665 -2.4103 -0.2802
 2916TIP3    H230384   3.196   0.955   1.169  3.1136  0.3431  0.4180
 2917TIP3   OH230385   4.422   3.343   8.295 -0.0402  0.0052 -0.1097
 2917TIP3    H130386   4.437   3.420   8.350  0.6110  0.4924 -0.9539
 2917TIP3    H230387   4.509   3.307   8.279 -0.4278 -2.3290  2.1944
 2918TIP3   OH230388   0.483   3.081   1.926  0.1399  0.5639  0.1033
 2918TIP3    H130389   0.463   3.090   1.833  0.3676  2.4825  0.2033
 2918TIP3    H230390   0.425   3.143   1.969 -1.6848 -1.9407  1.5491
 2919TIP3   OH230391   2.630   3.813   2.313 -0.2196 -0.4795 -0.0638
 2919TIP3    H130392   2.619   3.721   2.289  0.1231 -0.6759  0.5061
 2919TIP3    H230393   2.658   3.810   2.404 -0.1771  0.1927 -0.0535
 2920TIP3   OH230394   2.141   3.968   1.105  0.1072 -0.0923  0.5890
 2920TIP3    H130395   2.070   4.016   1.146  1.5499  0.8955  2.0765
 2920TIP3    H230396   2.172   4.026   1.035  0.0143 -0.1233  0.5229
 2921TIP3   OH230397   3.192   4.884   1.365  0.0926  0.4690 -0.5513
 2921TIP3    H130398   3.247   4.811   1.393 -0.3864  0.3174  0.0160
 2921TIP3    H230399   3.105   4.864   1.400 -0.2857  0.8011 -1.2642
 2922TIP3   OH230400   5.610   4.049   2.077  0.1258  0.3999 -0.2213
 2922TIP3    H130401   5.680   4.048   2.012 -0.2247 -0.5068 -0.6163
 2922TIP3    H230402   5.563   4.131   2.061  1.5178  1.3813  0.5434
 2923TIP3   OH230403   2.621   2.128   1.213 -0.2391 -0.1088  0.4714
 2923TIP3    H130404   2.567   2.097   1.140 -0.1691  1.1277 -0.1401
 2923TIP3    H230405   2.618   2.224   1.206  1.4410  0.0100  0.8503
 2924TIP3   OH230406   1.336   5.719   0.100 -0.2033  0.3095 -0.3858
 2924TIP3    H130407   1.430   5.737   0.093 -0.0125  0.0544  1.1883
 2924TIP3    H230408   1.302   5.736   0.012  1.1858  1.1286 -0.7990
 2925TIP3   OH230409   1.058   1.098   8.057 -0.3987  0.2469  0.5869
 2925TIP3    H130410   1.116   1.103   7.982 -2.1061 -0.1595 -0.8507
 2925TIP3    H230411   1.112   1.122   8.132  1.3428  0.7567 -0.7732
 2926TIP3   OH230412   2.481   4.904   8.476 -0.5339  0.5958  0.3368
 2926TIP3    H130413   2.554   4.924   8.418  1.7248 -0.7797  2.4986
 2926TIP3    H230414   2.403   4.910   8.420  1.2368  1.6146 -2.2046
 2927TIP3   OH230415   5.794   0.035   1.120 -0.5941 -0.0003  0.1009
 2927TIP3    H130416   5.773   0.045   1.213  0.5346 -0.1370  0.3743
 2927TIP3    H230417   5.753   0.112   1.079 -0.7925  0.2510  0.7531
 2928TIP3   OH230418   5.964   0.493   1.678  0.1762  1.0936  0.0948
 2928TIP3    H130419   6.010   0.421   1.722 -1.0954 -0.1749 -0.5677
 2928TIP3    H230420   6.021   0.515   1.604  0.9402  1.2853  0.7293
 2929TIP3   OH230421   1.519   2.008   0.012 -0.0705  0.3695 -0.6060
 2929TIP3    H130422   1.474   1.970   0.087 -2.6365  1.6266 -1.4120
 2929TIP3    H230423   1.608   1.971   0.016 -0.8872 -1.5669  1.5482
 2930TIP3   OH230424   1.422   4.749   3.765  0.2627  0.3661  0.1101
 2930TIP3    H130425   1.364   4.820   3.740 -0.1015  0.1590  0.3695
 2930TIP3    H230426   1.405   4.680   3.700  0.2575  0.3266  0.1532
 2931TIP3   OH230427   2.280   6.352   2.448  0.2070 -0.2002 -0.0544
 2931TIP3    H130428   2.261   6.302   2.369  1.9582 -1.0390  0.0112
 2931TIP3    H230429   2.311   6.437   2.416 -1.2322  0.3030 -0.1926
 2932TIP3   OH230430   2.893   0.399   0.881 -0.1137  0.0712 -0.4119
 2932TIP3    H130431   2.959   0.460   0.847 -0.1576 -1.2285 -3.0793
 2932TIP3    H230432   2.881   0.426   0.972  3.6087  0.7833  0.0590
 2933TIP3   OH230433   1.345   1.177   1.428  0.0283 -0.4822  0.5957
 2933TIP3    H130434   1.374   1.262   1.396  0.8250 -0.5793  1.0236
 2933TIP3    H230435   1.374   1.174   1.519  0.8294 -1.5540  0.3381
 2934TIP3   OH230436   5.421   3.381   1.451  0.1379  0.3374 -0.2222
 2934TIP3    H130437   5.442   3.473   1.466  2.4356  0.2092 -2.0515
 2934TIP3    H230438   5.357   3.382   1.380  1.3637  0.5605 -1.3771
 2935TIP3   OH230439   5.988   0.977   8.282 -0.2817  0.0080 -0.4857
 2935TIP3    H130440   6.046   0.941   8.215 -0.1528 -0.2457 -0.2371
 2935TIP3    H230441   5.900   0.965   8.246 -0.2722 -0.9715 -0.2102
 2936TIP3   OH230442   3.114   3.837   7.840 -0.2094  0.5158  0.1231
 2936TIP3    H130443   3.087   3.800   7.756  0.7789  1.2198 -0.5198
 2936TIP3    H230444   3.111   3.763   7.901 -0.5852 -0.0781 -0.6012
 2937TIP3   OH230445   6.830   4.151   0.661 -0.0650 -0.5422  0.0612
 2937TIP3    H130446   6.924   4.164   0.678 -0.1275 -0.5816  0.4416
 2937TIP3    H230447   6.822   4.157   0.566  0.4380 -1.2623 -0.0321
 2938TIP3   OH230448   3.328   4.636   1.410  0.0261 -0.3204 -0.6555
 2938TIP3    H130449   3.336   4.594   1.496  0.8595  0.6946 -0.2208
 2938TIP3    H230450   3.366   4.573   1.349 -2.3914 -1.9484 -0.6154
 2939TIP3   OH230451   3.696   5.227   0.718 -0.1440 -0.1647 -0.1411
 2939TIP3    H130452   3.767   5.176   0.679  0.4777  0.0951  0.6227
 2939TIP3    H230453   3.638   5.162   0.755  1.2432 -0.3523  1.8627
 2940TIP3   OH230454   2.315   2.046   6.756 -0.3621 -0.2718  0.2645
 2940TIP3    H130455   2.384   1.999   6.804  0.0351  1.4882  1.5002
 2940TIP3    H230456   2.361   2.113   6.706 -1.1288  0.6474  0.7657
 2941TIP3   OH230457   2.551   0.924   7.478  0.0140 -0.0074 -0.3422
 2941TIP3    H130458   2.612   0.850   7.485 -0.3907 -0.3157 -0.0354
 2941TIP3    H230459   2.608   1.001   7.474  0.4234 -0.2284  0.7790
 2942TIP3   OH230460   2.543   6.290   2.960  0.1224  0.1119 -0.0688
 2942TIP3    H130461   2.495   6.234   2.899 -1.0521 -0.2922  1.1760
 2942TIP3    H230462   2.566   6.232   3.033  2.2186  0.3846 -0.4592
 2943TIP3   OH230463   5.613   4.546   8.046 -0.2500  0.4604 -0.1980
 2943TIP3    H130464   5.539   4.541   7.985 -1.3497 -1.8743  1.1560
 2943TIP3    H230465   5.578   4.591   8.123  0.2680  0.8656 -0.1952
 2944TIP3   OH230466   5.318   5.362   1.576  0.0542 -0.1931 -0.1375
 2944TIP3    H130467   5.268   5.347   1.657 -1.6168  0.6294 -0.9551
 2944TIP3    H230468   5.406   5.384   1.606 -0.1487 -1.3020  1.3922
 2945TIP3   OH230469   6.690   6.463   1.146 -0.0144 -0.0547  0.1433
 2945TIP3    H130470   6.633   6.540   1.138 -2.7287 -1.8964  0.2782
 2945TIP3    H230471   6.717   6.445   1.056 -0.3865  0.3361 -0.0560
 2946TIP3   OH230472   3.932   2.231   0.535  0.7904 -0.2525 -0.0631
 2946TIP3    H130473   3.893   2.288   0.469 -0.3790  0.9425  1.6067
 2946TIP3    H230474   3.911   2.143   0.505 -2.0347  0.3064  0.0284
 2947TIP3   OH230475   6.165   4.833   1.878  0.2748 -0.2854  0.6308
 2947TIP3    H130476   6.190   4.862   1.791  1.5028  3.0868  1.9182
 2947TIP3    H230477   6.104   4.900   1.909  1.8251  0.1196  3.1803
 2948TIP3   OH230478   2.314   4.322   8.129  0.7109  0.2735 -0.2965
 2948TIP3    H130479   2.397   4.368   8.137  0.8152  0.4274 -1.8433
 2948TIP3    H230480   2.311   4.294   8.037 -0.7670 -0.0735 -0.1729
 2949TIP3   OH230481   2.562   4.553   3.147  0.1158 -0.3029 -0.2879
 2949TIP3    H130482   2.620   4.617   3.106 -1.3533  0.2246 -1.6506
 2949TIP3    H230483   2.580   4.562   3.241  1.0829  0.9616 -0.5604
 2950TIP3   OH230484   2.990   0.871   2.561 -0.3053  0.0191  0.2915
 2950TIP3    H130485   2.971   0.833   2.646 -0.9474  0.6536  0.4366
 2950TIP3    H230486   2.913   0.925   2.540  0.6342  1.3498  0.1593
 2951TIP3   OH230487   1.314   2.838   0.865  0.8573  0.5384  0.2736
 2951TIP3    H130488   1.235   2.806   0.909  0.9183  0.4205  0.2967
 2951TIP3    H230489   1.386   2.792   0.908  1.1984  2.6845  2.1977
 2952TIP3   OH230490   2.967   0.189   2.760 -0.5628  0.2169 -0.0125
 2952TIP3    H130491   3.009   0.190   2.846 -0.6719  0.8330  0.0326
 2952TIP3    H230492   2.890   0.133   2.772 -1.5359  1.6623  0.7528
 2953TIP3   OH230493   1.779   4.000   8.070  0.6209 -0.0300 -0.8836
 2953TIP3    H130494   1.686   3.977   8.060 -0.1761  2.2952  0.3069
 2953TIP3    H230495   1.815   3.930   8.124 -0.9096 -0.0985  0.1268
 2954TIP3   OH230496   0.814   5.495   2.053 -0.0724 -0.1923 -0.4140
 2954TIP3    H130497   0.809   5.589   2.033  0.0839 -0.4560 -1.7816
 2954TIP3    H230498   0.867   5.491   2.133  0.4415  0.8519 -0.6814
 2955TIP3   OH230499   6.201   1.992   8.446 -0.3988 -0.0601  0.0476
 2955TIP3    H130500   6.211   2.026   8.535 -2.9203 -0.7513  0.6725
 2955TIP3    H230501   6.290   1.976   8.416  0.6106  1.9990  1.7103
 2956TIP3   OH230502   5.219   0.390   2.035 -0.8037 -0.2103 -0.6269
 2956TIP3    H130503   5.160   0.445   1.983 -1.0613 -1.4551 -1.7164
 2956TIP3    H230504   5.162   0.345   2.098 -0.8108 -0.3082 -0.7022
 2957TIP3   OH230505   1.269   1.986   2.486  0.1369 -0.2170 -0.0469
 2957TIP3    H130506   1.209   2.054   2.453 -0.1093  0.2887  1.3805
 2957TIP3    H230507   1.320   2.030   2.553  1.2787 -0.9820 -0.3887
 2958TIP3   OH230508   1.717   4.387   1.955 -0.0845 -0.2444 -0.1038
 2958TIP3    H130509   1.684   4.298   1.943 -0.9578 -0.1411  1.3052
 2958TIP3    H230510   1.812   4.375   1.963 -0.1257 -0.9684 -0.5092
 2959TIP3   OH230511   1.644   4.566   2.909  0.4107 -0.0116  0.0826
 2959TIP3    H130512   1.719   4.527   2.863  0.9261 -0.8534  1.5959
 2959TIP3    H230513   1.679   4.646   2.947  0.7856 -0.7738  1.4147
 2960TIP3   OH230514   2.395   6.884   0.450 -0.2442 -0.1817  0.5081
 2960TIP3    H130515   2.472   6.840   0.412  0.9908  0.8533  1.7245
 2960TIP3    H230516   2.357   6.933   0.377  0.3734 -0.5406 -0.0642
 2961TIP3   OH230517   2.277   6.325   1.110  0.1329  0.2670  0.6642
 2961TIP3    H130518   2.270   6.285   1.197  1.7315 -1.4784  0.0692
 2961TIP3    H230519   2.357   6.377   1.114  0.7367 -0.5882 -0.0204
 2962TIP3   OH230520   1.319   4.676   0.914 -0.0616  0.3491  0.3730
 2962TIP3    H130521   1.325   4.634   0.999 -0.4314  0.4525  0.4518
 2962TIP3    H230522   1.408   4.671   0.878  0.6228  2.1078  1.6351
 2963TIP3   OH230523   2.380   3.230   2.119  0.3827 -0.6392  0.2322
 2963TIP3    H130524   2.310   3.292   2.097  0.5135 -0.6866 -0.3168
 2963TIP3    H230525   2.390   3.238   2.214  0.8460  0.6607  0.0877
 2964TIP3   OH230526   3.113   2.266   8.268 -0.4931 -0.8085 -0.3104
 2964TIP3    H130527   3.197   2.271   8.223  0.8782  0.5162  2.1414
 2964TIP3    H230528   3.073   2.351   8.254  1.2670  0.7959  3.0093
 2965TIP3   OH230529   0.360   1.225   0.822  0.2151 -0.1334 -0.4424
 2965TIP3    H130530   0.387   1.303   0.773  2.2715 -0.1755  0.5231
 2965TIP3    H230531   0.355   1.254   0.913 -0.5693 -0.7528 -0.2807
 2966TIP3   OH230532   6.514   4.893   3.297 -0.3105 -0.7079 -0.4485
 2966TIP3    H130533   6.577   4.954   3.336 -1.7361  0.4050  0.2146
 2966TIP3    H230534   6.534   4.809   3.339  0.2680 -0.2195  0.2923
 2967TIP3   OH230535   2.811   2.466   0.048  0.1787  0.1135 -0.2590
 2967TIP3    H130536   2.828   2.516   0.128 -0.7011 -1.3759  0.9186
 2967TIP3    H230537   2.748   2.520  -0.001 -1.0588  0.0494  1.1630
 2968TIP3   OH230538   1.773   6.382   2.717 -0.0184 -0.2121  0.1112
 2968TIP3    H130539   1.704   6.354   2.777 -1.6347 -2.4909 -2.5647
 2968TIP3    H230540   1.817   6.301   2.692 -0.3229  0.4022 -2.7547
 2969TIP3   OH230541   0.413   2.333   1.382 -0.9499  0.5140 -0.0219
 2969TIP3    H130542   0.410   2.350   1.287  0.9993 -0.1886 -0.2465
 2969TIP3    H230543   0.324   2.308   1.404 -1.1655 -0.6959 -1.9642
 2970TIP3   OH230544   1.664   3.031   1.414  0.0960  0.7305 -0.0681
 2970TIP3    H130545   1.740   3.086   1.394 -0.1344  0.5351 -1.5807
 2970TIP3    H230546   1.589   3.080   1.382 -0.1533 -0.2610 -1.0767
 2971TIP3   OH230547   1.082   1.230   1.533  0.3867 -0.0986 -0.9263
 2971TIP3    H130548   1.139   1.184   1.471 -0.4963 -1.2657 -0.8949
 2971TIP3    H230549   1.112   1.201   1.619  0.5391  0.2446 -0.8623
 2972TIP3   OH230550   2.383   3.544   7.856  0.3022 -0.3468  0.5702
 2972TIP3    H130551   2.437   3.533   7.934  1.0809  0.8987  0.2417
 2972TIP3    H230552   2.344   3.458   7.841  3.1850 -1.7005  0.1141
 2973TIP3   OH230553   5.413   6.799   2.632  0.0713  0.1892 -0.1028
 2973TIP3    H130554   5.475   6.867   2.658  0.6312  0.0547 -1.0421
 2973TIP3    H230555   5.420   6.732   2.701  0.7497  0.3146 -0.0431
 2974TIP3   OH230556   5.292   1.669   8.079 -0.0026 -0.2680  0.0045
 2974TIP3    H130557   5.316   1.662   8.171  1.0587 -2.1231 -0.3650
 2974TIP3    H230558   5.348   1.739   8.045 -1.5829  1.6055  1.0790
 2975TIP3   OH230559   1.688   1.142   0.906 -0.2387 -0.0781 -0.1281
 2975TIP3    H130560   1.770   1.094   0.915 -0.9077 -1.4240 -0.7129
 2975TIP3    H230561   1.675   1.185   0.990  1.5022  0.9136 -0.3379
 2976TIP3   OH230562   5.596   2.886   1.549  0.1778 -0.5358  0.2234
 2976TIP3    H130563   5.590   2.925   1.462 -0.1267  4.8748  2.2940
 2976TIP3    H230564   5.689   2.890   1.571 -0.1485  1.8967  1.4519
 2977TIP3   OH230565   6.800   6.860   1.960  0.0513  0.0849  0.1228
 2977TIP3    H130566   6.733   6.792   1.954 -0.6467  0.4865  2.4299
 2977TIP3    H230567   6.774   6.913   2.036  2.9854  0.2568  1.1207
 2978TIP3   OH230568   4.760   4.239   8.492  0.1099 -0.0846  0.1602
 2978TIP3    H130569   4.716   4.225   8.408 -0.5939 -0.6654  0.6077
 2978TIP3    H230570   4.718   4.316   8.529  0.2501  0.0279  0.0844
 2979TIP3   OH230571   2.164   2.564   8.389  0.0155 -0.5652  0.1316
 2979TIP3    H130572   2.160   2.621   8.313 -0.7512 -0.6599  0.0940
 2979TIP3    H230573   2.073   2.560   8.421  0.0968 -1.5672  0.2718
 2980TIP3   OH230574   2.607   1.489   2.549 -0.4437  0.5933  0.0317
 2980TIP3    H130575   2.519   1.520   2.568 -1.0020 -0.3546 -0.9277
 2980TIP3    H230576   2.601   1.449   2.462  1.5166  2.8091 -1.2283
 2981TIP3   OH230577   6.534   6.609   8.479 -0.5143 -0.3722  0.2947
 2981TIP3    H130578   6.567   6.689   8.438 -1.7521 -0.4299 -0.8849
 2981TIP3    H230579   6.612   6.566   8.514  0.2165  1.1392  0.5924
 2982TIP3   OH230580   0.549   0.665   2.507 -0.2664  0.8153 -0.4843
 2982TIP3    H130581   0.504   0.653   2.590  2.1002 -0.3037  0.7205
 2982TIP3    H230582   0.550   0.579   2.466  0.8031  0.7856 -0.4387
 2983TIP3   OH230583   1.452   1.239   0.414  0.1551  0.1656  0.3448
 2983TIP3    H130584   1.400   1.199   0.483 -0.4934  0.7408  0.1959
 2983TIP3    H230585   1.393   1.300   0.370  1.1497  1.4335  0.6846
 2984TIP3   OH230586   4.030   2.595   1.532  0.0180  0.0327 -0.5596
 2984TIP3    H130587   3.952   2.600   1.476  0.4823 -0.1533 -1.2294
 2984TIP3    H230588   4.078   2.519   1.499 -0.3728 -0.9312  0.9703
 2985TIP3   OH230589   4.942   1.119   8.181 -0.1518 -0.2412 -0.2873
 2985TIP3    H130590   5.016   1.106   8.240  0.2060 -2.0632 -1.0312
 2985TIP3    H230591   4.976   1.178   8.113 -0.7799  2.4216  1.5698
 2986TIP3   OH230592   2.767   0.740   1.199 -0.1316  0.1929 -0.1810
 2986TIP3    H130593   2.818   0.686   1.138  1.1358 -0.8148  1.6736
 2986TIP3    H230594   2.815   0.823   1.204  0.4758 -0.1814  0.3649
 2987TIP3   OH230595   2.247   5.232   8.264  0.5205 -0.6551  0.1689
 2987TIP3    H130596   2.239   5.293   8.191 -1.6682  0.0920  0.9476
 2987TIP3    H230597   2.256   5.146   8.223  1.6883 -0.0238 -0.9471
 2988TIP3   OH230598   1.159   4.895   0.443  0.2162  0.1095  0.5864
 2988TIP3    H130599   1.201   4.861   0.364  0.2604 -0.4702  0.8621
 2988TIP3    H230600   1.179   4.831   0.511 -0.9919 -0.1127  0.7550
 2989TIP3   OH230601   0.716   0.162   1.676 -0.0128 -0.4795 -0.1593
 2989TIP3    H130602   0.690   0.167   1.584 -1.0549  2.6618  0.1815
 2989TIP3    H230603   0.635   0.143   1.723 -0.2175  1.3834  0.3143
 2990TIP3   OH230604   1.355   1.752   2.406 -0.6454 -0.0734 -0.6554
 2990TIP3    H130605   1.319   1.747   2.318 -0.3857  1.4509 -0.8768
 2990TIP3    H230606   1.335   1.841   2.435  0.3764 -0.1398  0.3378
 2991TIP3   OH230607   3.252   3.693   8.319 -0.0370 -0.3008 -0.0183
 2991TIP3    H130608   3.205   3.755   8.374  0.5272  0.0023  0.1348
 2991TIP3    H230609   3.221   3.607   8.346 -0.4800 -0.1095  0.0911
 2992TIP3   OH230610   5.673   0.646   2.644  0.4126 -0.4206  0.0809
 2992TIP3    H130611   5.647   0.738   2.652  2.0736  0.2720 -1.5303
 2992TIP3    H230612   5.731   0.630   2.718 -0.0840 -0.2566  0.5081
 2993TIP3   OH230613   1.625   0.877   1.395 -0.4978 -0.0341  0.6493
 2993TIP3    H130614   1.592   0.931   1.324  0.6399 -0.8583 -0.5765
 2993TIP3    H230615   1.716   0.858   1.370 -0.9077 -2.7221  0.8310
 2994TIP3   OH230616   5.297   3.962   1.387 -0.0637  0.4227  0.5344
 2994TIP3    H130617   5.305   4.044   1.436 -2.3100  1.9932 -1.4369
 2994TIP3    H230618   5.208   3.932   1.405  0.1385 -0.6456 -0.1527
 2995TIP3   OH230619   1.176   2.727   1.913  0.2538 -0.0058 -0.1321
 2995TIP3    H130620   1.176   2.808   1.863  0.8270  0.9789  1.4219
 2995TIP3    H230621   1.222   2.664   1.856 -1.6656  0.2240 -2.0788
 2996TIP3   OH230622   2.407   5.166   0.948 -0.1076 -0.2555  0.0514
 2996TIP3    H130623   2.337   5.220   0.984  0.8546  1.7951 -1.0126
 2996TIP3    H230624   2.471   5.160   1.018 -0.6171 -0.8078  0.4816
 2997TIP3   OH230625   4.214   2.157   1.867 -0.5718  0.9299  0.7090
 2997TIP3    H130626   4.279   2.087   1.873 -1.7016 -0.2097  0.3119
 2997TIP3    H230627   4.174   2.160   1.955 -1.3059  0.2537  0.4143
 2998TIP3   OH230628   2.551   5.140   8.628 -0.0355 -0.2143 -0.4215
 2998TIP3    H130629   2.530   5.052   8.596  2.0588 -0.7783 -0.4333
 2998TIP3    H230630   2.470   5.172   8.666 -1.1623 -1.6881 -1.4512
 2999TIP3   OH230631   5.362   5.189   7.628 -1.0460 -0.2657  0.1993
 2999TIP3    H130632   5.447   5.219   7.595 -1.5069 -0.7087 -1.5155
 2999TIP3    H230633   5.330   5.130   7.560 -2.4513 -0.5964  1.1093
 3000TIP3   OH230634   3.902   6.883   0.008  0.3965 -0.5976 -0.3781
 3000TIP3    H130635   3.834   6.891   0.075  1.1570 -0.0819  0.3690
 3000TIP3    H230636   3.890   6.796  -0.028 -0.3169 -0.7179  0.1221
 3001TIP3   OH230637   2.201   4.885   2.698 -0.9063 -0.2097  0.0445
 3001TIP3    H130638   2.139   4.858   2.630  1.0935 -0.9579 -1.5965
 3001TIP3    H230639   2.287   4.875   2.657  0.2940  1.6729  1.8976
 3002TIP3   OH230640   5.377   0.248   8.385 -0.0372 -0.0557  0.2365
 3002TIP3    H130641   5.444   0.290   8.330 -0.6965  1.6574  0.6754
 3002TIP3    H230642   5.309   0.221   8.323 -0.9033  2.1105  0.1568
 3003TIP3   OH230643   6.669   0.317   0.361 -0.3199  0.0639 -0.1945
 3003TIP3    H130644   6.581   0.284   0.341 -0.1473  0.0694 -0.9662
 3003TIP3    H230645   6.712   0.245   0.407 -0.1041 -0.6313 -1.4540
 3004TIP3   OH230646   2.170   3.640   0.348 -0.0242  0.7849  0.4585
 3004TIP3    H130647   2.083   3.667   0.319  0.0401 -0.5453 -1.1530
 3004TIP3    H230648   2.155   3.560   0.398  0.2012  0.9691  0.8218
 3005TIP3   OH230649   1.270   3.884   3.029  0.0823  0.2277 -0.4882
 3005TIP3    H130650   1.192   3.908   2.980 -0.5779 -0.4158  0.2262
 3005TIP3    H230651   1.290   3.961   3.082  0.4153  0.6865 -1.2672
 3006TIP3   OH230652   6.502   2.985   3.347  0.3833 -0.0719 -0.3429
 3006TIP3    H130653   6.452   3.065   3.363 -1.2312 -0.7736 -1.5840
 3006TIP3    H230654   6.488   2.932   3.426  0.1069  0.2007 -0.2064
 3007TIP3   OH230655   3.602   6.589   8.268 -0.0577 -0.3983 -0.4757
 3007TIP3    H130656   3.558   6.506   8.286 -0.6606  0.1632  0.7818
 3007TIP3    H230657   3.687   6.564   8.232 -0.1204 -1.5684  0.1465
 3008TIP3   OH230658   3.894   6.374   8.621  0.9541 -0.1662  0.0322
 3008TIP3    H130659   3.867   6.289   8.653  1.7461 -0.0385  1.1216
 3008TIP3    H230660   3.868   6.375   8.529 -1.7890 -0.3907  0.7219
 3009TIP3   OH230661   3.410   4.084   7.548  0.7253 -0.4534  0.4378
 3009TIP3    H130662   3.335   4.025   7.535  1.5350 -1.1603 -1.2604
 3009TIP3    H230663   3.397   4.154   7.485  0.2943  0.7315  1.7723
 3010TIP3   OH230664   3.457   6.208   1.070  1.1428  0.1047 -0.1335
 3010TIP3    H130665   3.522   6.233   1.005  1.2063  1.6250  0.4682
 3010TIP3    H230666   3.402   6.285   1.080 -1.8416 -1.6086 -1.7985
 3011TIP3   OH230667   2.519   2.260   0.060 -0.0918 -0.2685  0.1088
 3011TIP3    H130668   2.440   2.249   0.008  0.4720  0.0637 -0.8452
 3011TIP3    H230669   2.489   2.308   0.138 -0.6413  0.9128 -0.7907
 3012TIP3   OH230670   5.739   6.343   1.578  0.2567 -0.2970 -0.2585
 3012TIP3    H130671   5.693   6.262   1.604  0.1436 -0.1718 -0.0606
 3012TIP3    H230672   5.744   6.338   1.483  0.6198 -0.7362 -0.2176
 3013TIP3   OH230673   3.847   5.702   2.309  0.3403  0.3425  0.8573
 3013TIP3    H130674   3.755   5.717   2.330 -0.5599 -0.1335 -2.2840
 3013TIP3    H230675   3.857   5.607   2.311  0.6054  0.3638  0.5669
 3014TIP3   OH230676   6.536   5.539   2.380  0.0822 -0.5025  0.1230
 3014TIP3    H130677   6.508   5.630   2.366  0.7550 -0.1074  1.2636
 3014TIP3    H230678   6.454   5.492   2.398 -0.5244 -0.5509 -2.3963
 3015TIP3   OH230679   2.088   3.456   7.784 -0.5455  0.1161 -0.0941
 3015TIP3    H130680   2.105   3.370   7.744 -0.9682 -0.7035  1.4208
 3015TIP3    H230681   2.118   3.519   7.718 -0.5921 -1.1731 -1.4138
 3016TIP3   OH230682   3.882   3.866   2.406  0.1448 -0.4249  0.0389
 3016TIP3    H130683   3.928   3.882   2.324  0.4378 -1.7948 -0.0915
 3016TIP3    H230684   3.867   3.771   2.407 -0.9717 -0.2679  0.9791
 3017TIP3   OH230685   2.843   1.646   8.240 -0.2733 -0.0905  0.0996
 3017TIP3    H130686   2.762   1.669   8.285 -0.0544  1.9416 -0.4762
 3017TIP3    H230687   2.906   1.631   8.310 -0.6872  0.0721  0.5081
 3018TIP3   OH230688   5.889   4.871   7.378  0.0311 -0.2234 -0.0797
 3018TIP3    H130689   5.964   4.891   7.322 -0.7528  0.5935 -0.8745
 3018TIP3    H230690   5.867   4.955   7.419 -0.4715 -0.4516  0.1279
 3019TIP3   OH230691   6.809   4.053   2.868  0.4377  0.0647  0.0650
 3019TIP3    H130692   6.861   3.975   2.887  0.3131 -0.0304  0.0181
 3019TIP3    H230693   6.782   4.086   2.954 -2.5085 -1.9735  0.0727
 3020TIP3   OH230694   0.206   0.831   2.093  0.2314  0.1123 -0.0463
 3020TIP3    H130695   0.179   0.922   2.081 -0.5289 -0.0217  0.5466
 3020TIP3    H230696   0.180   0.788   2.011  1.7271  0.6618 -0.8397
 3021TIP3   OH230697   4.702   3.895   8.162  0.4097  0.0276 -0.4291
 3021TIP3    H130698   4.706   3.800   8.176  0.5509  0.1874  0.7479
 3021TIP3    H230699   4.764   3.931   8.226  1.1065  0.8622 -1.5406
 3022TIP3   OH230700   5.043   5.141   2.383 -0.0661  0.4373 -0.4071
 3022TIP3    H130701   5.061   5.075   2.450 -2.6380  1.8902  1.9751
 3022TIP3    H230702   4.995   5.095   2.315  1.2943 -0.7869 -0.5819
 3023TIP3   OH230703   1.751   5.368   8.611  0.5515  0.4107 -0.1547
 3023TIP3    H130704   1.796   5.403   8.534  1.8098 -1.8074 -0.5141
 3023TIP3    H230705   1.755   5.273   8.600 -0.6701  0.0732  1.8600
 3024TIP3   OH230706   3.368   0.330   2.404 -0.1137 -0.6670  0.3063
 3024TIP3    H130707   3.412   0.310   2.321  0.5611  0.5110  0.3598
 3024TIP3    H230708   3.439   0.329   2.469 -0.2100  0.8325  0.4644
 3025TIP3   OH230709   2.747   5.531   1.844  0.3331 -0.0240 -0.4530
 3025TIP3    H130710   2.783   5.617   1.820 -1.0088  0.3933 -1.0929
 3025TIP3    H230711   2.688   5.509   1.772 -0.6938 -0.6504  0.5382
 3026TIP3   OH230712   1.888   0.302   1.336 -0.1443 -0.5795  0.0051
 3026TIP3    H130713   1.913   0.349   1.416 -0.7846 -1.0937  0.5136
 3026TIP3    H230714   1.944   0.224   1.335  0.7115  0.0245 -0.6866
 3027TIP3   OH230715   3.412   2.054   2.078  0.1378 -0.0359 -0.3814
 3027TIP3    H130716   3.349   1.984   2.065  0.6717 -1.1568  2.3841
 3027TIP3    H230717   3.395   2.086   2.166  1.2943  1.8838 -0.8027
 3028TIP3   OH230718   0.256   2.570   8.263  0.5642 -0.2817 -0.0513
 3028TIP3    H130719   0.305   2.539   8.186 -0.9533  0.6142 -1.4436
 3028TIP3    H230720   0.215   2.491   8.298 -1.0662 -0.3487 -1.9405
 3029TIP3   OH230721   3.148   4.042   2.041  0.0510  0.0722 -0.3880
 3029TIP3    H130722   3.216   3.984   2.007  0.2421 -0.1178  0.3119
 3029TIP3    H230723   3.193   4.124   2.057 -0.2839  0.5423 -1.6773
 3030TIP3   OH230724   1.298   6.137   3.179  0.3539 -0.5293  0.1946
 3030TIP3    H130725   1.392   6.151   3.183  0.5690 -1.0578 -1.8779
 3030TIP3    H230726   1.260   6.213   3.223  1.7151  0.1126  0.3023
 3031TIP3   OH230727   5.542   4.766   1.005 -0.0935  0.2872  0.1608
 3031TIP3    H130728   5.477   4.828   1.037 -0.0415 -0.1871  1.2256
 3031TIP3    H230729   5.593   4.742   1.083 -0.1429 -1.1115 -0.2178
 3032TIP3   OH230730   5.616   0.440   2.334  0.2089 -0.0624  0.1895
 3032TIP3    H130731   5.545   0.493   2.298  1.0635  0.8813 -0.1233
 3032TIP3    H230732   5.614   0.359   2.283 -0.9310 -0.2454  0.4919
 3033TIP3   OH230733   6.436   4.666   7.115  0.7989 -0.2706 -0.1905
 3033TIP3    H130734   6.466   4.580   7.143  3.2088  0.7535  0.6986
 3033TIP3    H230735   6.494   4.690   7.043 -0.4039  0.2793 -1.0163
 3034TIP3   OH230736   0.407   4.477   0.219 -0.4469  0.1163  0.3048
 3034TIP3    H130737   0.341   4.491   0.151 -0.4793 -2.6574 -0.3796
 3034TIP3    H230738   0.491   4.485   0.173 -0.4742 -2.6105 -0.4001
 3035TIP3   OH230739   4.662   2.513   3.062 -0.1645 -0.4846 -0.1954
 3035TIP3    H130740   4.743   2.547   3.100 -0.4422  0.3032 -0.2967
 3035TIP3    H230741   4.618   2.470   3.135  0.5733 -1.3609 -0.2524
 3036TIP3   OH230742   4.137   4.624   7.429  0.1740  0.0429  0.3472
 3036TIP3    H130743   4.153   4.665   7.345  2.3039 -0.8873  0.2407
 3036TIP3    H230744   4.218   4.635   7.478 -0.7581 -0.0968  2.0100
 3037TIP3   OH230745   1.133   5.315   2.746 -0.2636  0.5070 -0.7352
 3037TIP3    H130746   1.136   5.234   2.694  1.3303  2.1954 -3.5118
 3037TIP3    H230747   1.160   5.288   2.834 -1.2769 -2.1977 -1.1506
 3038TIP3   OH230748   6.877   4.367   1.619 -0.2178 -0.0305  0.1375
 3038TIP3    H130749   6.917   4.287   1.653 -0.4041  0.0506  0.5537
 3038TIP3    H230750   6.950   4.417   1.584 -0.1136 -0.4308 -0.2256
 3039TIP3   OH230751   4.426   4.331   2.395  0.1938  0.0223 -0.1416
 3039TIP3    H130752   4.465   4.413   2.426  1.9266 -0.3345 -1.2161
 3039TIP3    H230753   4.385   4.353   2.312  2.3904 -0.4951 -1.4604
 3040TIP3   OH230754   4.720   3.294   0.334 -0.2683 -0.5313  0.3337
 3040TIP3    H130755   4.760   3.208   0.337 -1.7078 -1.2196  0.5063
 3040TIP3    H230756   4.631   3.281   0.368 -0.6525  0.9333 -0.0295
 3041TIP3   OH230757   0.683   6.011   1.233  0.3360  0.2821  0.3581
 3041TIP3    H130758   0.755   6.027   1.294 -0.4909 -2.7250  2.3104
 3041TIP3    H230759   0.727   6.003   1.148  1.9692  1.1700  1.0615
 3042TIP3   OH230760   1.935   4.781   2.671 -0.1722  0.1141 -0.4466
 3042TIP3    H130761   1.950   4.771   2.765  0.4006 -0.8927 -0.6261
 3042TIP3    H230762   1.893   4.699   2.645 -3.2901  1.6192 -0.5394
 3043TIP3   OH230763   4.408   5.655   7.552 -0.5266  0.3069  0.5311
 3043TIP3    H130764   4.401   5.560   7.550  1.3041  0.1087  1.5471
 3043TIP3    H230765   4.339   5.685   7.494 -1.5112 -1.6140  0.6286
 3044TIP3   OH230766   5.584   1.734   8.274  0.6975 -0.0090 -0.3022
 3044TIP3    H130767   5.515   1.726   8.340  0.8734 -2.3287 -0.3070
 3044TIP3    H230768   5.557   1.809   8.220 -0.7232  0.4090  0.9201
 3045TIP3   OH230769   5.875   1.544   1.517 -0.1050  0.3505 -0.2664
 3045TIP3    H130770   5.792   1.556   1.562 -0.3162 -0.1414 -0.5162
 3045TIP3    H230771   5.932   1.502   1.582  0.1671  1.3109  0.1250
 3046TIP3   OH230772   2.571   4.525   0.897 -0.4365 -0.0532 -0.1506
 3046TIP3    H130773   2.534   4.499   0.812 -1.5404 -0.1445  0.3457
 3046TIP3    H230774   2.534   4.611   0.914  3.3698  2.2052 -1.8915
 3047TIP3   OH230775   0.404   3.489   2.445  0.3622 -0.9732 -0.0235
 3047TIP3    H130776   0.496   3.472   2.421  0.7705 -0.8024  1.3618
 3047TIP3    H230777   0.397   3.584   2.449  0.2208 -0.9933  0.2164
 3048TIP3   OH230778   5.444   3.404   0.378 -0.2500 -0.3218 -0.3507
 3048TIP3    H130779   5.472   3.348   0.305  0.7943  0.3689 -0.5046
 3048TIP3    H230780   5.373   3.457   0.342 -1.0292 -1.3096 -0.2956
 3049TIP3   OH230781   4.705   5.461   8.640 -0.2355  0.1203  0.2575
 3049TIP3    H130782   4.787   5.414   8.656 -0.5537 -0.4401  0.2814
 3049TIP3    H230783   4.718   5.506   8.557  0.3289  0.5624  0.5800
 3050TIP3   OH230784   2.898   0.655   8.413  0.3958  0.5036  0.2167
 3050TIP3    H130785   2.993   0.668   8.418  0.3724  1.2520 -0.8380
 3050TIP3    H230786   2.865   0.689   8.495  1.2335 -2.1891  1.8039
 3051TIP3   OH230787   5.989   0.605   8.401  0.2596  0.1539  0.4445
 3051TIP3    H130788   5.931   0.655   8.343 -0.4844  0.4530  1.4007
 3051TIP3    H230789   6.017   0.530   8.349  2.3311  2.0927 -1.4377
 3052TIP3   OH230790   4.329   0.075   0.867 -0.7997 -0.9273  0.0893
 3052TIP3    H130791   4.411   0.040   0.833 -1.0600  0.2323 -1.9411
 3052TIP3    H230792   4.309   0.021   0.944  1.4398 -1.7232  0.1773
 3053TIP3   OH230793   4.660   5.977   2.363  0.3733 -0.6304 -0.2341
 3053TIP3    H130794   4.610   6.016   2.291  1.2581 -0.8552 -0.9924
 3053TIP3    H230795   4.728   5.926   2.319  2.7031  1.4696  0.7658
 3054TIP3   OH230796   5.682   5.447   1.672 -0.4297 -0.0563 -0.4376
 3054TIP3    H130797   5.627   5.456   1.750  2.8496  0.8671  1.9971
 3054TIP3    H230798   5.710   5.356   1.673 -0.9555 -0.2352 -1.0306
 3055TIP3   OH230799   0.017   2.718   7.411  0.3384  0.0753  0.0521
 3055TIP3    H130800  -0.020   2.732   7.498  0.1682 -2.7589  0.5437
 3055TIP3    H230801   0.058   2.801   7.388  0.8718  0.7619  3.0826
 3056TIP3   OH230802   4.477   4.852   8.009 -0.3096  0.4501 -0.4083
 3056TIP3    H130803   4.477   4.948   8.008 -2.1717  0.4901 -0.8202
 3056TIP3    H230804   4.396   4.828   7.964 -1.5699 -1.2475  2.4863
 3057TIP3   OH230805   2.457   1.669   3.119  0.3747 -0.0141 -0.6419
 3057TIP3    H130806   2.362   1.657   3.121  0.3285  0.4411  0.8330
 3057TIP3    H230807   2.483   1.635   3.033 -1.0673 -0.4883 -0.9253
 3058TIP3   OH230808   2.277   0.410   0.627 -0.0684 -0.3526 -0.1721
 3058TIP3    H130809   2.315   0.483   0.580 -0.1286  0.1881  0.6013
 3058TIP3    H230810   2.186   0.436   0.644 -0.8519 -1.6525 -2.0501
 3059TIP3   OH230811   3.307   0.424   1.429  0.1618  0.1338  0.0612
 3059TIP3    H130812   3.359   0.427   1.509 -0.2972 -0.2111  0.3782
 3059TIP3    H230813   3.324   0.337   1.392  0.9153  0.5442 -0.5931
 3060TIP3   OH230814   2.563   2.385   2.177 -0.0212  0.2737 -0.5898
 3060TIP3    H130815   2.558   2.361   2.269 -2.3176 -0.2148 -0.7799
 3060TIP3    H230816   2.625   2.458   2.174  2.2475 -1.4888  0.9005
 3061TIP3   OH230817   1.448   4.710   7.837 -0.0977 -0.1483 -0.2094
 3061TIP3    H130818   1.536   4.699   7.802  0.0096  1.4076 -0.4740
 3061TIP3    H230819   1.451   4.791   7.888 -1.5857  0.4315 -0.9595
 3062TIP3   OH230820   6.567   2.466   3.750 -0.0863 -0.1380  0.1671
 3062TIP3    H130821   6.593   2.399   3.813 -0.7521 -0.4502  0.1118
 3062TIP3    H230822   6.616   2.444   3.670 -1.4385 -1.4770 -0.3385
 3063TIP3   OH230823   5.749   1.239   2.439  0.0866  0.1207 -0.4096
 3063TIP3    H130824   5.685   1.224   2.509  1.2758  1.1270  0.9562
 3063TIP3    H230825   5.823   1.182   2.461  1.2838  1.8407  0.3372
 3064TIP3   OH230826   3.320   2.862   1.760  0.2949 -0.0264 -0.5429
 3064TIP3    H130827   3.307   2.779   1.806 -0.0344  0.5248  0.3856
 3064TIP3    H230828   3.366   2.918   1.822 -0.9074  1.0136 -0.5455
 3065TIP3   OH230829   0.949   3.172   1.760 -0.0169 -0.7703  1.0913
 3065TIP3    H130830   0.946   3.200   1.851 -0.4115  3.1049  0.0759
 3065TIP3    H230831   0.879   3.222   1.717  1.9633 -0.1863 -1.7945
 3066TIP3   OH230832   4.629   3.628   3.375  0.3063  0.3460  0.2750
 3066TIP3    H130833   4.721   3.607   3.363  0.4712  0.9178  0.4914
 3066TIP3    H230834   4.595   3.635   3.285  0.7644  1.3445  0.1652
 3067TIP3   OH230835   6.601   2.873   1.613  0.1907 -0.3669 -0.2836
 3067TIP3    H130836   6.599   2.873   1.709  1.3778 -2.1092 -0.2102
 3067TIP3    H230837   6.677   2.819   1.590 -1.1859 -1.6369 -2.2064
 3068TIP3   OH230838   0.609   3.557   7.366  0.1017 -0.1857 -0.5395
 3068TIP3    H130839   0.592   3.506   7.445  0.4720  1.0363  0.3754
 3068TIP3    H230840   0.598   3.648   7.394 -1.6773  0.2355 -2.3943
 3069TIP3   OH230841   1.491   6.256   0.909 -0.3942  0.3346 -0.5401
 3069TIP3    H130842   1.544   6.324   0.868 -0.5579  0.6606 -0.2192
 3069TIP3    H230843   1.440   6.218   0.837  0.5072 -0.2014 -0.9019
 3070TIP3   OH230844   1.140   0.058   1.799  0.1066 -0.2180 -0.2142
 3070TIP3    H130845   1.084   0.136   1.807  0.9150  0.2568  1.1435
 3070TIP3    H230846   1.205   0.082   1.734 -0.3506 -0.2104 -0.6779
 3071TIP3   OH230847   4.056   6.560   0.645 -0.4799 -0.4729 -0.4154
 3071TIP3    H130848   4.126   6.582   0.583  0.4038 -0.6141  0.4938
 3071TIP3    H230849   4.048   6.637   0.701 -0.1418 -0.9331  0.2907
 3072TIP3   OH230850   3.952   5.604   3.443  0.0193 -0.2264 -0.2204
 3072TIP3    H130851   3.899   5.524   3.438 -0.6952  0.2332 -0.1951
 3072TIP3    H230852   4.033   5.581   3.398 -0.3744 -0.8127 -0.6638
 3073TIP3   OH230853   4.142   6.609   3.099 -0.1125  0.3908 -0.2679
 3073TIP3    H130854   4.231   6.592   3.070  0.4807  2.3606  0.2632
 3073TIP3    H230855   4.088   6.548   3.048  1.5774 -1.5463  0.1165
 3074TIP3   OH230856   6.590   1.136   2.898 -0.0360 -0.0536 -0.0534
 3074TIP3    H130857   6.544   1.220   2.907  1.3551  0.8431 -0.9338
 3074TIP3    H230858   6.534   1.083   2.842 -1.8697 -0.4782  2.0267
 3075TIP3   OH230859   3.157   0.988   7.767  0.3711  0.3006  0.7007
 3075TIP3    H130860   3.119   1.043   7.699  0.6108 -0.4990 -0.0919
 3075TIP3    H230861   3.087   0.976   7.831  0.1370  1.0358  0.5867
 3076TIP3   OH230862   3.771   2.793   0.605  0.7494  0.6870  0.2770
 3076TIP3    H130863   3.773   2.838   0.521 -1.5222 -2.1944 -1.4971
 3076TIP3    H230864   3.721   2.852   0.662  0.3341  1.7017 -1.0723
 3077TIP3   OH230865   6.442   4.920   7.980 -0.2144 -0.1104  0.2789
 3077TIP3    H130866   6.478   4.870   7.907 -1.3083  0.2515 -0.5312
 3077TIP3    H230867   6.518   4.942   8.034  0.6116 -0.4195 -0.7236
 3078TIP3   OH230868   1.100   4.712   0.107 -0.0503  0.1520  0.0006
 3078TIP3    H130869   1.108   4.651   0.181 -1.4148 -1.2512 -0.9456
 3078TIP3    H230870   1.058   4.789   0.145  0.2741 -0.0960  0.9108
 3079TIP3   OH230871   5.253   6.036   2.837  0.1501  0.3961 -0.2904
 3079TIP3    H130872   5.288   6.043   2.747  3.0196 -2.3985  0.4100
 3079TIP3    H230873   5.218   5.947   2.842  0.1212  0.4806  1.3764
 3080TIP3   OH230874   2.459   1.683   2.659  0.2200  0.3798 -0.8281
 3080TIP3    H130875   2.397   1.688   2.586  0.7685 -1.4967 -1.4820
 3080TIP3    H230876   2.513   1.762   2.649 -1.0021  1.1903 -1.2177
 3081TIP3   OH230877   3.681   4.456   1.832 -0.0567  0.0718 -0.2467
 3081TIP3    H130878   3.592   4.432   1.805  0.5916 -1.9716 -0.7892
 3081TIP3    H230879   3.699   4.400   1.908  1.1238 -0.3460 -0.8110
 3082TIP3   OH230880   4.486   2.291   7.807 -0.2807  0.0227 -0.0490
 3082TIP3    H130881   4.545   2.221   7.836 -1.9645 -1.4543  0.0036
 3082TIP3    H230882   4.494   2.359   7.874  0.6132 -0.5670  0.4612
 3083TIP3   OH230883   2.881   0.372   0.512 -0.3891 -0.3290  0.0488
 3083TIP3    H130884   2.932   0.438   0.466 -1.8679  0.3481 -0.6878
 3083TIP3    H230885   2.946   0.310   0.545  0.8632  0.3259 -1.1009
 3084TIP3   OH230886   2.026   1.240   7.527  0.5854  0.0968 -0.3724
 3084TIP3    H130887   2.059   1.151   7.539  0.6754  0.0851 -0.6997
 3084TIP3    H230888   2.066   1.270   7.445  1.6771  0.9477  0.4486
 3085TIP3   OH230889   2.077   5.654   3.265 -0.1810  0.3223 -0.3944
 3085TIP3    H130890   2.010   5.613   3.209  1.0064 -1.2728 -0.7316
 3085TIP3    H230891   2.063   5.615   3.351 -1.6803  2.3965  0.3768
 3086TIP3   OH230892   5.137   2.114   7.208 -0.0696  0.2274 -0.4232
 3086TIP3    H130893   5.051   2.113   7.166  0.3374 -0.5788 -1.2695
 3086TIP3    H230894   5.193   2.063   7.149  0.7554 -0.0844  0.6003
 3087TIP3   OH230895   4.697   6.853   1.279  0.4682  0.1577  0.0444
 3087TIP3    H130896   4.764   6.830   1.214 -1.2292 -1.1780 -1.3153
 3087TIP3    H230897   4.642   6.917   1.234 -1.5013 -1.7476 -0.4176
 3088TIP3   OH230898   6.717   2.493   2.801  0.1172 -0.4069  0.1964
 3088TIP3    H130899   6.648   2.469   2.739  1.2218 -1.7789 -0.5494
 3088TIP3    H230900   6.748   2.578   2.771 -1.5025  0.4434  0.7970
 3089TIP3   OH230901   6.587   5.913   0.623 -0.5252  0.0114 -0.0084
 3089TIP3    H130902   6.675   5.944   0.646 -0.5884 -0.2067  0.5507
 3089TIP3    H230903   6.539   5.993   0.601 -0.2235  0.1437 -0.1918
 3090TIP3   OH230904   3.848   2.108   0.761 -0.1192 -0.1671  0.0708
 3090TIP3    H130905   3.885   2.133   0.677  0.9252  0.4508  0.6944
 3090TIP3    H230906   3.759   2.145   0.760  0.0922  0.3436 -0.5121
 3091TIP3   OH230907   6.593   1.616   0.974 -0.6640 -0.8017 -0.2779
 3091TIP3    H130908   6.628   1.625   0.885 -0.0569 -1.1442 -0.0731
 3091TIP3    H230909   6.498   1.621   0.962 -0.5782 -0.5110 -0.9066
 3092TIP3   OH230910   5.981   3.659   7.788 -0.1153  0.1397 -0.0598
 3092TIP3    H130911   6.006   3.585   7.732 -1.0196 -0.7512  0.6784
 3092TIP3    H230912   5.989   3.736   7.731 -1.8728 -0.8317 -1.7411
 3093TIP3   OH230913   6.615   4.785   0.246  0.2390  0.5209  0.2553
 3093TIP3    H130914   6.541   4.727   0.227  0.0420  0.4725  1.0891
 3093TIP3    H230915   6.660   4.795   0.163  1.2898 -2.1969  0.3960
 3094TIP3   OH230916   2.856   1.198   1.612  0.0560  0.8289  0.2625
 3094TIP3    H130917   2.867   1.229   1.702  1.3263 -0.7506  0.6967
 3094TIP3    H230918   2.817   1.111   1.622  1.7852 -0.0894 -0.6053
 3095TIP3   OH230919   1.139   2.277   8.390 -0.6016  0.5570  0.0124
 3095TIP3    H130920   1.192   2.198   8.399 -1.0889  0.1730 -0.3646
 3095TIP3    H230921   1.182   2.327   8.321 -1.5875 -0.5112 -1.4502
 3096TIP3   OH230922   5.470   2.512   0.954  0.3160  0.2347  0.2222
 3096TIP3    H130923   5.434   2.598   0.976  0.3971  0.3708 -0.1766
 3096TIP3    H230924   5.493   2.519   0.862 -1.4408 -0.8079 -0.3442
 3097TIP3   OH230925   6.168   2.825   2.329 -0.2151  0.5401  0.4000
 3097TIP3    H130926   6.225   2.881   2.276  0.1680  0.7706  1.0367
 3097TIP3    H230927   6.217   2.811   2.410 -0.2870 -0.7723  0.2405
 3098TIP3   OH230928   3.753   5.483   1.265  0.3964  0.2920  0.4953
 3098TIP3    H130929   3.757   5.488   1.361  0.8629  0.2980  0.4742
 3098TIP3    H230930   3.729   5.392   1.247 -2.0178  0.8230  0.6825
 3099TIP3   OH230931   2.328   0.475   2.782 -0.1111 -0.4758 -0.4087
 3099TIP3    H130932   2.340   0.489   2.876 -0.5293 -1.1292 -0.2547
 3099TIP3    H230933   2.258   0.410   2.776  0.5487 -1.1303 -1.1567
 3100TIP3   OH230934   0.262   2.000   8.583  0.1229  0.0224 -0.3458
 3100TIP3    H130935   0.344   1.952   8.582 -0.4554 -1.0426 -1.9813
 3100TIP3    H230936   0.227   1.989   8.494 -1.8072  0.3814  0.3207
 3101TIP3   OH230937   1.573   0.765   7.595 -0.3224 -0.0124  0.1409
 3101TIP3    H130938   1.643   0.830   7.599  1.6222 -2.0267  0.8690
 3101TIP3    H230939   1.498   0.809   7.635  1.1693  1.5136  1.4596
 3102TIP3   OH230940   3.627   6.373   1.263 -0.1492 -0.0614  0.6272
 3102TIP3    H130941   3.692   6.314   1.227 -1.1360 -1.0537  0.4133
 3102TIP3    H230942   3.606   6.433   1.192  1.0601  0.7418  0.9311
 3103TIP3   OH230943   0.259   4.988   8.135  0.1896  0.5345  0.2565
 3103TIP3    H130944   0.307   5.005   8.055 -1.3188  0.8926 -0.6183
 3103TIP3    H230945   0.168   5.008   8.113 -0.3847 -0.1971  1.8055
 3104TIP3   OH230946   2.297   5.180   7.824  1.2150 -0.1151 -0.1935
 3104TIP3    H130947   2.234   5.175   7.753 -1.0500  1.9514  1.4970
 3104TIP3    H230948   2.271   5.110   7.885 -0.5191  1.6033  1.1792
 3105TIP3   OH230949   1.042   5.622   7.357  0.1233 -0.1448  0.0434
 3105TIP3    H130950   1.091   5.673   7.422  0.6929  0.8603 -1.1516
 3105TIP3    H230951   0.963   5.595   7.404  1.1881 -0.6879  1.6036
 3106TIP3   OH230952   1.417   0.313   8.340 -0.0429  0.3327 -0.1178
 3106TIP3    H130953   1.459   0.228   8.349 -1.2037 -0.6989 -3.2282
 3106TIP3    H230954   1.465   0.357   8.269 -0.3671  1.7007  0.4718
 3107TIP3   OH230955   4.405   0.130   1.854 -0.2178 -0.4101 -0.2261
 3107TIP3    H130956   4.396   0.139   1.759  0.0544 -1.9619 -0.4188
 3107TIP3    H230957   4.365   0.210   1.889 -0.9303 -0.1222 -1.6153
 3108TIP3   OH230958   4.588   6.336   0.915  0.2983 -0.4515  0.1637
 3108TIP3    H130959   4.566   6.402   0.850  0.6042  0.4270  0.9230
 3108TIP3    H230960   4.588   6.253   0.867  0.4014  0.1611 -0.9212
 3109TIP3   OH230961   5.106   3.792   0.358  0.2549 -0.2747 -0.0281
 3109TIP3    H130962   5.088   3.878   0.395  0.4121 -1.1397  2.2117
 3109TIP3    H230963   5.020   3.752   0.347  0.2016  0.0240 -0.7210
 3110TIP3   OH230964   6.671   0.942   0.353  0.1260 -0.0294 -0.4337
 3110TIP3    H130965   6.714   0.891   0.285  1.4605  1.2658 -0.6164
 3110TIP3    H230966   6.579   0.944   0.328  0.3572 -0.7968 -1.3981
 3111TIP3   OH230967   1.112   3.662   0.296  0.3208  0.0241 -0.1117
 3111TIP3    H130968   1.032   3.610   0.292  0.1532  0.2823 -0.1344
 3111TIP3    H230969   1.175   3.606   0.341  0.6329 -0.8528 -1.5770
 3112TIP3   OH230970   6.528   4.969   8.438 -0.5109  0.2915 -0.1324
 3112TIP3    H130971   6.479   4.983   8.519  0.8985  1.2005  0.6051
 3112TIP3    H230972   6.611   4.932   8.467  0.8495  2.5282 -0.9116
 3113TIP3   OH230973   6.439   6.112   1.624 -0.4661  0.3404  0.3616
 3113TIP3    H130974   6.469   6.177   1.560  1.8500  0.6343  1.6593
 3113TIP3    H230975   6.429   6.162   1.705 -1.1329 -0.4727  0.7913
 3114TIP3   OH230976   0.161   0.883   1.039  0.1075  0.0837  0.3230
 3114TIP3    H130977   0.091   0.899   1.102 -0.4867  0.5700 -0.4352
 3114TIP3    H230978   0.142   0.942   0.967 -0.1482 -1.5491 -1.0225
 3115TIP3   OH230979   3.131   1.308   1.774 -0.3736 -0.1431 -0.7713
 3115TIP3    H130980   3.153   1.216   1.792 -0.2625  0.3329  1.9974
 3115TIP3    H230981   3.048   1.321   1.820 -0.0002  1.3270 -0.4758
 3116TIP3   OH230982   0.365   5.571   0.464 -0.1560 -0.1179  0.5435
 3116TIP3    H130983   0.398   5.644   0.411  0.6698 -2.2406 -2.1094
 3116TIP3    H230984   0.271   5.585   0.467 -0.0311  1.0273  0.0378
 3117TIP3   OH230985   0.771   5.964   0.980  0.0683  0.0984 -0.0849
 3117TIP3    H130986   0.864   5.978   0.964 -0.1027  0.2780 -0.9451
 3117TIP3    H230987   0.740   5.916   0.904 -0.3490 -0.8220  0.6409
 3118TIP3   OH230988   3.810   5.410   0.315  0.2153  0.1586  0.0503
 3118TIP3    H130989   3.727   5.454   0.329  0.3660  1.8012 -3.2610
 3118TIP3    H230990   3.876   5.480   0.324  0.9857 -0.5304 -0.0854
 3119TIP3   OH230991   0.508   6.153   1.397  0.1264  0.1014  0.2443
 3119TIP3    H130992   0.558   6.216   1.448  0.0979 -0.1164  0.5473
 3119TIP3    H230993   0.573   6.110   1.341 -0.2379  2.4908 -2.2423
 3120TIP3   OH230994   6.712   5.214   8.606  0.2155 -0.2895 -0.2407
 3120TIP3    H130995   6.655   5.188   8.679  1.3846  2.7914  1.9517
 3120TIP3    H230996   6.800   5.192   8.636  0.5621 -1.7724 -2.1292
 3121TIP3   OH230997   1.893   5.308   0.735 -0.1182 -0.1100 -0.2246
 3121TIP3    H130998   1.965   5.278   0.791  0.0802 -2.5030 -1.6187
 3121TIP3    H230999   1.936   5.338   0.655 -0.5873 -0.3018 -0.5504
 3122TIP3   OH231000   0.869   1.306   1.818  0.3942 -0.8116 -0.2627
 3122TIP3    H131001   0.821   1.224   1.809 -0.9302 -0.0701 -0.2963
 3122TIP3    H231002   0.958   1.280   1.839 -0.2539 -2.2487  0.8973
 3123TIP3   OH231003   0.054   4.231   1.313  0.5132 -1.0263 -0.3241
 3123TIP3    H131004   0.107   4.304   1.345 -0.9505  0.4472 -1.1108
 3123TIP3    H231005   0.084   4.156   1.363  0.2494  0.6128  2.5317
 3124TIP3   OH231006   4.919   1.845   0.201  0.2801 -0.4831 -0.3670
 3124TIP3    H131007   4.892   1.846   0.293 -0.4184  0.3861 -0.5669
 3124TIP3    H231008   4.989   1.779   0.197 -0.8099 -1.7436  0.4624
 3125TIP3   OH231009   0.128   6.294   0.603  0.1850 -0.2874 -0.2035
 3125TIP3    H131010   0.222   6.309   0.614  0.0005  0.0649  1.0185
 3125TIP3    H231011   0.109   6.216   0.656  0.0329 -1.2540 -1.6236
 3126TIP3   OH231012   4.882   0.157   8.428  0.0157  0.1976 -0.1335
 3126TIP3    H131013   4.930   0.239   8.437  0.4321 -0.0881  0.3479
 3126TIP3    H231014   4.798   0.173   8.470  1.0028 -0.3452  2.1667
 3127TIP3   OH231015   5.884   1.789   1.369  0.4409  0.0201  0.4117
 3127TIP3    H131016   5.865   1.855   1.436 -1.6429 -0.1330  0.0575
 3127TIP3    H231017   5.872   1.705   1.414  0.2900 -0.0896  0.1692
 3128TIP3   OH231018   2.403   2.152   7.782  0.2754 -0.5416 -0.1377
 3128TIP3    H131019   2.369   2.079   7.834  0.7936 -0.1825  0.7155
 3128TIP3    H231020   2.326   2.187   7.737 -0.8877  1.1099  2.7941
 3129TIP3   OH231021   6.760   3.592   8.631 -0.0780 -0.3140 -0.2259
 3129TIP3    H131022   6.849   3.624   8.618 -0.0365 -0.0074  0.8038
 3129TIP3    H231023   6.705   3.652   8.580  0.1364  0.5279  0.5315
 3130TIP3   OH231024   3.845   0.069   7.563  0.3663 -0.3215 -0.4093
 3130TIP3    H131025   3.782   0.007   7.600  0.2027 -0.0281 -0.1906
 3130TIP3    H231026   3.883   0.112   7.639 -1.4332  1.7478 -0.5672
 3131TIP3   OH231027   6.018   3.007   8.088 -0.5304 -0.1065  0.3789
 3131TIP3    H131028   5.922   3.010   8.089 -0.6365 -1.9739 -0.2474
 3131TIP3    H231029   6.039   2.918   8.118  0.9840 -0.0369 -0.4021
 3132TIP3   OH231030   2.548   3.847   8.492 -1.0103 -0.0054  0.5055
 3132TIP3    H131031   2.629   3.880   8.532 -0.7407 -1.2310  1.0136
 3132TIP3    H231032   2.481   3.910   8.519 -0.5035  0.1886  1.3585
 3133TIP3   OH231033   5.141   3.335   7.624 -0.0928 -0.2226  0.0326
 3133TIP3    H131034   5.060   3.314   7.671  0.7605  0.0052  1.7001
 3133TIP3    H231035   5.135   3.429   7.607  0.1980 -0.0251  0.9642
 3134TIP3   OH231036   2.338   0.319   1.387  0.1881 -0.5814  0.3427
 3134TIP3    H131037   2.357   0.225   1.386 -0.4447 -0.7176 -0.1791
 3134TIP3    H231038   2.318   0.339   1.295 -1.5596 -0.3439  0.7403
 3135TIP3   OH231039   1.416   4.898   3.194  0.2372  0.0493  0.3586
 3135TIP3    H131040   1.469   4.960   3.245  0.8354 -0.4989  0.4069
 3135TIP3    H231041   1.395   4.828   3.256 -1.5636  0.8258  0.6894
 3136TIP3   OH231042   2.553   1.238   1.523 -1.2155 -0.0298 -0.2674
 3136TIP3    H131043   2.529   1.153   1.560 -2.1464  0.5526  0.5392
 3136TIP3    H231044   2.634   1.222   1.476 -1.6254 -1.4677 -0.5394
 3137TIP3   OH231045   3.051   6.435   3.088 -1.1948  0.1520 -0.3914
 3137TIP3    H131046   3.044   6.513   3.142 -2.3545 -0.0288 -0.2519
 3137TIP3    H231047   3.081   6.467   3.003  0.2961  0.4817  0.2300
 3138TIP3   OH231048   3.291   1.536   7.570  0.3472  0.3622 -0.0370
 3138TIP3    H131049   3.326   1.575   7.650  3.2808  1.4757 -1.7260
 3138TIP3    H231050   3.300   1.604   7.503 -0.4757 -1.0593 -1.6808
 3139TIP3   OH231051   3.245   2.790   3.288 -0.3960 -0.1306 -0.1040
 3139TIP3    H131052   3.318   2.837   3.328  0.9134 -1.6557 -0.6144
 3139TIP3    H231053   3.233   2.713   3.342 -0.6031 -0.6615 -0.8863
 3140TIP3   OH231054   6.571   4.709   1.729 -0.0340 -0.2030  0.2050
 3140TIP3    H131055   6.629   4.663   1.789 -0.7581 -1.5906 -0.1141
 3140TIP3    H231056   6.623   4.722   1.650  0.1126 -0.6673  0.2244
 3141TIP3   OH231057   5.569   2.295   1.263  0.2800 -0.0394  0.1597
 3141TIP3    H131058   5.530   2.214   1.293  2.1198 -0.3369  1.9399
 3141TIP3    H231059   5.600   2.275   1.174 -0.4047 -0.8609  0.0923
 3142TIP3   OH231060   5.853   0.594   2.827 -0.0705  0.6496 -0.4598
 3142TIP3    H131061   5.932   0.638   2.796  0.1537  1.6321  1.3874
 3142TIP3    H231062   5.881   0.505   2.848  0.6779  1.1294  0.6340
 3143TIP3   OH231063   4.632   6.040   1.876  0.1882 -0.5042 -0.5313
 3143TIP3    H131064   4.594   6.106   1.818 -0.9970 -0.7670 -0.0668
 3143TIP3    H231065   4.726   6.044   1.858 -0.0860 -0.1190 -1.9900
 3144TIP3   OH231066   2.007   0.023   8.286  0.1469  0.4398 -0.5350
 3144TIP3    H131067   1.988   0.098   8.344 -2.7733  1.2235 -2.2813
 3144TIP3    H231068   2.029   0.063   8.202  4.3943 -0.6814 -0.1635
 3145TIP3   OH231069   5.402   2.694   1.984 -0.0153 -0.2126  0.4551
 3145TIP3    H131070   5.321   2.721   1.942  0.3652 -1.4891 -1.1955
 3145TIP3    H231071   5.423   2.610   1.944  1.3480 -0.6236  1.9281
 3146TIP3   OH231072   1.360   4.971   8.477  0.1569  0.0392  0.0482
 3146TIP3    H131073   1.412   4.991   8.399 -0.2969 -0.3787 -0.3660
 3146TIP3    H231074   1.405   4.898   8.518  0.0946 -0.1005 -0.1282
 3147TIP3   OH231075   5.299   6.738   1.457  0.0364 -0.3823 -0.2134
 3147TIP3    H131076   5.352   6.785   1.392 -1.4411  2.0225  0.2000
 3147TIP3    H231077   5.255   6.670   1.407  0.3438  0.2375 -1.3721
 3148TIP3   OH231078   2.941   2.581   0.836  0.5364  0.4502 -0.5613
 3148TIP3    H131079   2.901   2.499   0.808 -0.8585  2.0101 -3.6385
 3148TIP3    H231080   2.908   2.594   0.925 -2.1188 -0.6609 -1.2566
 3149TIP3   OH231081   6.621   4.375   8.644  0.1746 -0.1468 -0.1330
 3149TIP3    H131082   6.547   4.313   8.652  0.9361 -1.2462 -1.3248
 3149TIP3    H231083   6.673   4.359   8.723 -0.2349 -0.2144  0.1270
 3150TIP3   OH231084   4.779   0.812   0.728 -0.4743 -0.2195 -0.1075
 3150TIP3    H131085   4.721   0.840   0.798 -2.2010  0.9487 -1.9087
 3150TIP3    H231086   4.856   0.868   0.737 -2.3867  2.8853 -1.5098
 3151TIP3   OH231087   4.944   6.539   0.768  0.1191 -0.2809 -0.3817
 3151TIP3    H131088   4.890   6.554   0.690  0.1238 -0.6520 -0.4569
 3151TIP3    H231089   4.974   6.627   0.793 -0.6345 -0.0465 -0.2497
 3152TIP3   OH231090   0.714   5.211   3.338 -0.3806 -0.1308 -0.2395
 3152TIP3    H131091   0.696   5.304   3.351 -0.7423 -0.4020  1.4697
 3152TIP3    H231092   0.804   5.208   3.306  0.5594  0.7398  2.0924
 3153TIP3   OH231093   4.605   6.756   7.577 -0.8032  0.4852 -0.5705
 3153TIP3    H131094   4.589   6.698   7.652  0.3242  0.6137 -0.2211
 3153TIP3    H231095   4.558   6.714   7.504 -2.3038  0.5975  0.2872
 3154TIP3   OH231096   6.079   3.835   2.990 -0.2682 -0.5054  0.3253
 3154TIP3    H131097   6.142   3.902   2.965 -0.6951 -0.5119 -0.8312
 3154TIP3    H231098   6.122   3.752   2.966 -0.7312 -0.5045 -0.5605
 3155TIP3   OH231099   6.901   3.368   8.526  0.2143  0.7105  0.0753
 3155TIP3    H131100   6.832   3.408   8.580 -0.3969 -0.5886  0.2890
 3155TIP3    H231101   6.858   3.293   8.484  1.2437  0.4705 -0.5814
 3156TIP3   OH231102   0.298   4.092   8.225 -0.1095 -0.5941 -0.1211
 3156TIP3    H131103   0.316   4.185   8.238 -1.6102 -0.6348  3.4700
 3156TIP3    H231104   0.234   4.089   8.154 -0.1584  1.1360 -0.1921
 3157TIP3   OH231105   0.700   6.715   1.653 -0.0140 -0.2368 -0.1870
 3157TIP3    H131106   0.680   6.767   1.731 -0.4846 -0.1881 -0.3362
 3157TIP3    H231107   0.704   6.624   1.685  0.6506 -0.1323  0.0444
 3158TIP3   OH231108   0.815   1.886   3.131  0.4748  0.1215  0.4141
 3158TIP3    H131109   0.898   1.900   3.177  0.2412 -1.2830  1.3295
 3158TIP3    H231110   0.748   1.906   3.197  0.0769  1.0892 -0.2700
 3159TIP3   OH231111   2.534   1.895   2.938 -0.3317  0.5863  0.6142
 3159TIP3    H131112   2.496   1.843   3.008 -1.8346  1.1609  0.2569
 3159TIP3    H231113   2.555   1.831   2.870 -1.9727  0.3795  0.2589
 3160TIP3   OH231114   0.745   6.738   3.089 -0.0048 -0.2325 -0.1437
 3160TIP3    H131115   0.775   6.677   3.022  0.7113  0.4410 -0.4581
 3160TIP3    H231116   0.817   6.802   3.097 -1.6859  1.9978 -1.5863
 3161TIP3   OH231117   2.852   1.316   1.894  0.1630  0.3466 -0.2501
 3161TIP3    H131118   2.813   1.281   1.974  0.5620 -1.0224 -0.6305
 3161TIP3    H231119   2.816   1.405   1.887  1.7945  1.3945  2.6241
 3162TIP3   OH231120   5.572   2.102   0.109  0.3774 -0.3695 -0.1670
 3162TIP3    H131121   5.531   2.134   0.189  1.1720  2.7917 -0.8855
 3162TIP3    H231122   5.614   2.021   0.134 -1.9692 -1.1001  1.8189
 3163TIP3   OH231123   5.887   6.573   3.347 -0.8388  0.1543 -0.1438
 3163TIP3    H131124   5.870   6.645   3.408 -0.7389 -2.0138  2.6611
 3163TIP3    H231125   5.801   6.533   3.332 -1.0769  1.4188 -2.5960
 3164TIP3   OH231126   1.165   3.200   8.279  0.5750 -0.5451  0.5356
 3164TIP3    H131127   1.098   3.267   8.292 -1.4026 -2.3294  0.1816
 3164TIP3    H231128   1.159   3.178   8.186 -0.4155 -2.7150  1.0479
 3165TIP3   OH231129   1.087   5.422   0.503 -0.1255 -0.0070  0.3469
 3165TIP3    H131130   1.092   5.492   0.438  0.3067  0.9011  1.3279
 3165TIP3    H231131   1.015   5.448   0.561 -0.2199 -0.5768  0.4940
 3166TIP3   OH231132   5.059   2.701   3.017 -0.0530 -0.3125  0.7036
 3166TIP3    H131133   5.106   2.770   2.970 -0.4839 -1.7037 -2.0072
 3166TIP3    H231134   5.087   2.620   2.974 -2.7587 -1.4385  0.8659
 3167TIP3   OH231135   3.621   1.568   8.418  0.7344  0.6734 -0.0108
 3167TIP3    H131136   3.701   1.524   8.388  0.1564 -1.6796  1.5971
 3167TIP3    H231137   3.558   1.497   8.429 -0.6500  2.0885  1.6307
 3168TIP3   OH231138   2.224   2.006   0.028 -0.2997  0.6935  0.1239
 3168TIP3    H131139   2.257   2.061  -0.043 -0.4962  1.2789  0.4866
 3168TIP3    H231140   2.230   2.060   0.106 -0.8113  0.3214  0.4280
 3169TIP3   OH231141   3.050   5.933   1.835 -0.7316 -0.1620  0.3514
 3169TIP3    H131142   3.135   5.912   1.873  0.2987  1.3300 -1.0144
 3169TIP3    H231143   3.032   6.023   1.861 -1.0653  0.1197 -0.7784
 3170TIP3   OH231144   1.217   6.176   0.599  0.5695  0.2135 -0.1960
 3170TIP3    H131145   1.285   6.109   0.587  0.6846  0.0265  1.3227
 3170TIP3    H231146   1.264   6.251   0.636  0.0916  0.3844  0.0695
 3171TIP3   OH231147   1.990   0.395   2.126 -0.1760 -0.6653 -0.2955
 3171TIP3    H131148   1.936   0.471   2.147 -1.1008 -1.0648 -1.1636
 3171TIP3    H231149   1.953   0.325   2.179 -0.6519 -0.9823 -1.0270
 3172TIP3   OH231150   6.759   4.650   2.071 -0.3406  0.3988  0.0244
 3172TIP3    H131151   6.675   4.685   2.099 -0.3670  1.0834 -0.8429
 3172TIP3    H231152   6.737   4.572   2.019 -0.4598  0.6979 -0.3800
 3173TIP3   OH231153   5.003   4.037   1.670  0.4101  0.2099 -0.2833
 3173TIP3    H131154   4.960   4.105   1.618 -1.3668 -0.7818 -0.1962
 3173TIP3    H231155   5.090   4.071   1.687 -0.1238  2.0538 -1.0181
 3174TIP3   OH231156   2.201   6.696   8.194 -0.4182 -0.4802  1.0638
 3174TIP3    H131157   2.291   6.666   8.212 -0.7643 -0.5637  2.8126
 3174TIP3    H231158   2.193   6.779   8.241 -0.0262  1.7036 -2.3577
 3175TIP3   OH231159   1.277   1.721   2.135  0.0081 -0.5141 -0.0067
 3175TIP3    H131160   1.315   1.807   2.120 -1.2091 -0.0933 -0.8893
 3175TIP3    H231161   1.344   1.659   2.107 -0.1020  0.2028 -2.0195
 3176TIP3   OH231162   2.851   5.080   7.344  0.1631  0.4448 -0.1486
 3176TIP3    H131163   2.800   5.014   7.392  1.1718 -0.1552  0.1246
 3176TIP3    H231164   2.931   5.089   7.395  0.6277  0.8650 -0.9482
 3177TIP3   OH231165   4.734   2.651   2.043  0.1102 -0.3822  0.0378
 3177TIP3    H131166   4.640   2.631   2.050  0.1313 -0.4986 -0.0044
 3177TIP3    H231167   4.777   2.583   2.095  0.3638 -2.1371 -2.2879
 3178TIP3   OH231168   2.320   4.131   2.384  0.1591  0.8872 -0.3978
 3178TIP3    H131169   2.415   4.127   2.399  0.1969  0.9769 -0.6133
 3178TIP3    H231170   2.291   4.040   2.394  0.2704  0.8547 -0.3585
 3179TIP3   OH231171   6.574   4.042   8.172 -0.1878 -0.0951  0.6071
 3179TIP3    H131172   6.528   3.962   8.152 -1.0003  0.0696  1.7286
 3179TIP3    H231173   6.531   4.076   8.250 -0.1391  1.6497 -0.0751
 3180TIP3   OH231174   3.053   4.479   2.434 -0.1255  0.2953 -0.6791
 3180TIP3    H131175   2.997   4.550   2.405  1.1154  1.7163  0.2444
 3180TIP3    H231176   3.048   4.481   2.529 -1.2903 -1.9319 -0.6127
 3181TIP3   OH231177   3.794   0.048   8.300 -0.1147 -0.0841  0.2350
 3181TIP3    H131178   3.703   0.023   8.285 -0.4033  0.1342  1.4823
 3181TIP3    H231179   3.790   0.115   8.369  0.9097  0.7811 -0.5049
 3182TIP3   OH231180   2.634   5.839   8.579 -0.2473  0.4490  0.3576
 3182TIP3    H131181   2.670   5.919   8.616  0.2174  0.2107  0.4343
 3182TIP3    H231182   2.685   5.824   8.499 -1.0297  0.7893 -0.2185
 3183TIP3   OH231183   6.751   4.618   8.052 -0.2525 -0.0145  0.3228
 3183TIP3    H131184   6.731   4.607   7.959  0.3018  2.2770 -0.1393
 3183TIP3    H231185   6.666   4.615   8.096 -0.9503  2.2645 -0.7137
 3184TIP3   OH231186   6.633   2.686   8.272 -0.0978  0.3130  0.2633
 3184TIP3    H131187   6.610   2.755   8.211 -0.3091  1.0934  1.2096
 3184TIP3    H231188   6.640   2.607   8.218 -0.0419  1.0297 -0.7920
 3185TIP3   OH231189   4.647   4.980   1.732  0.2738 -0.5900 -0.2671
 3185TIP3    H131190   4.645   5.013   1.642  0.2424  1.4070  0.4009
 3185TIP3    H231191   4.556   4.959   1.752  0.0441  0.3530 -0.2590
 3186TIP3   OH231192   3.332   4.130   8.219  0.5150  0.3982  0.1994
 3186TIP3    H131193   3.275   4.207   8.214  0.3623  0.2506 -0.3010
 3186TIP3    H231194   3.415   4.160   8.184  1.2357  1.0489  2.2755
 3187TIP3   OH231195   2.649   3.741   7.725 -0.5164  0.0660 -0.0264
 3187TIP3    H131196   2.709   3.670   7.748 -0.8445 -0.9171 -1.9854
 3187TIP3    H231197   2.614   3.771   7.809  0.5231 -1.2863  0.9410
 3188TIP3   OH231198   3.842   0.474   0.301 -0.0693 -0.3500  0.8387
 3188TIP3    H131199   3.803   0.433   0.224  2.5455  1.5470 -1.7287
 3188TIP3    H231200   3.777   0.538   0.330 -0.2573  0.4834 -1.2639
 3189TIP3   OH231201   1.106   4.792   2.505  0.1274  0.0018 -0.3226
 3189TIP3    H131202   1.182   4.758   2.457 -0.0845  0.0269 -0.6811
 3189TIP3    H231203   1.101   4.739   2.584  0.2363 -0.3125 -0.5273
 3190TIP3   OH231204   5.827   4.095   0.211 -0.3976  0.0206 -0.5250
 3190TIP3    H131205   5.796   4.011   0.177  0.0528 -0.2512 -0.2679
 3190TIP3    H231206   5.922   4.086   0.215 -0.4444 -0.0578  1.0740
 3191TIP3   OH231207   4.089   1.875   0.380  0.4292 -0.1488  0.0930
 3191TIP3    H131208   4.114   1.836   0.297 -0.1759  0.1203 -0.2207
 3191TIP3    H231209   4.133   1.821   0.446 -0.7869 -1.6860 -0.2961
 3192TIP3   OH231210   3.636   6.055   0.898 -0.4496  0.0072 -0.0917
 3192TIP3    H131211   3.621   5.990   0.830 -0.5207  1.5476 -1.6138
 3192TIP3    H231212   3.608   6.012   0.979 -0.4161 -1.8526 -1.0221
 3193TIP3   OH231213   6.333   5.987   8.111 -0.2565  0.0886  0.0965
 3193TIP3    H131214   6.289   6.010   8.030  1.2857 -0.2549 -0.8862
 3193TIP3    H231215   6.364   6.071   8.147  1.0000  0.0621 -0.8648
 3194TIP3   OH231216   1.810   4.690   0.203 -0.1535  0.2211  0.5808
 3194TIP3    H131217   1.884   4.671   0.260  0.9082 -1.3537 -1.2132
 3194TIP3    H231218   1.759   4.609   0.202 -1.1419  0.8179  0.6497
 3195TIP3   OH231219   5.482   2.296   3.133  0.2274 -0.7269 -0.0255
 3195TIP3    H131220   5.393   2.319   3.108  0.2953 -0.6052 -0.1543
 3195TIP3    H231221   5.500   2.214   3.088 -0.7581 -2.1653  2.0456
 3196TIP3   OH231222   2.958   0.926   1.175  0.1592 -0.4429  0.1636
 3196TIP3    H131223   2.961   1.018   1.201 -0.9110 -0.5879  0.8557
 3196TIP3    H231224   3.041   0.911   1.130  0.2636  0.9131 -0.1372
 3197TIP3   OH231225   4.197   3.940   7.320 -0.0338 -0.8672  0.3834
 3197TIP3    H131226   4.112   3.896   7.327 -0.4075 -0.0347  1.2551
 3197TIP3    H231227   4.175   4.031   7.301  0.7341 -1.0594 -1.7507
 3198TIP3   OH231228   2.384   2.749   2.047  0.2251  0.3563  0.6573
 3198TIP3    H131229   2.361   2.656   2.047 -0.3109  0.4813  0.7660
 3198TIP3    H231230   2.468   2.754   2.001  0.4454 -0.2239  0.9934
 3199TIP3   OH231231   6.799   0.888   2.016 -0.1308 -0.4029 -0.1339
 3199TIP3    H131232   6.852   0.846   1.949  0.2877  0.7231 -0.5331
 3199TIP3    H231233   6.717   0.839   2.016 -0.0621 -0.5290 -1.3379
 3200TIP3   OH231234   1.835   4.977   0.494 -0.3206  0.4236 -0.0245
 3200TIP3    H131235   1.781   4.985   0.415 -0.8249 -0.2825  0.2384
 3200TIP3    H231236   1.831   5.064   0.534 -0.1187  0.7681 -0.7324
 3201TIP3   OH231237   0.400   3.258   3.157  0.5407  0.5806 -0.4003
 3201TIP3    H131238   0.340   3.264   3.083  1.3631 -1.2719 -1.2990
 3201TIP3    H231239   0.476   3.212   3.122  0.7700 -0.7771  1.6760
 3202TIP3   OH231240   5.574   6.895   2.064  0.9809 -0.6623 -0.2278
 3202TIP3    H131241   5.511   6.857   2.002  0.5777 -0.7578  0.2347
 3202TIP3    H231242   5.571   6.989   2.047 -0.1346 -0.5454  0.5629
 3203TIP3   OH231243   4.771   5.026   7.933 -0.4443 -0.0190  0.0731
 3203TIP3    H131244   4.762   5.113   7.896  1.8760  0.0740 -0.4551
 3203TIP3    H231245   4.757   5.037   8.027  0.4610  1.0761  0.0960
 3204TIP3   OH231246   3.750   3.386   0.189  0.5356  0.0380  0.0118
 3204TIP3    H131247   3.747   3.293   0.165 -2.6672 -0.1821  0.8379
 3204TIP3    H231248   3.729   3.432   0.107 -0.5620 -0.1681  0.1551
 3205TIP3   OH231249   1.637   4.227   7.846 -0.1272 -0.6950  0.0789
 3205TIP3    H131250   1.695   4.272   7.907  0.0739 -0.4951 -0.2585
 3205TIP3    H231251   1.689   4.153   7.813  0.5405  0.4047 -1.4564
 3206TIP3   OH231252   4.233   1.809   2.887 -0.5339  0.1965  0.4408
 3206TIP3    H131253   4.310   1.864   2.869 -0.4437 -0.2221 -0.5281
 3206TIP3    H231254   4.242   1.784   2.979 -0.3266  1.4016  0.7754
 3207TIP3   OH231255   0.313   6.780   2.210  0.0711  1.2272  0.4030
 3207TIP3    H131256   0.278   6.842   2.273 -0.4144  1.8132 -0.4212
 3207TIP3    H231257   0.363   6.833   2.148 -2.6224  1.2897 -1.9512
 3208TIP3   OH231258   6.311   5.180   8.432  0.2700  0.0389 -0.7250
 3208TIP3    H131259   6.247   5.120   8.472  0.1503 -0.6225 -1.8537
 3208TIP3    H231260   6.391   5.128   8.425  0.8706  0.7737  0.4089
 3209TIP3   OH231261   3.864   4.553   8.436  0.3136  0.2387  0.0830
 3209TIP3    H131262   3.845   4.538   8.344  0.4302  1.5775 -0.1819
 3209TIP3    H231263   3.838   4.644   8.452 -1.0582 -0.3933  1.7495
 3210TIP3   OH231264   5.433   2.384   0.548 -0.0121  0.0383 -0.0137
 3210TIP3    H131265   5.420   2.331   0.627 -0.0132  3.1365  2.2551
 3210TIP3    H231266   5.346   2.418   0.528  0.0147 -0.6293 -1.3268
 3211TIP3   OH231267   3.250   5.073   7.327  0.0360 -0.3156  0.4775
 3211TIP3    H131268   3.326   5.027   7.363  0.6231  0.2383 -0.0485
 3211TIP3    H231269   3.181   5.058   7.392  0.4639 -1.1801  0.7556
 3212TIP3   OH231270   2.663   5.136   3.824 -0.3981 -0.1411 -0.3723
 3212TIP3    H131271   2.606   5.128   3.748 -0.4066  2.3116 -0.7112
 3212TIP3    H231272   2.715   5.214   3.807 -0.0649  0.2155  1.9231
 3213TIP3   OH231273   1.012   4.935   1.246 -0.2928 -0.0885 -0.9361
 3213TIP3    H131274   0.985   4.843   1.250 -0.7702 -0.0269 -2.3310
 3213TIP3    H231275   0.939   4.980   1.203 -0.3719  1.0825  0.3591
 3214TIP3   OH231276   1.119   1.249   1.885 -0.2944  0.6309 -1.0075
 3214TIP3    H131277   1.173   1.290   1.952 -3.0172  1.8156  0.5905
 3214TIP3    H231278   1.145   1.156   1.886 -1.1711  0.2961  2.7174
 3215TIP3   OH231279   2.822   1.316   0.339  0.3150  0.2520 -0.3724
 3215TIP3    H131280   2.808   1.237   0.288  0.3651  0.2559 -0.3925
 3215TIP3    H231281   2.869   1.286   0.417  0.3491  0.2639 -0.3881
 3216TIP3   OH231282   6.287   4.223   0.979 -0.0707 -0.1061 -0.4342
 3216TIP3    H131283   6.244   4.142   0.950 -2.7200  0.8438  0.5235
 3216TIP3    H231284   6.290   4.216   1.074  2.0227 -0.1077 -0.4481
 3217TIP3   OH231285   5.155   0.133   8.235 -0.8831  0.0763 -0.1594
 3217TIP3    H131286   5.104   0.076   8.293  2.6385  0.5101  3.8265
 3217TIP3    H231287   5.194   0.073   8.171 -2.0342 -0.9977  0.1046
 3218TIP3   OH231288   6.757   3.155   7.520  0.2394 -0.5877 -0.4810
 3218TIP3    H131289   6.821   3.226   7.523  0.3247 -0.6027 -1.4795
 3218TIP3    H231290   6.765   3.119   7.431 -0.5326 -1.1678 -0.3312
 3219TIP3   OH231291   5.495   3.072   7.362  0.2430  0.5253  0.3956
 3219TIP3    H131292   5.473   3.121   7.441 -0.0045  1.3804 -0.1825
 3219TIP3    H231293   5.513   3.140   7.296  1.8219 -0.1670  0.0898
 3220TIP3   OH231294   5.122   5.065   0.961  0.2394 -0.8598  0.1689
 3220TIP3    H131295   5.076   5.119   1.024 -0.3061 -0.4169 -0.5949
 3220TIP3    H231296   5.183   5.124   0.917  0.6517 -1.1731  0.3104
 3221TIP3   OH231297   4.061   6.646   1.296 -0.1109 -0.3888 -0.0755
 3221TIP3    H131298   4.062   6.630   1.201 -1.0420  1.8389 -0.5224
 3221TIP3    H231299   4.153   6.648   1.321  0.2440  1.0911 -1.3710
 3222TIP3   OH231300   3.674   0.816   3.431 -0.7252  0.6216  0.1881
 3222TIP3    H131301   3.635   0.878   3.370 -1.4258  0.4931  0.5056
 3222TIP3    H231302   3.606   0.751   3.447 -0.1477 -0.0083  0.1895
 3223TIP3   OH231303   2.321   2.124   0.703 -0.1327 -0.0750  0.2228
 3223TIP3    H131304   2.381   2.152   0.772 -0.8134  2.5288 -0.1103
 3223TIP3    H231305   2.378   2.090   0.634  0.7268 -0.4157  1.0840
 3224TIP3   OH231306   1.556   0.974   8.083 -0.9691  0.2156 -0.8062
 3224TIP3    H131307   1.481   1.022   8.118 -0.3362  0.2805  0.5416
 3224TIP3    H231308   1.602   0.942   8.161 -0.0887 -0.5739 -1.6309
 3225TIP3   OH231309   1.608   2.706   7.936  0.0953 -0.6313 -0.2418
 3225TIP3    H131310   1.679   2.645   7.955  2.3808  2.1087  0.6805
 3225TIP3    H231311   1.562   2.717   8.019 -0.3173 -1.0380 -0.4081
 3226TIP3   OH231312   6.434   3.384   0.987 -0.3607  0.1331  0.1501
 3226TIP3    H131313   6.483   3.430   1.056 -1.2981  0.1719  0.8086
 3226TIP3    H231314   6.377   3.451   0.950 -0.9520 -0.2369  0.3744
 3227TIP3   OH231315   4.616   4.548   2.088  0.4625  0.0830 -0.1487
 3227TIP3    H131316   4.613   4.627   2.033 -1.1123  0.5880  0.6067
 3227TIP3    H231317   4.681   4.569   2.155  0.0760  0.7433  0.0323
 3228TIP3   OH231318   4.792   6.875   1.972  0.0846  0.1238 -0.1433
 3228TIP3    H131319   4.705   6.915   1.979  0.1940  0.0201  2.8033
 3228TIP3    H231320   4.788   6.798   2.028  1.8367 -0.3716 -0.6312
 3229TIP3   OH231321   3.908   1.746   2.497 -0.3929 -0.0808  0.1617
 3229TIP3    H131322   3.955   1.664   2.486 -0.3249 -0.1884  1.1725
 3229TIP3    H231323   3.907   1.785   2.409 -0.9215 -1.4099 -0.4506
 3230TIP3   OH231324   4.874   3.150   3.186 -0.3813 -0.0085 -0.4866
 3230TIP3    H131325   4.917   3.124   3.267 -0.8004 -1.4435 -0.7046
 3230TIP3    H231326   4.817   3.223   3.211  2.2779  2.1652 -0.2251
 3231TIP3   OH231327   2.322   5.295   1.426  0.1137  0.4231 -0.9913
 3231TIP3    H131328   2.335   5.204   1.399 -3.6778  0.5947 -4.3133
 3231TIP3    H231329   2.262   5.290   1.501 -0.8288  0.1366 -1.7450
 3232TIP3   OH231330   2.716   6.540   2.277  0.1990 -0.2765 -0.1520
 3232TIP3    H131331   2.672   6.611   2.230  1.6869  0.4661 -0.4603
 3232TIP3    H231332   2.662   6.463   2.259 -0.7455  0.5226 -0.8576
 3233TIP3   OH231333   1.890   5.899   2.240 -0.3889  0.2491  0.2937
 3233TIP3    H131334   1.888   5.805   2.262  2.3161 -0.1211 -0.6461
 3233TIP3    H231335   1.880   5.944   2.324 -0.2988 -0.9051  0.9434
 3234TIP3   OH231336   1.309   4.513   8.418 -0.2153 -0.2335  0.1015
 3234TIP3    H131337   1.324   4.419   8.405  0.1225 -0.0467 -1.0203
 3234TIP3    H231338   1.371   4.538   8.486 -0.6069 -0.9062  0.7129
 3235TIP3   OH231339   4.238   5.493   7.783  0.1180 -0.0898  0.0921
 3235TIP3    H131340   4.172   5.423   7.784 -0.2067  0.1188 -1.7243
 3235TIP3    H231341   4.246   5.516   7.690  0.8207  1.7171  0.5582
 3236TIP3   OH231342   3.052   0.229   2.121  0.2054  0.3598 -0.0929
 3236TIP3    H131343   3.143   0.231   2.092  1.3505  0.3549  3.1130
 3236TIP3    H231344   3.001   0.249   2.042  3.0092  1.6497 -1.7271
 3237TIP3   OH231345   6.656   0.685   0.780  0.1932 -0.0333 -0.5151
 3237TIP3    H131346   6.633   0.644   0.697 -1.0032  0.0110 -0.2211
 3237TIP3    H231347   6.743   0.724   0.764  0.7059 -1.4076 -1.2238
 3238TIP3   OH231348   1.797   2.556   2.946 -0.4334  0.4109 -0.5131
 3238TIP3    H131349   1.754   2.641   2.947  0.3484  0.8291 -1.1422
 3238TIP3    H231350   1.889   2.575   2.924 -0.1736 -0.5564 -0.3375
 3239TIP3   OH231351   3.290   5.526   0.073 -0.4673 -0.2293 -0.2800
 3239TIP3    H131352   3.246   5.477   0.142  2.8024  0.2091  2.3570
 3239TIP3    H231353   3.287   5.617   0.102  2.7675 -0.2619  0.5813
 3240TIP3   OH231354   1.480   3.623   1.637 -0.4781  0.3318  0.6048
 3240TIP3    H131355   1.557   3.616   1.694  0.8114 -1.3038 -1.2092
 3240TIP3    H231356   1.406   3.618   1.696  0.8025 -0.8519  2.2030
 3241TIP3   OH231357   5.836   4.927   7.737 -0.6115 -0.0344 -0.4696
 3241TIP3    H131358   5.824   4.994   7.805  1.4298  0.2729 -0.3624
 3241TIP3    H231359   5.841   4.977   7.655 -1.6036 -0.2920 -0.7038
 3242TIP3   OH231360   0.390   4.307   1.349 -0.8004 -0.1573 -0.2059
 3242TIP3    H131361   0.456   4.368   1.316 -0.4351 -0.4789 -0.0797
 3242TIP3    H231362   0.429   4.221   1.336  0.1854 -0.2516  2.8265
 3243TIP3   OH231363   0.814   3.944   7.691 -0.1364 -0.2899 -0.4225
 3243TIP3    H131364   0.867   3.980   7.762  0.0121 -0.8530 -0.2393
 3243TIP3    H231365   0.731   3.992   7.695  0.2741  0.4442 -0.5703
 3244TIP3   OH231366   6.783   2.258   2.373 -0.1121  0.2358 -0.0259
 3244TIP3    H131367   6.714   2.299   2.424 -0.1433  0.1864 -0.0291
 3244TIP3    H231368   6.852   2.325   2.368  0.2600 -0.0683  0.8195
 3245TIP3   OH231369   6.155   6.491   1.731 -0.0100  0.1205  0.5838
 3245TIP3    H131370   6.127   6.426   1.795  0.7358  0.7591  1.5893
 3245TIP3    H231371   6.248   6.470   1.715  0.4087  1.2748  1.3753
 3246TIP3   OH231372   4.830   2.470   2.222  0.4274 -0.3943 -0.4848
 3246TIP3    H131373   4.760   2.475   2.287  0.0443 -3.0936 -0.5635
 3246TIP3    H231374   4.906   2.439   2.272  0.6296 -0.7118 -0.9808
 3247TIP3   OH231375   6.206   3.316   2.462 -0.0206 -0.2512 -0.3534
 3247TIP3    H131376   6.138   3.380   2.444 -0.5929 -0.5776  0.5789
 3247TIP3    H231377   6.247   3.347   2.543  1.3572  0.2695 -1.2149
 3248TIP3   OH231378   2.195   3.579   2.649 -0.3711 -0.3387 -0.1485
 3248TIP3    H131379   2.224   3.503   2.598 -1.4847  0.5680 -2.2384
 3248TIP3    H231380   2.104   3.560   2.669  0.2481 -1.0420  2.3199
 3249TIP3   OH231381   5.852   3.928   0.524  0.0001 -0.0741  0.0368
 3249TIP3    H131382   5.802   3.863   0.574  0.4847  1.1726  2.2823
 3249TIP3    H231383   5.857   3.892   0.435 -2.2991 -1.6339  0.4689
 3250TIP3   OH231384   5.913   5.753   0.601  0.1076 -0.7704  0.0619
 3250TIP3    H131385   5.995   5.706   0.591  1.5027  1.7307 -1.5678
 3250TIP3    H231386   5.848   5.697   0.558  1.5138 -1.5955 -1.0982
 3251TIP3   OH231387   4.116   2.898   3.021  0.6126 -0.0449 -0.0582
 3251TIP3    H131388   4.180   2.968   3.026  0.3120  0.2165  0.1812
 3251TIP3    H231389   4.168   2.818   3.015  1.0319  0.3478 -3.8361
 3252TIP3   OH231390   5.124   1.296   1.865 -0.3273  0.2123  0.0799
 3252TIP3    H131391   5.041   1.264   1.830 -0.1821  0.4062 -0.4625
 3252TIP3    H231392   5.144   1.373   1.812  0.4971 -0.1780 -0.2004
 3253TIP3   OH231393   3.537   3.388   1.977 -0.6746 -0.4049 -0.3831
 3253TIP3    H131394   3.571   3.359   1.893  1.1868 -0.3899  0.3191
 3253TIP3    H231395   3.610   3.377   2.038 -1.5940  0.6868  0.9957
 3254TIP3   OH231396   0.785   0.287   8.524  0.1346 -0.3863  0.2373
 3254TIP3    H131397   0.825   0.202   8.507  0.6480 -0.1098  0.0235
 3254TIP3    H231398   0.699   0.267   8.560  1.1989 -1.0358  2.6299
 3255TIP3   OH231399   1.599   6.235   8.626 -0.2123 -0.3019 -0.2368
 3255TIP3    H131400   1.506   6.245   8.648 -0.2259  0.8149 -0.7118
 3255TIP3    H231401   1.599   6.217   8.532  0.1247  2.3198 -0.8056
 3256TIP3   OH231402   3.027   2.851   0.898 -0.3160  0.4007  0.4796
 3256TIP3    H131403   3.054   2.906   0.825  0.7168 -1.1727 -0.3709
 3256TIP3    H231404   2.987   2.774   0.858 -0.6883 -0.0196  1.5977
 3257TIP3   OH231405   4.453   5.017   2.849 -0.0363  0.2055 -0.5230
 3257TIP3    H131406   4.489   4.948   2.793 -1.5873 -0.1648 -1.0908
 3257TIP3    H231407   4.449   4.978   2.936  0.2503  0.0056 -0.5980
 3258TIP3   OH231408   6.208   0.431   2.632 -0.8291  0.3817 -0.6417
 3258TIP3    H131409   6.191   0.509   2.686  1.2608 -0.4406  1.3210
 3258TIP3    H231410   6.189   0.357   2.690  0.3772 -0.5469 -1.3921
 3259TIP3   OH231411   1.646   1.585   1.110  0.2088  0.1842  0.3874
 3259TIP3    H131412   1.567   1.532   1.112  0.5858 -0.4572 -0.9036
 3259TIP3    H231413   1.705   1.542   1.172  0.2840 -0.5522 -0.1834
 3260TIP3   OH231414   1.302   5.492   7.314  0.6258  0.0916 -0.1480
 3260TIP3    H131415   1.236   5.560   7.298 -0.0829 -1.0250 -2.2327
 3260TIP3    H231416   1.263   5.411   7.282  3.1592 -0.5439 -1.9460
 3261TIP3   OH231417   0.932   1.107   2.139 -0.1277  0.6486 -0.1542
 3261TIP3    H131418   0.973   1.192   2.129 -0.1483  0.5163 -1.5462
 3261TIP3    H231419   0.860   1.107   2.076 -1.8348  0.5762  1.6529
 3262TIP3   OH231420   1.685   2.528   0.385 -0.3562 -0.0454 -0.2940
 3262TIP3    H131421   1.775   2.549   0.411 -0.6459 -1.2037  1.9557
 3262TIP3    H231422   1.694   2.485   0.300  1.1934  0.1437 -0.2567
 3263TIP3   OH231423   6.184   3.981   0.631 -0.0341  0.5098  0.5344
 3263TIP3    H131424   6.096   4.005   0.602  0.8253  1.3157 -1.6196
 3263TIP3    H231425   6.217   4.059   0.674 -0.5779 -0.0156  1.9544
 3264TIP3   OH231426   1.454   6.811   1.386 -0.6774  0.0635 -0.3147
 3264TIP3    H131427   1.377   6.860   1.358 -1.2204 -0.3492  0.4223
 3264TIP3    H231428   1.421   6.725   1.411 -0.4260  0.6465  2.4323
 3265TIP3   OH231429   0.586   2.855   8.406  0.0361  0.6027 -0.5845
 3265TIP3    H131430   0.512   2.797   8.387  1.9377 -2.9462  1.6684
 3265TIP3    H231431   0.650   2.835   8.337  1.1648 -1.0286  0.8627
 3266TIP3   OH231432   1.915   6.194   8.415  0.3712 -0.1850  0.0753
 3266TIP3    H131433   1.839   6.250   8.433 -0.0334 -0.4581 -0.7006
 3266TIP3    H231434   1.989   6.240   8.455  0.4129  1.9900 -2.2079
 3267TIP3   OH231435   3.892   2.595   2.338 -0.2120  0.0583  0.3664
 3267TIP3    H131436   3.921   2.520   2.285 -0.9603  1.5562 -2.3635
 3267TIP3    H231437   3.914   2.571   2.428  2.6262 -2.0071 -0.7390
 3268TIP3   OH231438   1.893   1.821   2.134  0.1142  0.1062  0.1266
 3268TIP3    H131439   1.837   1.796   2.207  0.6825 -1.2629  0.1254
 3268TIP3    H231440   1.978   1.841   2.175  0.2977 -0.1893 -0.1057
 3269TIP3   OH231441   0.842   6.612   3.298 -0.5751  0.6077 -0.0052
 3269TIP3    H131442   0.801   6.599   3.213  0.5937  1.0062 -0.6604
 3269TIP3    H231443   0.936   6.614   3.278 -0.1967 -0.6446  1.4676
 3270TIP3   OH231444   1.991   4.678   2.004 -0.2806 -0.5733  0.2806
 3270TIP3    H131445   1.939   4.641   2.074  1.5779 -1.3894  1.2914
 3270TIP3    H231446   1.942   4.658   1.924 -2.5796  0.6212  1.2938
 3271TIP3   OH231447   3.892   4.865   2.693  0.4472  0.5602 -0.4565
 3271TIP3    H131448   3.845   4.803   2.638 -0.3230  0.9954 -0.3094
 3271TIP3    H231449   3.984   4.857   2.666  0.1671  0.3405 -1.3804
 3272TIP3   OH231450   3.089   5.349   0.974  0.4320 -0.2579 -0.3363
 3272TIP3    H131451   3.123   5.283   0.913 -0.3243  0.1105 -1.1787
 3272TIP3    H231452   3.015   5.307   1.016  0.5137 -0.2640 -0.1979
 3273TIP3   OH231453   2.236   4.783   2.055  0.4120 -0.1185 -0.5893
 3273TIP3    H131454   2.282   4.739   1.983  0.1022 -0.6039 -0.4999
 3273TIP3    H231455   2.144   4.762   2.040  0.4794 -1.8432  0.9806
 3274TIP3   OH231456   2.860   4.370   2.116  0.2842  0.0479 -0.2081
 3274TIP3    H131457   2.849   4.291   2.169  0.2723 -0.8529 -1.4870
 3274TIP3    H231458   2.780   4.376   2.065  0.7114  0.2926 -0.8716
 3275TIP3   OH231459   1.600   3.221   1.673  0.9225  0.0160  0.1270
 3275TIP3    H131460   1.579   3.269   1.593  0.8149 -1.0232 -0.4861
 3275TIP3    H231461   1.569   3.278   1.743 -2.5391 -0.7103 -0.6563
 3276TIP3   OH231462   0.590   0.202   1.284  0.0202 -0.0211  0.1334
 3276TIP3    H131463   0.654   0.144   1.243  0.2438  1.3470 -1.5267
 3276TIP3    H231464   0.528   0.142   1.326  0.2914 -1.4684 -1.4245
 3277TIP3   OH231465   6.025   6.341   1.536 -0.1217 -0.1360 -0.4621
 3277TIP3    H131466   6.090   6.380   1.595  0.1834 -0.1445 -0.7941
 3277TIP3    H231467   5.945   6.392   1.553 -0.9084 -1.9883  2.1272
 3278TIP3   OH231468   2.990   3.328   0.298 -0.3886  0.5421 -0.3700
 3278TIP3    H131469   3.005   3.338   0.392 -2.2782 -2.4983  0.3828
 3278TIP3    H231470   3.078   3.328   0.260  0.4574  1.1160  1.4670
 3279TIP3   OH231471   1.741   3.484   2.262 -0.2504  0.1580 -0.3159
 3279TIP3    H131472   1.683   3.422   2.306 -2.4566  1.6696 -0.9488
 3279TIP3    H231473   1.827   3.466   2.299 -1.4755 -0.6083  2.4278
 3280TIP3   OH231474   2.487   4.812   1.635  0.3544 -0.4197 -0.0967
 3280TIP3    H131475   2.522   4.901   1.643  1.1345 -0.5727 -1.4389
 3280TIP3    H231476   2.395   4.820   1.657  0.6136  0.5375  0.7382
 3281TIP3   OH231477   6.229   5.708   1.163 -0.5209  0.1290 -0.3320
 3281TIP3    H131478   6.170   5.707   1.239 -0.5952 -0.0814 -0.3908
 3281TIP3    H231479   6.171   5.697   1.088 -0.2125 -3.0187 -0.2503
 3282TIP3   OH231480   5.657   5.010   2.851 -0.1507 -0.7155  0.2141
 3282TIP3    H131481   5.599   4.940   2.881  1.1473 -1.9923 -0.1550
 3282TIP3    H231482   5.743   4.969   2.847  0.8805  1.2356  1.1430
 3283TIP3   OH231483   2.304   0.887   0.431  0.2759  0.3461  0.0499
 3283TIP3    H131484   2.269   0.864   0.517  1.5845  1.3614  0.9093
 3283TIP3    H231485   2.238   0.944   0.393 -0.6073 -0.6215  0.0977
 3284TIP3   OH231486   4.324   2.146   8.205 -0.1275 -0.6291  0.1850
 3284TIP3    H131487   4.303   2.120   8.294 -0.5145 -1.9974 -0.2788
 3284TIP3    H231488   4.268   2.091   8.150 -0.3736  0.6413 -0.8917
 3285TIP3   OH231489   2.065   6.807   2.126 -0.9092  0.2007  0.2694
 3285TIP3    H131490   2.136   6.797   2.063 -0.7636  0.4520  0.3923
 3285TIP3    H231491   1.986   6.815   2.072 -0.6994  1.1766  0.0870
 3286TIP3   OH231492   1.139   1.957   1.054  1.0605 -0.0605  0.2609
 3286TIP3    H131493   1.180   1.945   1.140 -0.5210 -0.1514  1.0420
 3286TIP3    H231494   1.154   2.049   1.033 -0.3557  0.5241  1.6532
 3287TIP3   OH231495   5.814   2.646   2.574  0.3691 -0.1038  0.2056
 3287TIP3    H131496   5.810   2.615   2.664  0.7404 -1.9971 -0.3927
 3287TIP3    H231497   5.906   2.667   2.560  0.4722 -0.6596  0.0165
 3288TIP3   OH231498   5.297   0.490   0.769  0.1408  0.3900 -0.4792
 3288TIP3    H131499   5.272   0.568   0.818  1.1295  0.6296 -0.3355
 3288TIP3    H231500   5.275   0.509   0.678 -0.4126  0.4930 -0.3262
 3289TIP3   OH231501   0.997   1.740   2.020  0.2094 -0.4567  0.3143
 3289TIP3    H131502   0.988   1.655   2.062  0.3895 -0.7704 -0.2695
 3289TIP3    H231503   1.055   1.790   2.078  0.0485 -0.7086  0.6914
 3290TIP3   OH231504   1.619   3.288   2.407  0.8628 -0.0319  0.3778
 3290TIP3    H131505   1.622   3.328   2.494  2.2058 -0.8201  0.7144
 3290TIP3    H231506   1.668   3.207   2.416 -1.0409 -1.3683 -0.5056
 3291TIP3   OH231507   1.862   0.033   7.238  0.3080 -0.2862 -0.2262
 3291TIP3    H131508   1.950  -0.003   7.251  0.0069 -0.7145  0.7772
 3291TIP3    H231509   1.804  -0.042   7.253 -0.2719  0.2910  0.4521
 3292TIP3   OH231510   0.535   4.807   8.377  0.2018 -0.1562  0.5102
 3292TIP3    H131511   0.576   4.887   8.411  0.9885 -0.3864  0.1231
 3292TIP3    H231512   0.580   4.736   8.423  0.2607 -0.4169  0.0522
 3293TIP3   OH231513   0.188   5.294   7.702  0.5912 -0.1514  0.2289
 3293TIP3    H131514   0.191   5.205   7.667  2.1737 -0.5410  1.2618
 3293TIP3    H231515   0.259   5.340   7.658  0.4560  0.3038  0.4790
 3294TIP3   OH231516   4.116   4.511   7.994 -0.6340  0.0094 -0.4831
 3294TIP3    H131517   4.098   4.464   8.075  0.8045 -0.1013 -0.2062
 3294TIP3    H231518   4.087   4.452   7.924  1.9277 -1.7602 -0.1860
 3295TIP3   OH231519   5.334   4.049   0.397 -0.3150  0.0666  0.7612
 3295TIP3    H131520   5.397   4.062   0.468 -0.8134 -1.3407  1.4876
 3295TIP3    H231521   5.249   4.071   0.436 -0.5715 -0.5183  0.5366
 3296TIP3   OH231522   4.575   2.397   0.420 -0.5153 -0.2582 -0.6575
 3296TIP3    H131523   4.656   2.362   0.382 -0.5990 -1.1456 -0.0443
 3296TIP3    H231524   4.590   2.491   0.425 -0.8861  0.0954 -3.8445
 3297TIP3   OH231525   2.103   1.111   0.367  0.2047 -0.1312  0.4904
 3297TIP3    H131526   2.097   1.152   0.280 -0.8931  0.8314  1.0053
 3297TIP3    H231527   2.182   1.149   0.405 -0.0858  0.5250  0.4521
 3298TIP3   OH231528   6.581   2.539   8.526  0.1611  0.3006  0.9627
 3298TIP3    H131529   6.493   2.556   8.561  0.7837  0.5814  2.4802
 3298TIP3    H231530   6.600   2.615   8.471 -0.9435 -0.2646 -0.2411
 3299TIP3   OH231531   6.687   0.668   1.779 -0.7060 -0.0395  0.5165
 3299TIP3    H131532   6.756   0.629   1.834 -0.0085  0.9685  0.3788
 3299TIP3    H231533   6.724   0.751   1.749 -2.2422  0.8250  0.9498
 3300TIP3   OH231534   6.590   3.998   0.689  0.1035  0.3356  0.0280
 3300TIP3    H131535   6.664   4.056   0.674 -1.0761  1.4488 -1.8963
 3300TIP3    H231536   6.514   4.047   0.657 -1.2486 -1.3648  0.4903
 3301TIP3   OH231537   0.132   2.044   8.054 -0.0971 -0.2820 -0.3268
 3301TIP3    H131538   0.215   2.039   8.007 -1.0684 -2.6688 -2.0171
 3301TIP3    H231539   0.065   2.041   7.985 -1.5742 -0.9827  1.0720
 3302TIP3   OH231540   5.392   1.714   2.647  0.2574 -0.0134  0.5844
 3302TIP3    H131541   5.458   1.725   2.715  1.0708 -1.5996  0.1094
 3302TIP3    H231542   5.353   1.801   2.637 -0.0956  0.2187  3.2306
 3303TIP3   OH231543   0.799   6.614   8.364 -0.4996  0.0569 -0.5318
 3303TIP3    H131544   0.757   6.527   8.362 -0.4567 -0.0574  1.5317
 3303TIP3    H231545   0.733   6.671   8.403 -0.4245  0.9272 -1.6361
 3304TIP3   OH231546   2.781   3.900   1.732  0.3811 -0.2817  0.5790
 3304TIP3    H131547   2.798   3.879   1.824  0.2469 -0.4797  0.5600
 3304TIP3    H231548   2.866   3.929   1.698  0.2505  0.5732  0.9704
 3305TIP3   OH231549   3.275   4.705   0.811  0.0930 -0.7104  0.8493
 3305TIP3    H131550   3.192   4.705   0.858 -0.5594  0.6953 -0.2168
 3305TIP3    H231551   3.264   4.640   0.741 -0.4980  0.1337  0.1298
 3306TIP3   OH231552   6.322   5.761   8.647 -0.3044 -0.5453 -0.5388
 3306TIP3    H131553   6.277   5.812   8.579  0.2109  1.4118  0.4933
 3306TIP3    H231554   6.406   5.736   8.607 -0.8600 -1.2236 -1.3038
 3307TIP3   OH231555   5.284   4.712   8.559 -0.5060 -0.3382 -0.2617
 3307TIP3    H131556   5.220   4.716   8.630 -0.7259 -0.3164 -0.4618
 3307TIP3    H231557   5.276   4.624   8.524  0.2476 -0.6591  0.3344
 3308TIP3   OH231558   5.855   6.516   2.749  0.7420  0.0833 -0.6285
 3308TIP3    H131559   5.878   6.423   2.750  0.1058 -0.0926  0.9444
 3308TIP3    H231560   5.773   6.520   2.700  0.3598 -0.3061 -0.0351
 3309TIP3   OH231561   5.278   4.101   2.718  0.0450 -0.5719  0.2811
 3309TIP3    H131562   5.280   4.032   2.785  1.2438 -0.7309  0.1158
 3309TIP3    H231563   5.234   4.060   2.643 -1.5490 -0.3039  1.0445
 3310TIP3   OH231564   5.183   5.642   3.079 -0.7772 -0.3794 -0.1758
 3310TIP3    H131565   5.267   5.602   3.100  1.4629  2.7111 -2.3083
 3310TIP3    H231566   5.146   5.666   3.164  2.4502  1.6305  0.8369
 3311TIP3   OH231567   4.744   1.048   7.891  0.3718 -0.4884 -0.4235
 3311TIP3    H131568   4.667   1.041   7.834  0.5090 -0.9302 -0.5598
 3311TIP3    H231569   4.763   1.141   7.893 -0.9129 -0.2188  0.6161
 3312TIP3   OH231570   1.693   4.928   0.253 -0.7630  0.2388  0.2436
 3312TIP3    H131571   1.599   4.916   0.253 -0.9085  1.2261  0.9557
 3312TIP3    H231572   1.728   4.848   0.214 -1.7927 -0.8668  1.4946
 3313TIP3   OH231573   4.958   3.406   2.495  0.7218 -0.4273 -0.2185
 3313TIP3    H131574   4.927   3.325   2.535 -0.9416  0.6461  0.7515
 3313TIP3    H231575   4.939   3.395   2.401 -2.7435  0.1407  0.2987
 3314TIP3   OH231576   4.375   6.121   1.348 -0.2048  0.0570  0.1703
 3314TIP3    H131577   4.363   6.202   1.398 -0.0020 -0.1444  0.5503
 3314TIP3    H231578   4.448   6.140   1.290 -0.8463  0.5065 -0.5114
 3315TIP3   OH231579   5.110   3.851   8.129  0.3055  0.9090 -0.1943
 3315TIP3    H131580   5.090   3.943   8.113  0.8403  0.6697 -2.5738
 3315TIP3    H231581   5.173   3.828   8.061 -2.0150 -1.9699 -1.5773
 3316TIP3   OH231582   0.958   5.792   1.313 -0.0279 -0.2514  1.2540
 3316TIP3    H131583   0.970   5.764   1.222 -0.2116 -0.0185  1.1565
 3316TIP3    H231584   1.012   5.732   1.364  0.7611  0.1481  0.9152
 3317TIP3   OH231585   2.507   0.566   8.599 -0.6580 -1.3139 -0.1537
 3317TIP3    H131586   2.509   0.654   8.561  1.2264 -1.0927  0.3796
 3317TIP3    H231587   2.518   0.507   8.524  0.5274 -0.9799 -0.2618
 3318TIP3   OH231588   3.765   5.083   2.548 -0.0227 -0.2176 -0.4218
 3318TIP3    H131589   3.820   5.021   2.597  0.4596  0.0379 -0.6288
 3318TIP3    H231590   3.828   5.141   2.505 -0.4227 -0.5958 -1.5630
 3319TIP3   OH231591   5.816   0.032   0.472 -0.0662  0.1218  0.1045
 3319TIP3    H131592   5.740   0.059   0.421 -0.1662  0.1926  0.2894
 3319TIP3    H231593   5.779  -0.014   0.548 -0.0636  2.2231  1.4714
 3320TIP3   OH231594   6.585   0.590   1.034  0.0388  0.4662 -0.0327
 3320TIP3    H131595   6.607   0.615   0.944 -0.4797 -1.4178 -0.7194
 3320TIP3    H231596   6.669   0.566   1.073  0.0059 -0.8355 -0.7274
 3321TIP3   OH231597   6.232   2.873   8.597 -0.6499 -0.5589  0.3038
 3321TIP3    H131598   6.231   2.956   8.644  2.2196  0.9988 -2.0597
 3321TIP3    H231599   6.143   2.864   8.562 -0.9490  1.7117  0.3353
 3322TIP3   OH231600   1.298   5.870   2.265  0.5802 -0.3588 -0.0217
 3322TIP3    H131601   1.294   5.846   2.172  1.6995 -0.9259  0.0493
 3322TIP3    H231602   1.302   5.786   2.311  1.7251 -0.0748  0.4257
 3323TIP3   OH231603   1.717   4.596   7.420  0.0470  0.7582  0.1704
 3323TIP3    H131604   1.764   4.514   7.433 -1.6692 -0.1134  1.2800
 3323TIP3    H231605   1.765   4.640   7.350  1.9550 -0.4396  0.6349
 3324TIP3   OH231606   5.235   4.832   1.579 -0.3807 -0.1248  0.1693
 3324TIP3    H131607   5.163   4.770   1.573  0.3144 -1.2595  2.4122
 3324TIP3    H231608   5.312   4.778   1.597  1.3263  0.9282 -3.0822
 3325TIP3   OH231609   2.960   1.715   7.239  0.4818 -0.5926  0.4018
 3325TIP3    H131610   3.015   1.692   7.164 -1.4926 -0.9805 -0.9919
 3325TIP3    H231611   3.017   1.768   7.295  3.1445 -3.2754  0.4687
 3326TIP3   OH231612   3.625   1.742   2.267  0.7375 -0.0670  0.3865
 3326TIP3    H131613   3.653   1.790   2.345 -1.0444  0.4274  0.7761
 3326TIP3    H231614   3.661   1.791   2.194 -0.2995  1.4176  0.8179
 3327TIP3   OH231615   0.820   2.833   2.236  0.2045 -0.0102  0.0732
 3327TIP3    H131616   0.793   2.760   2.180 -1.1542 -0.1318  0.8467
 3327TIP3    H231617   0.752   2.899   2.224 -0.6414 -0.4078  2.2502
 3328TIP3   OH231618   0.660   1.990   0.083  0.4437 -0.0036  0.1858
 3328TIP3    H131619   0.634   2.063   0.140  1.4478  0.1673  0.4439
 3328TIP3    H231620   0.750   2.010   0.059 -0.3128  0.5613 -2.4533
 3329TIP3   OH231621   1.648   5.900   8.003 -0.6412 -0.1759  0.8756
 3329TIP3    H131622   1.650   5.971   7.939 -1.4952 -2.0058 -1.2826
 3329TIP3    H231623   1.557   5.870   8.004 -0.7567  0.0210  3.2878
 3330TIP3   OH231624   6.593   1.922   0.733 -0.4678 -0.0419  0.1314
 3330TIP3    H131625   6.622   1.991   0.674  0.4280 -1.9215 -1.7641
 3330TIP3    H231626   6.552   1.857   0.676 -1.6631 -0.9127  1.8828
 3331TIP3   OH231627   5.493   4.984   2.214 -0.2154 -0.5596  0.0355
 3331TIP3    H131628   5.430   5.048   2.248  1.4108  0.9179  0.4391
 3331TIP3    H231629   5.578   5.017   2.244  1.1846 -0.1600 -3.8763
 3332TIP3   OH231630   1.027   5.484   1.625  0.8832  0.1696  0.0175
 3332TIP3    H131631   0.979   5.403   1.639 -1.0080  0.8653 -1.9649
 3332TIP3    H231632   0.976   5.551   1.670  1.3017  0.5835 -0.1110
 3333TIP3   OH231633   3.410   1.422   1.060  0.5136  0.3811 -0.5523
 3333TIP3    H131634   3.499   1.444   1.087 -0.0463  0.5799  1.3419
 3333TIP3    H231635   3.411   1.425   0.965  2.1272  1.9909 -0.5242
 3334TIP3   OH231636   3.763   1.979   8.216 -0.3193 -0.2622 -0.1222
 3334TIP3    H131637   3.706   1.997   8.141  1.0311  1.0018 -0.9022
 3334TIP3    H231638   3.826   2.052   8.216  1.8061 -2.0001  0.1968
 3335TIP3   OH231639   6.850   2.986   0.973  0.0704 -0.0663 -0.3942
 3335TIP3    H131640   6.895   2.956   1.052 -1.0884 -0.4054  0.1607
 3335TIP3    H231641   6.894   2.939   0.902 -0.2759 -1.4364  0.2544
 3336TIP3   OH231642   1.273   5.766   7.728  0.1675 -0.3204 -0.5699
 3336TIP3    H131643   1.202   5.739   7.670 -1.7713  0.2074  1.3974
 3336TIP3    H231644   1.261   5.860   7.740 -0.5189 -0.6361  1.8385
 3337TIP3   OH231645   5.836   3.992   1.656 -0.1098 -0.1651  0.4043
 3337TIP3    H131646   5.766   3.993   1.721 -0.1247  1.7967  0.4235
 3337TIP3    H231647   5.893   4.065   1.682  0.5890 -0.1795 -1.0254
 3338TIP3   OH231648   0.819   0.471   1.947  0.0082 -0.3703  0.1616
 3338TIP3    H131649   0.816   0.508   2.036  1.4422 -1.4432  0.7091
 3338TIP3    H231650   0.731   0.437   1.932 -0.2972 -0.0448  1.1294
 3339TIP3   OH231651   5.402   3.218   8.249 -0.3879  0.3304 -0.2136
 3339TIP3    H131652   5.488   3.259   8.237 -0.0884 -0.5636 -1.3934
 3339TIP3    H231653   5.346   3.262   8.185 -1.6719  3.0084  2.5191
 3340TIP3   OH231654   4.133   3.421   7.934  0.1303 -0.2146 -0.0600
 3340TIP3    H131655   4.059   3.387   7.985 -0.0903 -1.2375 -1.0223
 3340TIP3    H231656   4.177   3.480   7.994 -0.0921 -1.4086  1.3590
 3341TIP3   OH231657   4.673   2.970   0.718  0.1829 -0.1950 -0.5404
 3341TIP3    H131658   4.693   2.877   0.711  2.0072  0.1033  0.0843
 3341TIP3    H231659   4.738   3.013   0.662  0.1173  0.7586  0.0864
 3342TIP3   OH231660   2.490   1.177   2.392  0.0997  0.6606 -0.4142
 3342TIP3    H131661   2.406   1.176   2.439  0.6208  1.3329  0.5758
 3342TIP3    H231662   2.500   1.268   2.364 -0.0947  0.3084 -1.6632
 3343TIP3   OH231663   4.500   5.823   7.837 -0.0336  0.8799 -0.1117
 3343TIP3    H131664   4.478   5.769   7.761  0.4627 -0.3270  0.5634
 3343TIP3    H231665   4.496   5.913   7.806  1.0889  0.3834 -1.8144
 3344TIP3   OH231666   3.753   0.354   0.959  0.4503  0.3190  0.2115
 3344TIP3    H131667   3.783   0.412   0.890 -1.7248  0.6938 -0.4934
 3344TIP3    H231668   3.721   0.412   1.028 -1.2394 -0.0062 -0.2663
 3345TIP3   OH231669   6.121   2.349   8.044 -0.4975  0.3328 -0.2260
 3345TIP3    H131670   6.140   2.257   8.064 -2.8598 -0.3582 -0.8625
 3345TIP3    H231671   6.029   2.360   8.067 -0.8096  1.9988 -2.0342
 3346TIP3   OH231672   6.726   6.725   0.939  0.4197  0.1497 -0.5171
 3346TIP3    H131673   6.686   6.661   0.880  2.3955 -1.3543 -0.3393
 3346TIP3    H231674   6.819   6.722   0.918  0.7711  1.8793  0.5740
 3347TIP3   OH231675   4.093   4.753   7.683  0.6892 -0.4582 -0.1183
 3347TIP3    H131676   4.088   4.692   7.756  1.3510 -0.2108  0.1392
 3347TIP3    H231677   4.089   4.698   7.605  2.8469 -0.9928  0.1096
 3348TIP3   OH231678   0.335   2.263   0.031  0.2530  0.3587 -0.5626
 3348TIP3    H131679   0.332   2.169   0.014  0.4732  0.1618  0.4382
 3348TIP3    H231680   0.268   2.300  -0.026 -0.7876 -0.5618  0.0168
 3349TIP3   OH231681   4.837   4.620   2.262  0.1317 -0.6903 -0.4284
 3349TIP3    H131682   4.798   4.700   2.297  0.5769 -1.2256  1.4226
 3349TIP3    H231683   4.931   4.630   2.275  0.5921  0.0218 -3.6424
 3350TIP3   OH231684   1.878   6.582   2.908  0.5635 -0.1485  0.3556
 3350TIP3    H131685   1.819   6.655   2.890  1.3780  0.6486  0.8574
 3350TIP3    H231686   1.842   6.509   2.856  0.9087  1.1529 -1.8622
 3351TIP3   OH231687   1.457   0.090   0.413  0.8192  0.1872  0.0060
 3351TIP3    H131688   1.466   0.113   0.506  0.8205 -0.6738  0.2267
 3351TIP3    H231689   1.478  -0.003   0.409  0.9770  0.2509 -0.8906
 3352TIP3   OH231690   6.873   2.385   3.718  0.4483 -0.5298 -0.1706
 3352TIP3    H131691   6.930   2.460   3.707 -0.1182 -0.0352  0.1835
 3352TIP3    H231692   6.818   2.385   3.640 -0.8990  0.6316  0.7225
 3353TIP3   OH231693   4.841   3.450   7.865 -0.1506  0.1608 -0.3551
 3353TIP3    H131694   4.830   3.490   7.778 -0.4456  2.5049  0.6609
 3353TIP3    H231695   4.916   3.496   7.903 -0.0493 -0.8004  0.6520
 3354TIP3   OH231696   0.344   2.276   0.345  0.1616 -0.7077  0.1239
 3354TIP3    H131697   0.335   2.278   0.250 -0.4397 -0.4571  0.1856
 3354TIP3    H231698   0.429   2.318   0.362 -0.7065  1.2612 -0.1771
 3355TIP3   OH231699   4.775   4.453   8.109  0.3051  0.7349 -0.4436
 3355TIP3    H131700   4.780   4.526   8.171 -1.7258  1.0027 -0.5296
 3355TIP3    H231701   4.692   4.410   8.129 -0.0466  0.3785 -2.4915
 3356TIP3   OH231702   5.689   6.519   8.159 -0.8008 -0.0217  0.2189
 3356TIP3    H131703   5.594   6.527   8.172 -0.7857  0.5017  0.0525
 3356TIP3    H231704   5.709   6.584   8.091 -0.5810 -1.3024 -0.9821
 3357TIP3   OH231705   4.069   3.492   7.438 -0.4952 -0.7538 -0.3628
 3357TIP3    H131706   4.048   3.399   7.443 -0.9550 -0.6043  0.5339
 3357TIP3    H231707   4.142   3.503   7.499  0.8988 -0.8831 -1.9309
 3358TIP3   OH231708   5.000   2.802   0.156 -0.4567 -0.6478  0.4069
 3358TIP3    H131709   4.921   2.757   0.127  0.5956 -2.2916 -0.1041
 3358TIP3    H231710   5.040   2.835   0.076 -0.0045 -0.9536  0.4950
 3359TIP3   OH231711   0.407   2.951   0.741  0.2339 -0.0024 -0.3738
 3359TIP3    H131712   0.378   3.039   0.719  1.7543  0.7276  0.4320
 3359TIP3    H231713   0.487   2.938   0.691  1.8211  0.3649  1.9391
 3360TIP3   OH231714   6.415   1.334   2.927 -0.2080 -0.3879 -0.4612
 3360TIP3    H131715   6.419   1.397   3.000 -1.3286 -0.6840 -0.1227
 3360TIP3    H231716   6.344   1.275   2.950  1.0997 -2.0718 -0.5743
 3361TIP3   OH231717   6.900   1.070   3.307  0.4258  0.7936 -0.1213
 3361TIP3    H131718   6.978   1.086   3.360  1.0593 -1.3695 -0.2868
 3361TIP3    H231719   6.898   1.142   3.244  0.7484  2.3499  1.5643
 3362TIP3   OH231720   4.791   2.571   1.260  0.3196 -0.5612  0.5489
 3362TIP3    H131721   4.844   2.635   1.308  0.3215 -1.3736  1.6659
 3362TIP3    H231722   4.846   2.493   1.256  1.3726  0.1810 -3.0298
 3363TIP3   OH231723   0.726   3.004   0.488 -0.1133 -0.0824 -0.5739
 3363TIP3    H131724   0.675   2.958   0.421 -0.0497  0.2548 -0.8571
 3363TIP3    H231725   0.667   3.013   0.562 -0.6551  0.7983 -1.1013
 3364TIP3   OH231726   0.686   1.415   1.991  0.3801  0.5705 -0.1944
 3364TIP3    H131727   0.611   1.437   1.935  0.0534 -0.2760 -0.1020
 3364TIP3    H231728   0.758   1.402   1.930  0.6598  2.1036 -0.2418
 3365TIP3   OH231729   0.176   4.814   0.202  0.2984 -0.0763 -0.1626
 3365TIP3    H131730   0.196   4.794   0.293 -1.9980  1.7497  0.8648
 3365TIP3    H231731   0.128   4.738   0.171 -0.0050 -0.1943  0.5741
 3366TIP3   OH231732   3.892   2.803   3.280  0.1566  0.3335 -0.2524
 3366TIP3    H131733   3.946   2.873   3.318  1.4101 -1.1965  0.9135
 3366TIP3    H231734   3.951   2.728   3.275 -1.5967 -1.1243  0.0672
 3367TIP3   OH231735   5.371   3.883   8.417  0.6727  0.1170 -0.8970
 3367TIP3    H131736   5.281   3.914   8.428 -0.0220 -2.0516  0.2536
 3367TIP3    H231737   5.363   3.806   8.361  1.5604 -1.0234  0.4673
 3368TIP3   OH231738   2.654   4.182   8.246 -0.6066  0.2587  0.5485
 3368TIP3    H131739   2.651   4.087   8.257  0.1336 -0.0650 -1.5733
 3368TIP3    H231740   2.729   4.198   8.189 -1.3355  2.0232 -0.0156
 3369TIP3   OH231741   3.109   3.919   1.656 -0.1927  0.1202  0.1553
 3369TIP3    H131742   3.151   4.002   1.679  1.9178 -0.4778 -1.3230
 3369TIP3    H231743   3.066   3.937   1.572  0.3159 -0.2773 -0.1947
 3370TIP3   OH231744   2.289   3.708   7.628  0.0899 -0.2074  0.3855
 3370TIP3    H131745   2.346   3.696   7.552 -0.5679  0.1454 -0.1709
 3370TIP3    H231746   2.318   3.641   7.690  0.3930 -0.7479 -0.3203
 3371TIP3   OH231747   4.961   3.609   0.106 -0.6639  0.5794 -0.3226
 3371TIP3    H131748   4.951   3.548   0.179 -0.1912  0.2296 -0.5413
 3371TIP3    H231749   4.880   3.660   0.106 -0.9043  0.2065  0.0999
 3372TIP3   OH231750   5.520   1.888   0.417 -0.0065 -0.2987 -0.2085
 3372TIP3    H131751   5.509   1.972   0.371 -0.2457  0.2238  0.7630
 3372TIP3    H231752   5.430   1.859   0.433  0.0498  0.0643  0.8511
 3373TIP3   OH231753   1.805   3.038   1.695 -0.7923  0.2222 -1.1038
 3373TIP3    H131754   1.741   3.109   1.692 -1.5076 -0.4275 -1.5289
 3373TIP3    H231755   1.800   2.998   1.608 -0.1729 -0.1553 -0.9677
 3374TIP3   OH231756   5.318   0.811   1.390  0.3859  0.3060 -0.2134
 3374TIP3    H131757   5.389   0.874   1.373  0.7515 -0.0676 -0.0809
 3374TIP3    H231758   5.363   0.733   1.422 -0.1702  0.4486  0.9800
 3375TIP3   OH231759   1.861   6.272   0.081 -0.5084  0.5898  0.2726
 3375TIP3    H131760   1.775   6.232   0.070  0.3977 -1.3452 -0.1915
 3375TIP3    H231761   1.922   6.199   0.083  0.9527  1.7134  3.0756
 3376TIP3   OH231762   6.415   5.912   3.039 -0.0615 -0.2412 -0.3212
 3376TIP3    H131763   6.460   5.840   2.995 -1.1628 -1.9800  1.2305
 3376TIP3    H231764   6.356   5.869   3.102 -1.8501  1.9807 -0.3381
 3377TIP3   OH231765   3.132   4.412   6.953 -0.5915 -0.6402 -0.6016
 3377TIP3    H131766   3.116   4.335   7.008 -0.5183 -0.3723 -0.2006
 3377TIP3    H231767   3.224   4.436   6.970 -0.5892 -0.5100 -0.7842
 3378TIP3   OH231768   1.481   3.007   0.485 -0.1447 -0.2689 -0.2074
 3378TIP3    H131769   1.498   3.101   0.486  1.8908 -0.6089 -0.5515
 3378TIP3    H231770   1.497   2.980   0.395 -0.6448 -0.9870 -0.0930
 3379TIP3   OH231771   4.846   0.461   0.254  0.0802 -0.4121 -0.6000
 3379TIP3    H131772   4.940   0.452   0.270 -0.1053 -2.3645 -0.3241
 3379TIP3    H231773   4.839   0.490   0.163  0.9589  1.4288 -0.1175
 3380TIP3   OH231774   5.588   3.029   8.590 -0.0122 -0.2145 -0.1808
 3380TIP3    H131775   5.650   3.093   8.556 -0.5944  1.4771  1.7458
 3380TIP3    H231776   5.505   3.051   8.547 -0.9192  2.3880  2.5624
 3381TIP3   OH231777   4.467   5.422   1.289 -0.0575  0.2922  0.2227
 3381TIP3    H131778   4.543   5.410   1.346  0.8311  0.3180 -0.9088
 3381TIP3    H231779   4.478   5.356   1.220 -0.4207  1.0716 -0.6113
 3382TIP3   OH231780   5.072   6.247   2.879 -0.0718  0.2988 -0.1879
 3382TIP3    H131781   5.089   6.262   2.972 -0.8717 -1.3153  0.2487
 3382TIP3    H231782   5.137   6.183   2.852  0.2909  0.9132 -0.8145
 3383TIP3   OH231783   6.041   0.349   0.023  0.1566 -0.2474  0.3796
 3383TIP3    H131784   6.106   0.332  -0.045  0.6526  0.0474  0.7750
 3383TIP3    H231785   6.077   0.421   0.074 -0.1963 -0.4811  0.9794
 3384TIP3   OH231786   2.040   4.303   1.363  0.1119 -0.2017  0.2461
 3384TIP3    H131787   2.074   4.247   1.432 -1.0431 -0.9622  0.2274
 3384TIP3    H231788   1.947   4.283   1.359 -0.0155  0.4952 -0.9122
 3385TIP3   OH231789   6.407   1.771   0.450  0.4753  0.2701  0.2164
 3385TIP3    H131790   6.344   1.699   0.457  0.6154 -0.3229 -2.9094
 3385TIP3    H231791   6.376   1.837   0.513 -0.2778 -2.0312  2.3905
 3386TIP3   OH231792   0.732   2.940   2.500 -0.0007  0.2245 -0.1654
 3386TIP3    H131793   0.788   2.981   2.567 -0.5333  2.3846 -0.9416
 3386TIP3    H231794   0.759   2.981   2.418  0.8885 -2.6403 -1.4111
 3387TIP3   OH231795   0.714   4.274   7.726  0.2210  0.2738 -0.8907
 3387TIP3    H131796   0.664   4.266   7.807  1.6445 -0.3473 -0.0295
 3387TIP3    H231797   0.657   4.237   7.658 -0.6619  0.0566 -0.0459
 3388TIP3   OH231798   4.003   4.230   0.166  0.5287  0.0976 -0.4302
 3388TIP3    H131799   3.949   4.291   0.116  0.0458  1.1898  1.3281
 3388TIP3    H231800   3.959   4.224   0.252  1.8236 -0.9725  0.1987
 3389TIP3   OH231801   4.404   2.342   0.616 -0.1194 -0.3704 -0.0846
 3389TIP3    H131802   4.405   2.423   0.667 -0.8905 -1.5904  1.9961
 3389TIP3    H231803   4.458   2.362   0.540  1.3335  1.5010  1.3146
 3390TIP3   OH231804   0.706   2.002   3.382  0.3666 -0.5329 -0.6393
 3390TIP3    H131805   0.690   2.001   3.476  1.0060 -2.8485 -0.4790
 3390TIP3    H231806   0.799   2.023   3.374  1.0258 -3.0375 -0.4986
 3391TIP3   OH231807   4.226   3.726   2.602  0.2464 -0.3177  0.0760
 3391TIP3    H131808   4.259   3.662   2.664 -2.4558 -1.0218  0.9489
 3391TIP3    H231809   4.146   3.686   2.566 -0.2068  1.5606 -1.1820
 3392TIP3   OH231810   1.829   2.199   2.189  0.3633  0.0531  0.2092
 3392TIP3    H131811   1.760   2.145   2.228  1.5292 -1.1697  0.6158
 3392TIP3    H231812   1.802   2.289   2.209 -0.0417 -0.4636  2.1891
 3393TIP3   OH231813   5.292   4.431   3.165 -0.2468  0.1754  0.4808
 3393TIP3    H131814   5.197   4.445   3.171 -0.2940 -0.2596  0.7506
 3393TIP3    H231815   5.316   4.394   3.250  0.3001  1.0424  0.7201
 3394TIP3   OH231816   5.709   1.283   8.430 -0.6763  0.6929  0.4529
 3394TIP3    H131817   5.765   1.359   8.445 -0.6750  0.6919  0.4522
 3394TIP3    H231818   5.661   1.304   8.350  0.8251 -0.1675 -0.7369
 3395TIP3   OH231819   4.415   5.883   1.996  0.2891  0.2604 -0.2256
 3395TIP3    H131820   4.506   5.881   1.965  0.7691 -0.0250  1.1262
 3395TIP3    H231821   4.365   5.914   1.921  1.5386  0.6659 -0.9242
 3396TIP3   OH231822   3.345   1.698   2.518 -0.0973  0.4133  0.1540
 3396TIP3    H131823   3.307   1.780   2.550  0.8061  1.9938 -2.4832
 3396TIP3    H231824   3.270   1.647   2.489 -0.6062  0.6850  0.9443
 3397TIP3   OH231825   3.422   2.516   0.395 -0.6747 -0.1305 -0.1100
 3397TIP3    H131826   3.377   2.552   0.319 -1.5309 -1.2147 -0.1341
 3397TIP3    H231827   3.367   2.541   0.470  0.1262  0.8711  0.1654
 3398TIP3   OH231828   6.322   2.607   8.551 -0.0243  0.2262 -0.3961
 3398TIP3    H131829   6.267   2.585   8.476 -2.2632 -0.1439  1.2430
 3398TIP3    H231830   6.284   2.687   8.587  0.4443 -0.0729  0.8306
 3399TIP3   OH231831   4.117   6.207   1.499 -0.1739  0.0906 -0.1620
 3399TIP3    H131832   4.031   6.246   1.485 -0.2261 -0.9670 -3.8102
 3399TIP3    H231833   4.104   6.114   1.486  1.4501 -0.1488 -0.2940
 3400TIP3   OH231834   2.954   5.572   8.307  0.7864  0.1356  0.9235
 3400TIP3    H131835   2.886   5.535   8.250  0.2448  1.5782  0.5999
 3400TIP3    H231836   3.029   5.585   8.249  0.0996  1.9952  0.3858
 3401TIP3   OH231837   6.514   6.666   1.069  0.2128  0.0095  1.0836
 3401TIP3    H131838   6.470   6.742   1.108 -1.0721  0.8089 -1.7030
 3401TIP3    H231839   6.577   6.703   1.007 -1.6174 -1.0484 -1.6050
 3402TIP3   OH231840   4.089   5.415   3.018  0.1112  0.3682 -0.1794
 3402TIP3    H131841   4.171   5.379   3.051 -0.5994 -0.5567  0.6219
 3402TIP3    H231842   4.106   5.509   3.011  1.2523  0.1862 -0.0777
 3403TIP3   OH231843   6.819   0.160   2.623  0.3856 -0.0194  0.0797
 3403TIP3    H131844   6.796   0.242   2.580 -0.6653 -0.6814 -0.6668
 3403TIP3    H231845   6.738   0.132   2.665  0.8669 -0.4297  0.7382
 3404TIP3   OH231846   3.762   2.799   7.976  0.1978  0.1370  0.1593
 3404TIP3    H131847   3.666   2.792   7.976  0.2938 -1.6314  1.1570
 3404TIP3    H231848   3.782   2.839   7.891 -1.4299  0.8840  0.0780
 3405TIP3   OH231849   5.215   1.026   0.545  0.1591  0.3521 -0.1597
 3405TIP3    H131850   5.198   1.038   0.451  1.0099 -0.3105 -0.4124
 3405TIP3    H231851   5.277   1.095   0.568  0.3456  0.2018 -0.2075
 3406TIP3   OH231852   2.891   0.121   0.877 -0.1530  0.1280 -0.1715
 3406TIP3    H131853   2.910   0.214   0.874  0.8343 -0.0868 -0.9653
 3406TIP3    H231854   2.925   0.093   0.962  0.4314  0.3204 -0.3332
 3407TIP3   OH231855   4.078   1.351   7.555 -0.2685 -0.0363 -0.1074
 3407TIP3    H131856   4.065   1.308   7.470 -1.2483 -0.9898  0.5115
 3407TIP3    H231857   4.142   1.296   7.600 -0.5146 -0.1001  0.1671
 3408TIP3   OH231858   6.874   6.426   2.527 -0.0927 -0.0461  0.5173
 3408TIP3    H131859   6.945   6.483   2.495 -1.7598  1.5034 -0.6394
 3408TIP3    H231860   6.885   6.345   2.477  0.3670  0.4882 -0.2820
 3409TIP3   OH231861   1.083   6.457   8.581 -0.5372  0.0524 -0.4795
 3409TIP3    H131862   1.077   6.445   8.486 -0.5156 -1.6127 -0.3037
 3409TIP3    H231863   1.017   6.398   8.617  1.2171 -1.3472  0.6139
 3410TIP3   OH231864   1.357   4.353   1.520 -0.0413 -0.2118  0.4066
 3410TIP3    H131865   1.418   4.399   1.578  0.0490 -0.6128  0.6310
 3410TIP3    H231866   1.339   4.416   1.450  1.7037 -0.5509 -0.4234
 3411TIP3   OH231867   6.873   2.691   2.383 -0.5758  0.1889 -0.9450
 3411TIP3    H131868   6.795   2.700   2.438 -1.7410  0.7490 -2.6132
 3411TIP3    H231869   6.936   2.753   2.421 -0.2025 -1.5212  1.5028
 3412TIP3   OH231870   5.344   0.180   0.769  0.4470 -0.4809 -0.6138
 3412TIP3    H131871   5.338   0.275   0.765 -2.2620 -0.5899 -0.9683
 3412TIP3    H231872   5.367   0.153   0.680 -1.1444 -0.2096 -1.1444
 3413TIP3   OH231873   3.917   6.441   0.893  0.0697  0.2231 -0.3020
 3413TIP3    H131874   3.957   6.404   0.972 -0.9606  0.6069  0.4320
 3413TIP3    H231875   3.920   6.371   0.828  1.7651  0.2016 -0.2263
 3414TIP3   OH231876   2.596   3.649   1.280  0.4340  0.3005 -0.4696
 3414TIP3    H131877   2.504   3.636   1.261  0.4599  0.4359 -0.6984
 3414TIP3    H231878   2.620   3.728   1.231  0.7477  0.0880 -0.6655
 3415TIP3   OH231879   6.288   2.014   2.254 -0.4673 -0.0054 -0.2380
 3415TIP3    H131880   6.277   1.924   2.224 -1.9251  0.3691 -0.8756
 3415TIP3    H231881   6.236   2.019   2.335  1.9943 -0.5146  1.4860
 3416TIP3   OH231882   6.335   6.647   0.010  0.1791  0.0584 -0.0661
 3416TIP3    H131883   6.416   6.624  -0.035 -0.1813 -1.8532  0.1863
 3416TIP3    H231884   6.265   6.615  -0.048 -0.3489 -0.0613  0.6205
 3417TIP3   OH231885   3.101   3.377   8.330 -0.6367  0.0708  0.1910
 3417TIP3    H131886   3.106   3.314   8.403  0.3324  0.0253  0.1046
 3417TIP3    H231887   3.017   3.420   8.341 -1.8692 -2.0198 -0.3869
 3418TIP3   OH231888   1.145   2.411   7.686  0.0600  0.2414 -0.1578
 3418TIP3    H131889   1.227   2.427   7.639 -0.0582 -2.5676 -1.5040
 3418TIP3    H231890   1.076   2.432   7.623 -0.1737 -0.3108 -0.0937
 3419TIP3   OH231891   6.651   3.598   0.463 -0.2034  0.4876  0.1889
 3419TIP3    H131892   6.692   3.643   0.389 -2.2919 -0.8870 -1.9636
 3419TIP3    H231893   6.682   3.508   0.456  0.7177  0.6188  1.9677
 3420TIP3   OH231894   2.768   1.079   0.220  0.4285  0.1171 -0.0885
 3420TIP3    H131895   2.718   1.048   0.296 -0.6588  1.3013 -0.2759
 3420TIP3    H231896   2.710   1.065   0.145  0.4703  1.2184 -0.3589
 3421TIP3   OH231897   1.586   0.333   2.430 -0.4187  0.0583 -0.1498
 3421TIP3    H131898   1.625   0.331   2.342  1.1183  0.6190  0.4961
 3421TIP3    H231899   1.507   0.387   2.419 -0.2769  0.0830 -1.2023
 3422TIP3   OH231900   0.133   4.207   8.640 -0.8146 -0.0692 -0.9871
 3422TIP3    H131901   0.133   4.289   8.591  1.7880  0.2030 -0.6865
 3422TIP3    H231902   0.192   4.150   8.590  0.3885 -0.4380  0.7611
 3423TIP3   OH231903   0.779   6.535   1.949 -0.2093  0.1163  0.0908
 3423TIP3    H131904   0.734   6.483   1.883 -0.4630 -1.7050  1.5980
 3423TIP3    H231905   0.764   6.487   2.031 -0.6001  2.6923  1.6152
 3424TIP3   OH231906   2.284   0.835   8.275 -0.3066  0.2091 -0.2477
 3424TIP3    H131907   2.329   0.839   8.360 -0.7311  0.2966 -0.0198
 3424TIP3    H231908   2.199   0.796   8.295 -0.6682  0.8309 -0.5145
 3425TIP3   OH231909   5.079   2.885   7.987  0.0108 -0.1162  0.1800
 3425TIP3    H131910   5.001   2.932   7.957 -0.3450 -1.5446 -1.2993
 3425TIP3    H231911   5.046   2.822   8.051  0.0207 -0.4124 -0.1067
 3426TIP3   OH231912   0.791   0.615   7.301 -0.8614  0.2770  0.6984
 3426TIP3    H131913   0.862   0.678   7.290 -1.5317  0.8085 -0.9331
 3426TIP3    H231914   0.831   0.530   7.282 -0.4289  0.4622  0.7747
 3427TIP3   OH231915   3.655   1.512   1.150 -0.2334  0.2387 -0.0644
 3427TIP3    H131916   3.614   1.507   1.236  0.9397 -0.4817  0.4816
 3427TIP3    H231917   3.676   1.605   1.139 -2.8088  0.8063 -0.7935
 3428TIP3   OH231918   4.887   2.774   1.873 -0.2069 -0.1061  0.1513
 3428TIP3    H131919   4.817   2.735   1.924  0.2315 -0.2019  0.6906
 3428TIP3    H231920   4.886   2.727   1.790  0.0928 -1.0273  0.6664
 3429TIP3   OH231921   3.296   1.747   0.527  0.6202 -0.1206 -0.2577
 3429TIP3    H131922   3.384   1.711   0.528  0.2455 -1.0567  0.8403
 3429TIP3    H231923   3.271   1.752   0.619 -0.5635 -0.1044 -0.5643
 3430TIP3   OH231924   5.818   1.987   2.973  0.3517  0.1657  0.0629
 3430TIP3    H131925   5.908   2.010   2.995  0.4252 -0.5563  0.5253
 3430TIP3    H231926   5.812   1.893   2.987 -0.8215  0.3840  1.2771
 3431TIP3   OH231927   5.649   5.271   8.048 -0.1028  0.5553  0.0689
 3431TIP3    H131928   5.638   5.233   8.135  0.4901 -0.5944 -0.3408
 3431TIP3    H231929   5.560   5.291   8.019 -0.2637  1.4725  1.1549
 3432TIP3   OH231930   0.819   6.811   7.362 -0.6490  0.1782 -0.2504
 3432TIP3    H131931   0.864   6.893   7.377  0.7319 -0.8057  1.3167
 3432TIP3    H231932   0.869   6.746   7.411 -1.4665 -1.6882 -1.7367
 3433TIP3   OH231933   0.569   0.513   0.009 -0.2149  0.2534 -0.3783
 3433TIP3    H131934   0.571   0.418  -0.001 -1.0302  0.4163 -2.5791
 3433TIP3    H231935   0.575   0.547  -0.080 -0.3951  2.2584  0.3255
 3434TIP3   OH231936   6.171   5.221   7.824 -0.1557 -0.2494 -0.5081
 3434TIP3    H131937   6.157   5.189   7.735  0.7581 -0.1659 -0.6841
 3434TIP3    H231938   6.261   5.252   7.826 -0.1675 -0.2231  0.4424
 3435TIP3   OH231939   5.306   6.280   0.450 -0.1207  0.1186  0.3256
 3435TIP3    H131940   5.256   6.202   0.426  0.7070 -0.4605  0.4635
 3435TIP3    H231941   5.254   6.321   0.519 -0.9914  0.1616 -0.3357
 3436TIP3   OH231942   1.235   5.276   3.012 -0.0157 -0.3109  0.1076
 3436TIP3    H131943   1.281   5.283   3.096 -0.1129 -2.1148  0.3411
 3436TIP3    H231944   1.184   5.196   3.019 -0.6284 -0.0843 -1.4008
 3437TIP3   OH231945   1.693   3.282   1.185  0.0138 -0.0671 -0.0745
 3437TIP3    H131946   1.782   3.261   1.157 -0.2004 -1.9492  0.5163
 3437TIP3    H231947   1.702   3.306   1.277 -0.1010 -0.4730  0.0454
 3438TIP3   OH231948   5.692   0.965   1.326 -0.2616  0.4104 -0.4764
 3438TIP3    H131949   5.650   0.996   1.246  0.6641  1.7435 -0.4724
 3438TIP3    H231950   5.723   1.044   1.370  0.3868 -0.3830  0.5548
 3439TIP3   OH231951   5.659   4.694   7.711 -0.0317  0.2631 -0.2833
 3439TIP3    H131952   5.681   4.784   7.732  2.7679 -0.1824 -0.9377
 3439TIP3    H231953   5.700   4.642   7.780 -2.5317 -0.5226  0.7098
 3440TIP3   OH231954   3.782   4.072   8.536 -0.4724 -0.1911  0.2318
 3440TIP3    H131955   3.830   4.153   8.557  0.3577 -1.0201  1.7469
 3440TIP3    H231956   3.778   4.070   8.441  1.2031  0.6813  0.1053
 3441TIP3   OH231957   5.337   4.441   2.761  0.3450  0.2116  0.1931
 3441TIP3    H131958   5.384   4.480   2.687  0.7714  1.2883  1.0098
 3441TIP3    H231959   5.244   4.448   2.737  0.4881  0.4366 -0.2963
 3442TIP3   OH231960   2.777   5.074   2.175 -0.1835 -0.1312  0.5865
 3442TIP3    H131961   2.811   5.164   2.181 -1.9155  0.5398  1.0283
 3442TIP3    H231962   2.819   5.028   2.248  1.7539 -0.0982 -0.4334
 3443TIP3   OH231963   1.129   0.268   8.336  0.4341  0.3352  0.7330
 3443TIP3    H131964   1.108   0.222   8.417  0.3000 -1.1782 -0.1341
 3443TIP3    H231965   1.225   0.270   8.334  0.6625 -3.5304 -1.0739
 3444TIP3   OH231966   2.995   6.648   2.135  0.1876 -0.4568 -0.0286
 3444TIP3    H131967   2.920   6.629   2.191 -0.2134 -0.8329 -0.6785
 3444TIP3    H231968   2.959   6.652   2.047  0.7030  0.7332 -0.2128
 3445TIP3   OH231969   3.666   5.436   2.462  0.0521 -0.2406 -0.3543
 3445TIP3    H131970   3.729   5.413   2.530 -0.6162  0.2850  0.4482
 3445TIP3    H231971   3.615   5.508   2.499  0.7565  1.1936 -2.0258
 3446TIP3   OH231972   1.798   3.851   2.034 -0.1388  0.2237 -0.2455
 3446TIP3    H131973   1.811   3.759   2.060  1.4329  0.2739 -0.7428
 3446TIP3    H231974   1.703   3.863   2.034 -0.3410 -1.1611  0.6570
 3447TIP3   OH231975   1.577   1.014   7.138  0.6995 -0.0135 -0.4028
 3447TIP3    H131976   1.485   1.000   7.116  1.0559  0.1328 -2.1327
 3447TIP3    H231977   1.584   1.109   7.150  0.1090 -0.2560  2.4633
 3448TIP3   OH231978   3.173   5.201   0.716  0.3692  0.6426  0.6345
 3448TIP3    H131979   3.119   5.254   0.657 -1.5052 -0.7242  1.0785
 3448TIP3    H231980   3.218   5.140   0.658  0.4434  0.9179  0.3952
 3449TIP3   OH231981   6.086   4.339   2.548 -0.1192 -0.3312  0.2374
 3449TIP3    H131982   6.029   4.402   2.505 -1.9182 -1.9045  0.2005
 3449TIP3    H231983   6.055   4.336   2.639 -0.7211 -1.8470  0.0090
 3450TIP3   OH231984   0.374   4.488   7.396  0.6660 -0.1085 -0.0666
 3450TIP3    H131985   0.411   4.411   7.440 -0.5291 -0.8890 -0.3765
 3450TIP3    H231986   0.365   4.553   7.466  1.8849 -0.1551  0.1566
 3451TIP3   OH231987   5.055   4.695   3.336 -1.1856 -0.0774  0.1411
 3451TIP3    H131988   5.089   4.766   3.391 -1.9093  0.9572 -0.7050
 3451TIP3    H231989   4.979   4.662   3.383 -2.3987  1.4671 -0.6478
 3452TIP3   OH231990   4.101   2.857   8.587 -0.0622  0.2774 -0.1605
 3452TIP3    H131991   4.114   2.952   8.584 -0.6120  0.3579 -0.2413
 3452TIP3    H231992   4.018   2.843   8.541  1.0435 -0.4527 -2.0714
 3453TIP3   OH231993   2.727   5.739   1.562 -0.2539 -0.8678 -0.2557
 3453TIP3    H131994   2.738   5.734   1.657  5.0365  1.4430 -0.3901
 3453TIP3    H231995   2.724   5.833   1.543  0.1985 -1.2345 -2.4197
 3454TIP3   OH231996   6.250   1.586   0.641 -0.0885  0.5854  0.5450
 3454TIP3    H131997   6.253   1.605   0.735 -0.8469 -0.0768  0.7086
 3454TIP3    H231998   6.250   1.491   0.635  1.2134  0.6112 -0.1849
 3455TIP3   OH231999   0.810   4.553   2.394  0.6394  0.0691 -0.0004
 3455TIP3    H132000   0.892   4.507   2.413  1.0777  1.3543  1.3836
 3455TIP3    H232001   0.819   4.637   2.438 -2.7274 -0.9711  3.1327
 3456TIP3   OH232002   1.292   4.654   2.377 -0.5047  0.1353 -0.4900
 3456TIP3    H132003   1.376   4.689   2.407 -1.5679  0.3296  2.7233
 3456TIP3    H232004   1.292   4.563   2.406 -1.9226  0.5436  0.9711
 3457TIP3   OH232005   3.322   1.757   3.425 -0.4948  0.3110  0.2716
 3457TIP3    H132006   3.395   1.812   3.397  0.0636 -0.7314 -0.3836
 3457TIP3    H232007   3.253   1.819   3.451  0.4245  1.3062  0.3979
 3458TIP3   OH232008   6.373   3.591   8.405  0.6643 -0.2026  0.2513
 3458TIP3    H132009   6.298   3.651   8.406 -1.7346 -2.9585  1.6563
 3458TIP3    H232010   6.345   3.519   8.349  2.3759 -1.1913  0.6162
 3459TIP3   OH232011   5.235   2.794   0.351 -0.2884  0.2353 -0.0041
 3459TIP3    H132012   5.273   2.874   0.316 -1.5698  0.3986 -1.0814
 3459TIP3    H232013   5.166   2.770   0.289 -0.1457 -1.5329  0.4626
 3460TIP3   OH232014   3.499   3.559   0.815 -0.2966 -0.2976 -0.1433
 3460TIP3    H132015   3.448   3.592   0.741 -0.9180 -0.7425  0.0861
 3460TIP3    H232016   3.448   3.582   0.892  0.1054 -0.2815  0.1200
 3461TIP3   OH232017   0.019   4.159   1.775  0.2409 -0.3592 -0.3684
 3461TIP3    H132018   0.091   4.181   1.834 -0.2708 -0.7398  0.4224
 3461TIP3    H232019  -0.060   4.170   1.828 -0.2960  0.1514 -1.2476
 3462TIP3   OH232020   4.308   5.967   7.989  0.4309  0.2136 -0.0557
 3462TIP3    H132021   4.330   5.906   7.918 -0.4707 -0.4409  0.2127
 3462TIP3    H232022   4.295   5.912   8.065  0.5260  0.8355  0.4173
 3463TIP3   OH232023   6.641   0.931   2.712 -0.1674  0.1082 -0.4048
 3463TIP3    H132024   6.609   0.849   2.750 -1.5017  0.6130 -0.3793
 3463TIP3    H232025   6.698   0.968   2.779 -1.5709  0.4195  0.6653
 3464TIP3   OH232026   3.421   6.038   1.835  0.3102 -0.5466 -0.0219
 3464TIP3    H132027   3.377   5.954   1.830 -0.4297 -0.1944  0.4167
 3464TIP3    H232028   3.364   6.098   1.786  0.7637 -0.2758 -0.2267
 3465TIP3   OH232029   1.098   2.392   1.884 -0.1196  0.0741  0.1973
 3465TIP3    H132030   1.089   2.445   1.964 -1.3518 -0.2479  0.3015
 3465TIP3    H232031   1.060   2.307   1.908 -0.5193 -0.0150 -0.7384
 3466TIP3   OH232032   3.241   6.022   2.946 -0.0481  0.5210 -0.3517
 3466TIP3    H132033   3.245   6.113   2.915  1.8440  0.8609  0.7367
 3466TIP3    H232034   3.184   6.025   3.023  1.5047  1.1856  0.8111
 3467TIP3   OH232035   5.302   2.438   1.588  0.0650  0.2580  0.4574
 3467TIP3    H132036   5.287   2.528   1.557 -0.5697 -0.8293 -2.7917
 3467TIP3    H232037   5.306   2.446   1.683 -2.7080  3.3752  0.5153
 3468TIP3   OH232038   0.054   1.383   0.669  0.1239 -0.1940  0.4232
 3468TIP3    H132039  -0.009   1.329   0.717  0.2534 -0.8540 -0.1359
 3468TIP3    H232040   0.008   1.405   0.588  0.3172 -0.0008  0.3668
 3469TIP3   OH232041   6.839   5.972   0.563  0.2542  0.0238 -0.2993
 3469TIP3    H132042   6.900   6.019   0.620 -1.0082  0.0635  1.0439
 3469TIP3    H232043   6.846   6.018   0.479  0.8772  1.0434  0.2836
 3470TIP3   OH232044   6.638   1.015   0.791  0.1831 -0.3380  0.5209
 3470TIP3    H132045   6.687   0.944   0.833  1.5617 -0.3613 -1.0021
 3470TIP3    H232046   6.546   0.996   0.810  0.6351 -1.4389  1.7752
 3471TIP3   OH232047   4.128   6.651   2.572 -0.0393 -0.3885  0.1092
 3471TIP3    H132048   4.066   6.713   2.611 -0.1181 -1.6679  2.1483
 3471TIP3    H232049   4.092   6.632   2.485 -2.4812 -0.9659  1.1671
 3472TIP3   OH232050   5.606   1.758   2.846 -0.2203 -0.8705  0.3873
 3472TIP3    H132051   5.697   1.748   2.876  0.0660  0.9940  0.2234
 3472TIP3    H232052   5.561   1.800   2.919 -0.7738 -1.0525  0.1538
 3473TIP3   OH232053   5.942   1.166   0.274  0.2466  0.1857 -0.9996
 3473TIP3    H132054   5.980   1.252   0.292  1.1109 -0.2353 -0.7553
 3473TIP3    H232055   5.947   1.157   0.178  1.7888 -0.2888 -0.9144
 3474TIP3   OH232056   0.314   2.514   2.454  0.0052  0.0848  0.2726
 3474TIP3    H132057   0.289   2.573   2.525 -1.2570 -0.7823  0.5816
 3474TIP3    H232058   0.313   2.427   2.493 -1.4724 -0.4926 -0.9722
 3475TIP3   OH232059   1.814   4.717   3.137  0.6303 -0.3305 -0.1833
 3475TIP3    H132060   1.806   4.786   3.203  2.1371 -0.8431  0.5622
 3475TIP3    H232061   1.780   4.638   3.179  0.1502 -0.3369 -0.5724
 3476TIP3   OH232062   4.194   4.432   1.725  0.1154 -0.2956 -0.2437
 3476TIP3    H132063   4.156   4.412   1.640 -1.1746  3.7214 -0.8213
 3476TIP3    H232064   4.288   4.419   1.713 -0.1729 -1.0814 -1.8769
 3477TIP3   OH232065   4.961   0.919   1.919 -0.3992 -0.1529  0.1318
 3477TIP3    H132066   4.921   0.977   1.984 -0.0891 -0.2586  0.4151
 3477TIP3    H232067   5.041   0.965   1.892  0.5615 -1.0730  1.3516
 3478TIP3   OH232068   0.940   0.066   0.148  0.2972 -0.4735 -0.1436
 3478TIP3    H132069   0.878  -0.003   0.126  0.3949 -0.1195 -1.6510
 3478TIP3    H232070   1.006   0.023   0.203 -0.6094 -1.1285  0.4665
 3479TIP3   OH232071   4.638   5.814   7.536  0.1298  0.0411  0.5887
 3479TIP3    H132072   4.566   5.752   7.530 -0.3411  0.5654  0.7163
 3479TIP3    H232073   4.611   5.875   7.605  0.0387  1.0659 -0.3149
 3480TIP3   OH232074   4.588   0.612   8.473  0.6312 -0.4826 -0.5474
 3480TIP3    H132075   4.585   0.691   8.419  1.9939 -0.0761 -0.0758
 3480TIP3    H232076   4.613   0.543   8.411  0.7013 -0.2944 -0.7318
 3481TIP3   OH232077   4.321   4.014   1.136 -0.0160 -0.3620  0.1168
 3481TIP3    H132078   4.324   3.993   1.043 -0.6309 -0.1028  0.0356
 3481TIP3    H232079   4.354   4.104   1.142 -2.6193  0.6867 -0.2051
 3482TIP3   OH232080   1.659   0.271   8.182  0.4744 -0.6478 -0.1603
 3482TIP3    H132081   1.691   0.220   8.257  1.1289 -0.5313 -0.3556
 3482TIP3    H232082   1.664   0.211   8.108 -0.2247 -0.7794 -0.1050
 3483TIP3   OH232083   1.648   0.515   8.040 -0.1742  0.1377 -0.2725
 3483TIP3    H132084   1.709   0.588   8.052 -2.2002  1.7508  0.7244
 3483TIP3    H232085   1.678   0.449   8.102  0.4396  0.9808  0.3550
 3484TIP3   OH232086   6.534   3.469   1.225  0.4888 -0.1737  0.3947
 3484TIP3    H132087   6.518   3.420   1.306 -1.9039  1.2332  0.8975
 3484TIP3    H232088   6.606   3.528   1.246  1.9270 -1.8600  0.4650
 3485TIP3   OH232089   6.853   5.172   3.196 -0.1495 -0.4240  0.4520
 3485TIP3    H132090   6.894   5.193   3.112  0.6004 -2.2226  0.3217
 3485TIP3    H232091   6.760   5.163   3.175  0.1082 -1.4680 -0.3329
 3486TIP3   OH232092   5.376   6.424   3.340  0.3183  0.5568  0.1839
 3486TIP3    H132093   5.324   6.357   3.383 -1.3857  0.3985 -1.9062
 3486TIP3    H232094   5.316   6.498   3.331  0.3767  0.3814 -2.2958
 3487TIP3   OH232095   0.664   2.786   0.801  0.2354  0.0175  0.0182
 3487TIP3    H132096   0.694   2.701   0.834  3.3695  1.0807  0.3223
 3487TIP3    H232097   0.667   2.844   0.878  2.1834  1.2622 -0.9115
 3488TIP3   OH232098   6.194   3.006   1.058  0.5881 -0.0910 -0.4929
 3488TIP3    H132099   6.194   2.924   1.008 -0.7809 -1.3271  1.3874
 3488TIP3    H232100   6.144   3.067   1.004 -0.5195 -1.2716 -0.8399
 3489TIP3   OH232101   4.802   5.819   2.161  0.0839  0.4357  0.4314
 3489TIP3    H132102   4.871   5.885   2.158 -0.3837  0.9064 -0.0120
 3489TIP3    H232103   4.797   5.785   2.072  1.1529 -1.0799  0.9036
 3490TIP3   OH232104   0.305   0.957   0.580 -0.2209 -0.4390  0.6030
 3490TIP3    H132105   0.291   1.027   0.517 -0.9015 -0.5844  0.5849
 3490TIP3    H232106   0.220   0.913   0.587  0.0071 -0.8110  1.1533
 3491TIP3   OH232107   2.027   2.199   0.682  0.4815  0.3192 -0.0884
 3491TIP3    H132108   1.976   2.118   0.695 -2.0247  1.6493 -1.0520
 3491TIP3    H232109   2.117   2.168   0.670 -0.2643 -2.2678  0.2524
 3492TIP3   OH232110   2.964   5.560   0.793  0.3229  0.0655 -0.0280
 3492TIP3    H132111   3.012   5.499   0.849  0.8358 -0.6180 -1.1839
 3492TIP3    H232112   2.924   5.505   0.725 -2.1540  0.5891  0.8764
 3493TIP3   OH232113   3.352   0.605   0.792 -0.5487 -0.1588 -0.1677
 3493TIP3    H132114   3.404   0.530   0.820 -1.6858 -0.3906  1.4347
 3493TIP3    H232115   3.407   0.649   0.727  0.9684 -1.2589  0.3167
 3494TIP3   OH232116   3.671   2.453   0.318 -0.2424 -0.3627 -0.2234
 3494TIP3    H132117   3.585   2.456   0.362 -0.4582 -0.7866 -0.6173
 3494TIP3    H232118   3.652   2.473   0.227  0.1286 -0.1034 -0.2448
 3495TIP3   OH232119   6.690   4.740   1.472 -0.0486  0.7576 -0.4288
 3495TIP3    H132120   6.760   4.693   1.426 -0.1019  0.7958 -0.5474
 3495TIP3    H232121   6.616   4.740   1.411  0.0476  1.2571 -0.5466
 3496TIP3   OH232122   4.057   6.066   8.478 -0.1977 -0.1375 -0.7460
 3496TIP3    H132123   3.980   6.118   8.454 -1.4218 -1.2961  0.5095
 3496TIP3    H232124   4.029   5.975   8.467  1.4098 -0.5931 -1.4163
 3497TIP3   OH232125   6.253   2.212   0.693 -0.0362  0.3869  0.1877
 3497TIP3    H132126   6.254   2.251   0.606  1.3686 -0.5432 -0.2480
 3497TIP3    H232127   6.233   2.285   0.752  0.7721  1.4057 -0.7649
 3498TIP3   OH232128   2.958   3.899   8.415  0.7644 -0.3307 -0.2882
 3498TIP3    H132129   3.004   3.981   8.396  1.1605 -0.5603 -0.3261
 3498TIP3    H232130   2.957   3.852   8.332  1.9447 -1.0613  0.0876
 3499TIP3   OH232131   1.611   5.504   8.172 -0.6625 -0.0319  0.3099
 3499TIP3    H132132   1.564   5.581   8.204  1.5483  0.8445  1.6674
 3499TIP3    H232133   1.680   5.489   8.237  1.0229 -1.1593 -1.6303
 3500TIP3   OH232134   2.081   0.192   8.073  0.3870 -0.6262 -0.1246
 3500TIP3    H132135   2.124   0.160   7.994  0.5584 -1.5704  0.3289
 3500TIP3    H232136   2.154   0.216   8.131  0.2994 -1.3134  0.2823
 3501TIP3   OH232137   1.032   1.332   2.668  1.0693  0.2841 -0.1803
 3501TIP3    H132138   1.048   1.319   2.575  0.9178  0.1947 -0.1938
 3501TIP3    H232139   1.070   1.418   2.687  0.3169  0.7090 -0.5220
 3502TIP3   OH232140   1.322   4.970   7.755  0.2845 -0.1895  0.2568
 3502TIP3    H132141   1.340   4.976   7.661 -0.0043 -1.4402  0.1004
 3502TIP3    H232142   1.389   5.024   7.796  0.8743 -0.2290 -0.6296
 3503TIP3   OH232143   0.704   1.259   1.437 -0.0551 -0.4260 -0.0625
 3503TIP3    H132144   0.782   1.268   1.382  1.6656 -0.0044  2.2862
 3503TIP3    H232145   0.712   1.172   1.477  0.4621  0.4518  1.8820
 3504TIP3   OH232146   2.700   4.947   1.925 -0.5094  0.1673  0.3278
 3504TIP3    H132147   2.709   4.975   2.016 -1.7257 -3.5355  1.7505
 3504TIP3    H232148   2.608   4.962   1.903 -0.8761 -1.3519  0.6954
 3505TIP3   OH232149   1.102   4.415   8.107 -0.2283  0.6490 -0.1099
 3505TIP3    H132150   1.010   4.397   8.087 -0.7053  1.5511  1.1682
 3505TIP3    H232151   1.116   4.377   8.193  0.6878  0.3046 -0.3900
 3506TIP3   OH232152   1.414   2.943   2.279 -0.3622  0.3536 -0.3093
 3506TIP3    H132153   1.340   2.987   2.238 -0.1138  0.3427 -0.7732
 3506TIP3    H232154   1.439   2.874   2.217 -0.9364 -0.6503  0.5320
 3507TIP3   OH232155   5.131   1.292   0.394 -0.1654 -0.1521  0.4674
 3507TIP3    H132156   5.219   1.281   0.428 -0.0371  0.4865  0.3502
 3507TIP3    H232157   5.113   1.385   0.402 -0.6231 -0.1929 -0.0173
 3508TIP3   OH232158   1.891   3.231   8.242 -0.7941  0.2534  0.0837
 3508TIP3    H132159   1.824   3.277   8.293 -0.7744 -0.7090  1.0105
 3508TIP3    H232160   1.923   3.297   8.180 -1.7337  1.0788  0.4462
 3509TIP3   OH232161   2.687   4.869   7.743  0.6957 -0.3698 -0.2633
 3509TIP3    H132162   2.657   4.870   7.652  0.2667  0.2049 -0.1155
 3509TIP3    H232163   2.778   4.841   7.738  0.8740  0.3206 -0.9297
 3510TIP3   OH232164   0.631   3.129   0.724  0.3268  0.1748 -0.4442
 3510TIP3    H132165   0.705   3.114   0.782 -0.0091 -0.0558 -0.0645
 3510TIP3    H232166   0.624   3.224   0.717 -0.4420  0.2627  0.9814
 3511TIP3   OH232167   0.255   5.513   2.557 -0.1020  0.6783 -0.2329
 3511TIP3    H132168   0.234   5.489   2.467 -3.2128  2.3765 -0.0731
 3511TIP3    H232169   0.202   5.590   2.575  0.8616  0.7497  2.8958
 3512TIP3   OH232170   6.884   2.371   2.954 -0.1381  0.3129  0.0915
 3512TIP3    H132171   6.936   2.293   2.934 -0.4131 -0.5692  2.5307
 3512TIP3    H232172   6.811   2.367   2.892  0.8123 -0.3309 -1.0382
 3513TIP3   OH232173   5.987   5.460   2.522  0.0780 -0.2760 -0.3230
 3513TIP3    H132174   6.022   5.542   2.488  0.1851 -1.0746 -2.2377
 3513TIP3    H232175   6.057   5.425   2.577 -1.0542  2.2853  3.0837
 3514TIP3   OH232176   2.518   5.167   2.482  0.4906 -0.4494 -0.0659
 3514TIP3    H132177   2.428   5.198   2.469  0.3350 -0.3053  1.2388
 3514TIP3    H232178   2.519   5.081   2.439 -0.0181 -0.0917 -0.8255
 3515TIP3   OH232179   4.801   6.441   7.754  0.8403  0.2975 -0.0321
 3515TIP3    H132180   4.806   6.346   7.740  0.0702  0.0540  1.1721
 3515TIP3    H232181   4.790   6.450   7.849 -0.5790  1.5192 -0.2839
 3516TIP3   OH232182   0.642   6.718   0.847 -0.5205  0.4010  0.6460
 3516TIP3    H132183   0.636   6.696   0.754 -0.3462 -0.4677  0.8347
 3516TIP3    H232184   0.707   6.789   0.850  1.0469 -0.9519  0.3014
 3517TIP3   OH232185   4.388   4.569   3.440 -0.0018 -0.3709 -0.6637
 3517TIP3    H132186   4.471   4.612   3.421 -0.2312 -0.1184 -1.1112
 3517TIP3    H232187   4.323   4.639   3.434 -0.2652 -0.5937 -0.4450
 3518TIP3   OH232188   5.910   2.797   7.424  0.5032  0.0556 -0.1813
 3518TIP3    H132189   5.914   2.886   7.390 -1.2824  0.6912  1.1327
 3518TIP3    H232190   5.837   2.757   7.376  1.3452 -0.7559 -0.8222
 3519TIP3   OH232191   2.352   5.811   0.965  0.0936 -0.8692  0.2859
 3519TIP3    H132192   2.400   5.830   1.045 -1.3138  0.3428  0.8855
 3519TIP3    H232193   2.304   5.891   0.945 -1.8338 -2.0519 -0.1663
 3520TIP3   OH232194   3.614   3.129   0.948 -0.1641  0.3320 -0.0036
 3520TIP3    H132195   3.635   3.184   0.872 -0.4931  0.3799 -0.0618
 3520TIP3    H232196   3.685   3.147   1.011 -0.7184  1.4770  0.3273
 3521TIP3   OH232197   1.945   3.332   0.131 -0.1208  0.8565 -0.3719
 3521TIP3    H132198   1.996   3.312   0.053  1.0432  1.1692  0.2889
 3521TIP3    H232199   2.004   3.384   0.186 -0.2496 -0.8733  1.5269
 3522TIP3   OH232200   6.067   6.343   2.669  0.1095  0.1875 -0.3083
 3522TIP3    H132201   6.121   6.312   2.742 -1.2464 -1.9061 -0.0831
 3522TIP3    H232202   6.104   6.300   2.592 -0.3601 -0.1446 -0.3540
 3523TIP3   OH232203   1.599   4.466   1.101 -0.0467 -0.3780  0.6417
 3523TIP3    H132204   1.553   4.541   1.139  1.4785 -0.0046  1.8690
 3523TIP3    H232205   1.649   4.502   1.029  0.6302 -0.1997  1.1869
 3524TIP3   OH232206   5.780   0.400   8.534  0.1947 -0.0860 -0.5544
 3524TIP3    H132207   5.801   0.348   8.456  0.0124 -2.2931  0.7938
 3524TIP3    H232208   5.863   0.436   8.563  0.6089 -0.9735 -0.6110
 3525TIP3   OH232209   1.505   1.887   3.004 -0.6670 -0.1369 -0.1474
 3525TIP3    H132210   1.529   1.901   3.096 -1.5431  0.8625 -0.0505
 3525TIP3    H232211   1.564   1.817   2.975  1.7966  1.5850  0.3138
 3526TIP3   OH232212   3.119   5.175   1.387  0.2953 -0.1838  0.6600
 3526TIP3    H132213   3.157   5.252   1.430 -0.7284 -0.4200  2.0545
 3526TIP3    H232214   3.190   5.112   1.383  0.8482  0.4389  0.5062
 3527TIP3   OH232215   1.757   1.405   0.004 -0.1276 -0.0042 -0.2418
 3527TIP3    H132216   1.720   1.364  -0.074 -1.3588  0.4888  0.0569
 3527TIP3    H232217   1.734   1.346   0.075 -1.2821  0.8166  0.0890
 3528TIP3   OH232218   4.912   5.593   0.201 -0.2161 -0.4265 -0.3046
 3528TIP3    H132219   4.820   5.617   0.194 -0.9664 -3.2273 -1.3340
 3528TIP3    H232220   4.939   5.625   0.287 -2.2638  0.0814  0.2052
 3529TIP3   OH232221   0.085   6.405   8.439 -0.2595  0.1854  0.2902
 3529TIP3    H132222   0.062   6.442   8.354 -0.8713 -0.4027  0.1942
 3529TIP3    H232223   0.073   6.478   8.500  0.0706  0.5773 -0.1054
 3530TIP3   OH232224   1.105   5.710   2.473 -0.1797  0.6502 -0.1213
 3530TIP3    H132225   1.078   5.801   2.491  1.7891  1.1751  0.4461
 3530TIP3    H232226   1.199   5.716   2.457  0.1361 -1.4007  0.6995
 3531TIP3   OH232227   1.958   4.885   7.901 -0.2858 -0.4763 -0.4455
 3531TIP3    H132228   1.975   4.900   7.808  1.0923 -0.0660 -0.1523
 3531TIP3    H232229   2.028   4.932   7.946 -3.4886  3.3143  1.0445
 3532TIP3   OH232230   6.016   3.541   1.428 -0.1342 -0.3648 -0.8570
 3532TIP3    H132231   6.094   3.590   1.402 -0.3672  1.4012  1.3879
 3532TIP3    H232232   5.966   3.603   1.481 -0.4900 -2.9740  2.1878
 3533TIP3   OH232233   4.861   5.073   0.652 -0.5212 -0.5090  0.2822
 3533TIP3    H132234   4.878   5.153   0.602 -1.7099 -0.6364 -0.3571
 3533TIP3    H232235   4.942   5.023   0.643 -0.1925  0.1017 -0.3217
 3534TIP3   OH232236   0.001   4.425   0.540 -0.3925  0.3315  0.5356
 3534TIP3    H132237  -0.046   4.506   0.522 -1.6631  0.0920  2.4124
 3534TIP3    H232238   0.057   4.446   0.615 -0.8487 -0.5285  1.1399
 3535TIP3   OH232239   4.153   2.429   0.959 -0.4230 -0.0277 -0.5991
 3535TIP3    H132240   4.163   2.440   0.865  1.1302  1.1351 -0.3528
 3535TIP3    H232241   4.234   2.385   0.987  0.2660  1.7517  0.4410
 3536TIP3   OH232242   0.831   2.643   3.340  0.4215 -0.1398  0.3467
 3536TIP3    H132243   0.904   2.699   3.315  0.8065 -0.8002 -0.0420
 3536TIP3    H232244   0.801   2.678   3.424 -0.6444  1.8936 -0.7990
 3537TIP3   OH232245   2.152   4.886   3.209 -0.2162 -0.7245 -0.0680
 3537TIP3    H132246   2.121   4.955   3.268 -0.5109 -1.6272  0.8596
 3537TIP3    H232247   2.126   4.805   3.252  1.1237 -1.4510 -0.5747
 3538TIP3   OH232248   3.735   1.298   8.323 -0.4696  0.4389 -0.5105
 3538TIP3    H132249   3.792   1.222   8.331  0.8212  1.4836  1.1883
 3538TIP3    H232250   3.724   1.311   8.229  0.7676 -0.7690 -0.8505
 3539TIP3   OH232251   4.782   0.290   1.395  0.2307  0.7416 -0.3701
 3539TIP3    H132252   4.756   0.355   1.329 -0.8211  0.8791  0.1749
 3539TIP3    H232253   4.851   0.333   1.445  0.6035  0.8633 -0.9644
 3540TIP3   OH232254   6.004   2.205   2.246 -0.0181 -0.3169 -0.8852
 3540TIP3    H132255   5.968   2.291   2.265  0.1619 -0.9782  3.6811
 3540TIP3    H232256   6.099   2.217   2.250  0.0100 -0.6145 -0.4875
 3541TIP3   OH232257   4.756   5.594   8.398 -1.0107  0.2779  0.6590
 3541TIP3    H132258   4.788   5.684   8.402 -0.6081  0.1011  1.7798
 3541TIP3    H232259   4.821   5.548   8.343 -0.6528  0.4480  0.9335
 3542TIP3   OH232260   6.337   4.565   2.084  0.3421 -0.2707 -0.1693
 3542TIP3    H132261   6.401   4.632   2.059  0.9598 -1.1597 -1.0171
 3542TIP3    H232262   6.264   4.615   2.120  0.3956  0.9155 -1.6326
 3543TIP3   OH232263   4.031   1.972   8.397  0.0178 -0.1048  0.6923
 3543TIP3    H132264   4.088   1.899   8.374 -0.1737 -0.0236 -0.0803
 3543TIP3    H232265   3.944   1.943   8.372 -0.2282 -0.0631  1.4763
 3544TIP3   OH232266   6.758   1.264   0.820 -0.4612  0.2102 -0.2455
 3544TIP3    H132267   6.687   1.327   0.816 -0.4671  0.4479  2.2213
 3544TIP3    H232268   6.715   1.179   0.831 -0.3958  0.3405  1.1299
 3545TIP3   OH232269   2.151   5.627   1.329  0.3317 -0.2571 -0.5239
 3545TIP3    H132270   2.142   5.674   1.412 -1.6003 -1.2538 -0.1102
 3545TIP3    H232271   2.245   5.626   1.313  0.5143  4.3756 -1.0015
 3546TIP3   OH232272   6.545   3.680   1.604 -0.0881 -0.2786 -0.1486
 3546TIP3    H132273   6.585   3.761   1.636  0.3627 -0.3915 -0.4171
 3546TIP3    H232274   6.457   3.681   1.640  0.5968 -0.7215  1.6581
 3547TIP3   OH232275   2.826   6.366   1.595 -0.0726 -0.2844  0.1982
 3547TIP3    H132276   2.842   6.450   1.638 -0.7790  0.1150 -0.2955
 3547TIP3    H232277   2.910   6.320   1.599  0.3231  0.4488  0.4631
 3548TIP3   OH232278   4.455   2.459   1.265  0.1815  0.0146  0.2388
 3548TIP3    H132279   4.499   2.377   1.286 -0.4823 -0.0374  1.5131
 3548TIP3    H232280   4.519   2.527   1.285  0.5290 -0.1635 -0.2620
 3549TIP3   OH232281   4.873   0.253   2.929  0.2205  0.5631 -0.2138
 3549TIP3    H132282   4.796   0.309   2.936  1.2847  2.1227 -0.3832
 3549TIP3    H232283   4.881   0.213   3.015 -2.2078 -1.7065 -0.9024
 3550TIP3   OH232284   1.783   2.879   3.197 -0.1988 -0.0393 -0.6524
 3550TIP3    H132285   1.872   2.858   3.227  0.0395  1.1224 -0.4635
 3550TIP3    H232286   1.731   2.882   3.277 -0.4632 -0.9295 -0.7847
 3551TIP3   OH232287   4.816   3.030   0.320  0.2062  0.5476 -0.1368
 3551TIP3    H132288   4.883   2.989   0.375 -0.5688 -0.2750  0.2267
 3551TIP3    H232289   4.866   3.077   0.254  1.1514 -0.0526  0.1107
 3552TIP3   OH232290   6.349   5.652   2.110  0.7251  0.8261 -0.1751
 3552TIP3    H132291   6.271   5.639   2.056 -0.0825  1.7542  0.7141
 3552TIP3    H232292   6.346   5.580   2.173  0.8800  0.5610 -0.4684
 3553TIP3   OH232293   4.838   2.134   8.605  0.5162 -0.2660 -0.6072
 3553TIP3    H132294   4.813   2.226   8.596  2.3616  0.2475 -0.8940
 3553TIP3    H232295   4.755   2.087   8.612 -0.4574  1.4655  0.1141
 3554TIP3   OH232296   5.214   4.230   7.862 -0.1369  0.1255 -0.3494
 3554TIP3    H132297   5.249   4.253   7.776 -0.9963  1.3396 -0.4053
 3554TIP3    H232298   5.137   4.176   7.844 -0.3586  0.4392 -0.3549
 3555TIP3   OH232299   0.823   1.705   2.915 -0.0181  0.5491 -0.1883
 3555TIP3    H132300   0.733   1.684   2.893 -0.3083  2.2939 -0.8392
 3555TIP3    H232301   0.818   1.746   3.001  0.1529  0.6698 -0.2350
 3556TIP3   OH232302   0.220   4.200   2.496  0.0439 -0.1986 -0.2603
 3556TIP3    H132303   0.196   4.115   2.460  0.4635 -0.6119  0.4049
 3556TIP3    H232304   0.230   4.184   2.590 -2.4999  1.1732  0.3166
 3557TIP3   OH232305   0.516   5.458   0.251 -0.7229  0.0614 -0.1902
 3557TIP3    H132306   0.445   5.483   0.311  0.7868 -2.3349  2.8934
 3557TIP3    H232307   0.502   5.365   0.234  0.4961  0.0459 -1.2460
 3558TIP3   OH232308   3.858   1.400   8.542 -0.7173 -0.1644 -0.0530
 3558TIP3    H132309   3.815   1.362   8.619 -1.0454  0.3954  0.0484
 3558TIP3    H232310   3.814   1.360   8.467 -0.6140 -0.4727  0.0531
 3559TIP3   OH232311   4.015   4.490   0.757 -0.3845 -0.2834  0.3460
 3559TIP3    H132312   4.063   4.554   0.704 -0.6664 -0.2408  0.1368
 3559TIP3    H232313   3.991   4.538   0.837 -1.4918  0.2066 -0.2469
 3560TIP3   OH232314   0.172   4.194   0.741 -0.0362 -0.2237  0.2542
 3560TIP3    H132315   0.231   4.268   0.723 -1.4630  0.9368  0.1718
 3560TIP3    H232316   0.205   4.156   0.822  1.5626 -0.4038 -0.4244
 3561TIP3   OH232317   4.132   0.456   1.863 -0.3610  0.1890  0.2630
 3561TIP3    H132318   4.071   0.484   1.795  0.0466 -0.2500 -0.2927
 3561TIP3    H232319   4.218   0.461   1.822 -0.2575 -1.8783  0.0874
 3562TIP3   OH232320   3.213   4.686   0.391  0.0414 -0.7589 -0.3126
 3562TIP3    H132321   3.144   4.709   0.454  0.3518 -2.4100  0.6889
 3562TIP3    H232322   3.185   4.602   0.354  1.2774 -1.2264 -0.2297
 3563TIP3   OH232323   5.473   5.497   1.945 -1.4086  0.2441 -0.3290
 3563TIP3    H132324   5.523   5.417   1.935  0.2680  1.0692  1.0485
 3563TIP3    H232325   5.481   5.520   2.038 -3.1759  1.1780 -0.3556
 3564TIP3   OH232326   3.331   2.172   7.144  0.5757 -0.0922  0.4966
 3564TIP3    H132327   3.417   2.213   7.134  0.3602  0.2345 -0.0817
 3564TIP3    H232328   3.332   2.136   7.233  1.9042 -1.4808 -0.0091
 3565TIP3   OH232329   1.499   6.748   8.246  0.4523  0.3948  0.3689
 3565TIP3    H132330   1.437   6.680   8.220  1.4042  0.1337 -1.3738
 3565TIP3    H232331   1.443   6.820   8.277 -0.6540 -0.3418  0.1465
 3566TIP3   OH232332   6.684   2.416   1.691 -0.0533  0.6259  0.0313
 3566TIP3    H132333   6.710   2.484   1.754 -1.5053  1.7332 -0.5198
 3566TIP3    H232334   6.621   2.459   1.633  1.4121 -0.2778 -2.3922
 3567TIP3   OH232335   1.475   2.287   8.588  0.0440 -0.2131 -0.0584
 3567TIP3    H132336   1.380   2.276   8.586 -0.0414  0.5039 -0.5200
 3567TIP3    H232337   1.509   2.200   8.607 -0.7295 -0.3687  0.6711
 3568TIP3   OH232338   2.677   4.492   7.895 -0.3033 -0.2764  0.2440
 3568TIP3    H132339   2.701   4.409   7.854  1.2234  1.2881 -2.3263
 3568TIP3    H232340   2.758   4.521   7.938 -0.4849  0.3812  0.1506
 3569TIP3   OH232341   3.624   1.454   0.559  0.4458 -0.0063  0.0853
 3569TIP3    H132342   3.693   1.437   0.495  0.0558 -1.5081  0.0095
 3569TIP3    H232343   3.551   1.398   0.530  0.3504 -0.9279  1.9691
 3570TIP3   OH232344   1.835   1.528   2.056 -0.0097  0.2801 -0.0673
 3570TIP3    H132345   1.757   1.579   2.081  0.2928  0.1568  1.1696
 3570TIP3    H232346   1.855   1.475   2.133  2.2559  1.4954  0.2619
 3571TIP3   OH232347   3.954   1.509   1.312  0.3404  0.1774 -0.8359
 3571TIP3    H132348   3.966   1.426   1.266 -0.5493 -0.2121 -0.3797
 3571TIP3    H232349   3.987   1.493   1.400  0.4303  0.3986 -0.8279
 3572TIP3   OH232350   2.261   1.433   1.058  0.0306  0.0461  0.1468
 3572TIP3    H132351   2.303   1.502   1.110  1.1161 -0.6253  0.1933
 3572TIP3    H232352   2.303   1.352   1.087 -0.5586 -0.5324 -0.5695
 3573TIP3   OH232353   4.807   3.941   2.589 -0.3050 -0.3143  0.4286
 3573TIP3    H132354   4.882   3.978   2.636  0.3795 -0.4236 -0.5475
 3573TIP3    H232355   4.780   4.011   2.529  0.0879 -0.8684 -0.4090
 3574TIP3   OH232356   4.968   5.036   1.677  0.4028 -0.2625  0.3148
 3574TIP3    H132357   4.979   5.079   1.592 -0.5625  1.3049  0.9480
 3574TIP3    H232358   4.909   4.963   1.658 -3.2304  2.4257  0.2170
 3575TIP3   OH232359   2.690   6.411   0.831  0.1110  0.3593  0.1334
 3575TIP3    H132360   2.772   6.454   0.805 -0.5106 -0.1218 -3.0460
 3575TIP3    H232361   2.621   6.471   0.802 -0.6937 -1.2609 -1.5402
 3576TIP3   OH232362   0.245   2.995   2.432 -0.3501 -0.1699  0.2972
 3576TIP3    H132363   0.178   3.055   2.401 -0.2870 -0.4802 -0.4437
 3576TIP3    H232364   0.201   2.943   2.499 -0.8698 -0.4082 -0.2217
 3577TIP3   OH232365   3.838   4.636   7.489  0.3898 -0.6135 -0.2237
 3577TIP3    H132366   3.802   4.548   7.497  1.1263 -0.8982  0.0066
 3577TIP3    H232367   3.930   4.623   7.466  0.3650  0.1043 -0.7615
 3578TIP3   OH232368   0.176   5.752   0.895 -0.3019 -0.3585 -0.3987
 3578TIP3    H132369   0.086   5.756   0.864  0.1610  0.9408 -1.6809
 3578TIP3    H232370   0.170   5.775   0.988 -1.0972  2.4075 -1.0206
 3579TIP3   OH232371   5.895   0.321   0.830  0.0068  0.5461 -0.0465
 3579TIP3    H132372   5.842   0.298   0.906  0.4129  2.2710  0.8290
 3579TIP3    H232373   5.832   0.334   0.759 -0.4156 -0.6760  0.0883
 3580TIP3   OH232374   2.156   4.472   0.575  0.2888 -0.1464  0.1223
 3580TIP3    H132375   2.167   4.389   0.528 -0.5166  0.2155 -0.7238
 3580TIP3    H232376   2.223   4.529   0.539 -1.7784  0.9010 -2.4196
 3581TIP3   OH232377   0.379   0.700   8.125 -0.4301 -0.1932  0.2202
 3581TIP3    H132378   0.341   0.787   8.136 -2.3521 -1.0318  0.8045
 3581TIP3    H232379   0.381   0.686   8.030 -1.6920 -0.1263  0.1652
 3582TIP3   OH232380   3.783   3.507   8.589 -0.2422  0.4276 -0.0082
 3582TIP3    H132381   3.871   3.510   8.551  0.0138 -0.0539  0.5176
 3582TIP3    H232382   3.727   3.547   8.523  0.1068 -0.8331 -1.1094
 3583TIP3   OH232383   3.638   1.771   3.233  0.5341 -0.1680  0.8251
 3583TIP3    H132384   3.603   1.852   3.269 -0.8380 -0.4938  0.2901
 3583TIP3    H232385   3.711   1.800   3.178 -0.6587  0.8589 -0.3023
 3584TIP3   OH232386   1.970   4.393   7.373  0.6240  0.1555  0.8709
 3584TIP3    H132387   2.032   4.445   7.321  2.6552 -0.6798  2.3486
 3584TIP3    H232388   2.005   4.304   7.370  0.1657 -0.1167  2.7407
 3585TIP3   OH232389   1.159   4.534   1.320 -0.2404  0.5666 -0.0651
 3585TIP3    H132390   1.117   4.504   1.239  0.6545 -2.4126  0.4413
 3585TIP3    H232391   1.089   4.529   1.386 -0.2068 -0.1188 -0.0703
 3586TIP3   OH232392   6.056   6.343   2.332 -0.0248 -0.6929  0.4637
 3586TIP3    H132393   6.125   6.349   2.267 -1.3166 -1.1085 -1.0112
 3586TIP3    H232394   6.084   6.273   2.391  1.0381 -0.4969  0.1978
 3587TIP3   OH232395   5.990   1.179   1.917  0.1950 -0.2192  0.2145
 3587TIP3    H132396   5.951   1.171   1.829 -0.6508  0.8373  0.4827
 3587TIP3    H232397   5.919   1.210   1.972  0.7836 -0.6638  1.2499
 3588TIP3   OH232398   6.011   3.633   1.108 -0.0543 -0.0126  0.0057
 3588TIP3    H132399   6.105   3.629   1.126 -0.2105 -0.9650  0.7062
 3588TIP3    H232400   5.989   3.545   1.078 -0.3428  0.7816 -2.2572
 3589TIP3   OH232401   1.061   1.185   2.426 -1.2293 -0.0184  0.4768
 3589TIP3    H132402   1.013   1.219   2.350  0.6998 -2.0911 -1.8460
 3589TIP3    H232403   1.049   1.090   2.420  1.2097 -0.4103  1.1290
 3590TIP3   OH232404   6.256   6.266   2.871 -0.0349 -0.1013 -0.1003
 3590TIP3    H132405   6.298   6.338   2.919  0.7409  0.2013 -1.1930
 3590TIP3    H232406   6.323   6.235   2.811 -0.2338 -2.0322  0.6232
 3591TIP3   OH232407   6.311   5.433   1.353  0.1069 -0.4181 -0.0048
 3591TIP3    H132408   6.388   5.456   1.405 -0.1377 -0.7602  0.5176
 3591TIP3    H232409   6.246   5.500   1.376  1.0534  1.4977 -2.4330
 3592TIP3   OH232410   6.850   6.467   2.231  0.6914  0.0166  0.3608
 3592TIP3    H132411   6.765   6.465   2.186  2.0828 -0.5198 -2.5129
 3592TIP3    H232412   6.894   6.387   2.203  2.0855  0.1648  1.9711
 3593TIP3   OH232413   0.702   3.439   0.074 -0.1521  0.1879  0.0295
 3593TIP3    H132414   0.648   3.361   0.085  0.0959  0.0583  0.3176
 3593TIP3    H232415   0.713   3.474   0.162 -0.7489  0.8822 -0.1569
 3594TIP3   OH232416   6.066   5.739   2.444  0.4177  0.2304 -0.1993
 3594TIP3    H132417   6.105   5.788   2.516 -1.3817  0.0489  0.9536
 3594TIP3    H232418   6.077   5.796   2.368  0.5448  1.3551  0.6346
 3595TIP3   OH232419   1.539   5.482   0.926  0.2506 -0.2099 -0.2438
 3595TIP3    H132420   1.505   5.485   0.837 -0.0183 -0.6284 -0.1595
 3595TIP3    H232421   1.462   5.479   0.982  0.4118 -1.0801 -0.0478
 3596TIP3   OH232422   5.848   4.798   0.326  0.3029  0.7315  0.6185
 3596TIP3    H132423   5.755   4.815   0.310  0.8741  2.6346 -1.1313
 3596TIP3    H232424   5.849   4.720   0.381 -2.2917 -0.0017 -0.2309
 3597TIP3   OH232425   5.702   2.649   8.021 -0.5740  0.0058 -0.3044
 3597TIP3    H132426   5.705   2.608   7.934 -0.8668  0.5774 -0.5901
 3597TIP3    H232427   5.751   2.731   8.010 -3.4307  1.7877 -0.8694
 3598TIP3   OH232428   1.583   5.412   2.704 -0.3214 -0.2317  0.5382
 3598TIP3    H132429   1.558   5.436   2.794  1.5887 -0.3634  1.1562
 3598TIP3    H232430   1.508   5.438   2.651 -0.7225  1.6987  1.9184
 3599TIP3   OH232431   0.044   6.068   1.045  0.7426  0.0759 -0.1974
 3599TIP3    H132432   0.074   6.005   1.110  0.8688  1.0303  0.6882
 3599TIP3    H232433  -0.044   6.038   1.022  1.0233 -0.7464 -0.2178
 3600TIP3   OH232434   1.302   3.650   1.862 -0.4775  0.1816  1.1136
 3600TIP3    H132435   1.272   3.741   1.868 -1.8613 -0.2105  0.5385
 3600TIP3    H232436   1.231   3.599   1.901  0.6860 -0.6067  2.2482
 3601TIP3   OH232437   3.242   5.859   2.367 -0.4805 -0.8041  0.3087
 3601TIP3    H132438   3.170   5.815   2.323 -0.3825  0.6414 -1.4298
 3601TIP3    H232439   3.285   5.909   2.298  1.2197 -0.3656  1.6138
 3602TIP3   OH232440   4.328   3.051   0.243  0.1006  0.6660 -0.1876
 3602TIP3    H132441   4.319   3.036   0.149 -0.6703  1.7050 -0.2987
 3602TIP3    H232442   4.372   2.973   0.276 -0.7426 -0.2717 -1.2128
 3603TIP3   OH232443   5.103   2.276   0.731  0.3491  0.0528 -0.5253
 3603TIP3    H132444   5.192   2.278   0.767  0.5307 -1.6031 -0.8295
 3603TIP3    H232445   5.099   2.354   0.675  1.2404  0.7199  0.2942
 3604TIP3   OH232446   0.900   2.690   1.135 -0.3101  0.3865  0.3482
 3604TIP3    H132447   0.907   2.707   1.041  0.1048 -0.1993  0.2694
 3604TIP3    H232448   0.990   2.700   1.168 -0.2209 -0.6721  0.4573
 3605TIP3   OH232449   4.634   4.880   0.318  0.5926 -0.6337 -1.1600
 3605TIP3    H132450   4.614   4.892   0.411  0.5175  0.9434 -1.3611
 3605TIP3    H232451   4.573   4.811   0.290 -1.6048  1.0387 -0.7418
 3606TIP3   OH232452   2.764   1.697   2.754 -0.1868 -0.4009  0.2929
 3606TIP3    H132453   2.769   1.609   2.717  0.4233  0.4044 -1.6574
 3606TIP3    H232454   2.760   1.755   2.678 -2.2191  1.2039  1.5063
 3607TIP3   OH232455   5.327   1.708   1.488 -0.1742 -0.2546 -0.3857
 3607TIP3    H132456   5.314   1.800   1.464  0.6346 -0.1221 -0.3509
 3607TIP3    H232457   5.259   1.661   1.441  0.3499  0.1957 -1.6325
 3608TIP3   OH232458   2.694   3.385   0.842 -0.0325 -0.2730  0.6916
 3608TIP3    H132459   2.603   3.359   0.831  0.0224 -0.1175 -0.2142
 3608TIP3    H232460   2.719   3.349   0.927 -0.5103 -1.5868  0.3090
 3609TIP3   OH232461   3.850   4.676   7.219  0.5853 -0.4634  0.8017
 3609TIP3    H132462   3.768   4.677   7.170  0.8269  1.6198  0.3306
 3609TIP3    H232463   3.826   4.704   7.307  0.3480 -3.0071  1.6333
 3610TIP3   OH232464   6.152   0.195   2.817 -0.2841 -0.3486  0.6279
 3610TIP3    H132465   6.204   0.121   2.784 -1.5391 -1.4503  1.0446
 3610TIP3    H232466   6.159   0.189   2.912  0.7627  0.9535  0.6671
 3611TIP3   OH232467   1.084   0.839   1.418  0.2376  0.3619  0.4894
 3611TIP3    H132468   0.991   0.840   1.397  0.3111  0.9094  0.1695
 3611TIP3    H232469   1.117   0.759   1.376 -0.2503 -0.3151  1.3645
 3612TIP3   OH232470   5.371   1.100   2.882 -0.2543  0.2751 -1.0040
 3612TIP3    H132471   5.343   1.048   2.806 -0.4153 -2.9403  1.0912
 3612TIP3    H232472   5.459   1.067   2.902  0.3754  2.0915 -0.5760
 3613TIP3   OH232473   3.195   1.674   2.866 -0.1349 -0.2271 -0.3300
 3613TIP3    H132474   3.247   1.681   2.946  0.1534  0.0805 -0.5360
 3613TIP3    H232475   3.169   1.764   2.847  0.8800 -0.1138 -1.2728
 3614TIP3   OH232476   1.987   3.850   2.971 -0.1714  0.4208 -0.1932
 3614TIP3    H132477   2.057   3.915   2.964 -1.0752  1.3041 -1.4834
 3614TIP3    H232478   1.960   3.853   3.063  1.2886  0.2513  0.2545
 3615TIP3   OH232479   4.620   2.038   7.809 -0.3483  0.3758 -0.0958
 3615TIP3    H132480   4.617   2.070   7.719 -0.3590  0.3206 -0.1152
 3615TIP3    H232481   4.656   1.949   7.802 -0.2063  0.4287 -0.0296
 3616TIP3   OH232482   2.975   0.832   2.849 -0.2440  0.1284  0.3946
 3616TIP3    H132483   2.935   0.751   2.816  1.5214 -0.7172  0.2034
 3616TIP3    H232484   3.064   0.806   2.874  0.4757  2.0985  0.0209
 3617TIP3   OH232485   2.683   6.536   0.276 -0.3694 -0.1649 -0.8852
 3617TIP3    H132486   2.773   6.501   0.276 -0.3517 -0.1632 -2.0506
 3617TIP3    H232487   2.656   6.531   0.367  0.5625 -0.8454 -0.6218
 3618TIP3   OH232488   5.067   4.185   2.382 -0.0711  0.3898  0.3809
 3618TIP3    H132489   5.135   4.247   2.356  1.3098 -0.1628  2.3890
 3618TIP3    H232490   4.991   4.239   2.402  0.6373  1.3101  0.6645
 3619TIP3   OH232491   2.640   6.179   7.689 -0.1072  0.0422 -0.1643
 3619TIP3    H132492   2.555   6.213   7.661 -0.8078 -0.6934  0.9701
 3619TIP3    H232493   2.688   6.255   7.720 -0.6383  0.3645 -0.1237
 3620TIP3   OH232494   0.613   4.528   3.339  0.7297 -0.3949  0.2518
 3620TIP3    H132495   0.648   4.598   3.393  0.6901 -0.1131 -0.0855
 3620TIP3    H232496   0.523   4.516   3.370  1.7718 -2.7041  2.7173
 3621TIP3   OH232497   1.434   5.151   0.790  0.4541 -0.4018 -0.2130
 3621TIP3    H132498   1.402   5.107   0.869  1.8073 -2.1059 -0.5316
 3621TIP3    H232499   1.451   5.241   0.818  0.0040 -0.7190  1.1767
 3622TIP3   OH232500   3.927   3.878   0.204  0.1877 -0.1654 -0.4471
 3622TIP3    H132501   3.916   3.969   0.231  2.1456 -0.1425  0.4577
 3622TIP3    H232502   3.994   3.881   0.135  0.9994 -0.9719  0.2738
 3623TIP3   OH232503   0.052   2.946   1.472  0.0854  0.2624  0.1737
 3623TIP3    H132504   0.037   2.854   1.495 -1.9603  0.2277 -1.0294
 3623TIP3    H232505  -0.025   2.992   1.504  1.3273  1.7140  1.2484
 3624TIP3   OH232506   2.857   6.728   1.886  0.2240 -0.8482  0.2571
 3624TIP3    H132507   2.795   6.724   1.814  0.8760 -1.7124 -0.2737
 3624TIP3    H232508   2.891   6.817   1.884 -0.4641 -0.5868  0.1005
 3625TIP3   OH232509   0.050   3.799   2.826  0.1468 -0.4375  0.1707
 3625TIP3    H132510  -0.012   3.749   2.772 -2.2745  1.8889  0.6008
 3625TIP3    H232511   0.042   3.762   2.914  1.3011 -1.7417 -0.2215
 3626TIP3   OH232512   1.049   1.771   0.753  0.1119 -0.1619 -0.1786
 3626TIP3    H132513   1.126   1.717   0.769 -0.2248 -0.0859  2.0115
 3626TIP3    H232514   1.082   1.845   0.702  0.9066 -1.5125 -1.7305
 3627TIP3   OH232515   6.728   3.348   2.417  0.4909  0.2679 -0.0626
 3627TIP3    H132516   6.791   3.402   2.371  2.3591  1.1791  3.2185
 3627TIP3    H232517   6.649   3.403   2.423  1.2783  1.3908  0.4463
 3628TIP3   OH232518   2.759   4.517   2.813  0.5693 -0.1014 -0.0797
 3628TIP3    H132519   2.671   4.510   2.777  0.3524  0.3102  0.3501
 3628TIP3    H232520   2.759   4.601   2.860  1.5486  0.4574 -1.0438
 3629TIP3   OH232521   0.480   4.260   7.534  0.0737  0.5322 -0.1738
 3629TIP3    H132522   0.519   4.173   7.523  2.8546  1.5808  0.4396
 3629TIP3    H232523   0.406   4.246   7.593  0.4304 -1.4321 -0.1245
 3630TIP3   OH232524   2.031   1.440   1.738 -0.0157  0.0215 -0.3391
 3630TIP3    H132525   2.085   1.484   1.673 -0.5402 -1.5430 -1.9081
 3630TIP3    H232526   2.089   1.378   1.781 -0.0983 -0.3003 -0.6831
 3631TIP3   OH232527   2.258   4.022   0.464  0.6402 -0.1086  0.4254
 3631TIP3    H132528   2.336   4.047   0.514  1.3458  0.7714 -1.0647
 3631TIP3    H232529   2.283   3.941   0.420 -0.0546 -0.9981  1.6098
 3632TIP3   OH232530   6.820   6.842   0.122 -0.9319  0.2907  0.0990
 3632TIP3    H132531   6.738   6.808   0.158 -1.4467  2.5286  1.2481
 3632TIP3    H232532   6.869   6.872   0.198  0.3435  0.2851 -0.6920
 3633TIP3   OH232533   2.034   5.553   8.166  0.1399  0.1607  0.0645
 3633TIP3    H132534   2.018   5.595   8.082 -3.5678 -0.6198  0.2329
 3633TIP3    H232535   2.122   5.518   8.159  0.4750  1.3112 -2.9282
 3634TIP3   OH232536   2.618   1.512   8.081  0.1515 -0.2006  0.3827
 3634TIP3    H132537   2.525   1.535   8.078  0.0761 -0.4824  0.4986
 3634TIP3    H232538   2.663   1.589   8.047 -0.0385  0.4870  1.6315
 3635TIP3   OH232539   6.645   5.835   0.164  0.4857  0.2386  0.1207
 3635TIP3    H132540   6.670   5.926   0.177  0.6114  0.3830 -1.0638
 3635TIP3    H232541   6.628   5.827   0.070 -1.4182 -0.4841  0.4895
 3636TIP3   OH232542   2.590   5.398   8.036  0.2516  0.0286  0.1298
 3636TIP3    H132543   2.536   5.406   8.115  0.7274 -0.5357  0.5233
 3636TIP3    H232544   2.565   5.473   7.982  3.1084  3.2428  2.7532
 3637TIP3   OH232545   2.809   0.208   3.052 -0.4930  0.1155 -0.2646
 3637TIP3    H132546   2.873   0.186   3.120 -1.5975 -0.4551  0.6301
 3637TIP3    H232547   2.788   0.125   3.010 -1.0405  0.2159 -0.1943
 3638TIP3   OH232548   6.077   2.835   1.863 -0.0342  0.0069 -0.0051
 3638TIP3    H132549   6.127   2.762   1.826 -0.8443 -1.0922  1.0104
 3638TIP3    H232550   5.988   2.822   1.830 -1.0548 -1.6322  3.0395
 3639TIP3   OH232551   0.021   5.073   0.088 -0.3318  0.1590 -0.5977
 3639TIP3    H132552   0.028   5.151   0.143 -0.0747 -0.1030 -0.2521
 3639TIP3    H232553   0.102   5.024   0.104 -0.6399 -0.3483 -0.5399
 3640TIP3   OH232554   4.897   1.079   3.090 -0.1623  0.1281 -0.5189
 3640TIP3    H132555   4.935   1.014   3.149  0.5884  1.7591  0.8716
 3640TIP3    H232556   4.885   1.157   3.144 -1.1154  1.1435 -2.1054
 3641TIP3   OH232557   2.232   2.566   1.304 -0.3557  0.5241  0.4932
 3641TIP3    H132558   2.223   2.503   1.233  2.9108  1.5886 -1.1007
 3641TIP3    H232559   2.287   2.522   1.369  1.5934  1.4621 -0.4387
 3642TIP3   OH232560   3.738   1.227   1.504  0.1207 -0.0088  0.6360
 3642TIP3    H132561   3.817   1.195   1.460 -0.7791  0.7954 -1.7473
 3642TIP3    H232562   3.764   1.312   1.541 -0.1224  1.4803 -2.2847
 3643TIP3   OH232563   0.296   3.862   2.760  0.1790  0.1101 -0.5336
 3643TIP3    H132564   0.204   3.837   2.768  0.6486 -2.0986 -1.4691
 3643TIP3    H232565   0.310   3.924   2.832 -1.6378 -0.7562  0.6382
 3644TIP3   OH232566   5.700   4.234   2.601 -0.0163 -0.3210 -0.4861
 3644TIP3    H132567   5.656   4.234   2.686  2.7839 -0.4797  1.0694
 3644TIP3    H232568   5.740   4.321   2.594 -1.1851  0.1346 -2.2549
 3645TIP3   OH232569   4.317   5.434   0.272  0.6049 -0.8208  0.4937
 3645TIP3    H132570   4.375   5.380   0.218  0.7932 -0.0850 -0.0567
 3645TIP3    H232571   4.262   5.480   0.209 -0.2665 -1.1527  0.9946
 3646TIP3   OH232572   0.492   6.322   2.076 -0.4366 -0.4058  0.4407
 3646TIP3    H132573   0.489   6.338   2.170  2.4770  0.2506  0.5136
 3646TIP3    H232574   0.441   6.393   2.038 -2.0482 -0.9504  1.5176
 3647TIP3   OH232575   1.024   2.131   1.962 -0.0896  0.6189 -0.0022
 3647TIP3    H132576   1.050   2.069   1.893 -0.7186  2.2658 -1.8135
 3647TIP3    H232577   0.934   2.107   1.983  0.3827 -0.4455  0.9569
 3648TIP3   OH232578   1.977   1.983   2.569  0.3306  0.6277 -0.2779
 3648TIP3    H132579   1.890   1.985   2.529  1.1419  2.5803 -2.1379
 3648TIP3    H232580   1.982   2.065   2.619  0.8289  0.1419  0.4877
 3649TIP3   OH232581   0.241   4.002   0.982  0.0448  0.0404  0.1684
 3649TIP3    H132582   0.238   3.921   0.933  0.5279  0.6767 -0.9483
 3649TIP3    H232583   0.310   4.054   0.940 -1.3915  1.7136 -0.2879
 3650TIP3   OH232584   3.726   6.627   3.407 -0.1142  0.4487 -0.1838
 3650TIP3    H132585   3.695   6.717   3.393  0.2850  0.7283  0.6707
 3650TIP3    H232586   3.814   6.626   3.369 -0.4286  0.1896 -0.9119
 3651TIP3   OH232587   2.005   1.848   1.166 -0.5031  0.3670  0.3408
 3651TIP3    H132588   2.011   1.770   1.221  0.3201  1.3741  1.7564
 3651TIP3    H232589   1.938   1.827   1.102 -0.3902 -1.4498  0.7623
 3652TIP3   OH232590   5.767   5.861   8.356 -0.4753  0.1767  0.5444
 3652TIP3    H132591   5.794   5.935   8.302  0.0587 -1.1072 -1.0094
 3652TIP3    H232592   5.675   5.846   8.333 -0.1723 -0.5393 -0.2436
 3653TIP3   OH232593   5.873   3.867   3.174  0.0979 -0.3777  0.6642
 3653TIP3    H132594   5.939   3.871   3.105  1.5564  1.2132  2.0591
 3653TIP3    H232595   5.861   3.773   3.191  1.4120 -0.7144 -0.1666
 3654TIP3   OH232596   5.540   0.321   8.623 -0.4779 -0.5230  0.3116
 3654TIP3    H132597   5.625   0.342   8.586 -0.5085  0.4401  0.7450
 3654TIP3    H232598   5.492   0.279   8.551  0.2491 -0.8096 -0.0196
 3655TIP3   OH232599   3.005   3.683   2.553 -0.3364  0.3674 -0.3161
 3655TIP3    H132600   2.943   3.688   2.479  1.2656  0.3845 -1.7151
 3655TIP3    H232601   2.975   3.751   2.613 -2.8791 -0.9697  0.0542
 3656TIP3   OH232602   3.418   3.499   1.648 -0.2677  0.0127  0.1179
 3656TIP3    H132603   3.367   3.580   1.643 -0.3783 -0.0691 -0.0618
 3656TIP3    H232604   3.485   3.509   1.582  0.5351  0.5269  0.9814
 3657TIP3   OH232605   6.552   1.944   2.524 -0.7958 -0.7357 -0.4320
 3657TIP3    H132606   6.534   1.869   2.582  1.7637 -2.0709 -1.2277
 3657TIP3    H232607   6.544   2.020   2.581 -0.6982 -1.8266  1.1219
 3658TIP3   OH232608   0.222   6.614   2.471  0.0510 -0.2902 -0.1245
 3658TIP3    H132609   0.284   6.644   2.537  0.0039 -0.2726 -0.0884
 3658TIP3    H232610   0.271   6.617   2.389  0.7182 -2.1523  0.1677
 3659TIP3   OH232611   5.448   0.326   0.541 -0.0367 -0.2345  0.4846
 3659TIP3    H132612   5.423   0.284   0.458 -0.0012 -0.6697  0.6879
 3659TIP3    H232613   5.441   0.420   0.524 -1.6385 -0.3262  0.4847
 3660TIP3   OH232614   3.648   3.211   0.412  0.1691 -0.0857 -1.2251
 3660TIP3    H132615   3.592   3.278   0.452 -0.1932 -0.7740 -0.5580
 3660TIP3    H232616   3.659   3.240   0.321 -0.7377  0.3900 -1.1901
 3661TIP3   OH232617   5.803   5.527   2.184 -0.4106 -0.2292  0.1263
 3661TIP3    H132618   5.799   5.581   2.105 -0.4935  1.7533  1.4182
 3661TIP3    H232619   5.718   5.539   2.226  0.1852  0.0606  1.3164
 3662TIP3   OH232620   6.510   1.525   1.452  0.1965  1.0766  0.2321
 3662TIP3    H132621   6.544   1.566   1.372  1.6033 -0.2924  0.0724
 3662TIP3    H232622   6.580   1.466   1.479 -1.5193 -0.8221  0.7257
 3663TIP3   OH232623   5.168   3.747   2.789  0.2178 -0.1335 -0.5171
 3663TIP3    H132624   5.225   3.812   2.829 -1.4180  0.8626  0.2978
 3663TIP3    H232625   5.093   3.741   2.848 -0.5897 -1.3003 -1.6083
 3664TIP3   OH232626   3.862   3.849   0.848 -0.2787 -0.1205  0.6049
 3664TIP3    H132627   3.891   3.940   0.842  0.6532 -0.4755 -1.1424
 3664TIP3    H232628   3.939   3.798   0.822 -1.2580 -1.3085 -0.0787
 3665TIP3   OH232629   0.632   2.028   2.354 -0.2208 -0.4816 -0.4696
 3665TIP3    H132630   0.605   1.937   2.355  0.4544 -0.7017 -1.0480
 3665TIP3    H232631   0.552   2.077   2.337 -0.4272 -1.0370 -1.1418
 3666TIP3   OH232632   0.398   4.946   0.413 -0.0110  0.1213 -0.0286
 3666TIP3    H132633   0.369   4.972   0.500  0.3520 -0.0831  0.1517
 3666TIP3    H232634   0.481   4.902   0.427 -1.7850 -3.5601 -0.0128
 3667TIP3   OH232635   4.546   6.513   1.794  0.6064  0.2548 -0.2009
 3667TIP3    H132636   4.522   6.485   1.706  1.0243  0.3320 -0.3408
 3667TIP3    H232637   4.530   6.608   1.794  1.8973  0.4949 -0.6341
 3668TIP3   OH232638   4.175   6.310   8.462 -0.5544  0.1833  0.0366
 3668TIP3    H132639   4.196   6.281   8.373 -3.9737 -0.6817 -0.6486
 3668TIP3    H232640   4.133   6.234   8.502 -1.1501  1.2729  1.5650
 3669TIP3   OH232641   4.501   4.343   8.620 -0.1607 -0.3479 -0.0878
 3669TIP3    H132642   4.511   4.398   8.541 -1.0721  0.3029  0.2379
 3669TIP3    H232643   4.408   4.322   8.623 -0.1596 -0.2406  0.8966
 3670TIP3   OH232644   0.522   2.555   0.173 -0.1483  0.0335 -0.3508
 3670TIP3    H132645   0.428   2.570   0.174  0.1863  2.8116 -1.6046
 3670TIP3    H232646   0.534   2.482   0.112 -1.4266  0.4484 -1.1469
 3671TIP3   OH232647   1.969   1.389   0.189 -0.2509 -0.6864  0.6580
 3671TIP3    H132648   1.902   1.422   0.129  0.8162  1.5087  0.5510
 3671TIP3    H232649   2.004   1.311   0.146 -2.6084 -1.8240  0.6871
 3672TIP3   OH232650   2.359   1.791   8.304 -0.1182  0.2384 -0.0006
 3672TIP3    H132651   2.405   1.871   8.329 -2.0511  1.3145  0.2208
 3672TIP3    H232652   2.271   1.801   8.339 -0.8830 -1.2917 -1.3577
 3673TIP3   OH232653   0.372   0.312   1.475  0.3217  0.4548 -0.2469
 3673TIP3    H132654   0.411   0.225   1.475 -0.6212  0.0134 -1.3906
 3673TIP3    H232655   0.389   0.345   1.564 -0.5882 -1.4765  0.7072
 3674TIP3   OH232656   0.243   5.272   0.074 -0.0597 -0.1524 -0.4745
 3674TIP3    H132657   0.200   5.229   0.001 -0.4118  0.6174 -0.7305
 3674TIP3    H232658   0.334   5.242   0.070 -0.1222 -0.2641 -1.1107
 3675TIP3   OH232659   2.188   2.909   7.984  0.2187  0.1961  0.2026
 3675TIP3    H132660   2.236   2.866   7.913  0.3332  0.0896  0.3443
 3675TIP3    H232661   2.256   2.949   8.038  0.1861 -0.5214  0.7742
 3676TIP3   OH232662   0.729   5.227   7.255  0.0704 -0.1226 -0.1624
 3676TIP3    H132663   0.721   5.296   7.320  0.7315 -0.9583  0.8407
 3676TIP3    H232664   0.676   5.155   7.290  1.3612 -1.0025  0.0817
 3677TIP3   OH232665   0.667   5.454   7.433 -0.2559 -0.2650  0.2117
 3677TIP3    H132666   0.686   5.546   7.417 -2.4085  0.4968  1.6777
 3677TIP3    H232667   0.743   5.422   7.482  1.7229 -0.0530 -2.4868
 3678TIP3   OH232668   0.356   4.999   3.360  0.4187  0.7717  0.1204
 3678TIP3    H132669   0.359   5.095   3.357  0.6039  0.7925  0.8662
 3678TIP3    H232670   0.273   4.979   3.404 -0.4841  0.5464 -1.6100
 3679TIP3   OH232671   5.774   6.245   3.181 -0.1720 -0.0483  0.4713
 3679TIP3    H132672   5.737   6.320   3.226 -0.3683  0.9494 -1.2612
 3679TIP3    H232673   5.856   6.277   3.144 -0.8931 -0.2388 -1.4216
 3680TIP3   OH232674   5.287   1.649   1.001  0.3609  0.6650 -0.1782
 3680TIP3    H132675   5.268   1.579   0.939 -1.6758 -0.6829  1.8161
 3680TIP3    H232676   5.201   1.680   1.029  1.2132  1.9935  1.1157
 3681TIP3   OH232677   0.434   4.202   1.702  0.1693  0.4262  0.2877
 3681TIP3    H132678   0.420   4.271   1.768  1.9162  0.5226  0.5885
 3681TIP3    H232679   0.502   4.236   1.645 -2.2993  0.9666 -2.5481
 3682TIP3   OH232680   0.729   6.888   3.374  0.1758  0.2588  0.0211
 3682TIP3    H132681   0.698   6.904   3.463 -1.7867 -1.3383 -0.3005
 3682TIP3    H232682   0.732   6.793   3.366  1.6207  0.3610 -1.2363
 3683TIP3   OH232683   3.877   5.736   1.167 -0.1079  0.1081 -0.0471
 3683TIP3    H132684   3.930   5.730   1.087 -1.3001  0.1081 -0.8529
 3683TIP3    H232685   3.801   5.681   1.150 -1.3721  1.6972  0.2721
 3684TIP3   OH232686   6.118   2.746   1.575 -0.6175  0.1181  0.3384
 3684TIP3    H132687   6.152   2.667   1.617  0.2188  1.1177  1.6017
 3684TIP3    H232688   6.195   2.801   1.562 -1.6399  2.5196  3.4379
 3685TIP3   OH232689   3.444   3.019   7.805  0.0108  0.0490  0.3852
 3685TIP3    H132690   3.500   3.097   7.807 -0.9651  0.8333 -0.9482
 3685TIP3    H232691   3.466   2.971   7.885  1.9487  0.7546  0.3302
 3686TIP3   OH232692   3.997   5.370   1.239 -0.1751 -0.0972  0.0033
 3686TIP3    H132693   3.919   5.423   1.222 -0.3136 -0.4261 -0.4018
 3686TIP3    H232694   3.971   5.281   1.215  1.0272  0.1153 -2.3742
 3687TIP3   OH232695   2.724   1.576   1.846  0.1284 -0.2494 -0.0574
 3687TIP3    H132696   2.665   1.614   1.780  0.2696 -0.4165 -0.2835
 3687TIP3    H232697   2.802   1.551   1.796  0.7205  0.6869  0.3687
 3688TIP3   OH232698   3.271   3.627   7.638 -0.2315  0.0179  0.1920
 3688TIP3    H132699   3.202   3.564   7.620 -0.5393  0.3946  0.0561
 3688TIP3    H232700   3.349   3.573   7.651 -0.4206 -0.3723 -0.2626
 3689TIP3   OH232701   4.981   6.421   1.160  0.7717  0.4557 -0.1598
 3689TIP3    H132702   5.069   6.386   1.146  0.4672 -0.4814  0.2228
 3689TIP3    H232703   4.929   6.384   1.089  0.7040  1.1269 -0.4745
 3690TIP3   OH232704   6.799   0.104   8.546  0.6245 -0.2298  0.3202
 3690TIP3    H132705   6.814   0.030   8.605  0.0304  0.5762  1.5349
 3690TIP3    H232706   6.841   0.178   8.590 -0.0608  0.4435 -0.1406
 3691TIP3   OH232707   4.473   3.317   8.637  0.2394 -0.3924 -0.0652
 3691TIP3    H132708   4.398   3.374   8.654 -0.2468 -0.8356 -0.6692
 3691TIP3    H232709   4.549   3.375   8.645 -0.2059  0.2069 -0.0691
 3692TIP3   OH232710   0.961   0.473   8.406  0.2359  0.4400 -0.2334
 3692TIP3    H132711   0.886   0.419   8.430 -0.8683  1.6548 -0.8110
 3692TIP3    H232712   1.016   0.415   8.354  0.6592 -1.0230  1.7386
 3693TIP3   OH232713   4.406   5.391   7.554 -0.3701 -0.4411  0.4429
 3693TIP3    H132714   4.390   5.302   7.522  0.9462 -0.7641  0.6286
 3693TIP3    H232715   4.482   5.382   7.611  2.5203  1.4273 -2.7564
 3694TIP3   OH232716   1.171   2.873   0.056 -0.2596  0.5327 -0.0059
 3694TIP3    H132717   1.088   2.882   0.103 -0.4497  0.0641 -0.2338
 3694TIP3    H232718   1.237   2.865   0.125 -0.4501  0.5473  0.1804
 3695TIP3   OH232719   6.522   5.392   7.599 -0.3088  0.4774  0.1295
 3695TIP3    H132720   6.533   5.384   7.504  1.8491 -1.4150  0.4462
 3695TIP3    H232721   6.443   5.444   7.610 -0.5521  0.8458 -2.7007
 3696TIP3   OH232722   5.500   2.141   1.657 -0.1537  0.3614 -0.1041
 3696TIP3    H132723   5.558   2.211   1.626  1.2664 -0.3648  0.8640
 3696TIP3    H232724   5.555   2.063   1.660 -1.3592 -0.5052  0.2102
 3697TIP3   OH232725   2.776   3.254   0.559  0.9000 -0.1410 -0.1016
 3697TIP3    H132726   2.695   3.272   0.511  0.7167  0.4655  0.4284
 3697TIP3    H232727   2.794   3.161   0.541  0.3082 -0.1755 -0.5461
 3698TIP3   OH232728   1.904   6.581   3.189 -0.0910 -0.1645 -0.0779
 3698TIP3    H132729   1.887   6.674   3.182 -0.1808 -0.2561 -1.1067
 3698TIP3    H232730   1.908   6.549   3.099 -2.5270 -1.5911  0.2160
 3699TIP3   OH232731   4.500   5.062   7.746 -0.2568 -0.0513  0.1113
 3699TIP3    H132732   4.526   5.151   7.722  0.8182 -0.2032  0.6515
 3699TIP3    H232733   4.562   5.037   7.814 -0.5295 -1.2349 -0.0607
 3700TIP3   OH232734   4.815   3.913   0.328  0.2152  0.3403  0.4359
 3700TIP3    H132735   4.774   3.997   0.344 -0.1857  0.1121  0.6295
 3700TIP3    H232736   4.758   3.850   0.372  0.3528 -0.0616  0.0449
 3701TIP3   OH232737   4.533   6.041   2.608 -1.0200  0.0221 -0.0181
 3701TIP3    H132738   4.590   6.112   2.636 -2.3125  0.8747  0.5486
 3701TIP3    H232739   4.586   5.989   2.548  0.7093  0.1129  1.3754
 3702TIP3   OH232740   6.609   5.084   7.139  0.4939  0.5184 -0.6537
 3702TIP3    H132741   6.700   5.112   7.126  0.5486  0.1816 -1.0359
 3702TIP3    H232742   6.616   4.999   7.183  0.3341  1.0206  0.3420
 3703TIP3   OH232743   3.464   6.716   0.715 -0.5906  0.2660  0.1031
 3703TIP3    H132744   3.395   6.713   0.781  0.9214  1.7122  1.8582
 3703TIP3    H232745   3.536   6.667   0.754  0.2718  0.9842 -0.5559
 3704TIP3   OH232746   2.359   3.703   1.409  0.1226  0.3997 -0.3645
 3704TIP3    H132747   2.347   3.616   1.448  2.4578  0.3552  0.4510
 3704TIP3    H232748   2.436   3.738   1.454 -0.0008  2.3784 -1.5929
 3705TIP3   OH232749   3.800   0.703   7.788 -0.5944  0.2247 -0.4265
 3705TIP3    H132750   3.757   0.748   7.860 -0.4730  2.1345 -1.4848
 3705TIP3    H232751   3.838   0.773   7.735  4.2500 -1.2582  0.6074
 3706TIP3   OH232752   1.044   4.706   2.760 -0.2570  0.2244 -0.3503
 3706TIP3    H132753   0.969   4.647   2.753 -1.0446  1.1544  0.1115
 3706TIP3    H232754   1.107   4.657   2.813 -0.9738 -0.1401  0.1865
 3707TIP3   OH232755   2.841   2.166   0.696 -0.4820  0.0092  0.0782
 3707TIP3    H132756   2.833   2.150   0.602  0.6137  1.0424 -0.2269
 3707TIP3    H232757   2.935   2.159   0.714 -0.5674  0.7288  0.9021
 3708TIP3   OH232758   6.273   0.904   1.308  0.3236 -0.1173  0.3581
 3708TIP3    H132759   6.185   0.937   1.323  0.8897  1.1009  1.2731
 3708TIP3    H232760   6.262   0.826   1.254 -1.4032 -0.7540  1.5626
 3709TIP3   OH232761   3.765   6.848   0.823 -0.3664  0.6472 -0.1289
 3709TIP3    H132762   3.757   6.877   0.733 -0.4334  0.6942 -0.1082
 3709TIP3    H232763   3.756   6.753   0.819  1.4534  0.4383 -0.3960
 3710TIP3   OH232764   3.686   2.024   2.161 -0.4081  0.1707  0.2945
 3710TIP3    H132765   3.712   2.071   2.240 -0.1567 -0.6938  0.7489
 3710TIP3    H232766   3.597   2.054   2.143 -0.4787  0.3572  0.9332
 3711TIP3   OH232767   1.600   5.462   0.645 -0.5283 -0.4744  0.1209
 3711TIP3    H132768   1.641   5.377   0.630 -0.6420 -0.4811 -0.1633
 3711TIP3    H232769   1.634   5.518   0.576 -1.3092 -0.5912 -0.3680
 3712TIP3   OH232770   6.010   3.557   0.554 -0.1747 -0.0721  0.4809
 3712TIP3    H132771   6.087   3.613   0.565  0.1359 -0.1797 -0.9214
 3712TIP3    H232772   5.941   3.600   0.604  0.6249  0.3750  1.2287
 3713TIP3   OH232773   5.207   5.803   0.172 -0.0879 -0.2834 -0.0210
 3713TIP3    H132774   5.171   5.774   0.088  0.2267 -0.8869  0.0415
 3713TIP3    H232775   5.253   5.726   0.205 -0.7796 -0.2585  1.0213
 3714TIP3   OH232776   0.450   3.423   8.506 -0.1268 -0.1870 -0.0033
 3714TIP3    H132777   0.392   3.401   8.433  1.0109 -0.0830 -0.9640
 3714TIP3    H232778   0.456   3.518   8.506 -1.9140  0.0072  1.6971
 3715TIP3   OH232779   4.737   0.954   1.031  0.3272  0.2127  0.0257
 3715TIP3    H132780   4.667   0.899   1.067 -2.0442  2.6164 -0.6048
 3715TIP3    H232781   4.731   1.036   1.079  0.6888  1.5543 -2.0834
 3716TIP3   OH232782   5.548   5.753   0.618  0.3683  0.6222  0.3442
 3716TIP3    H132783   5.606   5.694   0.666 -1.1749 -0.2843  1.1538
 3716TIP3    H232784   5.545   5.718   0.530  1.2128  0.8211  0.2238
 3717TIP3   OH232785   6.373   3.395   7.648 -0.1182  0.3393 -0.5955
 3717TIP3    H132786   6.284   3.424   7.667  0.8032  1.8942  1.9024
 3717TIP3    H232787   6.429   3.457   7.696  2.3125 -0.6592 -1.9485
 3718TIP3   OH232788   5.058   1.766   2.484 -0.2170  0.1556 -0.2351
 3718TIP3    H132789   5.091   1.791   2.398 -0.3784  0.9825 -0.0639
 3718TIP3    H232790   5.111   1.817   2.545 -0.4527 -0.0426  0.1354
 3719TIP3   OH232791   4.551   1.731   0.519 -0.2061  0.1258 -0.3585
 3719TIP3    H132792   4.601   1.740   0.600  0.0517 -1.0736 -0.3587
 3719TIP3    H232793   4.469   1.778   0.535 -0.4905 -0.7374  0.8922
 3720TIP3   OH232794   3.133   2.590   3.430 -0.0740 -0.2715 -0.0930
 3720TIP3    H132795   3.054   2.633   3.464  0.2313  0.3796 -0.1924
 3720TIP3    H232796   3.101   2.511   3.387 -0.7012  0.1386 -0.3877
 3721TIP3   OH232797   0.374   5.712   7.640 -0.3446  0.0995  0.1552
 3721TIP3    H132798   0.451   5.764   7.616 -1.7719  1.6814 -1.2576
 3721TIP3    H232799   0.403   5.621   7.632  1.8883  0.6125  1.5488
 3722TIP3   OH232800   1.574   2.318   7.858  0.1242  0.3032 -0.0724
 3722TIP3    H132801   1.650   2.370   7.883  1.2089 -1.3038  0.1401
 3722TIP3    H232802   1.574   2.320   7.762  0.5183  0.2167 -0.0763
 3723TIP3   OH232803   3.882   1.873   7.068 -0.5548  0.3991 -0.1413
 3723TIP3    H132804   3.871   1.862   6.973  0.2338 -2.0514 -0.0196
 3723TIP3    H232805   3.820   1.812   7.106  1.0475 -0.6701  0.8414
 3724TIP3   OH232806   5.549   4.248   2.359 -0.3156  0.3534 -0.0416
 3724TIP3    H132807   5.586   4.244   2.447 -0.8108 -0.4067  0.1380
 3724TIP3    H232808   5.594   4.178   2.311  1.2658  1.8908 -0.9240
 3725TIP3   OH232809   4.742   3.228   7.970 -0.3884 -0.0103 -0.2411
 3725TIP3    H132810   4.786   3.309   7.944  0.8723 -0.4091  0.5238
 3725TIP3    H232811   4.674   3.257   8.031 -0.6871  0.5620 -0.8335
 3726TIP3   OH232812   5.482   2.065   8.268 -0.4076 -0.4865  0.0407
 3726TIP3    H132813   5.553   2.127   8.285 -1.1308  0.1026  1.0176
 3726TIP3    H232814   5.502   2.028   8.182  0.0224  1.1476 -0.5978
 3727TIP3   OH232815   1.325   4.200   7.729 -0.2295  0.0635  0.6601
 3727TIP3    H132816   1.289   4.232   7.646  0.9547 -1.3387 -0.4598
 3727TIP3    H232817   1.255   4.147   7.767 -1.1554  1.5485  1.1221
 3728TIP3   OH232818   3.454   2.436   2.541  0.0464  0.3331 -0.4465
 3728TIP3    H132819   3.378   2.444   2.597  0.2240  1.9419 -0.3743
 3728TIP3    H232820   3.432   2.367   2.478 -0.2626 -1.2951  1.3745
 3729TIP3   OH232821   0.759   0.697   0.586  0.2023 -0.6350  0.6887
 3729TIP3    H132822   0.672   0.664   0.564  0.9365 -2.7484  0.7238
 3729TIP3    H232823   0.777   0.662   0.673  0.1280  1.8877  1.8052
 3730TIP3   OH232824   6.749   6.614   2.948 -0.0895  0.1845  0.3132
 3730TIP3    H132825   6.692   6.580   3.016 -0.6103  0.2541 -0.0869
 3730TIP3    H232826   6.749   6.709   2.961  1.5125  0.0635  1.5481
 3731TIP3   OH232827   0.163   6.274   0.281  0.2105  0.3382 -0.0866
 3731TIP3    H132828   0.249   6.313   0.264  0.8241  0.0666  2.0379
 3731TIP3    H232829   0.177   6.218   0.357 -0.9758 -2.9411 -2.0921
 3732TIP3   OH232830   2.214   6.012   1.824  0.5946  0.4074 -0.2003
 3732TIP3    H132831   2.128   5.992   1.861 -0.3863 -0.4384 -2.7664
 3732TIP3    H232832   2.195   6.051   1.739  2.7509 -0.3486 -1.0859
 3733TIP3   OH232833   5.380   2.088   1.012 -0.0750 -0.4232 -1.0394
 3733TIP3    H132834   5.368   2.001   1.052 -2.4160  0.2743 -0.0504
 3733TIP3    H232835   5.468   2.115   1.040 -0.1622 -1.5654  0.4787
 3734TIP3   OH232836   2.242   2.329   1.709 -0.2383 -0.1260 -0.7449
 3734TIP3    H132837   2.177   2.322   1.779  0.0646  1.2927 -0.3050
 3734TIP3    H232838   2.323   2.295   1.748 -0.3077 -0.2952 -0.7455
 3735TIP3   OH232839   0.349   6.856   7.481 -0.0017  0.1829 -0.0370
 3735TIP3    H132840   0.374   6.939   7.440  0.6860  0.4129  0.8084
 3735TIP3    H232841   0.418   6.795   7.453  0.2878  0.2608  0.4870
 3736TIP3   OH232842   0.864   6.322   0.064  0.6955 -0.5529  0.0257
 3736TIP3    H132843   0.881   6.312   0.157  0.3272 -0.4031  0.1113
 3736TIP3    H232844   0.776   6.360   0.059  0.1805 -1.7265 -0.4008
 3737TIP3   OH232845   0.032   0.255   0.099 -0.6858 -0.1707 -0.0237
 3737TIP3    H132846  -0.006   0.342   0.108 -0.3229  0.0827 -0.8353
 3737TIP3    H232847   0.121   0.264   0.131 -1.0677 -0.5969  1.2201
 3738TIP3   OH232848   2.905   1.605   0.056  0.0858 -0.3618  0.2331
 3738TIP3    H132849   2.821   1.652   0.056 -0.5952 -1.4559  2.6212
 3738TIP3    H232850   2.956   1.648   0.125  0.8173 -0.8837  0.0267
 3739TIP3   OH232851   6.590   4.382   1.546 -0.6808 -0.0647 -0.4928
 3739TIP3    H132852   6.663   4.406   1.604  2.5654 -3.4764 -2.6670
 3739TIP3    H232853   6.602   4.436   1.468 -0.1551 -0.8896 -1.0039
 3740TIP3   OH232854   2.106   0.521   1.903 -0.1428 -0.4751 -0.1133
 3740TIP3    H132855   2.176   0.458   1.886  0.3417  0.1573 -0.4995
 3740TIP3    H232856   2.035   0.468   1.940 -0.4187 -1.5636 -2.0192
 3741TIP3   OH232857   2.506   2.640   7.859 -0.2344 -0.1016 -0.2857
 3741TIP3    H132858   2.493   2.734   7.856 -0.0561 -0.0940 -1.3765
 3741TIP3    H232859   2.597   2.629   7.888 -0.3607  0.0492  0.1692
 3742TIP3   OH232860   6.686   4.815   0.722  0.7681  0.3454 -0.0946
 3742TIP3    H132861   6.639   4.767   0.654  1.6731 -0.4077 -0.2093
 3742TIP3    H232862   6.779   4.803   0.701  1.0322  1.3593  0.4218
 3743TIP3   OH232863   3.436   2.031   1.303  0.0365 -0.7393  0.4273
 3743TIP3    H132864   3.357   2.000   1.346 -1.3801  2.3825  0.3890
 3743TIP3    H232865   3.416   2.029   1.210  0.2022 -0.4500  0.3826
 3744TIP3   OH232866   0.754   4.649   8.488 -0.2174  0.3479  0.1507
 3744TIP3    H132867   0.771   4.639   8.394 -1.0318  0.3268 -0.0038
 3744TIP3    H232868   0.805   4.579   8.529 -3.1126 -2.4689 -0.6411
 3745TIP3   OH232869   1.263   6.872   2.045  0.0833  0.2292  0.1069
 3745TIP3    H132870   1.274   6.929   1.969  0.6782 -0.1176 -0.0759
 3745TIP3    H232871   1.187   6.817   2.023  1.2075 -0.9633 -0.9551
 3746TIP3   OH232872   0.747   0.867   2.650  0.5933 -0.5066  0.3673
 3746TIP3    H132873   0.677   0.805   2.628 -0.2394  0.9820 -1.5310
 3746TIP3    H232874   0.808   0.817   2.703 -1.5810 -2.0562  1.5649
 3747TIP3   OH232875   0.156   0.325   1.919  0.1867 -0.0385  0.1461
 3747TIP3    H132876   0.141   0.419   1.906 -1.5828 -0.3710 -0.5350
 3747TIP3    H232877   0.112   0.306   2.002  0.6262 -0.2616  0.3299
 3748TIP3   OH232878   3.058   5.688   0.484  0.1030  0.0922 -0.0846
 3748TIP3    H132879   3.133   5.734   0.447  1.1529 -1.3048  0.2489
 3748TIP3    H232880   2.996   5.758   0.507  1.3255  1.2718 -0.2627
 3749TIP3   OH232881   3.043   5.806   7.874 -0.1614 -0.4726 -0.4717
 3749TIP3    H132882   3.012   5.793   7.784 -0.5197 -3.4261 -0.0247
 3749TIP3    H232883   3.138   5.812   7.865 -0.1466 -1.3621 -1.0057
 3750TIP3   OH232884   2.247   4.681   1.129  0.0269  0.4799 -0.0341
 3750TIP3    H132885   2.188   4.699   1.201 -0.0809 -0.1304  0.0293
 3750TIP3    H232886   2.207   4.725   1.054 -0.7323 -0.2829 -0.0871
 3751TIP3   OH232887   0.878   1.588   2.436  0.0071 -0.4000  0.1798
 3751TIP3    H132888   0.862   1.596   2.342  2.3425 -3.3844 -0.6552
 3751TIP3    H232889   0.929   1.666   2.458 -0.0501  0.0552 -1.1885
 3752TIP3   OH232890   3.233   4.824   2.129  0.1877 -0.2975 -0.0454
 3752TIP3    H132891   3.237   4.815   2.224  1.0275 -3.0052 -0.2437
 3752TIP3    H232892   3.149   4.784   2.105 -0.0319  0.4017 -0.4481
 3753TIP3   OH232893   2.199   0.238   3.010  0.4359  0.0012  0.2292
 3753TIP3    H132894   2.275   0.252   3.068  1.2195  1.9599 -1.1742
 3753TIP3    H232895   2.123   0.245   3.068  1.2205  1.2743  1.1426
 3754TIP3   OH232896   5.898   3.701   0.352  0.0847  0.1012 -0.3426
 3754TIP3    H132897   5.943   3.634   0.403  0.7341 -1.4294 -2.7904
 3754TIP3    H232898   5.961   3.727   0.285 -1.1486  1.1374 -1.1512
 3755TIP3   OH232899   5.006   6.397   0.360  0.0874  0.1458 -0.1206
 3755TIP3    H132900   4.985   6.356   0.277 -0.2129  0.1748 -0.0615
 3755TIP3    H232901   5.014   6.324   0.422  1.6754  0.0095 -0.4469
 3756TIP3   OH232902   2.722   3.297   2.187  0.5788  0.9049  0.1744
 3756TIP3    H132903   2.766   3.237   2.126 -0.6623 -0.1725  0.3037
 3756TIP3    H232904   2.779   3.298   2.264  2.4333  2.6791 -1.1226
 3757TIP3   OH232905   1.633   3.784   3.099 -0.0524  0.0379 -0.1829
 3757TIP3    H132906   1.567   3.840   3.138  0.3071 -0.7905  1.7125
 3757TIP3    H232907   1.712   3.800   3.151  0.6396 -0.6134 -1.0088
 3758TIP3   OH232908   4.761   1.162   0.672  0.3777  0.2078 -0.0137
 3758TIP3    H132909   4.799   1.111   0.743  1.2227  1.5911  0.5644
 3758TIP3    H232910   4.801   1.127   0.592  0.9561 -0.0005  0.3688
 3759TIP3   OH232911   5.127   0.591   3.259 -0.0083 -0.0941 -0.0707
 3759TIP3    H132912   5.033   0.601   3.272 -0.8318 -4.0869 -1.6295
 3759TIP3    H232913   5.163   0.575   3.346 -0.8220  0.9189  0.4663
 3760TIP3   OH232914   3.001   4.093   2.782 -0.7332  0.5471 -0.3035
 3760TIP3    H132915   3.026   4.012   2.827  0.0091  0.6823 -0.4608
 3760TIP3    H232916   2.908   4.104   2.803 -1.0448 -0.7434 -0.8784
 3761TIP3   OH232917   4.646   3.489   1.785  0.3057  0.6240 -0.3435
 3761TIP3    H132918   4.700   3.524   1.856  0.5823 -0.2123 -0.1347
 3761TIP3    H232919   4.708   3.477   1.712  0.6082 -1.1802  0.1779
 3762TIP3   OH232920   0.496   0.065   2.177 -0.3303  0.2146  0.2234
 3762TIP3    H132921   0.564   0.058   2.244 -0.1884  0.2716  0.0857
 3762TIP3    H232922   0.435   0.129   2.212 -0.2587  0.2412  0.3005
 3763TIP3   OH232923   4.810   5.856   0.458 -0.1490  0.2212 -0.3457
 3763TIP3    H132924   4.874   5.785   0.459 -1.1801 -0.7272 -0.1644
 3763TIP3    H232925   4.805   5.885   0.549  0.7151  0.9703 -0.5131
 3764TIP3   OH232926   1.371   2.880   1.202 -0.2792 -0.3468 -0.7236
 3764TIP3    H132927   1.381   2.835   1.286  2.7552 -0.9749 -1.3367
 3764TIP3    H232928   1.277   2.901   1.198 -0.5596 -0.3361  2.7613
 3765TIP3   OH232929   3.034   4.454   8.470 -0.7372  0.0241  0.2290
 3765TIP3    H132930   2.995   4.472   8.555 -0.5813  0.6477  0.1765
 3765TIP3    H232931   3.128   4.468   8.483 -0.9395  2.9220 -0.6867
 3766TIP3   OH232932   2.261   1.303   2.510 -0.0538 -0.2449  0.6567
 3766TIP3    H132933   2.219   1.337   2.430 -0.5977 -1.4571  0.4128
 3766TIP3    H232934   2.189   1.287   2.570 -0.0445 -2.6217  0.1365
 3767TIP3   OH232935   4.258   0.770   1.038 -0.4402 -0.5376 -0.0796
 3767TIP3    H132936   4.220   0.682   1.046  1.0179 -1.3990 -1.8568
 3767TIP3    H232937   4.196   0.827   1.083 -2.3164 -2.2358 -0.3818
 3768TIP3   OH232938   6.629   3.842   2.083 -0.3289 -0.1204  0.1782
 3768TIP3    H132939   6.554   3.866   2.028 -0.3030 -1.8342 -0.6777
 3768TIP3    H232940   6.703   3.844   2.023  0.1103  0.3197  0.7300
 3769TIP3   OH232941   1.955   3.983   1.857 -0.1365  0.4560 -0.0261
 3769TIP3    H132942   1.966   3.909   1.797 -0.4374 -0.2679  0.7815
 3769TIP3    H232943   1.906   3.946   1.931  1.3830  0.9735  1.2843
 3770TIP3   OH232944   2.329   3.141   1.372  0.3888  0.2307 -0.1532
 3770TIP3    H132945   2.285   3.118   1.290  0.1409 -0.5725  0.1986
 3770TIP3    H232946   2.404   3.082   1.377  0.6351  0.5513  0.0065
 3771TIP3   OH232947   3.971   0.395   0.701 -0.3379  0.4870 -0.5304
 3771TIP3    H132948   4.023   0.368   0.626  0.7241  0.2793  0.2576
 3771TIP3    H232949   4.023   0.368   0.777 -1.9209 -0.3600  0.2933
 3772TIP3   OH232950   3.082   4.729   2.590 -0.0910 -0.6561  0.0903
 3772TIP3    H132951   3.060   4.808   2.639  1.3724  0.1494 -0.4872
 3772TIP3    H232952   3.050   4.657   2.644 -0.4353  0.2959  1.1794
 3773TIP3   OH232953   5.955   4.515   2.372  0.2123  0.1350  0.0955
 3773TIP3    H132954   5.868   4.549   2.394  0.0840  0.0141 -0.2194
 3773TIP3    H232955   6.011   4.593   2.368  0.2567  0.1489  0.9316
 3774TIP3   OH232956   4.036   4.339   8.172 -0.3312  0.3307  0.1261
 3774TIP3    H132957   3.953   4.321   8.216 -0.3914  1.2121  0.4065
 3774TIP3    H232958   4.046   4.268   8.110 -1.3842  0.2967 -0.0333
 3775TIP3   OH232959   6.732   2.799   7.869 -0.2468  0.0545  0.3059
 3775TIP3    H132960   6.750   2.711   7.836 -0.2411 -0.0519  0.5949
 3775TIP3    H232961   6.697   2.846   7.793  0.4092  0.0084 -0.0283
 3776TIP3   OH232962   5.271   6.340   8.407  0.0183 -0.0172 -0.3087
 3776TIP3    H132963   5.187   6.329   8.363 -0.9213  0.4572  1.2927
 3776TIP3    H232964   5.277   6.264   8.465 -0.4655  1.1851  1.3623
 3777TIP3   OH232965   6.448   1.216   1.035  0.5596  0.1839  0.6688
 3777TIP3    H132966   6.495   1.295   1.009 -2.2424  1.5993 -0.5011
 3777TIP3    H232967   6.361   1.226   0.996 -0.7024 -2.3144  2.5685
 3778TIP3   OH232968   3.723   6.470   1.567 -0.2300  0.2408  0.3283
 3778TIP3    H132969   3.641   6.429   1.539 -0.1510  1.4668 -1.8994
 3778TIP3    H232970   3.698   6.558   1.595  0.1754  0.1616  0.9757
 3779TIP3   OH232971   3.347   1.712   7.363 -0.3186  0.2566 -0.0972
 3779TIP3    H132972   3.278   1.733   7.301 -0.1741 -0.2277 -0.4270
 3779TIP3    H232973   3.417   1.675   7.310  0.5203  1.4733  0.1306
 3780TIP3   OH232974   6.403   1.185   1.733  0.5105 -0.1508  0.0876
 3780TIP3    H132975   6.496   1.169   1.752  0.5814 -1.4280 -1.1619
 3780TIP3    H232976   6.377   1.111   1.679 -0.6959  1.2316 -1.3259
 3781TIP3   OH232977   1.889   1.192   7.843 -0.2213 -0.4404 -0.4719
 3781TIP3    H132978   1.941   1.121   7.882 -0.1933 -1.6191 -2.5229
 3781TIP3    H232979   1.819   1.206   7.906  1.1816 -0.4952  1.2021
 3782TIP3   OH232980   6.627   2.459   8.121 -0.2138  0.1068 -0.0778
 3782TIP3    H132981   6.546   2.438   8.167  1.1925 -0.4528  2.3284
 3782TIP3    H232982   6.628   2.401   8.045 -0.8974 -1.7752  1.2694
 3783TIP3   OH232983   1.275   4.930   2.946  0.5542  0.0870 -0.1383
 3783TIP3    H132984   1.335   4.899   3.015  0.5617  0.6363  0.1026
 3783TIP3    H232985   1.211   4.983   2.993 -0.6983 -1.2760 -0.2478
 3784TIP3   OH232986   2.452   1.226   8.198 -0.4152  0.6926  0.4463
 3784TIP3    H132987   2.503   1.145   8.195 -0.7603  0.4966 -0.7637
 3784TIP3    H232988   2.486   1.273   8.274  0.0866 -0.3893  0.9114
 3785TIP3   OH232989   6.095   2.984   2.927 -0.0307  0.1737 -0.3197
 3785TIP3    H132990   6.153   3.057   2.948  0.1581 -0.0361 -0.0966
 3785TIP3    H232991   6.111   2.920   2.997  0.0608 -0.2224 -0.6940
 3786TIP3   OH232992   0.660   0.163   2.936  0.0348 -0.3470  0.7139
 3786TIP3    H132993   0.606   0.235   2.903  0.9598 -0.1412 -0.3830
 3786TIP3    H232994   0.661   0.099   2.865  0.6432 -0.6769  1.0147
 3787TIP3   OH232995   4.764   5.283   2.156  0.0756 -0.1532  0.1380
 3787TIP3    H132996   4.778   5.229   2.078 -0.0218 -1.9137  1.3002
 3787TIP3    H232997   4.690   5.339   2.132  0.8464  0.2456 -1.4706
 3788TIP3   OH232998   1.953   5.989   2.737 -0.1498  0.2498  0.0863
 3788TIP3    H132999   1.914   5.913   2.779 -3.0171  1.9792  0.8005
 3788TIP3    H233000   1.971   6.050   2.808  1.6057  0.5150 -0.5294
 3789TIP3   OH233001   0.808   2.255   2.500 -0.2361  0.0717 -0.2988
 3789TIP3    H133002   0.849   2.328   2.454  0.7482 -1.3744 -1.8320
 3789TIP3    H233003   0.746   2.219   2.436 -2.0636  0.6203  1.0776
 3790TIP3   OH233004   5.163   0.984   0.276 -0.4608  0.5335  0.3643
 3790TIP3    H133005   5.239   1.010   0.223  0.8740 -0.7008  1.5757
 3790TIP3    H233006   5.148   0.893   0.252 -2.1516  0.9922 -0.4762
 3791TIP3   OH233007   6.904   5.342   8.309  0.8299 -0.0848  0.2356
 3791TIP3    H133008   6.827   5.351   8.364 -0.6452  0.5036 -1.7932
 3791TIP3    H233009   6.950   5.426   8.317 -0.6938  0.9566 -1.2033
 3792TIP3   OH233010   4.354   5.433   3.169 -0.0227  0.6711  0.4250
 3792TIP3    H133011   4.333   5.343   3.193 -0.4817  0.5450 -0.4160
 3792TIP3    H233012   4.450   5.438   3.177  0.1299 -0.2209 -0.6115
 3793TIP3   OH233013   5.373   6.374   3.078 -0.0485  0.2873  0.2706
 3793TIP3    H133014   5.300   6.319   3.050 -0.0456  0.8457 -0.8910
 3793TIP3    H233015   5.346   6.408   3.164 -2.2901  2.3935 -1.1107
 3794TIP3   OH233016   0.438   5.671   7.295 -0.0956  0.3063  0.5025
 3794TIP3    H133017   0.409   5.583   7.272  2.5312 -0.4606 -0.2309
 3794TIP3    H233018   0.487   5.660   7.376  0.3910  1.0405  0.3239
 3795TIP3   OH233019   1.551   3.914   8.374  0.4045  0.5638  0.3309
 3795TIP3    H133020   1.580   3.919   8.283 -0.2585 -2.0452 -0.0878
 3795TIP3    H233021   1.456   3.915   8.370  0.3635 -0.0727  0.9519
 3796TIP3   OH233022   1.790   5.543   0.198 -0.1138 -0.6114 -0.0978
 3796TIP3    H133023   1.880   5.566   0.218  0.5603 -3.5293  0.6998
 3796TIP3    H233024   1.788   5.534   0.103  0.6859 -1.3358 -0.0584
 3797TIP3   OH233025   0.835   2.297   8.125  0.3249  0.3044 -0.2732
 3797TIP3    H133026   0.804   2.330   8.041 -0.1287  0.8217  0.0904
 3797TIP3    H233027   0.860   2.206   8.107  0.1387  0.3809 -0.9419
 3798TIP3   OH233028   4.512   1.278   8.145 -0.3997 -0.4176  0.1964
 3798TIP3    H133029   4.602   1.309   8.160  0.0060 -0.5263 -1.8090
 3798TIP3    H233030   4.497   1.292   8.052 -2.3634 -0.7301  0.4312
 3799TIP3   OH233031   3.292   0.196   1.737 -0.0833  0.6834  0.1629
 3799TIP3    H133032   3.251   0.173   1.820  0.1511  0.7215  0.2894
 3799TIP3    H233033   3.324   0.285   1.749  0.6725  0.3978  0.3118
 3800TIP3   OH233034   1.812   1.402   7.506  0.4004  0.5083 -0.8178
 3800TIP3    H133035   1.830   1.437   7.419  0.7882 -0.6653 -1.2216
 3800TIP3    H233036   1.885   1.344   7.524 -0.7377 -0.9138 -0.6176
 3801TIP3   OH233037   5.154   4.141   7.026 -0.2810  0.4674  0.0230
 3801TIP3    H133038   5.220   4.157   7.093 -1.5802 -1.2635  1.8479
 3801TIP3    H233039   5.180   4.057   6.987 -1.2400 -0.1096  0.5962
 3802TIP3   OH233040   2.155   1.628   7.148  0.0489  0.1120 -0.5791
 3802TIP3    H133041   2.075   1.604   7.102  0.1968 -0.3924 -0.5763
 3802TIP3    H233042   2.166   1.722   7.131 -0.4467  0.1446 -0.7209
 3803TIP3   OH233043   1.172   6.648   2.292  0.1688  0.2524 -0.2383
 3803TIP3    H133044   1.145   6.632   2.202  1.0684 -2.8857 -0.0893
 3803TIP3    H233045   1.267   6.640   2.291  0.1499 -0.5588  1.0463
 3804TIP3   OH233046   1.748   0.188   7.764 -0.4138 -0.0529  0.5278
 3804TIP3    H133047   1.815   0.205   7.698  1.0306  0.9089  2.1532
 3804TIP3    H233048   1.671   0.237   7.734  0.5841  1.3269  0.1529
 3805TIP3   OH233049   4.953   4.194   3.178 -0.4933  0.4605 -0.4736
 3805TIP3    H133050   4.869   4.185   3.224 -1.1163 -0.5195 -1.7472
 3805TIP3    H233051   4.985   4.280   3.204 -1.4277  0.4706  0.7777
 3806TIP3   OH233052   6.764   0.092   2.200  0.4425 -0.0134 -0.7520
 3806TIP3    H133053   6.780   0.184   2.180 -0.1000  0.1520 -0.4338
 3806TIP3    H233054   6.670   0.081   2.189  0.6154 -0.7458 -1.6600
 3807TIP3   OH233055   5.304   6.612   1.089  0.6165  0.1161  0.3172
 3807TIP3    H133056   5.319   6.569   1.004 -1.3033  0.3145 -0.1702
 3807TIP3    H233057   5.231   6.671   1.073  1.9446  2.2019  1.4681
 3808TIP3   OH233058   5.582   2.591   2.412  0.3335 -0.8128 -0.2900
 3808TIP3    H133059   5.534   2.671   2.434 -0.1321 -1.1084 -0.1943
 3808TIP3    H233060   5.663   2.597   2.462  0.9510  0.2567 -1.3658
 3809TIP3   OH233061   5.570   2.248   1.997 -0.3217 -0.2372 -0.4642
 3809TIP3    H133062   5.546   2.223   2.086  1.7373  1.4735  0.6812
 3809TIP3    H233063   5.636   2.183   1.972 -0.5820 -0.4622 -0.5687
 3810TIP3   OH233064   0.669   4.320   7.212  0.1395 -0.0845 -0.8310
 3810TIP3    H133065   0.694   4.240   7.257 -1.3574 -0.0155  0.2082
 3810TIP3    H233066   0.748   4.348   7.166  0.9174 -1.6949 -0.5412
 3811TIP3   OH233067   1.752   0.870   7.302  0.6075  0.0365 -0.1917
 3811TIP3    H133068   1.826   0.931   7.302 -0.2274  1.1027 -1.9090
 3811TIP3    H233069   1.688   0.909   7.244 -1.4292 -0.7783  1.3669
 3812TIP3   OH233070   5.072   6.043   2.556  0.3032 -0.4563  0.5879
 3812TIP3    H133071   5.079   5.948   2.557  1.8816 -0.3869  0.1382
 3812TIP3    H233072   5.140   6.071   2.494  0.5039  0.9972  1.4254
 3813TIP3   OH233073   3.807   2.923   3.058  0.0086 -0.0664  0.3334
 3813TIP3    H133074   3.833   2.896   3.146  0.5354 -1.8507 -0.3099
 3813TIP3    H233075   3.887   2.961   3.020  0.4554 -1.3548 -0.0911
 3814TIP3   OH233076   2.190   2.343   7.737 -0.1556 -0.4156 -0.0091
 3814TIP3    H133077   2.237   2.425   7.722 -0.7962 -0.1031 -0.3571
 3814TIP3    H233078   2.111   2.351   7.683 -0.0107 -1.4436 -0.3952
 3815TIP3   OH233079   5.853   4.501   3.599 -0.0996 -0.0633  0.5474
 3815TIP3    H133080   5.803   4.460   3.669 -1.9042  0.0711 -0.6036
 3815TIP3    H233081   5.915   4.434   3.571 -1.1049 -1.0231  0.5791
 3816TIP3   OH233082   5.002   6.226   7.784 -0.8708 -0.0942  0.1444
 3816TIP3    H133083   4.924   6.186   7.747 -1.3381  1.4483 -0.6466
 3816TIP3    H233084   5.048   6.263   7.709 -0.2141  0.3976  0.7736
 3817TIP3   OH233085   6.666   5.415   8.009 -0.3378 -0.5293 -0.3107
 3817TIP3    H133086   6.671   5.455   7.922 -2.4904 -2.1905 -1.2782
 3817TIP3    H233087   6.713   5.476   8.065 -0.4613  1.5611 -2.3100
 3818TIP3   OH233088   0.176   2.243   7.815  0.1971  0.3646  0.5902
 3818TIP3    H133089   0.224   2.161   7.815 -0.0184  0.2161  1.6152
 3818TIP3    H233090   0.084   2.216   7.816  0.0217  0.6395 -2.0609
 3819TIP3   OH233091   4.452   5.663   2.137 -0.2760 -0.0738 -0.5008
 3819TIP3    H133092   4.508   5.686   2.211 -0.0459 -0.5424 -0.5239
 3819TIP3    H233093   4.438   5.746   2.091 -0.0554  0.1430 -0.1819
 3820TIP3   OH233094   1.901   3.870   3.259 -0.1099  0.2926  0.3344
 3820TIP3    H133095   1.910   3.965   3.255  1.3957  0.1750  0.4410
 3820TIP3    H233096   1.867   3.853   3.347  1.1842  0.6420  0.9215
 3821TIP3   OH233097   3.298   6.053   8.627 -0.3936 -0.3204 -0.3588
 3821TIP3    H133098   3.269   6.065   8.536  0.3720  1.4819 -0.4125
 3821TIP3    H233099   3.257   6.125   8.674 -0.1703 -0.8010  0.5811
 3822TIP3   OH233100   0.822   2.825   3.035 -0.0133 -0.1127  0.2166
 3822TIP3    H133101   0.820   2.921   3.027  1.1667 -0.0760  0.2066
 3822TIP3    H233102   0.885   2.808   3.105  0.6305 -0.9183 -0.5376
 3823TIP3   OH233103   0.795   0.768   1.816 -0.0592 -0.6216 -0.9461
 3823TIP3    H133104   0.822   0.772   1.908  1.7256  1.2151 -1.4724
 3823TIP3    H233105   0.818   0.679   1.788  1.4847 -0.4805 -0.1997
 3824TIP3   OH233106   6.356   0.072   7.863 -0.3032  0.5617 -0.1199
 3824TIP3    H133107   6.381   0.127   7.789  0.6913 -0.2052 -0.3801
 3824TIP3    H233108   6.324  -0.009   7.823 -0.2535  0.3402  0.2781
 3825TIP3   OH233109   4.597   2.061   1.919  0.3203 -0.6859  0.1302
 3825TIP3    H133110   4.600   2.044   2.013  2.5013  0.4324  0.3347
 3825TIP3    H233111   4.689   2.072   1.894 -0.2978  0.5692 -1.8349
 3826TIP3   OH233112   4.570   3.556   1.464  0.5246 -0.2502  0.1718
 3826TIP3    H133113   4.577   3.650   1.446  0.3937 -0.4474 -0.9395
 3826TIP3    H233114   4.479   3.543   1.488  0.7080  0.0184  1.0523
 3827TIP3   OH233115   2.702   6.187   8.030 -0.8054 -0.5384 -0.0980
 3827TIP3    H133116   2.705   6.282   8.046 -1.5871 -0.1771 -1.9048
 3827TIP3    H233117   2.609   6.168   8.018 -0.7346 -1.7017  1.0226
 3828TIP3   OH233118   1.060   4.060   7.882  0.5959 -0.3404  0.0922
 3828TIP3    H133119   1.095   4.016   7.805 -1.6856 -2.1568 -0.0148
 3828TIP3    H233120   1.039   4.148   7.852  1.3341 -0.4817 -0.8876
 3829TIP3   OH233121   3.292   5.790   8.377 -0.0275  0.0889  0.1369
 3829TIP3    H133122   3.218   5.779   8.436  0.3145  0.6465  0.6774
 3829TIP3    H233123   3.257   5.770   8.290 -0.8234  0.3995  0.3820
 3830TIP3   OH233124   2.874   1.190   0.935 -0.1138 -0.1153  0.0622
 3830TIP3    H133125   2.780   1.177   0.948 -0.5888  1.8694 -1.0443
 3830TIP3    H233126   2.897   1.259   0.996  1.3139 -2.4716  2.3914
 3831TIP3   OH233127   0.762   4.394   1.789 -0.9978 -0.4794 -0.5616
 3831TIP3    H133128   0.797   4.460   1.848  4.8666 -2.2677 -1.4590
 3831TIP3    H233129   0.735   4.322   1.847 -2.3601  0.5266  0.1213
 3832TIP3   OH233130   2.127   1.157   0.089  0.0118  0.1775 -0.0069
 3832TIP3    H133131   2.083   1.123   0.011 -0.0879  1.6298 -0.6206
 3832TIP3    H233132   2.192   1.219   0.054  0.2679  0.5170  1.0419
 3833TIP3   OH233133   2.489   6.479   1.194 -0.0600  0.2028  0.3335
 3833TIP3    H133134   2.533   6.536   1.131  0.6544 -0.2356  0.4304
 3833TIP3    H233135   2.537   6.491   1.276  0.9536 -1.5211  0.0402
 3834TIP3   OH233136   4.039   4.155   0.605 -0.0963  0.2002 -0.0522
 3834TIP3    H133137   3.979   4.139   0.679 -0.9698 -1.0514 -0.9895
 3834TIP3    H233138   4.081   4.071   0.589  0.9853  0.7618 -0.2250
 3835TIP3   OH233139   2.966   3.265   2.335  0.0551 -0.2741  0.3071
 3835TIP3    H133140   3.004   3.178   2.322  0.1326 -0.1541 -0.3193
 3835TIP3    H233141   3.000   3.293   2.420  1.3193 -0.2092 -0.1881
 3836TIP3   OH233142   4.830   2.957   2.573 -0.0595  0.4288 -0.1360
 3836TIP3    H133143   4.736   2.962   2.591 -0.1892  0.1913 -0.7284
 3836TIP3    H233144   4.850   2.864   2.576  0.3245  0.5208  0.7590
 3837TIP3   OH233145   3.124   5.390   0.231  0.1035  0.0376  0.5027
 3837TIP3    H133146   3.045   5.407   0.281  1.7046  3.7560  2.0580
 3837TIP3    H233147   3.172   5.325   0.283 -1.2906 -1.3797  0.1145
 3838TIP3   OH233148   3.786   2.440   7.281  0.0013  0.0449 -0.0965
 3838TIP3    H133149   3.877   2.411   7.270  0.2819  0.3546  1.2798
 3838TIP3    H233150   3.790   2.535   7.284 -0.5735  0.1465 -1.5479
 3839TIP3   OH233151   4.930   3.785   1.624  0.1146  0.2706  0.4044
 3839TIP3    H133152   4.941   3.879   1.638 -0.6678  0.3301  0.6648
 3839TIP3    H233153   4.996   3.745   1.680  0.3915  0.6671  0.3649
 3840TIP3   OH233154   3.970   1.089   0.785  0.2967  0.1029 -0.0088
 3840TIP3    H133155   3.976   1.179   0.754 -2.4986 -0.8589 -4.1223
 3840TIP3    H233156   4.023   1.039   0.723 -1.1435 -1.4105 -0.0946
 3841TIP3   OH233157   4.734   1.378   2.241  0.6369 -0.1142  0.3042
 3841TIP3    H133158   4.814   1.330   2.219  0.4652 -0.2590  0.0004
 3841TIP3    H233159   4.687   1.386   2.159  0.4082  0.1054  0.4558
 3842TIP3   OH233160   4.735   0.700   7.663 -0.2396  0.5292  0.5198
 3842TIP3    H133161   4.691   0.734   7.585 -0.7043  1.4936  1.1879
 3842TIP3    H233162   4.722   0.605   7.659 -1.4224  0.6993  0.1269
 3843TIP3   OH233163   0.653   0.515   0.827 -0.1383  0.1672  1.1374
 3843TIP3    H133164   0.722   0.490   0.888 -0.6696 -1.7599  1.0027
 3843TIP3    H233165   0.573   0.482   0.866 -0.4685 -1.3235 -0.6527
 3844TIP3   OH233166   4.285   5.948   1.744 -0.3809 -0.0573  0.0512
 3844TIP3    H133167   4.317   5.892   1.674  0.0527 -1.4181  1.2707
 3844TIP3    H233168   4.193   5.963   1.724  0.1053  0.8910 -1.6018
 3845TIP3   OH233169   2.661   4.894   1.399  0.5045  0.2097 -0.1018
 3845TIP3    H133170   2.668   4.841   1.478  0.9661 -0.4099 -0.5517
 3845TIP3    H233171   2.623   4.836   1.333 -0.0503  0.7732 -0.3018
 3846TIP3   OH233172   2.585   4.225   7.153  0.0981 -0.0225 -0.0596
 3846TIP3    H133173   2.665   4.183   7.186  0.5845  0.9957  0.0947
 3846TIP3    H233174   2.617   4.296   7.096 -0.5847  2.2679  2.2416
 3847TIP3   OH233175   4.808   6.677   3.036 -0.3504  0.1049 -0.1029
 3847TIP3    H133176   4.761   6.609   3.083  3.2557 -3.0997 -0.5973
 3847TIP3    H233177   4.831   6.742   3.102 -1.0153 -0.9062  1.1503
 3848TIP3   OH233178   3.436   4.861   0.334  0.2259 -0.2941  0.4564
 3848TIP3    H133179   3.498   4.856   0.407  0.9213  0.8370 -0.0319
 3848TIP3    H233180   3.378   4.786   0.346  1.3004 -1.0074  1.2852
 3849TIP3   OH233181   0.949   0.519   0.331 -0.4534  0.1426 -0.3968
 3849TIP3    H133182   0.927   0.446   0.274  0.5600 -0.9687  0.5669
 3849TIP3    H233183   0.887   0.513   0.403  0.2238 -0.3984  0.1681
 3850TIP3   OH233184   3.593   3.945   7.935 -0.0393 -0.6335  0.6425
 3850TIP3    H133185   3.593   3.887   7.859 -1.9668  1.0977 -0.7974
 3850TIP3    H233186   3.564   4.030   7.901  1.4537  0.8855  2.8779
 3851TIP3   OH233187   5.233   3.973   2.276 -0.2684  0.5214  0.4487
 3851TIP3    H133188   5.265   3.919   2.348 -0.8494  0.1157  0.4157
 3851TIP3    H233189   5.168   4.030   2.317 -1.1085 -0.1851  0.1419
 3852TIP3   OH233190   3.962   6.386   2.522  0.2463  0.1958  0.3919
 3852TIP3    H133191   3.971   6.437   2.442 -0.6689 -0.5722 -0.2291
 3852TIP3    H233192   4.052   6.361   2.544  0.5692  0.9466 -0.0296
 3853TIP3   OH233193   1.020   2.916   0.270 -0.0357  0.1185  0.3449
 3853TIP3    H133194   0.949   2.975   0.294  0.2519  0.1708  1.1185
 3853TIP3    H233195   1.100   2.966   0.291  0.2321  0.0192 -0.3989
 3854TIP3   OH233196   5.140   2.174   0.441 -0.1535 -0.2595 -0.0042
 3854TIP3    H133197   5.109   2.115   0.372  1.5587 -0.3828 -0.7111
 3854TIP3    H233198   5.195   2.119   0.497  1.1980  0.5727 -0.4864
 3855TIP3   OH233199   3.123   5.153   2.215 -0.4689 -0.1363  0.0186
 3855TIP3    H133200   3.038   5.167   2.174  0.0400 -0.8625 -1.3443
 3855TIP3    H233201   3.105   5.093   2.287 -1.2501  0.4656  0.3362
 3856TIP3   OH233202   5.802   3.999   7.260 -0.2029  0.6180 -0.2659
 3856TIP3    H133203   5.776   4.070   7.319 -1.9376 -0.0144 -0.2305
 3856TIP3    H233204   5.735   3.932   7.272  1.8167 -1.4364  0.3284
 3857TIP3   OH233205   1.020   0.646   2.393  0.0728  0.3042  0.1491
 3857TIP3    H133206   1.012   0.736   2.424 -0.6419  0.1726  0.3663
 3857TIP3    H233207   1.066   0.600   2.463 -1.4234  0.0360  0.9975
 3858TIP3   OH233208   0.263   0.029   2.465  0.0081 -0.1309  0.3290
 3858TIP3    H133209   0.247   0.026   2.559 -0.5874  0.1316  0.2400
 3858TIP3    H233210   0.201   0.094   2.432 -1.0880 -1.5250 -0.4996
 3859TIP3   OH233211   4.202   1.659   0.537  0.6537 -0.4292  0.1505
 3859TIP3    H133212   4.264   1.596   0.499 -0.8924 -2.0690  0.2288
 3859TIP3    H233213   4.224   1.661   0.630 -0.2697 -2.1613  0.4647
 3860TIP3   OH233214   3.849   3.489   3.030 -0.9009 -0.0168  0.8489
 3860TIP3    H133215   3.766   3.487   2.982  0.1082 -2.3408 -1.0019
 3860TIP3    H233216   3.888   3.574   3.008 -1.7870  0.1521 -0.1163
 3861TIP3   OH233217   0.480   5.444   7.000 -0.1923 -0.0560 -0.4356
 3861TIP3    H133218   0.476   5.360   7.046 -0.1620  0.4500  0.5288
 3861TIP3    H233219   0.573   5.456   6.980  0.1549  0.7269  1.3790
 3862TIP3   OH233220   6.319   6.753   1.749 -0.1476  0.4442  0.0712
 3862TIP3    H133221   6.233   6.727   1.782 -0.6754  2.0699  0.1001
 3862TIP3    H233222   6.332   6.841   1.786  1.1217  0.5867 -0.6748
 3863TIP3   OH233223   5.217   0.253   2.733  0.1254  0.3305  0.6212
 3863TIP3    H133224   5.217   0.203   2.650  2.5343  0.3152  0.5684
 3863TIP3    H233225   5.180   0.338   2.709  1.0760  0.4448 -0.6050
 3864TIP3   OH233226   0.544   1.440   0.232  0.0413  0.1033 -0.2952
 3864TIP3    H133227   0.584   1.521   0.265  0.8263  0.2128 -1.4409
 3864TIP3    H233228   0.528   1.388   0.310  4.3138 -0.7736  0.2350
 3865TIP3   OH233229   6.269   0.782   3.348 -0.2361  0.5855 -0.1430
 3865TIP3    H133230   6.323   0.709   3.317 -2.9219 -1.2827 -0.7543
 3865TIP3    H233231   6.235   0.823   3.268 -3.5907 -1.4351  0.0822
 3866TIP3   OH233232   5.232   3.527   2.605  0.6344 -0.0032  0.4989
 3866TIP3    H133233   5.153   3.484   2.573  1.3923 -1.5284  0.6113
 3866TIP3    H233234   5.201   3.597   2.663 -0.6130 -0.6703  0.6436
 3867TIP3   OH233235   5.777   2.111   0.490 -0.1260  0.2108 -0.5153
 3867TIP3    H133236   5.809   2.064   0.413  0.9108  1.7735 -1.0848
 3867TIP3    H233237   5.834   2.082   0.561 -1.7078 -1.9994 -0.0313
 3868TIP3   OH233238   2.715   2.649   2.169  0.2380  0.4796  0.2286
 3868TIP3    H133239   2.666   2.683   2.245  0.4468 -0.0896  0.6250
 3868TIP3    H233240   2.788   2.710   2.159  0.4277  0.3436  0.7344
 3869TIP3   OH233241   0.191   0.170   7.708  0.0677 -0.2730 -0.2070
 3869TIP3    H133242   0.198   0.181   7.613  3.0194 -3.3114 -0.5153
 3869TIP3    H233243   0.114   0.114   7.720 -0.6775  0.6171 -0.6983
 3870TIP3   OH233244   2.999   5.494   2.402  0.2508 -0.3022  0.1636
 3870TIP3    H133245   3.047   5.475   2.482  1.3703  1.0381 -0.1441
 3870TIP3    H233246   2.911   5.518   2.431  0.4903 -0.3496  0.9360
 3871TIP3   OH233247   5.674   4.982   8.143 -0.4084  0.6413  0.0645
 3871TIP3    H133248   5.676   4.931   8.061 -0.4151  0.8063 -0.0396
 3871TIP3    H233249   5.655   5.072   8.114 -2.5876  0.3523  0.4096
 3872TIP3   OH233250   0.882   3.887   1.849 -0.6168  0.5512  0.1220
 3872TIP3    H133251   0.865   3.801   1.887  0.7328  0.3641  0.3540
 3872TIP3    H233252   0.942   3.870   1.777  0.3983  1.3786  0.7431
 3873TIP3   OH233253   4.456   2.077   0.689  0.3219  0.0607  0.5795
 3873TIP3    H133254   4.464   2.083   0.785 -0.6639  1.0041  0.6162
 3873TIP3    H233255   4.429   2.165   0.662  0.5121 -0.2254 -0.5687
 3874TIP3   OH233256   0.186   5.493   0.725 -0.3415 -0.9296 -0.7705
 3874TIP3    H133257   0.173   5.514   0.632 -0.4680  2.2941 -0.1308
 3874TIP3    H233258   0.220   5.573   0.764 -0.0294 -2.2578  1.9740
 3875TIP3   OH233259   3.961   2.221   8.261 -0.2137 -0.0489  0.1038
 3875TIP3    H133260   3.945   2.253   8.349  0.9252  0.5009  0.1288
 3875TIP3    H233261   4.007   2.138   8.274  0.0231  0.0696  0.0356
 3876TIP3   OH233262   3.321   4.449   2.468 -0.6313  0.2763 -0.2691
 3876TIP3    H133263   3.237   4.465   2.423 -1.3768  0.1906  1.0354
 3876TIP3    H233264   3.300   4.384   2.535  0.1828  1.2387  0.9562
 3877TIP3   OH233265   5.030   4.059   0.929 -0.0975 -0.1275  0.7782
 3877TIP3    H133266   5.056   4.147   0.903 -0.6345  0.1289  1.0829
 3877TIP3    H233267   5.001   4.018   0.848 -0.2205  0.1166  0.6955
 3878TIP3   OH233268   6.291   1.690   1.309  0.1534  0.3278 -0.1508
 3878TIP3    H133269   6.368   1.643   1.340 -0.5191 -1.9444 -1.6565
 3878TIP3    H233270   6.223   1.623   1.301 -0.6166  1.3118 -3.2337
 3879TIP3   OH233271   1.126   2.873   2.745 -0.0411 -0.8637 -0.4284
 3879TIP3    H133272   1.084   2.817   2.810  0.7598  0.7568  1.6010
 3879TIP3    H233273   1.180   2.814   2.693  0.0567 -2.0995  1.0291
 3880TIP3   OH233274   2.405   2.871   7.773  0.0829 -0.2937 -0.3294
 3880TIP3    H133275   2.327   2.873   7.718 -0.0214 -0.5903 -0.1938
 3880TIP3    H233276   2.453   2.951   7.750  0.3297 -0.7017 -1.2735
 3881TIP3   OH233277   5.679   4.018   7.854 -0.3720  0.0200 -0.1096
 3881TIP3    H133278   5.599   4.045   7.899  0.5303 -0.4044  1.8611
 3881TIP3    H233279   5.750   4.057   7.905  0.7316 -0.5886 -1.1127
 3882TIP3   OH233280   6.512   2.815   3.562 -0.0942 -0.2180 -0.3770
 3882TIP3    H133281   6.538   2.741   3.507 -1.5721 -0.6782 -0.5221
 3882TIP3    H233282   6.538   2.789   3.650 -3.0582 -2.3181  0.0653
 3883TIP3   OH233283   0.901   0.181   2.250 -0.6441  0.2091  0.6857
 3883TIP3    H133284   0.996   0.191   2.253 -0.6502  0.9487 -0.6610
 3883TIP3    H233285   0.868   0.243   2.315 -0.2058 -0.4848  1.5953
 3884TIP3   OH233286   0.656   6.680   1.271 -0.6105  0.0180  0.2813
 3884TIP3    H133287   0.576   6.670   1.322 -0.0890 -2.2706  0.7475
 3884TIP3    H233288   0.668   6.596   1.228  1.5734  0.2825  0.2512
 3885TIP3   OH233289   1.463   0.844   7.846 -0.6736  0.0104  0.4649
 3885TIP3    H133290   1.400   0.915   7.835 -0.2873  0.6467  2.0953
 3885TIP3    H233291   1.529   0.879   7.905  0.9807 -0.8078 -0.8070
 3886TIP3   OH233292   0.062   4.289   0.992 -0.4214 -0.3742 -0.1506
 3886TIP3    H133293  -0.028   4.258   0.996  0.1792 -2.3329 -0.7601
 3886TIP3    H233294   0.115   4.214   1.020  0.9851  1.0840  1.3581
 3887TIP3   OH233295   4.426   5.317   2.706 -0.0955  0.1782 -0.5017
 3887TIP3    H133296   4.440   5.311   2.612 -0.7078  0.5053 -0.6224
 3887TIP3    H233297   4.360   5.250   2.724 -0.6458  0.7180 -0.4618
 3888TIP3   OH233298   6.640   6.797   2.573  0.4557  0.1756  0.6983
 3888TIP3    H133299   6.643   6.706   2.603 -1.0541  0.4096  1.6662
 3888TIP3    H233300   6.663   6.793   2.480 -1.6868 -1.5028  0.1689
 3889TIP3   OH233301   4.392   1.950   1.779  0.0815 -0.5469  0.2940
 3889TIP3    H133302   4.468   1.988   1.822 -0.1179  1.3261 -0.8414
 3889TIP3    H233303   4.418   1.861   1.756  1.8533 -0.0371  0.1528
 3890TIP3   OH233304   0.261   6.267   1.323 -0.1702  0.0343  0.2279
 3890TIP3    H133305   0.333   6.226   1.372 -1.3159  0.5022  2.4202
 3890TIP3    H233306   0.292   6.356   1.305  0.2729 -0.1487  0.0753
 3891TIP3   OH233307   2.544   6.745   0.180 -0.1938 -0.6777 -0.7243
 3891TIP3    H133308   2.575   6.666   0.225  0.0255 -0.0942  0.1888
 3891TIP3    H233309   2.450   6.731   0.168 -0.1195 -1.1677 -0.7643
 3892TIP3   OH233310   0.533   5.197   7.975 -0.5594 -0.3526  0.1827
 3892TIP3    H133311   0.518   5.149   8.056 -0.4578 -1.5693 -0.4985
 3892TIP3    H233312   0.515   5.134   7.906  0.8596  0.1997 -0.7345
 3893TIP3   OH233313   5.647   6.696   3.390 -0.0176 -0.2086  0.2432
 3893TIP3    H133314   5.560   6.719   3.423  0.6600 -1.1285  2.8570
 3893TIP3    H233315   5.695   6.778   3.390  0.3346 -0.3273  2.9476
 3894TIP3   OH233316   3.171   6.514   1.508 -0.0151  0.5003  0.1348
 3894TIP3    H133317   3.206   6.600   1.485 -0.4645 -0.0542 -3.0443
 3894TIP3    H233318   3.111   6.531   1.580  0.1541  2.8099 -0.2016
 3895TIP3   OH233319   2.193   3.342   0.325 -0.0254  1.0585 -0.2878
 3895TIP3    H133320   2.265   3.405   0.316  1.2721 -0.4201 -0.6481
 3895TIP3    H233321   2.209   3.299   0.409 -0.3693  0.5482 -0.4812
 3896TIP3   OH233322   1.198   3.512   2.737  0.0091 -0.1200  0.2548
 3896TIP3    H133323   1.132   3.576   2.710 -0.1249 -0.6000 -0.5624
 3896TIP3    H233324   1.269   3.565   2.774 -0.5401  0.4358  0.5261
 3897TIP3   OH233325   2.466   2.778   0.282 -0.2081 -0.1821 -0.7646
 3897TIP3    H133326   2.377   2.746   0.268 -0.8484  0.9921  0.4044
 3897TIP3    H233327   2.472   2.857   0.229 -0.0334  0.0027 -0.4718
 3898TIP3   OH233328   3.448   5.191   1.797  0.3827  0.3262 -0.3373
 3898TIP3    H133329   3.373   5.243   1.827  0.2503  0.1526 -0.3685
 3898TIP3    H233330   3.415   5.101   1.791  0.7352  0.1571  0.1655
 3899TIP3   OH233331   4.632   1.466   1.241  0.2175 -0.2483  0.5314
 3899TIP3    H133332   4.564   1.505   1.186  0.3569 -1.9505 -0.9092
 3899TIP3    H233333   4.689   1.540   1.264  0.1113  0.5451 -1.5823
 3900TIP3   OH233334   2.544   4.110   7.985 -0.0235 -1.0467  0.1098
 3900TIP3    H133335   2.621   4.138   7.936  1.0797 -2.9631  0.6425
 3900TIP3    H233336   2.536   4.173   8.056 -1.4852  1.6335 -2.2011
 3901TIP3   OH233337   1.314   2.096   7.896  0.0101  0.3779 -0.5811
 3901TIP3    H133338   1.309   2.189   7.918  0.4566  0.5134 -1.0520
 3901TIP3    H233339   1.273   2.052   7.971 -1.5105  1.0241 -0.9905
 3902TIP3   OH233340   4.520   2.413   3.283  0.1740  0.4327  0.6346
 3902TIP3    H133341   4.496   2.495   3.327 -0.2610  0.5084  0.2703
 3902TIP3    H233342   4.448   2.398   3.221  0.6458  0.1871  0.1479
 3903TIP3   OH233343   1.629   3.268   0.749 -0.4609 -0.0722  0.1429
 3903TIP3    H133344   1.619   3.177   0.776  0.3462  0.3616  1.9954
 3903TIP3    H233345   1.584   3.272   0.664  1.1559 -2.6329 -0.9518
 3904TIP3   OH233346   1.537   5.423   0.159  0.5568  1.1854 -0.3858
 3904TIP3    H133347   1.606   5.366   0.125  0.0693 -0.3172  1.0283
 3904TIP3    H233348   1.572   5.511   0.150  2.1925  0.5285 -0.7495
 3905TIP3   OH233349   6.148   2.534   1.749  0.2771  0.1117 -0.1393
 3905TIP3    H133350   6.081   2.504   1.811 -1.4073 -1.1539 -2.4046
 3905TIP3    H233351   6.210   2.461   1.743 -0.6115 -0.5839 -1.2929
 3906TIP3   OH233352   1.882   6.458   0.893 -0.3891 -0.0601  0.2063
 3906TIP3    H133353   1.961   6.416   0.928 -0.4804 -0.6994 -0.3386
 3906TIP3    H233354   1.830   6.478   0.970 -0.3641 -1.0011  0.4788
 3907TIP3   OH233355   3.876   5.683   0.045 -0.0494  0.7546 -0.1519
 3907TIP3    H133356   3.966   5.654   0.058 -0.2634  0.0654 -0.1417
 3907TIP3    H233357   3.845   5.632  -0.030  0.6568  3.5119 -2.4889
 3908TIP3   OH233358   2.572   1.784   0.662 -0.0145 -0.1835  0.5142
 3908TIP3    H133359   2.492   1.747   0.625  0.3475 -0.1425 -0.3270
 3908TIP3    H233360   2.567   1.878   0.641 -0.6926  0.1993  2.2093
 3909TIP3   OH233361   6.394   5.473   0.658 -0.1120  0.4883 -0.0933
 3909TIP3    H133362   6.398   5.561   0.619 -3.1464  0.9449  0.4143
 3909TIP3    H233363   6.381   5.490   0.752 -1.5883 -0.4721 -0.1078
 3910TIP3   OH233364   3.064   5.234   2.759 -0.0782  0.3058 -0.3946
 3910TIP3    H133365   3.009   5.273   2.828 -2.1202 -2.3706 -0.3431
 3910TIP3    H233366   3.012   5.161   2.726  2.6993 -1.1842 -1.7746
 3911TIP3   OH233367   5.937   6.109   7.668 -0.0318  0.3028  0.6094
 3911TIP3    H133368   5.852   6.100   7.710  0.1604 -1.3307  0.7006
 3911TIP3    H233369   5.944   6.031   7.612  0.2868  1.7149 -1.4487
 3912TIP3   OH233370   4.961   6.833   8.283  0.4390 -0.1918 -0.0957
 3912TIP3    H133371   4.916   6.891   8.343 -0.3584 -2.0049  1.1399
 3912TIP3    H233372   4.911   6.839   8.201  1.9163  2.7827 -0.9118
 3913TIP3   OH233373   4.359   4.476   2.124  0.7286  0.3315 -0.1605
 3913TIP3    H133374   4.351   4.409   2.055 -0.0014 -0.5602  0.7669
 3913TIP3    H233375   4.448   4.509   2.114  2.4403 -3.2270  1.4751
 3914TIP3   OH233376   3.520   4.736   1.699  0.1842  0.0340 -0.5483
 3914TIP3    H133377   3.438   4.773   1.731  0.5089 -0.2995  0.7364
 3914TIP3    H233378   3.559   4.805   1.644 -0.0733  0.9064  0.3436
 3915TIP3   OH233379   6.043   5.484   7.865 -0.2552 -0.4507 -0.1636
 3915TIP3    H133380   6.109   5.423   7.832 -2.5772 -3.2410 -0.0622
 3915TIP3    H233381   6.011   5.443   7.946 -1.8633  0.9401 -0.0331
 3916TIP3   OH233382   0.022   4.402   7.607  0.0571 -0.3873 -0.2498
 3916TIP3    H133383  -0.015   4.442   7.686 -0.9985 -0.4146 -0.7250
 3916TIP3    H233384   0.062   4.475   7.560  2.3413 -0.6105  1.1471
 3917TIP3   OH233385   4.153   1.726   0.149  0.3054  0.5819  1.0202
 3917TIP3    H133386   4.207   1.779   0.090  0.6343 -0.9184 -0.0880
 3917TIP3    H233387   4.067   1.725   0.107  0.4138 -0.0923  0.8000
 3918TIP3   OH233388   0.319   3.313   8.276  0.4223  0.2137  0.3121
 3918TIP3    H133389   0.231   3.304   8.240  0.7399 -0.8325 -0.2412
 3918TIP3    H233390   0.325   3.244   8.342  1.0354 -0.1567 -0.1159
 3919TIP3   OH233391   5.426   4.072   7.973  0.4958 -0.0830  0.6933
 3919TIP3    H133392   5.381   4.148   7.938  0.1491 -0.1894  0.9051
 3919TIP3    H233393   5.470   4.104   8.052  1.9198  0.3442 -0.2271
 3920TIP3   OH233394   6.718   3.193   8.101 -0.6359 -0.4466 -0.1613
 3920TIP3    H133395   6.677   3.245   8.032  0.1508  1.0205  0.4370
 3920TIP3    H233396   6.714   3.248   8.179  0.6495 -1.0842  0.3915
 3921TIP3   OH233397   5.088   4.840   3.097  0.3806 -1.1121 -0.0901
 3921TIP3    H133398   5.077   4.924   3.141 -0.6484 -0.9097 -0.7173
 3921TIP3    H233399   5.050   4.776   3.157  0.8189 -1.0895  0.2159
 3922TIP3   OH233400   2.600   5.470   1.175 -0.6533 -0.4810 -0.0892
 3922TIP3    H133401   2.595   5.554   1.129 -0.6809 -1.4332 -1.8975
 3922TIP3    H233402   2.684   5.473   1.222  0.5066 -0.3700 -2.0862
 3923TIP3   OH233403   1.827   4.881   2.138 -0.1818 -0.3523  0.3478
 3923TIP3    H133404   1.836   4.849   2.227  0.0033  1.2169  0.9185
 3923TIP3    H233405   1.886   4.827   2.086 -0.3343 -1.3123  1.1595
 3924TIP3   OH233406   0.268   2.659   1.333 -0.1312 -0.4656  0.5535
 3924TIP3    H133407   0.294   2.709   1.411  0.5657 -0.3377  0.2500
 3924TIP3    H233408   0.341   2.670   1.272  0.0031 -1.8023  0.4442
 3925TIP3   OH233409   0.788   3.323   8.095  0.0977  0.7878  0.0875
 3925TIP3    H133410   0.779   3.248   8.155 -1.0728  1.2268  0.4961
 3925TIP3    H233411   0.836   3.289   8.020  1.8799  0.2848  1.3801
 3926TIP3   OH233412   1.893   3.222   0.673  0.1483  0.3513 -0.4556
 3926TIP3    H133413   1.811   3.182   0.703  0.9234 -0.5305  0.5848
 3926TIP3    H233414   1.902   3.301   0.725 -1.7205  2.4024 -2.9734
 3927TIP3   OH233415   2.757   2.099   0.326  0.0962 -0.1791  0.1377
 3927TIP3    H133416   2.847   2.110   0.358  0.3823  1.8933 -1.2082
 3927TIP3    H233417   2.721   2.187   0.323 -1.5382 -0.8281 -0.6212
 3928TIP3   OH233418   6.092   5.985   8.637  0.3158 -0.1679  0.1826
 3928TIP3    H133419   6.128   6.002   8.550 -0.6685  0.5334 -0.1063
 3928TIP3    H233420   6.034   5.910   8.625 -0.2248  0.2504  0.1040
 3929TIP3   OH233421   1.454   1.349   0.764  0.1928  0.0247 -0.0217
 3929TIP3    H133422   1.534   1.358   0.712  0.0873 -0.5050 -0.2814
 3929TIP3    H233423   1.441   1.255   0.771  0.6678  0.0413  1.6806
 3930TIP3   OH233424   2.896   3.088   2.073  0.4621 -0.0365 -0.1031
 3930TIP3    H133425   2.874   3.042   1.992  0.9697  0.4038 -0.5032
 3930TIP3    H233426   2.983   3.057   2.096  0.9275  0.8887 -0.5268
 3931TIP3   OH233427   5.756   2.120   8.049 -0.7913 -0.6387 -0.4067
 3931TIP3    H133428   5.665   2.095   8.038 -0.9432 -0.2137 -0.1254
 3931TIP3    H233429   5.768   2.194   7.989 -1.3792  1.0946  1.4911
 3932TIP3   OH233430   4.035   0.151   2.670 -0.2762  0.5240  0.1323
 3932TIP3    H133431   4.119   0.137   2.628  0.0187  1.9269  0.1972
 3932TIP3    H233432   4.056   0.194   2.753 -1.0299  0.5405  0.3272
 3933TIP3   OH233433   3.524   2.091   7.720  0.8814 -0.3287 -0.2656
 3933TIP3    H133434   3.441   2.084   7.767  0.7257 -0.9779 -0.6229
 3933TIP3    H233435   3.506   2.053   7.634  1.0124  1.3188 -1.0469
 3934TIP3   OH233436   2.075   1.556   7.474  0.5661  0.2031  0.4747
 3934TIP3    H133437   2.036   1.503   7.544  1.5784 -1.1681  0.0380
 3934TIP3    H233438   2.001   1.582   7.420  0.2712 -5.2093 -2.3407
 3935TIP3   OH233439   4.062   6.306   1.157 -0.2835 -0.2524 -0.1172
 3935TIP3    H133440   4.074   6.311   1.252  0.5309 -2.3472 -0.0533
 3935TIP3    H233441   4.136   6.353   1.121 -0.4747  0.3666  0.2825
 3936TIP3   OH233442   0.181   4.671   1.746 -0.4226 -0.1720 -0.0445
 3936TIP3    H133443   0.231   4.638   1.671 -1.9461 -2.6704 -0.0867
 3936TIP3    H233444   0.096   4.693   1.709 -1.2124 -1.5083  0.9391
 3937TIP3   OH233445   1.984   4.824   7.627  0.0772  0.2210 -0.4210
 3937TIP3    H133446   1.906   4.869   7.595  0.5619  2.7876  1.6391
 3937TIP3    H233447   2.055   4.858   7.573  0.1778  0.3412 -0.2143
 3938TIP3   OH233448   3.320   6.069   7.936 -0.7301 -0.5592 -0.9329
 3938TIP3    H133449   3.363   6.150   7.907 -1.0044  0.0117  0.1901
 3938TIP3    H233450   3.361   6.000   7.884  1.2567  0.0138 -0.2431
 3939TIP3   OH233451   5.659   5.275   2.097 -0.3378  0.1468 -0.3671
 3939TIP3    H133452   5.619   5.260   2.011  0.9774  0.3414 -1.0388
 3939TIP3    H233453   5.591   5.318   2.148 -0.6234  1.5710 -1.8498
 3940TIP3   OH233454   6.292   2.040   0.058  0.2454  0.3621  0.5761
 3940TIP3    H133455   6.255   2.022   0.144 -0.8543  0.7900  0.2078
 3940TIP3    H233456   6.291   2.136   0.051 -1.0064  0.2993 -0.4518
 3941TIP3   OH233457   3.496   2.017   3.329  0.2049  0.4043  0.0034
 3941TIP3    H133458   3.569   2.064   3.288  1.1210  1.1051  2.2870
 3941TIP3    H233459   3.419   2.072   3.313  0.5169  0.6160 -0.8006
 3942TIP3   OH233460   2.793   1.171   1.292  0.1783 -0.4476  0.4060
 3942TIP3    H133461   2.878   1.211   1.309  0.6395 -1.5113  0.6712
 3942TIP3    H233462   2.746   1.236   1.239  1.1051  0.1944  0.3503
 3943TIP3   OH233463   3.318   6.031   2.152 -0.2012 -0.2246  0.2080
 3943TIP3    H133464   3.410   6.047   2.170 -0.3700 -0.4077  1.3123
 3943TIP3    H233465   3.313   6.021   2.057  1.2401 -2.1888  0.2723
 3944TIP3   OH233466   1.055   6.641   0.958 -0.5347 -0.0410 -0.0485
 3944TIP3    H133467   1.102   6.566   0.993  0.5237  0.5338 -0.2028
 3944TIP3    H233468   0.972   6.605   0.926  0.3892 -1.3111 -1.0883
 3945TIP3   OH233469   5.401   5.022   3.641 -0.2537  0.1546 -0.2396
 3945TIP3    H133470   5.311   5.040   3.668 -0.5739 -0.6318 -0.7399
 3945TIP3    H233471   5.422   5.091   3.578 -0.2398  0.7727  0.4412
 3946TIP3   OH233472   3.978   1.935   7.794 -0.6037  0.3375  0.2760
 3946TIP3    H133473   4.063   1.977   7.779 -0.7868 -0.0510 -2.5007
 3946TIP3    H233474   3.914   1.999   7.763 -1.0185 -0.9194 -1.6798
 3947TIP3   OH233475   3.294   2.502   0.090  0.1028  0.8193 -0.9999
 3947TIP3    H133476   3.238   2.446   0.037  1.1195 -0.9260 -0.3213
 3947TIP3    H233477   3.383   2.479   0.062  0.9450 -2.4481  3.2891
 3948TIP3   OH233478   4.329   3.222   7.898  0.2851  0.2281 -0.1861
 3948TIP3    H133479   4.338   3.175   7.980  0.6742  1.2033  0.3368
 3948TIP3    H233480   4.252   3.278   7.911  2.0451  2.5925  0.6420
 3949TIP3   OH233481   0.568   0.966   1.081  0.1424 -0.3976 -1.0792
 3949TIP3    H133482   0.500   0.904   1.110 -0.6741  0.9611  0.0340
 3949TIP3    H233483   0.584   0.943   0.990 -0.9476 -1.5327 -1.0156
 3950TIP3   OH233484   0.827   5.574   7.194  0.2500 -0.0161  0.8668
 3950TIP3    H133485   0.913   5.598   7.229  0.0122 -0.2070  1.5992
 3950TIP3    H233486   0.765   5.627   7.244 -0.0801 -0.1159  0.5646
 3951TIP3   OH233487   1.562   5.137   2.124 -0.2622 -0.3764  0.1597
 3951TIP3    H133488   1.633   5.138   2.189  1.1919  1.2196 -1.3510
 3951TIP3    H233489   1.482   5.142   2.177  0.6708 -2.4068  1.9241
 3952TIP3   OH233490   1.979   2.557   0.147  0.1126  0.2740 -0.2438
 3952TIP3    H133491   1.986   2.555   0.242  1.9857 -2.1323 -0.3527
 3952TIP3    H233492   1.912   2.624   0.129  1.7852  2.9285  2.5863
 3953TIP3   OH233493   0.443   1.487   3.168  0.2759 -0.2011  0.2113
 3953TIP3    H133494   0.415   1.454   3.254 -0.4860  2.3497  1.0134
 3953TIP3    H233495   0.375   1.548   3.142  0.1306 -1.4132 -2.6165
 3954TIP3   OH233496   5.682   3.501   7.668  0.0719  0.2900  0.1611
 3954TIP3    H133497   5.710   3.553   7.743  1.7854  1.1024 -0.9583
 3954TIP3    H233498   5.743   3.427   7.665  1.2754  1.2636 -1.4326
 3955TIP3   OH233499   6.787   0.829   3.205 -0.4425  0.6993 -0.9145
 3955TIP3    H133500   6.826   0.907   3.244 -1.4769  0.2360  1.2178
 3955TIP3    H233501   6.859   0.784   3.161  1.3762  0.1682  2.3433
 3956TIP3   OH233502   0.427   3.996   7.863 -0.0940 -0.1658 -0.5616
 3956TIP3    H133503   0.347   4.049   7.858 -0.6102 -1.0163 -1.5599
 3956TIP3    H233504   0.457   3.990   7.772 -0.2854 -1.9401 -0.5374
 3957TIP3   OH233505   6.388   4.612   2.661 -0.7301 -0.2906  0.0861
 3957TIP3    H133506   6.406   4.706   2.669  2.0220 -0.8678  2.0380
 3957TIP3    H233507   6.405   4.592   2.569  4.0995  0.3050  0.6116
 3958TIP3   OH233508   5.041   2.536   1.951 -0.3816 -0.3593 -0.1879
 3958TIP3    H133509   4.982   2.607   1.975 -0.7925 -1.0460  0.9055
 3958TIP3    H233510   5.081   2.564   1.869 -1.5972  0.4960 -0.5072
 3959TIP3   OH233511   3.021   4.115   0.171  0.1645 -0.5285 -0.4371
 3959TIP3    H133512   3.090   4.135   0.108  1.3456 -0.7237  0.7545
 3959TIP3    H233513   2.950   4.175   0.149  0.1278 -1.2645 -2.5690
 3960TIP3   OH233514   1.546   2.066   8.205 -0.2979 -0.3401  0.1006
 3960TIP3    H133515   1.535   1.982   8.250 -1.6584 -1.0064 -1.3608
 3960TIP3    H233516   1.558   2.043   8.113  1.0276  1.0266 -0.1046
 3961TIP3   OH233517   4.315   3.490   1.530 -0.4398  0.4806  0.0192
 3961TIP3    H133518   4.263   3.570   1.538 -1.5089 -0.3751  2.8738
 3961TIP3    H233519   4.260   3.421   1.568  1.7450 -0.9723  0.7832
 3962TIP3   OH233520   2.978   4.544   1.262 -0.0741 -0.0218 -0.4102
 3962TIP3    H133521   2.951   4.633   1.284  0.3029  0.1220 -0.5073
 3962TIP3    H233522   2.909   4.488   1.297 -0.1551  0.2900 -0.0651
 3963TIP3   OH233523   1.758   3.255   1.982  0.1001  0.1314  0.3455
 3963TIP3    H133524   1.712   3.280   2.063  1.1395 -0.3092  1.0968
 3963TIP3    H233525   1.705   3.292   1.912 -1.2532 -0.1332  1.1909
 3964TIP3   OH233526   0.826   3.943   3.214  0.3021  0.5638 -0.0651
 3964TIP3    H133527   0.800   3.993   3.291 -1.7153 -2.1654  1.1722
 3964TIP3    H233528   0.748   3.943   3.158  0.5625 -0.4126 -0.4440
 3965TIP3   OH233529   5.897   4.520   1.909  0.2593  0.3592  0.2470
 3965TIP3    H133530   5.946   4.586   1.959 -0.6078  1.0639  0.1934
 3965TIP3    H233531   5.927   4.531   1.819  2.3809 -1.4125  0.6427
 3966TIP3   OH233532   5.022   4.930   1.927  0.4598  0.4829  0.4695
 3966TIP3    H133533   5.104   4.888   1.954  0.0458  0.3672  1.6239
 3966TIP3    H233534   5.037   4.957   1.837  1.1681 -1.0456  0.1000
 3967TIP3   OH233535   6.731   2.749   1.312  0.2720  0.5921 -0.1303
 3967TIP3    H133536   6.671   2.744   1.238 -0.1351 -0.8974  0.2454
 3967TIP3    H233537   6.779   2.831   1.300 -1.8419  1.8372 -0.4344
 3968TIP3   OH233538   2.610   2.593   7.104  0.2073  0.1671 -0.4252
 3968TIP3    H133539   2.603   2.679   7.146 -0.4313 -0.6541  1.2780
 3968TIP3    H233540   2.703   2.582   7.089  0.1815  1.7808 -2.1316
 3969TIP3   OH233541   3.122   6.377   0.403 -0.2927 -0.1157  0.1879
 3969TIP3    H133542   3.184   6.449   0.410  0.3856 -0.6836  0.1833
 3969TIP3    H233543   3.044   6.416   0.363  0.8755  0.1510 -1.9993
 3970TIP3   OH233544   3.423   3.137   8.084 -0.3077 -0.3935 -0.0985
 3970TIP3    H133545   3.367   3.214   8.080  1.4541  0.9070 -1.2292
 3970TIP3    H233546   3.365   3.064   8.060 -1.6641  0.7632 -0.4908
 3971TIP3   OH233547   0.943   6.303   7.827  0.0785 -0.5103  0.1584
 3971TIP3    H133548   0.975   6.359   7.756 -0.5467 -0.0077  0.2590
 3971TIP3    H233549   0.849   6.296   7.811  0.0568 -1.0545  0.4901
 3972TIP3   OH233550   5.656   0.775   2.222  0.1053  0.4253 -0.4995
 3972TIP3    H133551   5.684   0.733   2.141 -0.9305  0.2126 -0.7655
 3972TIP3    H233552   5.686   0.716   2.292  2.5730  1.4877 -0.5831
 3973TIP3   OH233553   5.412   5.995   0.636 -0.1408 -0.0428  0.4502
 3973TIP3    H133554   5.491   5.944   0.617 -0.8223 -1.6010  1.5529
 3973TIP3    H233555   5.417   6.071   0.578  2.5818  0.3579  1.1023
 3974TIP3   OH233556   0.728   3.993   8.212 -0.2361 -0.2785  0.0322
 3974TIP3    H133557   0.738   3.899   8.197 -2.9548 -0.5280 -0.8399
 3974TIP3    H233558   0.768   4.034   8.135 -1.1052 -0.8904 -0.7858
 3975TIP3   OH233559   0.924   6.881   8.026  0.0554 -0.1172 -0.0137
 3975TIP3    H133560   0.832   6.862   8.040 -0.1372  0.5545 -0.3202
 3975TIP3    H233561   0.969   6.799   8.047 -0.5494 -0.2646  0.7494
 3976TIP3   OH233562   4.125   1.506   2.473  0.4156  0.1306  0.9818
 3976TIP3    H133563   4.160   1.512   2.562 -0.5222  0.1542  1.3668
 3976TIP3    H233564   4.133   1.414   2.450 -0.1731 -0.0446  1.4524
 3977TIP3   OH233565   6.062   1.895   3.439  0.2248  0.3810  0.2022
 3977TIP3    H133566   6.099   1.979   3.411  0.9510 -0.3427 -1.0802
 3977TIP3    H233567   6.099   1.880   3.526 -1.4139  2.2722  1.3058
 3978TIP3   OH233568   1.518   4.075   1.366  0.2194 -0.0006  0.1294
 3978TIP3    H133569   1.452   4.007   1.358  1.3308 -1.0094 -0.7117
 3978TIP3    H233570   1.506   4.129   1.287 -0.1775  0.3748  0.4352
 3979TIP3   OH233571   3.667   6.874   3.343 -0.5974  0.3643 -0.7283
 3979TIP3    H133572   3.596   6.931   3.370  0.2629  0.9186  0.4336
 3979TIP3    H233573   3.722   6.929   3.288 -1.3851 -0.2535 -2.1977
 3980TIP3   OH233574   4.232   2.167   1.355  0.3044  0.2661  0.2518
 3980TIP3    H133575   4.323   2.137   1.346  0.7431  1.3892  0.7973
 3980TIP3    H233576   4.189   2.136   1.275  1.4513  0.7252 -0.5744
 3981TIP3   OH233577   1.089   4.281   2.912 -0.6829  0.0596 -0.4802
 3981TIP3    H133578   1.098   4.366   2.954  1.8840 -1.2720  2.0190
 3981TIP3    H233579   1.086   4.219   2.985  0.7687 -2.1761 -2.1892
 3982TIP3   OH233580   4.500   1.171   2.372 -0.0316 -0.5632 -0.5383
 3982TIP3    H133581   4.568   1.191   2.436 -1.3328  1.1791  0.4045
 3982TIP3    H233582   4.518   1.228   2.298 -0.5048 -0.0180 -0.2412
 3983TIP3   OH233583   0.184   5.806   7.810 -0.7775 -0.5649 -0.0089
 3983TIP3    H133584   0.252   5.813   7.743 -0.1724  0.1399  0.6671
 3983TIP3    H233585   0.161   5.713   7.810 -0.4645 -0.6573 -0.8708
 3984TIP3   OH233586   1.919   1.977   8.104  0.3482 -0.3999 -0.5547
 3984TIP3    H133587   1.900   2.052   8.161 -0.0249 -0.0915 -1.0706
 3984TIP3    H233588   1.837   1.927   8.102  0.5667 -0.7746 -0.2905
 3985TIP3   OH233589   2.373   1.165   0.810  0.1971 -0.6036 -0.2114
 3985TIP3    H133590   2.382   1.188   0.717  1.1294  0.8471  0.2044
 3985TIP3    H233591   2.291   1.205   0.837  1.4798  1.8616  0.3356
 3986TIP3   OH233592   1.365   4.895   0.176 -0.2261  0.3100 -0.6135
 3986TIP3    H133593   1.317   4.858   0.102  0.3635  1.3100 -1.5095
 3986TIP3    H233594   1.376   4.987   0.154 -0.7113  0.8043  1.0875
 3987TIP3   OH233595   3.871   6.373   0.610 -0.4260 -0.0447  0.3189
 3987TIP3    H133596   3.918   6.452   0.637 -0.4744 -0.5552  2.0297
 3987TIP3    H233597   3.939   6.317   0.573 -0.4471  0.8894 -1.2354
 3988TIP3   OH233598   3.240   3.081   0.359 -0.3898  0.0363 -0.7769
 3988TIP3    H133599   3.226   3.152   0.297  1.8825  1.9412  0.7235
 3988TIP3    H233600   3.285   3.121   0.432 -1.6972 -2.3996  1.5431
 3989TIP3   OH233601   6.337   0.710   1.003 -0.0859 -0.3269  0.4061
 3989TIP3    H133602   6.371   0.789   0.961 -1.6402 -1.0530 -2.4078
 3989TIP3    H233603   6.412   0.676   1.053  1.5939  1.1515 -0.9582
 3990TIP3   OH233604   4.009   0.730   1.224  0.2328  0.1831  0.2983
 3990TIP3    H133605   3.925   0.728   1.179  0.4188  1.5820 -0.1570
 3990TIP3    H233606   4.059   0.657   1.185  0.2813  1.1612 -1.5813
 3991TIP3   OH233607   3.048   0.170   1.128  0.6592 -0.4725  0.2054
 3991TIP3    H133608   3.127   0.224   1.131  0.2778  0.4194 -2.5783
 3991TIP3    H233609   2.988   0.212   1.191 -0.1488  3.4930 -2.7925
 3992TIP3   OH233610   0.313   5.946   1.491 -0.0355 -0.3042 -0.2113
 3992TIP3    H133611   0.281   5.989   1.570  0.2523 -1.9984  0.8930
 3992TIP3    H233612   0.371   6.009   1.450  0.6282  0.2472  1.5078
 3993TIP3   OH233613   0.484   6.908   1.749  0.2700 -0.0899  0.5015
 3993TIP3    H133614   0.393   6.903   1.777 -0.1204  1.2338 -0.4141
 3993TIP3    H233615   0.535   6.894   1.829 -0.7647  0.6426  1.3162
 3994TIP3   OH233616   3.303   3.740   1.695  0.5486  0.2745  0.0115
 3994TIP3    H133617   3.241   3.804   1.661  2.1295  1.5084 -0.6980
 3994TIP3    H233618   3.249   3.675   1.740 -1.2051  1.4119 -0.3618
 3995TIP3   OH233619   3.294   5.044   8.201 -0.2047  0.2999 -0.5675
 3995TIP3    H133620   3.316   4.959   8.164 -0.0348  1.2271 -2.7925
 3995TIP3    H233621   3.294   5.103   8.126 -1.1434  2.1137  0.7764
 3996TIP3   OH233622   6.846   2.462   0.643 -0.9015 -0.1371  0.4063
 3996TIP3    H133623   6.937   2.472   0.616 -1.2870 -1.4880 -1.5795
 3996TIP3    H233624   6.851   2.430   0.733  0.5496  0.2049  0.4726
 3997TIP3   OH233625   5.179   1.586   0.560 -0.2223  0.3956 -0.0539
 3997TIP3    H133626   5.211   1.676   0.550 -1.2024  0.7613 -0.0158
 3997TIP3    H233627   5.105   1.580   0.499 -1.6564  0.3691  1.5944
 3998TIP3   OH233628   0.618   3.185   8.514  0.1406 -0.1632 -0.6226
 3998TIP3    H133629   0.561   3.262   8.509  0.1454 -0.1752 -0.8538
 3998TIP3    H233630   0.560   3.113   8.540  0.0285 -0.2023 -0.9863
 3999TIP3   OH233631   6.212   4.964   0.849 -0.0845  0.0636 -0.0804
 3999TIP3    H133632   6.285   5.025   0.842  0.6146 -0.7396  0.0762
 3999TIP3    H233633   6.168   4.988   0.931 -0.3964  0.9592 -0.4949
 4000TIP3   OH233634   2.368   4.606   1.875 -0.3101 -0.2773 -0.6980
 4000TIP3    H133635   2.341   4.517   1.850  0.6912 -1.6322  2.5140
 4000TIP3    H233636   2.462   4.607   1.858 -0.0861 -0.3281  0.4616
 4001TIP3   OH233637   4.577   6.822   7.930 -0.0362 -0.2780  0.5069
 4001TIP3    H133638   4.579   6.743   7.877 -1.2038  1.5167 -2.5072
 4001TIP3    H233639   4.526   6.884   7.878 -1.6896  1.5985  3.9887
 4002TIP3   OH233640   3.591   2.776   0.024 -0.4538  0.2578  0.6577
 4002TIP3    H133641   3.542   2.798   0.102 -1.7100 -0.4670  0.1034
 4002TIP3    H233642   3.661   2.841   0.020 -1.0132  0.9514  1.7836
 4003TIP3   OH233643   1.478   3.151   8.090 -0.2914  0.3977  0.6724
 4003TIP3    H133644   1.407   3.105   8.047 -0.8898 -0.0244  2.0445
 4003TIP3    H233645   1.465   3.243   8.065 -0.4651  0.1405 -0.2194
 4004TIP3   OH233646   6.541   2.520   1.030 -0.5705 -0.0162  0.4292
 4004TIP3    H133647   6.521   2.609   1.060 -0.1607  1.2782 -2.8144
 4004TIP3    H233648   6.456   2.478   1.021 -0.7509 -0.1320  2.2922
 4005TIP3   OH233649   2.439   6.694   8.313 -0.1257 -0.5220 -0.2650
 4005TIP3    H133650   2.442   6.604   8.345  1.5334 -0.7015 -0.8272
 4005TIP3    H233651   2.531   6.719   8.304 -0.5520  1.2908  0.0390
 4006TIP3   OH233652   5.869   5.895   7.929 -0.3944  0.2500  0.1938
 4006TIP3    H133653   5.831   5.954   7.865  0.9718  0.0782 -0.8023
 4006TIP3    H233654   5.933   5.843   7.880  0.4670 -0.0956  1.6269
 4007TIP3   OH233655   0.337   3.298   0.335  0.0217 -0.1075  0.2816
 4007TIP3    H133656   0.283   3.278   0.258  1.4689 -1.0156 -0.5466
 4007TIP3    H233657   0.291   3.256   0.407  0.2626 -2.0466 -0.6269
 4008TIP3   OH233658   0.267   3.667   0.277  0.2945  0.6148  0.0066
 4008TIP3    H133659   0.238   3.667   0.369  1.0849  2.2003  0.2941
 4008TIP3    H233660   0.227   3.588   0.240 -0.7020  0.3567  1.5003
 4009TIP3   OH233661   0.620   4.729   7.062 -0.3233 -0.0385 -0.2922
 4009TIP3    H133662   0.539   4.770   7.033 -1.2607 -0.7374  1.1724
 4009TIP3    H233663   0.597   4.636   7.072  1.2666 -0.6450 -1.8849
 4010TIP3   OH233664   5.282   5.409   2.930  0.2894  0.1816  0.2261
 4010TIP3    H133665   5.349   5.349   2.964  1.6490  1.3298 -0.3129
 4010TIP3    H233666   5.216   5.412   3.000  1.0152 -0.6253  0.9829
 4011TIP3   OH233667   3.171   1.957   0.366  0.3809  0.2806 -0.5812
 4011TIP3    H133668   3.255   1.913   0.359  0.1922 -0.2716  0.4856
 4011TIP3    H233669   3.127   1.915   0.440 -0.4565  1.1846 -0.5391
 4012TIP3   OH233670   0.441   5.737   0.827 -0.3508  0.2397  0.1945
 4012TIP3    H133671   0.349   5.743   0.854  0.0653 -0.5117  1.8708
 4012TIP3    H233672   0.477   5.666   0.881  0.6257 -1.1717 -2.1560
 4013TIP3   OH233673   5.402   0.569   1.762 -0.4447  0.6932  0.1809
 4013TIP3    H133674   5.316   0.541   1.731  0.0768 -0.4470 -0.2919
 4013TIP3    H233675   5.445   0.606   1.685 -1.4615  3.8366  0.9794
 4014TIP3   OH233676   3.187   5.082   2.495 -0.8448  0.5865  0.0096
 4014TIP3    H133677   3.243   5.158   2.484 -1.6334  1.0204 -1.1165
 4014TIP3    H233678   3.170   5.078   2.590  0.5941  0.7705  0.2930
 4015TIP3   OH233679   0.667   5.581   3.240  0.0537  0.3560  0.5174
 4015TIP3    H133680   0.723   5.568   3.164  1.0933  0.8836  1.1720
 4015TIP3    H233681   0.600   5.642   3.211  0.4922  0.6173  0.0491
 4016TIP3   OH233682   3.350   2.529   7.225 -0.2856 -0.0982 -0.2309
 4016TIP3    H133683   3.280   2.508   7.163  0.2675  0.1496 -0.9439
 4016TIP3    H233684   3.421   2.469   7.202  0.3096  0.7030 -0.5263
 4017TIP3   OH233685   2.111   2.780   8.204  0.5761  0.9600 -0.4578
 4017TIP3    H133686   2.162   2.831   8.140  1.5731  2.5021  1.4729
 4017TIP3    H233687   2.088   2.843   8.272 -0.5425 -0.6169  0.6953
 4018TIP3   OH233688   6.413   0.984   1.545  0.1555 -0.3200 -0.0828
 4018TIP3    H133689   6.496   0.946   1.519  0.8931 -0.4210  2.1849
 4018TIP3    H233690   6.352   0.960   1.475  1.4300 -2.4436 -0.5382
 4019TIP3   OH233691   0.293   3.115   8.459  0.2781  0.2434 -0.4103
 4019TIP3    H133692   0.216   3.073   8.496  0.9650 -0.8702 -0.2130
 4019TIP3    H233693   0.348   3.043   8.430  1.9018  0.9551  0.7638
 4020TIP3   OH233694   5.980   4.740   7.614 -0.3978  0.9983 -0.0915
 4020TIP3    H133695   5.933   4.766   7.693 -2.1008  0.2497 -0.8162
 4020TIP3    H233696   5.933   4.784   7.543  0.4414  0.8047 -0.7794
 4021TIP3   OH233697   2.913   4.564   8.092  0.1090 -0.5846  0.5711
 4021TIP3    H133698   2.902   4.528   8.180 -0.1142 -0.3161  0.6559
 4021TIP3    H233699   2.887   4.656   8.101  0.2656 -0.5098  0.2656
 4022TIP3   OH233700   6.190   1.866   1.756  0.2908 -0.3838 -0.0719
 4022TIP3    H133701   6.115   1.825   1.800  0.7985  0.2730  1.5110
 4022TIP3    H233702   6.233   1.916   1.826  1.4152  0.3608 -1.2604
 4023TIP3   OH233703   6.167   0.571   0.178  0.0562 -0.2443 -0.4749
 4023TIP3    H133704   6.235   0.635   0.200  1.6865 -1.9974 -0.0833
 4023TIP3    H233705   6.094   0.623   0.146  1.3406  1.7858 -0.2857
 4024TIP3   OH233706   2.591   1.409   2.302  0.3641 -0.4727 -0.1950
 4024TIP3    H133707   2.559   1.459   2.227  0.6406  2.0019  1.2119
 4024TIP3    H233708   2.664   1.358   2.269  0.0657  0.0559 -1.7259
 4025TIP3   OH233709   2.355   4.984   0.225  0.3690 -0.0621  0.2659
 4025TIP3    H133710   2.324   5.065   0.186  0.2560 -0.3409 -0.2262
 4025TIP3    H233711   2.319   4.915   0.170  1.7335 -0.4009 -0.2377
 4026TIP3   OH233712   0.390   4.520   0.514  0.2429 -0.1879 -0.0432
 4026TIP3    H133713   0.330   4.445   0.507  0.8614 -0.6747 -0.2782
 4026TIP3    H233714   0.413   4.541   0.423  1.3551 -0.7894  0.0709
 4027TIP3   OH233715   0.796   5.764   2.043 -0.0871  0.1622  0.8062
 4027TIP3    H133716   0.864   5.782   2.108  0.8149  1.6604 -0.4654
 4027TIP3    H233717   0.817   5.823   1.970 -1.5275 -0.8746 -0.5097
 4028TIP3   OH233718   2.117   4.602   8.223  0.3978  0.5320  0.4196
 4028TIP3    H133719   2.102   4.517   8.265 -1.2336  0.8051  0.4427
 4028TIP3    H233720   2.207   4.596   8.189  1.3261 -0.1889  2.7666
 4029TIP3   OH233721   5.740   2.354   0.340  0.1480  0.2434 -0.1566
 4029TIP3    H133722   5.653   2.386   0.365  0.1875  0.5920 -0.4620
 4029TIP3    H233723   5.758   2.284   0.402 -0.2161  0.3833  0.1122
 4030TIP3   OH233724   3.702   6.427   3.186  0.0158 -0.1047  0.1336
 4030TIP3    H133725   3.752   6.376   3.249  1.3571  2.9668  1.7615
 4030TIP3    H233726   3.693   6.370   3.110  2.7187 -2.1541  1.2156
 4031TIP3   OH233727   4.114   3.724   1.827 -0.4076  0.0263 -0.2831
 4031TIP3    H133728   4.138   3.804   1.874 -1.9953  0.1499  0.3895
 4031TIP3    H233729   4.080   3.755   1.744 -0.4449  0.0049 -0.2755
 4032TIP3   OH233730   6.684   6.554   0.731  0.4554 -0.0776 -0.2739
 4032TIP3    H133731   6.624   6.556   0.657 -0.0942  1.3994  0.1735
 4032TIP3    H233732   6.771   6.553   0.691  0.1539 -0.4927 -0.9319
 4033TIP3   OH233733   2.272   3.945   2.074  0.1758  0.2077  0.1077
 4033TIP3    H133734   2.341   3.898   2.028 -0.1989 -0.5806  0.3281
 4033TIP3    H233735   2.253   4.020   2.018  1.1412  0.3885  0.0028
 4034TIP3   OH233736   1.346   4.534   1.710 -0.1220 -0.5342  0.2122
 4034TIP3    H133737   1.326   4.544   1.803  0.5893  0.1510  0.3077
 4034TIP3    H233738   1.264   4.556   1.665  0.0361  1.0283  0.6269
 4035TIP3   OH233739   6.278   3.667   1.752  0.2289 -0.2224  0.0687
 4035TIP3    H133740   6.322   3.593   1.794  0.4745 -0.6666 -0.9330
 4035TIP3    H233741   6.195   3.676   1.799  1.0090  0.0966  1.4413
 4036TIP3   OH233742   0.300   2.964   3.520 -0.0596 -0.3784 -0.0485
 4036TIP3    H133743   0.233   2.978   3.587 -0.1865  0.0193 -0.2587
 4036TIP3    H233744   0.327   2.873   3.533 -1.2448 -0.8159 -0.5090
 4037TIP3   OH233745   5.821   3.779   7.501 -0.5147 -0.4699  0.5250
 4037TIP3    H133746   5.890   3.781   7.435 -1.2736 -0.0704 -0.2738
 4037TIP3    H233747   5.849   3.843   7.567  0.7509 -1.6045  1.1373
 4038TIP3   OH233748   1.330   4.388   2.457 -0.1140 -0.1620 -0.0767
 4038TIP3    H133749   1.309   4.385   2.550  1.7703 -0.4185  0.3900
 4038TIP3    H233750   1.270   4.325   2.416 -1.1855  0.2071  0.9013
 4039TIP3   OH233751   0.481   5.668   0.070  0.2847  0.1804 -0.0949
 4039TIP3    H133752   0.465   5.631  -0.017 -0.3692  1.0261 -0.3380
 4039TIP3    H233753   0.476   5.592   0.129 -1.5577 -0.0904 -0.5292
 4040TIP3   OH233754   2.158   1.364   8.078 -0.4138  0.6086 -0.3238
 4040TIP3    H133755   2.166   1.292   8.139 -0.6476  1.3657  0.6156
 4040TIP3    H233756   2.237   1.417   8.092 -0.3558  0.6696 -0.8397
 4041TIP3   OH233757   0.048   4.348   7.189 -0.8644  0.0634 -0.1009
 4041TIP3    H133758   0.023   4.313   7.275  0.6807  0.9192  0.7436
 4041TIP3    H233759   0.140   4.323   7.179  0.2932  3.5712  0.4905
 4042TIP3   OH233760   5.372   0.751   2.385  0.2397 -0.0768 -0.1095
 4042TIP3    H133761   5.463   0.766   2.362  0.2643  1.3441  0.7921
 4042TIP3    H233762   5.322   0.808   2.326  0.0374  0.2344  0.3523
 4043TIP3   OH233763   4.734   4.415   0.638 -0.1924 -0.0022  0.6728
 4043TIP3    H133764   4.720   4.497   0.590  0.0854 -0.3955 -0.0924
 4043TIP3    H233765   4.805   4.434   0.699  1.7033 -0.3697 -1.2991
 4044TIP3   OH233766   6.643   5.394   1.238  0.8471  0.7150 -0.3662
 4044TIP3    H133767   6.733   5.362   1.237  1.3064  1.9410 -0.0339
 4044TIP3    H233768   6.650   5.484   1.271 -0.5618  0.6307  0.2391
 4045TIP3   OH233769   6.212   3.350   0.172  0.4857 -0.2086 -0.0365
 4045TIP3    H133770   6.148   3.383   0.110  1.2214  0.6415 -0.3695
 4045TIP3    H233771   6.176   3.371   0.258  0.6772  1.0230 -0.2296
 4046TIP3   OH233772   0.693   5.370   0.478 -0.4369  0.2769  0.8442
 4046TIP3    H133773   0.663   5.423   0.404 -0.6208  1.9506  2.0644
 4046TIP3    H233774   0.621   5.373   0.540 -0.2601 -1.0688  1.1345
 4047TIP3   OH233775   6.519   4.129   2.789 -0.1272  0.6172  0.2200
 4047TIP3    H133776   6.557   4.095   2.708  1.0075  1.1354  0.5163
 4047TIP3    H233777   6.435   4.166   2.763 -0.9952 -1.5321 -0.2658
 4048TIP3   OH233778   6.775   0.566   7.623 -0.4559  0.2200  0.3745
 4048TIP3    H133779   6.841   0.505   7.589  0.9728 -0.2262  3.5438
 4048TIP3    H233780   6.827   0.635   7.664 -2.0189  3.5802 -2.7404
 4049TIP3   OH233781   3.052   1.990   7.706 -0.8008  0.4258 -0.0883
 4049TIP3    H133782   2.995   1.990   7.783 -0.9293 -1.9842 -0.1212
 4049TIP3    H233783   3.132   1.947   7.736 -0.6057  0.0447 -1.1272
 4050TIP3   OH233784   4.675   0.228   7.900  0.3109 -0.1058  0.0160
 4050TIP3    H133785   4.742   0.189   7.845  1.5354 -4.0587  3.8044
 4050TIP3    H233786   4.600   0.169   7.893  0.0438  0.0103  1.4910
 4051TIP3   OH233787   4.971   1.276   8.507 -0.2009  0.0394  0.0149
 4051TIP3    H133788   4.928   1.351   8.547  2.8126  2.0353 -0.1981
 4051TIP3    H233789   4.992   1.305   8.418  1.3897 -0.8895  0.0501
 4052TIP3   OH233790   3.174   5.417   2.580 -0.6273 -0.5037  0.6117
 4052TIP3    H133791   3.238   5.346   2.578  0.0314  0.0405  1.3159
 4052TIP3    H233792   3.097   5.379   2.622 -0.8278 -1.2116 -0.3913
 4053TIP3   OH233793   1.136   1.972   8.094 -0.2845 -0.4961  0.3956
 4053TIP3    H133794   1.062   2.003   8.147  0.2733  0.2470  0.7520
 4053TIP3    H233795   1.096   1.949   8.010 -0.8354  0.5208  0.3561
 4054TIP3   OH233796   0.011   2.966   3.707  0.4108 -0.2192 -0.1260
 4054TIP3    H133797   0.008   2.890   3.765 -0.4356  1.1910  1.7621
 4054TIP3    H233798  -0.030   2.936   3.626 -1.9640 -1.1976  1.3268
 4055TIP3   OH233799   2.747   6.501   2.843  0.4111  0.3734  0.2831
 4055TIP3    H133800   2.707   6.587   2.854  2.2979  1.3679 -0.1006
 4055TIP3    H233801   2.695   6.443   2.897  0.3645  2.1792  2.3255
 4056TIP3   OH233802   1.652   0.351   0.906  0.0669 -0.4485 -0.0676
 4056TIP3    H133803   1.650   0.294   0.983 -0.0908 -0.4311 -0.0580
 4056TIP3    H233804   1.668   0.439   0.941  0.0710 -0.4519 -0.0610
 4057TIP3   OH233805   2.417   5.515   1.669  0.4389 -0.1006 -0.7561
 4057TIP3    H133806   2.402   5.610   1.676  1.1595 -0.0688  1.1927
 4057TIP3    H233807   2.330   5.477   1.675  0.2538  0.4166  0.2184
 4058TIP3   OH233808   1.870   4.186   0.229  0.0384  0.1789 -0.8613
 4058TIP3    H133809   1.848   4.093   0.223  1.9464 -0.3255 -0.8246
 4058TIP3    H233810   1.919   4.194   0.311 -1.4586  1.5556 -0.0374
 4059TIP3   OH233811   0.865   5.092   8.114  0.0945  0.1570  0.4639
 4059TIP3    H133812   0.850   5.008   8.157  1.8675  0.5107  1.8464
 4059TIP3    H233813   0.828   5.080   8.026  0.5433 -2.1463  0.5279
 4060TIP3   OH233814   0.342   0.468   1.007 -0.0215  0.0008  0.3704
 4060TIP3    H133815   0.402   0.534   0.972 -0.2175 -0.7325 -1.4551
 4060TIP3    H233816   0.255   0.506   0.994 -0.0951 -0.2502  0.1279
 4061TIP3   OH233817   5.628   3.332   0.955 -0.0366  0.3946  0.0817
 4061TIP3    H133818   5.554   3.368   0.907 -0.7017 -0.7315  0.2111
 4061TIP3    H233819   5.630   3.381   1.037 -1.8733 -0.8036  0.9242
 4062TIP3   OH233820   1.075   6.097   0.043  0.3824 -0.0764  0.4040
 4062TIP3    H133821   1.109   6.096   0.132  0.6611  3.7190  0.4981
 4062TIP3    H233822   0.992   6.144   0.050 -0.1520 -0.7226 -1.1940
 4063TIP3   OH233823   5.524   5.238   1.865 -0.0249 -0.0414 -0.0708
 4063TIP3    H133824   5.552   5.186   1.790 -0.9266  0.1301 -0.5381
 4063TIP3    H233825   5.437   5.205   1.887 -0.4826  1.0388 -0.1828
 4064TIP3   OH233826   6.736   6.357   3.519  0.3922  0.7301 -0.0133
 4064TIP3    H133827   6.711   6.448   3.528 -0.5659  0.4524  0.2653
 4064TIP3    H233828   6.718   6.319   3.605  1.9963  0.5491  0.2778
 4065TIP3   OH233829   6.386   5.740   0.561 -0.4482 -0.0799 -0.4966
 4065TIP3    H133830   6.474   5.770   0.584  0.0606 -0.7794 -1.4786
 4065TIP3    H233831   6.328   5.788   0.621  0.5951  0.3440  0.2000
 4066TIP3   OH233832   0.236   4.751   3.113 -0.0750 -0.7008 -0.8423
 4066TIP3    H133833   0.200   4.798   3.038  1.6587  1.2351 -0.5658
 4066TIP3    H233834   0.197   4.794   3.189  0.5288 -0.5555 -0.6056
 4067TIP3   OH233835   3.509   0.261   1.163  0.4511  0.5543 -0.0275
 4067TIP3    H133836   3.579   0.196   1.150  0.1612 -0.1932  1.8632
 4067TIP3    H233837   3.555   0.342   1.184  0.7677  0.1529  0.8522
 4068TIP3   OH233838   6.401   4.548   0.822 -0.7042 -0.5812 -0.2612
 4068TIP3    H133839   6.470   4.554   0.756 -1.6146  1.7620 -1.1110
 4068TIP3    H233840   6.333   4.493   0.783 -0.5987 -0.4245 -0.6626
 4069TIP3   OH233841   6.300   0.053   2.576 -0.0169  0.3017  0.1556
 4069TIP3    H133842   6.355  -0.025   2.586 -0.3578 -0.2007 -1.4999
 4069TIP3    H233843   6.362   0.125   2.569  0.3950 -0.0924 -0.3662
 4070TIP3   OH233844   1.918   6.320   7.339 -0.5839 -0.0717  0.0770
 4070TIP3    H133845   1.850   6.370   7.292  0.2739 -0.1642 -1.3351
 4070TIP3    H233846   2.000   6.356   7.307  0.0561 -1.9330 -0.5154
 4071TIP3   OH233847   2.643   6.472   1.827  0.3662 -0.2157 -0.2984
 4071TIP3    H133848   2.729   6.433   1.842  0.5810 -0.4187 -1.8580
 4071TIP3    H233849   2.621   6.448   1.737 -1.4028 -0.2923  0.1076
 4072TIP3   OH233850   3.764   1.269   0.127 -0.7934 -0.1639  0.0155
 4072TIP3    H133851   3.779   1.303   0.215 -0.0457 -0.4242  0.0010
 4072TIP3    H233852   3.682   1.220   0.134 -1.6596  1.2590  0.1321
 4073TIP3   OH233853   2.533   0.759   1.772 -0.0043 -0.5064 -0.4791
 4073TIP3    H133854   2.441   0.735   1.763 -0.4277  0.5961  0.7239
 4073TIP3    H233855   2.565   0.706   1.845 -0.3551  0.8935  0.7193
 4074TIP3   OH233856   5.160   1.180   3.201  0.1211  0.4971 -0.1508
 4074TIP3    H133857   5.248   1.217   3.203  0.4826 -0.3335  0.1374
 4074TIP3    H233858   5.162   1.111   3.268  0.1340 -1.4292 -2.0268
 4075TIP3   OH233859   5.406   0.091   0.094  0.3208 -0.2532  0.5194
 4075TIP3    H133860   5.378   0.025   0.030 -0.6346  1.6333 -1.1007
 4075TIP3    H233861   5.488   0.125   0.058  0.4473 -0.0547  0.9881
 4076TIP3   OH233862   4.019   3.586   2.485 -0.3776 -0.4601  0.1886
 4076TIP3    H133863   3.951   3.568   2.550 -0.2340 -0.3302  0.3763
 4076TIP3    H233864   4.027   3.505   2.435  0.1089 -0.8374  0.8801
 4077TIP3   OH233865   3.018   2.256   2.106  0.0199  0.2006 -0.9941
 4077TIP3    H133866   2.924   2.244   2.093 -0.1317 -1.8664  1.3433
 4077TIP3    H233867   3.047   2.176   2.149  2.7565  1.0555 -1.0537
 4078TIP3   OH233868   4.776   4.163   0.446 -0.5920 -0.0564 -0.3466
 4078TIP3    H133869   4.691   4.134   0.477 -0.4501  0.0680  0.1793
 4078TIP3    H233870   4.782   4.254   0.474 -0.6759  0.2211 -1.2171
 4079TIP3   OH233871   1.507   0.699   2.590 -0.5263 -0.3435 -0.2948
 4079TIP3    H133872   1.556   0.637   2.644 -0.5953 -1.3182 -1.3194
 4079TIP3    H233873   1.442   0.735   2.650  1.2233  0.7721  1.0095
 4080TIP3   OH233874   1.010   5.782   0.163 -0.0799  0.2326  0.1981
 4080TIP3    H133875   1.098   5.785   0.200  0.7147  0.2740 -1.5742
 4080TIP3    H233876   0.971   5.702   0.199  0.0251  1.0903  2.3219
 4081TIP3   OH233877   5.617   0.636   8.576 -0.0074  0.0543 -0.1951
 4081TIP3    H133878   5.651   0.608   8.490 -3.3455 -2.6371 -0.8387
 4081TIP3    H233879   5.686   0.612   8.637  0.1906 -3.5744 -1.5827
 4082TIP3   OH233880   0.680   2.733   1.555 -0.1812 -0.0672  0.2629
 4082TIP3    H133881   0.727   2.812   1.581 -0.8361 -0.0483  1.4395
 4082TIP3    H233882   0.590   2.747   1.584 -0.6330 -0.6481 -0.7988
 4083TIP3   OH233883   5.154   0.967   8.553 -0.3902 -0.1376 -0.1790
 4083TIP3    H133884   5.134   1.006   8.467 -0.5978 -0.0827 -0.1068
 4083TIP3    H233885   5.073   0.976   8.602 -0.1251  0.2633  0.1893
 4084TIP3   OH233886   0.585   5.247   1.745 -0.2733 -0.4619 -0.4632
 4084TIP3    H133887   0.633   5.321   1.782 -1.7357  0.5928 -0.6110
 4084TIP3    H233888   0.540   5.208   1.820 -1.3495  0.2291 -0.7372
 4085TIP3   OH233889   4.561   1.296   7.487  0.4010 -0.6501  0.2511
 4085TIP3    H133890   4.595   1.224   7.541  1.4853 -0.3217  0.0413
 4085TIP3    H233891   4.629   1.309   7.420 -0.8608 -0.9915 -1.1471
 4086TIP3   OH233892   1.200   5.779   8.532 -0.7345  0.4392 -0.3079
 4086TIP3    H133893   1.206   5.744   8.443 -1.7500 -1.7253  0.3966
 4086TIP3    H233894   1.106   5.783   8.550 -0.5684  1.5456  0.4229
 4087TIP3   OH233895   3.332   6.435   1.049 -0.3169  0.1462  0.3113
 4087TIP3    H133896   3.276   6.479   1.113 -1.1860  0.6972 -0.7899
 4087TIP3    H233897   3.401   6.499   1.030 -0.3719  0.1978  0.2863
 4088TIP3   OH233898   4.947   3.497   2.750 -0.7961 -0.5207 -0.2832
 4088TIP3    H133899   4.935   3.437   2.677  0.3148 -0.3854 -0.5997
 4088TIP3    H233900   4.972   3.441   2.823  0.2964 -0.4693 -0.5926
 4089TIP3   OH233901   6.006   4.606   0.149 -0.5837  0.1421 -0.2327
 4089TIP3    H133902   6.026   4.512   0.146 -2.7821 -0.3371 -2.0373
 4089TIP3    H233903   5.926   4.612   0.200 -1.6479  0.7535 -1.9087
 4090TIP3   OH233904   1.821   4.094   0.570  0.2565 -0.6909  0.0377
 4090TIP3    H133905   1.866   4.049   0.498  1.0664 -0.8949  0.6620
 4090TIP3    H233906   1.728   4.072   0.557  0.4135 -0.9098 -0.8087
 4091TIP3   OH233907   5.829   1.108   1.669 -0.0377  0.0721  0.1234
 4091TIP3    H133908   5.792   1.040   1.725  0.2091 -0.4158 -0.2932
 4091TIP3    H233909   5.903   1.066   1.626 -0.1255  0.4837 -0.4488
 4092TIP3   OH233910   3.017   2.187   0.402  0.1027  1.0525 -0.4341
 4092TIP3    H133911   3.070   2.108   0.395 -2.0328 -0.7438  2.1019
 4092TIP3    H233912   3.078   2.254   0.433  1.5126 -0.1266 -0.5604
 4093TIP3   OH233913   0.146   6.133   3.148  0.6053 -0.0425  0.1413
 4093TIP3    H133914   0.199   6.192   3.201 -1.2519 -0.1328  2.2340
 4093TIP3    H233915   0.167   6.046   3.182 -1.5588 -0.0059  1.7489
 4094TIP3   OH233916   6.808   3.099   0.066  0.1070  0.1231 -0.1368
 4094TIP3    H133917   6.726   3.059   0.093  0.7529 -0.3543  1.2087
 4094TIP3    H233918   6.804   3.189   0.099 -0.7165  0.7802 -1.8803
 4095TIP3   OH233919   0.975   4.121   0.720 -0.1389  0.2621  0.2680
 4095TIP3    H133920   0.898   4.160   0.762 -2.1043 -2.2543 -0.7623
 4095TIP3    H233921   0.991   4.041   0.769  1.1900  0.2043 -0.2146
 4096TIP3   OH233922   0.630   1.626   8.527  0.4215  0.7149 -0.2985
 4096TIP3    H133923   0.692   1.697   8.510  0.8228  0.5851  0.6084
 4096TIP3    H233924   0.580   1.655   8.603  0.3444  0.1808 -0.1424
 4097TIP3   OH233925   1.763   2.535   1.767 -0.4106  0.3736 -0.2523
 4097TIP3    H133926   1.764   2.526   1.863 -3.2732  2.1763  0.0586
 4097TIP3    H233927   1.703   2.607   1.750 -1.1826 -0.8578 -3.5081
 4098TIP3   OH233928   2.066   4.196   1.653  0.3077  0.4330  0.4923
 4098TIP3    H133929   2.112   4.113   1.646 -0.5168 -0.0944  1.0999
 4098TIP3    H233930   1.979   4.173   1.686  0.0523  1.5334  0.6441
 4099TIP3   OH233931   6.543   2.468   7.732 -0.0158 -0.4574  0.3126
 4099TIP3    H133932   6.488   2.483   7.655 -0.8976 -0.6042  0.8951
 4099TIP3    H233933   6.481   2.467   7.805  1.0792  3.2026  1.5106
 4100TIP3   OH233934   4.340   4.875   8.565  0.0668  0.5075  0.2988
 4100TIP3    H133935   4.385   4.922   8.494 -0.7252  0.9923  0.0998
 4100TIP3    H233936   4.409   4.828   8.610  0.8730  1.7473  0.3986
 4101TIP3   OH233937   1.910   1.210   1.935 -0.1080 -0.2186 -0.0844
 4101TIP3    H133938   1.955   1.139   1.981  1.2045  0.4616 -0.2934
 4101TIP3    H233939   1.928   1.288   1.987 -2.6646 -0.1868  0.9138
 4102TIP3   OH233940   2.845   0.277   2.503  0.2646 -0.2919 -0.2916
 4102TIP3    H133941   2.936   0.300   2.486  0.6597 -2.6028 -1.7123
 4102TIP3    H233942   2.843   0.257   2.597  0.2137  3.5123  0.7110
 4103TIP3   OH233943   1.871   5.642   0.858 -0.2036  0.8058  0.9240
 4103TIP3    H133944   1.832   5.729   0.851  0.0140  1.0775  2.7729
 4103TIP3    H233945   1.965   5.658   0.862  0.0353  0.2854 -1.2104
 4104TIP3   OH233946   0.249   1.436   0.171 -0.2201 -0.0496 -0.1356
 4104TIP3    H133947   0.204   1.445   0.255  1.2257 -1.0507  0.7817
 4104TIP3    H233948   0.342   1.443   0.193  0.1598  0.5126 -1.7812
 4105TIP3   OH233949   3.781   2.092   1.874 -0.4813  0.4171 -0.0680
 4105TIP3    H133950   3.776   2.053   1.961  3.7498  0.3476  0.3789
 4105TIP3    H233951   3.761   2.185   1.888 -1.4794  0.1155  0.6097
 4106TIP3   OH233952   6.344   6.339   8.645 -0.3638  0.0584 -0.3738
 4106TIP3    H133953   6.340   6.264   8.585 -2.1366 -0.6020  0.4987
 4106TIP3    H233954   6.293   6.407   8.601  0.7038  0.5754 -0.8653
 4107TIP3   OH233955   2.481   5.382   2.850  0.2539  0.5682 -0.1420
 4107TIP3    H133956   2.431   5.463   2.864 -1.3965 -0.6195  1.2356
 4107TIP3    H233957   2.450   5.322   2.917  1.0471 -1.4102 -1.4369
 4108TIP3   OH233958   2.669   0.523   2.958  0.1194 -0.1141  0.1128
 4108TIP3    H133959   2.603   0.453   2.964 -0.4099  0.1507 -1.9853
 4108TIP3    H233960   2.667   0.564   3.044 -1.1756 -1.2651  0.6780
 4109TIP3   OH233961   4.330   1.732   1.449 -0.0879 -0.0285 -0.1087
 4109TIP3    H133962   4.303   1.694   1.532  1.1531  1.7044  1.1813
 4109TIP3    H233963   4.422   1.755   1.461  0.2773 -0.1753 -2.1530
 4110TIP3   OH233964   1.579   4.968   7.924 -0.8418 -0.3377  0.0089
 4110TIP3    H133965   1.626   4.903   7.977 -0.7909  1.0337  1.7261
 4110TIP3    H233966   1.640   5.041   7.915 -1.3532  0.0003 -0.8233
 4111TIP3   OH233967   3.182   4.919   0.678  0.1934  0.0618  0.3741
 4111TIP3    H133968   3.233   4.843   0.708  0.5629 -0.7468 -2.0730
 4111TIP3    H233969   3.120   4.883   0.615 -1.2155  1.5201  0.8618
 4112TIP3   OH233970   1.094   6.167   0.308  0.3889 -0.2210 -0.3324
 4112TIP3    H133971   1.069   6.259   0.295 -0.9871 -0.8668 -2.7804
 4112TIP3    H233972   1.139   6.167   0.393  2.7342  3.1561 -1.3454
 4113TIP3   OH233973   4.135   4.722   0.685 -0.1158 -0.4441  0.0882
 4113TIP3    H133974   4.156   4.770   0.766  2.1232  0.3157 -0.8710
 4113TIP3    H233975   4.076   4.781   0.638 -0.0373 -0.1135  0.3929
 4114TIP3   OH233976   1.844   3.586   2.018 -0.6819 -0.0428  0.3641
 4114TIP3    H133977   1.935   3.606   2.040  0.0690 -0.9922 -1.6949
 4114TIP3    H233978   1.806   3.556   2.101  1.3524 -1.2634  0.9126
 4115TIP3   OH233979   5.033   0.523   1.843  0.3263  0.3793  0.0770
 4115TIP3    H133980   4.960   0.474   1.805 -2.1658  1.3682  3.1205
 4115TIP3    H233981   4.991   0.593   1.893  3.5286  2.3799  0.2243
 4116TIP3   OH233982   0.354   1.083   8.315  0.1114 -0.8278  0.0829
 4116TIP3    H133983   0.271   1.101   8.270  0.4648  0.5278 -0.0779
 4116TIP3    H233984   0.415   1.062   8.245  0.4011  0.2498 -0.0127
 4117TIP3   OH233985   3.785   4.068   2.627  0.0767  0.6245 -0.2525
 4117TIP3    H133986   3.834   4.043   2.548  0.5827  0.1490  0.2092
 4117TIP3    H233987   3.837   4.139   2.666  0.7068 -0.2443  0.5298
 4118TIP3   OH233988   5.604   6.463   1.119 -0.1937  0.3497  0.3254
 4118TIP3    H133989   5.685   6.514   1.119  0.0707 -0.0461 -0.4772
 4118TIP3    H233990   5.535   6.527   1.102  0.1785  0.4068 -1.1544
 4119TIP3   OH233991   3.031   0.035   1.720 -0.3170  0.2894 -0.0837
 4119TIP3    H133992   3.006   0.119   1.758  0.2064  0.6953 -0.6203
 4119TIP3    H233993   3.075   0.057   1.638  1.6128 -0.3650  0.6906
 4120TIP3   OH233994   3.384   3.041   2.545  0.1952 -0.1104  0.4180
 4120TIP3    H133995   3.326   2.976   2.585 -0.8421  1.3587  1.3678
 4120TIP3    H233996   3.438   2.990   2.485 -1.6223 -1.6378 -0.0210
 4121TIP3   OH233997   2.141   4.229   7.634 -0.2668 -0.7968  0.0936
 4121TIP3    H133998   2.073   4.280   7.678  1.0407  1.4352 -0.3058
 4121TIP3    H233999   2.099   4.194   7.556 -1.3331 -0.6440  0.5911
 4122TIP3   OH234000   4.662   0.911   8.134  0.4043 -0.1302 -0.3428
 4122TIP3    H134001   4.676   0.986   8.077 -0.8676  0.6091  0.2881
 4122TIP3    H234002   4.657   0.836   8.074 -0.2477  0.5442 -1.1448
 4123TIP3   OH234003   0.268   3.463   2.926  0.8718 -0.6011  0.0798
 4123TIP3    H134004   0.215   3.533   2.964  0.8760 -0.0459 -0.9134
 4123TIP3    H234005   0.204   3.402   2.890  0.8844 -0.7465  0.2997
 4124TIP3   OH234006   6.475   0.626   8.374  0.0586  0.2105  0.3502
 4124TIP3    H134007   6.459   0.710   8.418  2.3524  0.4187  0.9121
 4124TIP3    H234008   6.464   0.646   8.281  3.2826  1.9818  0.1806
 4125TIP3   OH234009   0.280   0.263   0.335  0.2896 -0.7150 -0.8139
 4125TIP3    H134010   0.285   0.359   0.332  0.8446 -0.6955  0.2241
 4125TIP3    H234011   0.362   0.234   0.297  0.5385 -0.7541 -0.2540
 4126TIP3   OH234012   1.126   5.164   7.847 -0.3272 -0.2532 -0.0887
 4126TIP3    H134013   1.156   5.185   7.936  0.9104 -1.2571 -0.2522
 4126TIP3    H234014   1.159   5.076   7.831  1.7073  0.8357 -2.5179
 4127TIP3   OH234015   0.131   5.078   2.640  0.6666  0.3179  0.1085
 4127TIP3    H134016   0.105   5.104   2.728  0.2689  1.2100 -0.2666
 4127TIP3    H234017   0.087   4.994   2.626 -1.2579  1.3114 -0.1329
 4128TIP3   OH234018   0.505   2.727   0.566  0.0704  0.2527 -0.1617
 4128TIP3    H134019   0.536   2.724   0.657  0.3297 -1.5768 -0.2578
 4128TIP3    H234020   0.581   2.702   0.514 -0.7726 -1.5727 -0.6222
 4129TIP3   OH234021   5.373   4.848   0.700  0.4550 -0.2950  0.3849
 4129TIP3    H134022   5.420   4.788   0.758 -1.1348 -2.3201 -0.2761
 4129TIP3    H234023   5.345   4.793   0.627 -1.0059  1.2847 -0.3101
 4130TIP3   OH234024   5.132   0.940   1.253  0.2138 -0.2151 -0.7546
 4130TIP3    H134025   5.211   0.905   1.294  1.1757  1.8915 -0.6821
 4130TIP3    H234026   5.084   0.982   1.324 -0.4233 -0.5035 -1.0046
 4131TIP3   OH234027   6.766   3.924   8.643 -0.5040  0.3804  0.3704
 4131TIP3    H134028   6.698   3.899   8.580 -0.4147  0.5410  0.2074
 4131TIP3    H234029   6.846   3.932   8.590 -0.1239 -0.8168  0.7196
 4132TIP3   OH234030   2.594   2.568   8.566 -0.4426 -0.1138 -0.3809
 4132TIP3    H134031   2.579   2.572   8.472  0.7997  0.5885 -0.5649
 4132TIP3    H234032   2.510   2.541   8.603 -1.4431  1.2647 -1.5546
 4133TIP3   OH234033   5.567   0.112   2.706 -0.0050 -0.1001 -0.3176
 4133TIP3    H134034   5.570   0.202   2.673 -0.3812 -0.5612 -1.6906
 4133TIP3    H234035   5.658   0.091   2.728 -0.0074  0.8304  0.7042
 4134TIP3   OH234036   4.184   0.539   7.416  0.1400  0.5692  0.6604
 4134TIP3    H134037   4.136   0.513   7.495  2.3296 -2.6724  1.1081
 4134TIP3    H234038   4.170   0.467   7.355  3.2618  0.0838  0.3675
 4135TIP3   OH234039   5.484   4.496   2.973 -0.4937 -0.0517  0.0106
 4135TIP3    H134040   5.450   4.455   2.893 -0.3247  0.8619 -0.5498
 4135TIP3    H234041   5.424   4.469   3.042 -1.4726  0.2894 -0.6908
 4136TIP3   OH234042   2.066   3.569   2.185  0.5787  0.8841  0.3379
 4136TIP3    H134043   2.074   3.656   2.225 -0.0863  0.1773  2.1193
 4136TIP3    H234044   2.061   3.509   2.260  0.7206 -0.6631 -0.8505
 4137TIP3   OH234045   3.038   4.730   0.927  0.1367 -0.6357 -0.0126
 4137TIP3    H134046   2.967   4.677   0.964 -0.7204  1.5143  1.6070
 4137TIP3    H234047   3.044   4.806   0.984  1.3068  1.0586 -2.2391
 4138TIP3   OH234048   1.532   4.396   7.646 -0.3982 -0.8192  0.5802
 4138TIP3    H134049   1.582   4.353   7.716  0.1942 -2.5704 -0.8333
 4138TIP3    H234050   1.516   4.326   7.582 -2.3127  0.3495 -0.2982
 4139TIP3   OH234051   3.600   4.366   1.465 -0.3104 -0.0091  0.7252
 4139TIP3    H134052   3.521   4.350   1.413 -1.0727  1.5855  1.3426
 4139TIP3    H234053   3.664   4.399   1.402 -0.1938 -1.0344  0.2767
 4140TIP3   OH234054   4.198   1.079   1.984 -0.1503  0.2212 -0.0545
 4140TIP3    H134055   4.253   1.089   2.061 -1.2476  1.1130  0.6446
 4140TIP3    H234056   4.259   1.061   1.913  0.8622 -0.9096  1.0534
 4141TIP3   OH234057   4.556   0.191   8.163 -0.4332  0.6241 -0.0782
 4141TIP3    H134058   4.578   0.109   8.208  2.3579  1.4582  0.2665
 4141TIP3    H234059   4.608   0.188   8.082 -1.3143  1.4901 -0.7010
 4142TIP3   OH234060   3.010   5.874   0.198 -0.2632  0.8563 -0.2496
 4142TIP3    H134061   2.921   5.862   0.230 -1.1254 -0.2706 -2.8151
 4142TIP3    H234062   3.002   5.937   0.126  0.8077  0.0061 -1.1535
 4143TIP3   OH234063   5.340   2.087   8.548 -0.4649  0.4480 -0.0862
 4143TIP3    H134064   5.435   2.091   8.535 -0.5084 -0.0674 -0.6006
 4143TIP3    H234065   5.309   2.173   8.521 -0.1508  0.6160  0.0728
 4144TIP3   OH234066   0.915   2.574   1.760  0.0356 -0.3136 -0.3450
 4144TIP3    H134067   0.974   2.524   1.816  0.0072 -1.5690 -1.4042
 4144TIP3    H234068   0.909   2.523   1.679 -1.7326  0.2721 -0.6239
 4145TIP3   OH234069   1.949   1.665   7.863  0.2853 -0.2011  0.2738
 4145TIP3    H134070   1.995   1.583   7.845 -0.5130 -0.9016  1.3031
 4145TIP3    H234071   1.859   1.638   7.883 -0.0038  0.9281  0.5496
 4146TIP3   OH234072   3.821   6.085   2.174 -0.1827 -0.4373 -0.5211
 4146TIP3    H134073   3.808   5.991   2.187  1.5588 -0.8917 -1.6748
 4146TIP3    H234074   3.741   6.126   2.206 -1.5158 -2.4133 -1.1874
 4147TIP3   OH234075   1.237   5.762   0.647  0.0021  0.6785  0.2435
 4147TIP3    H134076   1.271   5.683   0.689 -0.9425 -1.1299 -2.1572
 4147TIP3    H234077   1.150   5.773   0.684  0.2132  0.7212  0.7347
 4148TIP3   OH234078   3.712   3.986   0.535  0.0456  0.0666 -0.0449
 4148TIP3    H134079   3.747   3.908   0.577 -1.6143 -0.8638 -0.3337
 4148TIP3    H234080   3.685   4.042   0.608  1.5407  0.5549  0.1689
 4149TIP3   OH234081   5.008   2.031   0.672  0.0627 -0.1876  0.3991
 4149TIP3    H134082   4.981   2.053   0.583 -0.5180 -1.4987  0.2252
 4149TIP3    H234083   5.034   2.114   0.711 -1.4775  0.6917 -0.3777
 4150TIP3   OH234084   0.584   2.297   1.679  0.6333 -0.0532 -0.1439
 4150TIP3    H134085   0.655   2.263   1.626  0.9975  0.1473  0.2119
 4150TIP3    H234086   0.541   2.362   1.624 -0.0855 -1.0853 -0.8463
 4151TIP3   OH234087   6.164   2.141   3.335  0.3688  0.2176  0.3590
 4151TIP3    H134088   6.226   2.209   3.361 -0.5007  0.6701  1.3368
 4151TIP3    H234089   6.197   2.109   3.252  1.6766  0.7388  0.6526
 4152TIP3   OH234090   0.400   3.866   1.746 -0.9485 -0.7181 -0.3980
 4152TIP3    H134091   0.392   3.775   1.717  2.3639 -0.7923 -1.5423
 4152TIP3    H234092   0.410   3.917   1.666  0.4942  0.1504  0.2803
 4153TIP3   OH234093   5.955   3.961   1.345 -0.5056  0.1378  0.3252
 4153TIP3    H134094   5.887   4.015   1.385 -1.0995 -1.4504  1.5522
 4153TIP3    H234095   6.016   3.943   1.416  0.0245 -0.2881 -0.2274
 4154TIP3   OH234096   0.340   0.663   1.517 -0.3738  0.5946  0.4951
 4154TIP3    H134097   0.286   0.699   1.587  0.1577 -0.4929  1.4948
 4154TIP3    H234098   0.391   0.593   1.559  1.0064  0.8560 -0.6447
 4155TIP3   OH234099   2.884   2.440   1.860 -0.6113 -0.1062  0.2348
 4155TIP3    H134100   2.875   2.385   1.938  1.3120  2.1526  2.2400
 4155TIP3    H234101   2.973   2.422   1.828 -0.8558  0.0592 -0.5520
 4156TIP3   OH234102   1.567   5.794   2.384 -0.1954 -0.2144  0.4436
 4156TIP3    H134103   1.483   5.748   2.383 -1.0136  1.1994 -1.1965
 4156TIP3    H234104   1.567   5.845   2.303  2.9933 -1.4520 -0.4931
 4157TIP3   OH234105   2.508   3.021   0.143 -0.3958  0.5954 -0.4602
 4157TIP3    H134106   2.600   3.040   0.161 -0.3417  2.0902 -2.0797
 4157TIP3    H234107   2.510   2.960   0.070 -0.6840  0.8573 -0.6911
 4158TIP3   OH234108   3.897   6.845   2.719  0.1517  0.0623  0.2087
 4158TIP3    H134109   3.915   6.834   2.812 -0.2783  1.3843  0.4780
 4158TIP3    H234110   3.945   6.925   2.695 -0.5419  0.2925 -0.4562
 4159TIP3   OH234111   0.572   0.583   7.510  0.1500  0.4995  0.3716
 4159TIP3    H134112   0.631   0.600   7.437  1.2686 -1.3097  0.7899
 4159TIP3    H234113   0.498   0.537   7.471  0.0725  0.8012  0.1654
 4160TIP3   OH234114   4.331   3.145   0.855  0.1406 -0.0873  0.1207
 4160TIP3    H134115   4.305   3.228   0.894  0.8658 -0.6058  1.8168
 4160TIP3    H234116   4.249   3.107   0.822 -0.2829  1.0054 -0.1117
 4161TIP3   OH234117   2.136   5.819   8.301 -0.0073  0.7045 -0.1310
 4161TIP3    H134118   2.086   5.738   8.292  1.6978 -0.7073  2.0467
 4161TIP3    H234119   2.070   5.888   8.298 -1.8711 -0.9348  0.7932
 4162TIP3   OH234120   2.579   4.278   3.075  0.3452  0.7924  0.4501
 4162TIP3    H134121   2.559   4.367   3.103  0.2158  1.2029 -0.8747
 4162TIP3    H234122   2.494   4.233   3.076  0.0498  1.2680 -0.7986
 4163TIP3   OH234123   3.244   6.396   0.751  0.0066  0.1311 -0.0070
 4163TIP3    H134124   3.151   6.376   0.763  0.3086 -0.6151  1.2742
 4163TIP3    H234125   3.282   6.384   0.837  1.4884 -0.6033 -0.7278
 4164TIP3   OH234126   3.141   4.338   8.259 -0.3384  0.7334  0.2498
 4164TIP3    H134127   3.107   4.399   8.324  1.6265  0.9553  1.1548
 4164TIP3    H234128   3.082   4.347   8.184  0.0052  3.9746  0.2285
 4165TIP3   OH234129   5.648   4.530   2.281 -0.3351  0.4533 -0.1873
 4165TIP3    H134130   5.594   4.457   2.314  0.5658 -0.0768  0.1579
 4165TIP3    H234131   5.683   4.498   2.198  0.3953  0.3085  0.1623
 4166TIP3   OH234132   0.439   4.468   7.133 -0.1410  0.1165  0.3137
 4166TIP3    H134133   0.508   4.403   7.149 -1.6361 -2.1164 -1.6161
 4166TIP3    H234134   0.386   4.466   7.213 -0.3670 -1.3754  0.1675
 4167TIP3   OH234135   2.399   6.576   2.238 -0.7618  0.2807 -0.2207
 4167TIP3    H134136   2.479   6.625   2.219 -1.9313  2.3255 -0.0932
 4167TIP3    H234137   2.378   6.532   2.155  0.8991 -0.9839 -0.0309
 4168TIP3   OH234138   3.603   6.038   3.498 -0.4065  0.4495  0.2970
 4168TIP3    H134139   3.591   6.092   3.576 -1.8916 -2.8419  2.6270
 4168TIP3    H234140   3.696   6.015   3.499 -0.1669  1.3732  0.3834
 4169TIP3   OH234141   3.404   5.195   7.623  0.0591  0.2719  0.0052
 4169TIP3    H134142   3.392   5.243   7.541  0.3754 -0.1317 -0.2770
 4169TIP3    H234143   3.412   5.103   7.597  1.2870  0.2503  0.3763
 4170TIP3   OH234144   0.065   6.134   8.355 -0.5559 -0.8021  0.1578
 4170TIP3    H134145   0.086   6.207   8.414  1.3741  1.0602 -2.6128
 4170TIP3    H234146  -0.031   6.135   8.349 -0.6320  0.7879  1.0310
 4171TIP3   OH234147   1.109   1.268   7.689  0.2222  0.2630  0.0456
 4171TIP3    H134148   1.122   1.191   7.635  1.4967 -0.8943  1.8988
 4171TIP3    H234149   1.147   1.340   7.638  1.9679 -0.8976 -0.3723
 4172TIP3   OH234150   5.444   0.742   7.603 -0.1703  0.0828  0.6455
 4172TIP3    H134151   5.422   0.698   7.521 -1.7065 -1.3594  1.7767
 4172TIP3    H234152   5.429   0.677   7.671  2.1084  0.8902  2.0473
 4173TIP3   OH234153   4.284   2.060   8.483  0.2272  0.4459 -0.4360
 4173TIP3    H134154   4.327   2.037   8.566  0.9421  0.0737 -0.8875
 4173TIP3    H234155   4.192   2.040   8.497 -0.1613  2.9085  1.1594
 4174TIP3   OH234156   2.198   2.015   7.999  0.1770 -0.1938 -0.4432
 4174TIP3    H134157   2.112   1.993   8.037  1.1763 -1.1665  1.4115
 4174TIP3    H234158   2.217   2.102   8.034  0.6691 -0.6970  0.6232
 4175TIP3   OH234159   0.121   6.562   2.826 -0.0952 -0.4586  0.2959
 4175TIP3    H134160   0.050   6.510   2.864  0.1593 -0.9049  0.1768
 4175TIP3    H234161   0.077   6.631   2.777 -0.4440 -0.7192  0.2383
 4176TIP3   OH234162   1.158   5.579   0.857 -0.1730 -0.1532 -0.8165
 4176TIP3    H134163   1.116   5.518   0.918  0.2864 -1.4155 -1.7340
 4176TIP3    H234164   1.212   5.524   0.801  2.9192  1.4105  0.4022
 4177TIP3   OH234165   5.434   0.964   1.176 -0.8289  0.2604 -0.3256
 4177TIP3    H134166   5.414   1.032   1.112 -0.0011 -0.5274 -1.4526
 4177TIP3    H234167   5.423   0.882   1.129  1.7419 -0.3037 -0.1102
 4178TIP3   OH234168   5.316   3.685   0.478 -0.4153  0.3000 -0.1241
 4178TIP3    H134169   5.240   3.722   0.433  0.8263  2.0817 -0.9272
 4178TIP3    H234170   5.289   3.678   0.570 -0.8866  3.0751  0.0457
 4179TIP3   OH234171   5.109   0.782   1.625  0.1204 -0.1982  0.1390
 4179TIP3    H134172   5.017   0.807   1.634  0.4358  0.4630  1.8704
 4179TIP3    H234173   5.111   0.726   1.547 -1.3651  1.5327 -1.2350
 4180TIP3   OH234174   0.677   3.277   1.776 -0.4034 -0.1431 -0.3274
 4180TIP3    H134175   0.681   3.229   1.859 -2.0961  1.3940  0.7336
 4180TIP3    H234176   0.598   3.331   1.784  0.5035  1.5615 -2.1144
 4181TIP3   OH234177   0.156   5.184   1.652  0.0946 -0.2188 -0.4957
 4181TIP3    H134178   0.182   5.102   1.695  0.1549 -0.5660 -1.1719
 4181TIP3    H234179   0.128   5.241   1.724 -0.0431 -0.8665 -0.0212
 4182TIP3   OH234180   3.458   4.908   1.077 -0.0766 -0.6390 -0.4274
 4182TIP3    H134181   3.448   4.911   1.172  1.1675  2.5989 -0.2747
 4182TIP3    H234182   3.369   4.917   1.043 -0.4039 -0.5100  0.4557
 4183TIP3   OH234183   0.710   1.097   1.980  0.0639  0.0400 -0.1480
 4183TIP3    H134184   0.654   1.039   2.032  0.6661  0.4600  1.0128
 4183TIP3    H234185   0.649   1.147   1.927 -0.4443 -2.4591 -2.1484
 4184TIP3   OH234186   2.153   1.747   7.656  0.2632 -0.7510  0.4533
 4184TIP3    H134187   2.128   1.679   7.594 -1.2171  1.6337 -1.7520
 4184TIP3    H234188   2.131   1.710   7.742 -0.6605 -2.9371 -0.6355
 4185TIP3   OH234189   2.044   0.083   1.407 -0.1632 -0.6553 -0.7588
 4185TIP3    H134190   2.040  -0.013   1.404 -1.5380 -0.6558 -0.0304
 4185TIP3    H234191   2.039   0.104   1.500 -1.4205  0.1549 -0.9866
 4186TIP3   OH234192   3.049   2.235   3.085  0.0282 -0.0071  0.4693
 4186TIP3    H134193   3.103   2.204   3.012 -0.6322 -3.2969  1.2243
 4186TIP3    H234194   3.098   2.210   3.163  0.5833  3.2070  1.2910
 4187TIP3   OH234195   2.475   1.614   7.256  0.2642  0.0651  0.1545
 4187TIP3    H134196   2.511   1.639   7.171  0.0539  0.1294  0.0846
 4187TIP3    H234197   2.522   1.667   7.319  0.5612 -0.1242  0.0953
 4188TIP3   OH234198   6.066   5.522   0.787  0.0107 -0.4102  0.1945
 4188TIP3    H134199   6.136   5.503   0.849 -0.5670 -3.3900  0.0723
 4188TIP3    H234200   6.021   5.599   0.825  1.8550  0.0963  1.4880
 4189TIP3   OH234201   6.728   6.866   3.061 -0.2831  0.0974 -0.6238
 4189TIP3    H134202   6.656   6.930   3.063  0.2539  0.7106 -0.4694
 4189TIP3    H234203   6.733   6.833   3.151 -0.0790  0.4003 -0.5197
 4190TIP3   OH234204   3.914   4.064   7.680 -0.3723 -0.1665  0.0258
 4190TIP3    H134205   3.820   4.085   7.683 -0.5525 -0.9792  0.2796
 4190TIP3    H234206   3.917   3.974   7.648  0.3811  0.1788 -0.9045
 4191TIP3   OH234207   2.448   3.327   0.716  0.0715  0.1010 -0.1630
 4191TIP3    H134208   2.420   3.241   0.747  0.8868  0.1095  0.6396
 4191TIP3    H234209   2.493   3.310   0.634 -1.2539 -0.0337 -0.8879
 4192TIP3   OH234210   4.446   5.499   0.930  0.4096 -0.2076 -0.2813
 4192TIP3    H134211   4.391   5.497   0.851  0.9334  3.8426 -0.9232
 4192TIP3    H234212   4.390   5.460   0.998 -1.1649 -1.1368 -2.0036
 4193TIP3   OH234213   1.401   5.260   3.235  0.1225 -0.5244 -0.4910
 4193TIP3    H134214   1.463   5.194   3.266 -0.8982 -1.3063 -0.0217
 4193TIP3    H234215   1.426   5.340   3.280 -0.3819 -1.2865  1.2384
 4194TIP3   OH234216   1.509   4.032   2.755 -0.2848 -0.2628  0.3196
 4194TIP3    H134217   1.477   4.008   2.668  1.2246  3.6532 -1.5978
 4194TIP3    H234218   1.590   3.982   2.766 -0.0615 -0.2043 -0.9492
 4195TIP3   OH234219   6.569   0.555   0.205  0.0296  0.3100  0.6731
 4195TIP3    H134220   6.489   0.602   0.226  0.4369  1.3737 -0.0269
 4195TIP3    H234221   6.566   0.476   0.258 -1.3649  0.4453  0.8243
 4196TIP3   OH234222   6.652   2.898   7.643  0.0137  0.5937 -0.4055
 4196TIP3    H134223   6.699   2.973   7.607 -0.7962  2.1920  1.6604
 4196TIP3    H234224   6.601   2.865   7.569  3.5057 -0.6693 -2.5193
 4197TIP3   OH234225   6.359   0.292   0.612 -0.1586 -0.2695 -0.6843
 4197TIP3    H134226   6.298   0.336   0.553  0.9395  1.5195 -0.5709
 4197TIP3    H234227   6.352   0.199   0.590 -0.8578  0.1957 -2.5894
 4198TIP3   OH234228   5.931   5.540   1.326 -0.1914  0.4632 -0.1917
 4198TIP3    H134229   5.841   5.523   1.299  0.1413 -1.1884 -0.3961
 4198TIP3    H234230   5.985   5.507   1.254  0.6080 -0.5079  0.8107
 4199TIP3   OH234231   0.018   6.739   2.649  0.2207 -0.4202 -0.2132
 4199TIP3    H134232   0.082   6.731   2.579 -0.0871 -2.1155 -0.3527
 4199TIP3    H234233  -0.038   6.812   2.623  2.0939  1.1601 -0.0395
 4200TIP3   OH234234   6.124   0.911   3.124 -0.7168  0.6775 -0.2968
 4200TIP3    H134235   6.070   0.872   3.055 -0.6890  0.7658 -0.3681
 4200TIP3    H234236   6.076   0.990   3.151 -1.7508 -0.3839  1.1621
 4201TIP3   OH234237   0.101   0.005   0.364  0.7363  0.4387 -0.2348
 4201TIP3    H134238   0.124   0.093   0.335  2.2617 -0.4325 -1.8305
 4201TIP3    H234239   0.184  -0.041   0.371  0.0750 -0.5550  1.7889
 4202TIP3   OH234240   2.951   3.229   8.100 -0.1100 -0.1079 -0.0257
 4202TIP3    H134241   2.925   3.306   8.051  0.3842 -0.0525 -0.2024
 4202TIP3    H234242   2.995   3.264   8.178 -1.3125 -0.1800  0.7211
 4203TIP3   OH234243   1.483   4.465   2.184  0.1529  0.0514 -0.9526
 4203TIP3    H134244   1.488   4.387   2.129 -0.2920  0.5084 -1.6472
 4203TIP3    H234245   1.416   4.443   2.250  0.7928 -0.5485 -0.4834
 4204TIP3   OH234246   4.453   6.596   8.082  0.2185 -0.5235  0.4105
 4204TIP3    H134247   4.365   6.583   8.119 -0.4925 -0.2810 -1.1112
 4204TIP3    H234248   4.512   6.558   8.147 -1.1124 -2.0932  0.7803
 4205TIP3   OH234249   1.505   5.121   0.111 -0.3044 -0.1130 -0.5022
 4205TIP3    H134250   1.576   5.091   0.054  0.7482  1.4027 -0.0597
 4205TIP3    H234251   1.500   5.216   0.094 -2.2064 -0.1630 -0.4823
 4206TIP3   OH234252   1.090   5.145   1.898  0.2951 -0.0776 -0.3767
 4206TIP3    H134253   1.129   5.232   1.905 -1.4571  0.9100 -1.9205
 4206TIP3    H234254   1.124   5.097   1.973  0.2507  2.3797  1.3317
 4207TIP3   OH234255   2.300   3.344   2.538 -0.2483  0.1846 -0.7169
 4207TIP3    H134256   2.220   3.292   2.550 -0.8969  1.1643 -0.6561
 4207TIP3    H234257   2.333   3.318   2.452 -0.2699 -0.6996 -0.4657
 4208TIP3   OH234258   6.869   6.012   1.327 -0.4800  0.7158 -0.0835
 4208TIP3    H134259   6.780   6.032   1.357 -0.4388  0.3168  0.3076
 4208TIP3    H234260   6.917   6.094   1.341 -0.5104  0.5969  0.7731
 4209TIP3   OH234261   5.414   5.510   3.218  0.8447  0.4130  0.0352
 4209TIP3    H134262   5.376   5.425   3.240  1.4959  0.1028 -0.0225
 4209TIP3    H234263   5.452   5.542   3.299 -2.3465  2.2569  0.9660
 4210TIP3   OH234264   4.650   4.209   8.230 -0.0734  0.7529 -0.1571
 4210TIP3    H134265   4.556   4.221   8.244 -1.0333 -2.9950 -1.9144
 4210TIP3    H234266   4.656   4.166   8.144  3.0411 -1.2435  0.8785
 4211TIP3   OH234267   2.922   0.248   1.362 -0.4077  0.4131 -0.1658
 4211TIP3    H134268   2.945   0.340   1.367 -0.6577  0.4568  0.2186
 4211TIP3    H234269   2.850   0.237   1.424  0.5445 -0.3227  0.8506
 4212TIP3   OH234270   3.042   0.761   0.113 -0.4688 -0.1145 -0.0084
 4212TIP3    H134271   2.952   0.781   0.086 -1.0557 -1.5438  0.7788
 4212TIP3    H234272   3.060   0.823   0.184 -1.5724 -1.0752  1.1558
 4213TIP3   OH234273   5.711   0.392   1.596  0.6257  0.2449  0.4844
 4213TIP3    H134274   5.678   0.409   1.684  0.9827  0.3902  0.5914
 4213TIP3    H234275   5.803   0.416   1.599  1.0119 -1.1427  0.4744
 4214TIP3   OH234276   6.650   2.283   8.622 -0.4178 -0.1440 -0.3050
 4214TIP3    H134277   6.624   2.368   8.586 -0.6352 -0.4221 -0.8150
 4214TIP3    H234278   6.651   2.224   8.546 -2.2849 -1.0823  0.3493
 4215TIP3   OH234279   5.500   1.630   2.120 -0.3927  0.2749 -0.4194
 4215TIP3    H134280   5.550   1.676   2.187  0.9717  1.0407 -1.8927
 4215TIP3    H234281   5.488   1.542   2.155  0.5581  0.5575  0.6731
 4216TIP3   OH234282   5.583   1.397   0.800  0.0730  0.1971 -0.3635
 4216TIP3    H134283   5.609   1.428   0.887  0.5098 -0.3412 -0.2961
 4216TIP3    H234284   5.501   1.444   0.781  0.4107  0.9452 -0.0218
 4217TIP3   OH234285   1.708   5.497   2.351 -0.7240  0.1850  0.5855
 4217TIP3    H134286   1.738   5.585   2.375  1.0478 -0.6017  1.5258
 4217TIP3    H234287   1.755   5.440   2.411 -2.3115 -1.3787  0.3967
 4218TIP3   OH234288   6.573   1.466   1.875 -1.2816 -0.2297 -0.0378
 4218TIP3    H134289   6.526   1.547   1.852 -0.4378 -0.0670 -1.3222
 4218TIP3    H234290   6.507   1.398   1.869 -1.5169  0.0714 -1.2613
 4219TIP3   OH234291   5.280   2.378   1.986 -0.2468 -0.1637 -0.3683
 4219TIP3    H134292   5.356   2.416   2.031  1.1790 -1.4650 -1.5539
 4219TIP3    H234293   5.210   2.441   2.000  1.0885  1.1664  0.6597
 4220TIP3   OH234294   1.329   1.734   0.304 -0.1487  0.5268 -0.3563
 4220TIP3    H134295   1.391   1.732   0.231  0.7677  1.4397  0.3729
 4220TIP3    H234296   1.382   1.757   0.380 -0.9677 -1.0297  0.7463
 4221TIP3   OH234297   0.844   5.066   7.608 -0.3849  0.2173  0.1985
 4221TIP3    H134298   0.921   5.062   7.551  0.8864 -0.2025  1.8406
 4221TIP3    H234299   0.769   5.060   7.549  0.8611 -1.0575 -1.3305
 4222TIP3   OH234300   0.558   1.814   7.931 -0.1573 -0.1044 -0.4797
 4222TIP3    H134301   0.565   1.800   8.026 -4.0407  2.1272  0.3477
 4222TIP3    H234302   0.648   1.808   7.900  1.3416 -0.7129  3.3792
 4223TIP3   OH234303   0.081   6.340   0.961  0.1538 -0.3694  0.2203
 4223TIP3    H134304   0.176   6.351   0.957  0.0643  0.4662  0.1705
 4223TIP3    H234305   0.068   6.259   1.011  0.9003 -0.8719 -0.3724
 4224TIP3   OH234306   1.429   5.051   1.060 -0.0119  0.0960  0.3736
 4224TIP3    H134307   1.362   4.998   1.103 -1.8676  0.8103 -1.5156
 4224TIP3    H234308   1.500   4.989   1.042 -2.4276 -2.1368 -2.5273
 4225TIP3   OH234309   2.628   5.561   0.283 -1.0737  0.1076  0.6457
 4225TIP3    H134310   2.599   5.472   0.303 -0.0371 -0.3007  0.4223
 4225TIP3    H234311   2.575   5.587   0.209 -1.9398 -0.0161  1.2080
 4226TIP3   OH234312   4.252   3.428   0.074 -0.5539 -0.5206  0.1458
 4226TIP3    H134313   4.205   3.370   0.134 -1.1243  0.2372  0.4445
 4226TIP3    H234314   4.200   3.508   0.071  0.5616  0.2430  0.2800
 4227TIP3   OH234315   2.156   5.649   1.827 -0.1912 -0.1567  0.2129
 4227TIP3    H134316   2.092   5.578   1.837  0.1487 -0.5978 -0.6627
 4227TIP3    H234317   2.232   5.620   1.879  0.1460 -0.6883 -0.5608
 4228TIP3   OH234318   0.397   5.275   2.657  0.0626 -0.5203 -0.2464
 4228TIP3    H134319   0.476   5.303   2.609  0.4851 -0.7185  0.3247
 4228TIP3    H234320   0.327   5.328   2.619  0.2942 -1.0113 -1.4243
 4229TIP3   OH234321   2.081   6.511   0.347 -0.2182 -0.1922  0.5702
 4229TIP3    H134322   2.081   6.497   0.441  0.0675 -0.4194  0.5370
 4229TIP3    H234323   1.990   6.496   0.320 -0.0535 -1.3632  0.6318
 4230TIP3   OH234324   1.476   2.465   2.021 -0.4488  0.0673  0.2450
 4230TIP3    H134325   1.429   2.398   2.071 -0.1650 -0.3671 -0.0804
 4230TIP3    H234326   1.413   2.494   1.955 -1.6789  2.2498  2.2007
 4231TIP3   OH234327   6.001   4.274   3.507 -0.1587 -0.3286  0.4652
 4231TIP3    H134328   6.019   4.215   3.434  2.0355 -0.0233  0.7170
 4231TIP3    H234329   6.081   4.273   3.560 -0.6053  1.7340  1.2695
 4232TIP3   OH234330   0.860   1.810   0.390 -0.6085  0.1079 -0.6382
 4232TIP3    H134331   0.876   1.903   0.407  1.6886 -0.1992 -0.7876
 4232TIP3    H234332   0.840   1.774   0.477 -1.6650  0.7353 -0.6005
 4233TIP3   OH234333   1.042   5.174   1.463 -0.6557  0.1625 -0.3561
 4233TIP3    H134334   0.987   5.187   1.540  0.0391  1.0988 -0.0071
 4233TIP3    H234335   1.060   5.080   1.463  0.5607  0.3351  1.5098
 4234TIP3   OH234336   1.452   6.546   2.343 -0.0170  0.0224  0.2483
 4234TIP3    H134337   1.382   6.489   2.312 -0.3925 -0.6900  2.2457
 4234TIP3    H234338   1.488   6.585   2.263 -1.2862 -1.2022 -0.9916
 4235TIP3   OH234339   4.400   4.155   0.239  1.0129 -0.0530  0.0585
 4235TIP3    H134340   4.354   4.180   0.319 -0.8610  1.7170 -1.4304
 4235TIP3    H234341   4.418   4.238   0.195  4.1931 -0.8159 -0.2967
 4236TIP3   OH234342   6.653   2.137   1.657  0.5343 -0.3467 -0.9119
 4236TIP3    H134343   6.674   2.118   1.565 -0.0635  0.8402 -1.3209
 4236TIP3    H234344   6.694   2.221   1.674  1.8287 -1.1887  0.3732
 4237TIP3   OH234345   5.408   3.648   7.729 -0.5313  0.1010  0.0081
 4237TIP3    H134346   5.398   3.567   7.780 -3.0438 -0.4806 -1.2553
 4237TIP3    H234347   5.490   3.686   7.761  0.7956 -2.9540  0.5975
 4238TIP3   OH234348   1.663   4.785   8.120  0.1030  0.5732 -0.7068
 4238TIP3    H134349   1.600   4.720   8.153  1.2926  0.3416  1.2983
 4238TIP3    H234350   1.745   4.736   8.109  1.1048  1.7084  1.1100
 4239TIP3   OH234351   5.996   6.275   8.372  0.5611 -0.7015  0.2560
 4239TIP3    H134352   6.084   6.237   8.371  0.6486 -0.5252 -1.1809
 4239TIP3    H234353   5.981   6.303   8.282 -0.3610  0.7089  0.8158
 4240TIP3   OH234354   5.397   0.521   2.187 -0.2744  0.1102  0.3167
 4240TIP3    H134355   5.336   0.478   2.127  0.3330  0.0380 -0.2555
 4240TIP3    H234356   5.411   0.607   2.148 -0.9743  0.6041  1.1104
 4241TIP3   OH234357   0.717   1.147   2.672 -0.2506 -0.1909  0.2451
 4241TIP3    H134358   0.728   1.052   2.670 -0.5753 -0.3812  3.1893
 4241TIP3    H234359   0.690   1.169   2.583 -2.1687 -3.1246 -0.0573
 4242TIP3   OH234360   6.540   3.519   2.515  0.2383  0.1288  0.3348
 4242TIP3    H134361   6.544   3.606   2.555 -1.7056  0.2167  0.4372
 4242TIP3    H234362   6.508   3.462   2.585 -0.8752 -0.1754 -0.3939
 4243TIP3   OH234363   3.721   0.281   0.566 -0.2033  0.0941 -0.1907
 4243TIP3    H134364   3.807   0.321   0.553  0.1892  0.0732  2.0295
 4243TIP3    H234365   3.705   0.288   0.660 -0.6164 -3.9238  0.1908
 4244TIP3   OH234366   3.808   0.288   2.180  0.0564 -0.0791 -0.0408
 4244TIP3    H134367   3.848   0.204   2.157 -2.3172 -0.7670 -2.2105
 4244TIP3    H234368   3.812   0.292   2.275  0.2421 -2.6685  0.1234
 4245TIP3   OH234369   6.136   2.472   8.403  0.2611 -0.1606 -0.5702
 4245TIP3    H134370   6.063   2.529   8.380 -0.5183 -0.4399  1.0622
 4245TIP3    H234371   6.101   2.414   8.471  1.3080 -1.9422 -1.4813
 4246TIP3   OH234372   1.459   1.876   7.532  0.0226 -1.0508 -0.2832
 4246TIP3    H134373   1.548   1.849   7.509  0.1959  0.7704 -2.0749
 4246TIP3    H234374   1.402   1.819   7.480  0.2816 -0.2758 -1.4712
 4247TIP3   OH234375   5.651   4.162   1.189 -0.7062 -0.3106 -0.2464
 4247TIP3    H134376   5.677   4.240   1.239 -2.6323 -0.1159  0.5205
 4247TIP3    H234377   5.721   4.151   1.124  0.7589  0.7017  1.0943
 4248TIP3   OH234378   4.182   3.883   0.595 -0.2858 -0.2297 -0.9604
 4248TIP3    H134379   4.227   3.800   0.606  1.3414  0.7672  0.4575
 4248TIP3    H234380   4.095   3.860   0.563  0.1756 -2.4396 -0.7445
 4249TIP3   OH234381   5.308   6.104   8.529 -0.5163  0.0742  0.1538
 4249TIP3    H134382   5.378   6.077   8.587  0.9414 -3.2639 -2.7806
 4249TIP3    H234383   5.230   6.060   8.563  0.2255 -1.4968 -0.1062
 4250TIP3   OH234384   1.670   1.588   7.643 -0.4892 -0.2015 -0.7735
 4250TIP3    H134385   1.685   1.664   7.588  1.2473  0.0999  0.0329
 4250TIP3    H234386   1.706   1.515   7.594  2.2683  0.2554  0.3984
 4251TIP3   OH234387   0.535   3.365   7.955 -0.1323 -0.0375  0.1793
 4251TIP3    H134388   0.624   3.349   7.923 -0.1585 -1.2791  0.6609
 4251TIP3    H234389   0.481   3.300   7.909 -0.9998  1.4537 -0.9779
 4252TIP3   OH234390   2.755   5.022   3.200 -0.2360  0.0579  0.3950
 4252TIP3    H134391   2.795   5.109   3.197  0.3880 -0.2463 -0.7198
 4252TIP3    H234392   2.802   4.972   3.133 -0.5174 -1.1701  1.0851
 4253TIP3   OH234393   6.611   4.237   3.569  0.6588 -0.0520  0.0970
 4253TIP3    H134394   6.574   4.308   3.516  0.5880 -1.1666 -1.4154
 4253TIP3    H234395   6.681   4.279   3.619  1.1097  0.9474 -1.3157
 4254TIP3   OH234396   3.211   1.484   3.504 -0.2206 -0.1801 -0.2019
 4254TIP3    H134397   3.227   1.578   3.510 -0.6015 -0.1211 -0.1075
 4254TIP3    H234398   3.155   1.474   3.427  0.3219 -0.3952 -0.5775
 4255TIP3   OH234399   3.514   6.101   8.169  0.3265 -0.2245  0.0746
 4255TIP3    H134400   3.588   6.087   8.227 -0.1441 -2.6896  0.2064
 4255TIP3    H234401   3.532   6.044   8.093 -0.5560  0.5451 -0.7387
 4256TIP3   OH234402   0.660   3.429   2.387 -0.5232 -0.7332 -0.1047
 4256TIP3    H134403   0.713   3.361   2.427 -1.0914  0.3504  2.7151
 4256TIP3    H234404   0.709   3.510   2.400 -2.2042  0.1085  1.4234
 4257TIP3   OH234405   1.116   0.420   2.058 -0.2615 -0.9579 -0.0482
 4257TIP3    H134406   1.026   0.439   2.083  0.0026  0.2624  0.0278
 4257TIP3    H234407   1.142   0.347   2.113 -0.6994 -0.3085  1.0428
 4258TIP3   OH234408   6.750   5.354   2.935 -0.1817 -0.1211  0.1648
 4258TIP3    H134409   6.716   5.407   3.007  0.4728 -0.5096  0.7750
 4258TIP3    H234410   6.753   5.414   2.861 -2.3266 -0.0986  0.0162
 4259TIP3   OH234411   1.859   6.621   0.650  0.5359 -0.0120 -0.1821
 4259TIP3    H134412   1.851   6.564   0.727  2.7867  0.3787  0.4222
 4259TIP3    H234413   1.936   6.588   0.604 -0.3494  0.2294 -1.9159
 4260TIP3   OH234414   6.902   4.374   3.142 -0.3531  0.4495  0.3149
 4260TIP3    H134415   6.946   4.289   3.142  0.3800  0.7966 -1.0748
 4260TIP3    H234416   6.813   4.354   3.111 -0.3701  0.1190  0.5663
 4261TIP3   OH234417   0.556   2.163   0.996 -0.1273 -0.4351 -0.6472
 4261TIP3    H134418   0.642   2.175   1.035 -0.0891 -1.2576 -0.4643
 4261TIP3    H234419   0.574   2.152   0.902 -0.1358  0.4816 -0.7722
 4262TIP3   OH234420   3.134   2.988   0.704  0.3734  0.0570  0.2220
 4262TIP3    H134421   3.149   2.971   0.611 -0.9665  1.2572 -0.2673
 4262TIP3    H234422   3.184   3.068   0.722 -0.7710  0.8464  0.0344
 4263TIP3   OH234423   5.805   1.509   0.597  0.0994 -0.2159  0.5097
 4263TIP3    H134424   5.727   1.466   0.635 -1.2498  1.7130  0.0517
 4263TIP3    H234425   5.771   1.588   0.555  2.4667  1.2880  1.2370
 4264TIP3   OH234426   3.611   5.019   2.180 -0.3096  0.0033  0.1483
 4264TIP3    H134427   3.679   5.063   2.129  0.3562  0.4744  1.4048
 4264TIP3    H234428   3.580   5.086   2.241 -1.5601 -0.3544 -0.0648
 4265TIP3   OH234429   0.778   5.014   1.133  0.0714  0.4940 -0.1384
 4265TIP3    H134430   0.760   4.927   1.171 -1.8247  0.7224 -0.4080
 4265TIP3    H234431   0.766   5.001   1.039 -1.2611  1.2451 -0.0959
 4266TIP3   OH234432   4.335   1.864   7.261  0.8318 -0.3602 -0.0085
 4266TIP3    H134433   4.413   1.898   7.306 -0.3114  0.4585  1.4373
 4266TIP3    H234434   4.367   1.839   7.175  2.3375  1.7610 -0.1577
 4267TIP3   OH234435   0.147   2.363   8.495  0.2130 -0.5091  0.0343
 4267TIP3    H134436   0.192   2.320   8.422 -0.1005 -1.2905  0.2961
 4267TIP3    H234437   0.065   2.395   8.458 -0.3955 -1.7545  0.2425
 4268TIP3   OH234438   3.841   3.768   7.817  0.3485 -0.1656 -0.3342
 4268TIP3    H134439   3.896   3.711   7.764 -1.7305 -1.6711 -1.0117
 4268TIP3    H234440   3.769   3.793   7.759 -2.0460 -1.9103  1.6709
 4269TIP3   OH234441   3.513   5.358   1.595  0.1354  0.3109  0.1242
 4269TIP3    H134442   3.593   5.310   1.576  0.0406  0.1139  0.2160
 4269TIP3    H234443   3.469   5.306   1.663 -0.1531  0.3228 -0.0486
 4270TIP3   OH234444   6.595   5.157   2.215 -0.3846 -0.1744 -0.3791
 4270TIP3    H134445   6.535   5.161   2.289  0.8951  2.3479  0.6627
 4270TIP3    H234446   6.543   5.186   2.140 -1.6599 -2.6363 -0.5355
 4271TIP3   OH234447   2.764   6.543   1.150 -0.2511 -0.2501  0.2135
 4271TIP3    H134448   2.758   6.550   1.246 -0.2240  2.3575  0.0832
 4271TIP3    H234449   2.829   6.473   1.136  0.3019 -0.1885  2.0972
 4272TIP3   OH234450   1.709   4.962   8.329  0.0727  0.1275 -0.1488
 4272TIP3    H134451   1.672   4.914   8.255  0.0258  1.2029 -0.8519
 4272TIP3    H234452   1.787   5.005   8.293  1.0133 -0.6815  0.8650
 4273TIP3   OH234453   0.375   0.835   1.213 -0.1558  0.1575  0.6385
 4273TIP3    H134454   0.292   0.850   1.259 -1.1930 -0.2859 -0.9984
 4273TIP3    H234455   0.357   0.762   1.154  1.3670  0.1488  0.1440
 4274TIP3   OH234456   4.796   1.659   1.366 -0.9731 -0.1592 -0.2206
 4274TIP3    H134457   4.861   1.663   1.437 -1.5193 -0.2954  0.2946
 4274TIP3    H234458   4.830   1.720   1.300 -0.3421 -0.1949  0.0586
 4275TIP3   OH234459   2.677   4.394   7.386  0.5500 -0.0067  0.4176
 4275TIP3    H134460   2.753   4.406   7.443  0.8796 -3.4632  0.8899
 4275TIP3    H234461   2.630   4.478   7.391  2.1165  0.8438  3.4087
 4276TIP3   OH234462   2.478   6.585   1.607  0.0522 -0.5308  0.1590
 4276TIP3    H134463   2.425   6.523   1.657 -0.2282 -0.6324 -0.2612
 4276TIP3    H234464   2.415   6.631   1.551  0.5473 -1.5453 -1.2834
 4277TIP3   OH234465   4.286   6.528   2.782  0.5561 -0.3552  0.3064
 4277TIP3    H134466   4.212   6.507   2.839 -0.0013 -1.5582 -0.8049
 4277TIP3    H234467   4.248   6.579   2.711  1.0961  0.4401  0.5809
 4278TIP3   OH234468   4.572   2.827   7.955  0.4352 -0.4283 -0.5265
 4278TIP3    H134469   4.537   2.785   7.877  0.6198 -1.8376  0.1072
 4278TIP3    H234470   4.502   2.885   7.985 -1.2273 -2.7617  0.3884
 4279TIP3   OH234471   2.627   1.123   1.068  0.4463 -0.3021  0.5233
 4279TIP3    H134472   2.535   1.133   1.091  0.2886  0.7914 -0.4967
 4279TIP3    H234473   2.668   1.089   1.148 -0.2964  2.0287  1.9778
 4280TIP3   OH234474   6.291   6.666   1.465  0.4225  0.4238 -0.0245
 4280TIP3    H134475   6.282   6.684   1.559 -1.6051  0.0116 -0.0865
 4280TIP3    H234476   6.385   6.663   1.450  0.9055 -2.5018  2.6010
 4281TIP3   OH234477   5.770   4.719   1.772  0.4513  0.0524 -0.5024
 4281TIP3    H134478   5.710   4.720   1.847 -1.1595 -0.3194 -1.7209
 4281TIP3    H234479   5.856   4.736   1.810  0.0793 -2.3475  1.7355
 4282TIP3   OH234480   5.083   6.315   8.202  0.4350 -0.1669 -0.3039
 4282TIP3    H134481   5.069   6.244   8.140 -1.8105  0.0316 -0.1183
 4282TIP3    H234482   5.059   6.394   8.154  2.5459  0.4843 -0.3856
 4283TIP3   OH234483   6.152   3.274   2.774  0.0523 -0.4556  0.2533
 4283TIP3    H134484   6.076   3.243   2.824 -0.6642  0.8348  0.0046
 4283TIP3    H234485   6.213   3.305   2.841 -0.1982 -0.2760  0.4007
 4284TIP3   OH234486   4.649   1.808   3.526  0.4736  0.1620  0.0395
 4284TIP3    H134487   4.680   1.719   3.537  0.7799 -0.0770 -2.3320
 4284TIP3    H234488   4.586   1.804   3.455  0.4092  1.8195 -0.0537
 4285TIP3   OH234489   4.583   4.713   0.784  0.2410 -0.1450  0.2886
 4285TIP3    H134490   4.660   4.657   0.776  1.1876  1.1644 -0.0742
 4285TIP3    H234491   4.587   4.770   0.707 -1.4973 -0.5081 -0.1347
 4286TIP3   OH234492   4.685   3.162   8.577  0.5754 -0.4380 -0.1467
 4286TIP3    H134493   4.651   3.074   8.563 -0.3988  0.0776 -1.1517
 4286TIP3    H234494   4.609   3.214   8.604  1.2493 -0.0233  1.0188
 4287TIP3   OH234495   0.537   2.192   8.150  0.6541  0.3919 -0.0212
 4287TIP3    H134496   0.490   2.109   8.149 -0.3199  0.8609  2.0072
 4287TIP3    H234497   0.577   2.198   8.063  0.2861 -1.9081 -0.3972
 4288TIP3   OH234498   2.697   6.434   8.493  0.1095 -0.4687 -0.0591
 4288TIP3    H134499   2.712   6.347   8.455 -0.0618 -0.8577  0.7323
 4288TIP3    H234500   2.662   6.416   8.580  2.2322  0.3314  1.0576
 4289TIP3   OH234501   5.508   4.540   8.394  0.4197  0.3205  0.0980
 4289TIP3    H134502   5.583   4.500   8.439  0.1911  1.5862  1.7073
 4289TIP3    H234503   5.479   4.609   8.454 -1.8138  0.1010 -0.6623
 4290TIP3   OH234504   4.539   1.947   8.291 -0.1033 -0.4099  0.2766
 4290TIP3    H134505   4.451   1.972   8.263 -0.2800 -1.5412 -0.2359
 4290TIP3    H234506   4.582   2.030   8.312 -1.7666  0.0644  2.0630
 4291TIP3   OH234507   5.177   3.639   1.192  0.3983  0.3061  0.1961
 4291TIP3    H134508   5.083   3.622   1.196  0.5002 -0.5784 -0.6522
 4291TIP3    H234509   5.191   3.715   1.249 -0.5266 -0.7485  1.8865
 4292TIP3   OH234510   4.578   6.871   0.803 -0.1921 -0.1889  0.0987
 4292TIP3    H134511   4.635   6.876   0.727  0.5679  0.8097  0.7072
 4292TIP3    H234512   4.637   6.850   0.876 -1.0327 -2.0608  0.2881
 4293TIP3   OH234513   0.647   2.473   2.581 -0.3682 -0.3898  0.4793
 4293TIP3    H134514   0.691   2.392   2.557 -0.0294 -0.0036 -0.2344
 4293TIP3    H234515   0.651   2.475   2.677  2.1167  0.1360  0.4379
 4294TIP3   OH234516   3.571   4.343   2.820  0.8178  0.2490 -0.3129
 4294TIP3    H134517   3.529   4.263   2.852  1.9220 -0.3359 -0.3045
 4294TIP3    H234518   3.614   4.317   2.739  0.1887  1.1249 -0.9476
 4295TIP3   OH234519   6.246   0.998   2.677  0.2326  0.1252  0.0830
 4295TIP3    H134520   6.291   0.954   2.749  2.2163  0.8360 -0.6405
 4295TIP3    H234521   6.265   0.944   2.600  0.1713  0.6559 -0.3112
 4296TIP3   OH234522   6.834   0.252   8.121 -0.1700 -0.2429 -0.1957
 4296TIP3    H134523   6.745   0.281   8.099 -0.6935 -1.1859  0.6028
 4296TIP3    H234524   6.884   0.334   8.130 -0.6740  0.2657 -1.7239
 4297TIP3   OH234525   4.858   2.136   1.858  0.4357  0.5596 -0.1624
 4297TIP3    H134526   4.927   2.185   1.904  1.5194  0.5917 -1.7432
 4297TIP3    H234527   4.904   2.067   1.811 -0.3092  1.6699 -2.7340
 4298TIP3   OH234528   6.137   2.804   0.215  0.3749  0.2047  0.1384
 4298TIP3    H134529   6.214   2.778   0.164 -0.2437 -0.2224 -0.5996
 4298TIP3    H234530   6.104   2.882   0.170 -0.0569 -0.0503  0.0170
 4299TIP3   OH234531   6.687   2.731   2.602 -0.1833  0.5346  0.1072
 4299TIP3    H134532   6.626   2.663   2.574  0.5199 -0.5766  1.1898
 4299TIP3    H234533   6.646   2.770   2.679  0.1936  0.1786  0.4912
 4300TIP3   OH234534   0.646   2.082   7.599  0.2338 -0.2198 -0.2862
 4300TIP3    H134535   0.717   2.113   7.655 -0.0324  0.4567 -0.3142
 4300TIP3    H234536   0.568   2.126   7.633 -0.0998 -0.6085 -0.5369
 4301TIP3   OH234537   4.820   0.210   0.112  0.4627 -0.0328  0.5676
 4301TIP3    H134538   4.798   0.303   0.115 -1.8960 -0.4435 -1.0665
 4301TIP3    H234539   4.910   0.207   0.080  0.1123  1.6621 -0.7059
 4302TIP3   OH234540   3.484   1.822   8.294  0.9230 -0.1609 -0.3044
 4302TIP3    H134541   3.544   1.747   8.292  0.1822 -0.7562 -1.1951
 4302TIP3    H234542   3.397   1.783   8.305  0.6554  0.6758  0.7346
 4303TIP3   OH234543   2.579   5.181   1.175  0.1421  0.0686  0.2969
 4303TIP3    H134544   2.661   5.133   1.164  1.0788  1.8136 -0.8435
 4303TIP3    H234545   2.606   5.270   1.199 -1.4691  0.4144  0.9671
 4304TIP3   OH234546   3.391   1.675   7.784  0.4645  0.0637 -0.0273
 4304TIP3    H134547   3.485   1.694   7.789  0.8922 -1.8945  0.2897
 4304TIP3    H234548   3.369   1.644   7.872 -0.8521  1.8671  0.3331
 4305TIP3   OH234549   6.271   3.676   2.185  0.3312 -0.4152 -0.2119
 4305TIP3    H134550   6.198   3.622   2.155  0.2227  0.0277 -0.7518
 4305TIP3    H234551   6.334   3.613   2.222 -0.6472 -0.7363  0.9580
 4306TIP3   OH234552   4.042   0.593   1.633  0.2591 -0.4643 -0.1184
 4306TIP3    H134553   4.082   0.592   1.546  0.8860 -0.8256  0.1590
 4306TIP3    H234554   4.051   0.684   1.662  2.1598 -0.7842  0.4770
 4307TIP3   OH234555   6.111   2.543   2.493 -0.0698  0.4529 -0.2899
 4307TIP3    H134556   6.196   2.537   2.448 -0.6744  0.2074 -1.4453
 4307TIP3    H234557   6.121   2.616   2.554  1.3608 -0.3393  0.4871
 4308TIP3   OH234558   2.799   4.376   0.528  0.1755  0.5757 -0.6331
 4308TIP3    H134559   2.742   4.403   0.456  1.1194  0.3140 -1.5008
 4308TIP3    H234560   2.744   4.319   0.581 -0.2619 -0.0028 -1.6769
 4309TIP3   OH234561   0.425   0.216   1.043 -0.2117  0.3438 -0.2093
 4309TIP3    H134562   0.460   0.223   1.131  0.2673 -1.1703 -0.2540
 4309TIP3    H234563   0.399   0.305   1.020  3.1858  1.5360 -0.0068
 4310TIP3   OH234564   4.993   4.320   8.330 -0.7105 -0.3408 -0.0395
 4310TIP3    H134565   4.988   4.411   8.300 -0.6688 -0.1004  0.6406
 4310TIP3    H234566   4.904   4.299   8.357 -1.1638 -1.1932 -2.0509
 4311TIP3   OH234567   1.422   2.466   1.406  0.2546  0.2738  0.1488
 4311TIP3    H134568   1.410   2.560   1.422 -0.8978  0.0616  0.6297
 4311TIP3    H234569   1.512   2.448   1.433  1.4256  1.7314 -2.3980
 4312TIP3   OH234570   3.346   2.200   1.863  0.5309  0.1846 -0.2566
 4312TIP3    H134571   3.415   2.266   1.853 -1.2211  3.0193  3.7446
 4312TIP3    H234572   3.372   2.148   1.938 -0.0350 -1.1436 -0.9417
 4313TIP3   OH234573   1.539   3.267   0.480 -0.4040 -0.3214  0.4341
 4313TIP3    H134574   1.612   3.323   0.454 -1.1530  1.3884  1.7784
 4313TIP3    H234575   1.461   3.318   0.457 -1.1888 -1.8499 -0.4285
 4314TIP3   OH234576   3.264   2.894   2.878 -0.8767  0.8422 -0.0131
 4314TIP3    H134577   3.301   2.948   2.947 -1.7101 -0.4844  1.5264
 4314TIP3    H234578   3.177   2.869   2.910 -1.7740  1.1228 -2.0565
 4315TIP3   OH234579   6.826   5.719   0.345  0.6803  0.3306  0.1331
 4315TIP3    H134580   6.891   5.789   0.337 -1.2577  2.2810  0.3168
 4315TIP3    H234581   6.744   5.761   0.318 -0.7033 -1.6802  1.0266
 4316TIP3   OH234582   6.829   1.199   3.650 -0.8730  0.2572 -0.2691
 4316TIP3    H134583   6.911   1.232   3.615  0.1322 -1.0849  0.7352
 4316TIP3    H234584   6.810   1.121   3.597 -0.2615 -0.7623  0.9514
 4317TIP3   OH234585   3.248   4.575   3.115  0.0286  0.1341  0.1258
 4317TIP3    H134586   3.256   4.482   3.137 -0.7884  0.2026  0.7678
 4317TIP3    H234587   3.330   4.597   3.072  0.2995 -0.8457  0.1214
 4318TIP3   OH234588   0.607   3.410   0.792 -0.7105 -0.0361 -0.5824
 4318TIP3    H134589   0.612   3.505   0.780 -0.0389  0.0135  0.0357
 4318TIP3    H234590   0.515   3.394   0.814 -0.4168  0.7490  1.4356
 4319TIP3   OH234591   2.781   1.564   0.702 -0.3855  0.2339 -0.5994
 4319TIP3    H134592   2.750   1.651   0.677  1.1961 -0.0344 -4.0656
 4319TIP3    H234593   2.701   1.516   0.726 -1.8298  1.5331 -2.4886
 4320TIP3   OH234594   3.372   5.559   1.734 -0.1556  0.0837  0.4576
 4320TIP3    H134595   3.328   5.485   1.777 -1.5185  0.1671 -0.7128
 4320TIP3    H234596   3.435   5.518   1.675  0.4530 -0.0750  1.2009
 4321TIP3   OH234597   4.286   0.151   2.538  0.3101 -0.4461  0.1300
 4321TIP3    H134598   4.316   0.061   2.538  1.0825 -0.2251  1.9436
 4321TIP3    H234599   4.365   0.203   2.521  0.3017 -0.0301  1.2834
 4322TIP3   OH234600   0.269   4.262   7.726  0.2229  0.9168  0.1594
 4322TIP3    H134601   0.276   4.292   7.816  0.9930 -2.3889  1.3107
 4322TIP3    H234602   0.188   4.302   7.694 -1.3212  0.3828  3.0845
 4323TIP3   OH234603   0.457   6.017   3.126 -0.1234 -0.0409 -0.5394
 4323TIP3    H134604   0.397   5.948   3.154  0.0355 -0.1630 -0.5003
 4323TIP3    H234605   0.534   5.971   3.094  0.8596  0.1350  1.4009
 4324TIP3   OH234606   5.300   2.261   1.384 -0.5916  0.3997  0.2813
 4324TIP3    H134607   5.298   2.308   1.467  3.9785  0.5339  0.5647
 4324TIP3    H234608   5.319   2.329   1.319 -2.7125  0.0821 -0.7545
 4325TIP3   OH234609   0.037   0.954   0.501 -0.0280  0.1779 -0.3722
 4325TIP3    H134610  -0.035   1.015   0.489 -2.3363 -2.0594  1.2423
 4325TIP3    H234611   0.063   0.930   0.412 -2.4732 -0.2538 -1.0324
 4326TIP3   OH234612   6.822   4.877   2.653 -0.0639 -0.7043  0.2219
 4326TIP3    H134613   6.792   4.889   2.743  1.5493  0.8394  0.6130
 4326TIP3    H234614   6.750   4.832   2.609 -1.7776  0.4294  1.7300
 4327TIP3   OH234615   5.707   0.562   8.056  0.5854 -1.0960 -0.2300
 4327TIP3    H134616   5.615   0.565   8.027  0.1267  0.3006  1.2364
 4327TIP3    H234617   5.755   0.608   7.987  0.2397 -2.0678 -1.1437
 4328TIP3   OH234618   3.618   0.496   1.155  0.3802  0.3292  0.0492
 4328TIP3    H134619   3.587   0.584   1.134 -1.4299  0.3661  2.4315
 4328TIP3    H234620   3.667   0.506   1.236  0.5196 -0.8012  0.1275
 4329TIP3   OH234621   2.364   1.236   2.020  0.3058  0.4371  0.1026
 4329TIP3    H134622   2.420   1.313   2.029  2.6815 -1.1477 -0.3277
 4329TIP3    H234623   2.421   1.162   2.038 -1.5519 -1.3328 -0.8449
 4330TIP3   OH234624   4.810   6.830   8.049 -0.3152 -0.2249  0.0406
 4330TIP3    H134625   4.874   6.848   7.980  0.2222  1.2822  0.8944
 4330TIP3    H234626   4.729   6.813   8.001  0.8627 -3.2863 -1.1244
 4331TIP3   OH234627   6.191   3.891   7.738  0.0230 -0.2433 -0.2545
 4331TIP3    H134628   6.130   3.919   7.670 -0.0541 -1.3143 -0.6474
 4331TIP3    H234629   6.251   3.831   7.693  1.3539  0.7327  0.1298
 4332TIP3   OH234630   0.316   4.997   1.069 -0.0701 -0.0096  0.1937
 4332TIP3    H134631   0.285   4.921   1.117  2.4515 -0.2487  1.6032
 4332TIP3    H234632   0.372   4.962   1.000 -0.4988  0.5065 -0.4318
 4333TIP3   OH234633   3.270   4.868   1.758 -0.0715 -0.0016  0.6891
 4333TIP3    H134634   3.196   4.842   1.702 -0.5917 -0.0007  1.3645
 4333TIP3    H234635   3.231   4.923   1.826  0.8680  1.7482 -0.1238
 4334TIP3   OH234636   0.090   1.637   1.328  0.3058 -0.0635 -0.0873
 4334TIP3    H134637   0.114   1.549   1.301  3.1830  0.7962 -0.6628
 4334TIP3    H234638   0.074   1.684   1.246  0.4164  0.3510  0.1215
 4335TIP3   OH234639   0.416   6.572   1.958  0.3381  0.2729 -0.4232
 4335TIP3    H134640   0.483   6.634   1.986  0.4045  0.1753 -0.3649
 4335TIP3    H234641   0.337   6.598   2.005  0.1607  0.8081 -1.0052
 4336TIP3   OH234642   1.467   4.317   3.572 -0.1288  0.5854 -0.0261
 4336TIP3    H134643   1.518   4.345   3.496  2.1941  1.3017  1.6681
 4336TIP3    H234644   1.424   4.397   3.603  0.0710  0.6051  0.2056
 4337TIP3   OH234645   4.228   5.004   7.045 -0.0959 -0.2034 -0.1057
 4337TIP3    H134646   4.157   5.024   7.106 -2.0633 -0.3703 -2.1813
 4337TIP3    H234647   4.300   5.060   7.072 -1.0794  0.1366  1.9870
 4338TIP3   OH234648   6.152   5.338   2.711  0.7530 -0.3266  0.4620
 4338TIP3    H134649   6.208   5.399   2.759  0.0606  1.0469 -0.4106
 4338TIP3    H234650   6.081   5.318   2.773 -0.7337  2.2865 -0.1939
 4339TIP3   OH234651   5.711   1.001   0.294 -0.7682 -0.1291  0.7116
 4339TIP3    H134652   5.797   1.045   0.298 -0.2775 -1.1379  1.4667
 4339TIP3    H234653   5.696   0.969   0.383 -1.6274 -0.5490  0.4224
 4340TIP3   OH234654   6.299   2.321   0.105  0.1034 -0.0465 -0.3736
 4340TIP3    H134655   6.324   2.395   0.050 -0.5026  1.8830  1.8080
 4340TIP3    H234656   6.210   2.341   0.134  0.7037 -0.4418  2.0187
 4341TIP3   OH234657   0.430   4.735   0.703 -1.0855  0.0706  0.4424
 4341TIP3    H134658   0.388   4.658   0.665 -0.8406 -0.1570  0.6243
 4341TIP3    H234659   0.480   4.773   0.632 -1.6480  0.3822  0.2058
 4342TIP3   OH234660   1.865   6.024   1.591  0.5554  0.2303  0.1854
 4342TIP3    H134661   1.850   6.062   1.504  0.8724 -0.1603 -0.0391
 4342TIP3    H234662   1.789   5.968   1.605 -0.7123  2.0887  1.1665
 4343TIP3   OH234663   1.232   6.349   1.692  0.3178 -0.0169 -0.1393
 4343TIP3    H134664   1.165   6.293   1.653  0.4629 -0.1202 -0.2470
 4343TIP3    H234665   1.188   6.395   1.763 -0.1288  0.6891 -0.8563
 4344TIP3   OH234666   3.693   1.937   1.019  0.0298 -0.3106 -0.2257
 4344TIP3    H134667   3.658   1.986   0.944 -2.0983 -1.4892 -0.0765
 4344TIP3    H234668   3.707   1.848   0.985  1.5880 -0.2141  0.1094
 4345TIP3   OH234669   0.036   5.141   8.093  0.3174  0.2288  0.0130
 4345TIP3    H134670  -0.006   5.151   8.008  0.1845  1.7174  0.2304
 4345TIP3    H234671  -0.032   5.161   8.156  1.2884  2.7705  0.3639
 4346TIP3   OH234672   4.135   3.235   0.256 -0.2738  0.0078 -0.2415
 4346TIP3    H134673   4.200   3.168   0.232 -0.6109 -0.2453 -0.4466
 4346TIP3    H234674   4.098   3.205   0.339 -2.9873 -1.9651 -2.0142
 4347TIP3   OH234675   6.371   2.870   1.472 -0.4918  0.0287  0.3459
 4347TIP3    H134676   6.351   2.813   1.397 -1.1849  0.9992 -0.2330
 4347TIP3    H234677   6.462   2.851   1.493 -1.1644 -2.6057  1.3331
 4348TIP3   OH234678   3.446   1.452   1.398 -0.2779 -0.0669  0.6502
 4348TIP3    H134679   3.437   1.428   1.490 -2.5836 -0.9377  0.2626
 4348TIP3    H234680   3.357   1.472   1.369  0.5154  1.1831 -1.1623
 4349TIP3   OH234681   2.367   4.640   0.494 -0.7617 -0.4473  0.3580
 4349TIP3    H134682   2.331   4.720   0.532  1.7233  0.7646  0.3944
 4349TIP3    H234683   2.381   4.660   0.402 -0.6418 -1.0436  0.2382
 4350TIP3   OH234684   0.877   3.445   1.085 -0.4533 -0.0439 -0.2388
 4350TIP3    H134685   0.832   3.461   1.168 -2.6979 -0.5267 -1.2785
 4350TIP3    H234686   0.868   3.527   1.037 -2.9220 -0.9626 -1.5637
 4351TIP3   OH234687   0.219   1.187   8.523  0.0770 -0.1105  0.1973
 4351TIP3    H134688   0.290   1.153   8.470 -2.1707 -2.3422 -1.6216
 4351TIP3    H234689   0.168   1.241   8.463 -1.7479 -1.5565  0.3533
 4352TIP3   OH234690   0.014   6.258   1.426  0.1122  0.5169  0.4400
 4352TIP3    H134691   0.045   6.274   1.515  1.2118 -1.6065  0.5001
 4352TIP3    H234692   0.092   6.272   1.371 -0.0260 -0.1513  0.0571
 4353TIP3   OH234693   4.396   4.998   8.305  0.1313 -0.7037 -0.4605
 4353TIP3    H134694   4.471   4.939   8.306  0.3159 -0.4680  0.0673
 4353TIP3    H234695   4.415   5.059   8.234  0.6664 -0.3632 -0.0352
 4354TIP3   OH234696   3.399   1.463   0.787  0.3158 -0.0451  0.0145
 4354TIP3    H134697   3.332   1.460   0.719 -0.3544  1.6204  0.5419
 4354TIP3    H234698   3.474   1.417   0.750  0.1343  1.2047 -2.0449
 4355TIP3   OH234699   2.265   5.304   1.150  0.3541 -0.0260  0.2356
 4355TIP3    H134700   2.246   5.256   1.230  1.2487 -0.4508  0.2015
 4355TIP3    H234701   2.333   5.368   1.175  1.4976 -0.9408 -0.4136
 4356TIP3   OH234702   0.413   4.927   2.022  0.1846 -0.0437  0.5606
 4356TIP3    H134703   0.364   4.958   1.945  1.2535 -0.2714 -0.2305
 4356TIP3    H234704   0.456   5.006   2.056  2.2239 -0.4327 -0.9534
 4357TIP3   OH234705   1.366   0.493   2.447 -0.1014  0.5095 -0.0991
 4357TIP3    H134706   1.275   0.491   2.478  0.2842 -1.2408  1.0770
 4357TIP3    H234707   1.406   0.564   2.497 -0.4069  0.1290  0.7048
 4358TIP3   OH234708   4.624   3.815   8.573 -0.8194  0.1446  0.3425
 4358TIP3    H134709   4.568   3.887   8.602  2.2200  1.5913  3.3687
 4358TIP3    H234710   4.650   3.771   8.655  0.8125 -1.7049 -1.0614
 4359TIP3   OH234711   1.070   2.600   2.605 -0.1836 -0.5740 -0.0601
 4359TIP3    H134712   1.045   2.662   2.537  2.7149  0.6049 -0.1894
 4359TIP3    H234713   1.020   2.628   2.682  2.2918  3.2346  0.4012
 4360TIP3   OH234714   1.531   3.005   8.318  0.5552  0.2495 -0.0283
 4360TIP3    H134715   1.440   3.009   8.346  0.8643  1.1922  0.9121
 4360TIP3    H234716   1.533   3.054   8.236 -0.1795 -1.7083 -1.2726
 4361TIP3   OH234717   2.156   5.132   0.745  0.2129 -0.5886  0.1998
 4361TIP3    H134718   2.194   5.216   0.769  0.4998 -0.3447 -1.0428
 4361TIP3    H234719   2.173   5.124   0.652 -1.3428 -1.2355 -0.0545
 4362TIP3   OH234720   2.767   5.881   8.312 -0.2280 -0.4368  0.3745
 4362TIP3    H134721   2.853   5.924   8.309 -0.6318  0.3433 -0.3795
 4362TIP3    H234722   2.748   5.861   8.220 -0.4319 -1.4789  0.6337
 4363TIP3   OH234723   4.985   2.779   0.459  0.3943 -0.5226  0.2416
 4363TIP3    H134724   4.963   2.790   0.366 -0.0247 -0.9213  0.2947
 4363TIP3    H234725   5.080   2.789   0.462  0.3287  0.3056 -0.1147
 4364TIP3   OH234726   2.817   4.992   1.209  0.2466  0.1047  0.5239
 4364TIP3    H134727   2.773   4.962   1.288 -1.2371 -0.2787 -0.4022
 4364TIP3    H234728   2.835   5.085   1.225 -1.6473  0.4910  0.6683
 4365TIP3   OH234729   3.006   2.294   0.136  0.1226  0.3880 -0.1733
 4365TIP3    H134730   2.996   2.260   0.225  0.9126 -0.0313 -0.2277
 4365TIP3    H234731   2.921   2.331   0.114 -0.4677 -0.6609  0.2817
 4366TIP3   OH234732   2.660   5.345   2.346  0.2964  0.1167  0.6897
 4366TIP3    H134733   2.615   5.272   2.388  0.0519  0.4527  1.0297
 4366TIP3    H234734   2.659   5.414   2.412  1.0234  0.2403  0.5756
 4367TIP3   OH234735   5.201   4.260   2.967  0.1409 -0.0079 -0.3176
 4367TIP3    H134736   5.259   4.276   2.892  2.0809  1.4260  1.3844
 4367TIP3    H234737   5.212   4.337   3.022 -1.1559 -1.0730  1.5148
 4368TIP3   OH234738   4.517   5.392   0.486  0.3106  0.2257  0.6512
 4368TIP3    H134739   4.490   5.325   0.424  5.3148 -0.1731 -1.5258
 4368TIP3    H234740   4.508   5.474   0.438  1.6222  0.1965  0.3158
 4369TIP3   OH234741   1.658   1.358   0.542  0.0121 -0.1392  0.1396
 4369TIP3    H134742   1.594   1.313   0.486  0.4997  0.0643 -0.5976
 4369TIP3    H234743   1.669   1.444   0.501  0.3812  0.0104  0.5539
 4370TIP3   OH234744   4.564   5.679   1.205 -0.3742  0.6595 -0.4915
 4370TIP3    H134745   4.485   5.734   1.206 -1.0041 -0.1929  1.3216
 4370TIP3    H234746   4.539   5.601   1.255  1.5910  0.3020  0.0012
 4371TIP3   OH234747   4.916   3.045   2.331 -0.3250  0.2900  0.3318
 4371TIP3    H134748   4.901   2.977   2.265  1.1737  0.3758 -0.1398
 4371TIP3    H234749   4.883   3.008   2.412 -1.6353 -0.0678 -0.3437
 4372TIP3   OH234750   1.552   6.458   2.042  0.0638  0.6447  0.5284
 4372TIP3    H134751   1.463   6.488   2.021 -0.1857  0.4565  1.3185
 4372TIP3    H234752   1.605   6.490   1.968 -0.7155  0.4371 -0.1401
 4373TIP3   OH234753   3.465   6.613   2.276 -0.5014 -0.1446  0.3457
 4373TIP3    H134754   3.374   6.635   2.298 -0.9561 -0.7165 -0.8925
 4373TIP3    H234755   3.510   6.611   2.361 -1.4913  0.7766  0.9163
 4374TIP3   OH234756   4.529   5.205   0.698 -0.0524 -0.5414 -0.1608
 4374TIP3    H134757   4.619   5.202   0.730 -0.6151  1.0537  1.8162
 4374TIP3    H234758   4.523   5.287   0.649 -0.6454 -0.1819  0.4959
 4375TIP3   OH234759   0.566   2.933   0.008  0.0843  0.5826  0.1747
 4375TIP3    H134760   0.476   2.931   0.041  0.6763  1.1892  1.9181
 4375TIP3    H234761   0.559   2.899  -0.081 -1.8071  0.2159  0.4168
 4376TIP3   OH234762   1.477   3.856   0.003 -0.3188  0.4358  0.0781
 4376TIP3    H134763   1.553   3.824  -0.045  0.2622  0.2517  1.0904
 4376TIP3    H234764   1.483   3.813   0.088 -1.8035  0.0828  0.0207
 4377TIP3   OH234765   2.733   6.493   8.127 -0.1377 -0.1898 -0.1641
 4377TIP3    H134766   2.784   6.520   8.051  2.3480 -1.9679  0.7243
 4377TIP3    H234767   2.767   6.546   8.199 -1.0930  0.1291  0.0580
 4378TIP3   OH234768   2.958   0.303   1.759  0.0928 -0.4253 -0.3165
 4378TIP3    H134769   3.035   0.360   1.757  0.7708 -1.2286  1.2653
 4378TIP3    H234770   2.884   0.362   1.745  0.9381  0.4442 -1.2966
 4379TIP3   OH234771   3.968   0.082   1.214 -0.0442 -0.1483 -0.1430
 4379TIP3    H134772   3.882   0.090   1.172 -0.8639  0.6810  1.5742
 4379TIP3    H234773   3.953   0.022   1.287  1.5575 -2.2919 -1.4753
 4380TIP3   OH234774   4.111   4.750   8.093 -0.6812 -0.1876  0.3250
 4380TIP3    H134775   4.141   4.661   8.071  0.5865  0.0519  0.9554
 4380TIP3    H234776   4.062   4.739   8.174 -0.2965 -0.2863  0.5475
 4381TIP3   OH234777   6.708   1.913   2.901  0.0542  0.2466 -0.0303
 4381TIP3    H134778   6.782   1.921   2.961  0.1640  0.5758 -0.2039
 4381TIP3    H234779   6.715   1.825   2.865  0.5012  0.3618 -0.2245
 4382TIP3   OH234780   0.342   3.369   1.566 -0.1564  0.2369  0.3070
 4382TIP3    H134781   0.304   3.283   1.549 -1.0138  1.0076 -2.1815
 4382TIP3    H234782   0.431   3.363   1.530 -1.2722  1.2319 -2.9915
 4383TIP3   OH234783   0.066   3.289   8.207 -0.0254  0.2902 -0.3020
 4383TIP3    H134784   0.022   3.372   8.192 -0.6459 -0.3563 -2.3965
 4383TIP3    H234785  -0.002   3.232   8.244  0.4939  0.7742  1.4838
 4384TIP3   OH234786   6.863   4.897   7.026  0.0314  0.1245 -0.9182
 4384TIP3    H134787   6.874   4.989   7.050  0.6719  0.0329 -0.8528
 4384TIP3    H234788   6.898   4.848   7.100 -1.5508 -0.1986 -0.3511
 4385TIP3   OH234789   4.912   3.315   2.252 -1.2434  0.6034  0.2184
 4385TIP3    H134790   4.911   3.294   2.159  1.5111  0.3099  0.1542
 4385TIP3    H234791   4.921   3.230   2.296  1.7088  0.9126  0.4203
 4386TIP3   OH234792   5.320   5.096   2.002 -0.0982 -0.2174 -0.1525
 4386TIP3    H134793   5.356   5.129   2.084 -0.7270 -0.4853  0.2388
 4386TIP3    H234794   5.334   5.001   2.006  2.5081  0.0001 -1.6564
 4387TIP3   OH234795   4.345   0.466   1.700  0.0007  0.3201  0.3822
 4387TIP3    H134796   4.295   0.470   1.618 -1.9408 -2.6686  1.2546
 4387TIP3    H234797   4.424   0.416   1.678 -1.5949 -2.5655  0.6051
 4388TIP3   OH234798   0.919   2.720   8.489  0.0249 -0.5776  0.4881
 4388TIP3    H134799   0.856   2.654   8.518 -0.6308  0.4767  1.5687
 4388TIP3    H234800   0.896   2.799   8.539  3.6746 -0.7255  2.8644
 4389TIP3   OH234801   5.060   0.212   0.535  0.1576 -0.1557  0.2599
 4389TIP3    H134802   5.086   0.297   0.570 -2.6748  0.1234  1.9980
 4389TIP3    H234803   5.012   0.170   0.607  1.5864 -3.3606 -0.4652
 4390TIP3   OH234804   4.192   1.497   0.903 -0.5644  0.0259  0.1735
 4390TIP3    H134805   4.220   1.431   0.966  1.4653  0.4116 -0.2554
 4390TIP3    H234806   4.244   1.479   0.825 -0.4406  1.7073 -0.1739
 4391TIP3   OH234807   5.142   6.851   7.905  0.8335 -0.3190  0.0862
 4391TIP3    H134808   5.155   6.766   7.862 -0.3416  0.1551 -1.3105
 4391TIP3    H234809   5.204   6.851   7.978 -0.6093 -3.2723  1.4848
 4392TIP3   OH234810   0.118   2.240   3.536 -0.2909 -0.4075  0.0668
 4392TIP3    H134811   0.055   2.268   3.603 -0.7898  1.2466 -1.0246
 4392TIP3    H234812   0.164   2.321   3.512  1.6364 -1.4299  0.1778
 4393TIP3   OH234813   0.486   5.612   1.111 -0.2343 -0.0762 -0.8604
 4393TIP3    H134814   0.461   5.694   1.154 -0.8355 -0.3744 -0.6342
 4393TIP3    H234815   0.440   5.544   1.160  1.0854 -0.6575 -0.3895
 4394TIP3   OH234816   6.331   4.430   8.271  0.4932  0.1794 -0.0858
 4394TIP3    H134817   6.279   4.422   8.191 -0.5095 -0.3693  0.5986
 4394TIP3    H234818   6.366   4.342   8.287 -0.5481 -0.0936  0.8640
 4395TIP3   OH234819   5.713   5.579   0.734 -0.4257 -0.1607  0.1143
 4395TIP3    H134820   5.782   5.513   0.744  0.5718  0.7834 -0.4403
 4395TIP3    H234821   5.700   5.614   0.823 -0.4834 -0.6116  0.2874
 4396TIP3   OH234822   6.180   0.653   1.485 -0.5244  0.4359 -0.1181
 4396TIP3    H134823   6.102   0.650   1.430 -1.9374  1.2393  1.7333
 4396TIP3    H234824   6.247   0.610   1.433 -2.1466 -0.1417 -1.8622
 4397TIP3   OH234825   6.689   4.922   2.353 -0.1688  0.1159 -0.5143
 4397TIP3    H134826   6.681   4.994   2.290 -0.3126  0.4909 -0.0781
 4397TIP3    H234827   6.744   4.958   2.423  0.7888 -0.6179 -0.8821
 4398TIP3   OH234828   5.292   4.543   2.086  0.3324  0.0000 -0.5964
 4398TIP3    H134829   5.298   4.455   2.123 -1.5815  0.3754  0.7714
 4398TIP3    H234830   5.239   4.532   2.007  0.6416 -0.1637 -0.7818
 4399TIP3   OH234831   0.737   1.403   2.900 -0.0124 -0.4940 -0.0010
 4399TIP3    H134832   0.689   1.483   2.876 -0.6467 -0.8082  0.2001
 4399TIP3    H234833   0.774   1.422   2.986 -0.5331 -0.5774  0.2422
 4400TIP3   OH234834   0.091   5.526   7.805 -0.2865 -0.2464 -0.0495
 4400TIP3    H134835   0.137   5.444   7.786  0.2715 -0.6980  2.7839
 4400TIP3    H234836  -0.002   5.502   7.803 -0.1819 -0.6328 -0.4427
 4401TIP3   OH234837   6.784   0.672   2.607 -0.4116  0.3916  0.3770
 4401TIP3    H134838   6.783   0.727   2.686  0.2548  0.3927  0.3918
 4401TIP3    H234839   6.877   0.657   2.589 -0.5760 -0.5257  0.2245
 4402TIP3   OH234840   1.625   1.229   7.605 -0.7331  0.2771  0.4401
 4402TIP3    H134841   1.554   1.229   7.540  0.6515  0.1262 -1.1444
 4402TIP3    H234842   1.693   1.285   7.567  1.3620 -2.1814  0.2643
 4403TIP3   OH234843   0.924   5.918   1.846  0.3419  0.0141  0.0969
 4403TIP3    H134844   0.936   5.847   1.783 -0.2550  0.6510 -0.7479
 4403TIP3    H234845   0.882   5.988   1.796 -0.5833  0.3592  1.3160
 4404TIP3   OH234846   5.897   5.906   2.052 -0.2931 -0.3090  1.0622
 4404TIP3    H134847   5.894   5.999   2.030 -0.5087 -0.4913  0.2859
 4404TIP3    H234848   5.876   5.903   2.145  0.8286  0.5061  1.3559
 4405TIP3   OH234849   3.461   3.275   1.126 -0.8164  0.4141  0.0562
 4405TIP3    H134850   3.505   3.236   1.051 -0.8095 -0.5045  0.5220
 4405TIP3    H234851   3.516   3.252   1.201 -1.9617 -0.6055  0.6253
 4406TIP3   OH234852   3.407   2.631   3.107 -0.5513 -0.5522  0.6778
 4406TIP3    H134853   3.335   2.687   3.134  0.1486  0.4489  0.5113
 4406TIP3    H234854   3.484   2.667   3.151  0.2322 -0.2126 -0.9105
 4407TIP3   OH234855   5.851   0.663   2.426 -0.0110 -0.1893 -0.3492
 4407TIP3    H134856   5.785   0.650   2.494  0.7076 -2.7332 -0.0238
 4407TIP3    H234857   5.930   0.688   2.473  0.1615 -0.6986 -0.3624
 4408TIP3   OH234858   2.470   0.852   8.539 -0.0461 -1.0179 -0.1431
 4408TIP3    H134859   2.503   0.937   8.511 -1.4362 -0.2117  0.5722
 4408TIP3    H234860   2.429   0.868   8.623 -0.6850 -2.3233 -0.1750
 4409TIP3   OH234861   2.372   6.344   0.771 -0.4503 -0.5586 -0.1349
 4409TIP3    H134862   2.317   6.399   0.826 -1.4895 -0.2811 -1.4027
 4409TIP3    H234863   2.418   6.286   0.832 -2.0068 -0.6704  0.9729
 4410TIP3   OH234864   0.267   6.367   8.027 -0.5956  0.1213 -0.4060
 4410TIP3    H134865   0.217   6.286   8.037  0.5654 -0.7396 -1.3149
 4410TIP3    H234866   0.347   6.353   8.077  0.5048 -0.1166 -2.1226
 4411TIP3   OH234867   0.467   0.039   1.480  0.3115  0.1314 -0.4904
 4411TIP3    H134868   0.406  -0.031   1.457  1.9772 -1.2485 -0.8494
 4411TIP3    H234869   0.480   0.028   1.575 -0.6515  1.0194 -0.2248
 4412TIP3   OH234870   3.658   1.119   3.120  0.0276 -0.0856 -0.6647
 4412TIP3    H134871   3.632   1.031   3.094  1.7177 -1.7272  2.5587
 4412TIP3    H234872   3.582   1.154   3.166 -0.5061 -0.0107 -1.5880
 4413TIP3   OH234873   2.685   2.851   8.300 -0.4620  0.0392  0.0148
 4413TIP3    H134874   2.780   2.856   8.311 -0.1181 -1.0736 -1.9921
 4413TIP3    H234875   2.667   2.900   8.220 -1.4973 -0.3111  0.0121
 4414TIP3   OH234876   5.688   0.342   0.643  0.7842  1.1147 -0.0732
 4414TIP3    H134877   5.746   0.353   0.567  1.2229 -0.5632 -0.0319
 4414TIP3    H234878   5.604   0.315   0.605  0.8195  0.8940  0.0050
 4415TIP3   OH234879   2.294   4.566   2.591  0.4092 -0.1609  0.1132
 4415TIP3    H134880   2.311   4.591   2.500 -1.5128  1.5210  0.1484
 4415TIP3    H234881   2.215   4.512   2.587 -0.0737  0.4740  0.8331
 4416TIP3   OH234882   3.487   1.133   1.367 -0.4558  0.3228 -0.3510
 4416TIP3    H134883   3.469   1.176   1.284 -0.6661 -0.3073 -0.6434
 4416TIP3    H234884   3.570   1.170   1.397 -0.6850  0.9983 -0.5355
 4417TIP3   OH234885   6.342   4.304   7.990 -0.6615  0.2800 -0.4242
 4417TIP3    H134886   6.323   4.366   7.920  2.5224  0.1711 -1.5473
 4417TIP3    H234887   6.324   4.218   7.952 -0.4787  0.2955 -0.5453
 4418TIP3   OH234888   1.563   3.406   0.970  0.0832 -0.0869 -0.6283
 4418TIP3    H134889   1.585   3.378   1.058  0.0301  1.6498 -0.0317
 4418TIP3    H234890   1.612   3.346   0.913  1.0855 -0.4602  0.5829
 4419TIP3   OH234891   4.014   4.808   0.380  0.4453  0.1630  0.3044
 4419TIP3    H134892   3.979   4.765   0.301 -0.1234  0.3164  0.4696
 4419TIP3    H234893   3.943   4.864   0.410  0.4974 -0.2383  1.1892
 4420TIP3   OH234894   1.781   6.492   0.251 -0.0058 -0.6885 -0.3786
 4420TIP3    H134895   1.815   6.403   0.238  1.4695 -0.5174  1.6945
 4420TIP3    H234896   1.720   6.483   0.324  0.9425  0.1210  0.5490
 4421TIP3   OH234897   2.039   5.652   7.915  0.3873  0.3422 -0.0060
 4421TIP3    H134898   2.126   5.642   7.877  0.7169  3.3486 -0.2691
 4421TIP3    H234899   2.006   5.735   7.880 -2.8434 -0.8980 -0.3185
 4422TIP3   OH234900   0.202   1.885   2.430 -0.2796  0.5443 -0.4354
 4422TIP3    H134901   0.147   1.963   2.418 -0.9827 -0.1534 -1.9755
 4422TIP3    H234902   0.159   1.817   2.378 -0.0908 -1.0979  1.4407
 4423TIP3   OH234903   2.744   6.853   0.018  0.5592  0.4205  0.3802
 4423TIP3    H134904   2.759   6.946   0.036 -2.3045  1.3509 -1.3674
 4423TIP3    H234905   2.674   6.828   0.078  2.2255 -1.1105  1.8215
 4424TIP3   OH234906   5.961   2.860   0.886  0.3999 -0.4331  0.6123
 4424TIP3    H134907   5.922   2.930   0.939 -0.1821 -0.3627  0.0991
 4424TIP3    H234908   6.017   2.812   0.947 -0.1221 -0.2407  1.2506
 4425TIP3   OH234909   3.313   6.294   2.837 -0.0530 -0.1349  0.5819
 4425TIP3    H134910   3.254   6.359   2.800  0.6039 -0.0927 -0.4336
 4425TIP3    H234911   3.367   6.265   2.763 -0.1953 -1.6881  1.0369
 4426TIP3   OH234912   5.088   5.164   1.360 -0.4304 -0.1626  0.0967
 4426TIP3    H134913   5.018   5.099   1.354 -1.5477  1.0203 -0.3797
 4426TIP3    H234914   5.162   5.117   1.398 -1.3951 -1.5358  0.3589
 4427TIP3   OH234915   4.880   0.868   2.906 -0.8655 -0.4609 -0.1552
 4427TIP3    H134916   4.840   0.831   2.985  1.2949  0.4601  1.4940
 4427TIP3    H234917   4.901   0.958   2.930  1.4865 -0.6840 -1.1071
 4428TIP3   OH234918   0.081   1.079   0.860  0.3735 -0.1648 -0.6666
 4428TIP3    H134919   0.014   1.147   0.862 -0.7941 -1.2513 -1.7743
 4428TIP3    H234920   0.157   1.122   0.820 -0.3696  0.4831 -1.4150
 4429TIP3   OH234921   3.415   2.626   7.788  0.9460 -0.3165 -0.3284
 4429TIP3    H134922   3.444   2.538   7.765  0.5186 -0.5686  0.0685
 4429TIP3    H234923   3.323   2.628   7.763  0.2615 -0.8385  1.9064
 4430TIP3   OH234924   3.208   4.184   2.983 -0.1735 -0.0861  0.4817
 4430TIP3    H134925   3.228   4.236   3.060  1.6092 -1.5458  1.0543
 4430TIP3    H234926   3.143   4.121   3.013 -0.4543  0.1762  0.4336
 4431TIP3   OH234927   6.684   6.606   8.095  0.0666  0.5172 -0.1146
 4431TIP3    H134928   6.772   6.635   8.072  0.7141 -0.3449  1.1453
 4431TIP3    H234929   6.631   6.622   8.016  1.3651  0.9356 -0.9212
 4432TIP3   OH234930   6.429   4.314   2.119 -0.0746  0.5501  0.3343
 4432TIP3    H134931   6.378   4.392   2.099  1.5699  2.3653  2.6385
 4432TIP3    H234932   6.369   4.258   2.169 -0.9813  0.7717 -0.4851
 4433TIP3   OH234933   3.041   1.290   1.419 -0.0448  0.4500 -0.3279
 4433TIP3    H134934   2.973   1.264   1.480 -0.6106  1.3961 -0.5313
 4433TIP3    H234935   3.046   1.386   1.427  1.9365  0.3397  0.3912
 4434TIP3   OH234936   6.443   4.151   1.579 -0.4622 -0.7771 -0.1669
 4434TIP3    H134937   6.460   4.103   1.660 -2.2617 -1.3750 -0.1030
 4434TIP3    H234938   6.491   4.233   1.590 -0.7684 -0.7886  1.5564
 4435TIP3   OH234939   2.683   6.083   0.045  0.0442 -0.3073  0.5661
 4435TIP3    H134940   2.625   6.155   0.069  0.5357 -0.0766  1.0892
 4435TIP3    H234941   2.737   6.068   0.122  0.5636 -0.6307  0.1543
 4436TIP3   OH234942   4.454   2.684   2.195 -0.2358 -0.1392 -0.1471
 4436TIP3    H134943   4.461   2.746   2.268 -1.3072 -1.2846  0.9724
 4436TIP3    H234944   4.379   2.714   2.145  1.2450  1.3951 -1.5818
 4437TIP3   OH234945   5.483   2.662   0.344 -0.2516 -0.0559 -0.2707
 4437TIP3    H134946   5.399   2.708   0.343 -0.2544  0.0400  1.4565
 4437TIP3    H234947   5.460   2.571   0.322 -0.6914  0.1290 -0.5990
 4438TIP3   OH234948   4.044   3.159   0.507 -0.1624  0.0747  0.3108
 4438TIP3    H134949   4.022   3.235   0.562 -1.4969 -1.2345  1.6669
 4438TIP3    H234950   4.065   3.090   0.569  1.7622 -0.5047 -0.9243
 4439TIP3   OH234951   6.604   3.177   1.234  0.6873  0.2111 -0.3130
 4439TIP3    H134952   6.509   3.183   1.227  0.7502  2.0650 -0.0772
 4439TIP3    H234953   6.625   3.221   1.317  1.7552  0.0010 -0.4587
 4440TIP3   OH234954   0.343   2.708   0.851 -0.1002  0.4214  0.7257
 4440TIP3    H134955   0.384   2.792   0.831  0.1872  0.6481  2.1526
 4440TIP3    H234956   0.251   2.720   0.829 -0.2490  1.4422  1.8048
 4441TIP3   OH234957   5.944   4.170   2.905 -0.4114 -0.4367 -0.1328
 4441TIP3    H134958   5.873   4.116   2.871  0.9322 -0.9580 -2.2992
 4441TIP3    H234959   6.024   4.126   2.877  0.7661  1.1081  0.6040
 4442TIP3   OH234960   1.748   2.576   2.639  0.1758  0.0309  0.5246
 4442TIP3    H134961   1.670   2.628   2.660 -0.1886 -0.2158 -0.1797
 4442TIP3    H234962   1.820   2.638   2.643 -0.3111  0.7261 -0.7990
 4443TIP3   OH234963   4.387   1.097   0.459 -0.0010  0.2129 -0.5711
 4443TIP3    H134964   4.327   1.038   0.413 -1.2255  0.2359  0.9187
 4443TIP3    H234965   4.332   1.170   0.488  0.7834  0.3607  0.6172
 4444TIP3   OH234966   3.712   1.518   3.373 -0.0603  0.4446 -0.2100
 4444TIP3    H134967   3.636   1.492   3.425 -0.7984 -0.8378 -1.8197
 4444TIP3    H234968   3.683   1.597   3.328  0.0877  0.7839  0.2894
 4445TIP3   OH234969   5.968   3.368   0.980  0.4509  0.2536  0.0352
 4445TIP3    H134970   5.981   3.297   0.917  2.2828  0.0673  0.5583
 4445TIP3    H234971   5.935   3.324   1.059  1.6398 -0.0571  0.3788
 4446TIP3   OH234972   5.245   4.544   0.820  0.1121 -0.2059  0.7163
 4446TIP3    H134973   5.337   4.567   0.828 -0.4650  3.0753 -0.4255
 4446TIP3    H234974   5.201   4.600   0.884 -1.1441 -1.4920  1.0260
 4447TIP3   OH234975   2.551   1.023   2.037 -0.1920 -0.3994 -0.2422
 4447TIP3    H134976   2.530   1.002   2.128  1.0023 -2.4857 -0.3850
 4447TIP3    H234977   2.646   1.028   2.035 -0.2204 -0.0060 -1.3177
 4448TIP3   OH234978   5.088   5.483   7.983 -0.6120 -0.1547  0.3070
 4448TIP3    H134979   5.161   5.429   7.953 -0.5579 -0.3459  0.7883
 4448TIP3    H234980   5.106   5.501   8.075 -0.7520  0.4825  0.2181
 4449TIP3   OH234981   5.840   5.885   0.042 -0.5540 -0.9758  0.4590
 4449TIP3    H134982   5.837   5.796   0.076 -1.9567 -1.7449 -1.4901
 4449TIP3    H234983   5.781   5.884  -0.033 -0.6944  1.6380  0.4370
 4450TIP3   OH234984   3.662   0.877   2.117 -0.5483  0.3296  0.3742
 4450TIP3    H134985   3.700   0.790   2.119 -3.4272 -1.0153  0.6228
 4450TIP3    H234986   3.651   0.901   2.209 -0.5785  0.5985  0.3023
 4451TIP3   OH234987   3.751   4.956   7.334 -0.1023 -0.2790  0.2193
 4451TIP3    H134988   3.774   4.962   7.427 -0.3730  0.6662  0.2349
 4451TIP3    H234989   3.713   4.868   7.324  3.2901 -1.9030  0.2277
 4452TIP3   OH234990   1.070   6.096   1.641  0.6270  0.0767 -0.5771
 4452TIP3    H134991   1.056   6.090   1.736 -0.7116 -0.3623 -0.7687
 4452TIP3    H234992   1.160   6.066   1.628  1.2302  1.2437  0.6550
 4453TIP3   OH234993   3.990   3.556   0.163  0.6935  0.3336  0.0848
 4453TIP3    H134994   3.930   3.482   0.171  1.8827 -0.8785 -1.5305
 4453TIP3    H234995   3.941   3.623   0.115  0.4457 -0.4427 -0.7661
 4454TIP3   OH234996   2.152   6.013   1.564 -0.0773 -0.5770 -0.0568
 4454TIP3    H134997   2.136   5.920   1.547 -1.9150  0.0773 -2.5246
 4454TIP3    H234998   2.065   6.053   1.561  0.7584  1.3712  0.0431
 4455TIP3   OH234999   3.311   3.962   8.473 -0.7581 -0.2672  0.0313
 4455TIP3    H135000   3.346   4.006   8.396 -1.1440 -0.7886 -0.4506
 4455TIP3    H235001   3.224   4.001   8.486 -0.3544  0.4376  0.7317
 4456TIP3   OH235002   1.200   0.970   8.364 -0.1495 -0.4481  0.0878
 4456TIP3    H135003   1.237   0.937   8.281 -1.4983  0.7321 -1.0415
 4456TIP3    H235004   1.111   0.933   8.366 -0.6608  0.7498  0.2273
 4457TIP3   OH235005   2.025   4.630   0.411 -0.2976 -0.0413 -0.4438
 4457TIP3    H135006   2.050   4.570   0.341  2.7454 -0.3526  0.7900
 4457TIP3    H235007   2.058   4.590   0.491 -3.6448  0.3115  1.2892
 4458TIP3   OH235008   4.711   6.270   0.190  1.0596  0.2625  0.1967
 4458TIP3    H135009   4.693   6.364   0.193 -0.5758 -0.0198  0.5443
 4458TIP3    H235010   4.804   6.262   0.208  0.8544  1.7117  2.2017
 4459TIP3   OH235011   6.707   5.968   0.930  0.0716  0.1907  0.1799
 4459TIP3    H135012   6.744   5.927   0.851 -0.6582 -0.4635  0.1727
 4459TIP3    H235013   6.699   5.897   0.993  1.2223  0.8235  1.0828
 4460TIP3   OH235014   1.003   2.949   1.984 -0.2875 -0.2951  0.9657
 4460TIP3    H135015   0.914   2.913   1.988  0.5364 -2.6479  0.1554
 4460TIP3    H235016   1.059   2.874   2.003  1.6564 -0.0119 -2.6989
 4461TIP3   OH235017   0.832   3.831   7.951 -0.4048  0.3416 -0.3302
 4461TIP3    H135018   0.797   3.809   7.865 -0.4924  0.0232 -0.2169
 4461TIP3    H235019   0.829   3.926   7.955  0.4427  0.4112 -1.0349
 4462TIP3   OH235020   6.489   6.203   8.202 -0.3255 -0.4700  0.9369
 4462TIP3    H135021   6.568   6.154   8.179 -0.0959  1.3914 -3.0493
 4462TIP3    H235022   6.520   6.291   8.225 -1.1521 -0.1246  0.7960
 4463TIP3   OH235023   4.884   5.370   7.572  0.1470 -0.2064 -0.5226
 4463TIP3    H135024   4.942   5.324   7.510 -0.4006  0.6253 -1.6828
 4463TIP3    H235025   4.923   5.352   7.658  1.1086 -1.1333 -1.1155
 4464TIP3   OH235026   3.906   5.374   0.048 -0.0770  0.1808  0.5645
 4464TIP3    H135027   3.835   5.381  -0.016  0.5566 -2.7140 -0.6390
 4464TIP3    H235028   3.867   5.398   0.131 -1.9219  0.5729 -0.3697
 4465TIP3   OH235029   2.894   6.132   2.956  0.1478 -0.2480 -0.3410
 4465TIP3    H135030   2.857   6.216   2.984  1.1705  0.2840 -0.5563
 4465TIP3    H235031   2.953   6.107   3.027 -1.2822 -1.5689  0.4524
 4466TIP3   OH235032   1.260   2.358   7.942  0.4971  0.3070 -0.3075
 4466TIP3    H135033   1.294   2.447   7.939  1.3864 -0.0287 -0.6582
 4466TIP3    H235034   1.227   2.342   7.853 -0.3964  0.5637 -0.0210
 4467TIP3   OH235035   6.123   2.174   2.698 -0.1685  0.0346 -0.1306
 4467TIP3    H135036   6.207   2.154   2.659 -0.7008  0.5220 -1.5873
 4467TIP3    H235037   6.143   2.237   2.768  0.4870  1.8803 -1.8928
 4468TIP3   OH235038   5.452   3.223   2.421 -0.3293  0.5768 -0.3026
 4468TIP3    H135039   5.408   3.228   2.336 -2.3503  3.9027  0.7214
 4468TIP3    H235040   5.409   3.152   2.467  0.0214 -0.5280 -1.6263
 4469TIP3   OH235041   6.558   3.920   0.195  0.0968 -0.3258  0.4413
 4469TIP3    H135042   6.634   3.902   0.140 -0.4150 -0.5740 -0.1914
 4469TIP3    H235043   6.560   3.852   0.262  0.9549  0.2243  0.9847
 4470TIP3   OH235044   0.266   0.143   8.145 -0.0248  0.0546  0.2444
 4470TIP3    H135045   0.177   0.175   8.130 -0.0322 -0.7563 -1.6894
 4470TIP3    H235046   0.274   0.065   8.090  1.8717  0.0867  0.3937
 4471TIP3   OH235047   2.751   2.758   7.978 -0.2471  0.2494  0.3366
 4471TIP3    H135048   2.731   2.852   7.976  0.7900  0.4800  0.3255
 4471TIP3    H235049   2.836   2.752   8.021  0.2995 -0.5712 -0.7882
 4472TIP3   OH235050   2.677   5.190   7.866 -0.0682 -0.1349  0.1819
 4472TIP3    H135051   2.650   5.253   7.933  0.0301  0.8522 -0.6679
 4472TIP3    H235052   2.764   5.221   7.839 -0.6987  0.3612 -1.3936
 4473TIP3   OH235053   4.556   6.583   7.795  0.5617 -0.4639  0.1916
 4473TIP3    H135054   4.506   6.558   7.873  1.1835  0.0291  0.7598
 4473TIP3    H235055   4.584   6.500   7.757 -2.6716 -0.9293 -1.5309
 4474TIP3   OH235056   0.556   1.213   0.065  0.6121  0.3838 -1.0181
 4474TIP3    H135057   0.485   1.258   0.018 -0.5563 -0.1517  0.1866
 4474TIP3    H235058   0.591   1.280   0.125  1.9000  0.9753 -2.3625
 4475TIP3   OH235059   2.654   2.914   0.973  0.7035  1.1960  0.2535
 4475TIP3    H135060   2.562   2.889   0.959  0.4754  1.9243  0.4084
 4475TIP3    H235061   2.698   2.891   0.891  0.1809  1.7728 -0.1926
 4476TIP3   OH235062   0.379   1.101   7.694  0.1184  0.6363  0.1188
 4476TIP3    H135063   0.448   1.163   7.721  2.0174 -0.5824 -1.6399
 4476TIP3    H235064   0.411   1.064   7.612 -2.8909  0.2749 -1.0016
 4477TIP3   OH235065   6.129   3.712   0.176  0.1904  0.0676 -0.5341
 4477TIP3    H135066   6.216   3.691   0.209  0.2133  0.3781 -0.3898
 4477TIP3    H235067   6.099   3.632   0.133 -0.1688 -0.6314  0.9501
 4478TIP3   OH235068   4.679   1.758   0.756 -1.1904 -0.0827  0.2774
 4478TIP3    H135069   4.754   1.763   0.816 -1.8672 -0.9194  1.2297
 4478TIP3    H235070   4.604   1.781   0.810 -1.7932 -0.6620 -0.3017
 4479TIP3   OH235071   4.048   5.877   2.274  0.3246 -0.7389  0.1863
 4479TIP3    H135072   3.992   5.800   2.277 -0.8293  0.0304 -0.7027
 4479TIP3    H235073   4.062   5.894   2.181  0.9008 -0.1199  0.3773
 4480TIP3   OH235074   6.833   4.554   2.709  0.0944  0.4746 -0.5512
 4480TIP3    H135075   6.849   4.470   2.667  0.1619 -0.1052  0.6056
 4480TIP3    H235076   6.884   4.551   2.790 -1.6229  0.7101  0.6091
 4481TIP3   OH235077   1.293   1.461   1.446  1.0780 -0.9102 -0.0430
 4481TIP3    H135078   1.217   1.460   1.388  0.2037 -0.2262  1.0724
 4481TIP3    H235079   1.259   1.438   1.532  2.0665 -0.2829  0.5364
 4482TIP3   OH235080   6.535   3.424   0.241  0.1380  0.4667  0.9065
 4482TIP3    H135081   6.520   3.341   0.286  1.6180 -0.7009 -0.6181
 4482TIP3    H235082   6.449   3.448   0.207 -0.0723 -1.2352  0.1277
 4483TIP3   OH235083   4.108   1.870   1.716 -0.5060  0.1461  0.1607
 4483TIP3    H135084   4.149   1.785   1.700  0.4533  0.8231 -1.0749
 4483TIP3    H235085   4.177   1.924   1.753 -0.8252  0.7042 -0.0476
 4484TIP3   OH235086   0.017   6.612   1.200 -0.6055  0.5955  0.2081
 4484TIP3    H135087   0.062   6.637   1.119 -2.1699  2.1691 -0.2430
 4484TIP3    H235088  -0.026   6.530   1.179 -0.1426  0.4517 -0.2062
 4485TIP3   OH235089   1.749   3.641   8.348  0.2293  0.0995  0.0183
 4485TIP3    H135090   1.655   3.657   8.356  0.4506  0.9237  1.1040
 4485TIP3    H235091   1.754   3.555   8.306 -0.9821  1.0229 -2.2185
 4486TIP3   OH235092   2.357   0.508   3.052  0.0818  0.3346 -0.0020
 4486TIP3    H135093   2.400   0.581   3.095  1.8796 -0.0363 -1.0728
 4486TIP3    H235094   2.426   0.442   3.040 -1.1202 -0.9054 -0.4596
 4487TIP3   OH235095   2.087   1.576   1.974 -0.4779  0.2828 -0.1340
 4487TIP3    H135096   1.997   1.584   2.003 -0.2666 -0.5188  0.8128
 4487TIP3    H235097   2.082   1.525   1.893 -1.0014  1.7299 -1.0345
 4488TIP3   OH235098   6.187   0.309   1.741  0.1851  0.3154 -0.3329
 4488TIP3    H135099   6.236   0.227   1.746  1.3091  0.9271 -0.6954
 4488TIP3    H235100   6.220   0.360   1.815 -0.9449  0.2180  0.2449
 4489TIP3   OH235101   3.701   1.407   2.612 -0.3559 -0.2356  0.6327
 4489TIP3    H135102   3.713   1.436   2.521 -1.3996  1.7628  1.0603
 4489TIP3    H235103   3.714   1.312   2.609 -1.2182 -0.3590 -1.7681
 4490TIP3   OH235104   3.474   5.074   0.792  0.0881 -0.9955 -0.2014
 4490TIP3    H135105   3.438   5.057   0.879  0.1252  0.5127  0.1430
 4490TIP3    H235106   3.402   5.054   0.732 -0.1704 -1.3657  0.2262
 4491TIP3   OH235107   5.926   4.821   2.301 -0.2756  0.2144  0.7408
 4491TIP3    H135108   5.974   4.874   2.365  1.2643  2.9491 -2.3773
 4491TIP3    H235109   5.872   4.884   2.253 -1.1683 -1.6344 -0.8335
 4492TIP3   OH235110   1.508   6.723   2.541  0.1609  0.2490 -0.2867
 4492TIP3    H135111   1.601   6.702   2.555  0.4332  0.1777 -2.0312
 4492TIP3    H235112   1.475   6.649   2.490 -1.1731 -0.2862  1.2617
 4493TIP3   OH235113   1.786   6.380   2.201 -0.2997 -0.1533 -0.7962
 4493TIP3    H135114   1.762   6.310   2.261  0.7962 -0.4220 -0.6499
 4493TIP3    H235115   1.706   6.400   2.153 -0.9489 -0.5924  0.0916
 4494TIP3   OH235116   0.858   5.475   3.059 -0.1823  0.3389  0.0243
 4494TIP3    H135117   0.850   5.385   3.027  0.1736  0.9786 -1.9817
 4494TIP3    H235118   0.952   5.493   3.057 -0.1525  0.4678  1.3631
 4495TIP3   OH235119   6.885   0.007   8.240 -0.3637  0.1563 -0.1809
 4495TIP3    H135120   6.855  -0.038   8.161  2.4942 -0.4498 -1.0073
 4495TIP3    H235121   6.844   0.093   8.235 -2.1455 -0.6806 -1.0373
 4496TIP3   OH235122   1.560   6.237   3.202 -0.3047 -0.0157 -0.4380
 4496TIP3    H135123   1.630   6.207   3.260  0.0271 -0.2292 -0.9412
 4496TIP3    H235124   1.563   6.333   3.210 -1.6448 -0.0889  1.4914
 4497TIP3   OH235125   0.542   5.652   2.066  0.4496 -0.3070 -0.5306
 4497TIP3    H135126   0.634   5.675   2.076  0.7599 -1.4918 -0.5362
 4497TIP3    H235127   0.499   5.734   2.043  1.5165  0.2439 -0.6059
 4498TIP3   OH235128   0.425   6.216   8.271 -0.1162  0.0236  0.0193
 4498TIP3    H135129   0.480   6.184   8.199  1.8962 -0.6072  1.7569
 4498TIP3    H235130   0.379   6.138   8.303  0.1025  0.0329  0.3539
 4499TIP3   OH235131   5.676   0.739   8.277  0.1133 -0.5223 -0.7652
 4499TIP3    H135132   5.697   0.829   8.251 -0.4211 -0.9559 -2.8846
 4499TIP3    H235133   5.714   0.685   8.208  0.1616 -1.9418  0.3128
 4500TIP3   OH235134   6.680   2.636   0.820  0.3137 -0.1604 -0.5019
 4500TIP3    H135135   6.765   2.636   0.863  1.2355 -1.5954 -2.1722
 4500TIP3    H235136   6.627   2.576   0.872 -0.0659  1.5602  1.1711
 4501TIP3   OH235137   0.613   4.821   7.609  0.3810  0.3830  0.3368
 4501TIP3    H135138   0.572   4.885   7.551 -0.5863 -0.0972  0.4823
 4501TIP3    H235139   0.572   4.835   7.694 -0.0734 -0.6444  0.2966
 4502TIP3   OH235140   5.339   5.336   7.941  0.4121 -0.1204  0.7090
 4502TIP3    H135141   5.304   5.253   7.908  2.4289 -0.7091 -0.1261
 4502TIP3    H235142   5.341   5.394   7.865 -0.3991  0.5067  1.1495
 4503TIP3   OH235143   2.855   3.029   8.569  0.4514  0.1113 -0.2903
 4503TIP3    H135144   2.940   2.998   8.539  0.1071 -0.3698 -0.7969
 4503TIP3    H235145   2.807   2.949   8.591  0.4621  0.4226  0.9282
 4504TIP3   OH235146   2.988   1.483   8.476  0.9572 -0.0800 -0.3810
 4504TIP3    H135147   2.942   1.499   8.558  0.0590 -0.7609 -0.7323
 4504TIP3    H235148   3.081   1.480   8.501  0.8025  0.9772  0.3873
 4505TIP3   OH235149   2.942   4.234   7.135 -0.1169  0.0255  0.4190
 4505TIP3    H135150   3.016   4.249   7.194  1.3670 -1.2831 -0.9866
 4505TIP3    H235151   2.891   4.314   7.139  2.1450  1.5601  0.4148
 4506TIP3   OH235152   1.116   5.187   8.118  0.0945 -0.2240 -0.4866
 4506TIP3    H135153   1.041   5.127   8.118  0.2560 -0.4363 -1.4314
 4506TIP3    H235154   1.175   5.152   8.185 -0.8004  0.1511  0.5238
 4507TIP3   OH235155   2.803   3.498   1.184  0.2506  0.3334  0.2005
 4507TIP3    H135156   2.871   3.516   1.250  1.8247 -2.4430 -0.5048
 4507TIP3    H235157   2.723   3.531   1.224  1.8619  3.2952  1.3145
 4508TIP3   OH235158   2.385   0.600   0.469 -0.2786  0.2821  0.3467
 4508TIP3    H135159   2.375   0.549   0.388  0.3203  2.3713 -1.1290
 4508TIP3    H235160   2.338   0.681   0.452  2.3975  2.0526  0.8527
 4509TIP3   OH235161   1.852   1.323   0.744  0.1276  0.6563 -0.6218
 4509TIP3    H135162   1.788   1.316   0.673  0.6677  0.6111 -1.1129
 4509TIP3    H235163   1.810   1.281   0.818 -0.4413  0.6884 -0.9168
 4510TIP3   OH235164   6.728   4.868   8.644  0.0288 -0.2893  0.3231
 4510TIP3    H135165   6.814   4.880   8.603  0.3727  0.4022  1.1926
 4510TIP3    H235166   6.692   4.957   8.648  0.4583 -0.1453  2.4102
 4511TIP3   OH235167   6.507   2.586   1.572 -0.1815  0.1201  0.3366
 4511TIP3    H135168   6.460   2.620   1.648  0.0747 -0.8313  0.9418
 4511TIP3    H235169   6.512   2.660   1.512  1.4064  1.5137  2.0822
 4512TIP3   OH235170   0.183   2.060   1.949  0.0102 -0.1886  0.4739
 4512TIP3    H135171   0.117   1.995   1.972  0.8832 -1.6046 -0.7957
 4512TIP3    H235172   0.133   2.136   1.919 -1.0357 -0.9259  0.3106
 4513TIP3   OH235173   4.353   3.432   2.286  0.2981 -0.6477  0.3339
 4513TIP3    H135174   4.443   3.463   2.276  0.1630 -0.2935  0.2133
 4513TIP3    H235175   4.362   3.337   2.299  0.7853 -0.4180  1.8637
 4514TIP3   OH235176   2.438   0.624   2.585 -0.0907  0.4282  0.2089
 4514TIP3    H135177   2.501   0.589   2.522 -1.0630  0.1787 -0.6473
 4514TIP3    H235178   2.422   0.551   2.646  1.8305  1.0693  1.5725
 4515TIP3   OH235179   4.847   5.634   8.095  0.1718 -0.5582  0.9911
 4515TIP3    H135180   4.922   5.589   8.135  0.3388 -2.6577 -1.4190
 4515TIP3    H235181   4.778   5.567   8.094 -0.4118  0.0400 -0.4600
 4516TIP3   OH235182   3.363   6.797   2.906  0.6703  0.6177 -0.0356
 4516TIP3    H135183   3.374   6.885   2.869  1.2072  0.2107 -0.8793
 4516TIP3    H235184   3.386   6.738   2.834  0.6248 -0.2119  0.6163
 4517TIP3   OH235185   0.637   0.768   0.057 -0.0371 -0.7738  0.4517
 4517TIP3    H135186   0.602   0.679   0.062  0.9246 -1.0962  3.1471
 4517TIP3    H235187   0.732   0.756   0.061  0.0766  0.3655  1.6882
 4518TIP3   OH235188   3.478   6.416   2.082 -0.0824 -0.1668 -0.1649
 4518TIP3    H135189   3.498   6.472   2.157 -0.2016  2.6465 -2.0637
 4518TIP3    H235190   3.382   6.415   2.077 -0.1232  2.4824 -2.0610
 4519TIP3   OH235191   1.028   3.762   1.178  0.1157  0.2899  0.0938
 4519TIP3    H135192   0.969   3.693   1.148 -0.0278  0.2736  0.4023
 4519TIP3    H235193   0.975   3.813   1.241  0.5427  0.0453  0.6595
 4520TIP3   OH235194   0.682   3.421   2.094  0.2067  0.0648  0.2387
 4520TIP3    H135195   0.671   3.385   2.182  1.5084 -1.0088 -0.0114
 4520TIP3    H235196   0.599   3.466   2.077 -1.4322 -2.5102  0.7287
 4521TIP3   OH235197   6.331   3.735   2.799  0.1612  0.5383 -0.4249
 4521TIP3    H135198   6.411   3.742   2.851  1.1569 -1.6120 -1.5582
 4521TIP3    H235199   6.268   3.694   2.859 -0.3078  2.5872  0.5958
 4522TIP3   OH235200   3.716   4.046   2.948 -0.0595 -0.2759 -0.0540
 4522TIP3    H135201   3.744   4.001   2.868  1.1699  1.0850 -0.4352
 4522TIP3    H235202   3.631   4.085   2.926  0.3357  0.2014 -0.7466
 4523TIP3   OH235203   1.665   1.973   0.644 -0.0378 -0.3842 -0.2642
 4523TIP3    H135204   1.687   2.003   0.732  0.9449  0.6447 -0.8268
 4523TIP3    H235205   1.716   1.893   0.633 -0.5950 -0.8278  0.2839
 4524TIP3   OH235206   3.662   3.733   0.687  0.2176 -0.2191 -0.1869
 4524TIP3    H135207   3.610   3.673   0.741  0.2999 -0.9807 -0.9345
 4524TIP3    H235208   3.728   3.768   0.747 -0.7833  0.3040  0.6224
 4525TIP3   OH235209   1.651   6.700   0.145  0.1335 -0.7026 -0.0333
 4525TIP3    H135210   1.667   6.714   0.052 -0.6492  0.0780 -0.0589
 4525TIP3    H235211   1.707   6.626   0.168  0.0024 -1.1916 -1.2276
 4526TIP3   OH235212   5.808   3.861   0.086  0.0944  0.0242 -0.0966
 4526TIP3    H135213   5.889   3.816   0.061  0.4360  0.4497  0.2325
 4526TIP3    H235214   5.740   3.819   0.032  0.1984 -1.7177  1.0409
 4527TIP3   OH235215   6.827   3.378   0.471 -0.3180  0.1986  0.6641
 4527TIP3    H135216   6.888   3.308   0.446 -0.3429  0.2761  0.3874
 4527TIP3    H235217   6.852   3.400   0.561 -0.7493 -0.6379  1.0020
 4528TIP3   OH235218   4.112   4.055   3.687  0.1031 -0.0585 -0.7027
 4528TIP3    H135219   4.026   4.030   3.652  0.3724  2.0542 -3.2272
 4528TIP3    H235220   4.091   4.112   3.761 -0.7973  1.6305 -2.1787
 4529TIP3   OH235221   1.007   5.339   1.242 -0.8030  0.1044  0.2221
 4529TIP3    H135222   1.002   5.286   1.322  0.0092  1.5251  1.2598
 4529TIP3    H235223   1.087   5.310   1.198  0.8715  1.8620  1.9030
 4530TIP3   OH235224   1.504   1.943   7.791 -0.0325 -0.3127 -0.0120
 4530TIP3    H135225   1.479   1.926   7.701 -1.5507  0.0574  0.3123
 4530TIP3    H235226   1.435   2.001   7.825  0.1300 -1.0036  1.5907
 4531TIP3   OH235227   5.727   4.815   1.380 -0.3063 -0.4471 -0.2869
 4531TIP3    H135228   5.820   4.832   1.397 -0.7522  0.6759  1.2042
 4531TIP3    H235229   5.692   4.899   1.351 -0.0855 -1.7376 -5.0012
 4532TIP3   OH235230   4.427   4.708   0.216 -0.4622  0.2100 -0.6381
 4532TIP3    H135231   4.384   4.734   0.298 -1.1787  1.9884 -1.5362
 4532TIP3    H235232   4.355   4.697   0.154  0.0076 -1.8976 -0.8776
 4533TIP3   OH235233   4.894   0.047   7.827 -0.4057 -0.2893 -0.3756
 4533TIP3    H135234   4.989   0.033   7.817 -0.2528  0.1552  0.3882
 4533TIP3    H235235   4.855  -0.034   7.795  0.3679 -1.7032  2.0442
 4534TIP3   OH235236   2.662   2.493   0.583 -0.0061  0.3311 -0.0827
 4534TIP3    H135237   2.674   2.447   0.500 -1.4533 -1.8895  0.8521
 4534TIP3    H235238   2.569   2.517   0.584  0.3274  1.7438  0.2590
 4535TIP3   OH235239   3.502   2.557   2.826  0.4302 -0.2865  0.0760
 4535TIP3    H135240   3.451   2.589   2.900 -2.3818 -2.4718 -0.7219
 4535TIP3    H235241   3.512   2.463   2.842  2.9485 -0.2040 -0.6035
 4536TIP3   OH235242   2.331   6.429   8.400  0.1621 -0.0844  0.1959
 4536TIP3    H135243   2.372   6.342   8.403  1.2436  0.4182  0.2571
 4536TIP3    H235244   2.244   6.413   8.363  1.2948 -0.8496 -2.3423
 4537TIP3   OH235245   6.608   6.397   2.105 -0.5080  1.0469 -0.5540
 4537TIP3    H135246   6.591   6.342   2.029  2.0622 -0.2185 -0.3159
 4537TIP3    H235247   6.610   6.337   2.179  4.9057  0.7034 -0.5895
 4538TIP3   OH235248   3.286   1.347   2.500 -0.6014 -0.3942  0.0596
 4538TIP3    H135249   3.251   1.417   2.445 -1.0625 -2.0107 -1.8347
 4538TIP3    H235250   3.217   1.281   2.502 -0.4981 -0.5063  2.4631
 4539TIP3   OH235251   6.428   3.242   2.309  0.6807 -0.0982 -0.2618
 4539TIP3    H135252   6.360   3.278   2.367  1.8576  1.0787  0.4693
 4539TIP3    H235253   6.481   3.187   2.367  1.3311  0.3561 -0.4149
 4540TIP3   OH235254   0.911   2.446   3.190  0.1306  0.0090  0.0494
 4540TIP3    H135255   1.003   2.443   3.214  0.6042  0.0040 -1.6412
 4540TIP3    H235256   0.872   2.508   3.251  1.5911  1.2423 -0.2238
 4541TIP3   OH235257   2.613   1.684   8.384  0.6735  0.1253  0.0332
 4541TIP3    H135258   2.532   1.733   8.394  1.5767  1.6523  0.0883
 4541TIP3    H235259   2.682   1.744   8.411  1.8871 -0.9188 -0.6042
 4542TIP3   OH235260   0.818   1.905   0.847 -0.2263  0.3206  0.1097
 4542TIP3    H135261   0.771   1.825   0.821 -0.5304  0.8549 -1.0309
 4542TIP3    H235262   0.910   1.885   0.829 -0.2123 -0.0426  0.5555
 4543TIP3   OH235263   6.596   5.226   1.519  0.0360  0.0932 -0.2749
 4543TIP3    H135264   6.622   5.272   1.439 -0.0269 -0.1342 -0.4267
 4543TIP3    H235265   6.640   5.273   1.589 -1.2817  1.3957 -0.2545
 4544TIP3   OH235266   3.232   0.754   2.924  0.8857  0.2370  0.1341
 4544TIP3    H135267   3.262   0.834   2.967 -1.9917 -0.5687  4.2446
 4544TIP3    H235268   3.269   0.683   2.977  2.1813 -1.2601 -2.5507
 4545TIP3   OH235269   1.900   4.653   8.064  0.3632  0.0045  0.0687
 4545TIP3    H135270   1.915   4.719   7.997  1.8386 -1.4444 -1.0998
 4545TIP3    H235271   1.983   4.647   8.111  0.2111 -0.9291  0.2351
 4546TIP3   OH235272   6.183   0.356   0.833 -0.3324 -0.3727 -0.2834
 4546TIP3    H135273   6.091   0.351   0.807  0.0274  0.7583 -1.9395
 4546TIP3    H235274   6.231   0.325   0.756  0.6970  0.1941  0.1163
 4547TIP3   OH235275   3.428   2.658   8.314  0.4627  0.3597 -0.2495
 4547TIP3    H135276   3.412   2.574   8.355  0.7847  1.2456  1.7823
 4547TIP3    H235277   3.523   2.669   8.316  0.4124  0.8616 -0.2858
 4548TIP3   OH235278   5.471   2.881   2.305 -0.2500  0.1392 -0.4415
 4548TIP3    H135279   5.458   2.947   2.236  0.3944  0.0745 -0.6275
 4548TIP3    H235280   5.565   2.884   2.324  0.0966 -1.7891 -1.5450
 4549TIP3   OH235281   5.119   0.321   3.152 -0.4807  0.1586  0.4004
 4549TIP3    H135282   5.116   0.389   3.220 -0.2013  0.6921 -0.1136
 4549TIP3    H235283   5.037   0.272   3.164 -1.3649  1.4572 -0.1117
 4550TIP3   OH235284   4.613   3.800   0.463 -0.0418  0.5184  0.5581
 4550TIP3    H135285   4.549   3.758   0.406  0.2688  0.1454  0.4785
 4550TIP3    H235286   4.580   3.889   0.476  0.4959  1.0085 -1.1828
 4551TIP3   OH235287   2.949   6.310   2.739  0.8249  0.4080  0.1824
 4551TIP3    H135288   2.931   6.248   2.809 -0.6985  1.1816  0.5354
 4551TIP3    H235289   2.937   6.396   2.779 -1.8053  0.8764 -1.3464
 4552TIP3   OH235290   2.121   5.820   0.103 -0.0570 -0.2899  0.0206
 4552TIP3    H135291   2.080   5.760   0.165 -0.7680 -0.6548 -0.7809
 4552TIP3    H235292   2.204   5.778   0.080  0.6988  0.3352  1.4674
 4553TIP3   OH235293   3.437   0.965   1.797  0.3117  0.1429  0.6289
 4553TIP3    H135294   3.532   0.973   1.804  0.3535  0.3705 -0.1350
 4553TIP3    H235295   3.412   1.026   1.728 -0.6856  1.8214  2.3691
 4554TIP3   OH235296   1.945   3.490   2.745 -0.2164 -0.0939  0.3414
 4554TIP3    H135297   1.985   3.418   2.795  0.7336 -0.1769 -0.5188
 4554TIP3    H235298   1.873   3.519   2.800 -0.8007 -1.8884  0.5884
 4555TIP3   OH235299   3.548   0.993   2.365 -0.5158 -0.2075  0.4063
 4555TIP3    H135300   3.482   0.932   2.398  0.7123 -1.0641  1.3749
 4555TIP3    H235301   3.599   1.016   2.443 -0.4151  1.4064 -0.1046
 4556TIP3   OH235302   0.835   2.999   8.589  0.0282  0.3106  0.6291
 4556TIP3    H135303   0.754   2.947   8.586 -0.2405  0.6632 -2.7806
 4556TIP3    H235304   0.809   3.083   8.625 -0.4817 -0.4844  2.1694
 4557TIP3   OH235305   4.921   1.783   2.154 -0.2397  0.3377 -0.1411
 4557TIP3    H135306   4.925   1.878   2.145 -1.8237  0.6687  1.9370
 4557TIP3    H235307   5.010   1.754   2.134  0.4584  2.3159 -0.1940
 4558TIP3   OH235308   4.959   1.530   2.531  0.3337  0.1803  0.3697
 4558TIP3    H135309   4.973   1.619   2.499  0.6160  0.4577  1.2249
 4558TIP3    H235310   4.976   1.536   2.625  1.0746 -0.9366  0.3268
 4559TIP3   OH235311   3.244   5.815   0.330  0.2831  0.3296  0.3144
 4559TIP3    H135312   3.177   5.877   0.301  0.2097  0.5387  0.9319
 4559TIP3    H235313   3.291   5.793   0.250 -0.5864  0.0983 -0.1524
 4560TIP3   OH235314   6.829   2.590   1.854 -0.7342  0.2954 -0.1793
 4560TIP3    H135315   6.888   2.647   1.805 -1.2004  1.0841  0.1534
 4560TIP3    H235316   6.835   2.622   1.944  0.4633 -1.4289  0.3974
 4561TIP3   OH235317   2.086   2.334   1.427 -0.4140 -0.1988 -0.3873
 4561TIP3    H135318   2.139   2.334   1.507 -0.3022 -0.8763 -0.4504
 4561TIP3    H235319   2.064   2.241   1.413  0.3159 -0.2193 -1.6198
 4562TIP3   OH235320   2.655   6.174   0.457  0.0698  0.0013  0.6265
 4562TIP3    H135321   2.621   6.088   0.481  1.0074 -0.1755  1.3620
 4562TIP3    H235322   2.742   6.177   0.496  2.8258 -1.2277 -4.5980
 4563TIP3   OH235323   2.597   4.230   2.021  0.2422  0.5244 -0.4642
 4563TIP3    H135324   2.671   4.175   2.045 -0.9467 -0.4277  1.3038
 4563TIP3    H235325   2.558   4.187   1.945 -0.5284 -1.0664  0.7456
 4564TIP3   OH235326   6.038   2.387   0.825  0.4014  0.2684 -0.1380
 4564TIP3    H135327   6.103   2.449   0.793 -0.0758  1.0948  0.4533
 4564TIP3    H235328   5.957   2.409   0.779  0.3725 -0.3185 -0.3786
 4565TIP3   OH235329   1.329   0.236   0.228 -0.1492 -0.2198 -0.7656
 4565TIP3    H135330   1.386   0.187   0.286 -1.5091 -0.0632  0.7746
 4565TIP3    H235331   1.333   0.326   0.260  1.7132  0.6112 -3.0794
 4566TIP3   OH235332   4.629   4.772   8.604  0.1001 -0.3449 -0.1859
 4566TIP3    H135333   4.720   4.801   8.603  0.6455 -1.8490  1.2632
 4566TIP3    H235334   4.626   4.706   8.673 -1.7199 -1.5398 -1.3277
 4567TIP3   OH235335   6.179   1.057   2.105  0.0401 -0.4076  0.4366
 4567TIP3    H135336   6.114   1.024   2.166 -1.9139  1.1573 -0.6787
 4567TIP3    H235337   6.135   1.129   2.059  1.8526 -0.6364 -1.8572
 4568TIP3   OH235338   4.627   3.743   2.631  0.1377 -0.2205 -0.3897
 4568TIP3    H135339   4.582   3.761   2.713  2.1264 -1.0250  0.9412
 4568TIP3    H235340   4.703   3.802   2.632  0.3326 -0.4323 -1.5275
 4569TIP3   OH235341   4.227   1.166   2.267 -0.0196 -0.5290 -0.2631
 4569TIP3    H135342   4.319   1.168   2.291 -0.4140 -1.3589  1.4527
 4569TIP3    H235343   4.194   1.085   2.306 -1.4999 -0.1975 -0.7717
 4570TIP3   OH235344   5.255   0.465   2.415  0.4369 -0.2325 -0.0400
 4570TIP3    H135345   5.282   0.374   2.397 -2.5903 -0.9000 -1.7780
 4570TIP3    H235346   5.316   0.518   2.364  1.0312 -1.3815 -0.5705
 4571TIP3   OH235347   4.250   5.322   2.148 -0.1923 -0.0642  0.4443
 4571TIP3    H135348   4.345   5.328   2.141 -0.0477  0.2618  2.1747
 4571TIP3    H235349   4.218   5.409   2.126 -0.0804 -0.1053  0.1163
 4572TIP3   OH235350   0.505   1.997   0.327  0.1122 -0.1171 -0.5855
 4572TIP3    H135351   0.431   2.043   0.366  0.4096 -0.6030  0.5826
 4572TIP3    H235352   0.510   1.914   0.374  0.0432 -1.0602 -2.1557
 4573TIP3   OH235353   6.175   4.086   2.772  0.2323 -0.3472  0.3677
 4573TIP3    H135354   6.234   4.057   2.841 -0.0182  1.0158  1.1820
 4573TIP3    H235355   6.225   4.075   2.691  0.1575 -2.9621  0.6008
 4574TIP3   OH235356   2.611   0.991   0.440  0.1256 -0.0084 -0.3061
 4574TIP3    H135357   2.577   1.077   0.466  2.4361  1.3912 -1.5752
 4574TIP3    H235358   2.539   0.931   0.459 -1.5232  2.1431  0.8314
 4575TIP3   OH235359   0.711   2.192   1.378  0.1440 -0.2433  0.1442
 4575TIP3    H135360   0.765   2.205   1.300  1.7797 -1.7325  0.9591
 4575TIP3    H235361   0.683   2.280   1.402  1.1594  0.4460 -1.0509
 4576TIP3   OH235362   4.935   1.603   2.790  0.4463  0.3744  0.0296
 4576TIP3    H135363   4.913   1.583   2.881 -1.1492 -0.0921 -0.4210
 4576TIP3    H235364   4.853   1.631   2.751  0.8524 -0.5033 -1.5503
 4577TIP3   OH235365   5.224   3.012   8.261  0.1465 -0.3035  0.8342
 4577TIP3    H135366   5.273   3.094   8.252  1.2601 -0.4306  4.3145
 4577TIP3    H235367   5.133   3.036   8.245  0.7609  0.9136 -1.1887
 4578TIP3   OH235368   1.341   6.237   8.649  0.4339  0.5199 -0.0518
 4578TIP3    H135369   1.350   6.156   8.599 -1.9055 -0.5982  1.1283
 4578TIP3    H235370   1.250   6.235   8.679  0.9748  2.4585  1.9425
 4579TIP3   OH235371   3.806   2.066   2.789  0.3192  0.5988 -0.2975
 4579TIP3    H135372   3.886   2.053   2.739  0.4231  0.6666 -0.1486
 4579TIP3    H235373   3.750   1.992   2.765  1.5968 -1.1814  1.9369
 4580TIP3   OH235374   1.163   4.879   8.131  0.8866  0.0468 -0.1751
 4580TIP3    H135375   1.250   4.919   8.124  1.1101  0.3502  2.9980
 4580TIP3    H235376   1.167   4.804   8.072  3.8321 -0.7649  0.8886
 4581TIP3   OH235377   4.088   0.856   0.627 -0.4874 -0.1526  0.8797
 4581TIP3    H135378   4.163   0.900   0.668 -1.7449  1.9071  1.1172
 4581TIP3    H235379   4.103   0.763   0.644  1.5509  0.2623  1.6805
 4582TIP3   OH235380   4.228   4.173   2.536 -0.3062  0.0368 -0.3256
 4582TIP3    H135381   4.265   4.244   2.485 -0.8840  0.9481  0.4728
 4582TIP3    H235382   4.303   4.120   2.562  0.4221  1.5763  0.8761
 4583TIP3   OH235383   5.299   3.466   2.868 -0.1556 -0.2114 -0.1095
 4583TIP3    H135384   5.286   3.465   2.773  0.6343  0.0518 -0.2256
 4583TIP3    H235385   5.239   3.533   2.900 -0.0600  0.0529 -0.4799
 4584TIP3   OH235386   2.455   6.135   1.924  0.0690  0.2372  0.5945
 4584TIP3    H135387   2.378   6.093   1.885  0.8318  0.2420 -0.9782
 4584TIP3    H235388   2.528   6.107   1.869  1.0623  0.9940  1.4964
 4585TIP3   OH235389   0.322   3.193   0.643 -0.2220  0.3057 -0.3625
 4585TIP3    H135390   0.380   3.259   0.680 -1.5053  2.0092 -1.2759
 4585TIP3    H235391   0.233   3.224   0.663 -0.8891 -0.2723 -2.2167
 4586TIP3   OH235392   0.070   3.167   2.584  0.1138 -0.3216  0.4513
 4586TIP3    H135393   0.010   3.114   2.531 -0.1418 -1.3610  1.7228
 4586TIP3    H235394   0.035   3.160   2.673  1.1356  0.4984  0.9317
 4587TIP3   OH235395   1.077   4.550   0.373 -0.0148  0.4705  0.0747
 4587TIP3    H135396   1.157   4.543   0.425  0.1207 -0.1420 -0.2113
 4587TIP3    H235397   1.043   4.461   0.368 -0.5127  0.6666 -0.1289
 4588TIP3   OH235398   1.779   4.203   8.322  1.1771  0.3503  0.7970
 4588TIP3    H135399   1.783   4.127   8.264 -1.4241 -0.0646  1.0486
 4588TIP3    H235400   1.731   4.269   8.271  0.3910  0.5826  1.8101
 4589TIP3   OH235401   4.189   2.440   1.374 -0.1657  0.0038  0.2442
 4589TIP3    H135402   4.170   2.347   1.359 -1.2963  0.1196  0.8078
 4589TIP3    H235403   4.276   2.453   1.337  0.8162 -1.7071  1.7564
 4590TIP3   OH235404   1.358   4.400   7.990  0.0108  0.1037 -0.5767
 4590TIP3    H135405   1.263   4.389   7.994  0.0317  0.3657  1.0952
 4590TIP3    H235406   1.385   4.346   7.915 -1.3347 -0.7363 -0.4858
 4591TIP3   OH235407   0.789   4.880   0.012 -0.8443 -0.0173  0.0672
 4591TIP3    H135408   0.802   4.804  -0.044 -1.6380 -1.0605  1.2326
 4591TIP3    H235409   0.792   4.845   0.101 -1.1718  1.3271  0.6376
 4592TIP3   OH235410   0.719   5.224   1.997  0.0661  0.2793  0.3571
 4592TIP3    H135411   0.777   5.160   2.038  0.8558 -0.4868 -1.8149
 4592TIP3    H235412   0.751   5.309   2.028  1.4840 -0.2030  0.2937
 4593TIP3   OH235413   6.582   2.047   2.256  0.8180  0.6198 -0.2651
 4593TIP3    H135414   6.504   2.060   2.203  0.0936 -0.1940  0.5765
 4593TIP3    H235415   6.549   2.028   2.344  1.9776  3.1054  0.8176
 4594TIP3   OH235416   3.326   6.000   2.580  0.0725  0.2043 -0.1127
 4594TIP3    H135417   3.260   6.061   2.547  0.3668 -0.3919 -1.8943
 4594TIP3    H235418   3.353   5.949   2.504  3.0511  0.8211  0.3968
 4595TIP3   OH235419   0.487   5.476   2.347  0.2000 -0.1240 -0.5245
 4595TIP3    H135420   0.535   5.521   2.278  1.7607  1.7687  1.6607
 4595TIP3    H235421   0.413   5.533   2.366 -0.1030 -0.5274 -0.4845
 4596TIP3   OH235422   2.911   4.264   7.762  0.0408  0.4242 -0.1038
 4596TIP3    H135423   2.880   4.336   7.709 -3.1693 -1.6321 -1.3432
 4596TIP3    H235424   2.874   4.186   7.721  1.7849 -1.7991  2.1834
 4597TIP3   OH235425   1.810   0.493   8.283  0.2281  0.0602 -0.9089
 4597TIP3    H135426   1.903   0.470   8.288  0.2126  0.2296  0.3787
 4597TIP3    H235427   1.765   0.409   8.273  0.3850 -0.2545  0.7240
 4598TIP3   OH235428   3.620   1.079   2.621  0.3587 -0.2374  0.1611
 4598TIP3    H135429   3.535   1.077   2.666 -0.4607 -0.3037 -1.3333
 4598TIP3    H235430   3.683   1.055   2.689 -0.9798 -1.8160  0.9147
 4599TIP3   OH235431   4.654   0.114   7.594 -0.1714 -0.1045 -0.3350
 4599TIP3    H135432   4.675   0.024   7.572  2.1016  0.2681  0.0512
 4599TIP3    H235433   4.583   0.108   7.658  1.0788 -1.7239  0.9690
 4600TIP3   OH235434   1.071   5.984   2.594  0.1593  0.1262  0.4530
 4600TIP3    H135435   0.997   5.995   2.535 -0.2132  3.5813  1.3453
 4600TIP3    H235436   1.031   5.962   2.679  0.3717 -0.4136  0.4192
 4601TIP3   OH235437   1.899   5.777   1.220  0.5386  0.2786  0.0150
 4601TIP3    H135438   1.817   5.730   1.237 -0.0596  1.1351 -0.3787
 4601TIP3    H235439   1.968   5.715   1.242 -0.1994  0.1155  2.0305
 4602TIP3   OH235440   3.320   1.335   0.105 -0.1705 -0.3338 -0.1901
 4602TIP3    H135441   3.364   1.406   0.150 -1.7723  0.6799 -0.1314
 4602TIP3    H235442   3.227   1.347   0.126 -0.9264 -0.2667 -3.0663
 4603TIP3   OH235443   6.664   0.561   7.882  0.5478  0.3988  0.5213
 4603TIP3    H135444   6.581   0.586   7.842 -0.9263 -1.7088  2.0446
 4603TIP3    H235445   6.727   0.564   7.810 -0.7151  2.4141 -0.5972
 4604TIP3   OH235446   5.888   3.392   1.628 -0.2682 -0.3935  0.5716
 4604TIP3    H135447   5.890   3.430   1.716 -1.5271 -0.6271  0.7215
 4604TIP3    H235448   5.928   3.458   1.572  0.5986 -0.2678  1.3225
 4605TIP3   OH235449   4.319   0.684   2.954 -0.3042  0.9176 -0.0948
 4605TIP3    H135450   4.253   0.693   3.023 -0.4896  3.5455 -0.5217
 4605TIP3    H235451   4.344   0.592   2.957 -0.0178  0.9582  3.7764
 4606TIP3   OH235452   1.585   3.423   1.472  1.2692 -0.3968  0.0022
 4606TIP3    H135453   1.550   3.504   1.508  2.7846  0.2066  0.1819
 4606TIP3    H235454   1.523   3.397   1.404 -1.4946 -1.3535  2.6626
 4607TIP3   OH235455   2.787   0.469   2.202 -0.0271 -0.0336 -0.4550
 4607TIP3    H135456   2.835   0.525   2.141 -0.5351  0.9782  0.0495
 4607TIP3    H235457   2.716   0.525   2.235 -1.6839 -1.5363 -1.3207
 4608TIP3   OH235458   5.840   4.798   8.312  0.0630  0.2168 -0.0611
 4608TIP3    H135459   5.840   4.792   8.217  0.0515  0.8395 -0.1090
 4608TIP3    H235460   5.869   4.712   8.342  0.9118  0.2819 -0.6480
 4609TIP3   OH235461   4.424   3.662   1.989 -0.2893 -0.3051 -0.0417
 4609TIP3    H135462   4.418   3.752   2.022 -0.9876  0.1481 -1.3432
 4609TIP3    H235463   4.480   3.617   2.052  1.7893  1.5492 -0.4579
 4610TIP3   OH235464   5.144   6.591   3.247 -0.3002 -0.1919 -0.6205
 4610TIP3    H135465   5.057   6.558   3.225 -0.5346  1.0996 -1.7832
 4610TIP3    H235466   5.128   6.676   3.287  0.4383  1.1276 -2.9028
 4611TIP3   OH235467   1.256   2.929   8.298 -0.0806 -0.0283  0.0989
 4611TIP3    H135468   1.199   3.005   8.310 -1.5241 -0.9109 -0.9172
 4611TIP3    H235469   1.223   2.864   8.359  0.8906 -0.0242  0.6624
 4612TIP3   OH235470   5.661   3.746   7.780  0.3755 -0.1315 -0.0296
 4612TIP3    H135471   5.671   3.839   7.798 -1.7982  0.4514 -1.4792
 4612TIP3    H235472   5.704   3.732   7.696  1.5656 -0.6907  0.6421
 4613TIP3   OH235473   2.741   2.485   8.089  0.6209 -0.3860 -0.2282
 4613TIP3    H135474   2.694   2.418   8.039  0.4226 -0.7364  0.4157
 4613TIP3    H235475   2.757   2.555   8.026 -0.6019 -0.3384 -0.5089
 4614TIP3   OH235476   5.578   5.241   8.312 -0.5394  0.4538  0.0849
 4614TIP3    H135477   5.538   5.172   8.365  0.2912 -0.6493 -0.6762
 4614TIP3    H235478   5.505   5.299   8.289 -1.1926  0.0300  1.0270
 4615TIP3   OH235479   3.424   2.876   2.188  0.1222  0.2369 -0.1786
 4615TIP3    H135480   3.381   2.879   2.273 -0.9571  1.3207 -0.7248
 4615TIP3    H235481   3.517   2.882   2.208 -0.1417  1.1025  0.8996
 4616TIP3   OH235482   2.709   0.074   0.391  0.1989 -0.2139  0.1947
 4616TIP3    H135483   2.740   0.029   0.312  1.7277  3.1115 -1.2652
 4616TIP3    H235484   2.638   0.130   0.361  0.2682  0.5042  1.3282
 4617TIP3   OH235485   0.399   2.744   1.591  0.0096  0.3877  0.0073
 4617TIP3    H135486   0.394   2.650   1.610  3.3982 -0.2480 -1.4336
 4617TIP3    H235487   0.384   2.786   1.675  2.8395 -1.7345  1.7680
 4618TIP3   OH235488   0.325   0.809   0.233 -0.3825  0.4406 -0.1339
 4618TIP3    H135489   0.374   0.870   0.179  0.1421 -0.3329 -0.5464
 4618TIP3    H235490   0.381   0.795   0.310 -1.7391  2.6520  1.3952
 4619TIP3   OH235491   4.123   3.301   1.631  0.1865 -0.2938  0.2144
 4619TIP3    H135492   4.044   3.283   1.580  1.3273 -0.9019 -1.4011
 4619TIP3    H235493   4.106   3.261   1.716 -0.7024 -1.6506 -0.5694
 4620TIP3   OH235494   3.475   0.752   2.521 -0.6161  0.3349 -0.0110
 4620TIP3    H135495   3.459   0.676   2.576 -2.3476  1.2050  0.7548
 4620TIP3    H235496   3.437   0.729   2.436  2.3806 -1.1535 -1.0815
 4621TIP3   OH235497   0.816   2.956   1.572 -0.3647 -0.3152  0.3584
 4621TIP3    H135498   0.905   2.922   1.560 -0.5917 -1.4529  1.6545
 4621TIP3    H235499   0.823   3.017   1.646 -0.6015 -0.0919  0.2012
 4622TIP3   OH235500   3.410   6.665   2.673  0.6388 -0.3060  0.7112
 4622TIP3    H135501   3.453   6.596   2.623  0.2544  0.6608 -1.0176
 4622TIP3    H235502   3.323   6.673   2.633  0.7049  1.2160  0.8274
 4623TIP3   OH235503   6.096   0.434   2.382 -0.0926  0.3970 -0.1622
 4623TIP3    H135504   6.135   0.443   2.469 -0.2790  2.7723 -0.2554
 4623TIP3    H235505   6.171   0.427   2.322  0.0388 -0.8541  0.1207
 4624TIP3   OH235506   1.015   3.816   3.384 -0.3758 -0.3381  0.3658
 4624TIP3    H135507   1.053   3.743   3.335 -0.3328 -0.9978  1.3479
 4624TIP3    H235508   0.935   3.837   3.336 -0.2531 -0.8559 -0.0817
 4625TIP3   OH235509   1.871   5.509   8.387 -0.8418 -0.0975 -0.3828
 4625TIP3    H135510   1.900   5.563   8.313 -1.9588  0.3714 -0.4928
 4625TIP3    H235511   1.920   5.427   8.378  0.0239  0.4607 -0.8726
 4626TIP3   OH235512   2.097   3.415   1.216  0.1184 -0.2137 -0.2817
 4626TIP3    H135513   2.122   3.397   1.125  0.1543  1.2343 -0.5907
 4626TIP3    H235514   2.015   3.465   1.208 -1.3422 -2.3520  0.5993
 4627TIP3   OH235515   2.201   4.410   2.081 -0.6317  0.1911 -0.0505
 4627TIP3    H135516   2.165   4.478   2.138  1.3402  0.9922  0.3589
 4627TIP3    H235517   2.274   4.373   2.131  1.9852  1.7740 -2.3669
 4628TIP3   OH235518   3.099   5.354   8.100  0.1892 -0.0300 -0.1189
 4628TIP3    H135519   3.023   5.315   8.143  1.1589 -0.9764  0.7827
 4628TIP3    H235520   3.163   5.365   8.170  0.6100  1.5469 -0.6932
 4629TIP3   OH235521   5.937   0.073   1.770  0.2669  0.1344  0.0112
 4629TIP3    H135522   5.844   0.051   1.774 -0.6933  3.7637  2.2204
 4629TIP3    H235523   5.980   0.003   1.821 -1.5566 -0.4093  0.9036
 4630TIP3   OH235524   1.096   0.062   0.861  0.2373  0.2158  0.0475
 4630TIP3    H135525   1.120   0.067   0.954 -0.4080  0.7629  0.1906
 4630TIP3    H235526   1.008   0.024   0.862  0.5034 -0.4246 -0.3856
 4631TIP3   OH235527   4.174   3.680   1.411  0.1444  0.3404  0.0701
 4631TIP3    H135528   4.138   3.763   1.443  2.2848  1.1187  0.6657
 4631TIP3    H235529   4.241   3.706   1.348  0.7933 -0.9346  0.2124
 4632TIP3   OH235530   3.896   4.192   1.682  0.0550  0.4116  0.7047
 4632TIP3    H135531   3.880   4.259   1.749  1.6852  0.7965  0.7474
 4632TIP3    H235532   3.899   4.109   1.731 -2.5173  0.1652  0.5845
 4633TIP3   OH235533   5.790   1.270   2.081 -0.4282 -0.6353  0.5126
 4633TIP3    H135534   5.776   1.311   2.166  1.1109 -1.5313  1.2476
 4633TIP3    H235535   5.774   1.177   2.096 -1.9285 -0.5979 -0.6440
 4634TIP3   OH235536   1.554   0.699   0.991 -0.2824 -0.4920  0.5882
 4634TIP3    H135537   1.486   0.730   1.050 -0.8456  1.6485 -1.0231
 4634TIP3    H235538   1.507   0.668   0.914  0.4546  1.7390 -0.8806
 4635TIP3   OH235539   5.698   0.180   3.015 -0.1272  0.1383 -0.0819
 4635TIP3    H135540   5.779   0.129   3.022  0.3287  0.9043  0.3720
 4635TIP3    H235541   5.673   0.200   3.105  0.4021  1.7595 -0.2566
 4636TIP3   OH235542   5.487   5.983   1.368 -0.1618 -0.1761 -0.0592
 4636TIP3    H135543   5.486   5.913   1.302  0.5605 -0.3853  0.1326
 4636TIP3    H235544   5.471   6.063   1.318 -2.0304 -0.5613 -0.1432
 4637TIP3   OH235545   3.331   4.763   8.550 -0.4260 -0.1789  0.1051
 4637TIP3    H135546   3.284   4.749   8.631  0.7979  2.2973  1.3757
 4637TIP3    H235547   3.281   4.832   8.504  0.7115  0.9300  0.4634
 4638TIP3   OH235548   5.461   2.977   2.019  0.0589 -0.5532 -0.0940
 4638TIP3    H135549   5.458   3.010   1.929  0.1934 -2.3534 -0.7943
 4638TIP3    H235550   5.439   2.884   2.011  0.1420 -0.7600  1.7357
 4639TIP3   OH235551   0.929   1.244   1.263  0.0413 -0.5459 -0.1205
 4639TIP3    H135552   1.015   1.223   1.227  1.5444  0.0053  2.8247
 4639TIP3    H235553   0.871   1.177   1.228  1.4112 -0.4186 -2.9107
 4640TIP3   OH235554   6.335   5.538   0.912 -0.4087 -0.2488  0.0540
 4640TIP3    H135555   6.372   5.463   0.959 -0.9659 -0.8582 -0.4649
 4640TIP3    H235556   6.310   5.600   0.981  0.5514 -0.2925  0.4602
 4641TIP3   OH235557   4.370   3.940   1.602  0.3765 -0.4141  0.2365
 4641TIP3    H135558   4.310   3.958   1.674 -1.5919 -0.1830 -1.3856
 4641TIP3    H235559   4.407   3.854   1.621 -1.2821 -1.0416  0.7809
 4642TIP3   OH235560   5.042   5.064   8.128 -0.5121  0.1755 -0.4681
 4642TIP3    H135561   5.107   5.002   8.161 -0.7334  0.4545  0.5195
 4642TIP3    H235562   5.085   5.107   8.054 -0.9597 -2.3917 -2.3700
 4643TIP3   OH235563   0.731   5.182   1.386  0.5069  0.4712  0.3308
 4643TIP3    H135564   0.759   5.140   1.304  1.5954 -0.5773  1.2072
 4643TIP3    H235565   0.637   5.167   1.390  0.7195 -1.0401  0.1385
 4644TIP3   OH235566   6.012   1.939   2.362  0.2233  0.0831 -0.1202
 4644TIP3    H135567   5.976   2.016   2.317 -0.5525 -0.6663 -0.8071
 4644TIP3    H235568   5.945   1.914   2.425  0.5632  0.0811  0.2492
 4645TIP3   OH235569   2.127   2.808   1.371 -0.3943 -0.6825 -0.2788
 4645TIP3    H135570   2.110   2.839   1.282  0.9957 -0.4652 -0.4942
 4645TIP3    H235571   2.177   2.727   1.360 -1.1412 -1.2388  0.3091
 4646TIP3   OH235572   6.646   1.652   1.255 -0.0604  0.6087 -0.4368
 4646TIP3    H135573   6.741   1.646   1.250 -0.0452  1.1822 -1.0095
 4646TIP3    H235574   6.618   1.661   1.164 -0.6554  0.5392 -0.2669
 4647TIP3   OH235575   3.181   6.720   1.774 -0.0456 -0.3640  0.1810
 4647TIP3    H135576   3.242   6.765   1.832  2.3291 -1.0286 -1.6750
 4647TIP3    H235577   3.129   6.791   1.734  0.2141  0.2974  0.9960
 4648TIP3   OH235578   3.318   2.963   1.492  0.1022  0.4655 -0.2179
 4648TIP3    H135579   3.276   3.048   1.508 -0.7242 -0.1879  1.3570
 4648TIP3    H235580   3.330   2.926   1.580  0.8093 -0.8790 -0.8542
 4649TIP3   OH235581   4.923   4.556   1.799 -0.9043  0.9111 -0.3366
 4649TIP3    H135582   4.873   4.476   1.779 -3.8015  2.2452  0.9868
 4649TIP3    H235583   4.869   4.602   1.863  2.8014  1.8817  2.4010
 4650TIP3   OH235584   5.501   5.711   8.009 -0.7531 -0.4144  0.3622
 4650TIP3    H135585   5.473   5.694   7.919 -1.4583 -1.8118  0.8283
 4650TIP3    H235586   5.505   5.807   8.015 -2.3593 -0.2496 -0.6469
 4651TIP3   OH235587   2.311   0.852   7.709  0.4692  0.0800 -0.3733
 4651TIP3    H135588   2.316   0.786   7.640  1.4612  1.7596 -2.0080
 4651TIP3    H235589   2.381   0.827   7.770  0.2747 -0.8402 -0.5081
 4652TIP3   OH235590   5.009   6.362   1.604  0.0338 -0.4825  0.3413
 4652TIP3    H135591   4.976   6.391   1.519 -0.3104 -0.9368  0.3218
 4652TIP3    H235592   4.958   6.412   1.667  0.8155  0.4240  0.2756
 4653TIP3   OH235593   5.295   1.370   8.242  0.3408 -0.2048  0.8554
 4653TIP3    H135594   5.389   1.372   8.227  0.0955 -1.1001 -1.1572
 4653TIP3    H235595   5.279   1.440   8.305  2.4521 -0.6755  1.9957
 4654TIP3   OH235596   4.523   3.254   1.863 -0.0510 -0.4012  0.1540
 4654TIP3    H135597   4.555   3.342   1.847  1.1398 -0.5652  1.4751
 4654TIP3    H235598   4.479   3.229   1.782  2.9707 -0.0686 -1.7214
 4655TIP3   OH235599   5.946   3.838   2.140 -0.4702 -0.1735  0.0455
 4655TIP3    H135600   5.988   3.837   2.226  0.5479 -0.4677 -0.4354
 4655TIP3    H235601   5.859   3.802   2.155 -0.3264 -0.1692  0.9582
 4656TIP3   OH235602   3.954   4.697   2.410 -0.0849  0.1184  0.3295
 4656TIP3    H135603   3.865   4.684   2.442  0.6826  0.6361  2.8604
 4656TIP3    H235604   4.009   4.643   2.467  1.1546 -1.6482 -2.3070
 4657TIP3   OH235605   1.724   3.954   0.993  0.0363  0.0057  0.1212
 4657TIP3    H135606   1.784   3.889   0.956  0.6075  0.9465 -0.6396
 4657TIP3    H235607   1.649   3.902   1.022  0.6026 -1.0316 -0.1949
 4658TIP3   OH235608   3.408   0.904   7.839  0.4460 -0.9432 -1.1542
 4658TIP3    H135609   3.381   0.847   7.911  2.3839  1.4222  1.7144
 4658TIP3    H235610   3.326   0.939   7.805 -0.5690 -0.4476  1.5112
 4659TIP3   OH235611   6.154   4.761   1.176 -0.1500  0.1185  0.5761
 4659TIP3    H135612   6.155   4.716   1.091 -1.5919 -0.4091  0.8225
 4659TIP3    H235613   6.238   4.738   1.216  1.2896  1.6327 -1.3079
 4660TIP3   OH235614   5.451   4.202   7.403 -0.3285 -0.6069 -0.2498
 4660TIP3    H135615   5.437   4.255   7.481 -1.3491 -0.5581 -0.4450
 4660TIP3    H235616   5.433   4.261   7.330 -0.2912 -0.8993 -0.4984
 4661TIP3   OH235617   2.838   0.911   0.595 -0.5464 -0.3437  0.6043
 4661TIP3    H135618   2.784   0.965   0.538  2.0707  2.0655  0.1842
 4661TIP3    H235619   2.790   0.908   0.678 -0.7960  2.7987  0.6852
 4662TIP3   OH235620   4.531   6.433   2.865 -0.1637  0.0354  0.0973
 4662TIP3    H135621   4.439   6.441   2.840 -0.1973 -1.5237 -0.3722
 4662TIP3    H235622   4.532   6.446   2.960 -0.8207  0.3610  0.0607
 4663TIP3   OH235623   4.635   1.964   2.238 -0.5260 -0.0152  0.2332
 4663TIP3    H135624   4.719   1.964   2.285 -1.9354  0.0481  2.9284
 4663TIP3    H235625   4.620   2.057   2.217  0.8625 -0.2046 -1.9614
 4664TIP3   OH235626   0.127   3.228   0.973 -0.5212 -0.9281 -0.0816
 4664TIP3    H135627   0.049   3.229   1.029 -0.9533 -0.6973 -0.6758
 4664TIP3    H235628   0.159   3.138   0.979  0.0741 -0.6520  1.3833
 4665TIP3   OH235629   2.429   5.976   7.703  0.1625 -0.2043 -0.0868
 4665TIP3    H135630   2.363   6.011   7.643  0.8485 -0.3605 -0.9643
 4665TIP3    H235631   2.484   6.052   7.724 -0.3061 -0.0659  0.6721
 4666TIP3   OH235632   0.111   3.597   0.863  0.2508 -0.6999  0.2611
 4666TIP3    H135633   0.091   3.678   0.815 -1.6526 -1.4336 -0.2717
 4666TIP3    H235634   0.040   3.588   0.926 -1.0314 -3.2030 -1.3743
 4667TIP3   OH235635   3.920   4.698   0.145  0.0551  0.0750  0.1382
 4667TIP3    H135636   3.826   4.681   0.153  0.6388 -3.6029  1.1510
 4667TIP3    H235637   3.930   4.737   0.058 -2.3174 -0.2709 -0.3507
 4668TIP3   OH235638   6.880   0.768   7.784  0.1580  0.0098  0.0505
 4668TIP3    H135639   6.809   0.805   7.835 -1.3263 -0.5475 -1.5022
 4668TIP3    H235640   6.951   0.832   7.791 -0.1945  0.2193  2.2482
 4669TIP3   OH235641   6.325   3.893   8.152 -0.1609  0.3148 -0.1935
 4669TIP3    H135642   6.310   3.903   8.246  0.6480 -0.6548  0.0519
 4669TIP3    H235643   6.262   3.827   8.124  1.4647 -1.4885  0.2421
 4670TIP3   OH235644   4.039   4.603   7.027 -0.1064  0.7715 -0.0585
 4670TIP3    H135645   4.038   4.508   7.026 -1.3336  0.7681 -1.1876
 4670TIP3    H235646   3.969   4.628   7.087 -0.6036  0.9477 -0.7018
 4671TIP3   OH235647   6.785   4.043   2.308 -0.0471  0.2086 -0.0281
 4671TIP3    H135648   6.767   4.002   2.223  2.1754  1.5866 -1.2637
 4671TIP3    H235649   6.756   4.133   2.299  2.3493  1.0341 -0.2629
 4672TIP3   OH235650   2.376   5.057   1.305  0.1601 -0.0197 -0.8169
 4672TIP3    H135651   2.377   4.965   1.279 -0.2290  0.0680 -1.1586
 4672TIP3    H235652   2.459   5.092   1.273 -0.1501 -0.0048 -1.6353
 4673TIP3   OH235653   3.310   3.235   0.564 -0.0595 -0.1092 -0.8161
 4673TIP3    H135654   3.336   3.212   0.653  0.0147 -0.5826 -0.9600
 4673TIP3    H235655   3.363   3.312   0.542  0.5068 -0.4801 -0.7469
 4674TIP3   OH235656   4.545   2.172   8.604  0.0806  0.3891 -0.3311
 4674TIP3    H135657   4.501   2.099   8.649  1.8632 -0.4990  0.0588
 4674TIP3    H235658   4.508   2.171   8.516 -1.0667  0.0401  0.1262
 4675TIP3   OH235659   1.737   4.098   2.946  0.0700 -0.0338 -0.3143
 4675TIP3    H135660   1.664   4.160   2.946 -0.0780 -0.2086 -0.5008
 4675TIP3    H235661   1.783   4.115   3.029 -1.0141 -0.9108  0.4909
 4676TIP3   OH235662   2.307   3.273   7.834  0.1165 -0.2370 -0.4071
 4676TIP3    H135663   2.242   3.236   7.774 -0.1636 -1.7842  0.7628
 4676TIP3    H235664   2.306   3.212   7.909  1.2522  1.0009  0.6468
 4677TIP3   OH235665   0.643   6.253   2.340  0.3983 -0.1836  0.0237
 4677TIP3    H135666   0.584   6.250   2.415 -2.0849 -1.0840 -1.8233
 4677TIP3    H235667   0.678   6.343   2.340  2.2206 -0.7322  3.3775
 4678TIP3   OH235668   6.110   3.784   2.356  0.5351  0.1423  0.5767
 4678TIP3    H135669   6.151   3.797   2.441  1.3161  0.6213  0.1321
 4678TIP3    H235670   6.181   3.759   2.298 -0.1965 -1.5775  0.3501
 4679TIP3   OH235671   0.081   6.506   8.184 -0.2665  0.1286 -0.5083
 4679TIP3    H135672   0.170   6.477   8.164 -1.4328 -2.3830 -2.7353
 4679TIP3    H235673   0.065   6.578   8.124  0.0808  0.2215 -0.4923
 4680TIP3   OH235674   1.323   2.572   7.551 -0.2568  0.0787  0.0591
 4680TIP3    H135675   1.279   2.602   7.472 -0.3892  0.5335  0.3033
 4680TIP3    H235676   1.318   2.646   7.611 -1.3975 -0.7369  1.0046
 4681TIP3   OH235677   5.441   3.639   7.199 -0.1588 -0.7799  0.7450
 4681TIP3    H135678   5.493   3.719   7.203  0.2087 -0.9567 -0.1964
 4681TIP3    H235679   5.375   3.650   7.267 -1.8323  1.5849 -1.0632
 4682TIP3   OH235680   2.434   6.246   7.895 -0.1223  0.4306 -0.3040
 4682TIP3    H135681   2.371   6.285   7.955  0.8457  0.2579  0.8589
 4682TIP3    H235682   2.398   6.264   7.808 -1.1822  1.3352  0.2910
 4683TIP3   OH235683   3.397   3.961   1.943 -0.4113 -0.2540  0.3178
 4683TIP3    H135684   3.395   4.003   1.857  0.5718 -1.6516 -0.4350
 4683TIP3    H235685   3.427   3.871   1.925 -0.5919 -0.7037  2.0722
 4684TIP3   OH235686   1.222   5.165   8.643 -0.2806 -0.1055 -0.2939
 4684TIP3    H135687   1.268   5.249   8.632  0.4966 -0.2780  1.4097
 4684TIP3    H235688   1.281   5.101   8.602  0.1135 -0.0786  0.2191
 4685TIP3   OH235689   6.349   0.810   2.887  0.3497 -0.3890 -0.3803
 4685TIP3    H135690   6.390   0.743   2.833 -0.4304  0.1049 -1.6448
 4685TIP3    H235691   6.375   0.789   2.976 -1.1774 -3.3598 -0.5000
 4686TIP3   OH235692   6.666   5.796   1.982  0.4738  0.3827 -0.0150
 4686TIP3    H135693   6.668   5.701   1.995 -0.9275  0.6545  3.0952
 4686TIP3    H235694   6.573   5.816   1.972  0.7632  1.4416 -0.6654
 4687TIP3   OH235695   2.994   3.297   0.871  0.1707 -0.1718 -0.9455
 4687TIP3    H135696   2.944   3.243   0.932 -0.2075  2.4799  1.3168
 4687TIP3    H235697   3.077   3.314   0.915 -0.1896  1.9944 -0.9954
 4688TIP3   OH235698   2.295   3.094   0.504  0.1446  0.2174  0.1726
 4688TIP3    H135699   2.350   3.034   0.554  3.9187  1.0697 -2.4870
 4688TIP3    H235700   2.206   3.058   0.513  1.4117 -2.8162  2.6902
 4689TIP3   OH235701   5.033   4.982   0.024  0.1936  0.5023  0.3304
 4689TIP3    H135702   5.006   5.039  -0.048  1.8821 -0.2633 -0.9792
 4689TIP3    H235703   5.046   5.041   0.098  1.1738  1.7337 -0.7817
 4690TIP3   OH235704   5.416   1.246   2.429 -0.2998 -0.0257 -0.1478
 4690TIP3    H135705   5.476   1.215   2.497 -0.2576 -0.6866 -0.4772
 4690TIP3    H235706   5.332   1.205   2.451 -0.5424  0.5840  0.0880
 4691TIP3   OH235707   5.615   3.743   8.101 -1.0837 -0.4019  0.4464
 4691TIP3    H135708   5.700   3.706   8.082 -0.8151 -1.3422  3.0432
 4691TIP3    H235709   5.573   3.753   8.016  0.8697 -1.6991 -0.7399
 4692TIP3   OH235710   6.271   0.523   2.982 -0.1929  0.6608  0.0686
 4692TIP3    H135711   6.336   0.461   2.949  0.3156  1.7531 -1.0792
 4692TIP3    H235712   6.304   0.548   3.068  0.1290  0.1177  0.1092
 4693TIP3   OH235713   2.964   6.352   1.142 -0.1658  0.1700  0.5189
 4693TIP3    H135714   3.016   6.388   1.213  0.5593 -1.1556  0.6914
 4693TIP3    H235715   3.024   6.294   1.095 -0.8939  0.2780 -0.6028
 4694TIP3   OH235716   2.783   1.968   2.989 -0.0399 -0.0088  0.0946
 4694TIP3    H135717   2.796   2.049   3.039 -0.0334 -1.1163  1.9736
 4694TIP3    H235718   2.688   1.963   2.976 -0.1403 -0.1387  0.8043
 4695TIP3   OH235719   0.456   0.972   0.056  0.9023  0.1499 -0.4029
 4695TIP3    H135720   0.531   0.913   0.054  0.7895 -0.0666  0.9937
 4695TIP3    H235721   0.493   1.060   0.063  1.0872 -0.0800  2.9485
 4696TIP3   OH235722   6.302   1.778   8.176  0.2707  0.7444 -0.0134
 4696TIP3    H135723   6.235   1.743   8.235  0.9855 -2.2986 -0.8390
 4696TIP3    H235724   6.256   1.791   8.093  0.6382 -1.6234 -0.6651
 4697TIP3   OH235725   0.367   2.196   7.597  0.0356 -0.3233  0.1516
 4697TIP3    H135726   0.330   2.108   7.597 -0.0540 -0.2860  0.6809
 4697TIP3    H235727   0.322   2.241   7.669 -0.0189  0.1954 -0.2008
 4698TIP3   OH235728   2.937   2.872   8.176 -0.2796  0.5032 -0.2588
 4698TIP3    H135729   2.972   2.958   8.153  2.1635 -0.3879 -0.1646
 4698TIP3    H235730   3.011   2.826   8.216 -1.7228 -1.3926  0.3919
 4699TIP3   OH235731   4.230   5.303   1.382 -0.3236 -0.3022 -0.3289
 4699TIP3    H135732   4.317   5.339   1.366  0.4880 -2.3995 -0.8512
 4699TIP3    H235733   4.178   5.333   1.307  0.5482 -0.8666 -1.1892
 4700TIP3   OH235734   6.841   1.770   8.116  0.1930 -0.5985  0.2383
 4700TIP3    H135735   6.901   1.708   8.074  0.6420 -1.1979  1.6983
 4700TIP3    H235736   6.891   1.807   8.188 -0.1777  1.2794 -0.4132
 4701TIP3   OH235737   1.183   3.317   0.614 -0.8683  0.1611  0.2222
 4701TIP3    H135738   1.106   3.260   0.606 -1.1812  0.5788  0.2267
 4701TIP3    H235739   1.198   3.349   0.525 -0.1228 -0.6549  0.0387
 4702TIP3   OH235740   0.710   5.585   0.971 -0.8247  0.7479  0.6182
 4702TIP3    H135741   0.647   5.583   1.043 -1.3511 -1.2796  0.1394
 4702TIP3    H235742   0.685   5.512   0.914  1.3035  0.5442 -0.1422
 4703TIP3   OH235743   3.167   6.554   1.221  0.3703  0.2372 -0.1440
 4703TIP3    H135744   3.139   6.645   1.222  1.7568  0.6699  0.5413
 4703TIP3    H235745   3.183   6.533   1.313  0.2496 -0.6483 -0.3173
 4704TIP3   OH235746   5.063   5.997   2.191 -0.0000  0.1019 -0.5848
 4704TIP3    H135747   5.079   5.990   2.285  0.1465 -1.5596 -0.7178
 4704TIP3    H235748   5.136   5.951   2.150 -0.6241 -0.1097 -1.4848
 4705TIP3   OH235749   1.564   6.051   2.086  0.1161 -0.1005 -0.3249
 4705TIP3    H135750   1.475   6.086   2.084 -0.1258 -0.7203 -0.5762
 4705TIP3    H235751   1.603   6.088   2.166 -0.3801  0.1363 -0.1930
 4706TIP3   OH235752   1.696   1.608   7.908  0.3066  0.8715 -0.2999
 4706TIP3    H135753   1.696   1.600   7.812 -0.1630  0.8227 -0.3008
 4706TIP3    H235754   1.669   1.522   7.939 -1.2405  1.3637 -0.1884
 4707TIP3   OH235755   6.107   2.209   1.805 -0.4682  0.1422 -0.6204
 4707TIP3    H135756   6.080   2.173   1.889 -0.4466  0.0025 -0.6732
 4707TIP3    H235757   6.197   2.237   1.818 -0.5012  0.2246 -0.5652
 4708TIP3   OH235758   4.309   4.769   7.249  0.2521 -0.2496 -0.3335
 4708TIP3    H135759   4.374   4.825   7.290  0.4832  0.1526 -1.2259
 4708TIP3    H235760   4.290   4.812   7.165  0.5015 -1.5411 -1.0739
 4709TIP3   OH235761   6.310   3.008   0.417 -0.3758 -0.0183 -0.4832
 4709TIP3    H135762   6.248   2.970   0.479  0.6237  0.4343  0.8335
 4709TIP3    H235763   6.382   2.946   0.414  0.5487  0.9782  0.4707
 4710TIP3   OH235764   1.045   3.558   1.842  0.0127  0.3115 -0.2018
 4710TIP3    H135765   0.957   3.577   1.874 -0.3362 -1.9093  0.3538
 4710TIP3    H235766   1.070   3.477   1.888  2.0233  0.4501 -0.9468
 4711TIP3   OH235767   0.540   2.936   0.297  0.4407  0.3749 -0.3216
 4711TIP3    H135768   0.577   2.957   0.211  2.2171  0.0093  0.3035
 4711TIP3    H235769   0.568   2.846   0.314 -2.1916 -0.5360 -0.4826
 4712TIP3   OH235770   1.870   5.617   2.850  0.0406  0.3080  0.1647
 4712TIP3    H135771   1.865   5.587   2.941 -0.2710  0.5387  0.2218
 4712TIP3    H235772   1.807   5.689   2.844  2.0356  2.1781  0.4911
 4713TIP3   OH235773   2.270   5.560   2.869 -0.2999  0.3175 -0.1945
 4713TIP3    H135774   2.283   5.643   2.823  0.2450  0.3510  0.0077
 4713TIP3    H235775   2.182   5.532   2.844 -1.5227  2.1985  1.6649
 4714TIP3   OH235776   0.394   5.518   8.482 -0.1523 -0.0102  0.1264
 4714TIP3    H135777   0.423   5.566   8.404 -0.9324 -0.6895 -0.5942
 4714TIP3    H235778   0.299   5.522   8.479 -0.1926 -0.0918  1.0300
 4715TIP3   OH235779   4.379   4.019   3.648  0.2487 -0.0237  0.5150
 4715TIP3    H135780   4.381   3.981   3.560  0.7691  0.9343  0.0952
 4715TIP3    H235781   4.286   4.021   3.671 -0.0119  0.7499 -0.4961
 4716TIP3   OH235782   6.155   5.524   8.611  0.2028 -0.4380 -0.2317
 4716TIP3    H135783   6.219   5.460   8.640  0.3745  0.7028  2.1480
 4716TIP3    H235784   6.202   5.607   8.612 -0.7091  0.1010 -0.7135
 4717TIP3   OH235785   0.385   6.592   0.010 -0.4540 -0.1540 -0.0915
 4717TIP3    H135786   0.414   6.503  -0.006  0.1845 -0.1707  1.0329
 4717TIP3    H235787   0.291   6.591  -0.011 -0.7798 -1.4732  1.2733
 4718TIP3   OH235788   5.432   3.555   1.128 -0.8588  0.3401 -0.2603
 4718TIP3    H135789   5.350   3.604   1.128 -0.1995  1.5463 -2.1084
 4718TIP3    H235790   5.500   3.621   1.115  0.4329 -0.6356  1.1538
 4719TIP3   OH235791   6.014   3.523   2.391 -0.1020  0.6129 -0.0561
 4719TIP3    H135792   6.046   3.613   2.384 -3.2798  1.8591 -0.0069
 4719TIP3    H235793   5.939   3.520   2.332 -0.3250 -1.9106  0.2717
 4720TIP3   OH235794   2.366   0.162   8.158 -0.6846  0.0424  0.3007
 4720TIP3    H135795   2.346   0.148   8.250 -0.2864 -0.1367  0.3649
 4720TIP3    H235796   2.394   0.253   8.153 -0.7807  0.0743  0.3436
 4721TIP3   OH235797   5.496   1.120   0.707  0.0016 -0.0154  0.2063
 4721TIP3    H135798   5.535   1.204   0.731  0.5540 -0.5702  1.3454
 4721TIP3    H235799   5.513   1.064   0.783 -0.0088 -1.2708 -0.6988
 4722TIP3   OH235800   3.198   5.270   8.520  0.4097  0.6753 -0.2021
 4722TIP3    H135801   3.257   5.317   8.579 -0.7459  0.2216  1.4055
 4722TIP3    H235802   3.114   5.314   8.532 -0.5658 -1.3690  0.9130
 4723TIP3   OH235803   4.625   0.444   7.648 -0.2706 -0.2510  0.6454
 4723TIP3    H135804   4.569   0.414   7.577 -0.4439 -0.9174  1.0617
 4723TIP3    H235805   4.656   0.364   7.690 -0.3909  0.1411  1.4991
 4724TIP3   OH235806   6.414   4.997   1.303 -0.5966 -0.3865  0.3772
 4724TIP3    H135807   6.392   4.904   1.302 -2.1407 -0.0434  0.6202
 4724TIP3    H235808   6.454   5.012   1.389 -0.2747 -0.8299  0.3068
 4725TIP3   OH235809   0.452   3.704   8.517 -0.1001 -0.9142  0.1191
 4725TIP3    H135810   0.531   3.691   8.569 -1.7736  0.5427  3.2899
 4725TIP3    H235811   0.481   3.757   8.442  1.8934 -0.1046  1.3796
 4726TIP3   OH235812   0.666   4.367   8.072 -0.1887  0.3359 -0.4926
 4726TIP3    H135813   0.587   4.415   8.049 -1.0353  0.1207  1.7338
 4726TIP3    H235814   0.727   4.434   8.101 -1.2996  0.2159  2.4174
 4727TIP3   OH235815   5.910   2.536   8.211 -0.2295  0.1708 -0.0264
 4727TIP3    H135816   5.835   2.571   8.163 -1.4682 -4.0311 -1.6766
 4727TIP3    H235817   5.880   2.529   8.301 -0.6426  1.3379 -0.0561
 4728TIP3   OH235818   5.512   5.501   3.553 -0.1464 -0.2520 -0.3695
 4728TIP3    H135819   5.593   5.481   3.505  0.1309  0.1695 -0.0794
 4728TIP3    H235820   5.519   5.594   3.574  0.4125 -0.7189  1.7554
 4729TIP3   OH235821   5.996   1.631   3.414  0.0145 -0.2866 -0.1455
 4729TIP3    H135822   5.900   1.633   3.418 -0.0053 -1.3051  0.1088
 4729TIP3    H235823   6.022   1.721   3.431 -0.8340 -0.3085  1.4909
 4730TIP3   OH235824   6.319   3.920   2.079  0.6926  0.4391  0.1331
 4730TIP3    H135825   6.287   3.839   2.120  0.9833 -0.3894 -1.2137
 4730TIP3    H235826   6.265   3.930   2.001 -0.0847  2.1879  0.8466
 4731TIP3   OH235827   1.310   6.073   1.886 -0.0707 -0.2105  0.5185
 4731TIP3    H135828   1.329   6.149   1.830  0.2963 -0.1119  0.7703
 4731TIP3    H235829   1.396   6.036   1.905 -0.1444  0.0822  1.4684
 4732TIP3   OH235830   1.132   1.170   1.120  0.0424  0.4086 -0.0526
 4732TIP3    H135831   1.076   1.149   1.044  0.5998  1.6513 -0.8308
 4732TIP3    H235832   1.202   1.106   1.116 -0.2753  0.0640 -0.2063
 4733TIP3   OH235833   0.041   2.376   1.602 -0.7021  0.6356 -0.2435
 4733TIP3    H135834  -0.052   2.353   1.607 -0.1080 -1.9371  0.6671
 4733TIP3    H235835   0.076   2.318   1.534  0.1036  2.2711 -1.2859
 4734TIP3   OH235836   2.382   1.884   7.643 -0.1518  0.0026 -0.2231
 4734TIP3    H135837   2.315   1.817   7.659 -0.6809  0.8044  1.0952
 4734TIP3    H235838   2.332   1.965   7.632  0.6224  0.9673  2.6527
 4735TIP3   OH235839   0.727   1.883   2.613 -0.2707 -0.2015  0.7779
 4735TIP3    H135840   0.818   1.904   2.636  0.8447 -2.3668 -1.1334
 4735TIP3    H235841   0.730   1.791   2.586 -2.8848 -0.1072 -0.1312
 4736TIP3   OH235842   3.160   5.679   8.144 -0.1697  0.6390  0.0221
 4736TIP3    H135843   3.083   5.685   8.088  0.0099  0.7936 -0.2103
 4736TIP3    H235844   3.234   5.702   8.087  0.1386 -0.2257  0.0552
 4737TIP3   OH235845   3.706   4.560   8.134 -0.2172 -0.1090 -0.3987
 4737TIP3    H135846   3.713   4.649   8.100  0.2690  0.0180  0.0197
 4737TIP3    H235847   3.616   4.553   8.164 -0.4860 -0.0250 -1.1531
 4738TIP3   OH235848   1.360   0.833   3.059 -0.0630  0.3549  0.2583
 4738TIP3    H135849   1.280   0.880   3.037  0.8945  1.7276 -0.4553
 4738TIP3    H235850   1.330   0.756   3.107 -1.6855  1.8599  1.8289
 4739TIP3   OH235851   2.497   5.154   2.134  0.4593 -0.2471 -0.2145
 4739TIP3    H135852   2.429   5.175   2.198  0.2099 -0.7902 -0.2987
 4739TIP3    H235853   2.562   5.105   2.183  0.3382 -0.5377 -0.3443
 4740TIP3   OH235854   3.732   0.713   1.321  0.4132  0.0805  0.2893
 4740TIP3    H135855   3.650   0.749   1.356 -1.3147 -1.7685 -1.5526
 4740TIP3    H235856   3.754   0.771   1.247  0.1581 -0.0222  0.1302
 4741TIP3   OH235857   4.649   0.970   0.484  0.1079  0.2095  0.1856
 4741TIP3    H135858   4.563   1.012   0.476 -0.6645 -1.3358 -0.0219
 4741TIP3    H235859   4.708   1.028   0.436 -1.7085 -1.1179 -4.1849
 4742TIP3   OH235860   4.982   3.410   3.041  0.2772 -0.0375 -0.3546
 4742TIP3    H135861   5.016   3.327   3.074  2.4058  0.7534 -0.3897
 4742TIP3    H235862   5.002   3.473   3.110 -1.2437  0.5005 -0.3563
 4743TIP3   OH235863   4.583   5.210   3.133  0.2056  0.0718  0.0724
 4743TIP3    H135864   4.510   5.171   3.086  0.4001 -0.6165  0.3241
 4743TIP3    H235865   4.643   5.137   3.148  2.4896  1.1191 -2.9443
 4744TIP3   OH235866   3.664   6.412   1.858 -0.1365  0.0976 -0.2678
 4744TIP3    H135867   3.715   6.471   1.804  0.0306  1.4052  1.2387
 4744TIP3    H235868   3.602   6.468   1.904  1.7890 -0.3455  3.2694
 4745TIP3   OH235869   1.338   1.798   8.185 -0.2101  0.0912 -0.8263
 4745TIP3    H135870   1.274   1.868   8.180  0.8226  1.1335 -0.0582
 4745TIP3    H235871   1.398   1.825   8.255  0.2914 -1.4973 -0.5860
 4746TIP3   OH235872   0.720   6.862   2.761  0.1233  0.6685 -0.3890
 4746TIP3    H135873   0.715   6.767   2.774  4.1361  0.5274  1.6289
 4746TIP3    H235874   0.748   6.872   2.670  2.6477 -0.3673  0.2011
 4747TIP3   OH235875   2.029   1.527   1.164  0.4658  0.9759 -0.0546
 4747TIP3    H135876   2.069   1.577   1.236  0.7752 -0.2251  0.6445
 4747TIP3    H235877   2.100   1.515   1.101  0.9849 -0.2444  0.7009
 4748TIP3   OH235878   6.074   6.279   0.809 -0.2439 -0.4394 -0.1528
 4748TIP3    H135879   6.128   6.210   0.848  1.2021  0.6960 -0.0315
 4748TIP3    H235880   5.998   6.233   0.773  0.6260 -2.0717 -0.0194
 4749TIP3   OH235881   2.623   6.150   1.689 -0.2777 -0.0698  0.3305
 4749TIP3    H135882   2.682   6.224   1.675 -0.1290  0.2732  2.3845
 4749TIP3    H235883   2.681   6.073   1.688  0.5667  0.3683  3.6272
 4750TIP3   OH235884   2.554   0.110   1.395  0.7592  0.0297 -0.4060
 4750TIP3    H135885   2.525   0.167   1.324 -1.2813 -0.9113 -0.4016
 4750TIP3    H235886   2.629   0.063   1.359  0.5084  0.4332 -1.5016
 4751TIP3   OH235887   6.739   4.171   1.443  0.5834 -0.0136  0.3673
 4751TIP3    H135888   6.711   4.249   1.490 -0.8126 -1.2150  1.6318
 4751TIP3    H235889   6.823   4.195   1.403  1.2550  1.4556  2.5077
 4752TIP3   OH235890   5.276   6.396   1.666  0.4556  0.7396 -0.2013
 4752TIP3    H135891   5.332   6.400   1.589  1.1122 -0.5618  0.1846
 4752TIP3    H235892   5.187   6.393   1.631  0.7855 -1.8429 -1.0410
 4753TIP3   OH235893   1.137   3.925   2.431 -0.6019  0.1205  0.0537
 4753TIP3    H135894   1.173   3.977   2.359 -0.1975  0.0360  0.1918
 4753TIP3    H235895   1.181   3.958   2.509 -1.2717  0.4286  0.3070
 4754TIP3   OH235896   5.865   2.215   8.451 -0.0486 -0.5629 -0.2423
 4754TIP3    H135897   5.928   2.171   8.393  2.6349  1.6360  0.7849
 4754TIP3    H235898   5.839   2.147   8.514  1.8940 -1.3850 -0.2634
 4755TIP3   OH235899   5.415   5.971   1.773 -0.0177 -0.6546  0.8320
 4755TIP3    H135900   5.460   5.972   1.688  1.1937 -1.2268  1.4396
 4755TIP3    H235901   5.426   5.882   1.805 -1.4091 -0.7457  1.1251
 4756TIP3   OH235902   4.800   2.288   7.858  0.1038 -0.0442 -0.1353
 4756TIP3    H135903   4.869   2.347   7.889 -1.6950  1.8406  0.5145
 4756TIP3    H235904   4.759   2.257   7.938  0.1215 -1.0822 -0.5207
 4757TIP3   OH235905   3.459   3.664   8.610 -0.5124 -0.4922  0.1857
 4757TIP3    H135906   3.487   3.725   8.678 -2.4043 -0.4783  1.0153
 4757TIP3    H235907   3.510   3.689   8.533  2.2022 -0.9572  1.7139
 4758TIP3   OH235908   3.523   5.027   2.650  0.0516 -0.7470  0.2044
 4758TIP3    H135909   3.530   4.983   2.734 -1.5524 -1.9864 -0.2572
 4758TIP3    H235910   3.612   5.027   2.615  0.4161 -1.8944  1.0739
 4759TIP3   OH235911   6.026   6.738   1.619  0.4192  0.5061  0.2907
 4759TIP3    H135912   6.081   6.664   1.645 -1.1289 -0.4784  0.9107
 4759TIP3    H235913   5.954   6.738   1.682 -0.6438  1.3317 -0.8682
 4760TIP3   OH235914   3.830   2.696   7.313  0.3128  0.6832 -0.4279
 4760TIP3    H135915   3.915   2.678   7.272  0.2125  1.4136 -0.9999
 4760TIP3    H235916   3.840   2.784   7.349  0.5286 -0.0950  1.5389
 4761TIP3   OH235917   1.055   4.090   3.094 -0.8054 -0.2706  0.5789
 4761TIP3    H135918   0.968   4.068   3.061 -0.6108 -0.2690  0.0639
 4761TIP3    H235919   1.077   4.018   3.154 -1.4020  0.0225  1.1520
 4762TIP3   OH235920   4.123   0.265   2.085  0.3630  0.0534  0.2614
 4762TIP3    H135921   4.211   0.299   2.102  0.8225  0.0552 -1.9210
 4762TIP3    H235922   4.091   0.317   2.011 -0.4243 -1.7168 -0.6878
 4763TIP3   OH235923   1.015   0.589   1.296 -0.2847 -0.1570  0.5613
 4763TIP3    H135924   1.082   0.536   1.251  0.3220  0.9105  0.1684
 4763TIP3    H235925   1.001   0.544   1.379 -0.1334 -1.1955  0.0465
 4764TIP3   OH235926   4.818   5.778   3.342  0.1038  0.0557 -0.6058
 4764TIP3    H135927   4.774   5.733   3.415  0.0718 -1.9583 -1.7898
 4764TIP3    H235928   4.908   5.746   3.345  0.1312  0.0563 -1.3739
 4765TIP3   OH235929   6.360   2.840   2.599  0.3344  0.2092 -0.1964
 4765TIP3    H135930   6.417   2.910   2.630 -0.4254  0.4778  0.6496
 4765TIP3    H235931   6.367   2.772   2.666 -1.2953  0.7758  0.5979
 4766TIP3   OH235932   0.174   2.004   0.261  0.3427 -0.6194 -0.6691
 4766TIP3    H135933   0.134   2.079   0.304  2.0960 -0.1345  0.1979
 4766TIP3    H235934   0.215   2.041   0.183  0.1798 -0.8972 -0.8883
 4767TIP3   OH235935   3.516   0.721   1.686  0.1374 -0.2576  0.1147
 4767TIP3    H135936   3.491   0.783   1.755 -1.7252 -1.2088  0.3562
 4767TIP3    H235937   3.540   0.776   1.612 -0.7374  0.7691  0.5677
 4768TIP3   OH235938   4.912   3.891   2.002 -0.0802  0.1982  0.6790
 4768TIP3    H135939   4.846   3.925   1.942 -0.1384 -0.9911  0.0450
 4768TIP3    H235940   4.887   3.928   2.087 -1.0051  0.5277  0.2831
 4769TIP3   OH235941   6.249   5.029   2.642  0.2158  0.2289 -0.1029
 4769TIP3    H135942   6.322   4.990   2.691 -1.0034 -0.2051  1.4343
 4769TIP3    H235943   6.256   5.123   2.661  1.7680  0.5360 -1.9254
 4770TIP3   OH235944   2.963   6.769   0.201  0.8862 -0.3529 -0.2038
 4770TIP3    H135945   2.903   6.808   0.138  0.4216  0.0303  0.4730
 4770TIP3    H235946   3.049   6.775   0.158  1.3273  3.8450  0.8562
 4771TIP3   OH235947   0.983   1.146   8.383 -0.4164  0.5547 -0.6129
 4771TIP3    H135948   0.972   1.101   8.467  1.8537 -0.6460 -0.8852
 4771TIP3    H235949   0.964   1.238   8.402 -0.3631  0.2380  1.1236
 4772TIP3   OH235950   4.440   4.579   0.544  0.4759  0.1671 -0.2978
 4772TIP3    H135951   4.394   4.527   0.477  0.8004 -0.0090 -0.3836
 4772TIP3    H235952   4.416   4.669   0.523  0.0219  0.0664 -0.2325
 4773TIP3   OH235953   4.272   5.727   1.494 -0.0655 -0.4853  0.0245
 4773TIP3    H135954   4.208   5.798   1.490  3.1169  2.6387 -1.8639
 4773TIP3    H235955   4.251   5.672   1.418 -0.9977 -0.0015 -0.0872
 4774TIP3   OH235956   3.187   2.770   0.213  0.0817  0.2249 -0.7512
 4774TIP3    H135957   3.270   2.805   0.245 -0.3388  0.9373 -0.4193
 4774TIP3    H235958   3.212   2.699   0.154  0.8847 -0.9409  0.9209
 4775TIP3   OH235959   4.091   6.435   1.954  0.0211 -0.3665  0.1766
 4775TIP3    H135960   4.010   6.383   1.961  0.0494 -0.1531  3.2627
 4775TIP3    H235961   4.156   6.385   2.002  1.2165  0.4860 -0.4970
 4776TIP3   OH235962   3.822   1.462   8.096 -0.2070  0.3018 -0.0860
 4776TIP3    H135963   3.910   1.442   8.064 -0.1593  0.8293 -0.2899
 4776TIP3    H235964   3.817   1.557   8.096 -0.1028  0.3366  1.7950
 4777TIP3   OH235965   5.718   1.625   8.080 -0.0439  0.1737  0.4823
 4777TIP3    H135966   5.696   1.671   8.161  0.8893 -0.5212  1.1613
 4777TIP3    H235967   5.799   1.667   8.050  0.7001 -0.8412  0.9970
 4778TIP3   OH235968   5.840   3.814   0.992  0.0653 -0.3267  0.0146
 4778TIP3    H135969   5.749   3.792   1.015 -0.0481 -0.0992 -0.2082
 4778TIP3    H235970   5.893   3.754   1.044 -0.0896  1.6011  2.5781
 4779TIP3   OH235971   5.555   4.132   1.758 -0.4818 -0.0097  0.4265
 4779TIP3    H135972   5.622   4.200   1.750  0.1161 -0.5452  0.7863
 4779TIP3    H235973   5.545   4.098   1.669  0.1134 -0.2811  0.4547
 4780TIP3   OH235974   5.973   4.439   7.994  0.5452  0.4145 -0.0607
 4780TIP3    H135975   5.990   4.472   8.082  0.5978 -0.5649  0.3073
 4780TIP3    H235976   6.052   4.461   7.944  0.8821  0.1987  0.3698
 4781TIP3   OH235977   3.370   5.412   0.820 -0.0777  0.3481  0.4379
 4781TIP3    H135978   3.299   5.364   0.776 -0.6915  0.6312  1.0868
 4781TIP3    H235979   3.340   5.503   0.820  0.8944  0.6874 -0.4223
 4782TIP3   OH235980   0.446   2.022   1.678  1.1161  0.2749 -0.7389
 4782TIP3    H135981   0.443   2.114   1.706 -0.7396  0.1844 -0.4903
 4782TIP3    H235982   0.538   1.999   1.682  1.3494  1.2400  2.1943
 4783TIP3   OH235983   2.486   3.434   2.747 -0.2770 -0.3856  0.3678
 4783TIP3    H135984   2.549   3.458   2.678 -1.7239  0.0997 -0.8405
 4783TIP3    H235985   2.423   3.377   2.703 -1.4260  0.2049  1.2032
 4784TIP3   OH235986   1.112   4.407   2.209  0.4993 -0.0991  0.2038
 4784TIP3    H135987   1.113   4.502   2.198 -0.4746 -0.1517 -0.4760
 4784TIP3    H235988   1.082   4.393   2.299 -3.2737  0.2470 -0.8414
 4785TIP3   OH235989   4.717   3.368   3.219  0.0740 -0.9613 -0.1390
 4785TIP3    H135990   4.697   3.416   3.139 -0.6785 -1.3441 -0.1867
 4785TIP3    H235991   4.754   3.435   3.278  4.2200 -1.3364 -2.0234
 4786TIP3   OH235992   4.026   1.393   2.108 -0.6742  0.8711 -0.3898
 4786TIP3    H135993   3.937   1.390   2.142  0.1249 -0.0269  1.7739
 4786TIP3    H235994   4.072   1.324   2.155  1.2765  1.6134 -1.1222
 4787TIP3   OH235995   6.877   1.896   1.679 -0.3836 -0.0621  0.4615
 4787TIP3    H135996   6.843   1.965   1.622 -0.5500  0.6128  1.3644
 4787TIP3    H235997   6.802   1.868   1.731  0.0464  0.2328  1.2574
 4788TIP3   OH235998   2.087   1.219   0.858 -0.1770  0.4766 -0.2377
 4788TIP3    H135999   2.055   1.237   0.946  0.2760  0.2098 -0.0123
 4788TIP3    H236000   2.048   1.287   0.803 -0.7262  0.4468  0.1111
 4789TIP3   OH236001   2.436   5.610   0.783  0.5874  0.2737 -0.5523
 4789TIP3    H136002   2.460   5.638   0.694  0.0671  1.4408 -0.3521
 4789TIP3    H236003   2.427   5.692   0.832  0.5557 -0.3442  0.4976
 4790TIP3   OH236004   1.932   2.500   3.221 -0.1612 -0.3629 -0.5944
 4790TIP3    H136005   1.865   2.544   3.274  1.1230  0.2621  0.6006
 4790TIP3    H236006   1.919   2.534   3.133 -0.7337  0.5773 -0.1706
 4791TIP3   OH236007   2.695   5.022   0.506 -0.1110  0.6521 -0.1951
 4791TIP3    H136008   2.641   5.051   0.580  0.9939 -1.0707  1.3582
 4791TIP3    H236009   2.693   4.926   0.511  2.6093  0.5082 -0.3873
 4792TIP3   OH236010   3.907   5.894   0.659  0.5466 -0.0652 -0.0874
 4792TIP3    H136011   3.889   5.812   0.704 -0.3549  0.2015  0.0666
 4792TIP3    H236012   3.880   5.879   0.568 -0.5191  0.3461  0.1499
 4793TIP3   OH236013   2.334   0.875   2.553 -0.2714  0.4557  0.3905
 4793TIP3    H136014   2.368   0.786   2.568 -1.3250 -0.2064 -0.9754
 4793TIP3    H236015   2.277   0.891   2.628  1.9976  1.1098  2.0838
 4794TIP3   OH236016   2.134   5.425   0.071  0.3824 -0.1081 -0.0329
 4794TIP3    H136017   2.051   5.390   0.039  2.1817 -3.7378 -1.2975
 4794TIP3    H236018   2.177   5.459  -0.007  1.0235 -0.4580  0.1588
 4795TIP3   OH236019   6.665   1.565   8.256 -0.1927  0.0914  0.4587
 4795TIP3    H136020   6.665   1.538   8.164 -0.4060  2.1657 -0.2050
 4795TIP3    H236021   6.685   1.485   8.304 -1.8537 -1.4589 -1.2408
 4796TIP3   OH236022   6.346   1.237   2.339  0.7081 -0.3288  0.5056
 4796TIP3    H136023   6.441   1.227   2.339  0.5894 -1.7955 -0.4227
 4796TIP3    H236024   6.332   1.332   2.336  2.1399 -0.0958  0.3612
 4797TIP3   OH236025   5.649   2.750   1.236  0.3084 -0.0958 -0.3210
 4797TIP3    H136026   5.736   2.791   1.236  0.4545 -0.4009 -0.5233
 4797TIP3    H236027   5.649   2.693   1.159 -0.2357  0.2399 -0.5789
 4798TIP3   OH236028   4.659   4.561   0.133  0.1066 -0.2577 -0.6571
 4798TIP3    H136029   4.587   4.586   0.191  0.7413  1.5228 -0.5716
 4798TIP3    H236030   4.628   4.483   0.088 -1.4352 -0.1556  0.1705
 4799TIP3   OH236031   1.451   4.730   8.602  0.4493 -0.2275 -0.1469
 4799TIP3    H136032   1.497   4.660   8.556  0.1709 -0.7546  0.3524
 4799TIP3    H236033   1.494   4.734   8.688  0.7614  0.5297 -0.3377
 4800TIP3   OH236034   4.059   0.615   2.402 -0.5784  0.4765  0.0121
 4800TIP3    H136035   4.048   0.622   2.497  0.8323 -0.6181  0.2932
 4800TIP3    H236036   4.071   0.521   2.386  2.3800  0.8966 -0.8136
 4801TIP3   OH236037   0.606   5.427   8.155  0.1534 -0.7610  0.0160
 4801TIP3    H136038   0.563   5.354   8.110  0.5747 -0.3118 -1.1437
 4801TIP3    H236039   0.699   5.405   8.154  0.2837 -0.2166 -0.3428
 4802TIP3   OH236040   2.360   2.408   1.489  0.0401 -0.1961 -0.2777
 4802TIP3    H136041   2.424   2.473   1.518 -0.0423 -0.6007  0.8622
 4802TIP3    H236042   2.311   2.386   1.568 -0.5371 -0.9704 -0.8405
 4803TIP3   OH236043   0.875   5.354   8.132  0.0533 -0.3657  0.0954
 4803TIP3    H136044   0.955   5.374   8.085  0.0409 -0.2440  0.1257
 4803TIP3    H236045   0.870   5.258   8.131  0.8562 -0.4438  1.1652
 4804TIP3   OH236046   1.561   6.652   0.543 -0.0736  0.2296 -0.2696
 4804TIP3    H136047   1.578   6.568   0.500  1.2120  0.0070  0.6223
 4804TIP3    H236048   1.510   6.630   0.621 -1.6242  0.5371 -1.1599
 4805TIP3   OH236049   6.387   4.004   3.303 -0.5349  0.6559  0.9242
 4805TIP3    H136050   6.474   4.004   3.264 -1.0510  0.0207 -0.2673
 4805TIP3    H236051   6.403   4.016   3.397  0.7708  1.4852  0.6252
 4806TIP3   OH236052   1.088   4.840   1.688 -0.4594  0.3262 -0.5868
 4806TIP3    H136053   1.015   4.900   1.672 -0.3940  0.7665  0.6413
 4806TIP3    H236054   1.108   4.851   1.781  1.7933  0.9097 -1.0793
 4807TIP3   OH236055   2.488   5.653   0.520  0.0797  0.2011  0.2316
 4807TIP3    H136056   2.555   5.635   0.455  0.2617 -1.8841  0.9311
 4807TIP3    H236057   2.419   5.589   0.502 -0.8807  1.0653  0.7101
 4808TIP3   OH236058   0.097   1.705   2.248 -0.2588  0.5536  0.0845
 4808TIP3    H136059   0.021   1.649   2.261 -0.7069  0.6532 -1.8697
 4808TIP3    H236060   0.129   1.684   2.161  1.3490  1.2691  0.4516
 4809TIP3   OH236061   1.931   2.427   2.461  0.2166  0.3161 -0.0149
 4809TIP3    H136062   1.854   2.468   2.500  0.9108  2.5141 -0.8143
 4809TIP3    H236063   1.958   2.487   2.392  0.8872 -1.9025 -1.8026
 4810TIP3   OH236064   0.260   3.001   0.307 -0.8553  0.2585  0.2141
 4810TIP3    H136065   0.348   3.037   0.320 -0.4144 -1.3951  2.4138
 4810TIP3    H236066   0.252   2.989   0.213  0.5580  2.0704 -0.2025
 4811TIP3   OH236067   5.562   6.711   0.468 -0.1643 -0.0256  0.2013
 4811TIP3    H136068   5.518   6.637   0.510 -0.3945 -0.8226 -1.3936
 4811TIP3    H236069   5.611   6.753   0.539  0.0427 -1.7606  1.1213
 4812TIP3   OH236070   5.894   3.741   1.570  0.3060 -0.4813 -0.0605
 4812TIP3    H136071   5.892   3.836   1.578 -0.0237 -0.0986 -3.4937
 4812TIP3    H236072   5.835   3.710   1.639 -0.4452  1.8341  0.4197
 4813TIP3   OH236073   6.019   5.007   2.498  0.0381  0.0857  0.0851
 4813TIP3    H136074   6.107   5.028   2.530  0.8365 -1.7494 -0.7111
 4813TIP3    H236075   5.962   5.070   2.540  1.7276  1.2464  0.7395
 4814TIP3   OH236076   3.722   0.009   0.556 -0.0546  0.1435  0.3796
 4814TIP3    H136077   3.805  -0.022   0.520 -0.9212 -0.8690 -0.8245
 4814TIP3    H236078   3.728   0.104   0.551  1.3995  0.1251  1.2191
 4815TIP3   OH236079   5.736   4.324   1.686 -0.3436  0.4353 -0.8714
 4815TIP3    H136080   5.728   4.315   1.591 -0.7984 -0.7001 -0.7367
 4815TIP3    H236081   5.788   4.403   1.698 -1.1409  1.1623 -2.0382
 4816TIP3   OH236082   2.046   1.132   3.196  0.0532 -0.1242 -0.2263
 4816TIP3    H136083   2.139   1.118   3.178 -0.0059  0.0255 -0.6670
 4816TIP3    H236084   2.003   1.052   3.165  0.1614 -0.7570  1.1689
 4817TIP3   OH236085   6.421   5.119   0.890  0.0991 -0.4387 -0.2478
 4817TIP3    H136086   6.494   5.085   0.941 -1.0033 -1.0453  1.0121
 4817TIP3    H236087   6.416   5.211   0.915  0.2542 -0.4668 -0.1087
 4818TIP3   OH236088   0.335   4.623   8.360  0.0721 -0.2965  0.4733
 4818TIP3    H136089   0.398   4.695   8.358 -1.9265  1.5662  0.6900
 4818TIP3    H236090   0.281   4.637   8.281 -0.7228 -1.1993  0.8431
 4819TIP3   OH236091   4.988   2.130   0.178 -0.4702 -0.4790 -0.1283
 4819TIP3    H136092   4.924   2.172   0.237  0.1088  2.0708 -1.1794
 4819TIP3    H236093   4.938   2.108   0.100 -0.3566  0.3614 -0.4519
 4820TIP3   OH236094   3.363   1.734   3.095 -0.0835 -0.0965 -0.4257
 4820TIP3    H136095   3.416   1.759   3.171  0.5071 -0.6042 -0.6546
 4820TIP3    H236096   3.276   1.769   3.113  0.0338 -0.2647  0.5194
 4821TIP3   OH236097   2.327   5.700   8.463  0.1876 -0.6337 -0.5559
 4821TIP3    H136098   2.397   5.723   8.402  1.6956  1.4173  1.7946
 4821TIP3    H236099   2.259   5.766   8.448 -0.7792 -1.8463 -1.9073
 4822TIP3   OH236100   4.973   4.977   2.174  0.6566  0.1000 -0.6895
 4822TIP3    H136101   5.064   4.971   2.202  0.8791  1.9820 -0.8405
 4822TIP3    H236102   4.976   4.967   2.079  0.6638 -0.1355 -0.6649
 4823TIP3   OH236103   1.575   6.145   1.160  0.6069 -0.2468 -0.0556
 4823TIP3    H136104   1.557   6.159   1.067 -0.9456 -0.7519  0.1353
 4823TIP3    H236105   1.499   6.095   1.192  1.6216 -1.0152  1.2523
 4824TIP3   OH236106   3.267   1.380   8.473  0.3550 -0.4100 -0.6841
 4824TIP3    H136107   3.296   1.361   8.562  2.2871  1.7091 -0.7634
 4824TIP3    H236108   3.253   1.294   8.434  0.3260 -1.4109  1.3806
 4825TIP3   OH236109   3.866   2.843   1.750  0.0259 -0.0969 -0.6478
 4825TIP3    H136110   3.778   2.815   1.774 -0.3120  0.7498 -0.8628
 4825TIP3    H236111   3.876   2.930   1.788  0.4444  0.1764 -1.3557
 4826TIP3   OH236112   0.700   4.575   7.329  0.1719 -0.5682 -0.2578
 4826TIP3    H136113   0.653   4.492   7.327  0.4047 -0.6936 -0.5249
 4826TIP3    H236114   0.746   4.579   7.245  1.0735 -0.6965  0.2194
 4827TIP3   OH236115   2.464   2.000   1.503  0.0919 -0.1632 -0.1356
 4827TIP3    H136116   2.369   1.996   1.515  0.1617 -1.5679  0.1595
 4827TIP3    H236117   2.477   1.985   1.410 -0.0015  1.0109 -0.3545
 4828TIP3   OH236118   1.704   3.640   0.458  0.2618  0.2782  0.1214
 4828TIP3    H136119   1.712   3.549   0.429 -4.4862 -0.7159  0.9798
 4828TIP3    H236120   1.745   3.641   0.544 -1.2494 -1.6950  0.9490
 4829TIP3   OH236121   1.513   4.862   0.614 -0.1361  0.1161 -0.3606
 4829TIP3    H136122   1.509   4.795   0.546  1.8480 -0.0721 -0.3534
 4829TIP3    H236123   1.600   4.852   0.652 -0.5891  1.3307  1.0669
 4830TIP3   OH236124   1.618   0.612   1.482 -0.2935 -0.1947  0.2626
 4830TIP3    H136125   1.672   0.576   1.411  0.8487  1.7337  0.1061
 4830TIP3    H236126   1.598   0.701   1.455 -2.4268 -0.3913  0.9915
 4831TIP3   OH236127   5.362   3.941   7.200  0.3553 -0.0397  0.2692
 4831TIP3    H136128   5.432   3.899   7.251 -0.2886 -0.8026  0.5432
 4831TIP3    H236129   5.363   4.032   7.229  1.0783 -0.0981  0.4496
 4832TIP3   OH236130   6.681   5.660   1.401  0.3911 -0.3143 -0.0733
 4832TIP3    H136131   6.601   5.711   1.393  1.4669  1.4212 -0.4098
 4832TIP3    H236132   6.704   5.665   1.493  1.6217  1.7208 -0.4316
 4833TIP3   OH236133   5.406   1.865   1.170  0.2757  0.3356  0.3471
 4833TIP3    H136134   5.399   1.788   1.115  0.7687  0.5054  0.0431
 4833TIP3    H236135   5.323   1.867   1.219 -0.1353  0.1511 -0.3313
 4834TIP3   OH236136   0.346   2.247   2.979 -0.7997 -0.2042  0.1301
 4834TIP3    H136137   0.344   2.151   2.981 -0.6221 -0.2515 -1.1326
 4834TIP3    H236138   0.275   2.273   3.037 -0.8697 -1.1000  0.4715
 4835TIP3   OH236139   1.868   0.303   7.254  0.2495 -0.0431  0.0974
 4835TIP3    H136140   1.901   0.345   7.174  2.0776  0.9854  1.3028
 4835TIP3    H236141   1.890   0.210   7.243 -1.2800 -0.2640 -1.3916
 4836TIP3   OH236142   3.480   0.101   0.822 -0.0244 -0.2535 -0.4608
 4836TIP3    H136143   3.507   0.049   0.745  1.7464  0.2143 -0.2035
 4836TIP3    H236144   3.519   0.055   0.896  0.7497  0.8746 -0.1393
 4837TIP3   OH236145   5.329   5.195   2.267 -0.4759 -0.1025  0.2402
 4837TIP3    H136146   5.246   5.198   2.315  0.8866 -2.0391  3.0016
 4837TIP3    H236147   5.351   5.287   2.250 -3.6774  0.4321 -1.7215
 4838TIP3   OH236148   2.766   4.084   3.086  0.5803 -0.1883 -0.0192
 4838TIP3    H136149   2.742   3.997   3.054  0.2264 -0.1209  0.0597
 4838TIP3    H236150   2.685   4.134   3.083  1.2120  0.7792 -2.0773
 4839TIP3   OH236151   5.899   0.597   0.690  0.3848  0.3486  0.3877
 4839TIP3    H136152   5.881   0.556   0.606  1.1669  0.2944  0.2404
 4839TIP3    H236153   5.943   0.529   0.741  1.8913  1.0399  0.0657
 4840TIP3   OH236154   2.533   4.372   8.429  0.1870  0.4292  0.6006
 4840TIP3    H136155   2.584   4.341   8.354  0.7050 -1.1899  1.5760
 4840TIP3    H236156   2.445   4.337   8.414  0.4793 -0.5636  1.0999
 4841TIP3   OH236157   1.091   0.570   2.925  0.2379 -0.3592  0.0671
 4841TIP3    H136158   1.066   0.582   3.017 -0.2403 -1.6401  0.1289
 4841TIP3    H236159   1.187   0.567   2.926  0.2279 -0.5354  0.5478
 4842TIP3   OH236160   2.469   4.915   7.876  0.0491  0.1001  0.4153
 4842TIP3    H136161   2.465   5.007   7.850 -0.4633 -0.0479 -0.0452
 4842TIP3    H236162   2.552   4.883   7.840  1.2284  0.8668  2.2627
 4843TIP3   OH236163   3.622   1.625   7.546  0.2398 -0.1303  0.9138
 4843TIP3    H136164   3.595   1.707   7.505 -1.1918 -0.7989  0.4698
 4843TIP3    H236165   3.718   1.628   7.542  0.1935  0.9390 -0.2577
 4844TIP3   OH236166   0.086   6.078   0.758 -0.3362  0.4679 -0.1024
 4844TIP3    H136167   0.180   6.060   0.757 -0.6270 -1.3472  1.0398
 4844TIP3    H236168   0.064   6.086   0.851 -1.7263 -1.8037 -0.1652
 4845TIP3   OH236169   4.842   1.532   0.632  0.0416 -0.1997  0.4096
 4845TIP3    H136170   4.864   1.461   0.693  0.1429 -0.6315 -0.1202
 4845TIP3    H236171   4.782   1.588   0.681 -0.5746 -1.0181  0.6101
 4846TIP3   OH236172   6.892   2.002   0.666  0.1191  0.2248 -0.0838
 4846TIP3    H136173   6.953   2.043   0.605  0.4779 -0.3222 -0.1040
 4846TIP3    H236174   6.805   2.018   0.628  0.2755  0.6650 -0.2615
 4847TIP3   OH236175   2.405   0.370   1.721 -0.2638 -0.0680  0.1535
 4847TIP3    H136176   2.344   0.419   1.667 -0.2434 -0.8865 -0.6343
 4847TIP3    H236177   2.352   0.300   1.760  0.0398 -0.4446 -0.0944
 4848TIP3   OH236178   4.697   2.379   0.801  0.1612  0.5080 -0.0316
 4848TIP3    H136179   4.756   2.398   0.874 -1.9418 -1.9110  2.5309
 4848TIP3    H236180   4.645   2.459   0.791  0.5791  0.9305  1.0390
 4849TIP3   OH236181   3.420   0.946   2.067  0.3286 -0.3602 -0.5452
 4849TIP3    H136182   3.511   0.921   2.086 -0.3555 -0.9838  2.5996
 4849TIP3    H236183   3.417   0.955   1.972  3.6792 -0.2205 -0.7800
 4850TIP3   OH236184   3.814   0.518   1.515  0.2563 -0.5204 -0.2578
 4850TIP3    H136185   3.776   0.599   1.482 -0.6706  0.0628  2.0481
 4850TIP3    H236186   3.893   0.546   1.562 -0.1627 -0.8999  0.7003
 4851TIP3   OH236187   2.495   0.922   2.281  0.4928 -0.1302 -0.3084
 4851TIP3    H136188   2.481   1.011   2.313 -1.5065 -0.7562  0.7673
 4851TIP3    H236189   2.418   0.873   2.312  0.8509 -1.9225 -2.0229
 4852TIP3   OH236190   3.859   1.711   1.150  0.0814 -0.5609  0.0556
 4852TIP3    H136191   3.848   1.792   1.199  0.4221 -1.4639  1.7047
 4852TIP3    H236192   3.902   1.651   1.211  0.4582 -1.7829 -1.3324
 4853TIP3   OH236193   5.176   2.651   8.454  0.1685 -0.3900 -1.0809
 4853TIP3    H136194   5.171   2.594   8.378  1.6994  1.0659 -2.3383
 4853TIP3    H236195   5.111   2.615   8.515 -2.7018 -0.3472 -3.8714
 4854TIP3   OH236196   0.900   0.815   0.143  0.2207 -0.4572 -0.2681
 4854TIP3    H136197   0.859   0.891   0.184 -2.5945 -2.1567  0.3005
 4854TIP3    H236198   0.979   0.800   0.196  0.3924  1.4977  0.1253
 4855TIP3   OH236199   1.822   5.262   0.218  0.3007  0.0713 -0.1322
 4855TIP3    H136200   1.780   5.346   0.201  0.0644 -0.4114 -2.1452
 4855TIP3    H236201   1.760   5.214   0.274 -0.2193  0.6893 -0.1754
 4856TIP3   OH236202   4.332   6.480   2.355  0.7838  0.1613  0.5153
 4856TIP3    H136203   4.411   6.532   2.342  0.2132  0.5062 -2.1158
 4856TIP3    H236204   4.339   6.410   2.290  0.2268 -1.4863  2.1515
 4857TIP3   OH236205   6.406   5.348   7.927 -0.2423 -0.5177 -0.1942
 4857TIP3    H136206   6.344   5.420   7.944  0.3240  1.0023 -3.7439
 4857TIP3    H236207   6.482   5.369   7.982 -1.2884 -0.1824  1.1751
 4858TIP3   OH236208   2.742   0.780   8.215 -0.5435 -0.1078 -0.2702
 4858TIP3    H136209   2.787   0.726   8.280 -2.4270 -1.7369 -0.2225
 4858TIP3    H236210   2.796   0.773   8.136 -0.4134 -1.5845 -0.0714
 4859TIP3   OH236211   6.146   5.358   1.990 -0.6009  0.4474 -0.0896
 4859TIP3    H136212   6.086   5.345   2.064 -1.7305 -1.4044 -1.2616
 4859TIP3    H236213   6.204   5.281   1.992 -1.7022 -0.5073 -2.0271
 4860TIP3   OH236214   1.976   1.872   1.852  0.0420 -0.1304 -0.0671
 4860TIP3    H136215   2.070   1.855   1.850  0.4679  1.8761  0.8302
 4860TIP3    H236216   1.950   1.853   1.942 -0.5637 -1.2334 -0.4494
 4861TIP3   OH236217   6.423   1.461   3.165 -0.3985 -0.1842  0.2744
 4861TIP3    H136218   6.431   1.443   3.258  1.1735 -0.1928  0.1610
 4861TIP3    H236219   6.366   1.538   3.159  1.9579  1.7860  1.4700
 4862TIP3   OH236220   5.645   0.980   1.876  0.4285 -0.3293 -0.7590
 4862TIP3    H136221   5.716   0.979   1.941  0.7999  0.9804 -1.1363
 4862TIP3    H236222   5.565   0.993   1.928  0.5983 -0.4852 -0.4575
 4863TIP3   OH236223   2.054   5.120   1.524  0.5154  0.4150 -0.4469
 4863TIP3    H136224   2.063   5.213   1.502  1.2528  0.2055 -1.0788
 4863TIP3    H236225   2.109   5.108   1.602 -0.5698  0.7540  0.3976
 4864TIP3   OH236226   4.622   1.351   0.845  0.4972  0.2416  0.3411
 4864TIP3    H136227   4.532   1.326   0.825 -0.2035  2.9565 -0.3371
 4864TIP3    H236228   4.676   1.301   0.783 -0.7525  0.3569 -0.8787
 4865TIP3   OH236229   6.750   3.710   0.235  0.2554 -1.0108  0.2047
 4865TIP3    H136230   6.744   3.666   0.150 -1.2987  1.1144 -0.8662
 4865TIP3    H236231   6.810   3.783   0.220 -0.4513 -0.2991  0.7612
 4866TIP3   OH236232   1.247   5.374   1.913 -0.0409  0.2606 -0.0263
 4866TIP3    H136233   1.337   5.345   1.899 -0.6584 -1.7432 -0.2512
 4866TIP3    H236234   1.255   5.459   1.955  1.9592 -0.1133  0.4658
 4867TIP3   OH236235   4.466   0.173   0.501 -0.3090  0.2183 -0.2765
 4867TIP3    H136236   4.482   0.127   0.419 -0.2089 -0.1591 -0.0479
 4867TIP3    H236237   4.550   0.169   0.547 -0.9587 -1.5705  0.8345
 4868TIP3   OH236238   2.794   0.658   2.008 -0.6863 -0.6914 -0.0888
 4868TIP3    H136239   2.713   0.630   1.965 -0.1708 -1.8854 -0.3452
 4868TIP3    H236240   2.848   0.693   1.937 -1.1928  0.6767  0.1773
 4869TIP3   OH236241   2.422   5.550   1.340 -0.1070  0.1301 -0.4249
 4869TIP3    H136242   2.487   5.520   1.277  0.5909 -0.0017  0.3297
 4869TIP3    H236243   2.411   5.476   1.400  1.7728  1.3348  1.5698
 4870TIP3   OH236244   6.022   4.263   1.966 -0.0080 -0.4134 -0.5203
 4870TIP3    H136245   5.992   4.354   1.964  0.2509 -0.2422  1.3416
 4870TIP3    H236246   6.115   4.269   1.984  0.3277 -1.0361 -1.9547
 4871TIP3   OH236247   1.941   3.602   0.190  0.4005 -0.4897 -0.0958
 4871TIP3    H136248   1.879   3.671   0.165  1.1277  0.9180  1.7528
 4871TIP3    H236249   2.011   3.609   0.125  0.4967  0.5675  0.1073
 4872TIP3   OH236250   3.624   3.775   2.158  0.5636 -0.3449 -0.3127
 4872TIP3    H136251   3.583   3.814   2.236  1.3448 -2.8865  1.4725
 4872TIP3    H236252   3.552   3.731   2.113  0.0138  1.5468 -1.3851
 4873TIP3   OH236253   3.057   1.006   0.264 -0.0551 -0.4458 -0.3595
 4873TIP3    H136254   2.971   0.997   0.305 -0.6211 -1.7808 -1.7244
 4873TIP3    H236255   3.059   1.095   0.230 -1.4630 -0.7702 -1.4133
 4874TIP3   OH236256   0.007   3.372   1.387  0.0170  0.4144 -0.1771
 4874TIP3    H136257  -0.039   3.350   1.306 -1.5820  1.1334  0.4884
 4874TIP3    H236258  -0.036   3.451   1.418  0.9880  0.4770  1.0850
 4875TIP3   OH236259   3.621   0.052   2.792  0.3751  0.1725 -0.3146
 4875TIP3    H136260   3.672   0.130   2.815  1.2094 -0.0069 -1.4635
 4875TIP3    H236261   3.536   0.086   2.764 -0.6352  0.4085  2.7072
 4876TIP3   OH236262   0.719   5.471   1.299  0.2043  0.1702 -0.0199
 4876TIP3    H136263   0.714   5.433   1.387  0.2377  3.7094  1.6848
 4876TIP3    H236264   0.787   5.420   1.255  1.8660 -0.2960  2.8382
 4877TIP3   OH236265   0.152   0.704   7.575 -0.2362  0.0304  0.0351
 4877TIP3    H136266   0.225   0.760   7.600 -0.4038 -0.0043  0.6172
 4877TIP3    H236267   0.076   0.743   7.619 -0.1336 -1.4250  1.6216
 4878TIP3   OH236268   0.370   5.214   0.317 -0.6760  0.0074 -0.0098
 4878TIP3    H136269   0.380   5.144   0.382  1.0011  0.0586 -0.1771
 4878TIP3    H236270   0.281   5.201   0.283 -1.0399 -0.9561  1.1879
 4879TIP3   OH236271   5.224   2.369   3.046  0.2401  0.1026  0.1668
 4879TIP3    H136272   5.185   2.282   3.040 -1.4938  0.7801  1.1192
 4879TIP3    H236273   5.198   2.402   3.132  2.1428  1.0028  0.4693
 4880TIP3   OH236274   5.285   3.125   3.155  0.6036 -0.7746  0.0054
 4880TIP3    H136275   5.244   3.113   3.069  1.2481 -1.9283 -0.1715
 4880TIP3    H236276   5.359   3.183   3.138  0.5577 -0.7660 -0.1738
 4881TIP3   OH236277   3.103   2.060   7.035  0.0608 -0.0203  0.6583
 4881TIP3    H136278   3.112   2.088   6.943  1.0066 -2.2084  0.0216
 4881TIP3    H236279   3.185   2.090   7.076  0.9625 -1.5349  0.0394
 4882TIP3   OH236280   1.670   1.398   1.840  0.0006 -0.1830 -0.7310
 4882TIP3    H136281   1.696   1.427   1.752  1.1398 -1.9049 -0.9935
 4882TIP3    H236282   1.723   1.452   1.899  1.7569 -1.2991 -1.2073
 4883TIP3   OH236283   6.886   0.592   2.258  0.8733  0.2640 -0.3853
 4883TIP3    H136284   6.797   0.609   2.288  1.6295  2.7442  0.7862
 4883TIP3    H236285   6.906   0.666   2.201  1.5733 -1.2588 -2.1947
 4884TIP3   OH236286   0.396   1.005   1.719  0.4189  1.0982  0.0894
 4884TIP3    H136287   0.312   0.959   1.717  1.7641 -1.4910 -0.7825
 4884TIP3    H236288   0.393   1.064   1.644 -0.8335  1.4968  0.4271
 4885TIP3   OH236289   0.240   3.916   0.513  0.1415  0.1811 -0.4966
 4885TIP3    H136290   0.317   3.960   0.478 -0.4725  1.9112  0.2192
 4885TIP3    H236291   0.167   3.951   0.462 -0.2481 -1.0224 -0.7985
 4886TIP3   OH236292   6.073   1.809   0.299  0.4830  0.3527 -0.7284
 4886TIP3    H136293   6.073   1.771   0.387  2.6455  0.2567 -0.7196
 4886TIP3    H236294   6.139   1.878   0.303 -0.8951  1.7741 -1.7216
 4887TIP3   OH236295   1.417   1.080   0.883 -0.0655  0.3380 -0.2967
 4887TIP3    H136296   1.511   1.098   0.884 -0.2133  1.1276  0.4166
 4887TIP3    H236297   1.411   0.984   0.887  0.7092  0.1976 -1.7925
 4888TIP3   OH236298   5.075   6.452   1.920 -1.1653  0.1387  0.5644
 4888TIP3    H136299   4.996   6.458   1.866 -1.3906  1.1110  0.9877
 4888TIP3    H236300   5.137   6.404   1.865 -1.6874  0.3216 -0.2061
 4889TIP3   OH236301   2.073   1.561   2.280 -0.1102 -0.8395  0.2873
 4889TIP3    H136302   2.108   1.518   2.202  1.1331  0.1614  0.2799
 4889TIP3    H236303   2.013   1.496   2.317  0.2487 -1.8244 -0.7908
 4890TIP3   OH236304   6.714   5.517   7.754  0.0356 -0.4033 -0.4654
 4890TIP3    H136305   6.685   5.457   7.686 -0.5783  0.3200 -0.8545
 4890TIP3    H236306   6.673   5.600   7.732 -1.6108 -0.5450  1.7465
 4891TIP3   OH236307   3.837   1.580   2.764 -0.3328 -0.4573 -0.1300
 4891TIP3    H136308   3.930   1.558   2.766 -0.1513  0.2678 -0.2903
 4891TIP3    H236309   3.795   1.503   2.725  0.1529 -0.9252  0.2448
 4892TIP3   OH236310   0.108   2.921   2.098 -0.2748  0.2191 -0.3664
 4892TIP3    H136311   0.154   2.977   2.035  1.7525 -0.2312  0.6302
 4892TIP3    H236312   0.015   2.930   2.076  0.1595  2.3813 -1.4951
 4893TIP3   OH236313   6.504   1.390   0.766 -0.6578 -0.2234 -0.1967
 4893TIP3    H136314   6.455   1.396   0.684  0.0409  0.7476 -0.5646
 4893TIP3    H236315   6.528   1.481   0.786  0.2568 -0.5911  0.4299
 4894TIP3   OH236316   5.399   2.937   0.141  0.2973 -0.4486 -0.0010
 4894TIP3    H136317   5.467   2.884   0.099 -1.5498 -1.3782 -2.0686
 4894TIP3    H236318   5.343   2.965   0.068 -2.2168 -0.7469  1.6997
 4895TIP3   OH236319   0.967   0.848   8.313 -0.0754  0.2807 -0.2818
 4895TIP3    H136320   0.905   0.779   8.337  0.1132 -0.7648 -2.4846
 4895TIP3    H236321   0.913   0.916   8.274 -0.3224  1.7316  2.3621
 4896TIP3   OH236322   3.088   1.221   0.460  0.7924  0.3246  0.3079
 4896TIP3    H136323   3.086   1.234   0.555  0.2787  0.4239  0.2883
 4896TIP3    H236324   3.106   1.128   0.449  0.4013  0.2203  0.5148
 4897TIP3   OH236325   1.505   6.770   3.247  0.1934 -0.4522 -0.7302
 4897TIP3    H136326   1.425   6.778   3.197 -0.2785  1.3488  0.2432
 4897TIP3    H236327   1.481   6.717   3.323 -0.2001  0.4601 -0.2123
 4898TIP3   OH236328   0.989   6.425   1.776  0.1041 -0.1531  0.2419
 4898TIP3    H136329   0.963   6.334   1.759  1.3743 -0.6810  0.9742
 4898TIP3    H236330   0.909   6.467   1.810 -1.5252  0.0056 -3.3557
 4899TIP3   OH236331   5.877   1.577   2.070  0.3378  0.4959 -0.0009
 4899TIP3    H136332   5.887   1.487   2.102  0.8600 -0.2180 -2.0502
 4899TIP3    H236333   5.915   1.631   2.139 -1.6087 -0.6537  2.1374
 4900TIP3   OH236334   3.426   0.524   0.396  0.6162  0.4385 -0.3742
 4900TIP3    H136335   3.378   0.607   0.398  2.3430  1.4807  1.1075
 4900TIP3    H236336   3.380   0.469   0.459 -0.2117  0.4429 -0.9529
 4901TIP3   OH236337   6.041   1.578   2.653 -0.0881 -0.6157 -0.5065
 4901TIP3    H136338   6.013   1.561   2.743  1.1410 -1.0905 -0.1887
 4901TIP3    H236339   6.027   1.495   2.607  0.0452 -0.6191 -0.5420
 4902TIP3   OH236340   4.910   2.567   1.691 -0.2298 -0.0379  0.4101
 4902TIP3    H136341   4.830   2.524   1.721 -1.1217  0.9300 -0.5466
 4902TIP3    H236342   4.940   2.514   1.617 -0.1635 -0.1975  0.5489
 4903TIP3   OH236343   4.799   0.531   0.525 -0.1135  0.3517  0.1690
 4903TIP3    H136344   4.736   0.496   0.588  2.4983 -2.1968  1.6285
 4903TIP3    H236345   4.775   0.490   0.442 -0.7263 -0.0918  0.5539
 4904TIP3   OH236346   0.412   5.065   0.656 -0.4113 -0.0686  0.0963
 4904TIP3    H136347   0.455   5.011   0.722  0.8343  0.5044 -0.2293
 4904TIP3    H236348   0.378   5.141   0.705 -1.6075 -0.7953  0.4467
 4905TIP3   OH236349   2.032   2.106   6.666 -0.0381 -0.5911  0.7147
 4905TIP3    H136350   2.121   2.074   6.682  0.8646  1.8856  1.0211
 4905TIP3    H236351   2.010   2.158   6.743 -0.6321  1.0981 -0.5264
 4906TIP3   OH236352   1.151   5.030   2.687 -0.4967 -0.6747  0.0004
 4906TIP3    H136353   1.195   5.006   2.768 -1.2569 -1.5275  0.1763
 4906TIP3    H236354   1.135   4.947   2.643  0.8860 -0.1646 -1.5624
 4907TIP3   OH236355   3.191   1.104   1.306 -0.1037 -0.0396  0.5899
 4907TIP3    H136356   3.152   1.187   1.335  0.2786  0.2327  0.3291
 4907TIP3    H236357   3.285   1.118   1.312 -0.0196 -0.1424 -0.3174
 4908TIP3   OH236358   2.592   6.213   1.191 -0.5055 -0.0418  0.5349
 4908TIP3    H136359   2.567   6.194   1.282 -1.0278  2.2903  0.9254
 4908TIP3    H236360   2.558   6.300   1.174 -0.9085 -0.6417 -2.1301
 4909TIP3   OH236361   0.664   0.141   0.490  0.6987  0.7482 -0.1695
 4909TIP3    H136362   0.652   0.202   0.417  0.4022  0.2169 -0.5631
 4909TIP3    H236363   0.578   0.135   0.531  0.4209 -0.3658 -0.8873
 4910TIP3   OH236364   2.310   4.225   2.670  0.6155  0.3054  0.3721
 4910TIP3    H136365   2.315   4.142   2.717  1.9191  0.1121 -0.0527
 4910TIP3    H236366   2.328   4.202   2.579 -0.4034  0.8795  0.0082
 4911TIP3   OH236367   4.266   0.964   0.810  0.0611 -0.9342  0.1039
 4911TIP3    H136368   4.250   0.909   0.887  0.4291 -1.7220 -0.3719
 4911TIP3    H236369   4.298   1.047   0.846  0.6709 -1.4541  0.7916
 4912TIP3   OH236370   0.408   2.756   1.121  0.1037  0.1219 -0.2127
 4912TIP3    H136371   0.496   2.730   1.148 -0.3948 -0.6725  0.7221
 4912TIP3    H236372   0.396   2.716   1.035 -0.5438 -2.6786  1.0703
 4913TIP3   OH236373   4.838   2.846   8.291  0.1774 -0.3577  0.3375
 4913TIP3    H136374   4.910   2.807   8.242  1.2542  0.3502  1.2806
 4913TIP3    H236375   4.784   2.772   8.318  0.8471 -0.9624  0.0537
 4914TIP3   OH236376   4.870   4.885   8.493 -0.0644  0.2348  0.3745
 4914TIP3    H136377   4.934   4.883   8.422 -1.2094  0.9550 -0.7035
 4914TIP3    H236378   4.923   4.891   8.572  1.2132  0.3541 -0.4613
 4915TIP3   OH236379   5.012   4.375   7.642 -0.1088  0.5713  0.3535
 4915TIP3    H136380   4.930   4.399   7.599  0.3384 -1.4552 -1.8593
 4915TIP3    H236381   4.990   4.366   7.735 -2.8801 -1.6085 -0.3916
 4916TIP3   OH236382   0.559   4.526   7.768 -0.2869  0.4647 -0.0328
 4916TIP3    H136383   0.604   4.598   7.724 -0.4634  0.8090  0.3488
 4916TIP3    H236384   0.606   4.448   7.740 -1.8567  0.3705 -2.8101
 4917TIP3   OH236385   4.402   0.046   8.636 -0.9158 -0.4784 -0.4837
 4917TIP3    H136386   4.396   0.115   8.702  0.2628 -0.5697 -0.2672
 4917TIP3    H236387   4.313   0.009   8.633 -1.2901  0.3268  0.1669
 4918TIP3   OH236388   1.440   6.119   2.552  0.0307  0.2774  0.3573
 4918TIP3    H136389   1.500   6.193   2.544  1.2229 -0.6162  0.8278
 4918TIP3    H236390   1.370   6.139   2.490  1.5274  0.6686 -1.2825
 4919TIP3   OH236391   2.169   3.881   2.510  0.1093  0.1643  0.0590
 4919TIP3    H136392   2.217   3.940   2.569  0.5338  0.0824 -0.2014
 4919TIP3    H236393   2.138   3.810   2.567  0.4923  0.1016  0.1889
 4920TIP3   OH236394   5.971   0.715   0.019 -0.2688 -0.3318 -0.4191
 4920TIP3    H136395   5.885   0.719   0.059 -0.8497  1.2224 -1.7010
 4920TIP3    H236396   5.954   0.701  -0.074  0.8605  0.0269 -0.7050
 4921TIP3   OH236397   6.503   1.129   0.231  0.0081 -0.5259 -0.1342
 4921TIP3    H136398   6.575   1.089   0.183 -0.1137 -0.3400 -0.4738
 4921TIP3    H236399   6.481   1.208   0.181  2.2929  1.7450  2.2083
 4922TIP3   OH236400   0.330   6.311   8.540 -0.5236  0.5871  0.5522
 4922TIP3    H136401   0.241   6.323   8.505  0.1199 -0.1027 -1.5001
 4922TIP3    H236402   0.384   6.295   8.462  1.6533  2.3089  1.5983
 4923TIP3   OH236403   4.810   0.482   8.633 -0.1895  0.3918 -0.0067
 4923TIP3    H136404   4.757   0.560   8.616  2.7796  2.8516  1.0645
 4923TIP3    H236405   4.848   0.460   8.547  0.0214  1.0142 -0.0811
 4924TIP3   OH236406   4.822   3.589   1.952  0.4803 -0.4052  0.2289
 4924TIP3    H136407   4.858   3.675   1.930 -1.9835 -0.4462 -5.9958
 4924TIP3    H236408   4.898   3.533   1.963  2.2232  1.5551 -1.0838
 4925TIP3   OH236409   4.042   3.476   8.516 -0.3911 -0.0584  0.2542
 4925TIP3    H136410   4.132   3.503   8.501 -0.7890  3.5421  3.0565
 4925TIP3    H236411   4.000   3.484   8.431  1.7817 -1.6126 -1.0611
 4926TIP3   OH236412   2.000   5.262   8.417  0.0982 -0.4029  0.2303
 4926TIP3    H136413   2.083   5.291   8.381 -0.4097  0.5288 -0.2275
 4926TIP3    H236414   2.023   5.192   8.478  1.0193 -1.8547 -1.6614
 4927TIP3   OH236415   6.886   5.977   1.674 -0.0146  0.1944  0.0910
 4927TIP3    H136416   6.880   6.038   1.748 -2.5907  0.6655 -0.3975
 4927TIP3    H236417   6.960   6.009   1.622 -1.1246  2.8107 -0.0188
 4928TIP3   OH236418   5.363   2.845   8.037  0.1944  0.3680 -0.0558
 4928TIP3    H136419   5.316   2.906   8.094 -1.0713 -1.3471  0.8441
 4928TIP3    H236420   5.391   2.774   8.095  1.8833  0.1964 -1.0068
 4929TIP3   OH236421   6.202   3.687   8.022  0.5549 -0.2202 -0.5062
 4929TIP3    H136422   6.153   3.675   7.941  0.1157 -0.5379 -0.1973
 4929TIP3    H236423   6.257   3.608   8.028  0.0758 -0.5374 -0.1485
 4930TIP3   OH236424   4.888   0.086   2.280 -0.8229 -0.4657 -0.4564
 4930TIP3    H136425   4.867   0.057   2.369 -1.8293  1.3154 -0.0787
 4930TIP3    H236426   4.982   0.070   2.271 -0.7742 -0.9837  0.7947
 4931TIP3   OH236427   6.680   1.167   1.749 -0.6638  0.3165 -0.2813
 4931TIP3    H136428   6.707   1.208   1.832 -1.9900  2.1146 -0.6929
 4931TIP3    H236429   6.738   1.091   1.741 -1.1484 -0.5327  2.7998
 4932TIP3   OH236430   4.473   2.690   1.800  0.2832  0.1609  0.0329
 4932TIP3    H136431   4.380   2.712   1.805  0.3175  0.7166 -1.4673
 4932TIP3    H236432   4.475   2.595   1.791 -0.1099  0.1204  0.3208
 4933TIP3   OH236433   0.913   0.693   1.037 -0.1313  0.6289  0.2888
 4933TIP3    H136434   0.956   0.650   1.111 -0.0261 -0.1809 -0.2337
 4933TIP3    H236435   0.905   0.624   0.970  1.1609  1.7251 -1.0393
 4934TIP3   OH236436   0.733   6.234   0.863 -0.1848  0.2284 -0.5693
 4934TIP3    H136437   0.669   6.223   0.933 -0.9924 -0.4464 -1.3847
 4934TIP3    H236438   0.772   6.147   0.852  1.5636  0.8294  0.5360
 4935TIP3   OH236439   6.047   0.200   1.531 -0.4704  0.1379  0.7230
 4935TIP3    H136440   6.106   0.255   1.582  1.1144  0.4954 -1.3585
 4935TIP3    H236441   6.005   0.144   1.596  2.8195 -0.7420  2.3328
 4936TIP3   OH236442   6.036   5.806   8.382 -0.1370  0.0988 -0.4855
 4936TIP3    H136443   5.944   5.805   8.407  0.1597  0.1115  0.6354
 4936TIP3    H236444   6.042   5.743   8.310 -0.9869 -0.0177 -0.4636
 4937TIP3   OH236445   3.515   3.844   0.405 -0.6100 -0.4721 -0.4914
 4937TIP3    H136446   3.462   3.780   0.453 -0.2206 -1.0785 -0.8556
 4937TIP3    H236447   3.581   3.872   0.469 -1.5092  0.4820  0.0443
 4938TIP3   OH236448   2.368   2.124   3.080 -0.1223 -0.6724 -0.1516
 4938TIP3    H136449   2.302   2.187   3.109  0.1027  0.5790 -2.1092
 4938TIP3    H236450   2.317   2.054   3.038 -0.2901  0.5132 -2.0724
 4939TIP3   OH236451   1.233   4.207   1.325 -0.4336  0.3086  0.1302
 4939TIP3    H136452   1.254   4.231   1.415 -1.5835  0.2693  0.4308
 4939TIP3    H236453   1.302   4.247   1.272 -0.4801  1.4702  0.9115
 4940TIP3   OH236454   1.106   6.227   1.349  0.1469 -0.1367 -0.3719
 4940TIP3    H136455   1.175   6.162   1.366  0.9810  1.2151  1.7824
 4940TIP3    H236456   1.033   6.199   1.404  0.2496  0.3331  0.0095
 4941TIP3   OH236457   2.181   0.737   2.159 -0.0260  0.5237 -0.3577
 4941TIP3    H136458   2.216   0.825   2.172  1.5065  0.0128 -0.8238
 4941TIP3    H236459   2.115   0.748   2.091 -0.7141  1.4932  0.4268
 4942TIP3   OH236460   6.229   3.334   0.649  0.3679 -0.1363 -0.1609
 4942TIP3    H136461   6.316   3.355   0.682  0.2624  1.1088 -0.6239
 4942TIP3    H236462   6.232   3.357   0.556 -0.6426  0.5266 -0.0399
 4943TIP3   OH236463   2.125   4.834   7.269 -0.1822  0.2241  0.5775
 4943TIP3    H136464   2.194   4.856   7.207 -1.5246 -1.4771 -1.7043
 4943TIP3    H236465   2.143   4.887   7.347  1.4247  2.6981 -1.3579
 4944TIP3   OH236466   1.930   4.128   3.169  0.3000  0.0717 -0.3618
 4944TIP3    H136467   2.009   4.112   3.118  0.3489 -0.7589 -0.0441
 4944TIP3    H236468   1.950   4.205   3.222  0.8153 -0.0033 -0.4504
 4945TIP3   OH236469   5.017   5.691   0.443 -0.3707 -0.0805 -0.0920
 4945TIP3    H136470   5.023   5.622   0.510 -1.2089 -0.0033  0.0788
 4945TIP3    H236471   5.106   5.726   0.436 -0.2566 -0.1266  0.9410
 4946TIP3   OH236472   4.078   1.605   1.954  0.0520  0.0375 -0.0269
 4946TIP3    H136473   4.068   1.517   1.991 -1.9762 -0.5524 -1.7617
 4946TIP3    H236474   4.159   1.601   1.903  0.0476 -0.7993  0.0184
 4947TIP3   OH236475   2.637   3.811   0.666  0.1686  0.6228 -0.2443
 4947TIP3    H136476   2.574   3.794   0.596  0.5763  0.9006 -0.6837
 4947TIP3    H236477   2.583   3.824   0.744 -0.2843  0.1921 -0.4801
 4948TIP3   OH236478   4.914   0.367   3.435 -0.1380  0.3750 -0.1508
 4948TIP3    H136479   4.981   0.410   3.488 -0.4746 -0.3480  0.9010
 4948TIP3    H236480   4.947   0.277   3.424 -0.2317  0.4291 -0.8948
 4949TIP3   OH236481   6.371   1.058   3.638 -0.0315  0.5648  0.4261
 4949TIP3    H136482   6.277   1.067   3.624  0.0474  2.0173  0.6191
 4949TIP3    H236483   6.404   1.020   3.556 -0.5290  2.0358 -0.4991
 4950TIP3   OH236484   6.540   3.440   8.567  0.4523  0.4492  0.1664
 4950TIP3    H136485   6.611   3.494   8.602 -0.0016  0.1669  1.5758
 4950TIP3    H236486   6.485   3.501   8.520  0.3283  1.1130  1.1453
 4951TIP3   OH236487   2.607   1.951   0.948  0.6832  0.5436  0.2861
 4951TIP3    H136488   2.592   1.892   0.875  1.1481 -0.4369  0.9575
 4951TIP3    H236489   2.599   2.039   0.911  1.8354  0.0775 -1.1277
 4952TIP3   OH236490   0.028   5.167   1.402  0.0530 -0.7850 -0.0986
 4952TIP3    H136491   0.111   5.186   1.447  0.0654 -3.4343  1.2124
 4952TIP3    H236492  -0.032   5.143   1.473 -1.2942 -0.6814 -1.1850
 4953TIP3   OH236493   3.730   4.654   1.110 -0.0210  0.3528  0.0071
 4953TIP3    H136494   3.757   4.690   1.195 -1.0066  0.4268  0.3072
 4953TIP3    H236495   3.641   4.622   1.126  0.7532 -2.1628 -0.2386
 4954TIP3   OH236496   3.845   4.543   1.573 -0.2362  0.1665  0.3386
 4954TIP3    H136497   3.764   4.494   1.584 -0.2804 -0.1177 -1.0869
 4954TIP3    H236498   3.863   4.579   1.659 -2.0939  0.5760  0.5831
 4955TIP3   OH236499   0.941   2.395   1.526  0.0104 -0.1999 -0.2701
 4955TIP3    H136500   0.978   2.340   1.457 -1.2680  0.3817 -1.4750
 4955TIP3    H236501   0.851   2.413   1.497 -0.4051  0.4980  1.2995
 4956TIP3   OH236502   3.956   1.347   0.694  0.5061  0.1641  0.1641
 4956TIP3    H136503   3.958   1.397   0.776  1.1573  0.4177 -0.0035
 4956TIP3    H236504   3.968   1.412   0.625  1.1936 -0.1944 -0.0644
 4957TIP3   OH236505   2.699   2.704   7.603  0.0026 -0.0922 -0.3895
 4957TIP3    H136506   2.652   2.713   7.686  1.0539  1.6365  0.0625
 4957TIP3    H236507   2.637   2.737   7.538  0.1948  1.2282  0.0744
 4958TIP3   OH236508   3.172   0.348   3.756 -0.9267  0.4833  1.1391
 4958TIP3    H136509   3.108   0.279   3.776 -1.3433  0.5342  0.0507
 4958TIP3    H236510   3.122   0.412   3.705 -0.2229  0.9750  1.0638
 4959TIP3   OH236511   2.967   2.755   7.638  0.1444 -0.2955 -0.9588
 4959TIP3    H136512   2.999   2.792   7.556  0.7099 -0.4325 -0.8047
 4959TIP3    H236513   2.874   2.739   7.623  0.3410 -0.7520 -1.7350
 4960TIP3   OH236514   2.485   1.527   2.877 -0.5332  0.5785  0.5851
 4960TIP3    H136515   2.578   1.512   2.864 -0.7023 -0.5827  0.5978
 4960TIP3    H236516   2.454   1.559   2.792 -0.7807 -2.5892 -0.6515
 4961TIP3   OH236517   3.646   2.509   0.060  0.0628  0.2373 -0.2891
 4961TIP3    H136518   3.692   2.490  -0.022 -0.8487 -0.6278 -0.6307
 4961TIP3    H236519   3.614   2.599   0.050 -2.2934 -0.6915 -2.0599
 4962TIP3   OH236520   2.074   1.649   1.400  0.1720 -0.4000 -0.2493
 4962TIP3    H136521   2.010   1.658   1.471  0.2734  2.0681 -0.3933
 4962TIP3    H236522   2.155   1.622   1.445  0.2940  1.3296  0.6961
 4963TIP3   OH236523   2.989   6.541   1.730  0.4197 -0.1309 -0.4229
 4963TIP3    H136524   3.021   6.616   1.780 -0.1992 -0.0005 -0.2037
 4963TIP3    H236525   2.963   6.477   1.797 -2.2501  0.7854 -0.4332
 4964TIP3   OH236526   1.670   1.876   8.014  0.0848 -0.1709 -0.2714
 4964TIP3    H136527   1.678   1.782   7.997  1.4019 -0.6316  2.3338
 4964TIP3    H236528   1.626   1.911   7.936  0.0923 -2.8233 -1.5888
 4965TIP3   OH236529   4.317   2.685   1.429  0.1656 -0.2610  0.3299
 4965TIP3    H136530   4.244   2.732   1.470  0.6191 -0.4695  1.4239
 4965TIP3    H236531   4.282   2.654   1.346 -1.6466 -1.9796  1.6129
 4966TIP3   OH236532   3.609   4.384   8.382  0.2110  0.0543 -0.0580
 4966TIP3    H136533   3.640   4.415   8.467  1.0290  0.8652 -0.6242
 4966TIP3    H236534   3.565   4.460   8.344  3.6894  1.2478 -2.1689
 4967TIP3   OH236535   5.096   2.911   8.584  0.0276 -0.0402 -0.4568
 4967TIP3    H136536   5.127   2.836   8.532  0.7759 -0.1209  0.1004
 4967TIP3    H236537   5.167   2.975   8.579 -0.2160  0.2580 -0.1553
 4968TIP3   OH236538   5.065   2.793   0.819 -0.3236 -0.0424  1.1161
 4968TIP3    H136539   5.126   2.796   0.893  0.4469  0.3891  0.4668
 4968TIP3    H236540   5.084   2.872   0.768  2.1970 -2.4021 -1.9357
 4969TIP3   OH236541   1.684   4.191   0.782 -0.5633  0.1191 -0.3092
 4969TIP3    H136542   1.739   4.162   0.709 -0.9452 -1.4315 -0.0201
 4969TIP3    H236543   1.744   4.204   0.855 -0.3244  0.5569 -0.5808
 4970TIP3   OH236544   5.469   3.466   0.766 -0.4512 -0.5589 -0.0846
 4970TIP3    H136545   5.398   3.530   0.776 -0.6557 -0.8738  0.5563
 4970TIP3    H236546   5.505   3.483   0.679  0.8074  1.7693  0.7960
 4971TIP3   OH236547   6.318   2.710   8.233 -0.0595  0.4446 -0.2503
 4971TIP3    H136548   6.237   2.700   8.184 -1.5631  1.1865  1.9075
 4971TIP3    H236549   6.359   2.624   8.231 -0.2782  0.3433 -2.3363
 4972TIP3   OH236550   3.108   2.717   7.344  0.4918  0.4527  0.4540
 4972TIP3    H136551   3.142   2.786   7.287  0.7111  0.1506  0.2137
 4972TIP3    H236552   3.099   2.641   7.287 -3.1348  1.1819 -0.1331
 4973TIP3   OH236553   1.973   0.128   1.908  0.1128 -0.0480  0.6328
 4973TIP3    H136554   1.888   0.171   1.911  0.0450 -0.1601  0.3321
 4973TIP3    H236555   1.953   0.034   1.910  0.1185 -0.1363 -1.3974
 4974TIP3   OH236556   1.560   2.166   1.684 -0.8318 -0.1330  0.0211
 4974TIP3    H136557   1.507   2.237   1.646  0.7406  0.8927 -0.3760
 4974TIP3    H236558   1.535   2.164   1.776 -0.6982  1.1522  0.1022
 4975TIP3   OH236559   5.600   6.887   8.185 -0.3028  0.8335  0.4228
 4975TIP3    H136560   5.549   6.957   8.146  0.3538  0.6779 -0.7498
 4975TIP3    H236561   5.610   6.822   8.116  0.6457  0.4174  0.9221
 4976TIP3   OH236562   4.722   5.400   8.108  0.9234  0.1684  0.1399
 4976TIP3    H136563   4.633   5.365   8.104  0.1379  2.0074  0.5061
 4976TIP3    H236564   4.766   5.345   8.172 -0.3531  0.0305  0.9344
 4977TIP3   OH236565   1.412   1.565   8.291  0.8216  0.2283 -0.3701
 4977TIP3    H136566   1.368   1.628   8.235  0.8374 -1.3962 -2.3328
 4977TIP3    H236567   1.504   1.568   8.262  0.6894 -1.1640 -0.9880
 4978TIP3   OH236568   1.321   4.873   1.514  0.4421 -0.2435 -0.0395
 4978TIP3    H136569   1.398   4.858   1.569  1.0667  1.4049 -0.4363
 4978TIP3    H236570   1.252   4.898   1.576  1.1171  1.5069  0.0447
 4979TIP3   OH236571   2.458   3.760   8.254 -0.0888 -0.0978 -0.1333
 4979TIP3    H136572   2.496   3.677   8.225 -1.2868 -0.5244 -0.5627
 4979TIP3    H236573   2.493   3.773   8.342  3.1480  0.9123 -1.4331
 4980TIP3   OH236574   5.134   4.868   1.149  0.4272 -0.4316  0.5075
 4980TIP3    H136575   5.144   4.900   1.059  0.0053 -2.5381 -0.3571
 4980TIP3    H236576   5.201   4.915   1.199 -0.3605  1.9747 -0.5213
 4981TIP3   OH236577   3.118   0.088   1.477 -0.0334 -0.4440  0.2638
 4981TIP3    H136578   3.061   0.157   1.444  0.4949  0.2724  0.8212
 4981TIP3    H236579   3.205   0.127   1.480  0.6504 -1.7355 -1.2455
 4982TIP3   OH236580   2.055   2.357   0.456  0.2583 -0.1382  0.4315
 4982TIP3    H136581   2.124   2.292   0.442 -0.7196 -1.5585  1.8340
 4982TIP3    H236582   2.010   2.328   0.536 -2.2515  0.4455 -0.6464
 4983TIP3   OH236583   3.056   0.791   2.290 -0.0449 -0.1936  0.0216
 4983TIP3    H136584   3.142   0.752   2.274 -0.3294 -0.6084 -0.5710
 4983TIP3    H236585   3.049   0.799   2.385  1.1049  0.9027  0.0409
 4984TIP3   OH236586   2.245   0.743   0.674 -0.0522  0.3279 -0.4808
 4984TIP3    H136587   2.337   0.732   0.699  0.6078  1.8033 -2.0291
 4984TIP3    H236588   2.223   0.832   0.702 -0.7760  0.2468 -0.7708
 4985TIP3   OH236589   3.576   4.694   0.835 -0.3759 -0.4373 -0.3424
 4985TIP3    H136590   3.548   4.728   0.920 -1.2301 -2.5856  0.3215
 4985TIP3    H236591   3.494   4.682   0.786  0.0132 -0.2435 -1.0560
 4986TIP3   OH236592   1.455   1.400   1.027  0.6261  0.1524 -0.1882
 4986TIP3    H136593   1.472   1.372   0.937  2.0873  0.5088 -0.0609
 4986TIP3    H236594   1.362   1.386   1.040  0.3361  0.3636 -1.8502
 4987TIP3   OH236595   2.046   3.177   2.606 -0.7230 -0.4689 -0.5305
 4987TIP3    H136596   2.066   3.240   2.676  3.1674 -1.3419 -0.6481
 4987TIP3    H236597   2.069   3.092   2.644 -0.6235 -1.1955 -2.1591
 4988TIP3   OH236598   1.076   4.939   7.210 -0.4084  0.6270  0.1742
 4988TIP3    H136599   1.025   4.905   7.135  1.4501 -0.9416 -0.4543
 4988TIP3    H236600   1.059   4.875   7.280  0.5539  0.1715  0.0007
 4989TIP3   OH236601   4.437   5.480   8.411 -0.0068 -0.1850  0.4087
 4989TIP3    H136602   4.511   5.511   8.463  0.8104  1.5951 -1.6797
 4989TIP3    H236603   4.360   5.502   8.463  0.8351 -0.1649  1.6823
 4990TIP3   OH236604   1.294   6.484   2.693  0.2769  0.3745 -0.2460
 4990TIP3    H136605   1.266   6.400   2.655  1.9233 -0.7438  0.8809
 4990TIP3    H236606   1.217   6.516   2.739 -0.1859 -0.9060 -0.0762
 4991TIP3   OH236607   2.559   0.515   1.893 -0.7604  0.3307 -0.3651
 4991TIP3    H136608   2.509   0.512   1.975 -1.1368  1.1696 -0.5495
 4991TIP3    H236609   2.512   0.455   1.835 -1.1715  0.6063 -0.3250
 4992TIP3   OH236610   1.602   4.691   0.860  0.3557  0.4457 -0.3168
 4992TIP3    H136611   1.676   4.654   0.811 -0.1054  1.4819 -1.8767
 4992TIP3    H236612   1.641   4.755   0.919  0.7900  0.2815 -0.4248
 4993TIP3   OH236613   6.471   2.061   2.921 -0.1968  0.0745  0.6213
 4993TIP3    H136614   6.469   2.090   2.830  0.3013 -1.0078  0.2425
 4993TIP3    H236615   6.532   1.986   2.921 -2.7145 -2.1446  1.1774
 4994TIP3   OH236616   2.732   6.492   0.532  0.0325  0.2008 -0.0327
 4994TIP3    H136617   2.778   6.458   0.608 -1.8712 -0.5356  0.8653
 4994TIP3    H236618   2.733   6.587   0.544 -1.8589  0.0535  2.0241
 4995TIP3   OH236619   3.684   4.958   1.605 -0.1591  0.5008 -0.7320
 4995TIP3    H136620   3.740   4.946   1.682 -1.9652  2.8337  1.0905
 4995TIP3    H236621   3.744   4.966   1.532  1.7084 -0.2978  0.6436
 4996TIP3   OH236622   2.906   1.480   7.995  0.4381  0.2474  0.3863
 4996TIP3    H136623   2.814   1.492   8.019  0.1950 -1.7540  0.6110
 4996TIP3    H236624   2.952   1.475   8.078  0.2597 -1.9207  0.4164
 4997TIP3   OH236625   2.149   3.042   1.780  0.1147 -0.5989  0.1316
 4997TIP3    H136626   2.079   2.989   1.819 -1.6802  1.3313 -0.3004
 4997TIP3    H236627   2.118   3.059   1.691 -0.1823  2.4481  0.7310
 4998TIP3   OH236628   6.369   0.792   0.216  1.0112 -0.0821  0.7491
 4998TIP3    H136629   6.396   0.838   0.295 -0.4175  1.8349  0.2039
 4998TIP3    H236630   6.327   0.859   0.162  0.4339 -1.6823 -0.9164
 4999TIP3   OH236631   0.318   2.871   0.060 -0.3584 -0.4987  0.0538
 4999TIP3    H136632   0.246   2.905   0.008 -0.4159 -1.6959 -0.6902
 4999TIP3    H236633   0.282   2.792   0.102  0.0213 -0.1679  1.0408
 5000TIP3   OH236634   0.060   3.668   1.203 -0.8572 -0.4261 -0.1449
 5000TIP3    H136635   0.110   3.587   1.199 -0.0006  0.0974 -0.5188
 5000TIP3    H236636  -0.018   3.647   1.254 -0.1876 -1.2411  0.5743
 5001TIP3   OH236637   3.885   3.524   8.296  0.5311  0.1193  0.5205
 5001TIP3    H136638   3.845   3.452   8.246  1.0563  0.2450 -0.0925
 5001TIP3    H236639   3.886   3.597   8.235 -2.8878  1.6705  2.0621
 5002TIP3   OH236640   3.617   2.719   1.557  0.1220 -0.4994 -0.2864
 5002TIP3    H136641   3.621   2.814   1.568  0.6231 -0.5631  0.1439
 5002TIP3    H236642   3.541   2.704   1.501 -0.4290  0.1061  0.2830
 5003TIP3   OH236643   6.433   1.069   2.059 -0.6165  0.0405 -0.4036
 5003TIP3    H136644   6.381   1.067   1.979  1.8695  0.7608 -2.1651
 5003TIP3    H236645   6.381   1.022   2.123 -2.6561 -0.7002 -2.4747
 5004TIP3   OH236646   2.187   1.161   8.274 -0.1985 -0.2047  0.0366
 5004TIP3    H136647   2.283   1.161   8.281 -0.2641  0.9600  1.4486
 5004TIP3    H236648   2.159   1.093   8.335 -0.3237  1.1073  1.4964
 5005TIP3   OH236649   2.745   5.791   7.752 -0.4371  0.3088 -0.1633
 5005TIP3    H136650   2.790   5.709   7.770  0.4678  0.1400 -2.8366
 5005TIP3    H236651   2.682   5.770   7.683 -0.3082  1.8054 -0.7797
 5006TIP3   OH236652   3.332   4.160   1.677 -0.1922  0.0394 -0.2587
 5006TIP3    H136653   3.373   4.154   1.590 -1.6690  0.1604 -0.9958
 5006TIP3    H236654   3.293   4.248   1.678  0.4711  0.3385  0.8523
 5007TIP3   OH236655   3.104   5.644   3.269  0.5121  0.2580  0.1536
 5007TIP3    H136656   3.042   5.580   3.305  0.0625  1.3984  1.5141
 5007TIP3    H236657   3.171   5.591   3.226 -1.2611 -1.0399 -1.1938
 5008TIP3   OH236658   4.771   0.558   2.889  0.4687  0.3916 -0.3990
 5008TIP3    H136659   4.759   0.647   2.920  2.2139  0.3973  0.3728
 5008TIP3    H236660   4.809   0.511   2.964 -1.2364 -1.2506 -0.4832
 5009TIP3   OH236661   5.085   3.673   1.802 -0.2379  0.1550  0.0454
 5009TIP3    H136662   5.060   3.597   1.855 -0.7597  0.2875 -0.0039
 5009TIP3    H236663   5.150   3.719   1.855  0.0857 -0.3319  0.0717
 5010TIP3   OH236664   5.130   5.780   2.490 -0.0313  0.1223  0.2345
 5010TIP3    H136665   5.043   5.743   2.474  0.5064 -0.6422 -1.0708
 5010TIP3    H236666   5.186   5.741   2.422  1.2782  0.7980  0.8854
 5011TIP3   OH236667   5.710   5.489   0.443  0.6965  0.1823  0.2064
 5011TIP3    H136668   5.625   5.479   0.399  0.9573  0.5168 -0.3816
 5011TIP3    H236669   5.688   5.487   0.536  0.0421  0.2424  0.0637
 5012TIP3   OH236670   3.645   2.824   1.913 -0.4225  0.2343 -0.6566
 5012TIP3    H136671   3.561   2.808   1.870  0.2970 -1.5479 -1.5097
 5012TIP3    H236672   3.660   2.745   1.966  0.8167  0.4147 -0.7086
 5013TIP3   OH236673   3.014   2.226   2.703 -0.2094  0.0026 -0.1660
 5013TIP3    H136674   2.952   2.295   2.726  0.1789 -0.2210  1.7144
 5013TIP3    H236675   3.100   2.268   2.707 -0.0572 -0.2873 -0.3010
 5014TIP3   OH236676   3.712   0.968   1.799 -0.5199  0.3418 -0.3618
 5014TIP3    H136677   3.753   1.013   1.872  1.7509 -0.4112 -1.0999
 5014TIP3    H236678   3.736   0.876   1.810 -2.0190 -0.1408 -0.8555
 5015TIP3   OH236679   1.406   5.947   8.548  0.4930  0.0155  0.6519
 5015TIP3    H136680   1.331   5.892   8.525  0.5197 -0.0640  0.7557
 5015TIP3    H236681   1.432   5.917   8.635 -0.6371  1.4112  1.5249
 5016TIP3   OH236682   5.412   6.296   2.643  0.4086  0.1154  0.8050
 5016TIP3    H136683   5.481   6.315   2.580  0.0774 -2.0088 -0.2709
 5016TIP3    H236684   5.338   6.351   2.615  0.6083 -0.0237 -0.0203
 5017TIP3   OH236685   4.040   0.783   0.169 -0.8182 -0.2570  0.1495
 5017TIP3    H136686   3.952   0.800   0.202 -1.0170  0.7399 -0.8160
 5017TIP3    H236687   4.028   0.715   0.102 -0.7960 -0.3454  0.2337
 5018TIP3   OH236688   0.343   4.816   7.900  0.6461  0.6066 -0.0170
 5018TIP3    H136689   0.324   4.762   7.823  0.2576  1.7956 -0.7793
 5018TIP3    H236690   0.314   4.904   7.876 -2.7792  0.4576  2.6745
 5019TIP3   OH236691   1.663   1.255   8.416 -0.1283 -0.1758  0.0879
 5019TIP3    H136692   1.658   1.219   8.327 -4.1841 -2.1710  0.8877
 5019TIP3    H236693   1.580   1.301   8.428  0.1610 -0.2373  2.9326
 5020TIP3   OH236694   1.896   1.720   2.761 -0.0007 -1.1242  0.2315
 5020TIP3    H136695   1.947   1.765   2.829 -2.5069  2.2136  0.1929
 5020TIP3    H236696   1.816   1.692   2.806 -0.6292 -1.0856 -0.8280
 5021TIP3   OH236697   0.395   4.988   0.095 -0.2260  0.0287  0.1911
 5021TIP3    H136698   0.388   4.987   0.191 -0.1553  0.4320  0.2042
 5021TIP3    H236699   0.397   4.896   0.070  0.1590 -0.0775  0.6075
 5022TIP3   OH236700   4.479   2.783   2.464 -0.1387 -0.3020 -0.0248
 5022TIP3    H136701   4.511   2.868   2.496 -0.3055  0.4896 -1.8190
 5022TIP3    H236702   4.392   2.775   2.503 -0.0218  0.2305  0.3691
 5023TIP3   OH236703   0.606   1.208   1.735 -0.3778 -0.5867 -0.7935
 5023TIP3    H136704   0.613   1.216   1.639 -0.1496  0.0513 -0.7312
 5023TIP3    H236705   0.571   1.293   1.763  2.3408  0.4018 -0.0402
 5024TIP3   OH236706   1.880   6.592   7.589 -0.4120 -0.4090  0.1440
 5024TIP3    H136707   1.801   6.539   7.577 -2.1513  2.2089 -0.8192
 5024TIP3    H236708   1.919   6.596   7.502  0.0195 -0.5530  0.3312
 5025TIP3   OH236709   2.133   1.857   8.472  0.1638  0.4665  0.6084
 5025TIP3    H136710   2.146   1.918   8.544  0.8134  0.1985  0.7259
 5025TIP3    H236711   2.060   1.894   8.422  3.2907  3.9214 -1.9690
 5026TIP3   OH236712   5.149   4.297   0.802  0.2784 -0.5298  0.0661
 5026TIP3    H136713   5.161   4.392   0.797 -1.3087 -0.0653  2.8364
 5026TIP3    H236714   5.236   4.263   0.826  0.6122  0.3579  0.1528
 5027TIP3   OH236715   2.819   1.480   7.696  0.1990 -0.2382  0.2345
 5027TIP3    H136716   2.770   1.398   7.710  0.4312 -0.4877 -0.3679
 5027TIP3    H236717   2.849   1.505   7.783  1.0068 -1.3636  0.3064
 5028TIP3   OH236718   6.058   0.943   1.139 -0.6139  0.1470 -0.2121
 5028TIP3    H136719   6.014   1.018   1.180  0.1465  0.6778 -0.3492
 5028TIP3    H236720   6.139   0.980   1.103  0.3791 -0.9878  0.8151
 5029TIP3   OH236721   5.434   5.723   1.556 -0.0230  0.3963  0.3614
 5029TIP3    H136722   5.374   5.774   1.501  1.9643  0.7137 -1.6461
 5029TIP3    H236723   5.469   5.655   1.497  1.7174  0.3482  1.3924
 5030TIP3   OH236724   6.806   1.556   2.374  0.1045  0.3720 -0.2547
 5030TIP3    H136725   6.855   1.474   2.365  1.3400  0.9580  0.8376
 5030TIP3    H236726   6.721   1.538   2.333 -0.4613 -2.1467  1.7847
 5031TIP3   OH236727   4.226   2.633   8.492  0.4840 -0.1678  0.2417
 5031TIP3    H136728   4.251   2.651   8.401  1.3690 -0.3669  0.4361
 5031TIP3    H236729   4.186   2.714   8.522  0.4971  0.0192 -0.2238
 5032TIP3   OH236730   1.089   6.347   8.091  0.1112  0.0240 -0.3668
 5032TIP3    H136731   1.032   6.361   8.016  0.7972 -1.9833 -1.3457
 5032TIP3    H236732   1.178   6.356   8.055  0.4679  1.8838  0.8602
 5033TIP3   OH236733   3.563   2.393   1.877 -0.0612  0.4935  0.0012
 5033TIP3    H136734   3.616   2.454   1.825  2.0500 -0.7147  0.6196
 5033TIP3    H236735   3.625   2.354   1.938 -1.7500 -0.8563  0.9230
 5034TIP3   OH236736   4.201   5.242   2.420  0.3259  0.5479 -0.3175
 5034TIP3    H136737   4.288   5.204   2.412  0.9715  1.9016 -0.0964
 5034TIP3    H236738   4.186   5.289   2.338 -0.4527 -0.1643 -0.5952
 5035TIP3   OH236739   4.508   0.085   1.129  0.2995 -0.1454  0.2725
 5035TIP3    H136740   4.433   0.130   1.167  0.7796  0.9167  0.0154
 5035TIP3    H236741   4.470   0.010   1.084 -0.4391 -0.4749  1.4096
 5036TIP3   OH236742   2.816   0.185   0.152  0.5461 -0.5893  0.2397
 5036TIP3    H136743   2.779   0.227   0.230  0.3993  1.8440 -1.0431
 5036TIP3    H236744   2.905   0.161   0.178  0.1685 -0.7693  1.4495
 5037TIP3   OH236745   4.122   4.979   8.397 -0.2821 -0.5651  0.5892
 5037TIP3    H136746   4.146   4.937   8.480 -0.1610 -0.6792  0.4948
 5037TIP3    H236747   4.204   4.987   8.349 -0.4573 -1.1301  0.1888
 5038TIP3   OH236748   6.045   1.136   3.277  0.4257  0.5026 -0.2356
 5038TIP3    H136749   6.079   1.210   3.226 -1.6174  0.9356 -1.0556
 5038TIP3    H236750   5.976   1.174   3.330 -0.5091 -0.7757 -0.5012
 5039TIP3   OH236751   1.174   1.889   0.508 -0.6041 -0.1987 -0.0910
 5039TIP3    H136752   1.145   1.979   0.494 -3.4485 -1.1777 -1.4280
 5039TIP3    H236753   1.219   1.866   0.427  1.2438  0.3477  0.7420
 5040TIP3   OH236754   5.017   5.374   0.068 -0.4625  0.5690  0.0904
 5040TIP3    H136755   4.993   5.455   0.114 -0.4524  0.9682 -0.5941
 5040TIP3    H236756   5.113   5.370   0.077 -0.6206 -0.3638  1.7330
 5041TIP3   OH236757   3.026   0.743   3.648  0.1262  0.6340  0.3509
 5041TIP3    H136758   3.015   0.649   3.634  1.1189  0.5135  0.3211
 5041TIP3    H236759   2.937   0.778   3.640 -0.4975 -0.4811  1.9460
 5042TIP3   OH236760   2.876   3.633   2.312  0.0393  0.4505 -0.8592
 5042TIP3    H136761   2.951   3.661   2.258 -0.3067  0.2024 -1.4791
 5042TIP3    H236762   2.813   3.600   2.249  0.4444 -1.8144 -0.1731
 5043TIP3   OH236763   6.828   6.177   7.350 -0.1982  0.1457  0.0935
 5043TIP3    H136764   6.838   6.084   7.367 -2.0013 -0.0471  0.2529
 5043TIP3    H236765   6.803   6.182   7.257 -1.2746  0.3687  0.3881
 5044TIP3   OH236766   1.528   3.070   0.204  0.3164 -0.4994  0.3688
 5044TIP3    H136767   1.613   3.107   0.229 -0.3273 -0.5702  2.9092
 5044TIP3    H236768   1.482   3.143   0.162  0.7569  0.2518  1.1544
 5045TIP3   OH236769   2.218   3.567   1.684  0.4461 -0.4156  0.1254
 5045TIP3    H136770   2.264   3.486   1.708 -0.8375 -1.5399 -1.0087
 5045TIP3    H236771   2.176   3.546   1.600 -0.7717  1.0930  0.3255
 5046TIP3   OH236772   0.706   5.052   8.456  0.1197 -0.2733 -0.0138
 5046TIP3    H136773   0.735   5.000   8.530  3.1856  0.3738 -0.6359
 5046TIP3    H236774   0.666   5.130   8.495 -1.1805 -1.3527  0.8974
 5047TIP3   OH236775   6.141   3.071   2.564  0.4349  0.3716  1.0008
 5047TIP3    H136776   6.146   3.128   2.487  3.9080 -0.4096  0.5022
 5047TIP3    H236777   6.172   3.125   2.636  0.9117 -0.0374  1.1041
 5048TIP3   OH236778   2.737   5.325   0.682 -0.1291 -0.5657  0.0265
 5048TIP3    H136779   2.719   5.355   0.771 -0.5857 -0.7774  0.0062
 5048TIP3    H236780   2.657   5.280   0.655  0.0540 -0.6117 -0.4456
 5049TIP3   OH236781   4.461   2.513   8.269 -0.5254 -0.6915 -0.0231
 5049TIP3    H136782   4.451   2.473   8.355 -0.1788 -0.8149 -0.0387
 5049TIP3    H236783   4.419   2.598   8.277  1.1231  0.0837  0.8234
 5050TIP3   OH236784   3.526   0.186   2.205  0.1765 -0.4253  0.5579
 5050TIP3    H136785   3.614   0.222   2.196  0.3439 -0.5499  1.6435
 5050TIP3    H236786   3.533   0.119   2.272 -0.7520 -0.4334  0.6697
 5051TIP3   OH236787   6.802   0.409   2.850 -0.5982 -0.1584 -0.0729
 5051TIP3    H136788   6.861   0.383   2.921 -0.5661 -1.9536 -0.6878
 5051TIP3    H236789   6.853   0.471   2.798 -0.4436  0.7869  1.1556
 5052TIP3   OH236790   5.242   6.495   2.710  0.2562  0.2728 -0.1731
 5052TIP3    H136791   5.203   6.556   2.648 -2.7161 -1.5411 -0.2618
 5052TIP3    H236792   5.281   6.552   2.777 -0.7204  2.2504 -1.1854
 5053TIP3   OH236793   5.155   6.830   1.674  0.7150 -0.5150  0.3616
 5053TIP3    H136794   5.207   6.800   1.600 -0.1139  0.1706 -0.5200
 5053TIP3    H236795   5.064   6.812   1.648  0.1753  2.4104 -0.1103
 5054TIP3   OH236796   3.627   3.838   7.633 -0.2553  0.1828 -0.1207
 5054TIP3    H136797   3.553   3.784   7.608  1.2114 -1.2319 -1.7168
 5054TIP3    H236798   3.640   3.897   7.558  0.4403  0.1596 -0.0287
 5055TIP3   OH236799   5.798   6.218   2.825 -0.2522  0.6693 -0.0334
 5055TIP3    H136800   5.711   6.247   2.852 -0.6411 -0.5561  0.0884
 5055TIP3    H236801   5.858   6.257   2.889 -0.7718  1.0005  0.2524
 5056TIP3   OH236802   6.043   6.441   0.411  0.2306  0.4517  0.1629
 5056TIP3    H136803   5.998   6.524   0.397  1.3484  1.4863  2.3025
 5056TIP3    H236804   6.042   6.428   0.506  2.4298 -0.6242  0.1045
 5057TIP3   OH236805   6.865   5.881   7.200  0.1160 -0.0291  0.7215
 5057TIP3    H136806   6.955   5.847   7.206  0.1867  0.4071  3.4016
 5057TIP3    H236807   6.849   5.922   7.285 -2.4052  0.5440  0.0614
 5058TIP3   OH236808   2.726   0.534   2.490  0.3794  0.1131  0.1643
 5058TIP3    H136809   2.784   0.464   2.459  1.8814  1.1116  0.6289
 5058TIP3    H236810   2.717   0.593   2.415  0.6932  0.4139  0.3597
 5059TIP3   OH236811   4.576   5.632   0.687 -0.1070 -0.7453  0.0277
 5059TIP3    H136812   4.577   5.670   0.775  0.0886  0.2310 -0.3829
 5059TIP3    H236813   4.667   5.608   0.670  0.1110  0.3599 -0.4395
 5060TIP3   OH236814   3.570   5.939   1.461  0.2157  0.7678  0.2496
 5060TIP3    H136815   3.548   5.854   1.500  1.8289  0.1422 -0.1501
 5060TIP3    H236816   3.542   5.931   1.370  1.1594  0.3331 -0.0097
 5061TIP3   OH236817   4.230   6.257   2.096  0.5386  0.0046 -0.8132
 5061TIP3    H136818   4.252   6.193   2.164 -1.0182  0.2387 -0.0285
 5061TIP3    H236819   4.312   6.273   2.050  1.1602 -1.8384 -0.4264
 5062TIP3   OH236820   4.421   3.954   8.044 -0.2354 -0.5892 -0.6922
 5062TIP3    H136821   4.375   3.870   8.045 -0.1904 -0.6184  0.6746
 5062TIP3    H236822   4.500   3.939   8.096 -0.2817  0.3348 -0.3343
 5063TIP3   OH236823   4.901   0.550   0.922 -0.1309  0.0024 -0.7379
 5063TIP3    H136824   4.954   0.582   0.995 -0.3104  0.5808 -0.8482
 5063TIP3    H236825   4.880   0.629   0.872  1.4511 -0.5712 -2.4006
 5064TIP3   OH236826   0.045   3.183   0.342 -0.1575 -0.5908 -0.2898
 5064TIP3    H136827   0.115   3.118   0.338  1.4884  1.1405 -1.4929
 5064TIP3    H236828   0.015   3.191   0.252 -1.6534 -0.9676  0.1392
 5065TIP3   OH236829   3.841   1.460   1.733  0.1905 -0.6674 -0.2595
 5065TIP3    H136830   3.762   1.513   1.724  0.8461  0.3234 -0.2546
 5065TIP3    H236831   3.859   1.460   1.827  1.8751  1.6476 -0.5134
 5066TIP3   OH236832   1.986   5.411   1.436  0.2763  0.3678 -0.0332
 5066TIP3    H136833   2.069   5.439   1.398  0.1545  0.1809 -0.4395
 5066TIP3    H236834   1.944   5.492   1.465 -0.6604  0.7656 -2.3641
 5067TIP3   OH236835   5.206   3.666   8.604 -0.3127 -0.4577 -0.6626
 5067TIP3    H136836   5.154   3.655   8.683  0.5815  1.1602  0.2184
 5067TIP3    H236837   5.166   3.741   8.559  0.1564 -0.3467 -0.9047
 5068TIP3   OH236838   4.897   4.354   7.236  0.3136  0.0124  0.5244
 5068TIP3    H136839   4.857   4.383   7.318 -1.0694  0.5913 -0.3164
 5068TIP3    H236840   4.917   4.434   7.189 -0.6722 -0.3134 -0.5009
 5069TIP3   OH236841   1.727   6.491   1.830  0.1077  0.6884 -0.4181
 5069TIP3    H136842   1.754   6.520   1.743 -0.4148 -0.2074 -0.8978
 5069TIP3    H236843   1.808   6.483   1.879  0.3109  2.4035 -0.4261
 5070TIP3   OH236844   4.656   4.844   8.289  0.3237 -0.0729  0.5798
 5070TIP3    H136845   4.710   4.809   8.359  1.3690 -0.8472 -0.5725
 5070TIP3    H236846   4.698   4.813   8.208 -1.5899 -0.3469 -0.3671
 5071TIP3   OH236847   2.391   1.306   7.191 -0.2018 -0.4095  0.6222
 5071TIP3    H136848   2.365   1.235   7.249  0.9526  0.0522  1.7640
 5071TIP3    H236849   2.453   1.266   7.130 -1.8210 -1.0136 -0.6743
 5072TIP3   OH236850   2.563   3.113   7.812  0.4202  0.1909  0.0695
 5072TIP3    H136851   2.575   3.206   7.794  1.5925  0.1293  0.4824
 5072TIP3    H236852   2.633   3.070   7.763  0.0527 -0.4568  0.1034
 5073TIP3   OH236853   4.223   5.198   7.944 -0.1065 -0.3644  0.1444
 5073TIP3    H136854   4.161   5.253   7.897  0.8285  0.0220 -0.6534
 5073TIP3    H236855   4.169   5.130   7.984 -1.2607  1.0129  1.0009
 5074TIP3   OH236856   0.289   4.883   1.524  0.4149 -0.1430 -0.2227
 5074TIP3    H136857   0.242   4.870   1.442  0.1930 -0.5672 -0.0287
 5074TIP3    H236858   0.324   4.972   1.517 -1.8931  0.9019  0.3617
 5075TIP3   OH236859   1.133   6.502   1.322 -0.2774 -0.4878  0.3844
 5075TIP3    H136860   1.128   6.407   1.316  0.0179 -0.5759  1.3209
 5075TIP3    H236861   1.044   6.532   1.303 -0.0569 -0.8379 -1.3646
 5076TIP3   OH236862   0.442   5.034   2.334 -0.3151 -0.0023 -0.4987
 5076TIP3    H136863   0.443   4.946   2.297  2.6441 -0.4720  0.4310
 5076TIP3    H236864   0.443   5.093   2.259  0.6487 -0.8381 -1.1586
 5077TIP3   OH236865   3.325   3.139   0.823  0.6330  0.0865 -1.1046
 5077TIP3    H136866   3.329   3.062   0.879 -3.2691  0.7695  0.4180
 5077TIP3    H236867   3.381   3.203   0.867  0.8738 -0.6821 -0.2628
 5078TIP3   OH236868   4.816   0.355   1.737  0.3315 -0.2892  0.2093
 5078TIP3    H136869   4.815   0.260   1.754  0.5039 -0.1273  1.1923
 5078TIP3    H236870   4.723   0.379   1.733  0.2856 -0.5269 -0.2583
 5079TIP3   OH236871   6.123   6.897   1.341 -0.1188  0.8103 -0.2826
 5079TIP3    H136872   6.094   6.956   1.411 -0.2156 -0.2884  0.6264
 5079TIP3    H236873   6.189   6.842   1.382  0.6261  0.8635 -1.3694
 5080TIP3   OH236874   3.457   2.401   8.433 -0.0461  0.1221  0.2687
 5080TIP3    H136875   3.544   2.419   8.469  0.4029 -0.7670 -0.3385
 5080TIP3    H236876   3.435   2.313   8.463 -0.3032 -0.0480 -0.3858
 5081TIP3   OH236877   5.304   5.731   2.308 -0.6058 -0.6908 -0.2580
 5081TIP3    H136878   5.273   5.742   2.218 -0.2753 -0.0982 -0.3076
 5081TIP3    H236879   5.366   5.658   2.303  1.3358  0.9181 -1.0271
 5082TIP3   OH236880   1.186   0.460   8.601  0.1163 -0.2688 -0.1130
 5082TIP3    H136881   1.127   0.522   8.557 -0.6338  0.1646  1.4624
 5082TIP3    H236882   1.147   0.374   8.584 -0.5507 -0.0479  0.2645
 5083TIP3   OH236883   6.214   5.221   7.380  0.0770  0.1680  0.1146
 5083TIP3    H136884   6.192   5.314   7.378 -0.4690  0.0398 -0.7949
 5083TIP3    H236885   6.308   5.218   7.362 -0.0616  0.5238 -0.7507
 5084TIP3   OH236886   3.205   2.472   2.998 -0.4123  0.1350  0.0305
 5084TIP3    H136887   3.136   2.464   3.064  1.1539 -1.7692  1.5641
 5084TIP3    H236888   3.274   2.524   3.041 -0.7936  1.9744 -1.4612
 5085TIP3   OH236889   4.617   1.154   2.673 -0.3380 -0.8762  0.4419
 5085TIP3    H136890   4.657   1.233   2.637 -0.3506 -1.4836 -1.0047
 5085TIP3    H236891   4.644   1.152   2.765  2.4693 -0.9392 -0.2921
 5086TIP3   OH236892   4.326   0.640   0.240  0.5339 -0.1991 -0.6314
 5086TIP3    H136893   4.343   0.696   0.164 -0.2734 -0.1511 -0.7808
 5086TIP3    H236894   4.243   0.597   0.221  1.5127 -2.0847 -0.8798
 5087TIP3   OH236895   6.607   5.704   2.985 -0.7529  0.1220  0.2303
 5087TIP3    H136896   6.614   5.663   2.899  1.2972 -0.3331  0.5679
 5087TIP3    H236897   6.596   5.631   3.045  0.9156  0.1776  0.6362
 5088TIP3   OH236898   1.720   1.825   1.274 -0.1845 -0.2491  1.0246
 5088TIP3    H136899   1.686   1.770   1.345 -0.3730 -0.0314  1.1063
 5088TIP3    H236900   1.699   1.777   1.194 -0.6255 -0.1470  1.0795
 5089TIP3   OH236901   4.224   1.135   1.711 -0.1017 -0.0772 -0.3352
 5089TIP3    H136902   4.132   1.149   1.729 -0.1823 -0.9745 -0.0068
 5089TIP3    H236903   4.267   1.217   1.738 -0.5192 -0.4620  1.6554
 5090TIP3   OH236904   5.961   4.087   2.434  0.2486 -0.5278 -0.2692
 5090TIP3    H136905   5.999   4.125   2.514  0.7399 -0.3266 -0.5964
 5090TIP3    H236906   6.035   4.046   2.389 -0.2796 -1.9246  0.0931
 5091TIP3   OH236907   1.817   3.631   2.959 -0.5303  0.3955 -0.5935
 5091TIP3    H136908   1.753   3.698   2.986  0.6259  1.8031 -1.2167
 5091TIP3    H236909   1.898   3.679   2.946  0.9161 -1.4583  0.9129
 5092TIP3   OH236910   2.196   0.922   2.787  0.1805 -0.0617  0.1788
 5092TIP3    H136911   2.121   0.883   2.833 -0.0736 -0.4821 -0.5855
 5092TIP3    H236912   2.194   1.014   2.812 -3.1190  0.9573 -2.9901
 5093TIP3   OH236913   3.041   3.981   2.286 -0.8228  0.4984  0.2211
 5093TIP3    H136914   3.077   4.031   2.358  0.4299  0.1453 -0.1277
 5093TIP3    H236915   3.076   4.024   2.207 -1.2940  0.2362 -0.1352
 5094TIP3   OH236916   1.062   4.157   8.459 -0.2682  0.5070 -0.7062
 5094TIP3    H136917   1.040   4.197   8.544 -1.0237 -0.9167 -0.1965
 5094TIP3    H236918   1.157   4.145   8.463 -0.2860  0.5085 -0.0651
 5095TIP3   OH236919   3.282   5.106   0.424 -0.5095  0.0821  0.2052
 5095TIP3    H136920   3.357   5.165   0.431  0.0565 -0.4580 -0.9861
 5095TIP3    H236921   3.317   5.029   0.379 -1.8958  0.0624 -0.9059
 5096TIP3   OH236922   1.733   5.180   8.022  0.3307 -0.4287  0.3156
 5096TIP3    H136923   1.817   5.221   8.002  0.1892 -0.2186  0.1490
 5096TIP3    H236924   1.744   5.146   8.110  0.5246 -0.2263  0.3729
 5097TIP3   OH236925   0.024   0.813   0.232 -0.2720 -0.4607  0.3942
 5097TIP3    H136926   0.073   0.759   0.293  1.4385  0.7756  0.1829
 5097TIP3    H236927   0.070   0.804   0.149  1.3772  2.8254  0.7909
 5098TIP3   OH236928   0.867   2.422   2.906 -0.0002  0.1820  0.2636
 5098TIP3    H136929   0.891   2.399   2.996 -0.6608  0.9336  0.6425
 5098TIP3    H236930   0.871   2.339   2.858 -0.8251 -0.4429  1.2517
 5099TIP3   OH236931   0.409   6.755   8.133 -0.3389 -0.3125  0.5896
 5099TIP3    H136932   0.333   6.797   8.093 -0.9892 -0.0129  2.0390
 5099TIP3    H236933   0.411   6.667   8.095 -0.5815  0.1357 -0.4811
 5100TIP3   OH236934   0.969   1.714   1.032 -0.3095 -0.0686 -0.1181
 5100TIP3    H136935   0.903   1.756   1.087 -1.3493  0.6168 -1.8134
 5100TIP3    H236936   1.030   1.785   1.010 -0.4929 -0.0785 -0.6859
 5101TIP3   OH236937   3.020   5.760   8.496 -0.7207 -0.0492  0.8182
 5101TIP3    H136938   3.021   5.708   8.576  2.2184  0.1160  1.0061
 5101TIP3    H236939   2.973   5.706   8.433 -1.2411 -1.1193  2.0806
 5102TIP3   OH236940   6.384   1.582   0.055  0.2549  0.3313 -0.1263
 5102TIP3    H136941   6.448   1.653   0.057  0.6297 -0.0005  0.1117
 5102TIP3    H236942   6.435   1.505   0.081 -0.1523 -0.0135 -0.3421
 5103TIP3   OH236943   1.573   4.675   2.500 -0.0482 -0.2181  1.0302
 5103TIP3    H136944   1.538   4.673   2.589 -0.2212 -0.7860  0.9533
 5103TIP3    H236945   1.616   4.591   2.488  1.6199  0.5713  1.2100
 5104TIP3   OH236946   4.032   0.272   0.442  0.1016 -0.4145 -0.2610
 5104TIP3    H136947   4.067   0.184   0.425  0.4479 -0.0045 -1.8634
 5104TIP3    H236948   3.953   0.277   0.389  0.6869  0.6165 -1.0693
 5105TIP3   OH236949   6.657   0.420   1.334  0.1375 -0.4822 -0.1635
 5105TIP3    H136950   6.644   0.349   1.272  2.1159 -2.6629  1.7045
 5105TIP3    H236951   6.631   0.383   1.419  1.6471  0.8368  0.9356
 5106TIP3   OH236952   6.288   5.906   8.383  0.7235 -0.0242  0.9062
 5106TIP3    H136953   6.196   5.892   8.361  0.7140  1.6040 -0.3415
 5106TIP3    H236954   6.328   5.932   8.300  1.7945  1.5490  1.8614
 5107TIP3   OH236955   0.741   1.590   0.569  0.7384 -0.0704  0.3109
 5107TIP3    H136956   0.752   1.608   0.663  1.2480  0.7743  0.1002
 5107TIP3    H236957   0.786   1.507   0.555  0.8482 -0.0903  0.7717
 5108TIP3   OH236958   2.284   3.474   0.560  0.2586  0.3675  0.5963
 5108TIP3    H136959   2.316   3.423   0.635  0.0447  0.7103  0.9231
 5108TIP3    H236960   2.217   3.531   0.596 -0.1876  0.1966  0.0519
 5109TIP3   OH236961   2.402   3.298   7.548 -0.3838  0.2245  0.0545
 5109TIP3    H136962   2.374   3.280   7.638 -0.1891 -2.4254 -0.3522
 5109TIP3    H236963   2.491   3.333   7.557 -0.9837  1.6219  0.9382
 5110TIP3   OH236964   2.480   4.433   0.676  0.5684  0.2785  0.9143
 5110TIP3    H136965   2.428   4.489   0.619 -0.1822  1.8762  3.0223
 5110TIP3    H236966   2.452   4.344   0.655 -1.4188  0.9653  0.4511
 5111TIP3   OH236967   0.780   0.390   2.397  0.2796 -0.0094 -0.2851
 5111TIP3    H136968   0.832   0.439   2.461  0.3373 -0.4831  0.0351
 5111TIP3    H236969   0.779   0.446   2.319  0.3475  0.4958  0.0752
 5112TIP3   OH236970   2.513   5.634   2.267  0.3432  0.1441  0.2124
 5112TIP3    H136971   2.457   5.611   2.341 -0.9615  0.5715 -0.5884
 5112TIP3    H236972   2.494   5.567   2.201  0.5753  0.4465 -0.1655
 5113TIP3   OH236973   4.012   0.933   2.446 -0.2644 -0.0819  0.8708
 5113TIP3    H136974   4.079   0.927   2.514  0.3222  3.6271  0.8225
 5113TIP3    H236975   3.940   0.879   2.478  0.8392 -0.2015  3.3668
 5114TIP3   OH236976   1.104   5.563   1.385 -0.1939  0.0330  0.4555
 5114TIP3    H136977   1.077   5.522   1.467  2.3410  0.8629  1.8004
 5114TIP3    H236978   1.072   5.503   1.317 -3.0007 -0.3022  1.9431
 5115TIP3   OH236979   2.074   5.298   3.135 -0.2488 -0.1550 -1.0188
 5115TIP3    H136980   2.151   5.285   3.079 -0.9130  0.7399 -2.1905
 5115TIP3    H236981   2.105   5.279   3.223  1.6612  1.4693 -1.2731
 5116TIP3   OH236982   4.090   1.178   8.105  0.0770  0.0959  0.0129
 5116TIP3    H136983   4.155   1.127   8.058 -0.5165 -0.7416  0.0807
 5116TIP3    H236984   4.056   1.240   8.040  0.2303 -0.1294 -0.2845
 5117TIP3   OH236985   2.892   5.331   2.220 -0.0088 -0.3397  0.6537
 5117TIP3    H136986   2.944   5.386   2.278 -0.4461 -0.3253  1.0380
 5117TIP3    H236987   2.802   5.342   2.251 -0.5958  1.3735 -1.3252
 5118TIP3   OH236988   1.123   4.729   8.487  0.1772 -0.0344  0.1835
 5118TIP3    H136989   1.191   4.665   8.465 -1.4277 -2.5568  1.9243
 5118TIP3    H236990   1.099   4.707   8.578 -2.9643  0.6488 -0.3701
 5119TIP3   OH236991   1.060   1.785   2.519  0.1032 -0.6794  0.3677
 5119TIP3    H136992   1.047   1.819   2.607  0.4457  1.6355 -0.4220
 5119TIP3    H236993   1.146   1.818   2.492 -0.5967 -0.0996 -1.3404
 5120TIP3   OH236994   5.186   4.834   2.332  0.0279  0.2715 -0.0965
 5120TIP3    H136995   5.277   4.840   2.362 -0.2442  0.9438  0.5853
 5120TIP3    H236996   5.160   4.744   2.353  0.6447 -0.0551 -0.6507
 5121TIP3   OH236997   1.494   3.327   0.145  0.1927  0.2985  0.3084
 5121TIP3    H136998   1.443   3.373   0.211 -0.3805 -0.2996  0.2924
 5121TIP3    H236999   1.449   3.345   0.063  0.1190 -0.0644  0.2670
 5122TIP3   OH237000   3.395   2.290   1.423 -0.4942 -0.1777  0.3454
 5122TIP3    H137001   3.475   2.305   1.473 -0.4935 -3.2924  1.5360
 5122TIP3    H237002   3.425   2.254   1.339 -0.6217  0.0654  0.1930
 5123TIP3   OH237003   4.289   1.810   0.806  0.0624  0.0873  0.7248
 5123TIP3    H137004   4.309   1.901   0.827 -1.5850  0.8826 -0.8874
 5123TIP3    H237005   4.199   1.797   0.838 -0.0477 -0.6705  0.1444
 5124TIP3   OH237006   3.719   2.405   2.504 -0.1876 -0.0891  0.2070
 5124TIP3    H137007   3.744   2.497   2.495 -1.5188  0.3661  0.9411
 5124TIP3    H237008   3.629   2.408   2.537  0.1608 -1.6353  1.3907
 5125TIP3   OH237009   5.281   1.579   1.932  0.3156 -0.3975  0.3423
 5125TIP3    H137010   5.349   1.592   1.999  0.9033  2.3074 -0.6660
 5125TIP3    H237011   5.203   1.554   1.982  1.2218 -0.3829  1.8297
 5126TIP3   OH237012   1.503   3.458   8.099  0.0428  0.2444  0.3623
 5126TIP3    H137013   1.573   3.503   8.145 -0.5909  0.0798  1.5146
 5126TIP3    H237014   1.521   3.474   8.006  3.4136 -2.4117  0.3713
 5127TIP3   OH237015   5.970   6.284   8.651  0.1524 -0.5183  0.7667
 5127TIP3    H137016   5.897   6.344   8.668  0.3335 -0.0886  0.0746
 5127TIP3    H237017   5.968   6.272   8.556 -0.1453 -1.9446  0.9371
 5128TIP3   OH237018   2.714   1.854   7.648 -0.3144 -0.5887 -0.2226
 5128TIP3    H137019   2.753   1.791   7.587  0.1030  0.3258 -0.9245
 5128TIP3    H237020   2.690   1.929   7.593 -3.3218 -1.1724  0.1027
 5129TIP3   OH237021   2.039   0.819   1.553 -0.0660 -0.0620 -0.6168
 5129TIP3    H137022   2.013   0.839   1.643  0.5671 -0.1638 -0.4057
 5129TIP3    H237023   2.063   0.904   1.516 -0.7789  0.0459 -0.8431
 5130TIP3   OH237024   0.832   4.777   2.515  0.0482  0.5791  0.5716
 5130TIP3    H137025   0.927   4.780   2.512  0.0461  0.9660  0.8020
 5130TIP3    H237026   0.806   4.866   2.539 -0.2625 -0.0780  2.8851
 5131TIP3   OH237027   2.350   4.361   3.604  0.0125 -0.0455  0.0778
 5131TIP3    H137028   2.281   4.418   3.571 -0.3126 -0.2198  0.4501
 5131TIP3    H237029   2.395   4.414   3.669 -0.4882 -0.3149  0.6511
 5132TIP3   OH237030   3.361   1.298   0.508  0.1795 -0.2865 -0.1432
 5132TIP3    H137031   3.396   1.238   0.442 -2.3682 -1.8035 -0.2613
 5132TIP3    H237032   3.267   1.299   0.493 -0.1576  1.8858  1.4536
 5133TIP3   OH237033   2.761   4.937   0.934  0.3442 -0.7481  0.4127
 5133TIP3    H137034   2.823   4.987   0.881  0.9031 -2.5217 -0.6739
 5133TIP3    H237035   2.787   4.954   1.025  0.5052  0.8932  0.0809
 5134TIP3   OH237036   3.952   5.642   0.866 -0.2144 -0.0725  0.4216
 5134TIP3    H137037   3.934   5.550   0.845 -0.3026 -0.4115  1.8791
 5134TIP3    H237038   4.043   5.655   0.838 -0.3958 -0.4149 -0.3592
 5135TIP3   OH237039   0.416   0.269   8.329  0.3868  0.1221 -0.2041
 5135TIP3    H137040   0.397   0.361   8.347 -0.0746 -0.0668  0.3303
 5135TIP3    H237041   0.356   0.246   8.257 -0.2758 -0.0354  0.3816
 5136TIP3   OH237042   6.875   0.252   1.011  0.3797 -0.5141 -0.3397
 5136TIP3    H137043   6.785   0.235   1.038  0.8302 -0.4224  1.2846
 5136TIP3    H237044   6.866   0.303   0.930 -1.0269 -0.2816 -0.0612
 5137TIP3   OH237045   6.465   6.481   8.249  0.0797  0.6280 -0.3892
 5137TIP3    H137046   6.532   6.533   8.206 -0.1715  0.1702 -1.3806
 5137TIP3    H237047   6.447   6.527   8.331  1.9104  0.5211  0.1213
 5138TIP3   OH237048   1.602   4.646   1.711 -0.3193 -0.3213  0.1151
 5138TIP3    H137049   1.626   4.612   1.625 -1.2701  1.9496 -1.1100
 5138TIP3    H237050   1.512   4.616   1.725 -0.6019  0.3456 -0.2529
 5139TIP3   OH237051   0.845   0.975   0.960 -0.1210 -0.2410  0.1059
 5139TIP3    H137052   0.875   0.886   0.975  0.5685  0.0057  0.2166
 5139TIP3    H237053   0.784   0.992   1.032 -0.1418 -0.5715  0.1677
 5140TIP3   OH237054   6.276   1.945   0.616 -0.1112 -0.3172  0.6449
 5140TIP3    H137055   6.293   2.038   0.625 -1.2542 -0.1593  1.3776
 5140TIP3    H237056   6.273   1.911   0.705  0.6952 -1.1473  0.3778
 5141TIP3   OH237057   6.110   3.031   3.314 -0.0698 -0.1291 -0.2740
 5141TIP3    H137058   6.122   3.112   3.265  0.2007 -0.6240 -1.0399
 5141TIP3    H237059   6.146   2.963   3.258  0.8500 -0.6439  0.8953
 5142TIP3   OH237060   0.582   3.952   0.728  0.5032 -0.3715  0.5122
 5142TIP3    H137061   0.536   4.000   0.659  0.4095 -0.0510  0.7911
 5142TIP3    H237062   0.674   3.977   0.718  0.5524 -0.6651  0.2320
 5143TIP3   OH237063   2.766   3.496   1.768 -0.2013  0.4865  0.0857
 5143TIP3    H137064   2.773   3.493   1.673  2.2972  2.1242  0.1308
 5143TIP3    H237065   2.824   3.426   1.799  0.7046  1.3476  0.3846
 5144TIP3   OH237066   6.365   4.664   1.325  0.1995  0.3358  0.1894
 5144TIP3    H137067   6.378   4.642   1.417 -2.2993 -2.4158  0.0068
 5144TIP3    H237068   6.417   4.600   1.277 -0.6031  0.0420 -0.3110
 5145TIP3   OH237069   3.539   3.418   0.531  0.0424 -0.0620 -0.1970
 5145TIP3    H137070   3.548   3.381   0.619 -1.6743 -0.3049 -0.0856
 5145TIP3    H237071   3.476   3.489   0.542  0.6962  0.6723 -1.0372
 5146TIP3   OH237072   5.035   0.031   2.813  0.9190 -0.0178 -0.0623
 5146TIP3    H137073   4.998   0.108   2.856  1.1695  1.1046 -1.7594
 5146TIP3    H237074   5.102   0.066   2.755  0.5524 -1.4408 -1.3994
 5147TIP3   OH237075   5.894   5.408   8.072 -0.8115 -0.6277 -0.1167
 5147TIP3    H137076   5.803   5.381   8.065 -0.8452 -1.6420  2.9667
 5147TIP3    H237077   5.919   5.386   8.161  2.1667  0.5995 -0.5360
 5148TIP3   OH237078   2.789   6.831   7.928 -0.3267  0.4124  0.0790
 5148TIP3    H137079   2.770   6.854   7.838 -3.5725  1.6090  0.9337
 5148TIP3    H237080   2.788   6.736   7.929 -3.3278  0.3368 -0.7122
 5149TIP3   OH237081   6.220   0.114   2.257 -0.1375  0.4028 -0.2867
 5149TIP3    H137082   6.218   0.161   2.340  0.5123  0.1526 -0.1202
 5149TIP3    H237083   6.137   0.067   2.253 -0.1077  0.2932  0.2991
 5150TIP3   OH237084   6.402   0.663   7.837  0.5795  0.0726  0.0826
 5150TIP3    H137085   6.387   0.736   7.777  2.9634  0.1779 -0.5218
 5150TIP3    H237086   6.318   0.617   7.841 -1.4830  3.5802  1.6277
 5151TIP3   OH237087   4.749   2.843   1.117  0.3571 -0.4326 -0.2500
 5151TIP3    H137088   4.700   2.826   1.197  0.8586  0.3763  0.2337
 5151TIP3    H237089   4.710   2.923   1.082  1.4068  0.3023  0.2143
 5152TIP3   OH237090   6.166   6.621   7.506 -0.2202 -0.0963 -0.0810
 5152TIP3    H137091   6.120   6.639   7.424 -0.2490  1.1565  0.1888
 5152TIP3    H237092   6.199   6.532   7.496 -2.1444 -0.7991 -0.5401
 5153TIP3   OH237093   0.125   2.251   1.381 -0.0768 -0.3844  0.1102
 5153TIP3    H137094   0.143   2.175   1.327 -1.7080 -2.5309  2.3489
 5153TIP3    H237095   0.054   2.297   1.335  0.5602 -0.4701 -0.9908
 5154TIP3   OH237096   6.679   0.788   0.111  0.2752 -0.3068  0.2892
 5154TIP3    H137097   6.657   0.696   0.123  1.6894 -0.4226  2.5697
 5154TIP3    H237098   6.774   0.788   0.098  0.3028  0.8358  0.3804
 5155TIP3   OH237099   0.948   5.695   1.022  0.2282  0.4487  0.6522
 5155TIP3    H137100   0.975   5.688   0.930  2.2051  0.0537  1.2029
 5155TIP3    H237101   0.853   5.684   1.020  0.4403 -1.8420 -1.1185
 5156TIP3   OH237102   0.284   0.935   2.352 -0.5534  0.4529  0.4093
 5156TIP3    H137103   0.319   0.897   2.432 -3.5438 -1.1850  1.0959
 5156TIP3    H237104   0.297   0.868   2.286  0.0733  0.9783 -0.0163
 5157TIP3   OH237105   5.698   0.016   1.370  0.3413 -0.1959 -0.5292
 5157TIP3    H137106   5.625  -0.046   1.366  0.8265 -0.7491 -1.1044
 5157TIP3    H237107   5.770  -0.035   1.409  0.0143  0.7765  1.4504
 5158TIP3   OH237108   5.975   5.692   8.141 -0.6443  0.2951  0.2865
 5158TIP3    H137109   5.939   5.763   8.089 -1.5032  0.4691  1.0770
 5158TIP3    H237110   5.923   5.615   8.115  0.8553 -0.2718 -1.2024
 5159TIP3   OH237111   3.764   1.326   2.210  0.3550  0.0206 -0.0218
 5159TIP3    H137112   3.684   1.340   2.260  0.2804 -0.7280  0.0755
 5159TIP3    H237113   3.826   1.290   2.274  0.9235  1.0220  0.0171
 5160TIP3   OH237114   3.889   1.115   3.279 -0.3549  0.7328 -0.4166
 5160TIP3    H137115   3.817   1.136   3.220 -1.6272 -1.2994  0.2854
 5160TIP3    H237116   3.865   1.155   3.362 -1.3907 -0.9770  0.1646
 5161TIP3   OH237117   4.540   6.697   0.483  0.2003  0.5451 -0.1484
 5161TIP3    H137118   4.535   6.765   0.415 -1.2850  1.1577  0.5239
 5161TIP3    H237119   4.449   6.673   0.500  0.5362  0.2805  1.4906
 5162TIP3   OH237120   4.599   6.200   0.635 -0.2981 -0.1917  0.2731
 5162TIP3    H137121   4.663   6.272   0.629 -0.0463 -0.4403  0.0010
 5162TIP3    H237122   4.558   6.197   0.549  0.0763 -0.7296  0.1091
 5163TIP3   OH237123   2.423   2.062   1.903 -0.5627  0.5591 -0.0703
 5163TIP3    H137124   2.456   2.152   1.898  0.3638  0.2054 -0.5713
 5163TIP3    H237125   2.408   2.048   1.997  1.0524  0.6474  0.2363
 5164TIP3   OH237126   3.936   0.489   2.993 -0.5229  0.5509 -0.0041
 5164TIP3    H137127   3.961   0.437   2.916  2.0393  1.7382 -0.0751
 5164TIP3    H237128   4.004   0.471   3.057 -2.3878 -0.0745  1.8975
 5165TIP3   OH237129   1.105   3.846   1.627 -0.5578  0.0597  0.2666
 5165TIP3    H137130   1.171   3.818   1.690  1.3589  0.5083 -1.4201
 5165TIP3    H237131   1.126   3.938   1.609 -1.7893  0.2853 -0.1725
 5166TIP3   OH237132   3.618   3.110   2.953  0.3039 -0.2902  0.5264
 5166TIP3    H137133   3.671   3.190   2.954  1.0383 -0.7604  0.3539
 5166TIP3    H237134   3.680   3.040   2.973 -0.3120 -0.8287  0.5831
 5167TIP3   OH237135   2.740   0.998   2.534 -0.1835  0.5137  0.2197
 5167TIP3    H137136   2.724   0.952   2.452 -2.6160 -0.5434  1.1988
 5167TIP3    H237137   2.731   1.091   2.511  2.4807  0.5075 -1.2917
 5168TIP3   OH237138   5.801   2.078   1.332  0.3096  0.0040  0.0569
 5168TIP3    H137139   5.713   2.076   1.369 -0.1343  1.5190 -0.7974
 5168TIP3    H237140   5.798   2.015   1.261  0.3603 -0.9820  0.9128
 5169TIP3   OH237141   3.533   6.901   8.273 -0.0538  0.3718 -0.1036
 5169TIP3    H137142   3.539   6.805   8.266 -0.7834  0.3526 -0.6385
 5169TIP3    H237143   3.445   6.917   8.305 -0.2180  0.8926 -0.7993
 5170TIP3   OH237144   3.113   0.965   0.631  0.4849 -0.2343  0.1567
 5170TIP3    H137145   3.088   1.053   0.660 -0.5406  0.1241 -1.5973
 5170TIP3    H237146   3.030   0.917   0.627  1.1436 -1.6185  2.0095
 5171TIP3   OH237147   5.242   3.422   0.156 -0.2060 -0.2612  0.3067
 5171TIP3    H137148   5.225   3.513   0.132  1.4509  0.0418  0.2136
 5171TIP3    H237149   5.323   3.399   0.111 -1.2479 -2.2166 -0.7246
 5172TIP3   OH237150   3.624   0.369   2.829  0.1860  0.3912 -0.7160
 5172TIP3    H137151   3.689   0.335   2.891  0.2071  2.0246  0.2178
 5172TIP3    H237152   3.559   0.413   2.884  0.5495  2.4899 -1.8282
 5173TIP3   OH237153   0.861   3.572   2.860 -0.1940  0.0175 -0.4762
 5173TIP3    H137154   0.942   3.581   2.810 -0.1281 -0.4352 -0.4572
 5173TIP3    H237155   0.859   3.480   2.887 -0.6209  0.0677 -0.3168
 5174TIP3   OH237156   2.397   4.365   7.291  0.3549 -0.2163 -0.4303
 5174TIP3    H137157   2.450   4.339   7.215  1.5383  0.9292 -0.0290
 5174TIP3    H237158   2.322   4.411   7.253  1.3176  1.0110 -0.9108
 5175TIP3   OH237159   1.266   3.517   1.116  0.0636  0.1639 -0.2468
 5175TIP3    H137160   1.307   3.471   1.043 -0.1419  0.8161 -0.7800
 5175TIP3    H237161   1.187   3.467   1.136 -0.2020  0.3267 -0.8756
 5176TIP3   OH237162   2.192   1.922   1.522  0.2209  0.0909 -0.2642
 5176TIP3    H137163   2.197   1.859   1.450 -0.3918  1.9044 -1.9805
 5176TIP3    H237164   2.126   1.985   1.494 -0.0798  0.8287  1.9440
 5177TIP3   OH237165   4.764   1.806   8.029 -0.0695 -0.3016 -0.5715
 5177TIP3    H137166   4.783   1.899   8.044  0.3305 -0.4239 -0.3020
 5177TIP3    H237167   4.823   1.760   8.088 -2.4537 -0.6863  1.6859
 5178TIP3   OH237168   2.953   6.205   0.526 -0.2577 -0.1665  0.1606
 5178TIP3    H137169   3.009   6.264   0.475 -2.3469  1.8118  0.0290
 5178TIP3    H237170   2.936   6.252   0.607 -1.5375 -0.8275  0.3001
 5179TIP3   OH237171   1.083   0.195   8.596  0.9217 -0.1740 -0.5341
 5179TIP3    H137172   1.007   0.167   8.647  0.9825  0.8857  0.1847
 5179TIP3    H237173   1.156   0.146   8.633  0.6015 -1.2168 -1.2449
 5180TIP3   OH237174   5.252   1.966   1.402  0.0112  0.1024 -0.0563
 5180TIP3    H137175   5.248   2.061   1.406  1.1771  0.1496  0.3677
 5180TIP3    H237176   5.173   1.937   1.448  0.1637  0.8637  0.7163
 5181TIP3   OH237177   5.652   5.573   1.022  0.6214  0.0844 -0.2691
 5181TIP3    H137178   5.582   5.507   1.019  1.1322 -0.4973  0.3391
 5181TIP3    H237179   5.626   5.633   1.092 -0.1396  0.8860 -1.2105
 5182TIP3   OH237180   0.515   0.908   2.063 -0.6163 -0.3945  0.0440
 5182TIP3    H137181   0.427   0.946   2.057 -1.8835 -2.8692  1.5929
 5182TIP3    H237182   0.527   0.863   1.979 -0.7662  0.0332 -0.2118
 5183TIP3   OH237183   5.183   3.179   1.914  0.3585  0.7994 -0.4618
 5183TIP3    H137184   5.273   3.161   1.885  0.1077 -1.1444 -0.2192
 5183TIP3    H237185   5.130   3.112   1.870 -1.1711  2.5656 -1.4462
 5184TIP3   OH237186   2.829   5.170   8.257  0.2967 -0.1525  0.6369
 5184TIP3    H137187   2.762   5.239   8.251 -0.4221 -0.8587  0.2857
 5184TIP3    H237188   2.791   5.105   8.316 -0.3732 -1.6460 -1.2991
 5185TIP3   OH237189   0.019   0.374   3.101  0.0399 -0.2092  0.6226
 5185TIP3    H137190   0.077   0.307   3.137  0.1157 -1.0786 -1.0679
 5185TIP3    H237191   0.042   0.453   3.150  1.5508 -0.8904  1.0803
 5186TIP3   OH237192   2.641   1.810   1.629 -0.2467  0.3207  0.3579
 5186TIP3    H137193   2.670   1.859   1.706 -1.8254  0.8437  0.6604
 5186TIP3    H237194   2.572   1.864   1.591  0.0076 -0.2822 -1.0135
 5187TIP3   OH237195   1.053   5.277   0.870 -0.2575  0.2300  0.0743
 5187TIP3    H137196   1.027   5.186   0.853  2.8397 -0.5913 -0.7664
 5187TIP3    H237197   1.116   5.272   0.941 -0.4311  1.8003  0.3773
 5188TIP3   OH237198   4.798   5.817   2.619  0.8212 -0.3689 -0.5534
 5188TIP3    H137199   4.830   5.838   2.531  2.3256 -1.3720 -0.2838
 5188TIP3    H237200   4.758   5.731   2.610  0.7674 -0.3709 -0.2994
 5189TIP3   OH237201   3.568   0.265   0.335  0.2003 -0.0229 -0.0375
 5189TIP3    H137202   3.595   0.245   0.425 -0.5858  0.3115  0.2793
 5189TIP3    H237203   3.539   0.356   0.338 -1.5585 -0.5366 -0.1977
 5190TIP3   OH237204   6.646   1.231   2.327  0.1966  0.1854  0.2004
 5190TIP3    H137205   6.733   1.222   2.288  0.6732 -0.1628  1.3141
 5190TIP3    H237206   6.629   1.145   2.367 -1.0414 -0.0437 -0.7497
 5191TIP3   OH237207   5.495   3.882   0.600  0.8678  0.2643 -0.3525
 5191TIP3    H137208   5.454   3.821   0.538  0.6218  0.3006 -0.2293
 5191TIP3    H237209   5.562   3.830   0.644 -1.4979 -0.9437  2.1423
 5192TIP3   OH237210   1.518   5.372   1.609 -0.4418 -0.5842 -0.2554
 5192TIP3    H137211   1.597   5.340   1.567 -1.0666 -0.6864 -1.4047
 5192TIP3    H237212   1.512   5.323   1.691  1.2471  0.2191  0.3771
 5193TIP3   OH237213   3.872   3.125   1.829 -0.4283  0.3074  0.6091
 5193TIP3    H137214   3.846   3.098   1.917 -2.0739 -0.3251 -0.0177
 5193TIP3    H237215   3.789   3.151   1.787 -0.0990 -1.7280 -1.5092
 5194TIP3   OH237216   1.080   6.183   2.008 -0.0968 -0.2603 -0.3085
 5194TIP3    H137217   1.021   6.109   2.025  0.6661 -0.7334  0.3758
 5194TIP3    H237218   1.158   6.143   1.969 -0.0745  0.3153 -0.8638
 5195TIP3   OH237219   5.156   5.344   1.164  0.2057  0.2387 -0.0383
 5195TIP3    H137220   5.110   5.292   1.231 -1.0289 -0.1253 -1.1130
 5195TIP3    H237221   5.085   5.376   1.108  1.1397  1.3560 -0.5954
 5196TIP3   OH237222   1.991   0.447   1.119  0.1374  0.2404 -0.0502
 5196TIP3    H137223   1.946   0.407   1.193  0.5356  0.3957  0.2766
 5196TIP3    H237224   1.930   0.515   1.089 -0.6879 -0.8018 -0.8164
 5197TIP3   OH237225   5.127   4.436   0.269  0.4331  0.3669 -0.0516
 5197TIP3    H137226   5.062   4.374   0.234 -1.0368  1.2842  0.9334
 5197TIP3    H237227   5.124   4.423   0.364  1.0392  1.0717  0.0735
 5198TIP3   OH237228   0.352   2.840   1.834 -0.0708 -0.1785  0.3189
 5198TIP3    H137229   0.400   2.893   1.898  2.9688 -1.1083 -1.0207
 5198TIP3    H237230   0.325   2.762   1.882  1.6833 -0.6096  0.6907
 5199TIP3   OH237231   2.253   1.880   1.776  0.2692 -0.0337 -0.3242
 5199TIP3    H137232   2.315   1.947   1.803  0.0423 -0.1779  0.5739
 5199TIP3    H237233   2.228   1.905   1.687  0.5939  0.7665 -0.1952
 5200TIP3   OH237234   4.224   4.099   2.874 -0.6068  0.5770 -0.1284
 5200TIP3    H137235   4.219   4.023   2.815 -1.4998  1.2594 -0.9553
 5200TIP3    H237236   4.248   4.061   2.959  1.3307 -0.3730 -1.0204
 5201TIP3   OH237237   0.504   4.214   2.667  0.4824  0.2755 -0.1425
 5201TIP3    H137238   0.411   4.224   2.690  0.3920 -2.0641  0.8487
 5201TIP3    H237239   0.543   4.172   2.744  2.7087  2.4211  0.0061
 5202TIP3   OH237240   5.201   0.397   1.661 -0.6293 -0.6523  0.1535
 5202TIP3    H137241   5.141   0.445   1.718 -0.3968  0.7440 -0.7446
 5202TIP3    H237242   5.148   0.324   1.628 -1.1342 -0.7593  1.1504
 5203TIP3   OH237243   2.312   3.101   0.867  0.1785  0.0708 -0.0761
 5203TIP3    H137244   2.339   3.097   0.959  0.0463  1.5251  0.0460
 5203TIP3    H237245   2.219   3.077   0.869  0.1470  0.2101  0.1830
 5204TIP3   OH237246   6.845   5.830   3.266  0.0094  0.1600 -0.1618
 5204TIP3    H137247   6.802   5.908   3.303  0.6454  0.6161 -0.3676
 5204TIP3    H237248   6.910   5.805   3.332 -1.8200 -1.6847  1.0468
 5205TIP3   OH237249   5.576   2.647   0.083  0.1440  0.4832 -0.1682
 5205TIP3    H137250   5.539   2.647   0.171 -1.2638 -1.1259 -0.7053
 5205TIP3    H237251   5.510   2.603   0.029  3.0489 -3.3397 -1.0701
 5206TIP3   OH237252   3.355   1.065   7.470 -0.0146 -0.2069 -0.3039
 5206TIP3    H137253   3.314   0.980   7.454 -0.3527  0.2477 -1.9777
 5206TIP3    H237254   3.285   1.129   7.456  0.2752  0.3912  0.7956
 5207TIP3   OH237255   2.614   0.839   7.884 -0.6387 -0.2445 -0.2862
 5207TIP3    H137256   2.691   0.801   7.927 -0.4064  2.0179  1.4866
 5207TIP3    H237257   2.649   0.882   7.806  0.4145  2.6607  1.6214
 5208TIP3   OH237258   0.559   1.979   1.212  0.1261 -0.0229 -1.0189
 5208TIP3    H137259   0.574   2.011   1.123  3.9185  0.3479 -0.4181
 5208TIP3    H237260   0.567   2.058   1.266 -1.7314 -0.3160 -0.2696
 5209TIP3   OH237261   0.507   3.744   2.000 -0.4577 -0.3240 -0.0211
 5209TIP3    H137262   0.554   3.810   2.050  1.5825 -0.5380 -1.5341
 5209TIP3    H237263   0.486   3.786   1.916 -0.1518 -1.2133 -0.5677
 5210TIP3   OH237264   1.481   4.938   1.710  0.5727  0.7612  0.1049
 5210TIP3    H137265   1.478   4.874   1.781  0.2167 -1.1979 -1.5914
 5210TIP3    H237266   1.554   4.996   1.733  0.1834  0.5111  2.2599
 5211TIP3   OH237267   6.457   4.988   0.086  0.4614  0.4484 -0.0161
 5211TIP3    H137268   6.512   5.027   0.154  0.7395  0.7555 -0.4115
 5211TIP3    H237269   6.384   5.049   0.076 -0.0379 -0.0397  0.6203
 5212TIP3   OH237270   1.413   6.794   0.219  0.1167 -0.3784  0.2202
 5212TIP3    H137271   1.398   6.719   0.276  1.8611 -0.8462  0.1273
 5212TIP3    H237272   1.497   6.775   0.177  0.7641  1.7812  0.4460
 5213TIP3   OH237273   0.871   4.937   0.493  0.3395 -0.4135  0.3475
 5213TIP3    H137274   0.966   4.938   0.502  0.2329 -0.2937  1.6439
 5213TIP3    H237275   0.840   5.002   0.556 -0.5710  0.0493 -0.5504
 5214TIP3   OH237276   5.435   1.226   3.128 -0.1084 -0.4014  0.1876
 5214TIP3    H137277   5.396   1.208   3.042  0.5405 -1.0519  0.0143
 5214TIP3    H237278   5.529   1.231   3.110 -0.0471  0.4186  0.7108
 5215TIP3   OH237279   5.530   1.950   8.044  0.5909  0.2976  0.4011
 5215TIP3    H137280   5.476   2.017   8.001 -0.5167 -0.1558  1.0563
 5215TIP3    H237281   5.520   1.872   7.989 -1.0430 -0.3631  1.5614
 5216TIP3   OH237282   0.661   4.638   3.044 -0.3553  0.3941  0.0085
 5216TIP3    H137283   0.703   4.568   2.993 -1.2290  0.3872 -0.7213
 5216TIP3    H237284   0.659   4.604   3.133  1.2495  0.4287  0.0823
 5217TIP3   OH237285   6.599   0.368   8.046  0.3754 -0.7015 -0.6180
 5217TIP3    H137286   6.622   0.449   8.000 -0.4080 -0.4571 -0.5915
 5217TIP3    H237287   6.505   0.360   8.035  0.4795 -1.7370 -0.8042
 5218TIP3   OH237288   3.899   2.528   8.205  0.3354 -0.1920 -0.1166
 5218TIP3    H137289   3.928   2.524   8.114 -0.3257  1.2956 -0.4278
 5218TIP3    H237290   3.968   2.485   8.254 -0.7984 -4.0529 -1.5740
 5219TIP3   OH237291   4.578   2.227   2.162  0.2140  0.4885  0.1333
 5219TIP3    H137292   4.582   2.315   2.198 -1.5923  0.4498  0.5217
 5219TIP3    H237293   4.545   2.238   2.073  0.7450  0.2606 -0.0968
 5220TIP3   OH237294   4.297   4.228   0.475 -0.4189 -0.4362  0.2844
 5220TIP3    H137295   4.323   4.307   0.429  0.5627 -1.3033 -0.7206
 5220TIP3    H237296   4.216   4.252   0.521  0.7731  1.6362  1.4439
 5221TIP3   OH237297   2.165   3.515   0.933 -0.0835  0.6464  0.2603
 5221TIP3    H137298   2.234   3.559   0.982  0.5503 -0.2965  0.2373
 5221TIP3    H237299   2.162   3.560   0.849  2.5171 -1.0724 -0.8683
 5222TIP3   OH237300   4.360   4.047   7.092 -0.2987  0.1613 -0.1640
 5222TIP3    H137301   4.302   4.028   7.166  2.1161 -0.4661  1.7291
 5222TIP3    H237302   4.394   4.134   7.110  1.7315 -0.7128  0.5988
 5223TIP3   OH237303   6.328   6.647   0.298 -0.3632 -0.4226  0.3523
 5223TIP3    H137304   6.257   6.705   0.326  0.7592  1.2722 -0.1475
 5223TIP3    H237305   6.313   6.635   0.204 -1.0976 -1.7236  0.6131
 5224TIP3   OH237306   6.692   4.295   2.254  0.3440 -0.0827 -0.3520
 5224TIP3    H137307   6.627   4.314   2.187  0.0370  1.1203  0.2523
 5224TIP3    H237308   6.750   4.372   2.254  1.4929 -0.9111 -0.5433
 5225TIP3   OH237309   3.807   0.601   0.789 -0.2095 -0.2408 -0.2837
 5225TIP3    H137310   3.848   0.537   0.732  0.9901  0.2488 -0.0023
 5225TIP3    H237311   3.783   0.673   0.730  0.7125  0.1141 -0.2477
 5226TIP3   OH237312   2.313   1.679   0.527 -0.1959  0.0459 -0.3620
 5226TIP3    H137313   2.312   1.602   0.583  0.8642  0.2721 -0.0010
 5226TIP3    H237314   2.240   1.732   0.558 -0.6426 -0.5951 -0.3054
 5227TIP3   OH237315   6.345   3.027   7.231 -1.1848 -0.2911 -0.2821
 5227TIP3    H137316   6.266   2.976   7.210 -0.0746 -1.5047 -1.7811
 5227TIP3    H237317   6.318   3.086   7.301 -3.5195 -0.4189 -0.9876
 5228TIP3   OH237318   2.162   5.762   2.541  0.4228  0.0993 -0.2030
 5228TIP3    H137319   2.100   5.798   2.605  1.0711  0.1285  0.4116
 5228TIP3    H237320   2.222   5.835   2.524  1.3335 -0.4615  0.5281
 5229TIP3   OH237321   0.416   5.994   7.914  0.5180  0.3603 -0.1253
 5229TIP3    H137322   0.350   5.929   7.889  0.3466 -0.6089  2.5563
 5229TIP3    H237323   0.429   6.046   7.834 -0.2448 -2.1456 -2.0184
 5230TIP3   OH237324   1.984   5.412   1.848  0.7170 -0.0020 -0.4225
 5230TIP3    H137325   1.891   5.429   1.830  0.5325  0.1238  0.5881
 5230TIP3    H237326   1.984   5.369   1.934  1.6869  1.2079  0.2119
 5231TIP3   OH237327   5.155   2.166   1.161  0.5523  0.0567 -0.6455
 5231TIP3    H137328   5.184   2.186   1.250  1.0491 -0.5584 -0.6577
 5231TIP3    H237329   5.236   2.160   1.110  0.2413  0.9933 -1.2774
 5232TIP3   OH237330   3.779   2.810   2.797 -0.3428  0.3246 -0.2016
 5232TIP3    H137331   3.780   2.818   2.892  0.7120 -1.4472 -0.0242
 5232TIP3    H237332   3.808   2.896   2.765  0.6280  0.5159  1.1176
 5233TIP3   OH237333   5.643   1.919   2.638 -0.0214  0.3412  0.2620
 5233TIP3    H137334   5.624   1.846   2.697  2.4835 -2.8042 -2.4442
 5233TIP3    H237335   5.709   1.971   2.684  1.4240 -1.6955  0.6301
 5234TIP3   OH237336   6.899   3.961   0.206  0.7645  0.1491  0.0053
 5234TIP3    H137337   6.850   3.967   0.124 -0.5985 -1.0063  0.7055
 5234TIP3    H237338   6.991   3.959   0.179  0.3357 -0.1534 -1.4868
 5235TIP3   OH237339   6.650   4.613   8.492 -0.1774 -0.6419  0.0671
 5235TIP3    H137340   6.679   4.679   8.554 -3.7053  0.4941  0.7020
 5235TIP3    H237341   6.618   4.540   8.546  1.7383 -2.0724 -0.5997
 5236TIP3   OH237342   1.745   2.651   3.458  0.5839 -0.2266  0.3205
 5236TIP3    H137343   1.700   2.734   3.440 -0.1293 -0.9863 -1.7643
 5236TIP3    H237344   1.816   2.674   3.517  0.1791  1.8068  0.0828
 5237TIP3   OH237345   3.794   4.298   1.003 -0.7544  0.1493  0.8538
 5237TIP3    H137346   3.714   4.280   1.053 -1.3123 -0.6793 -0.2968
 5237TIP3    H237347   3.765   4.352   0.930 -0.5063 -1.2139 -0.2850
 5238TIP3   OH237348   1.468   4.189   3.023  0.1955 -0.1004  0.2278
 5238TIP3    H137349   1.474   4.124   2.953  0.2818 -0.1614  0.2911
 5238TIP3    H237350   1.462   4.138   3.103 -1.0365 -0.0412  0.1903
 5239TIP3   OH237351   1.271   5.473   8.576  0.2617  0.2522  0.4908
 5239TIP3    H137352   1.346   5.487   8.519  1.1824  0.1396  1.6538
 5239TIP3    H237353   1.292   5.520   8.656 -0.6202 -0.3345  1.0809
 5240TIP3   OH237354   2.606   0.436   7.807 -0.3190  0.2079 -0.5460
 5240TIP3    H137355   2.547   0.492   7.756  0.6212 -0.1618 -2.1124
 5240TIP3    H237356   2.629   0.365   7.747 -1.7692 -2.1374  1.4804
 5241TIP3   OH237357   5.482   0.265   2.087 -0.3245  0.1314  0.2861
 5241TIP3    H137358   5.411   0.307   2.137 -2.4063  0.0973 -2.3865
 5241TIP3    H237359   5.439   0.193   2.042  2.1149 -1.7533  0.7712
 5242TIP3   OH237360   0.864   1.011   1.769 -0.2999  0.4648 -0.0096
 5242TIP3    H137361   0.846   0.918   1.751  2.7817 -0.5047  1.2006
 5242TIP3    H237362   0.822   1.027   1.853 -0.2419 -0.0560  0.1259
 5243TIP3   OH237363   5.335   1.579   2.985 -0.3529  0.2045  0.6385
 5243TIP3    H137364   5.264   1.625   2.940 -0.5936  1.5307  2.2655
 5243TIP3    H237365   5.294   1.498   3.016 -0.6372  0.0847 -0.0275
 5244TIP3   OH237366   1.730   5.242   1.512  0.7591  0.3517  0.0528
 5244TIP3    H137367   1.709   5.150   1.498  0.0283  0.0682  2.5054
 5244TIP3    H237368   1.824   5.248   1.497  0.9589 -0.9809  0.6403
 5245TIP3   OH237369   1.021   0.682   8.571  0.5176  0.6906  0.0689
 5245TIP3    H137370   0.954   0.706   8.634 -0.6454  1.1376 -1.2773
 5245TIP3    H237371   0.982   0.611   8.520  2.1835 -1.0086  1.0746
 5246TIP3   OH237372   0.129   0.463   2.719 -0.4991  0.2681  0.2657
 5246TIP3    H137373   0.185   0.385   2.719 -0.7047  0.1189  0.2548
 5246TIP3    H237374   0.184   0.532   2.755 -0.7997 -0.2209  1.7431
 5247TIP3   OH237375   3.060   2.452   7.904 -0.2333 -0.0339 -0.2863
 5247TIP3    H137376   3.121   2.385   7.872 -1.3503 -0.6879 -1.1126
 5247TIP3    H237377   2.976   2.407   7.910 -0.5431  0.6896  1.4388
 5248TIP3   OH237378   5.267   3.649   0.785  0.2364  0.1162  0.5922
 5248TIP3    H137379   5.259   3.738   0.817 -1.4701  0.5294 -0.8184
 5248TIP3    H237380   5.197   3.600   0.829  0.1797 -0.1572  0.2070
 5249TIP3   OH237381   4.223   5.677   3.010  0.6627  0.3312  0.3343
 5249TIP3    H137382   4.277   5.691   3.088  0.3037 -1.4455  0.9390
 5249TIP3    H237383   4.284   5.644   2.944  0.6830  0.3471  0.3448
 5250TIP3   OH237384   1.941   2.594   0.434 -0.4511 -0.1760 -0.0220
 5250TIP3    H137385   1.953   2.639   0.518  1.1571 -1.1504  0.3073
 5250TIP3    H237386   1.982   2.508   0.446 -1.8242 -1.0488 -1.2273
 5251TIP3   OH237387   1.277   3.740   0.920 -0.1184  0.1382  0.0470
 5251TIP3    H137388   1.343   3.757   0.853  2.2673 -1.3320  1.8429
 5251TIP3    H237389   1.247   3.651   0.902 -0.0305  0.0211  0.4502
 5252TIP3   OH237390   6.504   3.726   7.945  0.5524 -0.0068 -0.1235
 5252TIP3    H137391   6.416   3.761   7.927  0.5612 -0.3250 -0.8415
 5252TIP3    H237392   6.510   3.647   7.891  1.4440  0.2605 -0.4442
 5253TIP3   OH237393   3.105   2.035   2.260 -0.1522 -0.0526  0.2818
 5253TIP3    H137394   3.155   1.978   2.202 -0.3090 -0.1049  0.1958
 5253TIP3    H237395   3.170   2.073   2.319  0.0569  0.2827 -0.1587
 5254TIP3   OH237396   4.861   4.147   1.468  0.1124  0.7106  0.9073
 5254TIP3    H137397   4.847   4.094   1.389  0.6740  0.4984  0.9470
 5254TIP3    H237398   4.778   4.193   1.481  0.3438  1.5537 -0.4212
 5255TIP3   OH237399   4.459   2.083   2.620  0.1509  0.0739  0.7476
 5255TIP3    H137400   4.477   2.003   2.570  1.3535  0.4112  0.5934
 5255TIP3    H237401   4.406   2.137   2.561 -1.5802 -1.0136  1.2531
 5256TIP3   OH237402   6.507   6.117   2.892  0.3940 -0.4393  0.1074
 5256TIP3    H137403   6.485   6.030   2.927 -0.8955 -0.4771 -0.7047
 5256TIP3    H237404   6.536   6.167   2.968 -2.9133 -0.3071  1.4367
 5257TIP3   OH237405   4.083   5.936   0.877  0.1852 -0.1794 -0.1424
 5257TIP3    H137406   4.003   5.951   0.827  0.8516  1.5137 -0.7736
 5257TIP3    H237407   4.126   5.863   0.832 -1.5071 -1.9425  0.9197
 5258TIP3   OH237408   5.980   6.850   2.263 -0.2876  0.7085 -0.0916
 5258TIP3    H137409   5.988   6.771   2.316  0.8938  1.5141  0.9789
 5258TIP3    H237410   5.902   6.835   2.209 -0.2224 -1.0700  0.2527
 5259TIP3   OH237411   5.453   0.441   1.216  0.2004  0.0408  0.4023
 5259TIP3    H137412   5.501   0.367   1.254  0.2874 -0.6491 -0.9654
 5259TIP3    H237413   5.455   0.424   1.121  0.7650  2.1290 -0.0073
 5260TIP3   OH237414   4.299   3.937   8.484 -0.6138  0.1872  0.0229
 5260TIP3    H137415   4.256   3.953   8.568  0.0166  1.2175  0.1697
 5260TIP3    H237416   4.393   3.947   8.503 -0.3910 -0.6780 -0.5707
 5261TIP3   OH237417   2.291   5.209   2.306 -0.0897 -0.3876 -0.5598
 5261TIP3    H137418   2.233   5.162   2.246 -0.8239 -0.5609  0.2534
 5261TIP3    H237419   2.234   5.272   2.349  0.0683 -1.2646  1.0209
 5262TIP3   OH237420   5.373   5.124   0.506 -0.0517  0.4886  0.5097
 5262TIP3    H137421   5.295   5.178   0.517  0.2870  1.1577 -0.2439
 5262TIP3    H237422   5.358   5.075   0.425  0.5687  1.0871  0.0231
 5263TIP3   OH237423   6.836   3.317   7.802 -0.0264  0.1454 -0.4636
 5263TIP3    H137424   6.856   3.303   7.709  0.0511  1.3298 -0.6424
 5263TIP3    H237425   6.909   3.278   7.849 -0.0194 -0.3771 -0.9008
 5264TIP3   OH237426   3.875   0.290   0.088  0.1791 -0.2645 -0.3525
 5264TIP3    H137427   3.817   0.218   0.113  2.2827 -1.2125  2.2967
 5264TIP3    H237428   3.931   0.253   0.020  2.1243 -1.7501  1.8967
 5265TIP3   OH237429   0.077   4.459   8.526  0.3161 -0.2586 -0.1474
 5265TIP3    H137430   0.126   4.512   8.463  0.1744 -1.3074 -1.1790
 5265TIP3    H237431   0.006   4.420   8.475 -0.8889  0.2741  1.0601
 5266TIP3   OH237432   0.154   5.819   1.155 -0.3452  0.5505  0.0582
 5266TIP3    H137433   0.091   5.792   1.221  0.4709 -1.0482  0.2172
 5266TIP3    H237434   0.239   5.814   1.199  0.3492 -1.7247 -1.4056
 5267TIP3   OH237435   0.320   3.855   0.783 -0.2593  0.1039  0.4111
 5267TIP3    H137436   0.402   3.902   0.772 -1.3885  2.5843  1.7016
 5267TIP3    H237437   0.267   3.881   0.707 -0.5235  0.0741  0.5838
 5268TIP3   OH237438   5.917   1.928   8.587 -0.4745  0.0912 -0.3505
 5268TIP3    H137439   5.875   1.848   8.556 -0.5069 -0.3309  0.7416
 5268TIP3    H237440   6.003   1.929   8.545 -0.0381 -1.1008  0.4659
 5269TIP3   OH237441   0.262   3.469   1.343  0.1407 -0.2927  0.2758
 5269TIP3    H137442   0.175   3.431   1.331 -0.8424  1.0404  2.5564
 5269TIP3    H237443   0.280   3.460   1.437  0.7697  2.7721  0.5536
 5270TIP3   OH237444   0.494   1.496   1.242 -1.0482 -0.3195  0.7100
 5270TIP3    H137445   0.535   1.532   1.164 -0.0577  1.9644  2.1486
 5270TIP3    H237446   0.461   1.573   1.289 -0.3987 -1.4495  3.1900
 5271TIP3   OH237447   1.759   4.863   1.303 -0.3441  0.7563  0.1604
 5271TIP3    H137448   1.833   4.865   1.365  0.8345  0.2730 -1.1622
 5271TIP3    H237449   1.715   4.947   1.315  1.4016  1.7672 -0.1289
 5272TIP3   OH237450   1.855   5.282   2.075  0.8380 -0.3698 -0.1370
 5272TIP3    H137451   1.862   5.253   2.166  0.4047  0.2910  0.1140
 5272TIP3    H237452   1.767   5.257   2.048  0.5122  0.5781  0.0376
 5273TIP3   OH237453   3.271   0.652   1.063  0.0844  0.2045  0.5552
 5273TIP3    H137454   3.188   0.690   1.089 -1.0213 -1.6039 -0.1825
 5273TIP3    H237455   3.283   0.679   0.972  1.1522  1.8073  1.1265
 5274TIP3   OH237456   3.772   2.310   2.032  0.0939  0.1515  0.3283
 5274TIP3    H137457   3.866   2.324   2.035  0.1923 -0.3911 -0.0663
 5274TIP3    H237458   3.740   2.338   2.118  0.8016 -0.9875  0.9759
 5275TIP3   OH237459   0.676   3.641   1.208  0.0929 -0.2224  0.3021
 5275TIP3    H137460   0.696   3.721   1.255 -2.0106  0.6780 -0.2163
 5275TIP3    H237461   0.622   3.590   1.268  1.5781 -1.3992  0.7074
 5276TIP3   OH237462   3.649   2.271   7.436 -0.4818  0.3096  0.0191
 5276TIP3    H137463   3.666   2.192   7.385  1.4721  0.3972  0.4632
 5276TIP3    H237464   3.688   2.342   7.384 -1.3905  0.8695  0.0742
 5277TIP3   OH237465   3.119   1.543   0.629 -0.2038 -0.8063 -0.1553
 5277TIP3    H137466   3.176   1.610   0.592 -0.2528 -0.0687  1.0343
 5277TIP3    H237467   3.037   1.552   0.580 -0.0377 -0.3552 -0.3584
 5278TIP3   OH237468   6.199   6.367   8.144 -0.9781 -0.0951  0.2476
 5278TIP3    H137469   6.290   6.398   8.145 -0.9231 -0.2433  0.0504
 5278TIP3    H237470   6.185   6.339   8.053 -0.7221 -1.5420  0.6225
 5279TIP3   OH237471   2.054   0.373   8.300 -0.6075  0.0019 -0.0072
 5279TIP3    H137472   2.142   0.369   8.262 -0.8191 -2.7515 -0.4119
 5279TIP3    H237473   2.052   0.303   8.364 -2.4045  0.2500  0.2699
 5280TIP3   OH237474   6.688   4.155   3.330  0.3949 -0.3446  0.2322
 5280TIP3    H137475   6.657   4.245   3.331 -1.8905 -1.0692  0.4566
 5280TIP3    H237476   6.689   4.128   3.422 -0.4974 -1.0149  0.0616
 5281TIP3   OH237477   2.590   4.292   0.022 -0.3332  0.0716  0.6881
 5281TIP3    H137478   2.591   4.321  -0.069 -0.6051 -0.4726  0.5056
 5281TIP3    H237479   2.500   4.261   0.036  0.5699 -3.2362  0.0202
 5282TIP3   OH237480   1.579   6.378   1.293  0.2677  0.3088  0.1370
 5282TIP3    H137481   1.574   6.302   1.235 -0.7451  0.5433 -0.0966
 5282TIP3    H237482   1.518   6.359   1.363 -1.6225  1.7920 -1.0037
 5283TIP3   OH237483   0.131   4.481   0.772  0.4933  0.9857  0.4820
 5283TIP3    H137484   0.134   4.559   0.828 -0.0215  0.1087  1.7852
 5283TIP3    H237485   0.105   4.411   0.831  0.8204 -0.1590 -0.6997
 5284TIP3   OH237486   5.159   3.873   3.203  0.2725  0.7888 -0.0747
 5284TIP3    H137487   5.249   3.846   3.185  0.9319  3.0673 -0.6337
 5284TIP3    H237488   5.131   3.916   3.121 -0.8664  1.1708  0.4974
 5285TIP3   OH237489   6.249   1.322   1.452  0.0548  0.0151 -0.3535
 5285TIP3    H137490   6.288   1.240   1.483 -0.9785 -0.4634 -0.2669
 5285TIP3    H237491   6.309   1.390   1.483  0.3017 -0.6246  0.6440
 5286TIP3   OH237492   0.377   1.154   1.944  0.6788 -0.6624  0.2836
 5286TIP3    H137493   0.330   1.232   1.915 -0.8442 -1.5187  0.3502
 5286TIP3    H237494   0.372   1.094   1.869  0.6011 -1.2130  0.7255
 5287TIP3   OH237495   6.099   5.647   1.927  0.0093  0.3742 -0.2771
 5287TIP3    H137496   6.108   5.554   1.947  0.5535  0.2523 -1.0417
 5287TIP3    H237497   6.004   5.661   1.925 -0.0765 -0.1347 -0.0251
 5288TIP3   OH237498   2.386   0.321   0.862 -0.5977  0.4719  0.2708
 5288TIP3    H137499   2.327   0.348   0.792 -0.7022  0.5467  0.3873
 5288TIP3    H237500   2.472   0.315   0.821 -0.8117 -0.3516 -0.0751
 5289TIP3   OH237501   6.513   4.944   7.642  0.3081 -0.1553 -0.1173
 5289TIP3    H137502   6.421   4.926   7.663  0.7799 -2.3111  0.3899
 5289TIP3    H237503   6.532   5.028   7.683 -1.7273  0.9202 -1.2349
 5290TIP3   OH237504   4.563   5.781   1.739  0.8480 -0.0977  0.1630
 5290TIP3    H137505   4.563   5.864   1.691 -0.2755 -0.3452 -0.2729
 5290TIP3    H237506   4.639   5.734   1.705  0.2695 -0.1276 -1.1364
 5291TIP3   OH237507   0.651   0.237   8.119 -0.0618  0.1996 -0.4181
 5291TIP3    H137508   0.685   0.151   8.145  0.1910  0.1907 -0.7819
 5291TIP3    H237509   0.564   0.240   8.160  1.0429  0.9751  2.0540
 5292TIP3   OH237510   5.637   2.292   8.262 -0.1261 -0.4174 -0.0108
 5292TIP3    H137511   5.715   2.287   8.207 -0.5958  0.8252 -0.8245
 5292TIP3    H237512   5.671   2.295   8.352  0.6608 -2.1193 -0.2114
 5293TIP3   OH237513   5.428   3.329   3.088  0.1934  0.0154  0.6488
 5293TIP3    H137514   5.387   3.415   3.094  1.1334  0.6862 -1.5171
 5293TIP3    H237515   5.425   3.308   2.995  0.4806 -2.0740  1.0648
 5294TIP3   OH237516   5.695   3.271   0.703 -0.1808  0.5833  0.3022
 5294TIP3    H137517   5.696   3.175   0.706  1.5498  0.5989  2.2152
 5294TIP3    H237518   5.678   3.298   0.793 -3.5617  2.1775 -0.6379
 5295TIP3   OH237519   6.794   0.098   0.495  0.3427 -0.1908 -0.1954
 5295TIP3    H137520   6.867   0.063   0.443 -0.0366 -1.8258  0.3098
 5295TIP3    H237521   6.804   0.056   0.580 -0.3716  0.6847  0.3240
 5296TIP3   OH237522   0.372   6.673   2.825  0.0637 -0.3274  0.1665
 5296TIP3    H137523   0.426   6.633   2.756 -0.3982  0.8981 -0.9506
 5296TIP3    H237524   0.289   6.626   2.820 -0.8022  1.2572 -1.7656
 5297TIP3   OH237525   4.369   5.561   2.811 -0.6229  0.0215 -0.0939
 5297TIP3    H137526   4.364   5.469   2.784 -0.1385 -0.0711  0.1212
 5297TIP3    H237527   4.457   5.571   2.848 -1.0961  0.2549  1.0290
 5298TIP3   OH237528   5.675   6.075   7.719  0.0064  0.4368  0.0497
 5298TIP3    H137529   5.691   6.012   7.650  0.9398  0.4396  0.2525
 5298TIP3    H237530   5.581   6.071   7.734  0.2867 -2.6120  1.6715
 5299TIP3   OH237531   0.731   4.426   0.388 -0.6407 -0.0603  0.0497
 5299TIP3    H137532   0.780   4.447   0.467 -0.3484  1.6328 -0.5359
 5299TIP3    H237533   0.713   4.332   0.395 -0.5037  0.0143  2.0381
 5300TIP3   OH237534   6.118   6.227   1.306 -0.0419  0.9404 -0.2806
 5300TIP3    H137535   6.088   6.270   1.387  0.4974  1.1235 -0.1724
 5300TIP3    H237536   6.070   6.272   1.236 -2.5436 -0.9947  0.0822
 5301TIP3   OH237537   1.751   2.943   0.661  0.1529  0.9625 -0.4018
 5301TIP3    H137538   1.733   2.857   0.701  1.7839  0.9770  0.4693
 5301TIP3    H237539   1.675   2.961   0.607 -1.5921  0.3154  1.7060
 5302TIP3   OH237540   2.736   0.577   1.440  0.6522 -0.0749  0.3958
 5302TIP3    H137541   2.784   0.650   1.401  1.5712 -1.1112 -0.4496
 5302TIP3    H237542   2.669   0.555   1.376  1.7828 -1.3876 -0.3833
 5303TIP3   OH237543   2.035   0.955   2.030 -0.5197 -0.0181  0.0773
 5303TIP3    H137544   2.125   0.981   2.009 -0.8146  1.8518  0.9106
 5303TIP3    H237545   1.997   0.931   1.945  1.0666 -1.9762 -0.1398
 5304TIP3   OH237546   0.169   2.211   3.204  0.6520  0.5130  0.2599
 5304TIP3    H137547   0.081   2.218   3.241 -0.4920 -1.2796 -1.9339
 5304TIP3    H237548   0.216   2.154   3.265  0.1984  1.0849  1.1851
 5305TIP3   OH237549   3.972   4.007   3.061  0.0807 -0.2766 -0.1211
 5305TIP3    H137550   3.957   4.049   3.146 -1.3195  1.0271 -0.9540
 5305TIP3    H237551   3.888   4.014   3.016  0.7237 -1.1693 -1.5248
 5306TIP3   OH237552   2.119   3.036   1.517  0.4768  0.4483 -0.1608
 5306TIP3    H137553   2.118   2.964   1.453  1.2685  2.3386 -2.4555
 5306TIP3    H237554   2.190   3.093   1.488  0.9867  1.3571  2.5717
 5307TIP3   OH237555   1.323   0.854   0.219 -0.0342 -0.1954 -0.6683
 5307TIP3    H137556   1.269   0.932   0.225 -0.0370 -0.3028  1.4194
 5307TIP3    H237557   1.261   0.782   0.206 -0.0038  0.1198 -3.0373
 5308TIP3   OH237558   3.382   3.063   3.053  0.8438 -0.1052  0.4272
 5308TIP3    H137559   3.469   3.081   3.018  1.2737 -1.3316  0.8292
 5308TIP3    H237560   3.392   3.077   3.148  1.2271 -2.4420  0.7751
 5309TIP3   OH237561   4.162   4.079   1.691  0.5536  0.4856 -0.1231
 5309TIP3    H137562   4.190   4.077   1.600  0.0442  0.0266 -0.2801
 5309TIP3    H237563   4.082   4.131   1.690 -0.4028 -0.9191 -0.2403
 5310TIP3   OH237564   3.189   3.621   1.318  0.5103 -0.4124 -0.5288
 5310TIP3    H137565   3.282   3.638   1.335  0.3503 -1.1047  1.1526
 5310TIP3    H237566   3.154   3.706   1.291  1.5721 -0.0891 -0.9412
 5311TIP3   OH237567   2.222   3.688   8.364 -0.2359 -0.8109 -0.1048
 5311TIP3    H137568   2.153   3.754   8.373  0.4867 -0.0949  0.2892
 5311TIP3    H237569   2.296   3.735   8.326  0.5909 -1.1838  0.9958
 5312TIP3   OH237570   2.334   1.576   8.131 -0.3581 -0.1262  0.0542
 5312TIP3    H137571   2.377   1.637   8.191  1.8941 -1.1693 -0.3660
 5312TIP3    H237572   2.310   1.631   8.056  0.9448  0.4243 -0.0002
 5313TIP3   OH237573   0.308   4.548   7.697 -0.3156 -0.1289 -0.6084
 5313TIP3    H137574   0.387   4.525   7.746 -1.0393  0.3023  0.8141
 5313TIP3    H237575   0.319   4.640   7.676 -0.6130  0.0437 -0.0349
 5314TIP3   OH237576   4.490   5.647   0.013  0.2491 -0.4005  0.3441
 5314TIP3    H137577   4.563   5.591   0.039  0.1677 -1.2123 -1.0970
 5314TIP3    H237578   4.528   5.709  -0.049  0.4753  1.6336  2.3793
 5315TIP3   OH237579   3.400   0.477   2.002 -0.5117  0.3346  0.3834
 5315TIP3    H137580   3.382   0.554   2.056 -1.4643 -0.0137  0.5719
 5315TIP3    H237581   3.491   0.489   1.973  0.4564 -0.0144  2.9848
 5316TIP3   OH237582   5.246   0.426   8.615 -0.3152 -0.2330  0.3244
 5316TIP3    H137583   5.269   0.516   8.641 -1.8340 -0.4255  2.5739
 5316TIP3    H237584   5.320   0.398   8.560  1.1393  1.7157  1.1493
 5317TIP3   OH237585   6.532   2.340   2.201  0.4196  0.0515 -0.4098
 5317TIP3    H137586   6.466   2.272   2.220 -1.7741  1.9116 -0.8939
 5317TIP3    H237587   6.565   2.366   2.287 -0.4550 -0.0004 -0.0462
 5318TIP3   OH237588   0.323   2.367   2.063  0.1820  0.0619  0.1090
 5318TIP3    H137589   0.397   2.327   2.018 -0.2613  0.4403 -0.9965
 5318TIP3    H237590   0.249   2.354   2.004  0.3309  4.0038 -1.2723
 5319TIP3   OH237591   6.595   4.022   3.091  0.4714 -0.4498  0.2084
 5319TIP3    H137592   6.600   4.117   3.098  0.2751 -0.5314  1.7641
 5319TIP3    H237593   6.685   3.992   3.106  0.8363 -0.4833 -1.7031
 5320TIP3   OH237594   0.473   4.053   1.309 -0.3953 -1.0211 -0.2861
 5320TIP3    H137595   0.533   4.005   1.366 -2.0288 -0.4273  2.1085
 5320TIP3    H237596   0.413   3.986   1.276 -0.0452 -1.2432 -0.4653
 5321TIP3   OH237597   5.330   4.595   1.678 -0.0805 -0.2934  0.4942
 5321TIP3    H137598   5.371   4.519   1.637  0.7671 -0.5767  1.8041
 5321TIP3    H237599   5.279   4.558   1.750 -0.3374  0.3132  0.6262
 5322TIP3   OH237600   2.223   0.376   7.535 -0.1488  0.5331  0.5297
 5322TIP3    H137601   2.180   0.449   7.490 -0.8278  0.4203  0.9808
 5322TIP3    H237602   2.160   0.303   7.528  0.5595 -0.0515 -0.0030
 5323TIP3   OH237603   5.414   6.019   2.592 -0.6774  0.0772  0.0917
 5323TIP3    H137604   5.455   6.099   2.624 -2.4710  0.5920  1.2304
 5323TIP3    H237605   5.378   6.043   2.507 -0.6220  0.2867  0.1274
 5324TIP3   OH237606   2.626   4.255   7.746  0.1154  0.0217  0.6060
 5324TIP3    H137607   2.660   4.165   7.743  0.6230  0.2265  0.0420
 5324TIP3    H237608   2.594   4.272   7.657 -0.2949  0.2825  0.8009
 5325TIP3   OH237609   6.582   2.138   1.938 -0.2021 -0.3775  0.2096
 5325TIP3    H137610   6.661   2.174   1.978  0.1213 -2.3853  1.5287
 5325TIP3    H237611   6.601   2.138   1.844  1.2289 -0.4825  0.4685
 5326TIP3   OH237612   5.388   0.583   0.493  0.4890  0.3034 -0.1721
 5326TIP3    H137613   5.325   0.645   0.530 -0.5167 -0.5489 -0.3982
 5326TIP3    H237614   5.418   0.624   0.413  0.7322  1.0255  0.2843
 5327TIP3   OH237615   1.872   4.055   7.782  0.0003  0.8447  0.1769
 5327TIP3    H137616   1.922   4.067   7.863  0.6255  0.3629 -0.1372
 5327TIP3    H237617   1.879   4.139   7.737 -0.7121  1.2617  0.8102
 5328TIP3   OH237618   6.558   2.059   1.395 -0.4512 -0.2996  0.1744
 5328TIP3    H137619   6.567   2.114   1.317 -1.9756 -0.2050  0.0434
 5328TIP3    H237620   6.544   1.971   1.360 -1.1628 -0.2529  0.3296
 5329TIP3   OH237621   0.703   0.221   3.235 -0.1071 -0.6823  0.2484
 5329TIP3    H137622   0.739   0.145   3.281  0.8320 -1.0508 -1.0479
 5329TIP3    H237623   0.625   0.188   3.191 -0.0965 -0.7274  0.2631
 5330TIP3   OH237624   3.963   5.354   1.834 -0.1046  0.2378  0.0527
 5330TIP3    H137625   4.008   5.383   1.754  0.1403 -1.0562 -0.3106
 5330TIP3    H237626   3.889   5.302   1.802 -1.0552  1.1899  0.6661
 5331TIP3   OH237627   6.032   0.050   2.535  0.1681  0.3265  0.1376
 5331TIP3    H137628   6.029  -0.021   2.470  1.5549  0.2534  0.1237
 5331TIP3    H237629   6.125   0.059   2.557 -0.2716  0.2643  2.2290
 5332TIP3   OH237630   2.555   2.657   2.646  0.0760  0.3788  0.1262
 5332TIP3    H137631   2.572   2.566   2.670  1.7971  0.7464  0.3746
 5332TIP3    H237632   2.560   2.657   2.550 -2.6803 -0.2749 -0.1072
 5333TIP3   OH237633   5.478   5.952   2.269  0.1580  0.3552 -0.3216
 5333TIP3    H137634   5.404   5.893   2.286 -0.1749  0.4998 -1.2199
 5333TIP3    H237635   5.532   5.904   2.206  0.9543  0.1622  0.4827
 5334TIP3   OH237636   5.766   0.195   2.232 -0.3760 -0.4393 -0.6530
 5334TIP3    H137637   5.738   0.132   2.298 -2.2114  0.3346 -0.6448
 5334TIP3    H237638   5.781   0.143   2.153  1.1477 -1.2680  0.1290
 5335TIP3   OH237639   0.878   2.398   0.394 -0.0618 -0.4170 -0.2249
 5335TIP3    H137640   0.875   2.365   0.305 -0.0842  0.7690 -0.6786
 5335TIP3    H237641   0.936   2.474   0.390 -0.3726 -0.1115  0.6869
 5336TIP3   OH237642   4.816   2.566   0.989 -0.7027  0.6183 -0.8164
 5336TIP3    H137643   4.910   2.571   0.971 -0.3289 -2.1197 -0.1296
 5336TIP3    H237644   4.804   2.618   1.068  0.4902  0.0545 -0.2304
 5337TIP3   OH237645   0.708   6.402   1.196 -0.0280 -0.0587  0.2280
 5337TIP3    H137646   0.650   6.333   1.162 -0.2925  0.2628  0.0192
 5337TIP3    H237647   0.796   6.369   1.182 -0.1515 -0.2677 -0.0571
 5338TIP3   OH237648   1.289   2.057   8.370 -0.5777 -0.2980 -0.0568
 5338TIP3    H137649   1.340   1.978   8.386 -2.7091 -2.3030 -2.4183
 5338TIP3    H237650   1.336   2.102   8.300  0.2445  0.2507  0.8056
 5339TIP3   OH237651   3.876   0.733   2.906  0.4595 -0.9288  0.5157
 5339TIP3    H137652   3.903   0.643   2.922 -1.6192 -1.8330 -0.6402
 5339TIP3    H237653   3.780   0.730   2.909  0.3504  1.3205  0.7873
 5340TIP3   OH237654   6.852   3.688   0.649 -0.1682 -0.6183 -0.5451
 5340TIP3    H137655   6.805   3.618   0.605  2.1018 -2.0536 -0.8168
 5340TIP3    H237656   6.849   3.762   0.588  0.4547 -1.6456 -1.8490
 5341TIP3   OH237657   0.765   6.375   8.058  0.5297  0.3161 -0.3307
 5341TIP3    H137658   0.718   6.338   7.984  2.1608 -0.5976 -0.9717
 5341TIP3    H237659   0.808   6.453   8.024 -0.3528  1.0531  0.2050
 5342TIP3   OH237660   1.202   4.639   6.909  0.3282 -0.1086  0.6504
 5342TIP3    H137661   1.246   4.677   6.986  0.9889 -2.0118  1.2669
 5342TIP3    H237662   1.159   4.560   6.942 -0.3453 -0.3532 -0.7300
 5343TIP3   OH237663   2.861   3.485   7.962  0.3191 -0.5510  0.2486
 5343TIP3    H137664   2.780   3.527   7.991 -0.5235 -2.2487  0.4508
 5343TIP3    H237665   2.865   3.504   7.868  0.6872  1.1158  0.5749
 5344TIP3   OH237666   4.193   3.079   1.135 -0.4458 -0.5115 -0.8444
 5344TIP3    H137667   4.167   2.996   1.096 -0.8642 -0.3696 -0.8658
 5344TIP3    H237668   4.289   3.074   1.138 -0.5074 -1.8960  1.0761
 5345TIP3   OH237669   5.581   0.096   0.349  0.6942 -0.2096  0.5105
 5345TIP3    H137670   5.606   0.091   0.257  2.4624 -1.3144  0.9882
 5345TIP3    H237671   5.513   0.030   0.360  1.8129 -1.4523  0.3284
 5346TIP3   OH237672   3.746   0.103   1.041 -0.1004  0.5248  0.1733
 5346TIP3    H137673   3.777   0.054   0.965 -0.3762  1.8991 -0.8756
 5346TIP3    H237674   3.758   0.195   1.016 -2.6368  1.0781  0.7191
 5347TIP3   OH237675   2.890   6.323   1.895 -0.3269 -0.0893 -0.2473
 5347TIP3    H137676   2.982   6.299   1.894 -0.6879 -1.5809 -1.0520
 5347TIP3    H237677   2.853   6.274   1.968 -0.9532 -1.6081 -1.5234
 5348TIP3   OH237678   4.496   6.374   2.038 -0.4163  0.6354  0.1347
 5348TIP3    H137679   4.496   6.425   1.957  0.0901  1.7446  0.8130
 5348TIP3    H237680   4.532   6.433   2.104  0.0686 -0.5639  0.9846
 5349TIP3   OH237681   2.992   4.753   0.509  0.2816  0.0807 -0.4038
 5349TIP3    H137682   2.921   4.736   0.572  0.0048 -1.1262 -1.0017
 5349TIP3    H237683   2.949   4.799   0.437 -0.5227 -2.7365 -1.8883
 5350TIP3   OH237684   0.576   6.635   7.484 -0.3165  0.2319 -0.8186
 5350TIP3    H137685   0.569   6.679   7.399  0.0151 -0.5995 -1.2873
 5350TIP3    H237686   0.664   6.596   7.483 -1.3988 -2.3788 -1.3813
 5351TIP3   OH237687   4.207   6.547   8.176  0.3989  0.0672  0.4678
 5351TIP3    H137688   4.225   6.466   8.224  2.3823  0.0412 -0.2480
 5351TIP3    H237689   4.112   6.547   8.165  0.2028 -1.4172  1.7521
 5352TIP3   OH237690   0.812   6.305   0.338 -0.6492 -0.4045  0.3581
 5352TIP3    H137691   0.879   6.350   0.388 -2.6746 -0.3612  3.2722
 5352TIP3    H237692   0.778   6.238   0.397 -3.0007 -0.5819 -1.0655
 5353TIP3   OH237693   2.428   2.966   1.705 -0.0150 -0.8324 -0.3146
 5353TIP3    H137694   2.353   2.965   1.764 -2.2829  2.2396 -2.7943
 5353TIP3    H237695   2.491   3.025   1.747 -1.1183  0.4425 -0.3986
 5354TIP3   OH237696   2.944   1.264   3.205  0.3595 -0.4531 -0.3632
 5354TIP3    H137697   2.979   1.238   3.290  2.6279 -0.5177 -1.2520
 5354TIP3    H237698   2.947   1.184   3.153 -0.2064 -0.2189 -0.7653
 5355TIP3   OH237699   0.477   2.469   0.919 -0.0600  0.3459  0.1395
 5355TIP3    H137700   0.447   2.553   0.884 -1.7653 -0.2657  0.0581
 5355TIP3    H237701   0.482   2.412   0.843 -1.0073 -0.2015  0.4685
 5356TIP3   OH237702   4.573   1.633   8.004  0.2584  0.2388 -0.1105
 5356TIP3    H137703   4.575   1.562   7.939 -2.1848  0.7189 -0.8219
 5356TIP3    H237704   4.652   1.684   7.986  1.1280 -1.2704 -0.7634
 5357TIP3   OH237705   3.527   1.060   0.864  0.2421 -0.7005 -0.4203
 5357TIP3    H137706   3.456   1.044   0.802 -0.8782 -0.1160  0.6850
 5357TIP3    H237707   3.561   1.146   0.840 -1.2377  0.2408  0.7298
 5358TIP3   OH237708   6.622   3.399   1.751  0.1631  0.2930  0.3806
 5358TIP3    H137709   6.680   3.367   1.820 -1.6135 -1.1836  1.2768
 5358TIP3    H237710   6.574   3.472   1.791  0.9700  1.1398 -0.1708
 5359TIP3   OH237711   3.065   4.529   3.345 -0.2917 -0.7550 -0.5216
 5359TIP3    H137712   3.147   4.511   3.298  1.7672  3.4964  0.8851
 5359TIP3    H237713   3.090   4.533   3.437 -2.1534  0.2976 -0.0093
 5360TIP3   OH237714   0.557   1.608   2.871  0.9529  0.4526  0.1708
 5360TIP3    H137715   0.514   1.579   2.791  2.8896  0.4755 -0.9274
 5360TIP3    H237716   0.490   1.659   2.917 -0.2107  0.4084 -1.4085
 5361TIP3   OH237717   4.559   0.117   0.227 -0.8230  0.2323  0.3884
 5361TIP3    H137718   4.646   0.158   0.222 -0.3705 -0.5221  1.5535
 5361TIP3    H237719   4.498   0.187   0.204  0.0906  0.7781 -0.4352
 5362TIP3   OH237720   3.840   3.631   8.049  0.1390  0.2333  0.1432
 5362TIP3    H137721   3.851   3.667   7.962  1.5033 -0.3942  0.0360
 5362TIP3    H237722   3.836   3.536   8.036  0.7177  0.1117  0.7946
 5363TIP3   OH237723   6.419   0.302   0.268 -0.3164  0.2085  0.7663
 5363TIP3    H137724   6.409   0.234   0.201 -0.2052  1.4372 -0.5436
 5363TIP3    H237725   6.330   0.326   0.291 -0.3719  0.5448  0.2306
 5364TIP3   OH237726   6.549   3.324   1.488  0.2655  0.4133  0.2099
 5364TIP3    H137727   6.469   3.272   1.499 -0.3264  1.2875  0.2035
 5364TIP3    H237728   6.562   3.366   1.573  0.4395  0.6469  0.0689
 5365TIP3   OH237729   3.832   1.413   0.965 -0.2630  0.6972  0.2190
 5365TIP3    H137730   3.906   1.370   1.007  0.0853  1.5361  0.4644
 5365TIP3    H237731   3.774   1.438   1.037 -1.4305 -1.0645 -0.0259
 5366TIP3   OH237732   6.255   3.953   1.057 -0.0551  0.1217  0.6358
 5366TIP3    H137733   6.206   3.874   1.080 -0.8285  0.0520 -1.0902
 5366TIP3    H237734   6.319   3.924   0.993  0.5584  0.6699  0.9914
 5367TIP3   OH237735   5.562   0.919   8.533  0.0236  0.0374 -0.1439
 5367TIP3    H137736   5.649   0.958   8.536 -0.7309  1.8033  0.3758
 5367TIP3    H237737   5.577   0.826   8.522  2.0003  0.2141  0.7477
 5368TIP3   OH237738   1.285   4.141   1.659  0.2895 -0.0350 -0.0139
 5368TIP3    H137739   1.194   4.169   1.666  0.6944  1.5447 -0.6633
 5368TIP3    H237740   1.331   4.216   1.621  1.5217 -1.4654 -1.5332
 5369TIP3   OH237741   0.868   3.217   2.024  0.2444  0.3081 -0.5628
 5369TIP3    H137742   0.837   3.140   2.071 -0.0160  0.2585 -0.8146
 5369TIP3    H237743   0.804   3.285   2.045  1.2167  0.8741  0.8117
 5370TIP3   OH237744   1.626   6.856   1.890  0.5946 -0.4472 -0.4695
 5370TIP3    H137745   1.647   6.840   1.798  0.3533  0.6470 -0.7358
 5370TIP3    H237746   1.628   6.952   1.898 -1.1956 -0.4291  0.2229
 5371TIP3   OH237747   3.205   4.592   7.922 -0.0298 -0.1096  0.3980
 5371TIP3    H137748   3.248   4.668   7.963  0.2021 -1.0258  1.9265
 5371TIP3    H237749   3.125   4.580   7.973 -1.1603  0.3913 -1.2048
 5372TIP3   OH237750   0.738   4.193   0.019 -0.0491 -0.4964  0.0549
 5372TIP3    H137751   0.730   4.103   0.050 -3.0834 -0.4370 -0.2507
 5372TIP3    H237752   0.673   4.201  -0.051  0.6849  1.7304 -0.4797
 5373TIP3   OH237753   2.744   5.381   2.745 -0.5260 -0.3152  0.0032
 5373TIP3    H137754   2.773   5.304   2.795 -0.6451 -1.0066 -0.9565
 5373TIP3    H237755   2.650   5.386   2.762 -0.5576 -0.5203 -0.0992
 5374TIP3   OH237756   3.387   1.769   1.194  1.0770  0.4620 -0.4170
 5374TIP3    H137757   3.322   1.829   1.230  0.7684 -0.6598  0.9842
 5374TIP3    H237758   3.427   1.818   1.122 -1.8958  0.9054 -1.9397
 5375TIP3   OH237759   2.334   0.324   8.634  0.0175  0.1899 -0.0565
 5375TIP3    H137760   2.360   0.374   8.711 -0.8760  1.4880 -0.5581
 5375TIP3    H237761   2.410   0.329   8.576 -0.4385  2.0287 -0.5774
 5376TIP3   OH237762   1.144   3.146   8.008 -0.1065 -0.0018  0.2799
 5376TIP3    H137763   1.156   3.119   7.917 -0.7199 -0.4380  0.3250
 5376TIP3    H237764   1.053   3.173   8.013 -0.0960 -0.0590  0.7902
 5377TIP3   OH237765   1.165   6.206   7.544 -0.1729  0.6200  0.7172
 5377TIP3    H137766   1.199   6.289   7.510 -0.1855  1.1513  1.9251
 5377TIP3    H237767   1.093   6.232   7.601 -2.1054 -0.4470 -1.1248
 5378TIP3   OH237768   5.405   1.248   0.495 -0.1140  0.3836 -0.5053
 5378TIP3    H137769   5.442   1.237   0.407 -1.0678  0.6483 -0.9488
 5378TIP3    H237770   5.451   1.182   0.548 -1.0099 -1.2692 -1.6726
 5379TIP3   OH237771   1.285   4.134   2.305  0.0864 -0.0175 -0.2789
 5379TIP3    H137772   1.379   4.126   2.316 -0.0035  1.6263  2.8185
 5379TIP3    H237773   1.274   4.199   2.235  1.2554  0.0130 -0.4457
 5380TIP3   OH237774   2.066   6.797   8.589  0.1374 -0.5589  0.2664
 5380TIP3    H137775   2.095   6.880   8.551  0.2767 -2.2938 -3.9728
 5380TIP3    H237776   2.146   6.743   8.592 -0.2607 -1.1163  1.3363
 5381TIP3   OH237777   4.833   3.223   1.998 -0.3218 -0.2420 -0.3233
 5381TIP3    H137778   4.837   3.130   1.975  0.9377 -0.5533  1.0750
 5381TIP3    H237779   4.743   3.249   1.976 -1.1278 -2.1307  0.5707
 5382TIP3   OH237780   0.341   3.250   2.079  0.3835 -0.0965 -0.1817
 5382TIP3    H137781   0.248   3.245   2.102  0.7273 -0.1023  1.2884
 5382TIP3    H237782   0.356   3.343   2.062 -0.4747 -0.4140 -3.1810
 5383TIP3   OH237783   4.583   5.260   1.097 -0.0627 -0.5858 -0.1733
 5383TIP3    H137784   4.671   5.227   1.115 -0.0871 -1.1772 -1.0522
 5383TIP3    H237785   4.583   5.278   1.003 -0.4289  0.8275  0.0799
 5384TIP3   OH237786   5.381   4.493   7.931  0.1493  0.0648  0.3066
 5384TIP3    H137787   5.330   4.572   7.945 -0.4157 -0.4153  1.0050
 5384TIP3    H237788   5.349   4.431   7.997  0.5082 -0.7762 -0.2847
 5385TIP3   OH237789   3.776   6.261   2.668  0.3804 -0.7383  0.4862
 5385TIP3    H137790   3.783   6.333   2.731 -1.1894  0.5583 -0.7254
 5385TIP3    H237791   3.842   6.281   2.601  0.5778 -0.9405  0.6188
 5386TIP3   OH237792   6.644   5.162   0.223  0.4621  0.5028 -0.4487
 5386TIP3    H137793   6.693   5.092   0.264  0.4797  1.1262  0.6206
 5386TIP3    H237794   6.694   5.241   0.243  0.7156  0.7811 -2.0594
 5387TIP3   OH237795   0.026   5.974   2.174  0.1278 -0.0514  0.3230
 5387TIP3    H137796   0.075   5.913   2.229 -0.2983 -1.5275 -0.8892
 5387TIP3    H237797  -0.049   5.924   2.143  0.2141  0.8073 -1.3807
 5388TIP3   OH237798   2.968   3.386   2.600 -0.4920  0.0051 -0.7017
 5388TIP3    H137799   2.979   3.479   2.618  0.3145  0.5421 -3.4788
 5388TIP3    H237800   3.017   3.342   2.669  2.0418  1.7744 -1.2530
 5389TIP3   OH237801   2.455   4.195   0.326  0.2322  0.2548  0.1650
 5389TIP3    H137802   2.446   4.170   0.418  1.7373  2.1726  0.9127
 5389TIP3    H237803   2.522   4.136   0.291 -0.3100 -0.4494  0.3044
 5390TIP3   OH237804   6.500   0.980   3.405  0.1378  0.6174  0.3865
 5390TIP3    H137805   6.479   1.053   3.346  0.3083 -0.5802 -1.2512
 5390TIP3    H237806   6.437   0.912   3.381  1.6554 -0.6928  0.0056
 5391TIP3   OH237807   2.864   5.265   1.293 -0.0945  0.2265  0.2338
 5391TIP3    H137808   2.826   5.348   1.323 -2.0043 -0.4527 -0.1414
 5391TIP3    H237809   2.953   5.265   1.328 -0.5622  1.7459  1.5462
 5392TIP3   OH237810   6.570   1.132   0.536 -0.5681  0.1348  0.0122
 5392TIP3    H137811   6.616   1.092   0.610  0.3716  1.6544  0.3066
 5392TIP3    H237812   6.526   1.060   0.492 -0.1842 -0.9647  1.3852
 5393TIP3   OH237813   3.974   2.028   7.485  0.0271 -0.4903  0.3520
 5393TIP3    H137814   4.051   2.063   7.440  1.3533 -2.0657  1.2758
 5393TIP3    H237815   3.970   1.936   7.457 -0.4607 -0.8893  1.6373
 5394TIP3   OH237816   1.891   0.125   2.654 -0.0290 -0.1319  0.8542
 5394TIP3    H137817   1.800   0.154   2.657 -0.0649 -0.3434  2.0026
 5394TIP3    H237818   1.892   0.055   2.588 -0.5822  0.2254  0.4575
 5395TIP3   OH237819   2.671   3.198   8.475 -0.3486  0.6189 -0.2496
 5395TIP3    H137820   2.750   3.146   8.487  0.1716  1.4294 -0.0738
 5395TIP3    H237821   2.599   3.136   8.491  0.2536  0.0168  0.1976
 5396TIP3   OH237822   5.051   1.692   8.391  0.1885 -0.8457 -0.0392
 5396TIP3    H137823   4.993   1.731   8.325 -1.1060 -2.1279  0.2754
 5396TIP3    H237824   4.996   1.625   8.434  1.9246 -2.1396  0.2626
 5397TIP3   OH237825   2.455   3.984   7.317  0.0263 -0.1422  0.3085
 5397TIP3    H137826   2.368   3.946   7.311 -0.2083  0.4998 -0.5706
 5397TIP3    H237827   2.502   3.949   7.241  0.5192 -0.4441  0.7465
 5398TIP3   OH237828   6.596   3.749   8.499  0.1343 -0.4223 -0.4616
 5398TIP3    H137829   6.605   3.742   8.404  0.1368 -2.6346 -0.3580
 5398TIP3    H237830   6.501   3.758   8.513  0.1888  0.5973 -0.6777
 5399TIP3   OH237831   1.120   6.849   0.309 -0.1370  0.0136 -0.3707
 5399TIP3    H137832   1.115   6.757   0.283 -1.9763 -0.1203  0.3191
 5399TIP3    H237833   1.193   6.884   0.259 -0.2142 -1.5059 -1.6191
 5400TIP3   OH237834   2.073   0.196   8.588 -0.1322 -0.3071  0.3651
 5400TIP3    H137835   2.021   0.222   8.664 -1.1278 -0.1463 -0.3605
 5400TIP3    H237836   2.161   0.228   8.607  0.4859 -3.0786  2.9585
 5401TIP3   OH237837   6.672   5.572   1.679 -0.5871  0.1663  0.1961
 5401TIP3    H137838   6.658   5.596   1.770  0.8996 -3.0623  1.4142
 5401TIP3    H237839   6.585   5.546   1.647 -0.7075 -1.2938  1.6003
 5402TIP3   OH237840   4.793   6.635   0.529  0.2019 -0.2359 -0.0289
 5402TIP3    H137841   4.701   6.661   0.521  0.4399  0.2361 -1.5337
 5402TIP3    H237842   4.840   6.717   0.546  0.2490 -0.6287  2.0676
 5403TIP3   OH237843   2.028   3.061   0.888 -0.0989 -0.3706 -0.2879
 5403TIP3    H137844   1.953   3.002   0.896  0.4313 -0.9337  1.0446
 5403TIP3    H237845   1.991   3.145   0.863 -1.6722  0.2359  3.3394
 5404TIP3   OH237846   5.380   4.423   0.571 -1.2177  0.1417 -0.1365
 5404TIP3    H137847   5.358   4.331   0.588 -1.7444  0.3424  0.2861
 5404TIP3    H237848   5.370   4.466   0.656 -0.1189  0.4288 -0.1433
 5405TIP3   OH237849   4.940   4.311   0.050  0.0545  0.3279  0.0453
 5405TIP3    H137850   5.019   4.259   0.035  0.6042  1.3775 -0.8442
 5405TIP3    H237851   4.879   4.284  -0.018 -0.0715  0.0605  0.2641
 5406TIP3   OH237852   3.353   5.303   2.123  0.2145 -0.3745  0.1099
 5406TIP3    H137853   3.288   5.248   2.165  0.2529 -0.4411  0.0820
 5406TIP3    H237854   3.434   5.287   2.172  0.6819 -1.7504 -1.0340
 5407TIP3   OH237855   3.399   2.029   1.025  0.3034 -0.2998  0.1086
 5407TIP3    H137856   3.346   2.099   0.988  1.1491  0.3822  0.1566
 5407TIP3    H237857   3.484   2.037   0.980  0.7860 -0.5474  0.9539
 5408TIP3   OH237858   4.381   5.883   1.087 -0.2318  0.1034 -0.0006
 5408TIP3    H137859   4.306   5.921   1.131  1.3517  2.8573  0.5752
 5408TIP3    H237860   4.364   5.896   0.993 -1.4793 -1.5020 -0.0396
 5409TIP3   OH237861   4.184   3.874   7.829 -0.4693 -0.0980 -0.1104
 5409TIP3    H137862   4.150   3.850   7.743 -0.7084 -2.6798  0.6077
 5409TIP3    H237863   4.255   3.811   7.844 -0.4416  0.3045  1.5726
 5410TIP3   OH237864   1.713   2.854   8.488 -0.2615 -0.0258  0.5611
 5410TIP3    H137865   1.638   2.899   8.449  0.2432  0.4135  0.0877
 5410TIP3    H237866   1.781   2.922   8.494  1.1476 -1.0976 -1.8459
 5411TIP3   OH237867   5.566   0.375   2.603 -0.1392 -0.1995  0.2699
 5411TIP3    H137868   5.563   0.385   2.508  1.7660 -0.1655  0.1723
 5411TIP3    H237869   5.623   0.446   2.633 -1.2568  0.2118  1.5396
 5412TIP3   OH237870   5.376   2.883   0.887 -0.1437  1.2362 -0.5589
 5412TIP3    H137871   5.470   2.887   0.901 -0.0835 -1.5346  0.5669
 5412TIP3    H237872   5.365   2.843   0.801 -0.2250 -0.3798  0.1790
 5413TIP3   OH237873   5.933   6.645   1.358  0.5018 -0.3506  0.2226
 5413TIP3    H137874   6.009   6.615   1.308  0.5966 -0.6598  0.5489
 5413TIP3    H237875   5.971   6.689   1.434  0.3568 -0.4759  0.3672
 5414TIP3   OH237876   2.891   4.913   0.107  1.0539  0.2586 -0.5277
 5414TIP3    H137877   2.976   4.880   0.137  0.6540  0.0310  0.4047
 5414TIP3    H237878   2.831   4.839   0.121  0.3448  1.0237  0.6203
 5415TIP3   OH237879   2.747   6.406   7.432  0.0571 -0.7306  0.0391
 5415TIP3    H137880   2.801   6.482   7.411 -0.3361 -0.2119  0.8154
 5415TIP3    H237881   2.784   6.373   7.514 -0.6540 -0.4852  0.4764
 5416TIP3   OH237882   2.726   5.987   2.018  0.2100  0.7017 -0.1392
 5416TIP3    H137883   2.742   5.913   2.076 -0.6810  0.4160 -0.2511
 5416TIP3    H237884   2.802   6.043   2.030  0.6228  0.0482  0.3755
 5417TIP3   OH237885   2.578   1.947   2.628 -0.1967 -0.1849  0.4201
 5417TIP3    H137886   2.595   1.964   2.535 -0.7379 -1.9390 -0.0365
 5417TIP3    H237887   2.643   2.000   2.674  1.3433 -0.7273 -1.0159
 5418TIP3   OH237888   4.240   1.129   2.601  0.8277 -0.2181 -0.2479
 5418TIP3    H137889   4.150   1.160   2.608  0.5207 -1.0093 -0.5206
 5418TIP3    H237890   4.294   1.207   2.615  0.0869  0.8922 -2.8511
 5419TIP3   OH237891   3.268   4.243   2.651 -0.0257  0.0049 -0.4749
 5419TIP3    H137892   3.238   4.257   2.741 -0.7306  0.0935 -0.7175
 5419TIP3    H237893   3.348   4.190   2.660 -1.7064 -2.6083  0.0676
 5420TIP3   OH237894   3.401   6.453   0.030  0.8740 -0.1858  0.4465
 5420TIP3    H137895   3.475   6.409  -0.012  2.2119  0.1056  2.3736
 5420TIP3    H237896   3.420   6.546   0.020 -0.6739 -0.0264 -1.4321
 5421TIP3   OH237897   6.091   3.172   0.815  0.0690  0.2350  0.0368
 5421TIP3    H137898   6.036   3.118   0.757  0.9112 -0.4511 -0.1403
 5421TIP3    H237899   6.138   3.230   0.756  0.9661 -0.4995  0.0059
 5422TIP3   OH237900   6.279   3.909   8.418 -0.5896  0.1090  0.1626
 5422TIP3    H137901   6.196   3.912   8.465 -0.9983  1.3680 -0.5648
 5422TIP3    H237902   6.340   3.959   8.472 -0.7431  0.5590 -0.0793
 5423TIP3   OH237903   0.140   0.860   1.351  0.3083 -0.2955  0.0339
 5423TIP3    H137904   0.143   0.792   1.418  0.2240 -0.2457  0.0879
 5423TIP3    H237905   0.048   0.865   1.326  0.5619 -1.4725 -1.2693
 5424TIP3   OH237906   4.403   1.612   2.341  0.2496 -0.8101 -0.1689
 5424TIP3    H137907   4.315   1.592   2.371 -0.0784 -0.0082 -0.5792
 5424TIP3    H237908   4.415   1.557   2.263  0.3114 -1.3094  0.1907
 5425TIP3   OH237909   5.278   4.336   7.597  0.0614  0.2408 -0.6377
 5425TIP3    H137910   5.320   4.421   7.610 -0.8166  0.7470 -1.0004
 5425TIP3    H237911   5.185   4.357   7.592 -0.2587 -0.8713  0.3351
 5426TIP3   OH237912   1.128   0.709   7.837 -0.0421  0.0568 -0.3550
 5426TIP3    H137913   1.124   0.734   7.745  0.0092  1.9931  0.1222
 5426TIP3    H237914   1.222   0.705   7.856 -0.0466 -0.7256 -0.4671
 5427TIP3   OH237915   5.737   6.037   8.143 -0.8954 -0.0716  0.3853
 5427TIP3    H137916   5.770   6.127   8.140  1.3289 -0.8780 -0.8095
 5427TIP3    H237917   5.778   5.993   8.069 -0.7387 -2.4907  1.8070
 5428TIP3   OH237918   0.730   2.006   1.566 -0.1689  0.4055  0.2878
 5428TIP3    H137919   0.826   2.005   1.575 -0.1834  0.3040  0.4377
 5428TIP3    H237920   0.714   2.058   1.487 -0.0368  1.2175  0.7880
 5429TIP3   OH237921   1.130   3.093   2.562  0.1359 -0.3056 -0.1156
 5429TIP3    H137922   1.114   3.164   2.624 -0.7820 -0.3383 -0.2885
 5429TIP3    H237923   1.125   3.014   2.615 -0.8448 -0.3456 -0.2451
 5430TIP3   OH237924   0.194   3.660   0.533  0.0852 -0.0339  0.0007
 5430TIP3    H137925   0.203   3.755   0.530  0.7350 -0.1108 -0.7259
 5430TIP3    H237926   0.112   3.645   0.580  0.7812  0.8539  1.5917
 5431TIP3   OH237927   6.431   3.201   8.651  0.3366 -0.0371 -0.5402
 5431TIP3    H137928   6.446   3.296   8.649  0.4223 -0.0299  0.1172
 5431TIP3    H237929   6.375   3.188   8.727  0.8346 -0.5887 -0.2609
 5432TIP3   OH237930   6.089   4.019   0.190  0.3287  0.7273 -0.2942
 5432TIP3    H137931   6.138   4.024   0.272  0.2215  2.4419 -0.2948
 5432TIP3    H237932   6.127   3.944   0.144  1.4705  0.7002  0.6436
 5433TIP3   OH237933   5.867   1.623   0.247  0.1156 -0.0696  0.4411
 5433TIP3    H137934   5.781   1.611   0.287 -0.0464  0.3455  0.2140
 5433TIP3    H237935   5.901   1.704   0.284  0.3098 -0.1058  0.3480
 5434TIP3   OH237936   5.972   0.011   0.105  0.0821 -0.1114  0.3506
 5434TIP3    H137937   5.967  -0.085   0.102 -0.1452 -0.1312  1.1711
 5434TIP3    H237938   6.049   0.032   0.052 -0.3664 -0.6876 -0.5633
 5435TIP3   OH237939   3.120   0.231   2.986 -0.7696 -0.0142  0.5315
 5435TIP3    H137940   3.202   0.271   3.015 -0.7311 -0.5803  1.2310
 5435TIP3    H237941   3.072   0.213   3.067 -0.4680 -2.0441  0.3100
 5436TIP3   OH237942   3.954   5.745   8.115 -0.6679 -0.2636 -0.1980
 5436TIP3    H137943   3.876   5.749   8.171 -0.4961  0.9964 -0.0303
 5436TIP3    H237944   3.930   5.682   8.047 -1.4288 -0.7093  0.4560
 5437TIP3   OH237945   4.207   4.299   0.829  0.4092  0.0985 -0.4572
 5437TIP3    H137946   4.291   4.345   0.836 -0.3976  1.5479  0.2076
 5437TIP3    H237947   4.151   4.359   0.780 -0.6537 -0.2254  0.3269
 5438TIP3   OH237948   0.636   2.060   2.976  0.3475 -0.3382  0.3174
 5438TIP3    H137949   0.704   2.008   3.019 -0.0298  0.0742  1.4579
 5438TIP3    H237950   0.611   2.126   3.042  0.5073  1.0175 -0.9319
 5439TIP3   OH237951   1.029   2.519   2.114 -0.6601 -0.0351  0.4154
 5439TIP3    H137952   0.972   2.587   2.078  1.3978  0.9779 -1.1553
 5439TIP3    H237953   1.103   2.566   2.150 -0.1487 -1.3663  1.1641
 5440TIP3   OH237954   0.021   2.103   1.118  0.2929 -0.3232  0.0054
 5440TIP3    H137955  -0.055   2.058   1.082 -0.4722  2.0705 -1.6728
 5440TIP3    H237956   0.043   2.169   1.052  1.0636  1.9905  2.3809
 5441TIP3   OH237957   6.420   1.462   8.439 -0.4712  0.3042  0.0053
 5441TIP3    H137958   6.510   1.437   8.415 -0.7218 -0.6828  0.0324
 5441TIP3    H237959   6.411   1.433   8.530 -0.8615  0.2565 -0.0470
 5442TIP3   OH237960   2.225   1.920   2.487  0.4343 -0.2236 -0.2717
 5442TIP3    H137961   2.288   1.924   2.559  2.2892  0.0799 -1.8467
 5442TIP3    H237962   2.145   1.958   2.523  1.0803 -0.7504  1.8361
 5443TIP3   OH237963   0.380   6.687   0.542  0.4473  0.0567 -0.1972
 5443TIP3    H137964   0.475   6.693   0.543  0.5404 -1.1681 -0.3378
 5443TIP3    H237965   0.350   6.778   0.539  1.6217  0.4283 -1.6597
 5444TIP3   OH237966   4.352   5.552   2.378  0.3244 -0.8266  0.3084
 5444TIP3    H137967   4.298   5.589   2.308 -1.2019 -2.7948  0.3436
 5444TIP3    H237968   4.321   5.596   2.458 -0.4925 -1.1791  0.1914
 5445TIP3   OH237969   4.915   3.479   8.476 -0.3039  0.1696 -0.3448
 5445TIP3    H137970   4.838   3.520   8.517  1.9075  2.7700  1.6043
 5445TIP3    H237971   4.941   3.411   8.539  0.5357  1.1675  0.4137
 5446TIP3   OH237972   4.897   3.072   1.304 -0.1153 -0.2081  0.4732
 5446TIP3    H137973   4.888   3.060   1.399  0.7059  2.4771  0.9892
 5446TIP3    H237974   4.813   3.109   1.277  0.1815  0.4691  0.4600
 5447TIP3   OH237975   1.163   5.225   0.294  0.1927  0.3549 -0.2099
 5447TIP3    H137976   1.224   5.173   0.346 -0.1292 -0.5025 -0.6783
 5447TIP3    H237977   1.128   5.289   0.356  0.3701 -0.1696  0.4440
 5448TIP3   OH237978   2.033   0.993   7.998 -0.5014  0.6156 -0.7291
 5448TIP3    H137979   2.113   0.995   8.052 -0.9481  0.0454 -0.0315
 5448TIP3    H237980   1.991   0.910   8.021 -0.7601  0.4199 -1.8933
 5449TIP3   OH237981   2.787   4.540   8.361  0.5820  0.2992  0.0520
 5449TIP3    H137982   2.724   4.535   8.432  1.5032  1.5849  1.0096
 5449TIP3    H237983   2.871   4.515   8.401  0.8748 -0.4136 -0.9514
 5450TIP3   OH237984   1.725   3.076   2.693 -0.0764 -0.0002  0.6457
 5450TIP3    H137985   1.698   3.168   2.692  0.5661  0.1925  0.3040
 5450TIP3    H237986   1.720   3.050   2.784 -1.7556 -0.0814  0.5627
 5451TIP3   OH237987   6.871   1.107   0.236  0.0025  0.3559  0.0722
 5451TIP3    H137988   6.849   1.033   0.293 -0.7251 -0.8436 -1.6830
 5451TIP3    H237989   6.964   1.097   0.218 -0.2556 -0.5988 -0.7777
 5452TIP3   OH237990   1.475   2.756   2.925  0.2571 -0.3762 -0.1136
 5452TIP3    H137991   1.457   2.735   2.833  0.4275  2.3091 -0.8509
 5452TIP3    H237992   1.395   2.732   2.971 -0.2471 -0.7594 -1.1502
 5453TIP3   OH237993   0.758   5.375   7.033  0.0170  0.6263  0.2079
 5453TIP3    H137994   0.777   5.460   7.072 -1.6015  1.3237 -0.4202
 5453TIP3    H237995   0.748   5.316   7.108 -0.3396  1.3413  0.7348
 5454TIP3   OH237996   6.754   4.657   1.053 -0.0614 -0.1404 -0.3289
 5454TIP3    H137997   6.708   4.590   1.002  2.1821 -0.7659 -1.6955
 5454TIP3    H237998   6.706   4.738   1.037 -1.0308 -0.8657 -1.1679
 5455TIP3   OH237999   2.488   2.984   8.429 -0.9458  0.1237 -0.1242
 5455TIP3    H138000   2.553   2.927   8.387  0.5624  0.8680  1.0830
 5455TIP3    H238001   2.438   2.925   8.486 -1.0718 -0.3880 -0.7505
 5456TIP3   OH238002   4.030   1.496   0.328  0.7054 -0.2750 -0.1658
 5456TIP3    H138003   4.066   1.581   0.305  3.1373 -1.2684 -0.3789
 5456TIP3    H238004   4.049   1.441   0.251  2.6492 -1.8845  1.3433
 5457TIP3   OH238005   0.019   3.668   2.439  0.2335  0.3677  0.1686
 5457TIP3    H138006   0.072   3.590   2.422 -0.6525  0.0744 -1.4309
 5457TIP3    H238007  -0.006   3.660   2.531  1.6355 -0.2798  0.5286
 5458TIP3   OH238008   5.917   4.005   7.635 -0.4484  0.1698 -0.1614
 5458TIP3    H138009   5.926   4.082   7.579 -0.7111  0.9924  0.9203
 5458TIP3    H238010   5.843   4.024   7.691  0.7654  0.0435  1.5490
 5459TIP3   OH238011   5.225   1.478   3.355  0.0147 -0.0641 -0.2621
 5459TIP3    H138012   5.287   1.445   3.420  0.0754 -0.1462 -0.3627
 5459TIP3    H238013   5.139   1.470   3.398  0.0644 -0.0358 -0.1580
 5460TIP3   OH238014   2.302   5.829   2.798 -0.3403 -0.5309  0.1513
 5460TIP3    H138015   2.323   5.868   2.713 -0.6001 -0.6811  0.0180
 5460TIP3    H238016   2.285   5.904   2.855 -0.8511 -0.4471 -0.1087
 5461TIP3   OH238017   4.926   3.095   8.362  0.4144  0.2970 -0.5104
 5461TIP3    H138018   4.920   3.110   8.456 -2.2107  3.4669 -0.9660
 5461TIP3    H238019   4.886   3.009   8.348  1.6405 -0.6075  1.2800
 5462TIP3   OH238020   0.287   5.267   8.129 -0.3397  0.2302 -0.7023
 5462TIP3    H138021   0.196   5.250   8.104 -0.4290  0.2363 -0.3837
 5462TIP3    H238022   0.314   5.187   8.174 -0.2656  0.3236 -0.5811
 5463TIP3   OH238023   3.805   1.441   3.135  0.4690 -0.1595 -0.3437
 5463TIP3    H138024   3.759   1.451   3.218 -1.4612 -1.7436 -1.1424
 5463TIP3    H238025   3.882   1.497   3.143  1.7459 -2.1408  3.4759
 5464TIP3   OH238026   6.788   2.291   2.084  0.5787 -0.1979 -0.1218
 5464TIP3    H138027   6.698   2.315   2.105  0.2103 -1.1451 -0.5586
 5464TIP3    H238028   6.841   2.337   2.150 -0.2736 -0.1917  0.5743
 5465TIP3   OH238029   0.067   0.044   2.956  0.4701 -0.0812 -0.4295
 5465TIP3    H138030   0.107   0.086   3.033  1.4323  0.4186 -1.1757
 5465TIP3    H238031  -0.022   0.024   2.984  0.4694  1.0289  0.4814
 5466TIP3   OH238032   2.931   5.012   2.397  0.8466  0.6774  0.0860
 5466TIP3    H138033   3.018   5.010   2.436  0.5586  2.5557  0.9310
 5466TIP3    H238034   2.873   4.981   2.466  0.7359  0.3834 -0.1388
 5467TIP3   OH238035   1.122   1.992   2.997 -0.3035  0.6187  0.1310
 5467TIP3    H138036   1.195   2.053   3.003  1.2201 -1.1506  0.7194
 5467TIP3    H238037   1.046   2.041   3.026  0.5006  2.7179 -1.0907
 5468TIP3   OH238038   0.568   4.316   1.057 -0.6134  0.1359 -0.4188
 5468TIP3    H138039   0.567   4.411   1.053 -1.3301  0.1575  0.1811
 5468TIP3    H238040   0.628   4.296   1.129  1.8404  0.0383 -2.3492
 5469TIP3   OH238041   3.934   6.401   1.423  0.3601  0.6377 -0.3011
 5469TIP3    H138042   3.983   6.474   1.386 -1.0352  1.3168 -0.8719
 5469TIP3    H238043   3.861   6.441   1.469  0.1813 -0.3575  0.3207
 5470TIP3   OH238044   6.607   4.527   1.285  0.1379  0.5962  0.1525
 5470TIP3    H138045   6.702   4.529   1.273  0.3494  1.1824  1.7934
 5470TIP3    H238046   6.574   4.484   1.206  1.6914  1.1350 -0.8261
 5471TIP3   OH238047   1.352   2.201   2.724  0.3617 -0.0604 -0.0643
 5471TIP3    H138048   1.400   2.281   2.743  0.5350  0.3998 -2.2736
 5471TIP3    H238049   1.262   2.230   2.707  0.2058 -0.4530  0.0737
 5472TIP3   OH238050   5.971   2.067   2.008 -0.1571  0.2791  0.1347
 5472TIP3    H138051   5.971   2.123   2.086 -1.0649  0.7331 -0.1817
 5472TIP3    H238052   6.033   1.997   2.029  1.2426  1.5594  0.4089
 5473TIP3   OH238053   5.825   6.900   2.739  0.2423 -0.3390  0.5695
 5473TIP3    H138054   5.851   6.886   2.830 -0.1564  1.0100  0.9092
 5473TIP3    H238055   5.908   6.903   2.691  0.5928  1.0656  1.2140
 5474TIP3   OH238056   3.183   2.138   2.498  0.2572  0.5234 -0.5101
 5474TIP3    H138057   3.210   2.054   2.536 -0.9053  0.2247 -0.3127
 5474TIP3    H238058   3.124   2.175   2.563 -1.3219  0.2732 -1.7439
 5475TIP3   OH238059   4.173   4.337   1.097 -0.4231 -0.0949 -0.0338
 5475TIP3    H138060   4.173   4.350   1.002  0.3548 -1.6429 -0.2676
 5475TIP3    H238061   4.265   4.326   1.120 -0.6324 -0.0333  0.8693
 5476TIP3   OH238062   3.719   4.349   7.962 -0.0629 -0.4422  0.2744
 5476TIP3    H138063   3.664   4.294   8.017  2.8116 -2.3188  1.5377
 5476TIP3    H238064   3.741   4.424   8.017 -1.5917  0.5448 -0.3912
 5477TIP3   OH238065   4.284   3.942   1.880 -0.1019 -0.4881  0.0198
 5477TIP3    H138066   4.315   3.971   1.966 -0.8593 -0.4382  0.2805
 5477TIP3    H238067   4.227   4.012   1.850 -1.1890 -1.2578  0.2304
 5478TIP3   OH238068   5.235   4.442   8.493 -0.3218  0.3450  0.2320
 5478TIP3    H138069   5.209   4.438   8.401 -1.3528 -0.8305  0.5365
 5478TIP3    H238070   5.200   4.361   8.531  0.4234  0.6229  1.5723
 5479TIP3   OH238071   6.566   6.761   0.191  0.1787 -0.4531  0.2830
 5479TIP3    H138072   6.489   6.757   0.247  0.5502 -1.2288  0.7625
 5479TIP3    H238073   6.565   6.679   0.142 -0.0212  0.1210 -0.7098
 5480TIP3   OH238074   6.892   2.534   0.180  0.6656 -0.3631 -0.2764
 5480TIP3    H138075   6.878   2.574   0.266  4.0145 -0.7149  0.5911
 5480TIP3    H238076   6.823   2.468   0.173 -0.7205  0.8068  1.3639
 5481TIP3   OH238077   5.609   5.166   0.661 -0.2540 -0.2043 -0.5923
 5481TIP3    H138078   5.688   5.138   0.616 -0.7875 -0.8716 -1.1329
 5481TIP3    H238079   5.544   5.178   0.592 -0.7555 -0.1140 -0.1171
 5482TIP3   OH238080   3.725   4.958   0.971  1.0983 -0.0535 -0.1399
 5482TIP3    H138081   3.706   4.922   0.884  1.8627 -1.2715  0.1721
 5482TIP3    H238082   3.645   4.945   1.021  1.4094 -1.5857  0.0274
 5483TIP3   OH238083   6.684   6.054   8.084 -0.6748  0.6804  0.2324
 5483TIP3    H138084   6.711   6.018   8.000  0.2755  1.0179  0.3836
 5483TIP3    H238085   6.699   5.983   8.146  0.4843  1.0514  0.4100
 5484TIP3   OH238086   2.653   0.368   0.759 -0.0202 -0.4072  0.1276
 5484TIP3    H138087   2.688   0.348   0.672  1.5877  1.4046  0.2970
 5484TIP3    H238088   2.729   0.390   0.811 -1.1777  0.9612  1.3155
 5485TIP3   OH238089   6.077   4.899   0.611 -0.2540  0.0997 -0.0153
 5485TIP3    H138090   6.124   4.921   0.691  0.9487  1.0781 -0.9662
 5485TIP3    H238091   6.099   4.808   0.594 -1.8697 -0.6685  1.6377
 5486TIP3   OH238092   3.735   1.260   7.960  1.1548 -0.0858  0.6111
 5486TIP3    H138093   3.687   1.191   8.006 -2.8526 -0.0356 -2.8869
 5486TIP3    H238094   3.746   1.329   8.025 -2.2938 -0.7836  2.1570
 5487TIP3   OH238095   4.464   1.271   0.267 -0.0697 -0.3895 -0.4138
 5487TIP3    H138096   4.391   1.262   0.206 -0.4207  0.6568 -0.1611
 5487TIP3    H238097   4.437   1.224   0.345 -0.8176  0.6522 -0.0303
 5488TIP3   OH238098   3.650   2.685   2.566  0.7651  0.3038 -0.1563
 5488TIP3    H138099   3.708   2.738   2.621 -0.0365  0.7293  0.2813
 5488TIP3    H238100   3.588   2.646   2.627  0.5527 -0.1128 -0.6334
 5489TIP3   OH238101   0.918   2.587   7.422  0.4073  0.1666  0.6793
 5489TIP3    H138102   0.859   2.627   7.486 -0.8344 -1.1596  0.4187
 5489TIP3    H238103   0.925   2.495   7.450  1.7398  0.1068  0.2461
 5490TIP3   OH238104   1.956   1.251   8.472  0.3827  0.2717 -0.4600
 5490TIP3    H138105   1.991   1.325   8.422 -0.6767  0.9655 -0.1986
 5490TIP3    H238106   1.869   1.236   8.436  1.0192 -1.6492 -1.3127
 5491TIP3   OH238107   0.099   1.549   3.055 -0.1245  0.1119 -0.3045
 5491TIP3    H138108   0.149   1.620   3.015  2.1171 -1.3611 -0.2949
 5491TIP3    H238109   0.050   1.510   2.983 -0.1846  0.7187 -0.5943
 5492TIP3   OH238110   1.793   6.682   2.569 -0.9122  0.1633 -0.0480
 5492TIP3    H138111   1.863   6.630   2.607 -1.4731 -2.0663 -1.8681
 5492TIP3    H238112   1.832   6.721   2.490 -0.9619  1.2575  0.4406
 5493TIP3   OH238113   3.358   2.242   7.414 -0.1890  0.6288 -0.4204
 5493TIP3    H138114   3.451   2.264   7.420 -0.2678  0.6023  2.1001
 5493TIP3    H238115   3.352   2.153   7.448 -1.3846  1.6442  2.4176
 5494TIP3   OH238116   0.742   2.365   7.683 -0.4424  0.3782  0.0622
 5494TIP3    H138117   0.672   2.430   7.672  0.6675  1.4342 -1.2726
 5494TIP3    H238118   0.803   2.385   7.612  1.6499  0.0661  1.6744
 5495TIP3   OH238119   0.119   2.852   0.740 -0.3649  0.0142  0.8469
 5495TIP3    H138120   0.166   2.878   0.661  0.7408 -1.0937  1.1016
 5495TIP3    H238121   0.027   2.854   0.715 -0.1368  1.2158  0.0192
 5496TIP3   OH238122   0.883   2.175   2.770  0.1345  0.2512 -0.4893
 5496TIP3    H138123   0.875   2.157   2.676  1.1813 -0.2765 -0.4847
 5496TIP3    H238124   0.809   2.128   2.809 -1.7042  2.3333 -1.2316
 5497TIP3   OH238125   5.640   0.952   0.892 -0.2741  0.3848  0.1805
 5497TIP3    H138126   5.723   0.989   0.863  0.3503 -0.8995  0.2244
 5497TIP3    H238127   5.645   0.860   0.866 -0.0700 -0.6564  3.4143
 5498TIP3   OH238128   2.538   5.743   8.273 -0.2091  1.4669 -0.4708
 5498TIP3    H138129   2.610   5.805   8.287  2.2564 -1.1822 -0.4773
 5498TIP3    H238130   2.503   5.765   8.186  0.4423  2.9482 -0.3797
 5499TIP3   OH238131   3.589   4.539   3.620  0.3001 -0.4723  0.3076
 5499TIP3    H138132   3.659   4.477   3.643  0.6404 -1.1521 -2.2152
 5499TIP3    H238133   3.588   4.538   3.524 -1.7059  1.2222  0.2577
 5500TIP3   OH238134   0.481   0.541   3.267 -0.1499  0.3330  0.2369
 5500TIP3    H138135   0.404   0.568   3.318  0.5832 -1.2168  2.2749
 5500TIP3    H238136   0.453   0.462   3.221  0.4755 -0.9283  1.9067
 5501TIP3   OH238137   2.884   2.769   1.675  0.7136 -0.4619 -0.0313
 5501TIP3    H138138   2.859   2.815   1.594  0.0790  1.2229  1.0719
 5501TIP3    H238139   2.826   2.693   1.677 -0.0874  0.1134 -0.5798
 5502TIP3   OH238140   5.022   6.785   0.585 -0.1103 -0.1556 -0.0708
 5502TIP3    H138141   5.114   6.768   0.605  0.2623 -0.2624 -1.8003
 5502TIP3    H238142   4.997   6.855   0.646  0.8124 -0.7922  1.0876
 5503TIP3   OH238143   3.783   3.773   3.126  0.0114 -0.1057 -0.3433
 5503TIP3    H138144   3.762   3.740   3.213  1.2822 -1.6424 -0.5708
 5503TIP3    H238145   3.699   3.798   3.088 -0.6470 -0.2319  0.9892
 5504TIP3   OH238146   6.138   5.619   0.534 -0.0075  0.4286  0.5194
 5504TIP3    H138147   6.229   5.647   0.523  0.8505 -2.2269  0.2390
 5504TIP3    H238148   6.139   5.565   0.613 -1.5253  0.8991  0.9068
 5505TIP3   OH238149   3.053   1.323   2.248 -0.7176  0.1809 -0.0612
 5505TIP3    H138150   3.036   1.282   2.333 -1.9702 -2.1965 -1.3687
 5505TIP3    H238151   3.122   1.270   2.209  0.7712  2.0256 -0.0899
 5506TIP3   OH238152   6.301   5.396   2.263  0.5374  0.0315  0.7960
 5506TIP3    H138153   6.315   5.389   2.357 -0.4052 -1.3513  0.8545
 5506TIP3    H238154   6.206   5.407   2.254  0.6383  0.3041  0.0034
 5507TIP3   OH238155   1.226   5.768   1.059 -0.8974  0.0328 -0.0247
 5507TIP3    H138156   1.222   5.719   1.141 -4.9485  1.4932  0.8671
 5507TIP3    H238157   1.175   5.715   0.997  0.6664 -0.1992 -1.1891
 5508TIP3   OH238158   2.971   5.426   1.615 -0.4072  0.0769  0.2211
 5508TIP3    H138159   3.065   5.406   1.618  0.1351  2.2092 -0.5683
 5508TIP3    H238160   2.933   5.373   1.685  1.0098 -2.5221 -0.8208
 5509TIP3   OH238161   4.765   1.794   3.203 -0.2492 -0.5868  0.4665
 5509TIP3    H138162   4.843   1.851   3.203 -1.1219  0.6751  1.9568
 5509TIP3    H238163   4.795   1.713   3.163  1.7346  0.0050  0.6413
 5510TIP3   OH238164   2.471   6.397   2.022 -0.1891 -0.1944  1.0016
 5510TIP3    H138165   2.446   6.313   1.984 -0.1203  0.2885 -0.1336
 5510TIP3    H238166   2.546   6.427   1.970 -0.1585  0.5318  1.4384
 5511TIP3   OH238167   0.222   3.423   7.997 -0.5738 -0.5709  0.3323
 5511TIP3    H138168   0.240   3.364   7.924 -3.1339  0.6493 -1.4458
 5511TIP3    H238169   0.148   3.382   8.043 -0.6434 -0.0552  0.6883
 5512TIP3   OH238170   3.770   4.445   7.705 -0.4162 -0.2011  0.1813
 5512TIP3    H138171   3.716   4.409   7.775 -0.1155 -1.1239 -0.0529
 5512TIP3    H238172   3.740   4.536   7.697 -0.7168 -0.1928  1.2338
 5513TIP3   OH238173   4.426   2.506   0.233  0.1466  0.1050  0.1865
 5513TIP3    H138174   4.386   2.430   0.191 -1.0886  0.8006  0.0638
 5513TIP3    H238175   4.471   2.470   0.309 -2.8476 -0.4931  1.8497
 5514TIP3   OH238176   1.520   5.824   7.562 -0.2148 -0.2902 -0.2930
 5514TIP3    H138177   1.523   5.746   7.507 -1.1784 -0.5041 -0.0625
 5514TIP3    H238178   1.456   5.803   7.630 -1.3787  1.1242 -0.8970
 5515TIP3   OH238179   1.203   2.622   7.298 -0.9542 -0.4685 -0.2473
 5515TIP3    H138180   1.110   2.603   7.308 -1.3734  0.5426 -1.8490
 5515TIP3    H238181   1.206   2.715   7.277  0.3918 -0.5617 -0.5315
 5516TIP3   OH238182   3.350   6.306   1.708  0.2489  0.5038  0.2977
 5516TIP3    H138183   3.406   6.297   1.631 -0.1614  2.5424 -0.2911
 5516TIP3    H238184   3.342   6.400   1.722 -1.7145  0.2546  1.3313
 5517TIP3   OH238185   6.812   2.835   8.397 -0.3351  0.2148 -0.3431
 5517TIP3    H138186   6.744   2.789   8.348  1.2698 -0.7961 -1.6768
 5517TIP3    H238187   6.861   2.767   8.442  0.7147  0.7992 -0.5699
 5518TIP3   OH238188   2.404   3.950   7.745 -1.1372  0.0485 -0.0792
 5518TIP3    H138189   2.405   3.927   7.838 -2.4842  3.5842  0.9796
 5518TIP3    H238190   2.344   3.886   7.705  0.3372 -2.2339  1.1730
 5519TIP3   OH238191   2.630   4.425   0.256  0.1271 -0.3798 -0.1915
 5519TIP3    H138192   2.594   4.346   0.296 -1.7292 -0.3774 -1.6962
 5519TIP3    H238193   2.632   4.406   0.163  2.2689  0.4023 -0.3652
 5520TIP3   OH238194   5.742   2.572   2.088  0.3627  0.2707 -0.2354
 5520TIP3    H138195   5.741   2.658   2.045  1.6372  0.7587  0.6349
 5520TIP3    H238196   5.726   2.509   2.018  2.1126  1.0588 -1.3986
 5521TIP3   OH238197   1.295   6.044   7.721 -0.2721 -0.5913  0.4856
 5521TIP3    H138198   1.344   6.115   7.761  0.2779 -0.8820  0.3359
 5521TIP3    H238199   1.273   6.077   7.633  0.8498 -0.9719  0.0385
 5522TIP3   OH238200   6.825   5.319   2.169  0.4301  0.3857 -0.4930
 5522TIP3    H138201   6.844   5.396   2.223  1.2090  0.5656 -1.0139
 5522TIP3    H238202   6.741   5.287   2.203  0.3572  1.1468  0.0854
 5523TIP3   OH238203   6.332   5.793   2.625 -0.0609  0.5020 -0.3758
 5523TIP3    H138204   6.293   5.773   2.710 -0.6994 -0.2934 -0.8480
 5523TIP3    H238205   6.414   5.839   2.647 -1.2224  2.2024  0.6143
 5524TIP3   OH238206   6.558   4.621   8.233 -0.4148  1.0148 -0.7924
 5524TIP3    H138207   6.504   4.542   8.228 -2.8099  2.4440  0.5159
 5524TIP3    H238208   6.572   4.634   8.327  4.8046 -0.7780 -1.0049
 5525TIP3   OH238209   4.309   5.013   0.676 -0.1159 -0.6843  0.2187
 5525TIP3    H138210   4.239   5.073   0.650  0.2404 -0.3980 -0.0835
 5525TIP3    H238211   4.384   5.070   0.694  0.1535 -1.0221  0.1651
 5526TIP3   OH238212   4.731   0.827   0.026  0.7659 -0.6611 -0.1253
 5526TIP3    H138213   4.791   0.901   0.040 -1.3791  1.4152 -1.0944
 5526TIP3    H238214   4.758   0.791  -0.059  0.5869  0.3586 -0.6345
 5527TIP3   OH238215   2.932   5.917   0.513 -0.2493 -0.2933 -0.1763
 5527TIP3    H138216   2.859   5.916   0.575  0.2206 -1.2180  0.3958
 5527TIP3    H238217   2.947   6.009   0.495  0.3403  0.0919  1.9920
 5528TIP3   OH238218   4.912   3.799   2.949 -0.3684 -0.2879 -0.0699
 5528TIP3    H138219   4.977   3.868   2.956 -0.5391 -0.2917  3.0025
 5528TIP3    H238220   4.828   3.843   2.966 -0.7827 -0.8545 -0.5696
 5529TIP3   OH238221   1.585   1.680   1.449  0.6439  0.2474  0.7331
 5529TIP3    H138222   1.499   1.705   1.484 -0.5059 -0.7823 -1.1714
 5529TIP3    H238223   1.632   1.646   1.525 -0.9622  0.0125  1.6807
 5530TIP3   OH238224   2.549   4.494   8.162  0.2337 -0.1311  0.5069
 5530TIP3    H138225   2.608   4.515   8.234  1.3194 -2.3085  0.3500
 5530TIP3    H238226   2.606   4.486   8.086 -0.3541 -1.4548  0.1792
 5531TIP3   OH238227   6.005   3.209   2.045 -0.4531  0.3479 -0.1369
 5531TIP3    H138228   5.977   3.137   2.101  0.7592  0.4984  0.6970
 5531TIP3    H238229   5.929   3.227   1.989 -0.3415 -2.5630 -1.4459
 5532TIP3   OH238230   3.977   3.839   1.555  0.8036 -0.3292  0.0094
 5532TIP3    H138231   4.037   3.906   1.589 -0.2581  0.3996  0.5179
 5532TIP3    H238232   3.895   3.886   1.540  0.2461 -1.3753 -0.3201
 5533TIP3   OH238233   5.181   2.675   1.766 -0.3359  0.2103  0.1596
 5533TIP3    H138234   5.252   2.726   1.726  1.1041 -1.1406  0.8735
 5533TIP3    H238235   5.110   2.680   1.702  0.3197  1.7511 -0.5170
 5534TIP3   OH238236   5.984   1.550   7.723  0.5696 -0.6608 -0.5306
 5534TIP3    H138237   6.078   1.532   7.730  0.8116  0.3313 -1.0031
 5534TIP3    H238238   5.976   1.601   7.642 -0.2622  0.0267 -0.0232
 5535TIP3   OH238239   3.609   3.839   3.477  0.1912 -0.2111 -0.5060
 5535TIP3    H138240   3.665   3.763   3.495 -1.3666 -1.2470  0.2080
 5535TIP3    H238241   3.620   3.896   3.553  0.9276  0.0242 -0.7797
 5536TIP3   OH238242   5.727   2.799   7.662 -0.5063 -0.5424 -0.9910
 5536TIP3    H138243   5.797   2.788   7.597 -0.4787 -0.9044 -0.9012
 5536TIP3    H238244   5.700   2.710   7.683  0.3603 -0.4977  0.4456
 5537TIP3   OH238245   3.318   1.987   7.862  0.5933  0.5461  0.0633
 5537TIP3    H138246   3.337   1.896   7.840 -0.3795  0.2984  0.2008
 5537TIP3    H238247   3.300   1.986   7.956 -0.1377  0.7430 -0.0672
 5538TIP3   OH238248   1.834   4.774   1.735 -0.1228  0.6176  0.5337
 5538TIP3    H138249   1.869   4.799   1.649 -0.4635 -1.2989 -0.2026
 5538TIP3    H238250   1.742   4.753   1.718 -0.6453  1.8353  1.7151
 5539TIP3   OH238251   6.637   5.273   1.798 -0.0631  0.7898  0.3019
 5539TIP3    H138252   6.722   5.312   1.817  0.6513 -1.3132  1.8278
 5539TIP3    H238253   6.578   5.312   1.862  0.2828  0.5900  0.7490
 5540TIP3   OH238254   6.234   2.034   0.332 -0.0799  0.0415  0.0045
 5540TIP3    H138255   6.183   2.115   0.325 -2.4169 -1.3089  0.3582
 5540TIP3    H238256   6.283   2.044   0.413  0.2485  1.3877 -0.3333
 5541TIP3   OH238257   0.409   4.661   1.600  0.8716  0.0506 -0.3170
 5541TIP3    H138258   0.440   4.675   1.690 -3.4974 -1.9389  1.8290
 5541TIP3    H238259   0.378   4.747   1.572  1.5177  0.5386  0.4035
 5542TIP3   OH238260   2.852   3.625   0.671 -0.0750 -0.2405  0.4098
 5542TIP3    H138261   2.916   3.690   0.699 -0.0544 -0.2481  0.3799
 5542TIP3    H238262   2.767   3.670   0.679 -0.0769 -0.2725  0.5711
 5543TIP3   OH238263   5.532   5.741   0.303  0.0734  0.3054 -0.0622
 5543TIP3    H138264   5.556   5.834   0.296 -0.9434  0.5897  0.0452
 5543TIP3    H238265   5.606   5.694   0.265 -0.0728  1.2430 -1.6004
 5544TIP3   OH238266   1.445   4.725   0.363  0.1740  0.2441 -0.4467
 5544TIP3    H138267   1.418   4.642   0.324 -1.2793 -0.8371  2.5024
 5544TIP3    H238268   1.426   4.790   0.296  1.3089 -1.7347 -2.8565
 5545TIP3   OH238269   3.223   0.612   8.645 -0.2575 -0.1752  0.0930
 5545TIP3    H138270   3.151   0.631   8.704 -0.0429  3.4779 -0.5612
 5545TIP3    H238271   3.184   0.618   8.557  0.2270 -1.5544 -0.2464
 5546TIP3   OH238272   6.242   4.421   1.848 -0.0485 -0.2349 -0.5319
 5546TIP3    H138273   6.187   4.479   1.796 -1.6941 -0.3880  0.9258
 5546TIP3    H238274   6.287   4.479   1.909  1.2598 -0.1437 -1.5292
 5547TIP3   OH238275   4.186   3.245   1.913  0.2548  0.7543  0.7176
 5547TIP3    H138276   4.246   3.191   1.963  1.5326  1.4473 -0.0214
 5547TIP3    H238277   4.201   3.334   1.946  0.1259  1.0239  0.0737
 5548TIP3   OH238278   3.012   1.767   2.202 -0.1572 -0.2438 -0.4031
 5548TIP3    H138279   2.941   1.747   2.142  0.0741 -1.5290 -0.2798
 5548TIP3    H238280   2.973   1.824   2.268 -1.0531 -0.8445 -0.3968
 5549TIP3   OH238281   0.206   0.071   1.785  0.3143  0.4317  0.4348
 5549TIP3    H138282   0.205   0.148   1.842  2.4847  0.9278 -0.0941
 5549TIP3    H238283   0.192   0.107   1.697  0.7817  0.1641  0.2475
 5550TIP3   OH238284   6.170   4.322   2.234 -0.3183 -0.1575 -1.0614
 5550TIP3    H138285   6.146   4.362   2.317  0.2472 -1.0911 -0.4279
 5550TIP3    H238286   6.087   4.292   2.197 -0.3855 -1.5426  0.1374
 5551TIP3   OH238287   4.976   0.810   7.490  0.8411 -0.2417 -0.1786
 5551TIP3    H138288   4.912   0.757   7.537  0.5912 -0.9744 -1.3352
 5551TIP3    H238289   5.061   0.774   7.516  0.7097 -0.5599 -0.1958
 5552TIP3   OH238290   0.962   2.342   7.870  0.1863 -0.2030 -0.5519
 5552TIP3    H138291   0.909   2.272   7.831  1.0513 -1.2454  0.0691
 5552TIP3    H238292   1.030   2.359   7.805  0.6894 -0.8210 -0.2070
 5553TIP3   OH238293   0.092   4.960   3.423  0.0849  0.2537 -0.6772
 5553TIP3    H138294   0.050   5.018   3.360 -1.6043  2.5374  2.3099
 5553TIP3    H238295   0.049   4.875   3.410  0.4563  0.3517 -3.0908
 5554TIP3   OH238296   0.577   0.291   1.926  0.0007  0.0924 -0.0730
 5554TIP3    H138297   0.601   0.201   1.950 -0.8324 -0.6190 -1.7669
 5554TIP3    H238298   0.517   0.319   1.996 -1.4801 -1.5000 -0.6326
 5555TIP3   OH238299   3.365   3.961   0.744 -0.1734 -0.1863  0.3411
 5555TIP3    H138300   3.341   3.923   0.659  0.0074  0.6782 -0.1065
 5555TIP3    H238301   3.296   4.025   0.761 -0.2197 -0.3722  0.8636
 5556TIP3   OH238302   1.567   4.378   0.594 -0.0315  0.8507 -0.2728
 5556TIP3    H138303   1.578   4.321   0.670  2.3641 -2.0567 -2.5634
 5556TIP3    H238304   1.645   4.434   0.595  0.2473  0.4762 -0.8264
 5557TIP3   OH238305   3.662   2.268   8.105 -0.1341  0.1737  0.5855
 5557TIP3    H138306   3.677   2.334   8.037  1.7195 -0.7740  0.0126
 5557TIP3    H238307   3.711   2.301   8.180 -0.3014  0.0865  0.7343
 5558TIP3   OH238308   2.436   6.531   8.056 -0.2470  0.5837  0.2128
 5558TIP3    H138309   2.527   6.512   8.081  0.6878  0.2597 -3.0043
 5558TIP3    H238310   2.435   6.626   8.042 -0.3938  0.5798  0.1962
 5559TIP3   OH238311   4.473   2.117   1.257  0.2236 -0.1804  0.4794
 5559TIP3    H138312   4.564   2.140   1.238 -0.0038  0.3342  0.0058
 5559TIP3    H238313   4.477   2.070   1.341  0.9742 -0.5499  0.2462
 5560TIP3   OH238314   1.780   2.005   1.672 -0.4249 -0.2641  0.2785
 5560TIP3    H138315   1.707   2.062   1.696  0.5394  0.8318  0.6986
 5560TIP3    H238316   1.833   1.999   1.751  1.2175  0.9540 -0.6504
 5561TIP3   OH238317   4.637   1.248   3.291  0.0834 -0.9746 -0.6227
 5561TIP3    H138318   4.697   1.318   3.264  0.2027 -0.4726  0.8802
 5561TIP3    H238319   4.691   1.170   3.296  0.6704 -0.5094  0.7912
 5562TIP3   OH238320   1.012   6.795   1.181  0.0568  0.2899 -0.2836
 5562TIP3    H138321   1.000   6.739   1.258  1.0949 -0.4109 -0.6125
 5562TIP3    H238322   1.019   6.734   1.108  0.4816  0.8787 -0.7418
 5563TIP3   OH238323   2.118   4.235   0.403 -0.3255 -0.6066 -0.0162
 5563TIP3    H138324   2.158   4.255   0.319 -0.9634 -1.7409 -0.6133
 5563TIP3    H238325   2.136   4.142   0.417 -0.5431 -0.5178  0.9307
 5564TIP3   OH238326   5.165   1.111   8.316 -0.2830 -0.6309  0.6069
 5564TIP3    H138327   5.173   1.202   8.343 -0.0195 -1.5066  3.9130
 5564TIP3    H238328   5.255   1.079   8.307 -0.3722 -0.6279 -0.4388
 5565TIP3   OH238329   2.310   3.895   8.020  0.0341 -0.1313 -0.1984
 5565TIP3    H138330   2.346   3.861   8.102 -0.3325  1.4460  0.6637
 5565TIP3    H238331   2.293   3.988   8.038 -1.5678 -0.1176 -1.5343
 5566TIP3   OH238332   1.020   2.426   8.601  0.6097 -0.0336  0.0411
 5566TIP3    H138333   1.096   2.465   8.644  0.0777  1.0359  0.0393
 5566TIP3    H238334   1.056   2.381   8.524  1.0388  2.3528 -1.2410
 5567TIP3   OH238335   2.534   1.469   0.025 -0.8828  0.2878 -0.0263
 5567TIP3    H138336   2.459   1.528   0.022 -0.4856  0.7630 -3.2373
 5567TIP3    H238337   2.610   1.526   0.030 -0.5106  0.1640 -2.8756
 5568TIP3   OH238338   5.386   3.664   8.236  0.0475  0.2993  0.3240
 5568TIP3    H138339   5.470   3.673   8.191  0.0572 -0.4622  0.1785
 5568TIP3    H238340   5.321   3.695   8.172  0.1759  0.4352  0.2599
 5569TIP3   OH238341   2.608   3.575   2.958  0.0405 -0.7662  0.0641
 5569TIP3    H138342   2.587   3.502   2.900  0.5571 -0.7815 -0.1132
 5569TIP3    H238343   2.630   3.534   3.042  1.0118 -0.8749 -0.2297
 5570TIP3   OH238344   0.547   1.722   0.439 -0.0060  0.1314  0.4017
 5570TIP3    H138345   0.635   1.684   0.446  0.2037  0.4174 -0.5394
 5570TIP3    H238346   0.499   1.686   0.514  0.3721 -1.4932 -0.0986
 5571TIP3   OH238347   5.451   1.747   8.577 -0.4171 -0.1464 -0.2718
 5571TIP3    H138348   5.386   1.817   8.580 -1.2902 -0.9551 -0.0087
 5571TIP3    H238349   5.464   1.722   8.668 -2.2180 -2.1932 -0.4910
 5572TIP3   OH238350   0.756   1.800   1.184  0.4202 -0.5412  0.1327
 5572TIP3    H138351   0.713   1.884   1.167  1.4499 -0.1133 -0.4305
 5572TIP3    H238352   0.738   1.782   1.276 -0.4708 -0.0943  0.0597
 5573TIP3   OH238353   1.793   0.671   8.569  0.0267 -0.2823  0.2462
 5573TIP3    H138354   1.715   0.703   8.613  0.7984  0.7617  0.8914
 5573TIP3    H238355   1.827   0.746   8.520  1.2108 -0.4164  0.8279
 5574TIP3   OH238356   4.841   0.793   7.892  0.3357 -0.3089  0.2091
 5574TIP3    H138357   4.820   0.765   7.803 -1.7601 -0.4861  0.6934
 5574TIP3    H238358   4.817   0.886   7.894  1.9422  0.1389  0.1714
 5575TIP3   OH238359   2.312   6.448   0.212  0.0217  0.1167 -0.0368
 5575TIP3    H138360   2.229   6.465   0.257 -1.2016 -1.1790 -1.6350
 5575TIP3    H238361   2.370   6.414   0.279 -1.4074 -0.8455  0.7631
 5576TIP3   OH238362   1.121   2.339   2.748  0.2645 -0.4682 -0.5737
 5576TIP3    H138363   1.087   2.407   2.688 -1.5185  0.7640  1.6692
 5576TIP3    H238364   1.049   2.276   2.754  1.3330 -1.8140 -1.4445
 5577TIP3   OH238365   5.943   4.161   1.144  0.2912 -0.0953  0.0916
 5577TIP3    H138366   5.961   4.077   1.187 -1.0907 -0.9562 -0.9408
 5577TIP3    H238367   5.953   4.143   1.051 -0.7991  0.6651 -0.1920
 5578TIP3   OH238368   2.835   2.408   2.811  0.6497  0.3375  0.2485
 5578TIP3    H138369   2.812   2.472   2.879  0.9784  1.4599 -0.6706
 5578TIP3    H238370   2.751   2.382   2.774  0.6170  2.2208 -1.1162
 5579TIP3   OH238371   1.669   6.773   2.863 -0.3179  0.1777  0.6742
 5579TIP3    H138372   1.689   6.742   2.774  1.7676  0.3768  1.0152
 5579TIP3    H238373   1.575   6.761   2.872 -0.0969 -3.3366 -0.2698
 5580TIP3   OH238374   5.436   3.796   2.672 -1.0677  0.4102 -0.3580
 5580TIP3    H138375   5.478   3.816   2.756  0.1105  1.0332 -1.0578
 5580TIP3    H238376   5.357   3.748   2.695  0.2300 -1.1878  1.0310
 5581TIP3   OH238377   3.252   6.885   8.383  0.3340  1.3051 -0.2025
 5581TIP3    H138378   3.200   6.965   8.381 -0.0943  1.0242 -0.4505
 5581TIP3    H238379   3.217   6.832   8.311  1.9696  1.7337 -1.3569
 5582TIP3   OH238380   1.020   4.981   0.167 -0.4091 -0.3419 -0.5851
 5582TIP3    H138381   0.943   4.961   0.115 -0.9418  0.4506 -0.1355
 5582TIP3    H238382   0.996   4.956   0.256 -1.2704  2.5203  0.0831
 5583TIP3   OH238383   0.711   0.523   1.611 -0.3040  0.1279 -0.3750
 5583TIP3    H138384   0.637   0.482   1.657  1.1422 -1.0637  0.9845
 5583TIP3    H238385   0.670   0.571   1.539 -2.2016 -3.4351 -1.9304
 5584TIP3   OH238386   4.704   1.397   2.522 -0.4570 -0.1434  0.3474
 5584TIP3    H138387   4.788   1.442   2.530  1.3865 -3.2843  0.4022
 5584TIP3    H238388   4.676   1.415   2.432  1.1851 -0.3933 -0.2531
 5585TIP3   OH238389   0.842   6.503   0.848 -0.0611 -0.1373 -0.3416
 5585TIP3    H138390   0.826   6.416   0.810 -0.3321 -0.2596  0.0340
 5585TIP3    H238391   0.773   6.558   0.811  0.8336  0.2183 -1.5159
 5586TIP3   OH238392   4.956   1.232   1.017 -0.1005 -0.4923  0.2604
 5586TIP3    H138393   5.006   1.274   0.947 -0.6568  0.0746  0.2009
 5586TIP3    H238394   4.969   1.138   1.003  2.1471 -0.3803  1.0939
 5587TIP3   OH238395   5.456   2.573   8.180 -0.0659 -1.2985 -0.1771
 5587TIP3    H138396   5.543   2.569   8.142  0.3096 -1.1923  0.6568
 5587TIP3    H238397   5.464   2.633   8.254 -1.3183  0.3378 -1.2971
 5588TIP3   OH238398   4.552   0.825   2.917 -0.6828 -0.0483  0.5414
 5588TIP3    H138399   4.470   0.778   2.929  0.5972 -2.1994  1.7154
 5588TIP3    H238400   4.600   0.810   2.998  1.5515 -0.4278 -0.7473
 5589TIP3   OH238401   3.180   4.507   0.674  0.2062  0.1150  0.1050
 5589TIP3    H138402   3.126   4.452   0.731 -0.4938  1.0545  0.3749
 5589TIP3    H238403   3.156   4.480   0.585 -0.4142  0.2364  0.2293
 5590TIP3   OH238404   2.064   0.602   3.087 -0.5265 -0.3310  0.7029
 5590TIP3    H138405   2.128   0.533   3.071 -0.4939 -0.2628  0.5328
 5590TIP3    H238406   2.114   0.676   3.120 -0.1866  0.4639 -1.4080
 5591TIP3   OH238407   1.336   1.726   1.563 -0.3667  0.0636 -0.4758
 5591TIP3    H138408   1.252   1.771   1.569 -1.5083 -1.6882 -2.3276
 5591TIP3    H238409   1.314   1.636   1.541  2.0004 -0.5217 -0.7447
 5592TIP3   OH238410   5.043   4.906   7.869 -0.1667  0.2192 -0.0156
 5592TIP3    H138411   5.030   4.829   7.923 -1.4294  1.2228  1.1619
 5592TIP3    H238412   4.961   4.955   7.874  0.1794  1.0856 -1.6785
 5593TIP3   OH238413   6.492   2.929   8.335  0.2781  0.0950  0.2334
 5593TIP3    H138414   6.456   2.840   8.336 -0.5120  0.3998 -0.1149
 5593TIP3    H238415   6.540   2.935   8.253 -1.1667  0.5524 -0.6087
 5594TIP3   OH238416   4.700   3.442   0.064  0.7357 -0.2402 -0.2329
 5594TIP3    H138417   4.720   3.383   0.137  1.2298 -2.4443 -2.0423
 5594TIP3    H238418   4.680   3.526   0.106 -0.7859 -1.8460  2.5513
 5595TIP3   OH238419   0.715   4.307   2.253  0.2442 -0.2096 -0.2756
 5595TIP3    H138420   0.641   4.278   2.306 -0.6140  0.3551 -1.1324
 5595TIP3    H238421   0.738   4.393   2.290  2.2839 -1.5242  1.7578
 5596TIP3   OH238422   6.228   3.542   0.877  0.2825  0.3727  0.1580
 5596TIP3    H138423   6.218   3.471   0.814 -2.8155 -0.8440  1.8052
 5596TIP3    H238424   6.138   3.563   0.904  1.3727  1.5214  3.3624
 5597TIP3   OH238425   1.195   2.564   0.116  0.8005 -0.2174  0.4422
 5597TIP3    H138426   1.275   2.579   0.066  1.0625 -0.4092  0.7982
 5597TIP3    H238427   1.225   2.523   0.197  0.4397  0.5659  0.9858
 5598TIP3   OH238428   1.619   1.318   1.498  0.3324  0.1967  0.1123
 5598TIP3    H138429   1.544   1.378   1.502  0.0082  0.1398 -2.9336
 5598TIP3    H238430   1.692   1.370   1.534 -0.4226  1.6041 -0.2868
 5599TIP3   OH238431   2.514   5.904   1.175 -0.1042  0.3615 -0.5532
 5599TIP3    H138432   2.492   5.875   1.264 -0.6191 -1.2174 -1.1553
 5599TIP3    H238433   2.593   5.956   1.186  1.2347 -1.7644  0.6015
 5600TIP3   OH238434   6.134   0.962   3.525  0.1717 -0.0661 -0.1201
 5600TIP3    H138435   6.086   0.998   3.450 -0.7712 -0.6451  0.1927
 5600TIP3    H238436   6.186   0.891   3.488 -0.9582 -0.9210 -0.0950
 5601TIP3   OH238437   4.928   5.733   0.985 -0.0817  0.1470 -0.4397
 5601TIP3    H138438   5.013   5.734   0.942  0.7627  1.5563  1.1016
 5601TIP3    H238439   4.911   5.825   1.005 -3.7172  0.4309 -3.8429
 5602TIP3   OH238440   0.876   6.772   2.262 -0.4871 -0.0659 -0.2327
 5602TIP3    H138441   0.960   6.773   2.309 -0.6944 -0.7860  0.1673
 5602TIP3    H238442   0.898   6.799   2.173  0.3058 -0.9926 -0.3363
 5603TIP3   OH238443   3.273   3.394   8.098  0.0210  0.5558  0.2598
 5603TIP3    H138444   3.228   3.391   8.183  0.1044  1.3446  0.3390
 5603TIP3    H238445   3.361   3.426   8.119 -0.0672  1.0875 -0.1655
 5604TIP3   OH238446   0.209   1.161   0.143 -0.1205  0.8058  0.3555
 5604TIP3    H138447   0.211   1.257   0.150  2.0044  0.7828  0.8582
 5604TIP3    H238448   0.215   1.145   0.049  0.9901  1.2107  0.3320
 5605TIP3   OH238449   5.919   5.048   8.304  0.3483  0.7935  0.3396
 5605TIP3    H138450   5.855   4.978   8.291  0.6440  0.5293  0.2647
 5605TIP3    H238451   6.004   5.004   8.293  0.5382  1.5329 -1.7475
 5606TIP3   OH238452   5.744   3.223   1.900  0.1179  0.4719 -0.6632
 5606TIP3    H138453   5.741   3.127   1.910  3.0723  0.4512  1.4473
 5606TIP3    H238454   5.707   3.239   1.813 -0.0253 -2.6177 -1.3117
 5607TIP3   OH238455   1.692   5.113   1.793 -0.8394  0.1413  0.8118
 5607TIP3    H138456   1.762   5.133   1.855 -1.5070  0.3058  1.5198
 5607TIP3    H238457   1.656   5.198   1.768  0.3052  0.1736 -0.8597
 5608TIP3   OH238458   4.605   4.946   0.595 -0.1448  0.1526  0.4445
 5608TIP3    H138459   4.541   4.986   0.654  1.5055  1.1278  1.6708
 5608TIP3    H238460   4.684   4.998   0.607  0.9361 -1.0812 -0.9342
 5609TIP3   OH238461   3.227   1.112   2.153  0.4412 -0.1129 -0.1615
 5609TIP3    H138462   3.155   1.049   2.148  1.0144 -0.7788 -0.1440
 5609TIP3    H238463   3.306   1.060   2.139  0.9783  0.4807  0.5536
 5610TIP3   OH238464   0.296   2.517   1.693 -0.4465 -0.0639 -0.1250
 5610TIP3    H138465   0.229   2.459   1.657 -0.1636 -0.5276  0.0964
 5610TIP3    H238466   0.265   2.539   1.781 -0.6856  0.3380 -0.3072
 5611TIP3   OH238467   4.237   0.529   8.345  0.3910  0.0043 -0.4303
 5611TIP3    H138468   4.166   0.467   8.326  0.8801 -0.2653 -1.4386
 5611TIP3    H238469   4.309   0.500   8.289  1.1996  0.4617  0.3583
 5612TIP3   OH238470   3.910   1.133   7.794 -0.3683 -0.4097 -0.0154
 5612TIP3    H138471   4.000   1.163   7.783 -0.1280 -1.0688  0.0754
 5612TIP3    H238472   3.861   1.211   7.822 -0.2333  0.4135 -1.9215
 5613TIP3   OH238473   3.782   3.705   1.932 -0.0720  0.3821 -0.0393
 5613TIP3    H138474   3.754   3.745   2.014  1.0922  1.9834 -0.3759
 5613TIP3    H238475   3.716   3.731   1.868 -0.9904 -0.8824  0.3485
 5614TIP3   OH238476   5.556   4.764   0.317  0.0824  0.1351  0.5858
 5614TIP3    H138477   5.546   4.715   0.235  3.4666 -0.2701  0.2982
 5614TIP3    H238478   5.498   4.719   0.379 -1.6938 -0.2477 -1.2282
 5615TIP3   OH238479   1.945   0.469   0.014  0.3978  0.2993  0.1686
 5615TIP3    H138480   1.877   0.536   0.003 -0.8645 -1.0337 -0.4735
 5615TIP3    H238481   1.987   0.464  -0.072 -0.2130 -0.4388 -0.0987
 5616TIP3   OH238482   0.693   5.458   3.486  0.4383 -0.2126  0.1749
 5616TIP3    H138483   0.686   5.512   3.408 -0.5639 -1.6082 -0.7543
 5616TIP3    H238484   0.782   5.473   3.518  1.3645 -0.6330 -2.0221
 5617TIP3   OH238485   4.946   3.065   0.865  0.5151  0.0104  0.5547
 5617TIP3    H138486   4.982   3.100   0.783  2.8813 -0.0571  1.4781
 5617TIP3    H238487   4.920   2.975   0.842 -1.7167  0.9208 -0.8041
 5618TIP3   OH238488   1.315   5.716   3.292  0.6232 -0.0921  0.4963
 5618TIP3    H138489   1.274   5.662   3.225  0.4741 -0.0364  0.5410
 5618TIP3    H238490   1.345   5.794   3.245  0.4056  0.0047  0.5148
 5619TIP3   OH238491   6.380   4.069   3.559 -0.5951 -0.2842 -0.2487
 5619TIP3    H138492   6.440   4.144   3.558 -0.0453 -0.6232 -3.4867
 5619TIP3    H238493   6.294   4.107   3.578  0.0269  0.7637  0.5757
 5620TIP3   OH238494   3.064   3.861   1.178 -0.3695  0.0456  0.0761
 5620TIP3    H138495   3.041   3.901   1.261  0.3453  0.0672  0.2736
 5620TIP3    H238496   3.100   3.932   1.126 -1.5859  0.2052 -0.5699
 5621TIP3   OH238497   5.775   1.014   2.129 -0.3759 -0.4114 -0.0462
 5621TIP3    H138498   5.731   0.932   2.151  0.2306 -0.2768  1.7830
 5621TIP3    H238499   5.862   1.008   2.170 -0.3682  1.2001  0.2632
 5622TIP3   OH238500   0.631   3.850   1.407 -0.5050  0.1385 -0.2175
 5622TIP3    H138501   0.555   3.792   1.415 -1.2364  0.9899 -0.7324
 5622TIP3    H238502   0.691   3.821   1.476 -1.1892 -0.7204  0.0302
 5623TIP3   OH238503   4.507   5.907   1.487 -0.1409  0.1555  0.1585
 5623TIP3    H138504   4.444   5.835   1.476 -0.6112  0.6741 -0.6263
 5623TIP3    H238505   4.458   5.985   1.462  0.5519  0.6841  0.4260
 5624TIP3   OH238506   0.676   4.510   0.134  0.2785  0.2027  0.0480
 5624TIP3    H138507   0.693   4.482   0.224 -0.6112  2.2972  0.9343
 5624TIP3    H238508   0.745   4.467   0.082  3.4384  2.0692  2.3169
 5625TIP3   OH238509   2.650   4.033   0.205 -0.6328 -0.2503 -0.0062
 5625TIP3    H138510   2.665   4.036   0.111  0.5976  1.2027  0.1887
 5625TIP3    H238511   2.720   3.977   0.239 -0.0693  0.5497  0.1828
 5626TIP3   OH238512   5.972   0.387   1.333  0.0410  0.8421  0.0455
 5626TIP3    H138513   5.930   0.346   1.257  1.2332 -0.9403  0.2848
 5626TIP3    H238514   5.989   0.314   1.392  1.5657  1.8151  0.8592
 5627TIP3   OH238515   1.634   5.529   2.063 -0.1726 -0.2579  0.1358
 5627TIP3    H138516   1.660   5.502   2.151 -0.2939 -0.9851 -0.0419
 5627TIP3    H238517   1.613   5.622   2.071 -2.3108 -0.7585  1.3862
 5628TIP3   OH238518   2.653   1.733   0.048  0.6412  0.3811 -0.5678
 5628TIP3    H138519   2.570   1.735   0.001  1.4609  0.8382 -2.0928
 5628TIP3    H238520   2.683   1.824   0.046  0.7165  0.3977  0.8522
 5629TIP3   OH238521   3.024   3.368   8.627  0.5954  0.6104  0.2769
 5629TIP3    H138522   3.043   3.462   8.616  0.3225  0.4396 -1.9970
 5629TIP3    H238523   2.940   3.366   8.674 -1.4886  1.6774 -3.0618
 5630TIP3   OH238524   6.460   2.036   8.314  0.3483 -0.0881  0.1427
 5630TIP3    H138525   6.497   1.948   8.320 -1.0025 -0.8097 -1.3984
 5630TIP3    H238526   6.537   2.094   8.309  1.2562 -1.1934  0.7701
 5631TIP3   OH238527   3.673   4.179   1.959  0.3183  0.4287 -0.1337
 5631TIP3    H138528   3.659   4.112   1.893 -0.1394  0.0142  0.3753
 5631TIP3    H238529   3.631   4.145   2.038  0.2932  1.2023  0.2021
 5632TIP3   OH238530   4.562   2.912   8.501 -0.0551 -0.1034  0.1975
 5632TIP3    H138531   4.482   2.896   8.551  0.9314 -1.4208  1.4233
 5632TIP3    H238532   4.623   2.845   8.531  1.9039  1.5542  0.1677
 5633TIP3   OH238533   2.309   0.765   0.975  0.1315 -0.0192  0.2985
 5633TIP3    H138534   2.269   0.731   0.895 -0.1690 -1.4461  1.0163
 5633TIP3    H238535   2.403   0.749   0.964  0.0731 -0.3686  0.2827
 5634TIP3   OH238536   2.644   4.639   1.843  0.3981 -0.0230  0.2654
 5634TIP3    H138537   2.676   4.552   1.820  0.2511  0.5801 -2.6082
 5634TIP3    H238538   2.693   4.662   1.922  2.8033 -1.4554 -0.6708
 5635TIP3   OH238539   6.056   4.176   1.693  0.4581 -0.2586  0.6616
 5635TIP3    H138540   6.045   4.223   1.775 -1.5021  0.0643  0.2683
 5635TIP3    H238541   6.118   4.228   1.642  0.4384  0.4003  1.3080
 5636TIP3   OH238542   5.738   4.006   2.828  0.3758  0.0168 -0.7641
 5636TIP3    H138543   5.663   4.065   2.816 -0.3977 -0.8708 -0.4340
 5636TIP3    H238544   5.701   3.928   2.869  1.3796 -0.6937 -1.1596
 5637TIP3   OH238545   2.590   2.205   0.847 -0.1060 -0.8479 -0.1572
 5637TIP3    H138546   2.580   2.293   0.883 -0.1857 -0.7168 -0.4880
 5637TIP3    H238547   2.672   2.208   0.798 -0.8508 -0.4981 -1.4282
 5638TIP3   OH238548   5.365   4.952   8.615 -0.4374 -0.1434 -0.6707
 5638TIP3    H138549   5.348   4.858   8.612 -0.8962 -0.1034  0.4387
 5638TIP3    H238550   5.389   4.974   8.525 -1.5342 -1.0926 -1.2260
 5639TIP3   OH238551   1.868   2.636   8.160  0.1981  0.3946  0.2797
 5639TIP3    H138552   1.853   2.640   8.254 -1.6452  1.0032 -0.0128
 5639TIP3    H238553   1.960   2.661   8.150  1.0464 -1.6364  2.0290
 5640TIP3   OH238554   0.268   2.068   1.252 -0.1669 -0.5827  0.5181
 5640TIP3    H138555   0.331   2.130   1.215  0.5280 -1.4547  0.2019
 5640TIP3    H238556   0.209   2.048   1.180 -0.6571  0.0270  0.7397
 5641TIP3   OH238557   0.543   3.454   1.367  0.1989 -0.2306 -0.3484
 5641TIP3    H138558   0.572   3.395   1.298 -0.2050  0.9859 -1.6210
 5641TIP3    H238559   0.454   3.479   1.341 -0.0014  0.1664  0.6727
 5642TIP3   OH238560   5.523   3.464   7.441  0.1522  0.0081  0.2042
 5642TIP3    H138561   5.484   3.544   7.407 -0.5953 -1.0405 -1.5765
 5642TIP3    H238562   5.586   3.493   7.506  0.2652  2.0559 -0.7524
 5643TIP3   OH238563   3.477   4.526   7.763  0.0332 -0.0603 -0.0495
 5643TIP3    H138564   3.521   4.611   7.753 -0.2124  0.1483  0.5821
 5643TIP3    H238565   3.389   4.549   7.794  0.8407 -0.6311  3.0007
 5644TIP3   OH238566   3.289   0.753   0.425 -0.0388 -0.1595  0.1704
 5644TIP3    H138567   3.275   0.789   0.338 -1.5626 -1.7676 -0.3011
 5644TIP3    H238568   3.242   0.812   0.484 -0.8907 -0.2859 -0.3646
 5645TIP3   OH238569   3.667   6.186   0.141 -0.1870 -0.0133 -0.5750
 5645TIP3    H138570   3.688   6.209   0.232 -0.5106 -3.4154  0.4747
 5645TIP3    H238571   3.574   6.205   0.133 -0.9217 -2.5457  0.9055
 5646TIP3   OH238572   4.754   2.167   0.330 -0.5578  0.2189  0.2666
 5646TIP3    H138573   4.757   2.134   0.420 -1.6194  1.3439  0.7611
 5646TIP3    H238574   4.696   2.106   0.284  1.8596 -1.7411 -0.3307
 5647TIP3   OH238575   3.247   5.653   0.734  0.2591  0.0284 -0.4224
 5647TIP3    H138576   3.280   5.738   0.707  0.9919 -0.3785 -0.8588
 5647TIP3    H238577   3.153   5.666   0.747  0.3386  0.8582 -0.6354
 5648TIP3   OH238578   4.665   5.777   0.938  0.2761 -0.5657 -0.2176
 5648TIP3    H138579   4.591   5.759   0.995  0.1795 -1.3106 -0.5770
 5648TIP3    H238580   4.735   5.720   0.970 -0.0526 -1.6703 -1.3881
 5649TIP3   OH238581   5.937   5.642   1.013 -0.3273 -0.1400 -0.0273
 5649TIP3    H138582   5.939   5.549   1.036 -0.3907  0.0069  0.6003
 5649TIP3    H238583   5.845   5.660   0.995 -1.1680  0.7585  4.1148
 5650TIP3   OH238584   5.671   5.185   0.316 -0.3129  0.2193  0.3310
 5650TIP3    H138585   5.650   5.099   0.280  1.0965  0.2676 -0.6736
 5650TIP3    H238586   5.591   5.236   0.305 -0.8295 -0.6415 -0.0226
 5651TIP3   OH238587   1.452   5.996   2.893  0.5814 -0.3675  0.3331
 5651TIP3    H138588   1.469   5.917   2.842 -2.2632 -1.6134  1.1249
 5651TIP3    H238589   1.394   5.967   2.964  0.3251  2.2448  1.3115
 5652TIP3   OH238590   1.498   2.493   1.131 -0.6063  0.1291  0.1898
 5652TIP3    H138591   1.470   2.506   1.222 -0.3254  0.6693  0.2035
 5652TIP3    H238592   1.434   2.433   1.094 -1.6393  1.1348  0.3003
 5653TIP3   OH238593   3.404   2.245   2.788 -0.4653  0.3288  0.5661
 5653TIP3    H138594   3.344   2.313   2.757  0.1808  0.2306 -0.9539
 5653TIP3    H238595   3.348   2.170   2.805 -0.8247  0.2832 -0.7106
 5654TIP3   OH238596   6.260   0.552   8.590 -0.1044 -0.3676 -0.1016
 5654TIP3    H138597   6.181   0.591   8.553  0.4213  1.4996  0.5871
 5654TIP3    H238598   6.237   0.535   8.682 -0.1194 -1.1031 -0.2362
 5655TIP3   OH238599   3.146   1.577   2.369 -0.6840 -0.0351 -0.1937
 5655TIP3    H138600   3.142   1.494   2.322 -0.6003 -0.5898  0.7551
 5655TIP3    H238601   3.123   1.643   2.303 -0.8292 -0.8079 -0.9364
 5656TIP3   OH238602   0.530   1.072   8.072 -0.0455  0.0664 -0.4174
 5656TIP3    H138603   0.535   1.147   8.011 -1.0092 -0.2190 -0.8657
 5656TIP3    H238604   0.618   1.066   8.109 -0.5460  3.0105  1.5563
 5657TIP3   OH238605   3.540   4.485   7.480 -0.5149 -0.2135  0.0441
 5657TIP3    H138606   3.528   4.489   7.575  1.9487 -3.8602  0.7309
 5657TIP3    H238607   3.466   4.433   7.449  1.0071 -3.1376  0.8675
 5658TIP3   OH238608   0.159   0.450   2.405  0.3769  0.2314 -0.1468
 5658TIP3    H138609   0.089   0.471   2.342 -0.0949  0.6486  0.5069
 5658TIP3    H238610   0.141   0.360   2.431 -1.3833  1.0949  1.8454
 5659TIP3   OH238611   1.613   1.217   2.050  0.4894  0.7985  0.0141
 5659TIP3    H138612   1.620   1.275   1.974  0.0920 -0.1567 -0.7668
 5659TIP3    H238613   1.679   1.150   2.034 -1.1231 -0.6833 -0.6413
 5660TIP3   OH238614   2.776   6.002   7.508  0.5093 -0.2526 -0.0757
 5660TIP3    H138615   2.736   6.074   7.556  1.9409 -0.3199  1.2782
 5660TIP3    H238616   2.701   5.952   7.474 -0.5647  2.1792 -1.6763
 5661TIP3   OH238617   4.789   0.049   1.579 -0.4354 -0.3008 -0.0743
 5661TIP3    H138618   4.858   0.115   1.581 -1.6497  1.0119 -0.2660
 5661TIP3    H238619   4.758   0.050   1.488  0.8678 -2.6231 -0.6473
 5662TIP3   OH238620   3.003   2.371   2.380 -0.2175 -0.8646  0.3045
 5662TIP3    H138621   2.962   2.349   2.296 -1.5822 -1.5080  1.1083
 5662TIP3    H238622   3.050   2.292   2.405 -0.1376 -0.8089  0.3293
 5663TIP3   OH238623   2.474   2.494   7.330  0.0873  0.2174  0.3109
 5663TIP3    H138624   2.508   2.525   7.246  0.3869 -0.5939  0.1185
 5663TIP3    H238625   2.414   2.563   7.359  0.4575  0.7961 -0.2632
 5664TIP3   OH238626   6.813   3.109   2.332 -0.2361  0.2318 -0.3223
 5664TIP3    H138627   6.738   3.050   2.337  0.0393 -0.3701 -2.3031
 5664TIP3    H238628   6.778   3.195   2.354 -1.3299 -0.1627 -0.4740
 5665TIP3   OH238629   4.326   6.711   3.291 -0.1799 -0.1151 -0.1538
 5665TIP3    H138630   4.348   6.753   3.374  0.1122 -0.3436 -0.1138
 5665TIP3    H238631   4.256   6.765   3.255  0.5840  0.7437 -0.3778
 5666TIP3   OH238632   2.239   3.379   1.451 -0.6404  0.2800  0.0728
 5666TIP3    H138633   2.281   3.293   1.444  0.1611  0.5023  1.7976
 5666TIP3    H238634   2.203   3.395   1.364  2.5994 -0.0469 -1.4717
 5667TIP3   OH238635   0.670   3.053   1.342 -0.0324 -0.2940  0.0865
 5667TIP3    H138636   0.578   3.029   1.333 -0.4373  0.8183  0.9972
 5667TIP3    H238637   0.700   3.008   1.421  0.4988 -1.4261 -0.7314
 5668TIP3   OH238638   5.250   5.075   7.863  0.1369 -0.8705 -0.3589
 5668TIP3    H138639   5.175   5.021   7.838  0.6757 -0.7242 -2.4927
 5668TIP3    H238640   5.292   5.098   7.779  1.7788  0.1671  0.6936
 5669TIP3   OH238641   1.672   1.595   0.403 -0.4881 -0.1770  0.2685
 5669TIP3    H138642   1.639   1.605   0.314 -1.6117 -0.7382  0.6046
 5669TIP3    H238643   1.610   1.644   0.457  0.7612  1.0271  0.6495
 5670TIP3   OH238644   4.942   0.880   2.323 -0.4514 -0.7183 -0.0316
 5670TIP3    H138645   4.991   0.824   2.263 -0.7807 -0.7608 -0.2658
 5670TIP3    H238646   4.989   0.874   2.406  2.0457  2.0380 -1.0853
 5671TIP3   OH238647   6.601   2.883   2.131 -0.6540  0.1030  0.2647
 5671TIP3    H138648   6.508   2.891   2.151 -0.5352  2.0489  0.2414
 5671TIP3    H238649   6.612   2.928   2.047  0.0255 -1.8205 -0.7577
 5672TIP3   OH238650   4.852   6.426   1.406 -0.0739 -0.0784 -0.1978
 5672TIP3    H138651   4.777   6.483   1.389  0.9006  1.2515 -0.1704
 5672TIP3    H238652   4.893   6.414   1.320 -0.9407 -1.7686 -0.4223
 5673TIP3   OH238653   5.191   5.755   1.292  0.0656  0.1301 -0.2149
 5673TIP3    H138654   5.112   5.807   1.281 -0.1686 -0.2320 -0.2514
 5673TIP3    H238655   5.160   5.666   1.311  0.4600 -0.0369 -0.3289
 5674TIP3   OH238656   5.155   3.012   0.638 -0.3527 -0.2932 -0.2815
 5674TIP3    H138657   5.220   3.082   0.644 -0.0112 -0.5831 -0.5800
 5674TIP3    H238658   5.109   3.029   0.556 -0.6326 -0.1127 -0.0917
 5675TIP3   OH238659   6.502   3.618   0.713  0.1404  0.2080  0.3928
 5675TIP3    H138660   6.530   3.605   0.623  0.9990 -2.0558  0.9108
 5675TIP3    H238661   6.408   3.633   0.708 -0.2089 -2.0500 -0.7683
 5676TIP3   OH238662   4.852   6.301   0.911  0.1288 -0.2108  0.1264
 5676TIP3    H138663   4.769   6.344   0.929  0.6925  0.4414  1.3043
 5676TIP3    H238664   4.896   6.359   0.849  0.6238  0.6402  1.2344
 5677TIP3   OH238665   3.173   2.081   0.039 -0.0308 -0.0173  0.2577
 5677TIP3    H138666   3.135   2.160   0.078  1.6638  1.6934 -1.3565
 5677TIP3    H238667   3.155   2.012   0.103 -0.7278  1.8594  2.2131
 5678TIP3   OH238668   4.195   6.673   2.062 -0.6398 -0.1870  0.0814
 5678TIP3    H138669   4.228   6.717   1.984  1.5561 -1.2726  0.3144
 5678TIP3    H238670   4.140   6.602   2.029 -2.6606  1.5109 -0.3348
 5679TIP3   OH238671   4.198   0.053   3.184 -0.3017  0.0404 -0.0576
 5679TIP3    H138672   4.277   0.100   3.156 -0.4505  0.2065 -0.2005
 5679TIP3    H238673   4.128   0.089   3.130 -0.5121  0.0374  0.2102
 5680TIP3   OH238674   6.671   2.719   3.777  0.3387 -0.0011  0.2411
 5680TIP3    H138675   6.636   2.629   3.778  0.9792 -0.2602  0.0048
 5680TIP3    H238676   6.766   2.707   3.780  0.4108  0.6903  1.1668
 5681TIP3   OH238677   4.717   2.317   2.533 -0.0358 -0.7674  0.2697
 5681TIP3    H138678   4.682   2.354   2.452  2.9305  1.5241 -0.1417
 5681TIP3    H238679   4.745   2.228   2.509 -4.4701 -2.4396  0.4604
 5682TIP3   OH238680   4.921   6.451   8.357 -0.3054  0.2681  0.1949
 5682TIP3    H138681   4.869   6.385   8.404  0.4072 -0.2586  0.2618
 5682TIP3    H238682   4.983   6.400   8.305 -1.5496  0.8140 -1.9425
 5683TIP3   OH238683   0.786   4.557   0.634 -0.0762 -0.3480  0.2717
 5683TIP3    H138684   0.740   4.514   0.705 -1.0560  1.7615  1.0041
 5683TIP3    H238685   0.876   4.524   0.640 -0.0119  0.0800  2.8045
 5684TIP3   OH238686   4.992   1.265   2.444 -0.3574  0.2483  0.3819
 5684TIP3    H138687   4.955   1.345   2.480 -0.5665 -0.0102  0.7457
 5684TIP3    H238688   4.929   1.197   2.466 -0.1252 -0.0374  0.1763
 5685TIP3   OH238689   5.411   0.728   1.071  0.1500  0.5271 -0.5932
 5685TIP3    H138690   5.371   0.649   1.107  1.6571 -0.8997 -1.8336
 5685TIP3    H238691   5.504   0.707   1.067  0.4184  1.8294 -2.2389
 5686TIP3   OH238692   1.671   1.545   8.223  0.5855  0.1974 -0.3901
 5686TIP3    H138693   1.745   1.487   8.206  0.1459 -0.5875  0.3130
 5686TIP3    H238694   1.681   1.616   8.159  0.3195 -1.3825 -2.2714
 5687TIP3   OH238695   2.617   6.528   7.000  0.0429 -0.3473  0.1093
 5687TIP3    H138696   2.593   6.497   7.087 -0.4386 -0.8382 -0.1849
 5687TIP3    H238697   2.557   6.481   6.941 -1.1149  1.5566 -0.3216
 5688TIP3   OH238698   5.038   0.952   2.666  0.3875  0.3787  0.1606
 5688TIP3    H138699   4.999   0.910   2.743  2.2846 -1.6216  0.1564
 5688TIP3    H238700   5.084   0.881   2.622  1.0788  1.9067 -1.7036
 5689TIP3   OH238701   1.317   5.412   0.670 -0.0589 -0.0463 -0.1903
 5689TIP3    H138702   1.383   5.426   0.602 -0.5977  2.8159 -0.2541
 5689TIP3    H238703   1.237   5.389   0.622  0.2386 -0.8845 -0.2955
 5690TIP3   OH238704   0.230   2.625   1.965  0.5986  0.0477  0.3826
 5690TIP3    H138705   0.166   2.660   2.027  0.8981 -0.3188  0.9091
 5690TIP3    H238706   0.254   2.539   2.001  0.0025 -0.6444 -0.7923
 5691TIP3   OH238707   0.129   1.884   2.703  0.0390  0.7960  0.6759
 5691TIP3    H138708   0.117   1.908   2.611  0.3467  0.8131  0.6391
 5691TIP3    H238709   0.223   1.899   2.720  0.3591 -0.8716  0.5178
 5692TIP3   OH238710   2.272   2.259   2.190  0.4445  0.1823  0.0022
 5692TIP3    H138711   2.353   2.211   2.208 -0.4228 -1.2606  0.2289
 5692TIP3    H238712   2.214   2.193   2.151 -0.6725  1.1510 -0.0179
 5693TIP3   OH238713   6.241   3.691   1.455  0.0154 -0.5227  0.1260
 5693TIP3    H138714   6.255   3.675   1.548  1.7370  0.1391  0.0034
 5693TIP3    H238715   6.241   3.786   1.446 -0.4774 -0.5751 -0.5222
 5694TIP3   OH238716   5.826   6.744   8.510  0.1630  0.0338 -0.1768
 5694TIP3    H138717   5.771   6.821   8.496  1.1487  0.8521  0.3629
 5694TIP3    H238718   5.848   6.747   8.603  1.3714 -0.1017 -0.4441
 5695TIP3   OH238719   4.150   1.987   8.070 -0.6817  0.3148  0.1977
 5695TIP3    H138720   4.140   1.913   8.130  0.1400  0.7743  0.9291
 5695TIP3    H238721   4.192   1.949   7.992  0.0114  0.0475  0.6834
 5696TIP3   OH238722   2.602   5.702   3.769  0.1697  0.2380 -0.4893
 5696TIP3    H138723   2.592   5.607   3.778 -0.7989  0.2782 -1.0169
 5696TIP3    H238724   2.696   5.716   3.763  0.4276 -0.5368  1.1319
 5697TIP3   OH238725   3.767   3.549   1.578 -0.4313 -0.2198  0.0209
 5697TIP3    H138726   3.759   3.489   1.503 -1.3941  0.7582 -0.6853
 5697TIP3    H238727   3.826   3.618   1.548  0.6280 -0.7549  0.8127
 5698TIP3   OH238728   2.515   0.347   2.422 -0.0031  0.1867  0.0305
 5698TIP3    H138729   2.593   0.393   2.450  1.0512 -2.0753  1.0787
 5698TIP3    H238730   2.537   0.311   2.336  1.1371 -2.4523  1.3065
 5699TIP3   OH238731   6.594   2.217   1.183 -0.2882  0.0950  0.1031
 5699TIP3    H138732   6.620   2.261   1.102  0.8260  0.4840  0.6455
 5699TIP3    H238733   6.614   2.280   1.252 -0.1104 -0.6761  0.7762
 5700TIP3   OH238734   5.433   1.494   1.174  0.0082 -0.5724 -0.1324
 5700TIP3    H138735   5.368   1.537   1.119  1.4065  3.0371  0.7279
 5700TIP3    H238736   5.391   1.487   1.260  0.2255  0.5016  0.0805
 5701TIP3   OH238737   0.794   6.191   2.080  0.2675  0.6258  0.1090
 5701TIP3    H138738   0.719   6.204   2.139 -1.2950  1.8925 -1.9931
 5701TIP3    H238739   0.868   6.227   2.127 -0.6700  0.5198  1.7592
 5702TIP3   OH238740   6.828   2.009   8.243  0.3057  0.2201  0.1324
 5702TIP3    H138741   6.888   2.029   8.171  1.3476 -0.7974  0.6819
 5702TIP3    H238742   6.885   1.979   8.314 -0.9166 -1.8992  0.2963
 5703TIP3   OH238743   4.590   3.559   0.802 -0.2407  0.4251 -0.3351
 5703TIP3    H138744   4.555   3.473   0.780  0.6338  0.0804 -0.3919
 5703TIP3    H238745   4.685   3.548   0.802 -0.1409  1.1100  0.7659
 5704TIP3   OH238746   3.072   0.363   0.252  0.4160 -0.8912  0.3453
 5704TIP3    H138747   3.078   0.278   0.296  1.0565 -1.5685 -0.9911
 5704TIP3    H238748   3.141   0.361   0.186 -0.9049 -0.1871 -1.1356
 5705TIP3   OH238749   2.411   4.185   7.573 -0.6131  0.1683  0.1876
 5705TIP3    H138750   2.394   4.110   7.630 -0.5002  0.2536  0.3335
 5705TIP3    H238751   2.327   4.230   7.567 -0.9867 -0.6195 -0.8499
 5706TIP3   OH238752   4.107   0.735   7.666  0.5632  0.0985  0.5622
 5706TIP3    H138753   4.081   0.643   7.656 -0.1001  0.3694 -0.4421
 5706TIP3    H238754   4.025   0.783   7.657  1.0089  0.8257  0.3515
 5707TIP3   OH238755   2.510   2.837   7.452  0.0313 -0.1004 -0.1273
 5707TIP3    H138756   2.494   2.904   7.385  0.9070 -0.8738 -1.1365
 5707TIP3    H238757   2.439   2.774   7.441  0.2619 -0.3074 -0.4333
 5708TIP3   OH238758   4.490   0.835   8.326 -0.0108 -0.0704  0.1818
 5708TIP3    H138759   4.566   0.848   8.270  1.0824 -1.3359  1.2967
 5708TIP3    H238760   4.457   0.923   8.343  1.6290  0.5708  0.2164
 5709TIP3   OH238761   0.248   3.599   1.714 -0.4308  0.0963  0.4268
 5709TIP3    H138762   0.271   3.523   1.661  0.2247  0.1246  0.6599
 5709TIP3    H238763   0.162   3.577   1.751 -0.5966 -0.1975 -0.1166
 5710TIP3   OH238764   3.639   5.135   8.271  0.0166 -0.1971  0.9340
 5710TIP3    H138765   3.726   5.096   8.276  0.2461  0.1644  0.1091
 5710TIP3    H238766   3.588   5.073   8.219  1.0164  1.5332 -2.4354
 5711TIP3   OH238767   3.080   6.043   8.070 -0.4697  0.1676  0.6035
 5711TIP3    H138768   3.170   6.036   8.037 -0.5664  1.2547  0.0564
 5711TIP3    H238769   3.090   6.053   8.165  0.0776  1.3697  0.4510
 5712TIP3   OH238770   4.931   4.341   7.894  0.6807 -0.3493 -0.1918
 5712TIP3    H138771   4.882   4.264   7.866  1.4128 -1.0266  0.3435
 5712TIP3    H238772   4.903   4.356   7.985  1.1217 -0.4740 -0.0303
 5713TIP3   OH238773   2.766   6.889   7.647  0.1747 -0.2205  0.4402
 5713TIP3    H138774   2.743   6.855   7.561 -0.7874  0.2434  0.5108
 5713TIP3    H238775   2.762   6.984   7.638 -1.5515 -0.1693  1.4172
 5714TIP3   OH238776   5.302   0.072   1.021  0.2338  0.3241 -0.5659
 5714TIP3    H138777   5.323   0.093   0.930 -0.2298 -1.1423 -1.0415
 5714TIP3    H238778   5.220   0.023   1.016  0.6768 -0.5717  0.5589
 5715TIP3   OH238779   2.947   6.495   0.221 -0.1736 -0.6609 -0.1214
 5715TIP3    H138780   2.931   6.582   0.256  0.5292 -0.7761  0.4818
 5715TIP3    H238781   2.932   6.505   0.126 -2.1414 -0.3711  0.1633
 5716TIP3   OH238782   0.019   5.475   1.620 -0.4701 -0.0499 -0.4926
 5716TIP3    H138783  -0.070   5.511   1.618  0.0048  1.1862 -0.8178
 5716TIP3    H238784   0.023   5.426   1.701 -1.2258  0.5180 -0.0929
 5717TIP3   OH238785   4.566   0.436   0.269 -0.1159 -0.2248 -0.3683
 5717TIP3    H138786   4.533   0.525   0.256 -2.2091 -1.0553 -1.2857
 5717TIP3    H238787   4.657   0.439   0.241 -0.6029  1.2758 -1.9743
 5718TIP3   OH238788   0.925   6.258   1.152  0.0349  0.0802  0.5597
 5718TIP3    H138789   0.962   6.225   1.070 -0.4036  1.0972 -0.0595
 5718TIP3    H238790   0.995   6.247   1.216  0.4121 -0.6482  0.0377
 5719TIP3   OH238791   4.669   6.513   8.267 -0.3835 -0.1846  0.1922
 5719TIP3    H138792   4.614   6.457   8.321  1.6408 -1.9180  0.5561
 5719TIP3    H238793   4.743   6.536   8.322 -0.0428  1.0098 -0.7076
 5720TIP3   OH238794   3.104   2.129   0.748 -0.4072 -0.2687 -0.1478
 5720TIP3    H138795   3.162   2.202   0.728 -0.1546 -1.1739 -3.2189
 5720TIP3    H238796   3.160   2.052   0.743 -1.3997 -0.9686 -0.9340
 5721TIP3   OH238797   2.983   1.573   1.355  0.8307 -0.5394  0.1987
 5721TIP3    H138798   2.980   1.646   1.417  1.4023 -0.7952  0.5442
 5721TIP3    H238799   3.067   1.583   1.310  1.4572 -1.6309  1.0785
 5722TIP3   OH238800   3.169   3.638   1.917 -0.7150  0.1210  0.0935
 5722TIP3    H138801   3.108   3.564   1.924  1.0785 -1.3569  0.9459
 5722TIP3    H238802   3.158   3.686   1.999 -1.0331  0.1410  0.0432
 5723TIP3   OH238803   2.739   1.445   1.250 -0.1969 -0.4325 -0.0315
 5723TIP3    H138804   2.816   1.489   1.285  0.2840 -1.6889  0.5317
 5723TIP3    H238805   2.667   1.475   1.305 -0.2467  1.1228 -0.8537
 5724TIP3   OH238806   5.539   6.770   0.897 -0.4648 -0.1286 -0.1225
 5724TIP3    H138807   5.501   6.688   0.865 -0.3681  0.4479 -1.7619
 5724TIP3    H238808   5.481   6.839   0.863 -1.0086  0.4850  1.8981
 5725TIP3   OH238809   0.612   4.785   7.948  0.1317 -1.1114 -0.2363
 5725TIP3    H138810   0.533   4.837   7.935  0.7344 -0.1104 -0.0108
 5725TIP3    H238811   0.682   4.838   7.909  0.5489 -2.4842 -1.4443
 5726TIP3   OH238812   2.212   0.229   1.861 -0.0963 -0.3133 -0.9223
 5726TIP3    H138813   2.126   0.189   1.846 -1.2901  1.5295  0.5242
 5726TIP3    H238814   2.240   0.194   1.946 -1.2135  1.8393  0.4222
 5727TIP3   OH238815   2.446   0.209   7.480  0.5931 -0.5265 -0.1461
 5727TIP3    H138816   2.367   0.257   7.506  0.2210  0.1763 -2.3333
 5727TIP3    H238817   2.414   0.135   7.429  1.3107 -0.0743 -1.3042
 5728TIP3   OH238818   1.372   5.680   0.385 -0.0099  0.3035  0.3377
 5728TIP3    H138819   1.351   5.590   0.411 -0.1841 -0.1673 -1.2970
 5728TIP3    H238820   1.345   5.685   0.293  3.1507  0.9185 -0.6998
 5729TIP3   OH238821   6.543   0.369   8.625  0.5676 -0.7690 -0.4174
 5729TIP3    H138822   6.533   0.372   8.720 -1.6914  1.1733 -0.6347
 5729TIP3    H238823   6.629   0.408   8.609  0.0976  0.8531  0.7568
 5730TIP3   OH238824   6.542   0.198   3.067  0.8130  0.0428  0.0301
 5730TIP3    H138825   6.479   0.251   3.117  0.6711 -0.8523  0.8283
 5730TIP3    H238826   6.575   0.257   3.000  0.0715  0.9109  0.4091
 5731TIP3   OH238827   4.205   2.269   7.702 -0.1461  0.0249 -0.2276
 5731TIP3    H138828   4.214   2.310   7.616  0.4936 -0.4956 -0.4052
 5731TIP3    H238829   4.285   2.292   7.748 -0.6089  0.5473  0.3488
 5732TIP3   OH238830   0.633   5.838   1.635  0.0284 -0.1520 -0.1491
 5732TIP3    H138831   0.628   5.933   1.642  1.2119 -0.1480  1.2929
 5732TIP3    H238832   0.650   5.821   1.542 -1.3253  0.9607 -0.6208
 5733TIP3   OH238833   3.201   4.998   7.067  0.4704  0.3449  0.7348
 5733TIP3    H138834   3.109   4.975   7.049  0.7757 -1.2422  1.0567
 5733TIP3    H238835   3.202   5.018   7.160  0.2350  1.6126  0.4854
 5734TIP3   OH238836   2.984   5.872   2.872  0.2068  0.0082 -0.1632
 5734TIP3    H138837   2.949   5.960   2.883 -0.0445 -0.1523  0.3329
 5734TIP3    H238838   2.941   5.820   2.940 -0.0623 -0.6195 -0.8000
 5735TIP3   OH238839   5.584   1.779   2.373 -0.7857  0.5939 -0.4314
 5735TIP3    H138840   5.542   1.854   2.329  0.9955  1.1115 -1.3626
 5735TIP3    H238841   5.615   1.815   2.456 -1.3827  0.4441 -0.1401
 5736TIP3   OH238842   1.605   5.194   0.365  0.0010  0.2901  0.0441
 5736TIP3    H138843   1.571   5.167   0.450 -2.2909 -0.7637 -1.1130
 5736TIP3    H238844   1.575   5.125   0.305  0.1494  1.8301 -1.8741
 5737TIP3   OH238845   1.751   4.011   8.569  0.2464  0.1441  0.0681
 5737TIP3    H138846   1.725   4.102   8.582  1.3914  0.8069 -1.9380
 5737TIP3    H238847   1.695   3.980   8.498  1.5387  0.0888 -0.9567
 5738TIP3   OH238848   3.436   6.547   3.551 -0.3495  0.2377 -0.3020
 5738TIP3    H138849   3.457   6.554   3.457  0.7064  0.1114 -0.0896
 5738TIP3    H238850   3.482   6.468   3.579 -2.2664 -0.8577 -0.0885
 5739TIP3   OH238851   1.349   6.408   8.394  0.2239  0.3499 -0.4552
 5739TIP3    H138852   1.296   6.396   8.473  0.5146  1.6394 -0.0263
 5739TIP3    H238853   1.419   6.343   8.401  1.0218  1.3053  1.0647
 5740TIP3   OH238854   2.854   6.217   2.132  0.0724 -0.0351 -0.7111
 5740TIP3    H138855   2.782   6.260   2.178 -0.5207 -2.1918  0.5146
 5740TIP3    H238856   2.929   6.225   2.190  0.1891  0.0905 -0.8779
 5741TIP3   OH238857   5.600   4.691   0.032 -0.2136 -0.3103  0.6720
 5741TIP3    H138858   5.663   4.757   0.003 -0.3229  0.3972  1.9705
 5741TIP3    H238859   5.646   4.608   0.023 -0.6694 -0.3409 -2.7066
 5742TIP3   OH238860   5.614   0.897   0.530  0.0641 -0.6816  0.3679
 5742TIP3    H138861   5.595   0.971   0.587 -1.5405 -1.7948  1.3702
 5742TIP3    H238862   5.654   0.832   0.589  3.5366  0.0941 -0.8980
 5743TIP3   OH238863   0.427   5.148   1.519  0.5472 -0.0063  0.2987
 5743TIP3    H138864   0.404   5.206   1.446  0.5732  1.7542  1.6377
 5743TIP3    H238865   0.482   5.201   1.576  2.2029 -1.9523  0.6582
 5744TIP3   OH238866   2.155   4.738   1.698 -0.3456 -0.2470 -0.4908
 5744TIP3    H138867   2.232   4.702   1.742 -0.7830 -1.4710 -0.7014
 5744TIP3    H238868   2.094   4.665   1.692 -0.8869  0.2788 -1.7886
 5745TIP3   OH238869   2.161   5.279   0.350 -0.0715  0.2487  0.4768
 5745TIP3    H138870   2.121   5.341   0.410  0.0895  0.5916  0.2345
 5745TIP3    H238871   2.113   5.292   0.268  1.3055  1.5253 -0.1765
 5746TIP3   OH238872   1.812   2.452   7.874 -0.4184 -0.1246 -0.0382
 5746TIP3    H138873   1.862   2.442   7.793 -0.4807  1.9122 -0.3804
 5746TIP3    H238874   1.878   2.471   7.941 -0.5965  1.3963 -0.2636
 5747TIP3   OH238875   2.107   0.294   2.772 -0.4349 -0.0481 -0.2465
 5747TIP3    H138876   2.135   0.252   2.853 -0.0052 -0.9482 -0.8518
 5747TIP3    H238877   2.032   0.243   2.743 -0.0870 -0.2314 -0.8360
 5748TIP3   OH238878   2.388   3.947   0.836  0.2189 -0.1567  0.5995
 5748TIP3    H138879   2.313   3.902   0.874  0.5836  1.2101  3.1245
 5748TIP3    H238880   2.409   4.017   0.898  1.5444  1.6020 -1.6644
 5749TIP3   OH238881   0.528   0.803   7.329  0.4575 -0.3837  0.5311
 5749TIP3    H138882   0.513   0.711   7.307 -1.6992 -0.1180  0.6562
 5749TIP3    H238883   0.607   0.826   7.281  0.3970 -1.9920 -0.4310
 5750TIP3   OH238884   6.375   2.323   1.812  0.1843  0.0903 -0.1465
 5750TIP3    H138885   6.398   2.367   1.894 -2.2075  2.0452 -0.4011
 5750TIP3    H238886   6.448   2.344   1.753  0.1053  2.0270  0.3795
 5751TIP3   OH238887   4.005   5.606   0.398 -0.2347 -0.5531  0.6461
 5751TIP3    H138888   4.067   5.675   0.375 -2.5645  1.4722  0.0325
 5751TIP3    H238889   3.965   5.636   0.480  1.4776 -3.2407  2.6673
 5752TIP3   OH238890   1.377   6.254   2.110 -0.1089  0.0623 -0.5310
 5752TIP3    H138891   1.322   6.326   2.079  1.1680  1.3943  0.2035
 5752TIP3    H238892   1.449   6.296   2.157 -0.2114 -1.7495  1.4261
 5753TIP3   OH238893   0.469   1.917   3.283  0.4808  0.2830  0.6239
 5753TIP3    H138894   0.397   1.954   3.336  0.0444  0.0510  0.2035
 5753TIP3    H238895   0.548   1.948   3.326  0.1282  0.6209  1.0485
 5754TIP3   OH238896   5.078   3.114   0.399 -0.1960 -0.4399  0.0738
 5754TIP3    H138897   5.036   3.190   0.357 -0.9576  0.1608  1.8333
 5754TIP3    H238898   5.166   3.111   0.360 -0.1164  1.4148  0.0023
 5755TIP3   OH238899   0.931   6.338   2.860  0.3077  0.4892 -0.3947
 5755TIP3    H138900   0.905   6.246   2.854 -0.4699  0.5513  1.3367
 5755TIP3    H238901   1.026   6.335   2.866  0.2751 -0.2380 -0.0504
 5756TIP3   OH238902   6.077   4.727   3.561  0.3772  0.4892 -0.0980
 5756TIP3    H138903   5.991   4.727   3.601  0.5011  0.0844  0.1746
 5756TIP3    H238904   6.060   4.742   3.468 -0.1911 -1.8628 -0.4439
 5757TIP3   OH238905   4.288   4.755   6.943  0.5677  0.0575  0.0385
 5757TIP3    H138906   4.216   4.694   6.956  1.3586 -0.8924  0.0580
 5757TIP3    H238907   4.245   4.839   6.925 -0.6542 -1.1746 -3.7993
 5758TIP3   OH238908   1.922   5.094   8.203 -0.1350 -0.8259  0.2152
 5758TIP3    H138909   1.997   5.050   8.164  0.1385 -0.1405 -0.0370
 5758TIP3    H238910   1.956   5.136   8.282 -0.3074 -0.7288  0.2398
 5759TIP3   OH238911   0.025   2.902   2.967 -0.4664 -0.2140 -0.4797
 5759TIP3    H138912   0.109   2.857   2.971 -0.3697 -0.0704 -0.8618
 5759TIP3    H238913  -0.029   2.858   3.033 -0.4460 -1.0308 -0.9917
 5760TIP3   OH238914   3.972   2.193   1.017  0.2773  0.2833  0.3355
 5760TIP3    H138915   3.955   2.164   0.928  0.6296  0.4572  0.2083
 5760TIP3    H238916   4.025   2.272   1.007  0.9483 -0.1078  0.7090
 5761TIP3   OH238917   5.813   6.715   8.024 -0.2630 -0.1982  0.2974
 5761TIP3    H138918   5.845   6.644   7.969  1.1341  0.1243  0.6711
 5761TIP3    H238919   5.869   6.790   8.002  0.1310  0.0152  1.9429
 5762TIP3   OH238920   4.476   5.132   2.480 -0.4192  0.3102 -0.1203
 5762TIP3    H138921   4.527   5.209   2.455  0.7927  0.2974  2.0894
 5762TIP3    H238922   4.537   5.059   2.473 -0.4911  0.1002  1.2931
 5763TIP3   OH238923   4.318   4.440   0.303 -0.7558  0.1287 -0.2836
 5763TIP3    H138924   4.235   4.475   0.334 -0.2175  1.2515 -0.0418
 5763TIP3    H238925   4.323   4.465   0.211  0.1700  1.8617  0.1799
 5764TIP3   OH238926   6.251   2.198   1.132 -0.2819 -0.0839 -0.3177
 5764TIP3    H138927   6.170   2.178   1.085  0.8785 -0.5212 -2.2385
 5764TIP3    H238928   6.283   2.112   1.161 -0.4877  0.0874  0.4358
 5765TIP3   OH238929   5.009   4.463   3.219 -0.2448  0.2898 -0.4764
 5765TIP3    H138930   5.032   4.533   3.279  2.5647  0.7200 -1.8874
 5765TIP3    H238931   4.950   4.504   3.155 -2.2800  0.1221  1.2052
 5766TIP3   OH238932   4.335   5.209   8.560 -0.2773 -0.0350 -0.6466
 5766TIP3    H138933   4.315   5.134   8.504  0.0851  1.0253 -2.2817
 5766TIP3    H238934   4.265   5.272   8.541  1.2364  1.3602 -1.9330
 5767TIP3   OH238935   1.369   5.611   1.702  0.0795 -0.2622  0.6764
 5767TIP3    H138936   1.422   5.537   1.672  0.4924 -0.0044  0.7551
 5767TIP3    H238937   1.279   5.580   1.699  0.3201 -1.1179  1.6846
 5768TIP3   OH238938   2.750   3.373   0.048  0.2132  0.3257  0.0336
 5768TIP3    H138939   2.705   3.322  -0.019 -1.8195 -0.0358  1.5835
 5768TIP3    H238940   2.747   3.463   0.016  0.8425 -0.0565 -1.1506
 5769TIP3   OH238941   3.232   3.840   2.507 -0.2352 -0.3655 -0.1583
 5769TIP3    H138942   3.224   3.897   2.584  1.2226 -2.1934  1.4381
 5769TIP3    H238943   3.147   3.796   2.500 -0.2437 -0.4843  0.6616
 5770TIP3   OH238944   1.939   1.859   0.694 -0.0190  0.4977  0.0522
 5770TIP3    H138945   2.026   1.874   0.655  0.4200  0.2304  0.9073
 5770TIP3    H238946   1.931   1.764   0.699  0.6678  0.4962  2.1560
 5771TIP3   OH238947   6.560   3.020   0.605 -0.0336 -0.3715 -0.1210
 5771TIP3    H138948   6.559   3.084   0.677  0.8959  0.3553 -0.7192
 5771TIP3    H238949   6.473   2.980   0.607 -0.8350  1.2716 -0.0321
 5772TIP3   OH238950   6.679   5.859   2.341 -0.1245  0.0806 -0.3831
 5772TIP3    H138951   6.714   5.827   2.425  1.1960 -3.3343 -2.0371
 5772TIP3    H238952   6.584   5.855   2.352  0.0233 -0.3334  0.9324
 5773TIP3   OH238953   2.563   5.414   2.056  0.8882  0.0608 -0.6295
 5773TIP3    H138954   2.639   5.412   1.998  1.1402 -1.2996 -0.2857
 5773TIP3    H238955   2.577   5.341   2.117 -0.9535 -0.5747 -0.9107
 5774TIP3   OH238956   0.186   1.197   1.405 -0.2131 -0.1448  0.0180
 5774TIP3    H138957   0.210   1.251   1.330  0.6854  1.4792  1.3935
 5774TIP3    H238958   0.255   1.131   1.411 -1.2621 -1.4708 -1.6153
 5775TIP3   OH238959   6.812   4.661   0.425  0.3372 -0.1756  0.2043
 5775TIP3    H138960   6.771   4.681   0.341  0.4074 -0.0517  0.1992
 5775TIP3    H238961   6.904   4.685   0.413  0.6236 -1.3426 -0.0979
 5776TIP3   OH238962   5.707   2.575   1.695 -0.0889  0.0625  0.1560
 5776TIP3    H138963   5.740   2.665   1.706 -1.3966  0.6279 -0.3448
 5776TIP3    H238964   5.705   2.562   1.600 -0.5674 -0.2319  0.2052
 5777TIP3   OH238965   6.879   3.967   3.129 -0.0635  0.2987 -0.4478
 5777TIP3    H138966   6.956   3.931   3.173  0.2706  1.4121 -0.0923
 5777TIP3    H238967   6.858   4.046   3.179 -0.4565  0.8839 -1.5185
 5778TIP3   OH238968   6.224   2.534   0.691 -1.0775 -0.5962  0.3605
 5778TIP3    H138969   6.187   2.570   0.611  0.1909 -0.0656 -0.0028
 5778TIP3    H238970   6.305   2.583   0.705 -0.3569 -1.9089  0.9855
 5779TIP3   OH238971   5.139   3.935   2.542  0.1222 -1.0349 -0.1113
 5779TIP3    H138972   5.068   3.989   2.507 -1.1675 -2.2442  0.5379
 5779TIP3    H238973   5.105   3.846   2.541  2.0585 -1.8262 -0.7989
 5780TIP3   OH238974   1.037   4.283   0.384  0.6258 -0.3910 -0.7208
 5780TIP3    H138975   1.112   4.256   0.438  0.1435  2.3740  1.5848
 5780TIP3    H238976   0.965   4.229   0.414  1.0988 -1.2961 -1.1534
 5781TIP3   OH238977   4.464   6.758   0.207  0.1167 -0.2123  0.3021
 5781TIP3    H138978   4.522   6.833   0.220  1.3841 -1.3963  1.7664
 5781TIP3    H238979   4.469   6.740   0.113  0.0697  1.2980 -0.0091
 5782TIP3   OH238980   0.632   6.396   8.368 -0.1705 -0.1267  0.5200
 5782TIP3    H138981   0.547   6.375   8.328  0.4325 -0.3991 -0.6485
 5782TIP3    H238982   0.692   6.330   8.333  0.2505 -0.8358  2.4600
 5783TIP3   OH238983   0.030   6.170   3.449 -0.2928  0.1309 -0.0714
 5783TIP3    H138984  -0.003   6.251   3.488 -0.4340 -0.5518  1.3038
 5783TIP3    H238985  -0.043   6.109   3.455  0.1578 -0.4133 -0.0985
 5784TIP3   OH238986   4.305   3.440   2.546  0.1419 -0.0870  0.0947
 5784TIP3    H138987   4.311   3.461   2.453  0.7375 -0.5656  0.0212
 5784TIP3    H238988   4.395   3.442   2.577  0.0903 -1.3272  0.3532
 5785TIP3   OH238989   3.639   3.243   1.729 -0.0041  0.4236 -0.0114
 5785TIP3    H138990   3.557   3.195   1.740  0.0133  0.5082  0.5118
 5785TIP3    H238991   3.648   3.253   1.635 -0.6325  0.4716 -0.0746
 5786TIP3   OH238992   4.845   2.912   7.653 -0.4613  0.0417  0.6289
 5786TIP3    H138993   4.767   2.903   7.599  0.2610 -0.6830 -0.3340
 5786TIP3    H238994   4.837   2.845   7.721 -0.2826 -0.6051  0.0203
 5787TIP3   OH238995   1.943   1.784   0.216  0.5274 -0.2839 -0.3484
 5787TIP3    H138996   1.993   1.745   0.145 -1.4764 -1.9676 -0.9502
 5787TIP3    H238997   1.961   1.729   0.292  0.4628 -0.2120 -0.2801
 5788TIP3   OH238998   1.126   5.796   0.419 -0.4447 -0.0308  0.2598
 5788TIP3    H138999   1.103   5.873   0.471  0.5500  1.3236 -1.2279
 5788TIP3    H239000   1.199   5.756   0.465 -0.5247  0.3034  0.6814
 5789TIP3   OH239001   3.292   3.925   0.157  0.0452 -0.1806  0.2144
 5789TIP3    H139002   3.231   3.856   0.131 -0.1488  0.5511 -1.3967
 5789TIP3    H239003   3.370   3.879   0.187 -0.2499 -1.1128 -0.4164
 5790TIP3   OH239004   6.374   5.812   1.577 -0.0250  0.2201  0.5289
 5790TIP3    H139005   6.457   5.855   1.593 -0.5659  1.2395  0.6585
 5790TIP3    H239006   6.358   5.824   1.483 -1.1395  2.1464  0.9016
 5791TIP3   OH239007   2.786   2.235   3.046 -0.5096  0.0760 -0.8255
 5791TIP3    H139008   2.776   2.281   2.963  0.1069  0.3480 -0.7598
 5791TIP3    H239009   2.881   2.236   3.062 -0.7016  1.1326  0.4759
 5792TIP3   OH239010   4.999   4.843   2.820 -0.1042 -0.0628 -0.3939
 5792TIP3    H139011   5.068   4.864   2.757  0.6089 -0.6960  0.1680
 5792TIP3    H239012   5.028   4.882   2.902  0.4347 -1.7591  0.2563
 5793TIP3   OH239013   2.205   2.718   0.255  0.0906 -0.5826  0.1095
 5793TIP3    H139014   2.155   2.679   0.327 -0.6525  2.3970  1.3633
 5793TIP3    H239015   2.139   2.762   0.201  0.8904 -0.8900 -1.1818
 5794TIP3   OH239016   1.544   4.944   2.513 -0.4535  0.9595  0.4144
 5794TIP3    H139017   1.550   4.850   2.499 -0.1375  1.0121  0.1978
 5794TIP3    H239018   1.634   4.976   2.506 -0.7810  1.5656 -1.5359
 5795TIP3   OH239019   3.864   2.157   7.691  1.2181 -0.4161 -0.4624
 5795TIP3    H139020   3.899   2.118   7.611 -0.0272  0.2281 -1.3544
 5795TIP3    H239021   3.770   2.137   7.688  0.2466  3.5935 -1.5905
 5796TIP3   OH239022   3.688   1.655   0.882  0.5294 -1.0348  0.3857
 5796TIP3    H139023   3.704   1.567   0.916  0.5418 -1.3104 -0.3140
 5796TIP3    H239024   3.766   1.676   0.831  0.3049 -0.8311  0.1192
 5797TIP3   OH239025   2.855   0.966   2.204 -0.0889  0.2806  0.5143
 5797TIP3    H139026   2.928   0.909   2.229 -0.0937  0.0535  0.0319
 5797TIP3    H239027   2.783   0.906   2.186 -0.4062  0.5068  1.0188
 5798TIP3   OH239028   0.108   6.733   0.922  0.3986 -0.3851  0.0388
 5798TIP3    H139029   0.161   6.681   0.861  1.2010  0.2123  0.2095
 5798TIP3    H239030   0.158   6.814   0.934 -0.7405  0.3514 -0.0692
 5799TIP3   OH239031   6.520   0.437   1.823 -0.5740  0.6328 -0.2431
 5799TIP3    H139032   6.567   0.520   1.815  0.6515 -0.0221 -0.0143
 5799TIP3    H239033   6.430   0.462   1.846  0.3930  1.8249  2.6791
 5800TIP3   OH239034   0.684   2.953   1.033  0.0366 -0.1953 -0.1868
 5800TIP3    H139035   0.654   2.898   1.105  2.1431 -2.2103 -0.7295
 5800TIP3    H239036   0.773   2.977   1.055  0.9800 -1.4053 -2.3258
 5801TIP3   OH239037   3.339   5.788   1.910 -0.2247  0.1949 -0.0308
 5801TIP3    H139038   3.367   5.726   1.842  0.8323  0.2901  0.3036
 5801TIP3    H239039   3.400   5.774   1.982 -0.7121  0.8081  0.5148
 5802TIP3   OH239040   1.481   2.997   1.832 -0.5739  0.7384  0.1519
 5802TIP3    H139041   1.390   2.983   1.855 -0.4799  1.1287  0.7889
 5802TIP3    H239042   1.490   3.092   1.825 -0.6321  0.6490 -1.6862
 5803TIP3   OH239043   6.680   2.390   1.366 -0.2017  0.1201 -0.3395
 5803TIP3    H139044   6.603   2.430   1.408 -0.5195 -0.5975 -0.2149
 5803TIP3    H239045   6.750   2.453   1.380 -1.0165  1.3292 -1.4471
 5804TIP3   OH239046   6.764   2.203   0.912  0.2455  0.3429 -0.0082
 5804TIP3    H139047   6.804   2.288   0.897 -1.0993  1.9715  4.2448
 5804TIP3    H239048   6.679   2.208   0.869 -0.0762  1.4722  0.7074
 5805TIP3   OH239049   3.188   6.558   2.877  0.0141  0.2656  0.7572
 5805TIP3    H139050   3.223   6.639   2.913 -2.3176  1.8566 -0.3419
 5805TIP3    H239051   3.154   6.582   2.791 -1.8955 -1.5449  0.9216
 5806TIP3   OH239052   0.692   4.559   2.122 -0.5814 -0.4417  0.1895
 5806TIP3    H139053   0.756   4.561   2.193 -1.6633  3.6587  1.3035
 5806TIP3    H239054   0.730   4.613   2.053 -2.0662  0.6174  0.1607
 5807TIP3   OH239055   4.048   3.906   3.365 -0.6295 -0.5168 -0.2194
 5807TIP3    H139056   4.069   3.908   3.458  0.4092 -1.2121 -0.4221
 5807TIP3    H239057   3.986   3.978   3.353  0.6832  0.8068  0.6573
 5808TIP3   OH239058   0.687   2.469   1.463  0.4777  0.2267  0.0736
 5808TIP3    H139059   0.702   2.562   1.482 -0.1623  0.4378 -0.4387
 5808TIP3    H239060   0.603   2.467   1.417  0.7018 -0.5645 -0.3082
 5809TIP3   OH239061   6.188   2.365   2.878  0.5913 -0.3102 -0.4061
 5809TIP3    H139062   6.154   2.430   2.939  1.5705  1.1470 -1.3404
 5809TIP3    H239063   6.247   2.414   2.821  0.2338 -1.7345 -2.1054
 5810TIP3   OH239064   3.007   1.809   1.503 -0.8572  0.2817 -0.0950
 5810TIP3    H139065   2.950   1.883   1.482  0.5121  2.0408  1.9646
 5810TIP3    H239066   3.022   1.816   1.597  2.1179 -0.5122 -0.4087
 5811TIP3   OH239067   3.912   1.561   7.502  0.2971 -0.2654 -0.3429
 5811TIP3    H139068   3.965   1.492   7.541  2.9358  1.5175 -0.5421
 5811TIP3    H239069   3.881   1.524   7.419  1.6871 -1.2041 -0.4599
 5812TIP3   OH239070   3.778   5.607   8.414  0.1061 -0.1187 -0.4843
 5812TIP3    H139071   3.694   5.643   8.442 -0.0135 -0.8796  0.1639
 5812TIP3    H239072   3.756   5.521   8.376  0.5619 -0.2221 -0.5277
 5813TIP3   OH239073   5.467   5.368   0.262  0.0941  0.5483  0.2354
 5813TIP3    H139074   5.374   5.368   0.288 -0.3780 -1.2685 -1.2609
 5813TIP3    H239075   5.465   5.381   0.168  1.4094  0.8055  0.2299
 5814TIP3   OH239076   4.056   0.959   2.876  0.0920  0.1916 -0.0278
 5814TIP3    H139077   4.129   0.905   2.845 -0.1109  0.1511 -0.4423
 5814TIP3    H239078   3.989   0.895   2.904  0.4019  0.2258  0.8114
 5815TIP3   OH239079   5.131   2.924   3.261 -0.6427 -0.0977 -0.0019
 5815TIP3    H139080   5.158   3.009   3.227 -1.0748  0.3409  0.7392
 5815TIP3    H239081   5.106   2.874   3.183 -0.7281  0.5711 -0.4121
 5816TIP3   OH239082   1.360   5.817   8.044 -0.5555  0.1955  0.0364
 5816TIP3    H139083   1.315   5.732   8.040 -0.6887  0.2562  0.2458
 5816TIP3    H239084   1.295   5.880   8.014 -0.7433  0.3348  0.7242
 5817TIP3   OH239085   3.048   5.147   3.173 -0.0493 -0.5517  0.0775
 5817TIP3    H139086   3.096   5.221   3.136  1.6802 -0.8615  1.5950
 5817TIP3    H239087   2.970   5.187   3.212  0.1204  0.2662 -0.3866
 5818TIP3   OH239088   5.422   5.021   2.556 -0.5935  0.1522  0.6351
 5818TIP3    H139089   5.506   4.976   2.561 -1.1546 -0.9424  0.6663
 5818TIP3    H239090   5.444   5.112   2.539  0.5704 -0.2682 -0.2476
 5819TIP3   OH239091   4.046   4.987   7.971  0.2615 -0.2487  0.1323
 5819TIP3    H139092   4.074   4.907   8.016  1.7756 -0.0713 -0.4292
 5819TIP3    H239093   3.996   4.957   7.896  0.8479 -0.6738 -0.0890
 5820TIP3   OH239094   1.469   1.056   1.190 -0.4982  0.0601 -0.1657
 5820TIP3    H139095   1.413   1.084   1.262  0.5693  0.6172  0.4729
 5820TIP3    H239096   1.521   1.133   1.168 -1.6486  0.2789 -2.3939
 5821TIP3   OH239097   3.268   6.745   1.412  0.0417 -0.1747  0.2157
 5821TIP3    H139098   3.352   6.753   1.367 -1.1493  0.2317 -2.0845
 5821TIP3    H239099   3.244   6.835   1.434 -0.0038 -0.2436  0.4489
 5822TIP3   OH239100   2.761   4.936   2.597 -0.1961 -0.1737  0.2710
 5822TIP3    H139101   2.716   5.013   2.631 -2.2588 -1.2405  0.1135
 5822TIP3    H239102   2.826   4.915   2.664 -0.7463  0.7149  1.1204
 5823TIP3   OH239103   1.122   5.546   2.999 -0.2147  0.2184  0.2448
 5823TIP3    H139104   1.153   5.455   2.990 -0.0092  0.3003  0.1083
 5823TIP3    H239105   1.170   5.593   2.931 -1.9742  0.0101 -1.2120
 5824TIP3   OH239106   5.260   4.936   0.221  0.0356 -0.1945 -0.8687
 5824TIP3    H139107   5.300   4.930   0.134  2.3519 -0.1886  0.1187
 5824TIP3    H239108   5.239   4.845   0.244 -0.7253 -0.1798 -1.4694
 5825TIP3   OH239109   0.184   5.235   1.106  0.2359 -0.0798  0.0396
 5825TIP3    H139110   0.216   5.147   1.125  1.2190 -0.0347 -1.2403
 5825TIP3    H239111   0.150   5.267   1.190  2.4037 -0.6275  1.2079
 5826TIP3   OH239112   1.930   0.238   3.101 -0.0541  0.4018 -0.8488
 5826TIP3    H139113   1.896   0.203   3.183 -1.4472  2.2668 -0.5744
 5826TIP3    H239114   1.870   0.205   3.034 -0.3839  0.9139 -0.8034
 5827TIP3   OH239115   4.586   3.280   1.542  0.3588 -0.1023 -0.4455
 5827TIP3    H139116   4.572   3.367   1.580  1.4919 -0.4972  0.9810
 5827TIP3    H239117   4.512   3.228   1.572  0.0336  0.1917 -0.7331
 5828TIP3   OH239118   0.482   4.123   0.513 -0.2268  0.2531 -0.1412
 5828TIP3    H139119   0.531   4.149   0.435  0.6121 -0.1602  0.2274
 5828TIP3    H239120   0.411   4.187   0.520 -0.0516  0.5492 -0.9929
 5829TIP3   OH239121   4.031   1.908   2.700  0.5216 -0.0304 -0.7331
 5829TIP3    H139122   4.097   1.864   2.754 -0.6681 -0.3994  0.4511
 5829TIP3    H239123   3.972   1.839   2.672 -0.9938  0.6558  0.6063
 5830TIP3   OH239124   0.010   0.470   0.308 -0.1793 -0.4183  0.2329
 5830TIP3    H139125   0.005   0.518   0.391 -0.3026 -0.7014  0.3902
 5830TIP3    H239126  -0.063   0.408   0.313 -0.0762 -0.5562 -0.0112
 5831TIP3   OH239127   2.034   5.070   3.426  0.4087  0.0307  0.1103
 5831TIP3    H139128   2.038   5.013   3.504  0.0671  0.2052  0.2560
 5831TIP3    H239129   1.947   5.109   3.430  0.1762 -0.3969 -0.6785
 5832TIP3   OH239130   1.404   2.664   2.675 -0.2063 -0.2340  0.6143
 5832TIP3    H139131   1.365   2.730   2.618 -0.8821 -0.0189  1.3102
 5832TIP3    H239132   1.368   2.581   2.644  1.4981 -0.4448 -0.9845
 5833TIP3   OH239133   5.086   6.096   7.997  0.6101  0.1537  0.7012
 5833TIP3    H139134   5.145   6.037   7.950  0.1763  1.5909 -1.8125
 5833TIP3    H239135   5.030   6.133   7.929 -1.2365  1.0759  2.6173
 5834TIP3   OH239136   4.870   4.387   2.402  0.2652  0.2853 -0.2832
 5834TIP3    H139137   4.853   4.456   2.338  1.3252  1.7005  0.8922
 5834TIP3    H239138   4.884   4.434   2.485  0.2036 -1.3966  0.7290
 5835TIP3   OH239139   4.036   3.216   8.584  0.8754 -0.3426 -0.2328
 5835TIP3    H139140   4.058   3.307   8.604 -1.1943  0.6738 -2.0779
 5835TIP3    H239141   4.029   3.214   8.489 -0.6505 -2.0217 -0.1423
 5836TIP3   OH239142   1.353   2.251   1.105  0.4688  0.4697 -0.1292
 5836TIP3    H139143   1.389   2.192   1.039  0.3653  1.9115 -1.5367
 5836TIP3    H239144   1.377   2.212   1.189  0.2411 -1.6416 -0.9947
 5837TIP3   OH239145   3.608   3.840   0.143  0.6323 -0.0675 -0.3964
 5837TIP3    H139146   3.583   3.821   0.233  0.0149 -2.2377 -0.9560
 5837TIP3    H239147   3.703   3.853   0.146  0.6197 -0.1393  0.5455
 5838TIP3   OH239148   1.897   1.104   0.530 -0.1644 -0.0157 -0.1364
 5838TIP3    H139149   1.967   1.122   0.468  0.5668 -0.0166  0.6652
 5838TIP3    H239150   1.889   1.184   0.582 -1.5176  0.3872 -0.9165
 5839TIP3   OH239151   2.643   1.030   8.219  0.5193  0.0727 -0.9700
 5839TIP3    H139152   2.670   0.938   8.214 -0.4700 -0.1495 -2.6684
 5839TIP3    H239153   2.721   1.079   8.191  0.4636 -0.3545 -1.9083
 5840TIP3   OH239154   3.122   4.208   0.744  0.1172 -0.5327 -0.0555
 5840TIP3    H139155   3.073   4.139   0.700  0.2818 -1.3689  1.0288
 5840TIP3    H239156   3.055   4.270   0.773 -0.3352 -1.6557  1.3920
 5841TIP3   OH239157   0.262   3.844   1.229  0.2761 -0.1340 -0.3595
 5841TIP3    H139158   0.184   3.788   1.236  1.0590 -1.2600 -0.2726
 5841TIP3    H239159   0.247   3.897   1.151 -1.0514  0.4477  0.2647
 5842TIP3   OH239160   0.318   4.196   7.240  0.3839 -0.2123 -0.0625
 5842TIP3    H139161   0.339   4.269   7.299 -0.5357 -0.3454  0.4366
 5842TIP3    H239162   0.346   4.118   7.287  1.8621 -0.1867 -0.8146
 5843TIP3   OH239163   3.089   3.769   0.728 -0.1566  0.0850  0.4608
 5843TIP3    H139164   3.149   3.707   0.687 -1.4586 -0.6834 -0.3554
 5843TIP3    H239165   3.080   3.739   0.818 -1.4122 -1.4612 -0.1393
 5844TIP3   OH239166   3.884   5.211   2.954  0.3798 -0.5773 -0.1441
 5844TIP3    H139167   3.806   5.267   2.947  0.6234 -0.0761  0.9314
 5844TIP3    H239168   3.956   5.273   2.968  1.0143 -1.0200 -1.3821
 5845TIP3   OH239169   1.737   5.790   7.314  0.3074 -0.0491 -0.1622
 5845TIP3    H139170   1.655   5.809   7.360  0.0320 -0.0013 -0.6689
 5845TIP3    H239171   1.758   5.871   7.268  0.7742  0.0206  0.1661
 5846TIP3   OH239172   5.304   6.028   0.324 -0.6590 -0.3326 -0.3372
 5846TIP3    H139173   5.392   6.045   0.291 -0.2057 -0.1755  0.9057
 5846TIP3    H239174   5.253   6.004   0.246  0.6028 -0.9404 -1.0020
 5847TIP3   OH239175   2.510   1.496   2.011 -0.4408 -0.0236  0.5797
 5847TIP3    H139176   2.451   1.566   1.985 -0.5306  0.5561  2.2476
 5847TIP3    H239177   2.575   1.491   1.941 -2.1120 -0.2944 -1.0077
 5848TIP3   OH239178   5.082   6.713   0.321  0.5611 -0.5490  0.1920
 5848TIP3    H139179   5.036   6.734   0.402  1.4771  0.3598  0.5060
 5848TIP3    H239180   5.086   6.618   0.320  0.5391 -0.5751  1.2249
 5849TIP3   OH239181   0.494   4.734   2.231 -0.5127 -0.9267  0.1417
 5849TIP3    H139182   0.573   4.688   2.205 -0.8616 -1.8764  0.6990
 5849TIP3    H239183   0.450   4.756   2.149  0.8153  0.5545 -0.2257
 5850TIP3   OH239184   5.978   4.974   1.996  0.4796  0.0835 -0.6632
 5850TIP3    H139185   5.928   5.041   1.949  1.4972  0.9961 -0.4835
 5850TIP3    H239186   5.915   4.904   2.012 -0.7048  1.1419 -0.5582
 5851TIP3   OH239187   6.250   6.735   0.848 -0.8559 -0.3688  0.3793
 5851TIP3    H139188   6.241   6.792   0.771 -0.3058 -0.6299  0.1187
 5851TIP3    H239189   6.211   6.786   0.919  2.3827  1.7763  0.8465
 5852TIP3   OH239190   6.674   4.367   0.778 -0.0672 -1.0463 -0.2873
 5852TIP3    H139191   6.752   4.329   0.738 -0.7200 -0.8710 -1.7875
 5852TIP3    H239192   6.634   4.420   0.709 -1.0788 -0.4602  0.6958
 5853TIP3   OH239193   4.704   1.224   1.117  0.3972 -0.1456 -0.2861
 5853TIP3    H139194   4.664   1.310   1.127  0.0074 -0.2571 -0.8613
 5853TIP3    H239195   4.786   1.240   1.071  0.6017 -0.0219  0.1115
 5854TIP3   OH239196   1.972   0.898   2.914  0.1270 -0.4497  0.0761
 5854TIP3    H139197   1.967   0.837   2.987 -0.6054  0.3946  0.7405
 5854TIP3    H239198   1.943   0.982   2.950  1.0836  0.2938 -0.8284
 5855TIP3   OH239199   2.117   2.306   8.280 -0.0271 -0.2253  0.6240
 5855TIP3    H139200   2.116   2.343   8.192 -2.3882  0.4434  0.8589
 5855TIP3    H239201   2.157   2.373   8.334 -0.3111  0.1681  0.3531
 5856TIP3   OH239202   5.420   4.190   0.927  0.5359  0.2184  0.2547
 5856TIP3    H139203   5.459   4.264   0.973  1.0360  1.3941 -1.9054
 5856TIP3    H239204   5.422   4.118   0.990  1.7299  1.5457  1.8066
 5857TIP3   OH239205   6.058   5.410   1.110 -0.6247 -0.0339 -0.3729
 5857TIP3    H139206   6.132   5.351   1.127 -0.0887  0.3201 -1.3848
 5857TIP3    H239207   5.981   5.354   1.116 -0.2368 -0.5214  0.1607
 5858TIP3   OH239208   1.471   6.488   2.886  0.1584  0.6064  0.9646
 5858TIP3    H139209   1.511   6.402   2.890 -0.2653  0.4269  1.6536
 5858TIP3    H239210   1.434   6.494   2.798 -0.1139 -0.0608  1.0284
 5859TIP3   OH239211   6.803   6.177   7.077  0.0850  0.0229 -0.2400
 5859TIP3    H139212   6.845   6.252   7.034 -0.4609 -0.6305 -1.9809
 5859TIP3    H239213   6.841   6.101   7.034  0.7429 -0.7543  1.6106
 5860TIP3   OH239214   4.008   2.424   2.162  0.5078 -0.1573 -0.0935
 5860TIP3    H139215   4.074   2.356   2.178  2.2624  1.3964 -0.4222
 5860TIP3    H239216   4.052   2.487   2.105 -1.3720  0.8129 -0.5380
 5861TIP3   OH239217   2.262   1.455   0.764  0.6017 -0.1196  0.4358
 5861TIP3    H139218   2.261   1.460   0.860  3.0010  1.1952  0.4667
 5861TIP3    H239219   2.180   1.496   0.737 -0.2748 -0.8026  1.9022
 5862TIP3   OH239220   5.702   1.212   1.448 -0.3560  0.2412  0.0412
 5862TIP3    H139221   5.743   1.183   1.530  0.9285  2.0863  0.1273
 5862TIP3    H239222   5.662   1.296   1.471 -1.6637 -0.1406 -0.7814
 5863TIP3   OH239223   0.420   4.153   2.111  0.1258  0.8674  0.3230
 5863TIP3    H139224   0.473   4.190   2.182 -1.4147  2.7869  0.5467
 5863TIP3    H239225   0.399   4.065   2.141 -0.2151  1.5182  2.1283
 5864TIP3   OH239226   2.960   5.358   8.604 -0.0093  0.1043 -0.1558
 5864TIP3    H139227   2.963   5.444   8.645 -0.6130 -0.6839  1.6389
 5864TIP3    H239228   2.928   5.300   8.672  0.7705 -1.6296 -1.1920
 5865TIP3   OH239229   6.258   3.701   7.026 -0.3564 -0.2353  0.5846
 5865TIP3    H139230   6.338   3.690   7.077 -0.4201  0.4477  0.8452
 5865TIP3    H239231   6.236   3.794   7.036  0.1277  0.1386 -1.3979
 5866TIP3   OH239232   6.719   6.324   0.874  0.5133  0.0305  0.1494
 5866TIP3    H139233   6.707   6.408   0.831  1.3274 -1.6367 -3.7535
 5866TIP3    H239234   6.814   6.310   0.875  0.4368 -0.6055  1.3470
 5867TIP3   OH239235   6.163   4.944   8.266 -0.5775  0.0229  0.4246
 5867TIP3    H139236   6.211   4.867   8.235  0.3088 -0.2669  2.3471
 5867TIP3    H239237   6.194   5.016   8.212 -0.2601 -0.7112 -0.3850
 5868TIP3   OH239238   2.157   5.002   1.731  0.0402  0.0314 -0.3371
 5868TIP3    H139239   2.103   5.016   1.809  0.7347  0.6455  0.0483
 5868TIP3    H239240   2.128   4.918   1.696 -1.4057  0.5006 -0.3453
 5869TIP3   OH239241   4.472   1.774   3.322 -0.6887 -0.4451 -0.8330
 5869TIP3    H139242   4.543   1.769   3.258 -0.6788 -0.4015 -0.8252
 5869TIP3    H239243   4.401   1.722   3.284 -1.1566  0.6521 -1.4936
 5870TIP3   OH239244   1.200   6.545   7.801  0.1143 -0.0528 -0.3519
 5870TIP3    H139245   1.286   6.504   7.794  0.2037 -0.0578  0.6340
 5870TIP3    H239246   1.153   6.516   7.723  2.0152  2.4066 -2.6128
 5871TIP3   OH239247   4.326   0.417   0.464 -0.1306  0.0908  0.1670
 5871TIP3    H139248   4.375   0.443   0.387 -0.9251 -0.4657 -0.5462
 5871TIP3    H239249   4.339   0.323   0.471 -0.9509 -0.0445  0.0477
 5872TIP3   OH239250   1.659   5.631   0.423  0.8134  0.6248 -0.3221
 5872TIP3    H139251   1.566   5.619   0.401  0.7577  1.0270 -0.3087
 5872TIP3    H239252   1.706   5.595   0.347  0.6571 -0.0388 -0.1083
 5873TIP3   OH239253   4.742   1.088   8.353  0.5051 -0.5270  0.2535
 5873TIP3    H139254   4.820   1.125   8.310 -0.3898  0.7738 -0.3234
 5873TIP3    H239255   4.698   1.039   8.284  0.9760 -1.5525  0.6688
 5874TIP3   OH239256   2.309   6.008   2.510  0.1483 -0.9220 -0.1784
 5874TIP3    H139257   2.403   6.028   2.516 -0.4854  2.2318  1.1923
 5874TIP3    H239258   2.280   6.052   2.430 -0.1661 -1.9995 -0.6711
 5875TIP3   OH239259   6.382   4.137   1.857  0.2761  0.5649  0.6555
 5875TIP3    H139260   6.353   4.224   1.882  1.3049  1.1805 -0.1790
 5875TIP3    H239261   6.303   4.083   1.858 -0.2565  1.3420  1.8398
 5876TIP3   OH239262   6.247   5.538   8.050  0.6575  0.0523  0.7256
 5876TIP3    H139263   6.248   5.460   8.106  1.2610 -0.7030 -0.2929
 5876TIP3    H239264   6.179   5.594   8.088 -1.4634 -1.9805  0.1889
 5877TIP3   OH239265   4.091   3.897   2.149 -0.7081  0.1438  0.1972
 5877TIP3    H139266   4.096   3.975   2.204  1.2475  1.2698 -1.4567
 5877TIP3    H239267   4.139   3.830   2.199 -1.0785  0.4325  0.9480
 5878TIP3   OH239268   1.554   4.061   2.276 -0.0119  0.4666 -0.8107
 5878TIP3    H139269   1.635   4.102   2.246  1.7770 -2.3010 -0.0675
 5878TIP3    H239270   1.535   3.994   2.211  0.0041 -0.9056  0.5419
 5879TIP3   OH239271   0.477   1.126   2.451 -0.0814  0.2890 -0.6470
 5879TIP3    H139272   0.551   1.139   2.391 -1.0072  0.4944 -1.7853
 5879TIP3    H239273   0.409   1.087   2.397 -0.7206 -0.1523  0.4500
 5880TIP3   OH239274   2.897   0.397   8.580 -0.3906  0.2005  0.1969
 5880TIP3    H139275   2.955   0.326   8.607 -0.9351 -0.8641 -1.2911
 5880TIP3    H239276   2.832   0.403   8.650 -0.0184 -0.3977  0.5994
 5881TIP3   OH239277   5.143   6.823   0.016 -0.1667  0.0789  0.5462
 5881TIP3    H139278   5.214   6.777  -0.029  0.2381  0.4390  0.8158
 5881TIP3    H239279   5.063   6.784  -0.020  0.1241  1.0228 -1.2085
 5882TIP3   OH239280   6.251   6.062   7.871 -0.4234  0.0451 -0.9422
 5882TIP3    H139281   6.243   6.148   7.830  1.5647  0.9794  0.4629
 5882TIP3    H239282   6.239   6.000   7.800 -0.8974  1.5035 -2.1831
 5883TIP3   OH239283   2.334   1.058   7.345  0.0321  0.6361 -0.8540
 5883TIP3    H139284   2.394   0.990   7.377  0.7469  0.4293 -2.5046
 5883TIP3    H239285   2.253   1.011   7.325 -0.7552  0.9188  1.4012
 5884TIP3   OH239286   0.274   6.253   3.346  0.4146 -0.3620  0.4856
 5884TIP3    H139287   0.202   6.214   3.396  0.5329 -1.9393 -0.5013
 5884TIP3    H239288   0.351   6.204   3.374  0.4870 -1.2598 -1.1772
 5885TIP3   OH239289   0.685   1.152   2.287 -0.1105  0.4646 -0.5719
 5885TIP3    H139290   0.774   1.158   2.252 -0.0920  2.0009 -0.3086
 5885TIP3    H239291   0.643   1.233   2.260 -0.5603  1.0445  1.6780
 5886TIP3   OH239292   2.237   3.644   7.222 -0.0954  0.0889  0.1854
 5886TIP3    H139293   2.189   3.605   7.295  1.3396 -1.9061  0.1734
 5886TIP3    H239294   2.286   3.570   7.184  2.9109  1.9185  0.1789
 5887TIP3   OH239295   1.527   1.414   8.009  0.2822 -0.4076  0.4682
 5887TIP3    H139296   1.486   1.387   7.927  0.2042  2.0927 -0.3924
 5887TIP3    H239297   1.456   1.412   8.073 -0.1471 -0.3498  0.0004
 5888TIP3   OH239298   0.170   0.694   2.554  0.4589  0.4557  0.1203
 5888TIP3    H139299   0.165   0.605   2.519  3.2634 -0.1669  1.0196
 5888TIP3    H239300   0.216   0.684   2.637  1.0635  2.7658  0.1341
 5889TIP3   OH239301   6.600   1.739   0.018 -0.2515  0.2079 -0.3954
 5889TIP3    H139302   6.681   1.689   0.032 -0.0103  0.6685 -0.1072
 5889TIP3    H239303   6.601   1.762  -0.075  0.9100  1.8292 -0.0193
 5890TIP3   OH239304   3.552   2.120   2.579 -0.5296 -0.4536 -0.4371
 5890TIP3    H139305   3.519   2.143   2.666  0.9285 -0.3979  0.1274
 5890TIP3    H239306   3.569   2.025   2.584  2.3080 -0.0001  0.3681
 5891TIP3   OH239307   4.076   1.832   7.305  0.5971  0.4144 -0.4641
 5891TIP3    H139308   4.164   1.833   7.267  1.2928  1.0504  1.1155
 5891TIP3    H239309   4.021   1.871   7.237  1.5822  0.3951 -1.3100
 5892TIP3   OH239310   1.484   2.587   0.590 -0.3224 -0.1672 -0.6117
 5892TIP3    H139311   1.550   2.572   0.522  1.3198  0.0660  0.8649
 5892TIP3    H239312   1.414   2.635   0.545 -0.1108 -1.5217 -2.5201
 5893TIP3   OH239313   0.450   5.907   8.290 -0.4018  0.2392  0.0574
 5893TIP3    H139314   0.525   5.935   8.342  0.4523  0.4845 -1.2491
 5893TIP3    H239315   0.466   5.813   8.274 -0.5049  0.2316  0.0017
 5894TIP3   OH239316   3.464   0.451   1.654  0.1115  0.4258 -0.4177
 5894TIP3    H139317   3.491   0.542   1.669 -0.8239  0.5871  0.3865
 5894TIP3    H239318   3.546   0.402   1.651  0.5870  1.1664  0.0756
 5895TIP3   OH239319   2.921   6.771   1.495  0.3528 -0.0379 -0.1410
 5895TIP3    H139320   3.005   6.792   1.536  0.4008  1.8132 -1.0692
 5895TIP3    H239321   2.856   6.787   1.563  0.5249  1.8090 -0.3648
 5896TIP3   OH239322   3.183   4.550   7.648 -0.3905  0.1707  0.2996
 5896TIP3    H139323   3.166   4.576   7.738  0.7329 -0.8394  0.8217
 5896TIP3    H239324   3.184   4.454   7.650  1.1106  0.1471 -0.4835
 5897TIP3   OH239325   6.831   5.284   7.627  0.0641  0.2246 -0.2595
 5897TIP3    H139326   6.830   5.307   7.534 -1.5320  0.2205 -0.2662
 5897TIP3    H239327   6.920   5.306   7.656  1.1841 -1.3640 -2.1577
 5898TIP3   OH239328   4.227   0.524   1.428 -0.0546  0.0092  0.0363
 5898TIP3    H139329   4.307   0.528   1.376  1.0252 -0.6401  1.5626
 5898TIP3    H239330   4.183   0.444   1.397  0.0351  0.2015 -0.5982
 5899TIP3   OH239331   1.203   6.835   8.339  0.0914  0.5353  0.2182
 5899TIP3    H139332   1.147   6.881   8.401  1.1713 -1.5081  2.9118
 5899TIP3    H239333   1.175   6.743   8.344  1.5374 -0.0001 -0.8071
 5900TIP3   OH239334   3.827   6.074   8.631 -0.0678  0.2500  0.2683
 5900TIP3    H139335   3.799   6.104   8.545 -2.6031 -1.2451  0.4800
 5900TIP3    H239336   3.758   6.103   8.690 -0.4364 -2.1245  1.1162
 5901TIP3   OH239337   0.199   1.726   0.330 -0.0174  0.8803  0.5370
 5901TIP3    H139338   0.208   1.821   0.327 -0.6740  0.9484  0.6234
 5901TIP3    H239339   0.115   1.711   0.372  0.4522  0.2388  1.2663
 5902TIP3   OH239340   0.871   2.348   0.672  0.3215 -0.2015  0.7562
 5902TIP3    H139341   0.865   2.253   0.667  0.6499 -0.2295  0.8807
 5902TIP3    H239342   0.869   2.378   0.581 -0.6676 -0.2667  0.7433
 5903TIP3   OH239343   1.694   3.212   3.018 -0.1634  0.3373 -0.0050
 5903TIP3    H139344   1.784   3.235   3.044 -0.2048  1.6605 -0.9247
 5903TIP3    H239345   1.702   3.124   2.981  0.4710 -0.1856  1.3216
 5904TIP3   OH239346   6.141   0.563   7.786 -0.1664 -0.2297 -0.5831
 5904TIP3    H139347   6.052   0.533   7.769 -0.2824 -0.0527 -0.3046
 5904TIP3    H239348   6.163   0.618   7.711 -1.1672  1.6380  0.4319
 5905TIP3   OH239349   1.376   4.520   0.186  0.4582 -0.1229  0.0228
 5905TIP3    H139350   1.411   4.432   0.175  1.1252 -0.1706  2.0900
 5905TIP3    H239351   1.289   4.517   0.147  0.2442 -1.8611  0.5699
 5906TIP3   OH239352   1.259   5.386   2.277 -0.3709 -0.7219  0.0325
 5906TIP3    H139353   1.325   5.337   2.325  0.1342  0.9137  1.0564
 5906TIP3    H239354   1.186   5.324   2.268  0.3748 -1.7752  0.9667
 5907TIP3   OH239355   6.564   3.268   7.854 -0.4178  0.1461 -0.3148
 5907TIP3    H139356   6.512   3.279   7.774  1.0466  0.5881 -1.2442
 5907TIP3    H239357   6.654   3.283   7.827  0.1978 -0.3396  1.3065
 5908TIP3   OH239358   6.452   5.918   6.972 -0.6837  0.0731 -0.1814
 5908TIP3    H139359   6.492   5.993   6.926 -0.6912 -1.1400 -2.3030
 5908TIP3    H239360   6.525   5.859   6.988 -0.9032 -0.0925  0.2085
 5909TIP3   OH239361   1.995   5.997   2.001  0.2756 -0.0258  0.0124
 5909TIP3    H139362   1.931   6.057   1.963  0.5684  0.3326  0.0810
 5909TIP3    H239363   1.950   5.960   2.077 -0.3293 -0.7865 -0.7007
 5910TIP3   OH239364   4.018   5.740   1.783  0.4219 -0.8338 -0.3014
 5910TIP3    H139365   4.044   5.767   1.871 -1.3246 -0.3274  0.1026
 5910TIP3    H239366   4.087   5.682   1.753  1.2759 -0.6248  1.2161
 5911TIP3   OH239367   0.515   4.449   2.802 -0.1388 -0.4438 -0.2485
 5911TIP3    H139368   0.477   4.404   2.877 -0.5561  0.4635  0.0994
 5911TIP3    H239369   0.533   4.379   2.739  2.2371 -1.5412  1.4729
 5912TIP3   OH239370   4.708   0.466   2.646  0.1744  0.4389 -0.5518
 5912TIP3    H139371   4.767   0.506   2.583  2.4227 -1.6210  0.0689
 5912TIP3    H239372   4.732   0.506   2.730  1.0892 -0.6947 -0.2342
 5913TIP3   OH239373   1.883   1.424   8.121 -0.2625 -0.0836  0.3526
 5913TIP3    H139374   1.838   1.350   8.080  0.9292 -0.2700 -0.6499
 5913TIP3    H239375   1.975   1.411   8.102  0.3106  0.1569  2.6055
 5914TIP3   OH239376   0.103   0.545   1.633 -0.0838  0.1634 -0.0800
 5914TIP3    H139377   0.101   0.577   1.723 -0.1592  1.7722 -0.6034
 5914TIP3    H239378   0.056   0.462   1.635 -1.7026  1.0527  1.0544
 5915TIP3   OH239379   5.352   0.235   1.491  0.2038 -0.1338  0.1440
 5915TIP3    H139380   5.333   0.286   1.570  2.2105 -1.0616  1.3078
 5915TIP3    H239381   5.409   0.164   1.521  2.1580  0.2359 -2.3144
 5916TIP3   OH239382   5.904   2.368   1.213 -0.0988 -0.2356  0.0320
 5916TIP3    H139383   5.881   2.292   1.267 -0.7272  0.2476  0.4657
 5916TIP3    H239384   5.836   2.433   1.233  0.8095  0.6969  0.2097
 5917TIP3   OH239385   0.242   6.052   2.484  0.1821 -0.0665  0.3120
 5917TIP3    H139386   0.153   6.018   2.474  0.8145 -2.0433  0.9625
 5917TIP3    H239387   0.233   6.146   2.471 -1.6017 -0.4830 -2.2126
 5918TIP3   OH239388   0.410   1.673   8.287 -0.5893  0.5229 -0.1723
 5918TIP3    H139389   0.394   1.586   8.250  1.4242  0.8791 -2.1409
 5918TIP3    H239390   0.404   1.661   8.381 -2.6541 -1.2219 -0.4601
 5919TIP3   OH239391   3.572   4.496   3.045  0.1215  0.1341 -0.5904
 5919TIP3    H139392   3.560   4.446   2.964  1.4583  0.1981 -0.8527
 5919TIP3    H239393   3.654   4.544   3.031  0.5967 -0.1783  0.9566
 5920TIP3   OH239394   3.872   3.124   0.146 -0.0641  0.4404  0.1283
 5920TIP3    H139395   3.928   3.152   0.073 -0.1317  0.9619  0.2727
 5920TIP3    H239396   3.926   3.138   0.224  0.0465 -0.2169  0.1735
 5921TIP3   OH239397   5.302   0.014   0.472 -0.0135 -0.0644 -0.4835
 5921TIP3    H139398   5.313  -0.048   0.544 -1.0862 -0.8094 -0.9241
 5921TIP3    H239399   5.260   0.090   0.512  2.9160  1.1960  0.4235
 5922TIP3   OH239400   4.350   3.414   1.259  0.0298  0.3193 -0.0936
 5922TIP3    H139401   4.358   3.467   1.338 -1.4649 -0.1227  0.3833
 5922TIP3    H239402   4.257   3.392   1.253  0.3318 -0.8255 -1.2145
 5923TIP3   OH239403   4.939   6.031   0.965 -0.4516  0.2491 -0.5762
 5923TIP3    H139404   5.006   6.037   0.897 -2.3341 -1.1812 -2.6931
 5923TIP3    H239405   4.901   6.119   0.969  1.7481  1.2138  0.9909
 5924TIP3   OH239406   6.581   6.189   2.572 -0.1777  0.0529 -0.0459
 5924TIP3    H139407   6.664   6.203   2.619  0.1579  1.4831 -0.9846
 5924TIP3    H239408   6.516   6.234   2.626 -0.2003 -0.3516  0.2656
 5925TIP3   OH239409   2.636   2.398   1.195 -0.2539 -0.4167  0.0349
 5925TIP3    H139410   2.666   2.410   1.105  1.0489 -0.6096  0.4106
 5925TIP3    H239411   2.614   2.487   1.225 -0.7933 -0.3663 -0.4995
 5926TIP3   OH239412   1.325   5.868   2.648 -0.1393 -0.3323 -0.0193
 5926TIP3    H139413   1.248   5.924   2.656  0.5695  1.1456 -2.3991
 5926TIP3    H239414   1.393   5.925   2.613  1.2228 -2.2265 -0.6710
 5927TIP3   OH239415   0.900   5.381   7.570  0.0906  0.3084  0.3749
 5927TIP3    H139416   0.880   5.334   7.651 -1.1864  0.1996  0.0238
 5927TIP3    H239417   0.953   5.319   7.519  2.1898  0.9115  1.6728
 5928TIP3   OH239418   4.647   4.552   7.844 -0.1340  0.1977  0.2958
 5928TIP3    H139419   4.612   4.568   7.757 -0.4145  2.3451  0.7455
 5928TIP3    H239420   4.682   4.463   7.840 -0.6668  0.0316 -1.8119
 5929TIP3   OH239421   2.797   1.265   8.523  0.0937 -0.6791 -0.0273
 5929TIP3    H139422   2.844   1.342   8.491 -0.1597  0.0642  1.3120
 5929TIP3    H239423   2.743   1.238   8.448 -1.2518  1.6150 -0.0076
 5930TIP3   OH239424   2.395   5.848   3.676  0.2832 -0.1804 -0.3063
 5930TIP3    H139425   2.465   5.813   3.731  1.2788  2.7606  0.4837
 5930TIP3    H239426   2.436   5.861   3.591  0.9815  2.0578  0.3007
 5931TIP3   OH239427   6.243   1.340   1.902  0.2976  0.1508  0.3371
 5931TIP3    H139428   6.169   1.283   1.922  0.7112 -0.2369  0.7831
 5931TIP3    H239429   6.309   1.282   1.864  1.3307 -0.0037  2.2309
 5932TIP3   OH239430   3.871   5.185   0.472 -0.1937 -0.4369 -0.0742
 5932TIP3    H139431   3.957   5.219   0.493  0.5250 -0.7472 -2.2932
 5932TIP3    H239432   3.835   5.247   0.408 -1.8516 -0.0539  1.1504
 5933TIP3   OH239433   1.517   0.425   8.643 -0.5114 -0.0967 -0.0943
 5933TIP3    H139434   1.577   0.464   8.708 -0.2035 -0.5526 -0.1007
 5933TIP3    H239435   1.509   0.334   8.670  1.1448 -0.8019 -1.7644
 5934TIP3   OH239436   4.265   5.943   0.123 -0.8365 -0.0246 -0.2634
 5934TIP3    H139437   4.285   6.034   0.143 -1.6751  0.1393 -0.1156
 5934TIP3    H239438   4.344   5.908   0.083  0.3578  0.0961  1.8510
 5935TIP3   OH239439   6.040   3.300   1.302  0.1036 -0.5070  0.2822
 5935TIP3    H139440   6.019   3.385   1.342 -2.6480  0.0861 -2.0504
 5935TIP3    H239441   6.116   3.318   1.247  0.0590  0.2293  0.4452
 5936TIP3   OH239442   4.252   3.381   0.915  0.6155  0.8516 -0.2826
 5936TIP3    H139443   4.323   3.442   0.935 -0.3983  1.7701  0.6729
 5936TIP3    H239444   4.180   3.437   0.886 -0.0865  0.0426 -0.1527
 5937TIP3   OH239445   6.658   2.216   8.330 -0.2550  0.1434 -0.0108
 5937TIP3    H139446   6.677   2.280   8.262  0.2453  0.9677  0.8680
 5937TIP3    H239447   6.721   2.145   8.315 -0.1639  0.3102 -0.4163
 5938TIP3   OH239448   0.453   5.183   2.106 -0.1658  0.0792 -0.3714
 5938TIP3    H139449   0.538   5.222   2.087  0.1361 -0.4787 -0.1817
 5938TIP3    H239450   0.390   5.254   2.091  0.3004  0.3985 -0.8365
 5939TIP3   OH239451   4.235   5.664   1.219 -0.0367 -0.3225 -0.0995
 5939TIP3    H139452   4.244   5.579   1.178  0.3340 -1.2146  1.7497
 5939TIP3    H239453   4.259   5.727   1.151  0.3731 -1.7150 -1.2712
 5940TIP3   OH239454   5.695   6.052   0.602 -0.0060  0.1806 -0.4985
 5940TIP3    H139455   5.786   6.073   0.621  0.0584 -0.0286 -0.5820
 5940TIP3    H239456   5.645   6.113   0.657  0.1676  1.6236 -1.8703
 5941TIP3   OH239457   4.331   0.509   2.392 -0.5541  0.3948  0.3538
 5941TIP3    H139458   4.296   0.421   2.378 -0.6504  0.8191 -2.5082
 5941TIP3    H239459   4.255   0.560   2.421 -0.1872 -0.6748  3.7031
 5942TIP3   OH239460   3.648   6.293   2.927 -0.4086  0.9272 -0.0851
 5942TIP3    H139461   3.737   6.258   2.925 -0.9215 -1.0503  3.4563
 5942TIP3    H239462   3.608   6.261   2.847  1.1384 -1.0502 -0.1404
 5943TIP3   OH239463   3.902   5.480   2.073  0.4287  0.3130  0.1829
 5943TIP3    H139464   3.808   5.485   2.053  0.1426 -0.2009  1.3192
 5943TIP3    H239465   3.941   5.443   1.995 -0.3154  0.5636 -0.3202
 5944TIP3   OH239466   1.628   2.310   2.635 -0.2689  0.0296 -0.1207
 5944TIP3    H139467   1.594   2.326   2.723 -0.8872  1.5805 -0.6127
 5944TIP3    H239468   1.686   2.384   2.618  0.0212 -0.3750 -0.9551
 5945TIP3   OH239469   1.813   0.921   2.659  0.4008  0.9168 -0.4662
 5945TIP3    H139470   1.877   0.911   2.729 -0.4664 -1.4718  0.0607
 5945TIP3    H239471   1.855   0.886   2.581  0.1385  0.3092 -0.3437
 5946TIP3   OH239472   6.138   4.725   3.292  0.1365 -0.1388  0.3506
 5946TIP3    H139473   6.194   4.655   3.256  0.3567  0.3707 -0.3181
 5946TIP3    H239474   6.193   4.803   3.289 -1.0000  0.6660 -1.5507
 5947TIP3   OH239475   5.002   6.205   0.163  0.0764  0.0644 -0.4777
 5947TIP3    H139476   5.023   6.135   0.225  1.0207  0.2256 -0.6113
 5947TIP3    H239477   4.984   6.159   0.081 -1.6655 -0.1921 -0.0057
 5948TIP3   OH239478   2.341   5.279   1.918 -0.2380  0.1074  0.0803
 5948TIP3    H139479   2.369   5.191   1.944  1.6428 -0.4080 -3.2219
 5948TIP3    H239480   2.410   5.337   1.952 -0.1066 -0.0062  0.0082
 5949TIP3   OH239481   3.164   0.494   1.744 -0.3999 -0.4780  0.2638
 5949TIP3    H139482   3.223   0.479   1.670 -0.2499 -0.1326  0.3110
 5949TIP3    H239483   3.180   0.585   1.769 -0.0841 -0.7355  1.0370
 5950TIP3   OH239484   3.793   3.010   2.058 -0.1239  0.2894 -0.0453
 5950TIP3    H139485   3.785   2.993   2.152 -2.3200  0.0220 -0.2303
 5950TIP3    H239486   3.736   2.946   2.016  1.4516 -0.1497 -1.6692
 5951TIP3   OH239487   3.229   6.142   8.334  0.2732  0.5376  0.0395
 5951TIP3    H139488   3.239   6.230   8.299 -1.4695  0.0967 -1.7278
 5951TIP3    H239489   3.303   6.093   8.298  0.6309  0.9990  0.1338
 5952TIP3   OH239490   3.249   0.358   1.112  0.0192  0.7003 -0.7040
 5952TIP3    H139491   3.328   0.305   1.113 -1.0148 -1.2266  3.5323
 5952TIP3    H239492   3.272   0.436   1.061  3.5474 -1.1196 -2.2030
 5953TIP3   OH239493   0.011   4.352   0.220  0.4745 -0.5387  0.2700
 5953TIP3    H139494   0.037   4.429   0.169 -0.0681  0.7753  1.8847
 5953TIP3    H239495   0.018   4.279   0.159  2.4708  0.5531 -0.9158
 5954TIP3   OH239496   1.307   1.424   1.714 -0.2352 -0.4618  0.1417
 5954TIP3    H139497   1.236   1.444   1.776  0.0273  1.1224 -0.0105
 5954TIP3    H239498   1.354   1.351   1.754 -0.5295  0.0296  1.4446
 5955TIP3   OH239499   4.328   0.293   0.147 -0.0818  0.3502  0.2002
 5955TIP3    H139500   4.246   0.320   0.190 -0.9678 -2.3027  0.3564
 5955TIP3    H239501   4.341   0.359   0.079 -1.1572  2.0588  1.5566
 5956TIP3   OH239502   2.882   3.963   1.971  0.0477 -0.3392 -0.0578
 5956TIP3    H139503   2.963   3.956   2.022  0.6908  0.3725 -0.9637
 5956TIP3    H239504   2.819   3.911   2.021 -0.0188  2.1467  2.7876
 5957TIP3   OH239505   5.562   1.799   0.900 -0.5755  0.5033 -0.5666
 5957TIP3    H139506   5.622   1.843   0.961  0.0208  0.5379 -1.1606
 5957TIP3    H239507   5.550   1.712   0.937  0.0452  0.4135 -0.5614
 5958TIP3   OH239508   2.330   4.769   0.024 -0.0735 -0.6995 -0.3812
 5958TIP3    H139509   2.257   4.752  -0.036 -0.2907 -0.7998 -0.0951
 5958TIP3    H239510   2.399   4.804  -0.031 -1.3712  2.3691 -0.2918
 5959TIP3   OH239511   4.806   3.823   1.243  0.4303 -0.5381  0.2135
 5959TIP3    H139512   4.725   3.860   1.278  0.2186  0.0747 -0.8983
 5959TIP3    H239513   4.799   3.729   1.261 -0.2795 -0.4204  0.5999
 5960TIP3   OH239514   4.084   6.834   1.561  0.3961 -0.2459  0.2054
 5960TIP3    H139515   4.116   6.886   1.635 -0.0268 -0.6450  0.6717
 5960TIP3    H239516   4.095   6.743   1.588  0.3425 -0.3998 -0.2720
 5961TIP3   OH239517   4.531   2.696   0.065 -0.0454 -0.3044  0.1681
 5961TIP3    H139518   4.500   2.766   0.123 -0.8744  1.5485 -2.2978
 5961TIP3    H239519   4.461   2.631   0.067 -0.2462 -0.0811  0.8932
 5962TIP3   OH239520   3.193   4.459   1.093 -0.2537 -0.0662  0.3631
 5962TIP3    H139521   3.121   4.472   1.155 -0.6625 -0.4673 -0.0202
 5962TIP3    H239522   3.166   4.508   1.015  0.3474  0.5953  0.5712
 5963TIP3   OH239523   3.682   3.372   2.279 -0.4694  0.0184 -0.0603
 5963TIP3    H139524   3.588   3.360   2.284 -0.2892 -1.1316  1.0871
 5963TIP3    H239525   3.718   3.304   2.336  1.0314  0.7655 -0.0688
 5964TIP3   OH239526   0.763   3.944   2.763  0.3438 -0.6744  0.0012
 5964TIP3    H139527   0.740   3.861   2.721  0.3899 -0.5453 -0.2820
 5964TIP3    H239528   0.679   3.985   2.781  0.3335 -0.0610 -1.3193
 5965TIP3   OH239529   3.539   6.460   2.551 -0.0620  0.7979 -0.0340
 5965TIP3    H139530   3.558   6.379   2.599  0.3927  0.6459 -0.4613
 5965TIP3    H239531   3.619   6.512   2.560 -0.2977  1.1387  0.1102
 5966TIP3   OH239532   6.842   5.077   0.602 -0.2917  0.2026 -0.2396
 5966TIP3    H139533   6.770   5.029   0.561  1.7136 -2.3007 -1.0350
 5966TIP3    H239534   6.815   5.169   0.596 -3.0241 -0.5649 -1.2266
 5967TIP3   OH239535   4.534   5.029   2.150  0.1158 -0.2668  0.0289
 5967TIP3    H139536   4.552   5.029   2.056 -1.5012  2.1634 -0.3585
 5967TIP3    H239537   4.557   5.117   2.179  1.2005 -1.1626  2.0955
 5968TIP3   OH239538   3.008   4.748   1.528  0.4726 -1.2073  0.2569
 5968TIP3    H139539   3.038   4.657   1.528 -0.7638 -1.6254  0.7151
 5968TIP3    H239540   2.926   4.747   1.577  0.8382  0.2989  0.9475
 5969TIP3   OH239541   1.398   1.313   7.752  0.1597 -0.1252 -0.1545
 5969TIP3    H139542   1.351   1.348   7.677 -0.7694  0.0958  0.5076
 5969TIP3    H239543   1.478   1.276   7.716  0.8833  2.0923 -0.9676
 5970TIP3   OH239544   5.011   1.233   2.719 -0.0898  0.0737  0.1686
 5970TIP3    H139545   5.028   1.139   2.711 -1.7920 -0.8882  4.6384
 5970TIP3    H239546   4.919   1.243   2.696  0.4500  1.0543 -1.7961
 5971TIP3   OH239547   3.646   5.006   0.122 -0.0106 -0.0276  0.7929
 5971TIP3    H139548   3.566   5.052   0.096 -0.6298 -1.2285  0.5210
 5971TIP3    H239549   3.697   5.000   0.042 -0.3653 -0.6630  0.6112
 5972TIP3   OH239550   0.599   2.980   8.090  0.2724  0.6042  0.3185
 5972TIP3    H139551   0.657   3.010   8.161 -0.4281  2.6391  0.1124
 5972TIP3    H239552   0.638   3.018   8.011  0.2930 -0.5282 -0.2281
 5973TIP3   OH239553   0.380   0.664   7.838  0.4081 -0.0685 -0.1731
 5973TIP3    H139554   0.362   0.570   7.845 -2.0221  0.3966  1.0670
 5973TIP3    H239555   0.342   0.689   7.754 -0.4797  0.0787  0.2643
 5974TIP3   OH239556   3.086   0.352   2.431  0.2198 -0.3331 -0.1678
 5974TIP3    H139557   3.067   0.363   2.338 -0.7984 -2.5397 -0.3048
 5974TIP3    H239558   3.171   0.309   2.434 -0.4702 -1.7648 -0.2111
 5975TIP3   OH239559   0.859   1.967   8.110 -0.0372  0.4010 -0.2404
 5975TIP3    H139560   0.876   1.906   8.038  2.3698  1.1045 -0.3774
 5975TIP3    H239561   0.839   1.910   8.185 -1.3650 -0.3814 -1.1568
 5976TIP3   OH239562   3.802   4.167   7.206  0.2032  0.0339 -0.3963
 5976TIP3    H139563   3.725   4.111   7.202 -0.1185  0.3978  0.4125
 5976TIP3    H239564   3.787   4.222   7.283  1.3885 -0.0680 -0.0826
 5977TIP3   OH239565   5.488   3.804   1.910  0.1941 -0.0073  0.3732
 5977TIP3    H139566   5.411   3.766   1.953 -0.6073  1.0758 -0.0372
 5977TIP3    H239567   5.524   3.865   1.974 -1.3679  2.0772 -0.6060
 5978TIP3   OH239568   5.406   4.044   0.123 -0.5873  0.1753 -0.4970
 5978TIP3    H139569   5.402   4.054   0.218  0.4387  1.9216 -0.5930
 5978TIP3    H239570   5.410   3.949   0.108 -0.5663 -0.1113  1.2009
 5979TIP3   OH239571   0.103   1.001   2.612 -0.7188 -0.2155  0.3747
 5979TIP3    H139572   0.079   0.918   2.572 -1.2707 -0.9389  2.1015
 5979TIP3    H239573   0.120   0.979   2.704  2.0960  1.0506  0.2822
 5980TIP3   OH239574   0.881   1.342   0.249  0.6050 -0.0352 -0.1885
 5980TIP3    H139575   0.883   1.419   0.193 -1.4099 -0.6508 -1.1851
 5980TIP3    H239576   0.888   1.377   0.338  0.3423  1.2468 -0.6473
 5981TIP3   OH239577   1.548   6.502   3.187 -0.8711  0.2803  0.4168
 5981TIP3    H139578   1.512   6.504   3.098 -0.8778 -0.8236  0.3767
 5981TIP3    H239579   1.603   6.580   3.193  0.4194 -0.4712 -1.1084
 5982TIP3   OH239580   6.522   3.828   0.475 -0.0743  0.0050 -0.2669
 5982TIP3    H139581   6.577   3.752   0.493  1.2870  1.0334  0.1445
 5982TIP3    H239582   6.537   3.886   0.550 -1.2454  0.5897 -0.4688
 5983TIP3   OH239583   4.047   4.740   2.160  0.0100  0.7409  0.0580
 5983TIP3    H139584   4.035   4.711   2.250  1.7557  1.5929  0.6114
 5983TIP3    H239585   4.086   4.827   2.167  2.2191 -0.0235 -1.4561
 5984TIP3   OH239586   5.197   3.358   1.619 -0.6369 -0.4955 -0.1283
 5984TIP3    H139587   5.283   3.364   1.577 -1.3224  2.3994 -1.3682
 5984TIP3    H239588   5.210   3.391   1.708 -0.4344 -0.2275 -0.2588
 5985TIP3   OH239589   4.131   4.590   2.601 -0.2158  0.4599  0.2299
 5985TIP3    H139590   4.133   4.495   2.613  0.4402  0.4519  0.1123
 5985TIP3    H239591   4.135   4.625   2.690 -3.7263  0.3983  0.5391
 5986TIP3   OH239592   4.666   3.208   1.261 -0.0929  0.2367 -0.3646
 5986TIP3    H139593   4.642   3.275   1.196  0.6266  1.8797  0.9940
 5986TIP3    H239594   4.615   3.231   1.339 -1.4029 -2.0653 -0.4411
 5987TIP3   OH239595   6.871   4.348   2.042 -0.3163 -0.1063 -0.3153
 5987TIP3    H139596   6.814   4.285   2.086 -0.5250 -1.1581 -1.9965
 5987TIP3    H239597   6.959   4.325   2.069 -0.5621  0.6955  1.2702
 5988TIP3   OH239598   2.575   0.998   0.821 -0.1226 -0.7764 -0.0507
 5988TIP3    H139599   2.531   1.083   0.825  1.0011 -0.1642 -0.4177
 5988TIP3    H239600   2.580   0.969   0.912 -0.2727 -0.3317  0.1022
 5989TIP3   OH239601   4.810   6.451   1.779  0.1804  0.0104 -0.5261
 5989TIP3    H139602   4.748   6.413   1.841 -1.0116 -2.1495 -2.8739
 5989TIP3    H239603   4.776   6.539   1.761  1.3066  1.2545  2.7413
 5990TIP3   OH239604   4.888   2.394   8.304 -0.1709  0.2819  0.3741
 5990TIP3    H139605   4.952   2.374   8.235 -0.8276 -0.8253  0.0519
 5990TIP3    H239606   4.847   2.310   8.323 -1.3094  0.9082  0.7939
 5991TIP3   OH239607   2.639   5.879   3.046  0.4920  0.4744 -0.4107
 5991TIP3    H139608   2.705   5.943   3.017  0.8182  0.6125  0.6024
 5991TIP3    H239609   2.655   5.802   2.991  0.9913  0.7813 -0.7063
 5992TIP3   OH239610   5.470   6.648   1.656 -0.2355  0.1942 -0.3107
 5992TIP3    H139611   5.403   6.686   1.598  0.9954  1.3698 -1.0298
 5992TIP3    H239612   5.515   6.584   1.601  1.1664  1.5604 -0.8508
 5993TIP3   OH239613   1.458   4.275   0.082 -0.1645 -0.0267 -0.2006
 5993TIP3    H139614   1.501   4.229   0.154 -0.0392  1.5483  0.7895
 5993TIP3    H239615   1.524   4.279   0.013 -0.7904 -2.9211 -1.0892
 5994TIP3   OH239616   1.494   0.242   2.154 -0.5087 -0.0290  0.3033
 5994TIP3    H139617   1.418   0.251   2.095 -1.3163  1.6018  1.5110
 5994TIP3    H239618   1.456   0.219   2.238  0.3648  0.4665  0.8412
 5995TIP3   OH239619   5.759   1.703   8.580 -0.7444 -0.1190  0.3697
 5995TIP3    H139620   5.766   1.664   8.667 -0.4294  0.1886  0.4851
 5995TIP3    H239621   5.667   1.731   8.573 -0.5994  0.5297  0.9004
 5996TIP3   OH239622   1.706   5.058   8.584 -0.2594 -0.1865 -0.2384
 5996TIP3    H139623   1.756   5.010   8.651  1.2838  0.1804 -1.0677
 5996TIP3    H239624   1.713   5.004   8.505  1.6912  1.3948 -1.2481
 5997TIP3   OH239625   3.995   2.225   8.000 -0.7508  0.1428  0.1595
 5997TIP3    H139626   4.046   2.146   8.018  0.2043  0.9605  1.2207
 5997TIP3    H239627   3.974   2.260   8.087  0.1113  1.8367 -0.2780
 5998TIP3   OH239628   2.329   6.134   0.309  0.2246  0.2137 -0.2709
 5998TIP3    H139629   2.407   6.079   0.300 -0.8405 -1.9167  2.0764
 5998TIP3    H239630   2.356   6.207   0.364  0.9176  0.4029 -0.8493
 5999TIP3   OH239631   6.883   5.500   2.741 -0.2148 -0.1542 -0.0596
 5999TIP3    H139632   6.946   5.458   2.799 -0.6772 -0.6854  0.0690
 5999TIP3    H239633   6.896   5.594   2.755  0.4556 -0.2569  0.0521
 6000TIP3   OH239634   6.063   0.636   8.066  0.4527  0.2250 -0.1256
 6000TIP3    H139635   6.078   0.584   8.144  0.5458  0.1654 -0.1830
 6000TIP3    H239636   6.064   0.572   7.994 -2.8164 -0.2687  0.0860
 6001TIP3   OH239637   5.262   1.518   2.394 -0.3259  0.1019  0.2141
 6001TIP3    H139638   5.180   1.477   2.419  0.5143 -0.8169  1.6594
 6001TIP3    H239639   5.286   1.570   2.471  0.1159  0.8958 -0.4491
 6002TIP3   OH239640   2.410   5.346   0.453  0.2058  0.5911  0.4744
 6002TIP3    H139641   2.485   5.300   0.415  0.7052 -0.1789  2.2833
 6002TIP3    H239642   2.337   5.326   0.395  1.1058  0.2032 -0.5579
 6003TIP3   OH239643   0.398   2.434   8.073  0.1286 -0.4681 -0.2848
 6003TIP3    H139644   0.485   2.470   8.053 -0.5732  0.7915 -1.2020
 6003TIP3    H239645   0.416   2.347   8.108  1.7923  0.0133  0.1437
 6004TIP3   OH239646   5.075   5.244   7.359 -0.2348  0.1279  0.2360
 6004TIP3    H139647   5.003   5.193   7.319 -1.0725  1.0103  0.5774
 6004TIP3    H239648   5.131   5.178   7.399 -0.5729 -0.6206 -0.4871
 6005TIP3   OH239649   0.207   4.692   8.127 -0.0558  0.2248  0.2495
 6005TIP3    H139650   0.195   4.787   8.129 -0.7077  0.1309  0.9755
 6005TIP3    H239651   0.159   4.664   8.049  0.1804  0.4915  0.0029
 6006TIP3   OH239652   5.347   6.802   2.370  0.3892  0.2834 -0.0330
 6006TIP3    H139653   5.390   6.786   2.454 -0.5871 -1.0194  0.2678
 6006TIP3    H239654   5.390   6.741   2.310 -0.3702 -0.3561  0.0546
 6007TIP3   OH239655   6.797   3.955   1.164  0.2073 -0.5584 -0.1577
 6007TIP3    H139656   6.742   4.033   1.159 -1.0213 -1.4015 -0.4054
 6007TIP3    H239657   6.851   3.958   1.085  0.8645  0.5089  0.3101
 6008TIP3   OH239658   2.057   5.438   0.532 -0.3747 -0.1420 -0.2969
 6008TIP3    H139659   2.018   5.521   0.559 -0.3514 -0.5529  1.0948
 6008TIP3    H239660   2.122   5.419   0.599 -1.2509 -1.8969  0.1166
 6009TIP3   OH239661   2.516   6.127   1.452  0.5998 -0.0072  0.0388
 6009TIP3    H139662   2.554   6.142   1.539  1.9030  0.4757 -0.5880
 6009TIP3    H239663   2.511   6.032   1.444  0.4837 -0.0552  0.6349
 6010TIP3   OH239664   4.962   4.018   7.855  0.1513 -0.5813 -0.2717
 6010TIP3    H139665   4.965   3.959   7.780  0.1776  0.8216 -1.4191
 6010TIP3    H239666   4.869   4.029   7.873  0.1324 -0.6562 -0.3247
 6011TIP3   OH239667   6.187   5.234   0.641  0.5530  0.2114 -0.4721
 6011TIP3    H139668   6.239   5.156   0.622  0.0407 -0.2762  0.0569
 6011TIP3    H239669   6.249   5.295   0.682  0.2615 -1.2879  2.4476
 6012TIP3   OH239670   3.677   1.984   7.969  0.0002  0.5525 -0.3995
 6012TIP3    H139671   3.605   2.001   7.909 -1.1186 -1.2644  0.3588
 6012TIP3    H239672   3.727   1.913   7.928 -0.4193 -0.2788  0.4930
 6013TIP3   OH239673   5.944   2.058   8.233 -0.1116 -0.0763  0.8807
 6013TIP3    H139674   5.959   1.971   8.270 -2.6724 -0.2604  1.6613
 6013TIP3    H239675   5.871   2.046   8.173  0.3983  1.3133 -0.0698
 6014TIP3   OH239676   2.393   6.165   2.748 -0.1522 -0.5999 -0.3119
 6014TIP3    H139677   2.335   6.203   2.682 -0.6284 -0.3786  0.2294
 6014TIP3    H239678   2.334   6.130   2.814  0.3092  1.3462  1.2264
 6015TIP3   OH239679   0.832   0.803   1.335  0.3000 -0.3676  0.2362
 6015TIP3    H139680   0.862   0.738   1.271 -1.7544 -0.1748 -1.0275
 6015TIP3    H239681   0.740   0.781   1.349 -0.7013  2.6889 -0.8385
 6016TIP3   OH239682   2.257   6.189   1.354 -0.1722 -0.0468  0.2917
 6016TIP3    H139683   2.343   6.164   1.389 -0.5396 -1.2066  0.4089
 6016TIP3    H239684   2.195   6.132   1.400 -1.0897  1.2793  0.7403
 6017TIP3   OH239685   6.547   3.009   2.453 -0.7192 -0.1656  0.6056
 6017TIP3    H139686   6.477   2.944   2.457  1.1311 -2.3136  0.1965
 6017TIP3    H239687   6.579   3.014   2.543 -0.7386  0.0372  0.6003
 6018TIP3   OH239688   5.507   4.884   1.730 -0.2094  0.6489 -0.0625
 6018TIP3    H139689   5.431   4.852   1.778 -0.7605 -1.0417 -1.9010
 6018TIP3    H239690   5.564   4.807   1.721  1.6900  1.8197  1.0881
 6019TIP3   OH239691   5.717   3.738   0.669  0.4631  0.0434  0.5923
 6019TIP3    H139692   5.770   3.685   0.729  2.2154 -0.3531 -1.1991
 6019TIP3    H239693   5.684   3.676   0.604 -1.7576  0.4028  1.2888
 6020TIP3   OH239694   4.267   2.633   1.146  0.4077  0.5846  0.3154
 6020TIP3    H139695   4.266   2.705   1.083  1.8085 -0.7079 -1.2544
 6020TIP3    H239696   4.228   2.560   1.099  1.0225 -0.2739  1.1156
 6021TIP3   OH239697   5.794   3.726   8.464  0.1211 -0.2815  0.3697
 6021TIP3    H139698   5.702   3.720   8.491  0.1573 -1.6104  0.2983
 6021TIP3    H239699   5.820   3.635   8.449  2.0896 -0.1591  2.4911
 6022TIP3   OH239700   4.818   6.772   0.158  0.0722 -0.5398 -0.3943
 6022TIP3    H139701   4.901   6.724   0.168 -0.1638 -0.8319  0.2116
 6022TIP3    H239702   4.810   6.823   0.239  0.2130  0.3745 -0.9387
 6023TIP3   OH239703   0.695   4.424   1.311  0.1868  0.3483 -0.4433
 6023TIP3    H139704   0.643   4.401   1.387  0.3314 -0.6110 -0.6235
 6023TIP3    H239705   0.757   4.489   1.344 -0.3812  0.6610  0.0268
 6024TIP3   OH239706   0.575   5.248   2.425  0.0664  0.0244 -0.5261
 6024TIP3    H139707   0.537   5.329   2.391  0.3816  0.2819 -0.2684
 6024TIP3    H239708   0.515   5.180   2.396 -0.9780  0.4953  0.4856
 6025TIP3   OH239709   1.346   2.554   1.785  1.3579  0.0817 -0.7224
 6025TIP3    H139710   1.419   2.608   1.752  0.5447 -0.0802 -2.9780
 6025TIP3    H239711   1.338   2.483   1.721  0.2151 -0.7937  0.3455
 6026TIP3   OH239712   6.542   0.666   2.095 -0.3246  0.0194  0.0037
 6026TIP3    H139713   6.556   0.657   2.190 -1.7248  2.6991  0.5500
 6026TIP3    H239714   6.467   0.609   2.077 -0.0090 -0.5605  0.4887
 6027TIP3   OH239715   3.423   0.111   3.088 -0.0383 -0.3106 -0.4878
 6027TIP3    H139716   3.492   0.116   3.022 -0.2010 -2.3036 -0.8573
 6027TIP3    H239717   3.381   0.197   3.086  2.3974  0.9762 -0.2623
 6028TIP3   OH239718   4.535   2.556   0.961 -0.7204 -0.3776 -0.6108
 6028TIP3    H139719   4.628   2.544   0.976 -0.9311 -1.9715 -0.3996
 6028TIP3    H239720   4.506   2.617   1.029 -0.3123 -1.9292  1.0118
 6029TIP3   OH239721   0.217   4.757   1.129 -0.1703 -0.1954 -0.3409
 6029TIP3    H139722   0.176   4.764   1.043  0.9301  0.7545 -0.8086
 6029TIP3    H239723   0.210   4.664   1.152 -1.7807 -0.2110 -0.7822
 6030TIP3   OH239724   0.392   2.433   7.433  0.4897 -0.0426  0.3602
 6030TIP3    H139725   0.296   2.431   7.437  0.5142 -0.8635  0.9072
 6030TIP3    H239726   0.418   2.342   7.446  1.3708  0.2738  0.9098
 6031TIP3   OH239727   3.328   2.551   1.697 -0.0449  0.4701  0.0565
 6031TIP3    H139728   3.384   2.575   1.770  0.1551 -1.0615  0.4489
 6031TIP3    H239729   3.276   2.478   1.731  1.4354 -1.6166 -1.8869
 6032TIP3   OH239730   2.099   2.473   0.800 -0.1879  0.2022 -0.2862
 6032TIP3    H139731   2.039   2.535   0.759 -0.2407 -0.4438 -1.2143
 6032TIP3    H239732   2.068   2.387   0.771  0.1017 -0.2434  0.6896
 6033TIP3   OH239733   0.674   2.124   3.621  0.4097  0.4269  0.0495
 6033TIP3    H139734   0.734   2.197   3.640  0.4523  0.3738  0.1190
 6033TIP3    H239735   0.606   2.163   3.566  2.2079 -0.1976 -2.8206
 6034TIP3   OH239736   4.442   6.817   2.101 -0.5346 -0.0230  0.0887
 6034TIP3    H139737   4.458   6.830   2.008  1.1036  0.1778  0.3519
 6034TIP3    H239738   4.358   6.772   2.106 -1.0463  0.6903 -1.4306
 6035TIP3   OH239739   5.047   3.163   7.395  0.5459  0.2352  0.0686
 6035TIP3    H139740   4.990   3.159   7.472  1.5469 -1.0560  0.7751
 6035TIP3    H239741   5.130   3.198   7.428  0.6810  0.6095 -0.6365
 6036TIP3   OH239742   5.371   3.247   7.516 -0.5772 -0.1107 -0.3029
 6036TIP3    H139743   5.307   3.287   7.575  0.1604  0.5556  0.0674
 6036TIP3    H239744   5.438   3.315   7.504  0.6116 -1.1473  0.1801
 6037TIP3   OH239745   4.823   2.735   0.686 -0.3862 -0.0020 -0.5613
 6037TIP3    H139746   4.874   2.723   0.605 -1.5591  0.0717 -1.3304
 6037TIP3    H239747   4.888   2.728   0.756  0.4490 -1.4363 -1.4308
 6038TIP3   OH239748   1.339   0.767   8.537  0.4104 -0.6395 -0.2556
 6038TIP3    H139749   1.250   0.765   8.573  0.9017 -1.1265  0.9785
 6038TIP3    H239750   1.350   0.856   8.504 -0.0750 -0.1828  0.7844
 6039TIP3   OH239751   5.380   6.763   1.897  0.9256 -0.3473 -0.0990
 6039TIP3    H139752   5.323   6.833   1.866 -0.5697 -1.1413  0.7192
 6039TIP3    H239753   5.400   6.712   1.819  0.8897  0.2193 -0.4767
 6040TIP3   OH239754   1.516   5.532   8.464 -0.3120 -0.2659 -0.3863
 6040TIP3    H139755   1.502   5.615   8.417  0.1392 -0.1965 -0.4038
 6040TIP3    H239756   1.592   5.549   8.520  1.1042 -1.2829 -1.9025
 6041TIP3   OH239757   1.927   2.685   0.733  0.4855 -0.0535 -0.4716
 6041TIP3    H139758   1.956   2.777   0.738  1.6289 -0.4477  3.0030
 6041TIP3    H239759   1.841   2.685   0.774  0.1714 -0.4395 -1.1294
 6042TIP3   OH239760   4.985   2.461   8.562  0.1477  0.0487 -0.1048
 6042TIP3    H139761   4.902   2.472   8.609  0.0591 -0.4528 -0.1420
 6042TIP3    H239762   4.959   2.430   8.475  0.1624  2.8377 -1.2061
 6043TIP3   OH239763   0.728   6.527   2.363  0.0212  0.3819 -0.0172
 6043TIP3    H139764   0.699   6.614   2.336 -2.5323 -0.5740 -0.6175
 6043TIP3    H239765   0.816   6.541   2.399 -0.2023  3.1382 -0.3511
 6044TIP3   OH239766   3.737   4.400   2.382  0.7725 -0.0574 -0.1571
 6044TIP3    H139767   3.781   4.404   2.297 -0.9379 -2.5422 -1.2831
 6044TIP3    H239768   3.655   4.447   2.369  0.8889  0.2975  0.3857
 6045TIP3   OH239769   2.917   5.739   1.112  0.2393  0.1703 -0.0544
 6045TIP3    H139770   2.966   5.667   1.152  0.2718  0.1942 -0.0516
 6045TIP3    H239771   2.949   5.818   1.156 -1.7115 -0.0254  1.9288
 6046TIP3   OH239772   6.816   5.494   2.384 -0.0653 -0.3161  0.3783
 6046TIP3    H139773   6.830   5.426   2.450  0.7865  1.0672  1.7073
 6046TIP3    H239774   6.721   5.501   2.375 -0.2651  0.3814  2.5196
 6047TIP3   OH239775   2.287   3.216   8.350  0.1014  0.1434  0.6954
 6047TIP3    H139776   2.354   3.149   8.336 -0.1682 -0.3430  1.5807
 6047TIP3    H239777   2.279   3.261   8.266  2.5326  1.1582  0.9436
 6048TIP3   OH239778   3.264   5.790   0.056  0.1224  0.1623 -0.2533
 6048TIP3    H139779   3.293   5.880   0.038 -1.1078  0.8959  1.1420
 6048TIP3    H239780   3.181   5.782   0.009  0.8212 -0.7003 -1.3797
 6049TIP3   OH239781   6.213   6.856   0.538  0.1651 -0.1515  0.8324
 6049TIP3    H139782   6.303   6.889   0.542  0.8024 -1.4896 -0.9491
 6049TIP3    H239783   6.159   6.930   0.565  1.8004  0.6150  2.1588
 6050TIP3   OH239784   2.037   6.529   2.569 -0.5788 -0.1122 -0.3893
 6050TIP3    H139785   1.970   6.465   2.591 -0.7475  0.3383  0.4413
 6050TIP3    H239786   2.025   6.544   2.475 -0.3520 -1.4858 -0.6629
 6051TIP3   OH239787   3.380   2.674   1.963 -0.2811 -0.7190  0.5761
 6051TIP3    H139788   3.405   2.734   2.033 -0.3513 -0.3296  0.2700
 6051TIP3    H239789   3.339   2.600   2.008  1.3245 -1.3482  1.0905
 6052TIP3   OH239790   2.663   5.272   0.343  0.6206 -0.2725 -0.7471
 6052TIP3    H139791   2.705   5.216   0.409 -0.6778 -2.0293 -1.3205
 6052TIP3    H239792   2.717   5.260   0.265  0.2216 -0.9401 -0.9309
 6053TIP3   OH239793   4.259   6.625   0.448  0.1280 -0.6522 -0.5832
 6053TIP3    H139794   4.228   6.687   0.382 -0.5312  0.1256  0.4313
 6053TIP3    H239795   4.289   6.550   0.397  0.6298  0.3434 -1.8373
 6054TIP3   OH239796   5.566   1.388   8.234  0.7726 -0.2647  0.1717
 6054TIP3    H139797   5.584   1.471   8.190  0.3100  0.0681  0.5881
 6054TIP3    H239798   5.603   1.321   8.177  2.2309  0.2961  0.4209
 6055TIP3   OH239799   4.617   5.462   3.236 -0.3239 -0.1568 -0.0865
 6055TIP3    H139800   4.589   5.453   3.327  0.7382  1.0487  0.3879
 6055TIP3    H239801   4.621   5.372   3.203  0.8015 -0.7459  1.5415
 6056TIP3   OH239802   3.826   2.186   2.357 -0.4223  0.4911 -0.0121
 6056TIP3    H139803   3.764   2.216   2.424 -0.9543  1.5268 -0.9327
 6056TIP3    H239804   3.905   2.163   2.405 -0.6402  1.6404  0.9440
 6057TIP3   OH239805   3.175   0.805   1.849  0.1981 -0.5579  0.3475
 6057TIP3    H139806   3.232   0.881   1.837  0.1108 -0.4509  0.6004
 6057TIP3    H239807   3.102   0.821   1.788  0.2536 -0.5138  0.2916
 6058TIP3   OH239808   5.460   6.607   2.832 -0.4979 -0.0567  0.3762
 6058TIP3    H139809   5.488   6.553   2.759 -0.3973  1.0201 -0.4055
 6058TIP3    H239810   5.521   6.586   2.902 -1.3956 -2.0709  0.6161
 6059TIP3   OH239811   5.745   4.462   8.519 -0.0473  0.7889  0.5604
 6059TIP3    H139812   5.741   4.383   8.572  1.0585 -0.3493 -0.9566
 6059TIP3    H239813   5.838   4.480   8.509 -0.2606  1.5980 -0.0557
 6060TIP3   OH239814   1.969   6.563   2.303 -0.2439 -0.0929  0.5956
 6060TIP3    H139815   1.997   6.633   2.244 -2.1951  1.1276  1.0242
 6060TIP3    H239816   1.913   6.507   2.248  1.9183 -1.8501  0.0437
 6061TIP3   OH239817   0.428   0.025   8.452 -0.0534 -0.2708 -0.1995
 6061TIP3    H139818   0.388   0.098   8.403 -1.5623 -0.1979  1.0730
 6061TIP3    H239819   0.373  -0.050   8.431 -0.0742 -0.4654  0.5349
 6062TIP3   OH239820   3.781   1.422   0.343  0.2036  0.2351 -0.1099
 6062TIP3    H139821   3.872   1.445   0.360 -0.1374  0.4200  1.6610
 6062TIP3    H239822   3.749   1.491   0.284  1.7084 -0.9249 -2.4052
 6063TIP3   OH239823   5.872   4.040   1.979 -0.2694  0.0121 -0.1474
 6063TIP3    H139824   5.916   3.970   2.028 -0.3356  1.0577  1.4310
 6063TIP3    H239825   5.936   4.111   1.975 -0.1558 -0.1322 -1.8561
 6064TIP3   OH239826   3.117   1.127   2.531  0.2913  0.5468 -0.0340
 6064TIP3    H139827   3.075   1.041   2.529 -0.6300  1.0097 -1.3995
 6064TIP3    H239828   3.123   1.148   2.624  1.5691 -1.4704  0.4059
 6065TIP3   OH239829   4.714   3.904   7.863  0.3125 -1.1147  0.0379
 6065TIP3    H139830   4.723   3.994   7.832  1.4067 -0.9761  0.7043
 6065TIP3    H239831   4.702   3.912   7.957 -1.7846 -1.5907 -0.1386
 6066TIP3   OH239832   5.408   2.501   2.195  0.3174 -0.1898  0.3680
 6066TIP3    H139833   5.497   2.478   2.170 -0.4346 -0.6792 -2.0450
 6066TIP3    H239834   5.401   2.595   2.175 -0.1181 -0.4653 -0.8629
 6067TIP3   OH239835   2.414   3.730   0.507  0.1367  0.1102  0.2235
 6067TIP3    H139836   2.322   3.717   0.482  0.2397  0.1087 -0.1551
 6067TIP3    H239837   2.463   3.672   0.449  0.3332 -0.3521  0.8373
 6068TIP3   OH239838   6.452   5.345   2.045 -0.3863 -0.0798 -0.1545
 6068TIP3    H139839   6.403   5.268   2.015  1.4039 -1.8465  1.1854
 6068TIP3    H239840   6.405   5.374   2.124 -0.6250 -0.2752 -0.2250
 6069TIP3   OH239841   6.847   0.306   1.606 -0.4530 -0.4117  0.3403
 6069TIP3    H139842   6.766   0.357   1.608 -0.2786 -0.1539  0.8588
 6069TIP3    H239843   6.824   0.223   1.648 -0.3425 -0.1877  0.8399
 6070TIP3   OH239844   2.684   0.453   8.098  0.1635 -0.0935  0.7195
 6070TIP3    H139845   2.775   0.463   8.070  0.3260 -0.6588  1.0384
 6070TIP3    H239846   2.634   0.454   8.017  0.5251 -0.5285  0.4861
 6071TIP3   OH239847   0.125   6.146   8.089  0.0786  0.1586 -0.1438
 6071TIP3    H139848   0.071   6.068   8.073 -1.1697  1.0143 -0.3026
 6071TIP3    H239849   0.141   6.146   8.183 -2.0781  1.0038  0.2869
 6072TIP3   OH239850   5.114   4.840   3.555 -0.3352 -0.0919 -0.1477
 6072TIP3    H139851   5.096   4.933   3.562  0.1262  0.0104 -0.3078
 6072TIP3    H239852   5.109   4.808   3.645 -1.5641 -0.1230 -0.2065
 6073TIP3   OH239853   4.555   3.851   1.409 -0.1142 -0.1534  0.0136
 6073TIP3    H139854   4.515   3.913   1.471 -0.6988 -0.0933 -0.4150
 6073TIP3    H239855   4.484   3.830   1.348  0.1482 -1.0733  0.0217
 6074TIP3   OH239856   1.693   3.347   2.686  0.0611 -0.3010 -0.4506
 6074TIP3    H139857   1.623   3.410   2.701 -0.2740 -0.3850 -1.5701
 6074TIP3    H239858   1.773   3.398   2.695 -0.2219  0.5257 -2.2160
 6075TIP3   OH239859   0.860   0.542   2.597  0.0664 -0.6551 -0.0567
 6075TIP3    H139860   0.907   0.608   2.648  0.4633  0.2677 -1.5377
 6075TIP3    H239861   0.800   0.501   2.659  1.3457 -0.3988  1.3904
 6076TIP3   OH239862   4.899   6.103   1.841  0.6424  0.7297 -0.3216
 6076TIP3    H139863   4.985   6.061   1.840 -0.2267 -1.5022  2.7856
 6076TIP3    H239864   4.908   6.175   1.903  0.2250  0.2585  0.3003
 6077TIP3   OH239865   3.511   3.552   1.281  0.8842  0.0724  0.2497
 6077TIP3    H139866   3.527   3.466   1.319  1.1401 -0.2516 -0.5895
 6077TIP3    H239867   3.590   3.571   1.230  1.7338  1.6714  1.9913
 6078TIP3   OH239868   3.750   2.227   1.158  0.4152  0.2921  0.4181
 6078TIP3    H139869   3.835   2.220   1.114  0.6114 -0.3618  0.8852
 6078TIP3    H239870   3.719   2.137   1.164 -0.2867  0.5255  0.3096
 6079TIP3   OH239871   3.975   4.664   0.967 -0.4832 -0.3640  0.3746
 6079TIP3    H139872   3.941   4.727   0.903 -0.3868 -0.2331  0.4509
 6079TIP3    H239873   3.898   4.640   1.019 -0.1289  1.4555  1.8450
 6080TIP3   OH239874   3.636   4.099   3.672 -0.1313 -0.4479  0.5718
 6080TIP3    H139875   3.632   4.185   3.629 -0.0832  0.8206  2.9183
 6080TIP3    H239876   3.578   4.109   3.748  2.4833 -1.2914  2.8321
 6081TIP3   OH239877   0.211   4.483   1.201  0.2662  0.4223  0.4356
 6081TIP3    H139878   0.299   4.455   1.229 -0.3495  0.2968  2.4086
 6081TIP3    H239879   0.176   4.407   1.155 -0.3673 -1.2596  3.4051
 6082TIP3   OH239880   4.592   3.534   7.962  0.2541  0.2145 -0.2593
 6082TIP3    H139881   4.581   3.560   7.871  0.4642 -0.7281 -0.5685
 6082TIP3    H239882   4.664   3.471   7.961 -1.4057 -1.8520  0.1026
 6083TIP3   OH239883   6.904   1.273   2.603  0.0547  0.1275  0.3866
 6083TIP3    H139884   6.898   1.261   2.509 -1.1694 -0.2550  0.4954
 6083TIP3    H239885   6.937   1.190   2.636  0.1647  0.1478  0.3284
 6084TIP3   OH239886   6.248   0.692   7.566 -0.0305 -0.2394  0.2707
 6084TIP3    H139887   6.222   0.782   7.588 -0.8906  0.4641 -3.0680
 6084TIP3    H239888   6.343   0.697   7.556 -0.3251  1.3566 -3.3374
 6085TIP3   OH239889   6.065   3.695   1.909  0.3823 -0.4584 -0.4042
 6085TIP3    H139890   6.014   3.741   1.976  1.5332  0.3385 -0.0427
 6085TIP3    H239891   6.020   3.612   1.897  0.9921 -1.2880  2.4914
 6086TIP3   OH239892   5.612   5.670   2.490  0.1063 -0.4370 -0.2097
 6086TIP3    H139893   5.585   5.588   2.450 -0.4937  0.4617 -1.7395
 6086TIP3    H239894   5.533   5.702   2.534  0.3093 -0.6269  0.2949
 6087TIP3   OH239895   5.462   6.818   1.236  0.0075  0.0489 -0.1310
 6087TIP3    H139896   5.451   6.764   1.158 -0.2951  1.4625 -1.1064
 6087TIP3    H239897   5.440   6.907   1.208  1.2560  0.8464  1.2001
 6088TIP3   OH239898   3.642   1.061   8.165  0.0450 -0.1070  0.3232
 6088TIP3    H139899   3.556   1.032   8.195 -0.0524 -1.4716 -1.0965
 6088TIP3    H239900   3.704   1.015   8.222 -0.1679 -0.6068  0.1636
 6089TIP3   OH239901   5.730   4.959   1.135 -0.0143  0.2828 -0.1999
 6089TIP3    H139902   5.807   4.907   1.112  0.3338  1.2734 -1.3349
 6089TIP3    H239903   5.676   4.959   1.056 -0.4506  0.8833  0.0866
 6090TIP3   OH239904   5.509   1.203   1.696  0.5488 -0.4519  0.0574
 6090TIP3    H139905   5.475   1.237   1.779  2.0132 -0.7030  0.7884
 6090TIP3    H239906   5.531   1.112   1.715  2.4296 -0.0650 -0.1113
 6091TIP3   OH239907   6.407   4.216   0.604 -0.1949  0.2888 -0.1234
 6091TIP3    H139908   6.355   4.281   0.651 -2.3102 -0.3639 -1.4182
 6091TIP3    H239909   6.436   4.261   0.525 -0.0686  0.2081 -0.1230
 6092TIP3   OH239910   1.743   6.417   8.481  0.4116 -0.0537  0.5560
 6092TIP3    H139911   1.743   6.384   8.571  3.3275 -3.0802 -0.3839
 6092TIP3    H239912   1.822   6.471   8.476 -0.4959  1.2823  0.1184
 6093TIP3   OH239913   2.459   4.663   0.242 -0.5856 -0.5932  0.2389
 6093TIP3    H139914   2.516   4.592   0.211  0.3140  0.0873  0.2764
 6093TIP3    H239915   2.406   4.687   0.165  1.6185  1.0698 -0.8975
 6094TIP3   OH239916   6.563   0.045   1.604 -0.1041  0.2245 -0.5574
 6094TIP3    H139917   6.651   0.012   1.625  0.3410  0.0497 -2.4853
 6094TIP3    H239918   6.534  -0.011   1.532 -2.7309 -1.1305  1.3723
 6095TIP3   OH239919   6.568   5.177   7.755 -0.0592 -0.6853 -0.0310
 6095TIP3    H139920   6.517   5.220   7.823 -1.0964 -3.4295  1.0856
 6095TIP3    H239921   6.595   5.247   7.697 -1.5163  1.4224  1.6815
 6096TIP3   OH239922   3.913   1.624   8.417  0.7195 -0.1537  0.3479
 6096TIP3    H139923   3.882   1.547   8.465 -1.4771 -0.2091 -1.0623
 6096TIP3    H239924   3.978   1.590   8.356 -0.3573 -0.9545 -0.3786
 6097TIP3   OH239925   0.893   6.026   1.421  0.7882  0.0700  0.3533
 6097TIP3    H139926   0.915   6.015   1.514  2.8466 -0.0851 -0.1118
 6097TIP3    H239927   0.938   5.954   1.377 -0.5181 -0.1124 -0.7472
 6098TIP3   OH239928   1.176   0.212   2.283 -0.3002  0.8244  0.1313
 6098TIP3    H139929   1.170   0.262   2.364 -1.3479 -0.3459  0.8066
 6098TIP3    H239930   1.234   0.139   2.304 -2.1594 -0.6135  0.4769
 6099TIP3   OH239931   5.982   6.632   2.418  0.4105 -0.2585 -0.2995
 6099TIP3    H139932   5.994   6.560   2.356  2.8773  1.6233 -2.2401
 6099TIP3    H239933   5.994   6.592   2.504  0.6011 -2.3471 -1.2283
 6100TIP3   OH239934   5.686   4.375   0.830 -0.1272 -0.1089  0.3997
 6100TIP3    H139935   5.713   4.293   0.872 -0.6405 -0.3926  0.1741
 6100TIP3    H239936   5.611   4.405   0.882  0.1231  0.2760  0.5461
 6101TIP3   OH239937   3.151   1.500   0.912 -0.1999  0.0430  0.3464
 6101TIP3    H139938   3.122   1.539   0.829 -0.6235  1.5710  1.1729
 6101TIP3    H239939   3.247   1.501   0.907 -0.1720  2.0498  0.6875
 6102TIP3   OH239940   0.310   4.688   2.435 -0.3443  0.1023  0.3481
 6102TIP3    H139941   0.237   4.741   2.402 -0.0503  0.5997  0.4812
 6102TIP3    H239942   0.373   4.686   2.363 -0.0520  0.5161  0.5936
 6103TIP3   OH239943   5.288   3.185   2.166 -0.2500  0.1235 -0.6300
 6103TIP3    H139944   5.236   3.182   2.086  1.1478  1.1230 -1.6385
 6103TIP3    H239945   5.379   3.191   2.135  0.3302  0.4593  1.0318
 6104TIP3   OH239946   1.287   1.970   1.321  0.3978  0.7861 -0.0861
 6104TIP3    H139947   1.370   1.928   1.342  0.8684  0.4398 -2.3883
 6104TIP3    H239948   1.280   2.042   1.384  2.4240  0.8093  0.1684
 6105TIP3   OH239949   3.379   3.309   2.256  0.1043 -0.3217 -0.0238
 6105TIP3    H139950   3.301   3.360   2.233 -0.0173 -0.7691 -0.6169
 6105TIP3    H239951   3.347   3.238   2.312 -0.3417 -2.0068 -2.2799
 6106TIP3   OH239952   4.704   0.732   0.279 -0.5814 -0.0496  0.0919
 6106TIP3    H139953   4.727   0.746   0.187 -0.2152  0.1314  0.2090
 6106TIP3    H239954   4.622   0.780   0.291 -0.1417  0.7288  0.0950
 6107TIP3   OH239955   6.173   5.973   2.861  0.5605 -0.1148  0.3481
 6107TIP3    H139956   6.253   6.021   2.883  0.8262 -0.2822 -0.2304
 6107TIP3    H239957   6.194   5.882   2.882  0.3970 -0.1145  0.5190
 6108TIP3   OH239958   6.402   4.591   0.062 -0.5672 -0.7480  0.4012
 6108TIP3    H139959   6.381   4.617  -0.028  1.0400  0.2345  0.2831
 6108TIP3    H239960   6.350   4.649   0.117  1.0911  1.1034  0.1032
 6109TIP3   OH239961   5.383   3.060   7.725  0.1031  0.2308  0.0912
 6109TIP3    H139962   5.346   3.112   7.653 -1.4584  0.1843  0.8302
 6109TIP3    H239963   5.464   3.106   7.747 -0.6297  1.6872 -0.0744
 6110TIP3   OH239964   3.610   0.950   8.541  0.1733  0.1413  0.2465
 6110TIP3    H139965   3.688   0.947   8.486  0.3863 -1.6310  0.5739
 6110TIP3    H239966   3.604   0.862   8.578 -0.9190  0.7997  1.7227
 6111TIP3   OH239967   0.930   2.162   3.086 -0.2535 -0.2720  0.1968
 6111TIP3    H139968   0.989   2.199   3.152 -2.5589 -0.7317  2.6970
 6111TIP3    H239969   0.864   2.230   3.072  0.4353 -0.0040 -2.0890
 6112TIP3   OH239970   2.590   1.725   3.369  0.1138 -0.3288  0.3249
 6112TIP3    H139971   2.520   1.700   3.429  0.5768 -1.6073  0.3612
 6112TIP3    H239972   2.552   1.717   3.282 -0.5716  1.5645  0.4020
 6113TIP3   OH239973   4.790   5.686   1.370  0.0358  0.5148 -0.2039
 6113TIP3    H139974   4.865   5.715   1.319 -0.8280  0.2715 -1.6577
 6113TIP3    H239975   4.718   5.682   1.308 -1.7885  2.8591  1.5601
 6114TIP3   OH239976   5.370   2.426   2.677  0.5331  0.1592 -0.1856
 6114TIP3    H139977   5.357   2.443   2.584  0.3986  1.0972 -0.0033
 6114TIP3    H239978   5.424   2.347   2.679  0.0472 -0.2052 -1.0456
 6115TIP3   OH239979   0.710   2.557   8.206 -0.0246  0.4115 -0.4296
 6115TIP3    H139980   0.681   2.545   8.297 -1.1808  0.4995 -0.7716
 6115TIP3    H239981   0.796   2.515   8.203 -0.2190 -0.0974  0.5696
 6116TIP3   OH239982   3.271   6.163   0.520  0.2185 -0.0714 -0.2661
 6116TIP3    H139983   3.195   6.215   0.492 -1.4834 -1.1246  2.0375
 6116TIP3    H239984   3.315   6.219   0.584 -1.0554 -0.9307  1.4729
 6117TIP3   OH239985   5.749   4.359   1.365  0.2717  0.2568 -0.1648
 6117TIP3    H139986   5.740   4.453   1.383 -0.6092  0.1625 -0.0905
 6117TIP3    H239987   5.837   4.351   1.329  0.9402  0.9009  1.2055
 6118TIP3   OH239988   5.061   4.671   0.631 -0.2051  0.0530 -0.5988
 6118TIP3    H139989   5.075   4.764   0.648  0.7821 -0.4261  1.5526
 6118TIP3    H239990   5.124   4.627   0.688 -2.8641 -2.0091  0.9497
 6119TIP3   OH239991   1.316   0.546   1.196  0.2435  0.0859  0.1581
 6119TIP3    H139992   1.354   0.633   1.200 -0.5374  0.6341 -2.4323
 6119TIP3    H239993   1.384   0.488   1.232  2.4154  1.3386 -1.6499
 6120TIP3   OH239994   3.079   1.348   7.818  0.5105  0.0348 -0.5091
 6120TIP3    H139995   3.015   1.311   7.757 -0.0992  1.1636 -0.5659
 6120TIP3    H239996   3.027   1.382   7.891  1.0488  0.7704 -0.4554
 6121TIP3   OH239997   3.476   5.255   0.528 -0.3356  0.8721  0.4341
 6121TIP3    H139998   3.550   5.257   0.589 -0.1442  2.4043  0.1800
 6121TIP3    H239999   3.445   5.345   0.525 -0.5493  0.7720 -1.5022
 6122TIP3   OH240000   3.677   0.905   7.956  0.3719  0.1471  0.0138
 6122TIP3    H140001   3.654   0.976   8.015  0.1162  0.2067 -0.1524
 6122TIP3    H240002   3.597   0.890   7.905  0.5009 -0.0919 -0.1202
 6123TIP3   OH240003   4.920   6.882   2.537  0.0530 -0.0541  0.0003
 6123TIP3    H140004   5.015   6.885   2.548 -0.0740  0.6941  1.0004
 6123TIP3    H240005   4.886   6.934   2.609 -1.1902 -1.6284  0.5969
 6124TIP3   OH240006   1.204   2.175   0.422  0.5151 -0.5318  0.1137
 6124TIP3    H140007   1.192   2.267   0.397  0.5079 -0.7946 -0.9033
 6124TIP3    H240008   1.271   2.177   0.490  0.9742  0.1711 -0.3499
 6125TIP3   OH240009   0.248   1.776   0.879 -0.4119 -0.5007  0.0393
 6125TIP3    H140010   0.175   1.816   0.831 -1.0405 -1.0047  0.5744
 6125TIP3    H240011   0.326   1.807   0.832 -0.8187  1.9062  0.8027
 6126TIP3   OH240012   3.614   1.638   0.218  0.0246 -0.7662  0.2696
 6126TIP3    H140013   3.525   1.604   0.210 -1.1087  1.9895  0.1431
 6126TIP3    H240014   3.630   1.682   0.134  0.4407  1.0318  1.2439
 6127TIP3   OH240015   3.016   1.153   8.649 -1.1142  0.1866  0.1392
 6127TIP3    H140016   2.942   1.160   8.588 -0.3369  2.3388 -0.6375
 6127TIP3    H240017   3.023   1.240   8.689  2.1206  0.6829 -1.2221
 6128TIP3   OH240018   4.104   4.977   2.320 -0.2678 -0.3349 -0.0398
 6128TIP3    H140019   4.032   4.964   2.383  0.1241 -1.6870  0.1693
 6128TIP3    H240020   4.182   4.985   2.374 -0.0082 -0.9206 -0.3121
 6129TIP3   OH240021   4.712   4.174   2.440 -0.0068  0.1504 -0.0728
 6129TIP3    H140022   4.783   4.237   2.429  0.0267  0.0049 -0.7238
 6129TIP3    H240023   4.632   4.224   2.425  0.0340 -0.0231 -0.9089
 6130TIP3   OH240024   6.866   1.448   1.867  0.5796 -0.2298  0.0578
 6130TIP3    H140025   6.771   1.459   1.864  0.5757  0.2522  1.4605
 6130TIP3    H240026   6.884   1.407   1.951  1.7265  1.1349  0.5186
 6131TIP3   OH240027   3.075   3.400   0.586  0.1636 -0.0847 -0.1497
 6131TIP3    H140028   3.121   3.481   0.563 -0.7062  0.4266 -0.1391
 6131TIP3    H240029   3.145   3.335   0.595  0.9754  0.8876  0.8423
 6132TIP3   OH240030   4.881   5.665   2.369 -0.0317  0.5288  0.1744
 6132TIP3    H140031   4.859   5.712   2.288  2.0006 -0.7850 -1.2403
 6132TIP3    H240032   4.884   5.573   2.343  1.0641  0.1089  1.6423
 6133TIP3   OH240033   1.557   5.783   1.983 -0.2050  0.3225  0.3535
 6133TIP3    H140034   1.569   5.867   2.026 -0.9979  1.5200 -1.6514
 6133TIP3    H240035   1.538   5.804   1.892 -0.8415 -2.0158 -0.1340
 6134TIP3   OH240036   3.933   6.474   0.311  0.6197  0.3178 -0.6456
 6134TIP3    H140037   3.895   6.388   0.325 -0.0077  0.5017 -1.1824
 6134TIP3    H240038   3.857   6.532   0.302  1.0289  0.9739 -0.0199
 6135TIP3   OH240039   5.694   1.895   1.109 -0.0537  0.4494 -0.6846
 6135TIP3    H140040   5.603   1.883   1.136  0.1562  1.9722  0.8894
 6135TIP3    H240041   5.744   1.836   1.165 -0.0153 -0.2335 -1.4083
 6136TIP3   OH240042   3.272   4.153   0.020 -0.0918  0.3057 -0.3703
 6136TIP3    H140043   3.290   4.066   0.054  0.7059  0.1122 -1.2557
 6136TIP3    H240044   3.307   4.153  -0.069 -0.0126  1.5474 -0.3667
 6137TIP3   OH240045   4.308   5.514   8.179 -0.2104 -0.4922 -0.3065
 6137TIP3    H140046   4.369   5.469   8.237  0.5068 -0.7295 -1.2301
 6137TIP3    H240047   4.230   5.458   8.178 -0.1306 -0.6186  0.2087
 6138TIP3   OH240048   4.029   5.246   2.630 -0.2746 -0.2093  0.0236
 6138TIP3    H140049   4.083   5.252   2.551 -0.2087  1.7751  0.1600
 6138TIP3    H240050   4.090   5.218   2.699 -0.2423 -1.5290 -0.5219
 6139TIP3   OH240051   2.496   3.363   1.717  0.9870 -0.0512  0.5561
 6139TIP3    H140052   2.585   3.396   1.709  0.9261  0.3691  1.4938
 6139TIP3    H240053   2.503   3.293   1.782  0.8532 -0.9083 -0.3269
 6140TIP3   OH240054   0.382   4.673   8.650 -0.3645 -0.6787  0.3432
 6140TIP3    H140055   0.354   4.654   8.561 -1.5351 -0.9349  0.7476
 6140TIP3    H240056   0.467   4.631   8.659 -0.3771 -0.9009 -0.5579
 6141TIP3   OH240057   5.114   6.860   7.493  0.1073  0.4934  0.0744
 6141TIP3    H140058   5.170   6.785   7.516  0.3586  0.9209  0.8815
 6141TIP3    H240059   5.027   6.821   7.479 -0.1444  0.2337  2.0926
 6142TIP3   OH240060   2.200   5.528   2.249 -0.2647 -0.5586  0.1797
 6142TIP3    H140061   2.254   5.508   2.172 -0.1375 -0.1944  0.1726
 6142TIP3    H240062   2.264   5.550   2.317 -0.4144  1.0867 -0.1579
 6143TIP3   OH240063   1.528   1.876   8.393 -0.5640  0.3509  0.5581
 6143TIP3    H140064   1.542   1.931   8.470 -0.2447  1.1221 -0.0322
 6143TIP3    H240065   1.561   1.790   8.418 -0.3678  0.6186  1.2456
 6144TIP3   OH240066   4.246   3.528   8.188  0.2538  0.2657  0.0747
 6144TIP3    H140067   4.250   3.569   8.275 -1.3313 -1.0862  0.8476
 6144TIP3    H240068   4.286   3.442   8.201  1.3560  0.6136 -0.9247
 6145TIP3   OH240069   5.312   1.350   2.802 -0.1916  0.5789  0.3988
 6145TIP3    H140070   5.335   1.262   2.831 -0.4725  0.9235  1.7709
 6145TIP3    H240071   5.234   1.338   2.749  0.5430 -0.1221 -0.5659
 6146TIP3   OH240072   0.889   4.285   3.380 -0.0427  0.2901  0.0089
 6146TIP3    H140073   0.847   4.199   3.381 -0.3169  0.3401 -2.2061
 6146TIP3    H240074   0.983   4.265   3.382 -0.1083  0.0444  1.4600
 6147TIP3   OH240075   6.228   5.345   1.709  0.3317 -0.1637 -0.0469
 6147TIP3    H140076   6.217   5.266   1.657  0.1968 -0.1095 -0.1001
 6147TIP3    H240077   6.192   5.323   1.795  0.4111 -0.2012 -0.0231
 6148TIP3   OH240078   5.737   2.667   2.840  0.1809 -0.0593  0.1086
 6148TIP3    H140079   5.700   2.580   2.856  0.5877 -0.4172 -0.7826
 6148TIP3    H240080   5.661   2.723   2.825 -0.0530 -0.5527 -0.6157
 6149TIP3   OH240081   1.190   2.976   1.767 -0.4189 -0.0199  0.6051
 6149TIP3    H140082   1.170   3.038   1.697 -1.0838  1.7315  2.2486
 6149TIP3    H240083   1.106   2.960   1.809 -0.3916 -2.6827 -0.2065
 6150TIP3   OH240084   0.411   6.331   1.645 -0.2111  0.3938 -0.1389
 6150TIP3    H140085   0.402   6.373   1.560  0.0935 -0.4630 -0.6043
 6150TIP3    H240086   0.334   6.361   1.695  1.3043  3.6527  0.5223
 6151TIP3   OH240087   4.859   3.205   7.623 -0.5716  0.4989  0.4351
 6151TIP3    H140088   4.787   3.247   7.670 -1.6394 -0.7078 -0.0509
 6151TIP3    H240089   4.871   3.121   7.667 -1.2159 -0.4121 -1.0057
 6152TIP3   OH240090   0.608   0.338   0.287 -0.1367 -0.1818  0.0811
 6152TIP3    H140091   0.687   0.359   0.237  0.2661  1.3655  1.2955
 6152TIP3    H240092   0.551   0.293   0.224  0.7722  0.7652 -1.4815
 6153TIP3   OH240093   5.548   1.521   2.479  0.7531 -0.0239 -0.1646
 6153TIP3    H140094   5.461   1.491   2.454  0.6387 -0.8614  1.1454
 6153TIP3    H240095   5.554   1.610   2.445 -0.1717 -0.3615 -1.2547
 6154TIP3   OH240096   0.095   2.841   1.171 -0.2297 -0.1486 -0.2680
 6154TIP3    H140097   0.126   2.826   1.260  0.9907  3.3089  0.0413
 6154TIP3    H240098   0.172   2.872   1.123 -1.0558 -1.0406 -2.3185
 6155TIP3   OH240099   4.236   4.458   2.853  0.3199 -0.0008  0.2099
 6155TIP3    H140100   4.215   4.446   2.946 -0.5566  3.1395  0.5465
 6155TIP3    H240101   4.173   4.403   2.807  2.7054 -4.0801  1.3264
 6156TIP3   OH240102   4.008   6.263   2.252  0.0897  0.1184 -0.1084
 6156TIP3    H140103   4.080   6.234   2.196 -1.3984  0.4781 -2.3475
 6156TIP3    H240104   3.941   6.195   2.241 -1.2405  1.5042 -0.9144
 6157TIP3   OH240105   4.950   5.392   2.322 -0.2387  0.1107  0.1064
 6157TIP3    H140106   4.882   5.372   2.258  0.4747 -1.4770 -0.2062
 6157TIP3    H240107   4.970   5.307   2.362  0.6751  0.7682  1.0792
 6158TIP3   OH240108   0.094   3.175   2.972 -0.8041  0.5283  0.5382
 6158TIP3    H140109   0.004   3.208   2.978 -1.1007 -0.2474  0.5271
 6158TIP3    H240110   0.087   3.083   2.997 -0.6869 -0.6447 -3.2058
 6159TIP3   OH240111   5.625   3.637   0.316 -0.0567  0.2404  0.2911
 6159TIP3    H140112   5.634   3.648   0.411  2.2471 -1.0621  0.2859
 6159TIP3    H240113   5.709   3.667   0.281 -0.8727  0.6783 -1.3690
 6160TIP3   OH240114   5.454   5.781   8.610 -0.1602  0.6447  0.9769
 6160TIP3    H140115   5.531   5.737   8.573 -0.6609  0.3058  0.3296
 6160TIP3    H240116   5.491   5.855   8.658  0.5360  0.9376  0.0330
 6161TIP3   OH240117   0.770   3.644   0.282 -0.2862 -0.1055  0.2688
 6161TIP3    H140118   0.676   3.646   0.300 -0.4360 -0.9066 -0.3474
 6161TIP3    H240119   0.801   3.733   0.299 -1.6579  0.9216 -2.2735
 6162TIP3   OH240120   1.478   0.114   1.104 -0.2673  0.6193 -0.7171
 6162TIP3    H140121   1.447   0.125   1.194 -0.3187  3.3333 -0.9867
 6162TIP3    H240122   1.569   0.145   1.106  0.5415 -1.5240 -1.1880
 6163TIP3   OH240123   0.620   2.059   0.726  0.3281  0.6699 -0.0870
 6163TIP3    H140124   0.647   2.058   0.634 -0.7006  1.9832 -0.4329
 6163TIP3    H240125   0.690   2.013   0.772  1.0326  0.2974 -1.4797
 6164TIP3   OH240126   5.341   2.487   1.226 -0.2708  0.0917 -0.0763
 6164TIP3    H140127   5.328   2.581   1.214 -1.4392  0.0129  0.3735
 6164TIP3    H240128   5.419   2.466   1.175  1.7775  1.7968  2.1691
 6165TIP3   OH240129   3.449   2.009   0.589  0.3352  0.3096 -0.3456
 6165TIP3    H140130   3.395   1.930   0.599 -1.6713  1.7381  0.9090
 6165TIP3    H240131   3.458   2.020   0.495 -2.1928  0.3576 -0.6480
 6166TIP3   OH240132   1.857   0.711   8.101  0.0979  0.2784 -0.1567
 6166TIP3    H140133   1.922   0.641   8.097  1.1757  1.1236  1.3184
 6166TIP3    H240134   1.841   0.723   8.195 -3.9781 -1.4225 -0.4196
 6167TIP3   OH240135   0.411   4.355   1.945 -0.0598 -0.6393 -0.0511
 6167TIP3    H140136   0.385   4.429   2.000 -0.5719 -1.2240  0.5121
 6167TIP3    H240137   0.409   4.280   2.004  2.9765 -0.7532  0.0483
 6168TIP3   OH240138   1.942   0.772   1.814  0.2320 -0.4133  0.0041
 6168TIP3    H140139   2.016   0.726   1.853 -0.9890 -1.3697  1.2985
 6168TIP3    H240140   1.865   0.721   1.840 -1.2293  2.3617  1.5935
 6169TIP3   OH240141   2.465   3.446   7.199 -0.2227  0.5400  0.1667
 6169TIP3    H140142   2.534   3.487   7.148  0.2853  0.4174  0.7369
 6169TIP3    H240143   2.511   3.399   7.268 -0.8255 -0.4005 -0.0484
 6170TIP3   OH240144   5.277   1.412   0.871  0.5427 -0.1563 -0.2983
 6170TIP3    H140145   5.313   1.339   0.922  0.9164 -1.1725 -1.9374
 6170TIP3    H240146   5.183   1.396   0.868  0.2736  0.8258  1.4060
 6171TIP3   OH240147   3.241   1.176   8.314  0.1311 -0.3011 -0.2348
 6171TIP3    H140148   3.318   1.122   8.332  0.0616 -0.6054 -0.8266
 6171TIP3    H240149   3.194   1.128   8.246  0.5695  0.9865 -1.4812
 6172TIP3   OH240150   5.431   0.190   8.072  0.0200 -0.4432 -0.0683
 6172TIP3    H140151   5.423   0.230   7.985  0.5311 -0.2216 -0.0163
 6172TIP3    H240152   5.486   0.251   8.121  0.1325 -0.8111  0.2634
 6173TIP3   OH240153   1.951   3.337   0.920 -0.0327  0.3599  0.0656
 6173TIP3    H140154   2.029   3.392   0.923  2.0708 -2.3735  4.0195
 6173TIP3    H240155   1.889   3.380   0.979  0.3069  0.1953  0.5454
 6174TIP3   OH240156   5.797   1.473   2.327 -0.5557  0.1375 -0.0374
 6174TIP3    H140157   5.741   1.524   2.385 -0.0201 -0.1477  0.7432
 6174TIP3    H240158   5.780   1.382   2.349  0.6037  0.0544  0.6083
 6175TIP3   OH240159   1.739   5.685   8.533  0.1207 -0.0610  0.2978
 6175TIP3    H140160   1.781   5.630   8.467  0.8669 -0.2581  0.9207
 6175TIP3    H240161   1.803   5.753   8.552 -0.5120  0.6164  0.0647
 6176TIP3   OH240162   2.757   4.011   7.695 -0.4812  0.3623 -0.5611
 6176TIP3    H140163   2.700   3.942   7.661  1.8554 -0.7413 -2.5505
 6176TIP3    H240164   2.836   3.965   7.723  0.5963  2.0929 -0.6305
 6177TIP3   OH240165   1.170   0.616   2.635  0.4596 -0.0436 -0.1386
 6177TIP3    H140166   1.202   0.689   2.688 -0.8117  0.5540 -0.1694
 6177TIP3    H240167   1.165   0.543   2.697 -2.1896  0.9460  0.9635
 6178TIP3   OH240168   2.177   2.945   2.054 -0.3311  0.6936 -0.0385
 6178TIP3    H140169   2.225   2.866   2.028 -0.2710 -0.3086  2.7688
 6178TIP3    H240170   2.203   3.011   1.990  0.5954 -1.2175 -1.7576
 6179TIP3   OH240171   1.434   2.033   0.916 -0.2303 -0.1199 -0.1923
 6179TIP3    H140172   1.528   2.036   0.901 -0.3926  0.2862 -1.2235
 6179TIP3    H240173   1.414   1.940   0.927  0.3041 -0.1937  0.2023
 6180TIP3   OH240174   3.045   6.889   7.993 -0.4154  0.0656  0.6981
 6180TIP3    H140175   2.958   6.853   7.975  0.1025 -0.2334 -1.4367
 6180TIP3    H240176   3.092   6.881   7.910  2.0484 -0.8620  2.0786
 6181TIP3   OH240177   5.545   6.384   0.529  0.2292  0.1427 -0.3200
 6181TIP3    H140178   5.529   6.430   0.612 -1.5192 -2.1207  0.7118
 6181TIP3    H240179   5.464   6.336   0.512  2.0875 -3.0677 -0.9431
 6182TIP3   OH240180   5.856   4.657   3.363 -0.1565 -0.1707 -0.5638
 6182TIP3    H140181   5.941   4.642   3.323 -0.7392  0.9455 -2.3425
 6182TIP3    H240182   5.858   4.606   3.444  0.8467 -3.1468 -2.2972
 6183TIP3   OH240183   3.575   0.317   2.566  0.1181 -0.3552 -0.5837
 6183TIP3    H140184   3.574   0.354   2.654  0.8706  1.7784 -1.4064
 6183TIP3    H240185   3.659   0.273   2.559  0.1881 -0.2605 -0.3376
 6184TIP3   OH240186   5.456   6.835   8.497 -0.1174 -0.1524 -0.2902
 6184TIP3    H140187   5.544   6.871   8.501 -0.1788 -0.0871  1.3848
 6184TIP3    H240188   5.411   6.887   8.430  1.1066 -0.2117 -1.1830
 6185TIP3   OH240189   6.187   1.903   7.960 -0.4371  0.1636  0.4806
 6185TIP3    H140190   6.208   1.931   7.871 -0.1962 -0.7611  0.2370
 6185TIP3    H240191   6.216   1.976   8.015  2.7741 -0.6941  0.1084
 6186TIP3   OH240192   4.953   6.238   2.093  0.0553 -0.2025  0.1567
 6186TIP3    H140193   5.019   6.294   2.055  1.1550 -2.3774 -1.3606
 6186TIP3    H240194   4.999   6.156   2.112 -1.8592 -1.2764  0.4614
 6187TIP3   OH240195   0.141   0.498   3.316 -0.5584  0.1882  0.1782
 6187TIP3    H140196   0.217   0.442   3.300 -0.9467 -0.3940  0.3598
 6187TIP3    H240197   0.179   0.579   3.351 -0.0092 -0.0555  0.1607
 6188TIP3   OH240198   6.162   6.231   0.172  0.3281  0.1684 -0.0259
 6188TIP3    H140199   6.097   6.255   0.106 -0.2348  1.2705  0.8757
 6188TIP3    H240200   6.245   6.262   0.136  0.4000 -1.3112 -1.2174
 6189TIP3   OH240201   1.538   3.884   8.094 -0.0991  0.2976  0.1680
 6189TIP3    H140202   1.460   3.870   8.147  0.2994  1.1384  0.9979
 6189TIP3    H240203   1.506   3.883   8.003 -0.9113 -0.3381  0.4507
 6190TIP3   OH240204   6.787   2.319   7.623  0.1127 -0.2990 -0.1344
 6190TIP3    H140205   6.702   2.339   7.584  0.3932  0.7947 -0.2341
 6190TIP3    H240206   6.787   2.224   7.635 -1.5270 -0.2209  0.8033
 6191TIP3   OH240207   0.205   4.458   1.492 -0.4635  0.5318  0.3631
 6191TIP3    H140208   0.240   4.540   1.458 -1.1712  0.9587  0.6321
 6191TIP3    H240209   0.264   4.391   1.458  1.0342  1.2697  1.4407
 6192TIP3   OH240210   5.540   3.110   2.660  0.2191  0.1423 -0.5032
 6192TIP3    H140211   5.599   3.082   2.730 -0.8013 -0.8752 -0.0055
 6192TIP3    H240212   5.589   3.177   2.612  0.6063  1.6292  1.7898
 6193TIP3   OH240213   2.681   5.637   2.910  0.2243 -0.2463 -0.3507
 6193TIP3    H140214   2.714   5.574   2.975  0.3234 -2.5487 -2.4766
 6193TIP3    H240215   2.755   5.652   2.852  0.1320  1.7638 -0.0046
 6194TIP3   OH240216   3.703   6.218   1.678 -0.1354 -0.1164 -0.0315
 6194TIP3    H140217   3.662   6.242   1.761 -0.5101 -0.6582 -0.0590
 6194TIP3    H240218   3.700   6.299   1.627 -0.4399  0.0632  0.2609
 6195TIP3   OH240219   2.145   2.748   0.923 -0.4197 -0.2325  0.6786
 6195TIP3    H140220   2.084   2.819   0.943 -0.4419 -0.8002  2.8038
 6195TIP3    H240221   2.092   2.668   0.928 -0.0373 -0.5399 -0.0354
 6196TIP3   OH240222   3.995   1.183   1.423 -0.1198  0.5149  0.1126
 6196TIP3    H140223   4.035   1.218   1.503  1.8597  0.0569 -0.6062
 6196TIP3    H240224   4.020   1.091   1.422 -0.1335  0.5105 -1.0260
 6197TIP3   OH240225   1.345   4.294   8.263 -0.0888  0.4103  0.0856
 6197TIP3    H140226   1.275   4.232   8.244 -0.8542  0.6549  1.8535
 6197TIP3    H240227   1.359   4.341   8.181  1.5180 -2.9538 -1.7656
 6198TIP3   OH240228   6.747   2.969   0.348 -0.2150 -0.0514 -0.4053
 6198TIP3    H140229   6.807   3.041   0.331  1.4215 -1.2923 -0.0890
 6198TIP3    H240230   6.761   2.946   0.440  1.5664 -2.6907 -1.2128
 6199TIP3   OH240231   4.770   4.561   2.594  1.0356  0.0661  0.4011
 6199TIP3    H140232   4.689   4.525   2.629  1.1725 -1.2800 -0.6034
 6199TIP3    H240233   4.788   4.637   2.649 -0.1664 -0.4218  1.5161
 6200TIP3   OH240234   1.411   5.295   8.237  0.2378 -0.8391 -0.3268
 6200TIP3    H140235   1.394   5.289   8.331 -0.4078 -1.2286 -0.4565
 6200TIP3    H240236   1.486   5.353   8.229  0.2576 -0.7539  0.4277
 6201TIP3   OH240237   3.558   1.146   7.647  0.1174  0.7206  0.8275
 6201TIP3    H140238   3.547   1.114   7.736  2.7787 -1.3876  0.5587
 6201TIP3    H240239   3.484   1.110   7.599  0.5421 -1.2080  1.5270
 6202TIP3   OH240240   2.449   6.343   0.457  0.1966  0.0346  0.8411
 6202TIP3    H140241   2.444   6.404   0.530  1.0332 -0.0386  0.9723
 6202TIP3    H240242   2.541   6.317   0.454 -0.2572 -1.7456  1.2090
 6203TIP3   OH240243   5.799   2.151   2.713 -0.3190  0.1176  0.5098
 6203TIP3    H140244   5.793   2.203   2.633 -1.9754  0.5831  0.8977
 6203TIP3    H240245   5.893   2.133   2.724  0.1199  1.6544 -0.4971
 6204TIP3   OH240246   1.341   2.405   0.789  0.6186  0.0687  0.3047
 6204TIP3    H140247   1.371   2.478   0.735  2.5914 -0.5527  0.4807
 6204TIP3    H240248   1.330   2.332   0.728 -0.5290  0.2558  0.2582
 6205TIP3   OH240249   3.938   1.636   7.761 -0.4824  0.0775 -0.3542
 6205TIP3    H140250   3.921   1.728   7.781  0.3110  0.1560 -0.0464
 6205TIP3    H240251   3.923   1.629   7.666  1.0359  0.8921 -0.6766
 6206TIP3   OH240252   0.339   3.770   3.394 -0.3762 -0.6762  0.4061
 6206TIP3    H140253   0.282   3.805   3.325  0.1521 -0.3711  0.1129
 6206TIP3    H240254   0.324   3.828   3.469 -1.0893 -1.1198  0.6137
 6207TIP3   OH240255   2.270   1.773   0.275 -0.2868  0.0681 -0.2528
 6207TIP3    H140256   2.266   1.866   0.256 -0.0854 -0.1044 -1.2079
 6207TIP3    H240257   2.272   1.767   0.370  0.4711  1.0707 -0.1931
 6208TIP3   OH240258   1.880   6.787   1.903  0.2384 -0.4095 -0.1423
 6208TIP3    H140259   1.904   6.695   1.900  0.3489 -0.4497  1.1154
 6208TIP3    H240260   1.785   6.788   1.890 -0.1095 -0.9350  1.9851
 6209TIP3   OH240261   6.881   2.685   1.590 -0.1537  0.4033 -0.6559
 6209TIP3    H140262   6.911   2.594   1.598 -1.9040 -0.2251 -0.8865
 6209TIP3    H240263   6.923   2.730   1.663  0.8138 -0.5576 -0.5858
 6210TIP3   OH240264   3.393   6.561   1.763  0.1507  0.3139 -0.2451
 6210TIP3    H140265   3.416   6.606   1.844 -0.4907  1.6338 -0.7702
 6210TIP3    H240266   3.309   6.599   1.737 -0.4856 -1.2678 -0.6723
 6211TIP3   OH240267   3.634   5.476   0.786 -0.4571  0.1558 -0.3144
 6211TIP3    H140268   3.649   5.384   0.766  0.5161  0.3811 -0.6700
 6211TIP3    H240269   3.548   5.478   0.828 -0.0169 -1.0478  0.6941
 6212TIP3   OH240270   4.027   6.078   2.520 -0.0159 -0.3452  0.6359
 6212TIP3    H140271   3.979   6.047   2.443  1.9047  0.4989 -1.0133
 6212TIP3    H240272   4.031   6.173   2.508  1.4319 -0.3366  1.0671
 6213TIP3   OH240273   0.410   1.745   1.338  0.4458 -0.1672 -0.0417
 6213TIP3    H140274   0.458   1.809   1.285  0.1167  1.4209  1.4966
 6213TIP3    H240275   0.331   1.791   1.366  0.6881 -0.8634  1.9515
 6214TIP3   OH240276   1.843   2.864   1.230  0.0055 -0.1979 -0.5633
 6214TIP3    H140277   1.766   2.922   1.229  0.1313 -0.0310 -1.4856
 6214TIP3    H240278   1.896   2.894   1.156  1.0160 -0.2438  0.1272
 6215TIP3   OH240279   5.552   6.319   2.880 -0.0503  0.2822  0.4361
 6215TIP3    H140280   5.521   6.356   2.963 -0.1665  2.3342 -0.4597
 6215TIP3    H240281   5.474   6.317   2.824  0.1981 -0.2646  0.1019
 6216TIP3   OH240282   5.309   5.129   8.352 -0.7523  0.0803  0.0936
 6216TIP3    H140283   5.231   5.074   8.347  0.2926 -1.5442  1.0187
 6216TIP3    H240284   5.298   5.191   8.280 -2.9774  0.0355  0.3046
 6217TIP3   OH240285   6.358   4.461   2.413  0.3530  0.4505  0.5200
 6217TIP3    H140286   6.329   4.430   2.327  1.5954  1.8160 -0.4363
 6217TIP3    H240287   6.449   4.434   2.419  0.4686  0.9386  1.1253
 6218TIP3   OH240288   0.694   4.106   7.957  0.0281 -0.3625 -0.2121
 6218TIP3    H140289   0.602   4.079   7.956  0.7992 -3.4982  1.2563
 6218TIP3    H240290   0.692   4.195   7.992 -2.3832 -0.7306  0.8112
 6219TIP3   OH240291   2.015   2.376   1.868  0.4729  0.4885  0.8449
 6219TIP3    H140292   1.971   2.318   1.930 -0.6559  2.0396  1.5221
 6219TIP3    H240293   1.953   2.446   1.851  1.9530  1.7383  0.3581
 6220TIP3   OH240294   5.833   3.532   0.816 -0.4353  0.2908 -0.1231
 6220TIP3    H140295   5.757   3.475   0.827 -0.8106  0.9545  0.8218
 6220TIP3    H240296   5.906   3.482   0.852 -0.6561  0.1826  0.1715
 6221TIP3   OH240297   2.093   6.174   0.454 -0.1593  0.0833  0.2793
 6221TIP3    H140298   2.169   6.143   0.405 -0.7997 -2.9972  0.9967
 6221TIP3    H240299   2.126   6.189   0.543 -0.0016  0.7434  0.1125
 6222TIP3   OH240300   5.003   4.673   8.003  0.8450  0.2071 -0.2839
 6222TIP3    H140301   5.057   4.612   8.054  1.3370  2.0426  1.5162
 6222TIP3    H240302   4.915   4.659   8.036  0.9830  0.5725  0.2474
 6223TIP3   OH240303   2.695   6.778   8.312  0.8680  0.0596 -0.1283
 6223TIP3    H140304   2.711   6.865   8.276  1.6318  0.2743  0.7124
 6223TIP3    H240305   2.778   6.732   8.300  1.3082  0.2923  1.7617
 6224TIP3   OH240306   5.801   5.666   1.561 -0.3273  0.2964  0.0798
 6224TIP3    H140307   5.822   5.671   1.468 -0.7731  2.3471  0.0370
 6224TIP3    H240308   5.760   5.580   1.572  1.2908 -0.7036 -1.2405
 6225TIP3   OH240309   6.888   5.153   7.119  0.3511 -0.3291 -0.2916
 6225TIP3    H140310   6.908   5.207   7.196  1.6340 -2.8877  1.2971
 6225TIP3    H240311   6.970   5.151   7.070  0.0511 -0.1575 -0.8075
 6226TIP3   OH240312   3.576   4.745   7.339  0.0013 -0.2916 -0.7163
 6226TIP3    H140313   3.563   4.709   7.251 -1.4839 -0.4599 -0.4582
 6226TIP3    H240314   3.560   4.671   7.398 -0.2984  0.1177 -0.2756
 6227TIP3   OH240315   0.473   2.352   0.678  0.2488 -0.2472  0.3844
 6227TIP3    H140316   0.382   2.323   0.664  0.0659  0.6438 -0.3865
 6227TIP3    H240317   0.515   2.341   0.592  0.3806  0.9946  0.2746
 6228TIP3   OH240318   2.452   2.241   7.362  0.3443  0.1993  0.5998
 6228TIP3    H140319   2.449   2.335   7.348 -0.5764  0.3397  1.5644
 6228TIP3    H240320   2.513   2.208   7.297  1.3261  1.5557  0.8066
 6229TIP3   OH240321   4.273   4.315   3.475 -0.0869 -0.3391 -0.5363
 6229TIP3    H140322   4.319   4.396   3.499 -1.8355  0.7440 -0.6918
 6229TIP3    H240323   4.255   4.272   3.558  1.5681 -1.0214 -0.4944
 6230TIP3   OH240324   1.521   6.222   1.746 -0.0081  0.5846  0.1101
 6230TIP3    H140325   1.497   6.277   1.821  0.4034 -0.7933  1.3057
 6230TIP3    H240326   1.444   6.222   1.690 -1.3001 -0.3667  1.7856
 6231TIP3   OH240327   4.063   3.901   2.727 -0.1720 -0.5400  0.2548
 6231TIP3    H140328   4.120   3.846   2.672  0.5276  0.3836  0.0360
 6231TIP3    H240329   4.015   3.956   2.665 -0.5471 -0.5925  0.4958
 6232TIP3   OH240330   2.105   6.503   0.596 -0.0605 -0.0896 -0.2437
 6232TIP3    H140331   2.126   6.415   0.628 -0.6975 -0.6715 -1.3777
 6232TIP3    H240332   2.173   6.559   0.635  2.7104 -1.6524 -2.5045
 6233TIP3   OH240333   0.663   5.727   1.385  0.1476  0.2031  0.5742
 6233TIP3    H140334   0.669   5.633   1.367  0.2302  0.2653  0.2593
 6233TIP3    H240335   0.738   5.765   1.340 -0.5431  0.5542 -0.3368
 6234TIP3   OH240336   4.724   2.041   0.589  0.4455  0.2150  0.1252
 6234TIP3    H140337   4.630   2.020   0.593  0.3882  0.4239 -0.1184
 6234TIP3    H240338   4.755   2.028   0.679  0.6685 -2.0806 -0.2069
 6235TIP3   OH240339   2.861   3.877   0.239  0.1668 -0.2186 -0.2877
 6235TIP3    H140340   2.863   3.791   0.281  0.9747  0.1312  0.4386
 6235TIP3    H240341   2.936   3.923   0.277  0.0316  0.6375 -1.0306
 6236TIP3   OH240342   3.794   4.422   1.288  0.3181  0.1382  0.5740
 6236TIP3    H140343   3.798   4.413   1.193  0.3316 -1.7318  0.7281
 6236TIP3    H240344   3.870   4.475   1.310  0.0865  0.9460 -0.4775
 6237TIP3   OH240345   0.002   6.382   7.489 -0.1690  0.3346  0.2685
 6237TIP3    H140346   0.062   6.339   7.550  1.2594 -0.6748 -1.7020
 6237TIP3    H240347  -0.023   6.313   7.427 -0.2768  1.6267 -1.1940
 6238TIP3   OH240348   2.057   3.787   7.947  0.1692 -0.5523  0.1605
 6238TIP3    H140349   2.080   3.706   7.901 -2.1168 -1.1893  0.0246
 6238TIP3    H240350   2.141   3.833   7.958  1.1575 -1.5413 -2.3871
 6239TIP3   OH240351   2.965   4.839   1.861 -0.0719 -0.3691 -0.1129
 6239TIP3    H140352   2.870   4.847   1.866 -0.2334  0.5426 -2.9841
 6239TIP3    H240353   2.997   4.930   1.860  0.7208 -0.6404 -0.3176
 6240TIP3   OH240354   2.738   5.853   0.217  0.3489 -0.3988  0.2508
 6240TIP3    H140355   2.685   5.892   0.287  1.2751  4.1635 -1.2571
 6240TIP3    H240356   2.674   5.809   0.162 -1.7212  2.7117 -0.1191
 6241TIP3   OH240357   0.808   1.604   8.097  0.1662 -0.9940  0.3505
 6241TIP3    H140358   0.738   1.652   8.142  0.1048  1.9372 -2.4919
 6241TIP3    H240359   0.763   1.543   8.039  0.1329 -1.7488  1.1487
 6242TIP3   OH240360   6.553   2.540   0.332  0.5373  0.5153  0.1033
 6242TIP3    H140361   6.577   2.539   0.239  2.1316 -0.1308  0.4896
 6242TIP3    H240362   6.542   2.633   0.353 -0.0876  0.6532 -0.7697
 6243TIP3   OH240363   1.174   6.014   7.990  0.1129 -0.4754  0.2996
 6243TIP3    H140364   1.227   6.085   8.026 -1.6139  0.6386  0.7965
 6243TIP3    H240365   1.174   6.030   7.896  0.7976 -0.6096  0.2705
 6244TIP3   OH240366   0.180   3.415   3.679 -0.2578  0.2925 -0.1526
 6244TIP3    H140367   0.089   3.438   3.659 -0.1249  0.3707 -0.6805
 6244TIP3    H240368   0.175   3.373   3.765 -0.6044  1.5584  0.4666
 6245TIP3   OH240369   6.216   4.330   1.527 -0.2045  0.7050 -0.1503
 6245TIP3    H140370   6.174   4.328   1.441 -0.0270  1.5799 -0.2655
 6245TIP3    H240371   6.285   4.264   1.521 -1.4214 -0.6195 -0.0166
 6246TIP3   OH240372   4.904   2.557   3.158 -0.1167  0.2369  0.1164
 6246TIP3    H140373   4.968   2.603   3.103  2.1693 -2.0057  0.7234
 6246TIP3    H240374   4.889   2.616   3.232  1.1221  0.9109 -0.1431
 6247TIP3   OH240375   5.849   5.324   8.328 -0.2168 -0.3653 -0.2279
 6247TIP3    H140376   5.871   5.233   8.347  0.1041 -0.3868 -0.6591
 6247TIP3    H240377   5.754   5.329   8.337  0.0080 -0.0303  2.7303
 6248TIP3   OH240378   1.518   5.300   1.916 -0.2369  0.0663 -0.3591
 6248TIP3    H140379   1.528   5.221   1.969  1.1383  0.4319 -0.0253
 6248TIP3    H240380   1.550   5.371   1.972 -1.0867  0.8189 -0.7906
 6249TIP3   OH240381   1.649   2.145   0.437 -0.3231 -0.2212  0.1768
 6249TIP3    H140382   1.729   2.129   0.386 -0.8192 -0.1055 -0.6548
 6249TIP3    H240383   1.658   2.088   0.514  1.1845  0.7866  0.8029
 6250TIP3   OH240384   0.585   3.483   8.225 -0.5258  0.0939 -0.5024
 6250TIP3    H140385   0.639   3.426   8.171 -1.3168  0.1196 -1.3441
 6250TIP3    H240386   0.575   3.436   8.308  3.1353  1.3335  0.8501
 6251TIP3   OH240387   1.055   4.573   1.603  0.0155  0.0247 -0.5235
 6251TIP3    H140388   1.095   4.660   1.601  3.5985 -1.4119 -0.3863
 6251TIP3    H240389   0.985   4.580   1.667  0.6457  2.6266 -0.0035
 6252TIP3   OH240390   6.785   0.356   0.760 -0.4692 -0.0630  0.0869
 6252TIP3    H140391   6.775   0.267   0.725 -1.2552  0.5289 -1.2540
 6252TIP3    H240392   6.712   0.405   0.723 -1.2242  0.6965  2.4069
 6253TIP3   OH240393   1.957   4.859   1.495  0.3385  0.2181  0.0470
 6253TIP3    H140394   1.972   4.949   1.523  1.1990  0.3622 -0.8022
 6253TIP3    H240395   2.025   4.843   1.429  0.5250 -1.2299  0.5626
 6254TIP3   OH240396   2.951   4.426   0.770 -0.4027  0.1905  0.0613
 6254TIP3    H140397   2.897   4.429   0.691 -0.1031 -2.3331 -0.3142
 6254TIP3    H240398   2.888   4.428   0.843 -0.6996  2.0619 -0.1991
 6255TIP3   OH240399   2.237   2.120   7.517  0.1176 -0.2337  0.0269
 6255TIP3    H140400   2.200   2.063   7.449 -0.4281  1.0731 -0.7970
 6255TIP3    H240401   2.303   2.172   7.472 -0.0724  0.4704  0.5437
 6256TIP3   OH240402   2.358   1.022   1.132  0.1754  0.0766 -0.0655
 6256TIP3    H140403   2.289   0.985   1.076 -2.0949 -0.7082  2.9854
 6256TIP3    H240404   2.406   0.947   1.165  0.4767  0.4057  0.2609
 6257TIP3   OH240405   3.699   1.802   2.866 -0.0699  0.3797 -0.6479
 6257TIP3    H140406   3.744   1.740   2.810 -0.0213 -1.6113  1.4518
 6257TIP3    H240407   3.761   1.820   2.936  0.4369  3.9208 -1.8122
 6258TIP3   OH240408   5.914   4.554   1.600 -0.0887  0.0794  0.1531
 6258TIP3    H140409   5.843   4.598   1.646  0.7711 -0.5008  2.1560
 6258TIP3    H240410   5.939   4.615   1.531 -0.5362  1.6624  1.3161
 6259TIP3   OH240411   1.458   4.613   8.156  0.0067 -0.4056  0.4356
 6259TIP3    H140412   1.439   4.586   8.066 -1.1995  0.3607  0.4441
 6259TIP3    H240413   1.375   4.602   8.203  0.9772 -2.2261  1.8519
 6260TIP3   OH240414   6.808   4.143   0.388  0.3385  0.0687 -0.3852
 6260TIP3    H140415   6.859   4.076   0.342  0.8554  0.6458 -0.6810
 6260TIP3    H240416   6.852   4.226   0.365 -1.4411  0.7163 -1.5938
 6261TIP3   OH240417   0.365   1.596   2.234 -0.0563 -0.2340 -0.1393
 6261TIP3    H140418   0.273   1.616   2.247 -0.4102 -2.2301  0.8458
 6261TIP3    H240419   0.407   1.681   2.222 -1.6292  0.9274  1.9976
 6262TIP3   OH240420   0.692   6.595   2.799 -0.0851 -0.2768 -0.3045
 6262TIP3    H140421   0.636   6.599   2.721 -2.1698  2.3875  1.1577
 6262TIP3    H240422   0.679   6.506   2.833 -3.1155  0.0506 -0.3259
 6263TIP3   OH240423   4.719   2.232   1.228  0.2575  0.5801 -0.6599
 6263TIP3    H140424   4.811   2.254   1.246  0.2132 -0.3331  0.8282
 6263TIP3    H240425   4.718   2.205   1.137  1.2870  1.5491 -0.9738
 6264TIP3   OH240426   4.453   6.356   8.443  0.3204 -0.0284  0.1300
 6264TIP3    H140427   4.486   6.289   8.503  0.1620  1.1174  1.5791
 6264TIP3    H240428   4.357   6.349   8.450  0.3021  0.1680  0.0848
 6265TIP3   OH240429   0.983   1.999   3.398 -0.0299 -0.9229  0.4244
 6265TIP3    H140430   1.025   1.913   3.391  0.6904 -0.6216  0.9587
 6265TIP3    H240431   1.054   2.058   3.423 -0.8806 -0.5093  1.9063
 6266TIP3   OH240432   2.166   0.055   0.779 -0.3961 -0.2393  0.6469
 6266TIP3    H140433   2.132   0.142   0.799  1.3518  0.6602 -0.0809
 6266TIP3    H240434   2.171   0.011   0.864 -0.3954  0.7147  1.1509
 6267TIP3   OH240435   5.158   0.030   2.216 -0.4686  0.5048 -0.2682
 6267TIP3    H140436   5.218  -0.042   2.233  0.7705  1.8368  1.4549
 6267TIP3    H240437   5.117   0.009   2.133 -1.9665 -3.3233  1.2408
 6268TIP3   OH240438   2.580   6.159   0.921  0.6104  0.1221  0.2871
 6268TIP3    H140439   2.573   6.160   1.016  0.1785  2.6930  0.3122
 6268TIP3    H240440   2.643   6.228   0.901 -1.4477  1.6702 -1.3290
 6269TIP3   OH240441   0.451   1.493   1.820 -0.4851 -0.0582 -0.1821
 6269TIP3    H140442   0.372   1.467   1.867  0.3875  0.9197  1.9433
 6269TIP3    H240443   0.418   1.535   1.740 -1.9980 -1.9919 -0.6621
 6270TIP3   OH240444   2.903   3.452   3.037  0.5603  0.0708  0.4888
 6270TIP3    H140445   2.964   3.422   3.104 -0.2965 -2.7211  0.1260
 6270TIP3    H240446   2.818   3.455   3.080  0.3232  0.1874  0.0222
 6271TIP3   OH240447   3.187   6.424   2.089  0.1377  0.6078 -0.0379
 6271TIP3    H140448   3.121   6.487   2.118  1.6427  1.6420  1.3504
 6271TIP3    H240449   3.167   6.344   2.138  0.6159  1.3057  1.3632
 6272TIP3   OH240450   5.077   6.397   3.453 -0.2893 -0.2435  0.0664
 6272TIP3    H140451   5.035   6.418   3.370 -1.3800  0.2826  0.7359
 6272TIP3    H240452   5.038   6.314   3.480  0.7624 -0.9085 -0.3963
 6273TIP3   OH240453   4.231   3.134   2.847 -0.3527  0.1714 -0.4101
 6273TIP3    H140454   4.272   3.050   2.864  0.7029  0.6347 -0.5640
 6273TIP3    H240455   4.255   3.189   2.922 -2.0288  0.0028  0.2816
 6274TIP3   OH240456   1.730   2.073   1.136 -0.2805  0.1173 -0.2217
 6274TIP3    H140457   1.775   2.136   1.192 -0.7648  0.7109 -0.4851
 6274TIP3    H240458   1.712   1.998   1.194 -0.0683  0.3905  0.2027
 6275TIP3   OH240459   2.146   1.830   2.247  0.3463  0.7126 -0.1923
 6275TIP3    H140460   2.153   1.877   2.330 -0.4157  0.8098 -0.1715
 6275TIP3    H240461   2.107   1.746   2.269  0.7900  0.4571 -0.3630
 6276TIP3   OH240462   3.016   4.003   0.587 -0.4256 -0.3309 -0.0578
 6276TIP3    H140463   3.072   4.023   0.511  0.4696 -0.8871  0.4332
 6276TIP3    H240464   3.018   3.908   0.594 -1.2440 -0.3410  0.1290
 6277TIP3   OH240465   3.194   4.265   7.679  0.3642  0.1369  0.2131
 6277TIP3    H140466   3.111   4.231   7.710  0.4150 -0.2696 -0.0874
 6277TIP3    H240467   3.226   4.199   7.617  0.3587  0.8300 -0.5442
 6278TIP3   OH240468   5.731   3.309   2.640 -0.5049 -0.2904 -0.3403
 6278TIP3    H140469   5.759   3.332   2.728  1.7303  0.7266 -1.2346
 6278TIP3    H240470   5.664   3.374   2.618 -2.5334 -1.7183  1.2209
 6279TIP3   OH240471   2.081   0.953   0.704 -0.4116 -0.5814 -0.3231
 6279TIP3    H140472   2.008   0.988   0.654 -0.6482 -0.5579  0.0337
 6279TIP3    H240473   2.133   1.029   0.728 -0.2474 -0.6025 -0.6133
 6280TIP3   OH240474   2.408   2.848   2.760  0.1311  0.9260  0.1239
 6280TIP3    H140475   2.405   2.813   2.849 -2.1778  0.3612 -0.1152
 6280TIP3    H240476   2.458   2.783   2.710 -0.1490  0.3126  0.6300
 6281TIP3   OH240477   0.879   6.033   2.397  0.0536 -0.0256  0.3254
 6281TIP3    H140478   0.831   6.066   2.473 -2.1188 -0.5119 -0.7358
 6281TIP3    H240479   0.858   6.096   2.327  1.5615  0.1102 -0.0320
 6282TIP3   OH240480   3.197   1.913   1.321  0.3098  0.1959  0.2160
 6282TIP3    H140481   3.116   1.947   1.284 -1.0224  0.7869  3.3435
 6282TIP3    H240482   3.173   1.884   1.409  2.7932 -2.8601  0.0757
 6283TIP3   OH240483   2.614   1.641   1.375 -0.5383 -0.2636 -0.5589
 6283TIP3    H140484   2.657   1.712   1.423 -1.5442  0.2778 -0.4283
 6283TIP3    H240485   2.628   1.663   1.282 -0.1913 -0.3188 -0.5232
 6284TIP3   OH240486   3.072   3.926   2.978 -0.0379  0.2515  0.4498
 6284TIP3    H140487   3.070   3.920   3.074  1.2633  1.0474  0.5529
 6284TIP3    H240488   3.036   3.843   2.948  0.6232 -0.5015  1.6513
 6285TIP3   OH240489   4.956   0.670   3.477 -0.1306 -0.6446 -0.2454
 6285TIP3    H140490   5.007   0.632   3.549 -0.9578  0.1635  0.7857
 6285TIP3    H240491   4.869   0.633   3.487  0.2457 -2.1641 -2.1212
 6286TIP3   OH240492   0.082   4.717   0.899  0.4902 -0.1974  0.3682
 6286TIP3    H140493   0.001   4.738   0.947  0.8814 -0.4926  1.1747
 6286TIP3    H240494   0.080   4.775   0.823 -1.2565 -1.2831 -0.4724
 6287TIP3   OH240495   5.549   4.998   0.178 -0.5937 -0.3380  0.0090
 6287TIP3    H140496   5.540   4.914   0.222 -2.3708  0.1015  0.5603
 6287TIP3    H240497   5.466   5.011   0.132  0.7097 -0.1815 -2.5080
 6288TIP3   OH240498   1.438   3.176   1.326 -0.1173 -0.1767 -0.2317
 6288TIP3    H140499   1.383   3.107   1.290 -0.7181  0.8606 -1.4081
 6288TIP3    H240500   1.376   3.244   1.353  0.5111  0.3570 -0.1037
 6289TIP3   OH240501   3.368   5.689   1.440  0.1425  0.4337 -0.4506
 6289TIP3    H140502   3.290   5.744   1.435  1.1313  1.7755 -1.8742
 6289TIP3    H240503   3.336   5.604   1.470 -2.0296  0.6447 -1.9748
 6290TIP3   OH240504   5.076   3.597   3.248  0.1775  0.3754  0.0835
 6290TIP3    H140505   5.071   3.692   3.236  1.1638  0.4830  0.4171
 6290TIP3    H240506   5.163   3.573   3.217 -0.0572 -0.4212  0.0187
 6291TIP3   OH240507   6.075   3.594   8.394  0.0632 -0.1985 -0.3220
 6291TIP3    H140508   6.043   3.504   8.400 -0.3187 -0.0785 -0.5094
 6291TIP3    H240509   6.042   3.637   8.473 -0.9627  0.1422 -0.9124
 6292TIP3   OH240510   6.880   4.614   0.083 -0.0694 -0.5957 -0.0549
 6292TIP3    H140511   6.871   4.699   0.040  1.2472  0.3293  1.3699
 6292TIP3    H240512   6.892   4.551   0.012 -0.0420  0.5609 -1.0956
 6293TIP3   OH240513   0.513   3.444   7.603 -0.8713 -0.6049 -0.0178
 6293TIP3    H140514   0.476   3.356   7.613 -0.2256 -1.2586 -2.6729
 6293TIP3    H240515   0.593   3.442   7.656 -0.4997 -1.8703 -0.5870
 6294TIP3   OH240516   2.151   3.062   8.579 -0.1349  0.1230 -0.2482
 6294TIP3    H140517   2.194   3.071   8.664  0.7582  0.3219 -0.7034
 6294TIP3    H240518   2.198   3.124   8.523 -0.9810  0.2889 -0.7889
 6295TIP3   OH240519   2.672   3.857   7.471  0.2388  0.1170  0.1776
 6295TIP3    H140520   2.653   3.812   7.554  0.2359  1.3548  0.8666
 6295TIP3    H240521   2.592   3.846   7.419  0.3426 -0.9106  0.2178
 6296TIP3   OH240522   6.507   3.185   0.396  0.2113 -0.6131 -0.3355
 6296TIP3    H140523   6.551   3.123   0.455 -0.6773 -0.4909  0.4756
 6296TIP3    H240524   6.422   3.144   0.378  0.2466 -0.3751 -1.0935
 6297TIP3   OH240525   2.140   1.007   1.321  0.4204  0.0460 -0.0757
 6297TIP3    H140526   2.223   1.040   1.285  1.3648  0.1073  2.0116
 6297TIP3    H240527   2.095   0.969   1.246  3.0732 -1.5087 -1.0057
 6298TIP3   OH240528   0.829   5.329   2.776 -0.2798 -0.1767  0.0694
 6298TIP3    H140529   0.917   5.348   2.746 -0.1833  0.5834  0.8037
 6298TIP3    H240530   0.840   5.278   2.855 -0.4891  0.0361  0.2408
 6299TIP3   OH240531   4.503   6.180   0.367  0.5659 -0.5440  0.0997
 6299TIP3    H140532   4.584   6.218   0.332  1.6165 -2.5386  0.2323
 6299TIP3    H240533   4.436   6.246   0.348  2.0092  0.6911 -0.9962
 6300TIP3   OH240534   2.275   5.553   0.265 -0.1066  0.1442  0.2499
 6300TIP3    H140535   2.324   5.582   0.188  0.2568  2.0618  1.1572
 6300TIP3    H240536   2.225   5.478   0.233 -2.0786  2.4309 -2.6722
 6301TIP3   OH240537   4.609   6.161   1.154 -0.2933 -0.1372 -0.2521
 6301TIP3    H140538   4.608   6.110   1.073 -0.0484  1.1443 -1.0923
 6301TIP3    H240539   4.591   6.251   1.126  0.1714  0.3922  1.0692
 6302TIP3   OH240540   1.069   4.291   0.113  0.6276  0.3530  0.0662
 6302TIP3    H140541   1.049   4.293   0.207 -0.0831  0.0758 -0.0700
 6302TIP3    H240542   1.108   4.205   0.099  0.0492  0.1058 -0.0237
 6303TIP3   OH240543   0.801   2.089   1.060 -0.0025 -0.3411 -0.2894
 6303TIP3    H140544   0.808   2.019   0.995  1.1278  0.6140 -1.2399
 6303TIP3    H240545   0.886   2.133   1.057 -1.1864  2.0036 -0.8021
 6304TIP3   OH240546   6.214   3.064   1.953 -0.1167 -0.3099 -0.3114
 6304TIP3    H140547   6.182   2.979   1.926 -0.5355 -0.1038 -0.4748
 6304TIP3    H240548   6.146   3.125   1.926 -0.2215 -0.0209  0.5857
 6305TIP3   OH240549   4.000   1.633   2.242  0.3632  0.4077 -0.2031
 6305TIP3    H140550   4.079   1.607   2.289 -0.3685 -1.9856 -0.1459
 6305TIP3    H240551   4.005   1.585   2.159 -1.9778 -1.5764  0.6731
 6306TIP3   OH240552   1.986   4.399   1.914  0.7545 -0.3091 -0.3473
 6306TIP3    H140553   1.984   4.427   1.822  0.4747  0.1536 -0.2005
 6306TIP3    H240554   2.065   4.439   1.950 -0.0856  1.0506  0.0891
 6307TIP3   OH240555   2.602   0.089   0.941  0.3462  0.0763 -0.0231
 6307TIP3    H140556   2.547   0.059   0.869  0.6226 -1.2954  0.3206
 6307TIP3    H240557   2.688   0.103   0.902  0.9225 -2.2307  0.3128
 6308TIP3   OH240558   1.467   4.224   2.026  0.0866 -0.4671  0.4258
 6308TIP3    H140559   1.375   4.205   2.007  0.6843 -1.0293 -2.1855
 6308TIP3    H240560   1.513   4.143   2.006  1.3745  0.4010 -0.2179
 6309TIP3   OH240561   4.776   6.287   2.347 -0.3246 -0.6402  0.2517
 6309TIP3    H140562   4.829   6.267   2.270  1.4456 -1.8039  1.6782
 6309TIP3    H240563   4.714   6.215   2.353 -0.9881 -0.1456 -0.4872
 6310TIP3   OH240564   4.291   3.732   2.299  0.1843 -0.2978 -0.7192
 6310TIP3    H140565   4.297   3.638   2.319 -2.1173 -0.1610  1.0738
 6310TIP3    H240566   4.289   3.774   2.385  0.1768  1.3181 -1.4851
 6311TIP3   OH240567   1.034   0.190   1.144  0.3551  0.4723 -0.3396
 6311TIP3    H140568   1.014   0.242   1.222 -1.1511  0.1356 -0.4600
 6311TIP3    H240569   1.080   0.113   1.178  1.7060  1.3879 -0.0554
 6312TIP3   OH240570   3.746   1.029   0.410  0.4784 -0.1838 -0.7147
 6312TIP3    H140571   3.730   0.979   0.330 -0.1562 -0.2340 -0.5652
 6312TIP3    H240572   3.663   1.073   0.428 -0.1608 -2.0135  1.1972
 6313TIP3   OH240573   4.993   4.387   1.414  0.5940 -0.1812 -0.4303
 6313TIP3    H140574   4.953   4.303   1.435  1.5915 -0.2044  1.5930
 6313TIP3    H240575   4.942   4.420   1.340 -1.9854 -1.0333  0.8634
 6314TIP3   OH240576   3.633   1.893   7.326 -0.1622  0.1642 -0.6070
 6314TIP3    H140577   3.657   1.830   7.258 -0.1850 -0.8455  0.2968
 6314TIP3    H240578   3.681   1.973   7.303  1.2046 -0.6933 -0.8445
 6315TIP3   OH240579   5.982   4.329   0.096  0.3666  0.0050  0.1217
 6315TIP3    H140580   5.998   4.243   0.135 -0.5070  1.3714  3.9409
 6315TIP3    H240581   5.887   4.342   0.103  0.4707  1.2661 -0.3976
 6316TIP3   OH240582   2.435   2.375   0.402 -0.3365  0.2441  0.3719
 6316TIP3    H140583   2.397   2.417   0.480 -0.1297 -2.2334  1.9306
 6316TIP3    H240584   2.364   2.320   0.368  0.7384 -1.8398  1.3173
 6317TIP3   OH240585   5.014   6.846   1.215 -0.5106 -0.1999  0.1345
 6317TIP3    H140586   5.011   6.849   1.119  0.5881  2.6695  0.1068
 6317TIP3    H240587   5.053   6.929   1.241 -2.8015  0.1186  3.1872
 6318TIP3   OH240588   5.406   3.771   0.190 -0.5114 -0.3104  0.2931
 6318TIP3    H140589   5.485   3.738   0.232 -0.9127  0.3487  1.6354
 6318TIP3    H240590   5.350   3.798   0.263 -2.1009 -1.0492 -0.6130
 6319TIP3   OH240591   5.270   4.225   1.474 -0.0227  0.6236  0.0765
 6319TIP3    H140592   5.186   4.263   1.501 -0.3061  0.4013 -0.4760
 6319TIP3    H240593   5.336   4.286   1.508 -0.3712  0.4533  1.1013
 6320TIP3   OH240594   1.103   1.291   0.814 -0.2753 -0.4960  0.1034
 6320TIP3    H140595   1.142   1.367   0.857  1.7848  0.5016 -3.1491
 6320TIP3    H240596   1.009   1.311   0.811  0.2217  2.1658 -0.8725
 6321TIP3   OH240597   3.893   1.837   0.778  0.1978  0.0044  0.5234
 6321TIP3    H140598   3.886   1.932   0.785  0.7140  0.1052 -0.1619
 6321TIP3    H240599   3.957   1.812   0.844  0.2506  0.1677  0.5334
 6322TIP3   OH240600   6.450   5.325   1.071  0.0823  0.3126 -0.2995
 6322TIP3    H140601   6.517   5.353   1.133 -0.2292  1.0449 -0.2880
 6322TIP3    H240602   6.408   5.250   1.113  0.7395 -0.0147 -0.2085
 6323TIP3   OH240603   4.742   1.241   0.213 -0.2330 -0.3175  0.3390
 6323TIP3    H140604   4.748   1.238   0.118 -1.3941 -0.7903  0.2627
 6323TIP3    H240605   4.666   1.297   0.230  0.2043  0.0836  0.9960
 6324TIP3   OH240606   3.565   6.711   1.355 -0.1732 -0.1232  0.0218
 6324TIP3    H140607   3.554   6.692   1.449 -1.3362  0.3229 -0.0107
 6324TIP3    H240608   3.659   6.728   1.345 -0.2576  1.4895  1.4320
 6325TIP3   OH240609   1.574   5.074   1.343 -0.6748  0.0513  0.6165
 6325TIP3    H140610   1.481   5.082   1.365 -0.6099  0.7325  0.6740
 6325TIP3    H240611   1.589   5.143   1.278 -0.0151  0.5620  1.2830
 6326TIP3   OH240612   3.934   1.626   0.596  0.3671  0.5792 -0.0152
 6326TIP3    H140613   4.020   1.641   0.556  2.2226 -0.1855  3.3650
 6326TIP3    H240614   3.922   1.701   0.655 -1.1579  0.4963 -0.1825
 6327TIP3   OH240615   0.623   4.807   0.541  0.4113  0.0427 -0.7315
 6327TIP3    H140616   0.650   4.720   0.570  0.0689 -0.5116 -2.0012
 6327TIP3    H240617   0.703   4.848   0.510  0.5601  0.1657 -0.2014
 6328TIP3   OH240618   0.936   4.788   8.250 -0.4420 -0.8237  0.0718
 6328TIP3    H140619   1.018   4.811   8.205 -0.9158  2.6995  0.6702
 6328TIP3    H240620   0.957   4.798   8.343 -2.0212  2.9948  0.2238
 6329TIP3   OH240621   5.059   4.040   3.004 -0.6328  0.2751  0.3996
 6329TIP3    H140622   4.995   4.090   3.056 -0.8074  0.2522  0.2057
 6329TIP3    H240623   5.124   4.106   2.978 -1.9871  0.8817 -1.6938
 6330TIP3   OH240624   6.556   6.138   7.213  0.1118  0.7103 -0.3813
 6330TIP3    H140625   6.504   6.215   7.188  0.2392  0.1467 -2.5915
 6330TIP3    H240626   6.644   6.158   7.183  0.2360 -0.1140 -0.5854
 6331TIP3   OH240627   1.671   5.168   0.624 -0.1332  0.7938 -0.2659
 6331TIP3    H140628   1.606   5.130   0.683  0.3640 -2.3342 -1.5371
 6331TIP3    H240629   1.741   5.200   0.681 -1.7719  2.2811  1.0007
 6332TIP3   OH240630   2.450   2.328   1.906 -0.0229 -0.4456 -0.1753
 6332TIP3    H140631   2.421   2.382   1.979 -0.9006 -0.2036 -0.6882
 6332TIP3    H240632   2.520   2.378   1.865  0.4861 -0.5902  0.4954
 6333TIP3   OH240633   2.033   3.884   0.652 -0.5526 -0.0847 -0.3656
 6333TIP3    H140634   2.005   3.875   0.561  1.9220 -1.3594 -1.1175
 6333TIP3    H240635   2.053   3.977   0.662 -3.8094  0.7066 -0.0476
 6334TIP3   OH240636   3.600   2.385   2.250  0.7991 -0.0509 -0.2461
 6334TIP3    H140637   3.540   2.313   2.267  0.7393 -0.2063 -1.0663
 6334TIP3    H240638   3.650   2.394   2.331  1.5843 -1.7675 -0.4895
 6335TIP3   OH240639   0.036   0.540   0.040 -0.0714 -0.6821  0.0739
 6335TIP3    H140640   0.046   0.630   0.010  2.2388 -0.4991  1.1501
 6335TIP3    H240641   0.065   0.542   0.131 -0.9899 -2.3285  0.4370
 6336TIP3   OH240642   2.072   6.745   7.733 -0.1967  0.4602 -0.6261
 6336TIP3    H140643   2.002   6.694   7.694  0.8416 -1.0623 -0.5869
 6336TIP3    H240644   2.139   6.750   7.665  0.5416  0.0293  0.0501
 6337TIP3   OH240645   5.653   2.405   2.824  0.2595  0.2296 -0.2979
 6337TIP3    H140646   5.656   2.312   2.799  0.9932  0.4202 -0.9682
 6337TIP3    H240647   5.575   2.412   2.879  0.3995 -0.8593  0.0758
 6338TIP3   OH240648   4.388   1.591   1.105  0.3483 -0.2003 -0.0511
 6338TIP3    H140649   4.350   1.673   1.140  2.6265  0.1240  1.9090
 6338TIP3    H240650   4.358   1.588   1.014 -0.3146  2.5179 -0.0170
 6339TIP3   OH240651   4.656   2.195   8.287  0.6737 -0.1800 -0.0394
 6339TIP3    H140652   4.587   2.215   8.225  0.9314 -0.8896 -0.5731
 6339TIP3    H240653   4.723   2.151   8.234  1.2407 -0.0856  0.5908
 6340TIP3   OH240654   2.726   2.823   0.698  0.2008  0.1932  0.3454
 6340TIP3    H140655   2.775   2.873   0.632 -1.0930 -1.7780 -2.3031
 6340TIP3    H240656   2.634   2.845   0.681 -0.1263  0.7455  2.5408
 6341TIP3   OH240657   1.953   3.198   1.333  0.1859 -0.3986  0.2568
 6341TIP3    H140658   2.012   3.273   1.324 -1.0856  0.5850 -0.0372
 6341TIP3    H240659   1.978   3.159   1.417  1.5641 -0.3063 -0.0737
 6342TIP3   OH240660   6.824   4.026   7.229  0.3633 -0.3191  0.5868
 6342TIP3    H140661   6.745   4.070   7.199  0.5906 -0.2246  0.1124
 6342TIP3    H240662   6.867   4.089   7.287  0.2292 -0.2654  0.6274
 6343TIP3   OH240663   0.717   4.203   0.804 -0.7864 -0.0935  0.0743
 6343TIP3    H140664   0.670   4.284   0.786 -3.4621 -1.5331  0.1211
 6343TIP3    H240665   0.700   4.184   0.896  0.0868 -0.5492  0.1528
 6344TIP3   OH240666   6.301   2.482   7.898  0.2790  0.3091  0.3969
 6344TIP3    H140667   6.237   2.497   7.829  2.0109  1.2674 -1.0916
 6344TIP3    H240668   6.255   2.428   7.963 -1.1092 -1.5526 -1.9700
 6345TIP3   OH240669   3.150   6.639   2.559  0.7208 -0.0076 -0.8123
 6345TIP3    H140670   3.073   6.673   2.604  0.0257 -0.9749 -1.2363
 6345TIP3    H240671   3.154   6.686   2.477  1.5627  1.2301 -0.0997
 6346TIP3   OH240672   2.085   2.849   7.300 -0.1895  0.2524  0.2475
 6346TIP3    H140673   2.067   2.926   7.354 -1.5428 -0.1961  0.4733
 6346TIP3    H240674   2.051   2.873   7.213  1.8971  0.9391 -0.4530
 6347TIP3   OH240675   4.551   4.231   0.764 -0.2951  0.3669 -0.9483
 6347TIP3    H140676   4.512   4.311   0.801  0.4434 -0.0493  0.8315
 6347TIP3    H240677   4.625   4.263   0.712  0.1283  0.8529 -0.0755
 6348TIP3   OH240678   5.086   4.944   0.723  0.2259 -0.4148 -0.1685
 6348TIP3    H140679   5.079   4.963   0.817  0.1399  1.7635 -0.5707
 6348TIP3    H240680   5.176   4.966   0.701 -0.0765  0.1995 -0.8170
 6349TIP3   OH240681   4.599   6.528   2.230 -0.4368  0.0410 -0.0285
 6349TIP3    H140682   4.673   6.587   2.223 -0.1177 -0.3608 -0.0776
 6349TIP3    H240683   4.637   6.444   2.256 -0.9310 -0.0249  0.5111
 6350TIP3   OH240684   6.216   4.339   0.739 -0.0819  0.3923 -0.1653
 6350TIP3    H140685   6.121   4.352   0.735 -0.1746 -0.0352  0.6109
 6350TIP3    H240686   6.232   4.301   0.825  0.8685  1.0255 -0.0481
 6351TIP3   OH240687   6.473   1.049   8.213 -0.3191 -0.6638  0.1199
 6351TIP3    H140688   6.408   1.051   8.143  0.0347 -1.5470 -0.2503
 6351TIP3    H240689   6.549   1.095   8.178 -0.3110 -0.6952  0.0960
 6352TIP3   OH240690   6.706   1.459   7.979  0.3067 -0.0367 -0.0362
 6352TIP3    H140691   6.765   1.507   7.921 -0.3215  1.7600  0.6992
 6352TIP3    H240692   6.618   1.483   7.949 -0.0272  0.6562  1.3689
 6353TIP3   OH240693   1.818   6.213   0.420  0.4623 -0.3732  0.1073
 6353TIP3    H140694   1.910   6.190   0.409  1.0964  1.4013  1.3161
 6353TIP3    H240695   1.808   6.228   0.514 -1.3282 -1.5045  0.1400
 6354TIP3   OH240696   6.118   1.054   0.467  0.6062 -0.5740 -0.1443
 6354TIP3    H140697   6.083   1.058   0.378  1.1795  0.3217 -0.3411
 6354TIP3    H240698   6.074   0.978   0.506  0.9522 -1.4943 -1.4457
 6355TIP3   OH240699   6.217   4.267   3.682  0.4025  0.5124  0.1361
 6355TIP3    H140700   6.152   4.251   3.751 -0.7444  0.5065 -0.9180
 6355TIP3    H240701   6.273   4.336   3.717 -0.8248  1.2803  0.6489
 6356TIP3   OH240702   6.677   1.337   8.418  0.3088 -0.4910 -0.3991
 6356TIP3    H140703   6.729   1.287   8.356  0.0415 -2.9116  1.2191
 6356TIP3    H240704   6.693   1.297   8.503  0.1290  2.2652  1.0806
 6357TIP3   OH240705   2.480   0.202   1.146 -0.2842 -0.5339 -0.1473
 6357TIP3    H140706   2.528   0.181   1.066  2.9615  0.7205  1.3012
 6357TIP3    H240707   2.396   0.235   1.115  0.6796 -0.4603 -2.9986
 6358TIP3   OH240708   5.381   6.327   1.434  0.3467  0.1078 -0.2315
 6358TIP3    H140709   5.308   6.272   1.408  0.1433  0.0105  0.5050
 6358TIP3    H240710   5.393   6.389   1.362 -0.1728 -0.1599 -0.5465
 6359TIP3   OH240711   0.084   3.621   8.380  0.6150  0.6917 -0.7203
 6359TIP3    H140712   0.079   3.554   8.447  0.0531  1.1248 -0.3232
 6359TIP3    H240713   0.016   3.598   8.317 -0.6130  1.7056  0.1872
 6360TIP3   OH240714   3.672   4.728   7.764  0.8505  0.3447  0.3547
 6360TIP3    H140715   3.703   4.756   7.850  1.0272 -0.3523  0.5236
 6360TIP3    H240716   3.725   4.778   7.702  0.0425  1.6050  0.6306
 6361TIP3   OH240717   0.193   5.188   8.461  0.2627  0.2341 -0.0792
 6361TIP3    H140718   0.144   5.228   8.389  0.4809  0.9037  0.1437
 6361TIP3    H240719   0.210   5.098   8.430 -0.9297  0.0413 -0.2351
 6362TIP3   OH240720   0.786   1.350   0.902  0.3876  0.3460 -0.2583
 6362TIP3    H140721   0.741   1.295   0.838  0.9288 -0.1082 -0.2454
 6362TIP3    H240722   0.741   1.331   0.984  0.5786 -0.0875 -0.2509
 6363TIP3   OH240723   2.563   4.114   2.499 -0.1099  0.2781 -0.2284
 6363TIP3    H140724   2.562   4.094   2.592  1.3600  0.7154 -0.0968
 6363TIP3    H240725   2.612   4.042   2.459  0.6154  0.8839 -0.4490
 6364TIP3   OH240726   4.262   4.012   0.870  0.3738  0.3144 -0.1655
 6364TIP3    H140727   4.244   3.973   0.784 -1.9690  0.0769  0.3713
 6364TIP3    H240728   4.279   4.104   0.852  1.5353 -0.0490 -1.0232
 6365TIP3   OH240729   2.531   3.220   0.449  0.0742  0.0778  0.0330
 6365TIP3    H140730   2.515   3.261   0.364 -0.2347 -0.7806 -0.3390
 6365TIP3    H240731   2.457   3.161   0.462  1.1013 -1.3024 -0.0551
 6366TIP3   OH240732   2.588   6.762   2.183  0.5453 -0.4517 -0.0550
 6366TIP3    H140733   2.582   6.813   2.103  2.4584 -0.1890 -0.0801
 6366TIP3    H240734   2.641   6.815   2.242 -0.4581 -0.8300  1.2595
 6367TIP3   OH240735   6.536   3.870   3.684  0.1385 -0.6260 -0.1353
 6367TIP3    H140736   6.490   3.864   3.600  1.4652  0.2828 -0.9572
 6367TIP3    H240737   6.549   3.964   3.697  0.5016 -0.7978  0.7898
 6368TIP3   OH240738   1.278   2.140   3.556  0.1505  0.5091 -0.5840
 6368TIP3    H140739   1.348   2.193   3.592 -0.1034  0.8083 -0.5305
 6368TIP3    H240740   1.316   2.100   3.478 -0.2369  2.2992 -1.7341
 6369TIP3   OH240741   2.560   5.439   3.696  0.2115  0.3199 -0.4914
 6369TIP3    H140742   2.470   5.435   3.664  0.3015 -0.0116 -0.7108
 6369TIP3    H240743   2.610   5.385   3.635  0.6637  0.9856 -0.7210
 6370TIP3   OH240744   6.275   1.009   0.026  0.2464  0.2584 -0.4612
 6370TIP3    H140745   6.277   1.020  -0.069  1.4736 -1.0741 -0.6073
 6370TIP3    H240746   6.297   1.096   0.061  1.9928  0.2343 -1.4355
 6371TIP3   OH240747   2.235   0.393   2.286 -0.0567 -0.3756  0.0091
 6371TIP3    H140748   2.167   0.377   2.221 -0.8325  1.0321  0.4199
 6371TIP3    H240749   2.189   0.435   2.359  1.0617 -0.4701  0.7983
 6372TIP3   OH240750   3.653   1.764   8.624 -0.6769  0.5688 -0.3028
 6372TIP3    H140751   3.641   1.703   8.551 -0.2142 -0.4867  0.4803
 6372TIP3    H240752   3.630   1.850   8.587  1.3454  0.3843 -2.2304
 6373TIP3   OH240753   4.334   3.167   2.334  0.6253  0.2046 -0.2864
 6373TIP3    H140754   4.396   3.137   2.401 -0.2380 -0.7540  0.1061
 6373TIP3    H240755   4.371   3.136   2.251  0.2302 -1.1634  0.0283
 6374TIP3   OH240756   3.868   1.760   1.846  0.5365 -0.1288 -0.5812
 6374TIP3    H140757   3.807   1.715   1.906  0.2927 -1.1506 -1.5627
 6374TIP3    H240758   3.955   1.737   1.879  0.4542  1.5916  1.0183
 6375TIP3   OH240759   0.132   2.099   2.251 -0.2424 -0.2716 -0.7917
 6375TIP3    H140760   0.168   2.103   2.163  1.3802  1.9605 -0.0976
 6375TIP3    H240761   0.178   2.167   2.300 -0.9080 -1.5748  1.8706
 6376TIP3   OH240762   2.604   3.667   0.260 -0.4690 -0.0910 -0.4039
 6376TIP3    H140763   2.615   3.660   0.166 -0.5265 -1.3002 -0.3368
 6376TIP3    H240764   2.690   3.648   0.297 -0.7149 -0.8324 -0.1844
 6377TIP3   OH240765   6.240   4.752   7.295  0.1204 -0.3732 -0.3167
 6377TIP3    H140766   6.303   4.728   7.227 -2.0809 -0.2206 -2.5803
 6377TIP3    H240767   6.195   4.829   7.259 -1.1349 -0.2751  1.3339
 6378TIP3   OH240768   4.612   2.081   3.502  0.0968 -0.1530 -0.4718
 6378TIP3    H140769   4.612   1.987   3.519  0.3544 -0.1768 -0.5884
 6378TIP3    H240770   4.525   2.111   3.528  0.3975 -0.2253  0.6454
 6379TIP3   OH240771   0.225   5.847   3.141 -0.1039 -0.4430 -0.2759
 6379TIP3    H140772   0.234   5.788   3.067 -0.9555 -0.7030 -0.1848
 6379TIP3    H240773   0.134   5.838   3.168  0.2602 -0.5521  0.9775
 6380TIP3   OH240774   5.519   3.094   1.346  0.1140  0.3241 -0.6365
 6380TIP3    H140775   5.455   3.162   1.368  0.5237  1.0575 -1.6163
 6380TIP3    H240776   5.488   3.059   1.262 -0.4222 -1.1435  0.1441
 6381TIP3   OH240777   0.012   1.640   2.610 -0.2511 -0.3073 -0.0978
 6381TIP3    H140778  -0.021   1.637   2.521 -1.5505  2.0024  0.2269
 6381TIP3    H240779   0.065   1.720   2.614 -0.1545 -0.4039  1.1818
 6382TIP3   OH240780   1.468   1.238   2.987 -0.5740 -0.0853 -0.1441
 6382TIP3    H140781   1.537   1.196   3.039 -0.5602  1.3355  1.0574
 6382TIP3    H240782   1.509   1.317   2.952 -1.4525  0.5546  0.2340
 6383TIP3   OH240783   0.644   3.011   2.140 -0.2508 -0.1966  0.0758
 6383TIP3    H140784   0.595   3.009   2.058 -0.6598 -0.2481  0.3196
 6383TIP3    H240785   0.579   3.038   2.206  0.1984  0.3768  0.2922
 6384TIP3   OH240786   1.943   3.813   0.915 -0.0173 -0.0990  0.4638
 6384TIP3    H140787   2.008   3.853   0.973 -0.7060 -0.3869  1.4652
 6384TIP3    H240788   1.968   3.841   0.827 -0.4346  2.5049  1.1043
 6385TIP3   OH240789   4.168   4.905   2.630  0.5807  0.1162  0.2466
 6385TIP3    H140790   4.196   4.995   2.642 -0.2732  0.6800 -1.6345
 6385TIP3    H240791   4.248   4.853   2.640  1.8227  1.4023 -2.0708
 6386TIP3   OH240792   4.031   0.351   8.274  0.2446 -0.2251 -0.1263
 6386TIP3    H140793   3.995   0.297   8.345 -0.1577  0.9088  0.5520
 6386TIP3    H240794   3.969   0.340   8.202 -1.7819  1.9896  1.1424
 6387TIP3   OH240795   3.642   2.200   0.165  0.1860  0.6043  0.2162
 6387TIP3    H140796   3.567   2.151   0.201 -0.0436  0.3019 -0.6528
 6387TIP3    H240797   3.621   2.292   0.182 -1.9298  0.7973 -2.7410
 6388TIP3   OH240798   6.768   6.550   8.603 -0.4119 -0.2124 -0.0033
 6388TIP3    H140799   6.840   6.606   8.632 -0.3303  0.5384 -1.5425
 6388TIP3    H240800   6.713   6.540   8.680 -0.7270  2.4733  0.2333
 6389TIP3   OH240801   6.557   0.321   1.587 -0.1563  0.2254  0.2717
 6389TIP3    H140802   6.542   0.372   1.667 -3.7161  0.6269 -0.4642
 6389TIP3    H240803   6.551   0.230   1.615 -2.6783  0.3521  0.4350
 6390TIP3   OH240804   3.017   1.505   3.295 -0.3919  0.4216 -0.1647
 6390TIP3    H140805   2.942   1.562   3.277 -1.0003  0.2422  1.6568
 6390TIP3    H240806   2.992   1.421   3.258 -1.1925  0.3074  0.6040
 6391TIP3   OH240807   3.065   0.580   0.430 -0.4574  0.1680 -0.0790
 6391TIP3    H140808   3.132   0.585   0.362  0.4505 -0.6761  0.7255
 6391TIP3    H240809   3.026   0.667   0.433 -0.9701  0.0665 -2.1056
 6392TIP3   OH240810   1.474   1.737   1.802 -0.8021 -0.2257 -1.0024
 6392TIP3    H140811   1.432   1.743   1.716 -1.5062  2.5744 -0.5386
 6392TIP3    H240812   1.557   1.782   1.791 -0.3888 -0.8388 -0.4641
 6393TIP3   OH240813   3.550   4.198   2.572  0.3918  0.1347 -0.0197
 6393TIP3    H140814   3.615   4.245   2.519 -1.3920  0.3754 -2.1178
 6393TIP3    H240815   3.600   4.128   2.615  2.5433  2.0576  0.7853
 6394TIP3   OH240816   5.493   1.366   2.204  0.8231  0.2054 -0.2950
 6394TIP3    H140817   5.422   1.383   2.266 -0.7667 -0.3618 -1.8487
 6394TIP3    H240818   5.537   1.289   2.238  0.5091  0.3975  0.5655
 6395TIP3   OH240819   3.326   0.669   1.336  0.5630  0.7253  0.1614
 6395TIP3    H140820   3.328   0.584   1.379  2.2572  0.8616  0.4053
 6395TIP3    H240821   3.303   0.650   1.245  0.3511  0.0891  0.3468
 6396TIP3   OH240822   0.951   5.759   0.688  0.0001 -0.1351 -0.2525
 6396TIP3    H140823   0.944   5.669   0.721  0.3150 -0.2150 -0.4045
 6396TIP3    H240824   0.865   5.797   0.706  0.9967  0.7386  3.2186
 6397TIP3   OH240825   5.425   2.833   0.626 -0.0074  0.1742  0.3369
 6397TIP3    H140826   5.342   2.785   0.631  0.0921  0.0736  1.2349
 6397TIP3    H240827   5.405   2.909   0.571 -0.4662 -0.2954 -0.1572
 6398TIP3   OH240828   5.624   5.119   1.645  0.3111 -0.1037  0.0654
 6398TIP3    H140829   5.604   5.026   1.653  1.1292 -0.1806  1.6354
 6398TIP3    H240830   5.623   5.136   1.551  0.9488 -1.8772 -0.2969
 6399TIP3   OH240831   5.169   4.269   2.033 -0.1594 -0.4194 -0.0136
 6399TIP3    H140832   5.187   4.180   2.005 -1.3341 -0.7712  0.2578
 6399TIP3    H240833   5.082   4.264   2.073  0.2037  0.6341  0.9744
 6400TIP3   OH240834   1.040   3.651   0.625 -0.4686 -0.4493 -0.1282
 6400TIP3    H140835   0.963   3.708   0.636 -0.3065  0.2034 -1.9239
 6400TIP3    H240836   1.006   3.572   0.583 -0.1596 -0.0459 -1.1822
 6401TIP3   OH240837   3.748   0.883   0.680 -0.4274  0.2774 -0.2361
 6401TIP3    H140838   3.796   0.883   0.763 -0.2355 -0.1059 -0.3448
 6401TIP3    H240839   3.754   0.973   0.648 -0.4648  0.4176  0.1433
 6402TIP3   OH240840   0.315   5.835   2.087  1.0689 -0.1784 -0.1912
 6402TIP3    H140841   0.270   5.803   2.009 -3.0467 -2.0569  2.6031
 6402TIP3    H240842   0.288   5.926   2.096  0.5534 -0.3185 -0.3120
 6403TIP3   OH240843   1.730   0.654   1.952  0.2507 -0.4466  0.2327
 6403TIP3    H140844   1.659   0.591   1.940  0.2359 -0.5704  0.9377
 6403TIP3    H240845   1.687   0.739   1.958  0.1588 -0.5159  0.6005
 6404TIP3   OH240846   5.686   5.661   3.233  0.6227  0.0730  0.3258
 6404TIP3    H140847   5.712   5.570   3.226  2.6807  0.5696  0.9252
 6404TIP3    H240848   5.629   5.664   3.311 -1.6393 -1.0726 -1.1573
 6405TIP3   OH240849   6.285   3.622   1.189 -0.1355 -0.7720 -0.4515
 6405TIP3    H140850   6.272   3.647   1.281  0.8142  2.8255 -1.1306
 6405TIP3    H240851   6.368   3.574   1.188  0.7579  0.6824  0.3981
 6406TIP3   OH240852   6.595   0.984   2.447  0.5499  0.4008 -0.6805
 6406TIP3    H140853   6.622   0.975   2.538 -0.3539 -3.0006 -0.6085
 6406TIP3    H240854   6.666   0.944   2.397  0.7128  1.5988 -1.4434
 6407TIP3   OH240855   6.325   2.999   2.191 -0.0846 -0.6145 -0.5274
 6407TIP3    H140856   6.267   2.989   2.115 -1.7353  0.2655  0.5809
 6407TIP3    H240857   6.316   3.090   2.217  1.4453 -0.5828  0.0037
 6408TIP3   OH240858   0.409   0.051   0.582 -0.4962 -0.1993 -0.1329
 6408TIP3    H140859   0.423   0.045   0.677 -1.1367  3.7901  0.3616
 6408TIP3    H240860   0.357   0.130   0.570  0.9642  0.3739 -3.9739
 6409TIP3   OH240861   3.209   5.667   2.971  0.1666 -0.0539  0.0989
 6409TIP3    H140862   3.270   5.623   3.029  0.9049 -0.5330 -0.9950
 6409TIP3    H240863   3.138   5.605   2.958  0.5451 -0.4023 -0.3644
 6410TIP3   OH240864   5.144   6.639   2.124 -0.0413  0.0257 -0.1845
 6410TIP3    H140865   5.116   6.714   2.072  0.2616 -0.5518 -1.2082
 6410TIP3    H240866   5.111   6.563   2.076  0.1202 -0.5246  0.5535
 6411TIP3   OH240867   6.093   5.112   7.573  0.2797 -0.2982 -0.8791
 6411TIP3    H140868   6.137   5.145   7.495  0.5587 -1.1137 -1.0753
 6411TIP3    H240869   6.003   5.142   7.565  0.0475 -1.2290 -2.0382
 6412TIP3   OH240870   3.991   3.226   0.982 -0.0873 -0.4940 -0.3758
 6412TIP3    H140871   4.074   3.241   1.027 -0.4866 -0.5303  0.4039
 6412TIP3    H240872   3.931   3.200   1.052 -0.7580 -0.4540 -0.9259
 6413TIP3   OH240873   6.137   1.469   1.059 -0.0424 -0.4952 -0.6255
 6413TIP3    H140874   6.126   1.485   1.153 -1.5028 -0.6744 -0.7438
 6413TIP3    H240875   6.048   1.474   1.023  0.5473  0.1685 -2.0987
 6414TIP3   OH240876   6.017   3.931   8.506 -0.1239 -0.2671  0.2298
 6414TIP3    H140877   5.958   3.872   8.459  0.6288 -0.1319 -0.9115
 6414TIP3    H240878   5.965   4.009   8.522 -1.2152 -1.2706  1.9630
 6415TIP3   OH240879   3.506   5.581   1.166  0.3198  0.0218 -0.6522
 6415TIP3    H140880   3.477   5.612   1.251 -0.8127 -0.8785 -0.6984
 6415TIP3    H240881   3.599   5.559   1.179 -0.2513 -1.7743  0.8409
 6416TIP3   OH240882   6.517   6.034   0.357 -0.1850  0.1602  0.1120
 6416TIP3    H140883   6.570   5.973   0.408  2.1641  3.0781  1.4648
 6416TIP3    H240884   6.457   6.074   0.421 -0.7518  0.2664 -0.4680
 6417TIP3   OH240885   2.757   4.719   0.261 -0.2806 -0.3301 -0.5963
 6417TIP3    H140886   2.708   4.801   0.272 -2.0635 -1.1557 -1.9312
 6417TIP3    H240887   2.732   4.666   0.337 -0.2529 -0.1790 -0.4806
 6418TIP3   OH240888   1.826   4.384   8.018  0.1171 -0.0674  0.0806
 6418TIP3    H140889   1.767   4.412   8.088 -1.1817  0.1518 -1.0390
 6418TIP3    H240890   1.862   4.465   7.983 -0.1960 -0.0802 -0.2841
 6419TIP3   OH240891   2.831   1.591   0.368  0.0953  0.1408  0.6632
 6419TIP3    H140892   2.844   1.496   0.364 -1.1806 -0.0143 -1.0839
 6419TIP3    H240893   2.737   1.603   0.358  0.2935  1.6191  0.3131
 6420TIP3   OH240894   2.904   6.539   0.742  0.2517  0.6366  0.1847
 6420TIP3    H140895   2.984   6.534   0.690  0.3625  0.9599  0.3221
 6420TIP3    H240896   2.925   6.599   0.813 -0.1509  0.8167  0.1551
 6421TIP3   OH240897   1.866   2.204   8.243  0.3658 -0.0634 -0.4348
 6421TIP3    H140898   1.946   2.251   8.264  1.2582 -2.4652  2.1640
 6421TIP3    H240899   1.806   2.225   8.316 -1.0040  0.7539 -1.7296
 6422TIP3   OH240900   4.142   1.556   2.757 -0.4908 -0.0291 -0.4097
 6422TIP3    H140901   4.150   1.499   2.834 -0.3418  1.8265  1.0040
 6422TIP3    H240902   4.183   1.638   2.783 -1.2326  0.9601 -2.1841
 6423TIP3   OH240903   4.694   2.146   0.954 -0.4157 -0.1616  0.9165
 6423TIP3    H140904   4.666   2.203   0.882 -1.0672  0.2144  1.4581
 6423TIP3    H240905   4.789   2.159   0.959 -0.1733 -1.0998 -0.6401
 6424TIP3   OH240906   2.923   2.441   1.363 -0.1221  0.5726  0.5940
 6424TIP3    H140907   2.993   2.377   1.376  0.5223  1.1807  0.1800
 6424TIP3    H240908   2.967   2.526   1.368 -0.7517  0.9519 -0.1424
 6425TIP3   OH240909   2.271   1.330   1.766 -0.0940  0.0295 -0.0968
 6425TIP3    H140910   2.279   1.246   1.722 -0.2522  0.2726 -0.5940
 6425TIP3    H240911   2.300   1.313   1.856 -1.7672 -0.9513  0.2898
 6426TIP3   OH240912   2.971   3.964   8.033 -0.5638  0.3412  0.4255
 6426TIP3    H140913   2.986   3.897   8.099 -0.7186 -0.2155 -0.0935
 6426TIP3    H240914   3.010   3.928   7.953 -1.5314  0.4284 -0.1018
 6427TIP3   OH240915   3.841   5.937   0.398 -0.5012  0.1546  0.5127
 6427TIP3    H140916   3.778   5.898   0.338  0.1091  0.3295 -0.2522
 6427TIP3    H240917   3.925   5.932   0.352  0.0254  0.0660  1.4465
 6428TIP3   OH240918   1.349   5.701   1.356  0.0755  0.5588 -0.3092
 6428TIP3    H140919   1.343   5.785   1.400  2.3740  0.4506  0.3237
 6428TIP3    H240920   1.270   5.654   1.382 -0.7960  2.1609  0.0359
 6429TIP3   OH240921   3.681   0.424   1.951 -0.4111  0.4317 -0.1474
 6429TIP3    H140922   3.722   0.386   1.873 -2.1920 -0.3163 -0.7915
 6429TIP3    H240923   3.720   0.377   2.024  2.7210  2.4623 -0.3445
 6430TIP3   OH240924   0.588   3.728   0.865 -0.2771  0.5513 -0.3191
 6430TIP3    H140925   0.604   3.805   0.810  1.0186  0.5730  0.0400
 6430TIP3    H240926   0.493   3.715   0.862 -0.2547  0.5223 -2.5684
 6431TIP3   OH240927   6.811   3.499   8.235 -0.8535  0.0983 -0.6683
 6431TIP3    H140928   6.760   3.446   8.296 -2.2797 -0.7886 -2.5245
 6431TIP3    H240929   6.747   3.530   8.171  0.4242  1.7871 -1.2145
 6432TIP3   OH240930   3.376   2.765   2.678 -0.1704  0.1144  0.2316
 6432TIP3    H140931   3.333   2.803   2.755 -0.0858  0.5747  0.0558
 6432TIP3    H240932   3.426   2.691   2.713 -1.7230 -0.9285  0.3299
 6433TIP3   OH240933   3.174   2.969   2.061  0.1022 -0.0010 -0.0033
 6433TIP3    H140934   3.209   3.039   2.007 -1.2542  0.7590  0.0702
 6433TIP3    H240935   3.251   2.934   2.107  0.9639  0.6645 -0.8922
 6434TIP3   OH240936   6.772   2.853   0.635 -0.5052 -0.1405 -0.2814
 6434TIP3    H140937   6.717   2.931   0.625  0.3443  0.5854  0.5915
 6434TIP3    H240938   6.721   2.794   0.691 -0.6662  0.2519 -0.0180
 6435TIP3   OH240939   1.402   6.768   2.902  0.2483  0.7332  0.1514
 6435TIP3    H140940   1.352   6.793   2.980  0.2730 -1.4606  0.9577
 6435TIP3    H240941   1.385   6.674   2.893  2.1835  0.4644 -1.0815
 6436TIP3   OH240942   5.673   6.893   2.361 -0.4504  0.8111  0.3336
 6436TIP3    H140943   5.740   6.860   2.421 -1.6392  1.1828  1.9389
 6436TIP3    H240944   5.650   6.818   2.306  1.9315  0.9223 -0.9338
 6437TIP3   OH240945   2.345   3.825   0.246 -0.4557  0.6203  0.1929
 6437TIP3    H140946   2.434   3.796   0.268 -0.1563  0.0640 -1.5506
 6437TIP3    H240947   2.291   3.746   0.253 -0.4723  0.5749 -0.3963
 6438TIP3   OH240948   5.551   3.204   0.193  0.1583 -0.6098 -0.5768
 6438TIP3    H140949   5.578   3.240   0.109 -0.9607 -0.3789 -0.8654
 6438TIP3    H240950   5.551   3.109   0.180 -2.9043 -0.5822 -1.8967
 6439TIP3   OH240951   1.985   6.012   8.222  0.3162 -0.7164  0.1287
 6439TIP3    H140952   1.998   6.081   8.287 -0.6477 -0.7762  0.4095
 6439TIP3    H240953   1.993   6.056   8.137  0.4676 -0.4167  0.2985
 6440TIP3   OH240954   6.430   1.715   1.863 -0.3483  0.2792  0.1760
 6440TIP3    H140955   6.380   1.687   1.940 -0.7417  1.3479  0.3289
 6440TIP3    H240956   6.369   1.768   1.812  0.5737  1.5075  0.3101
 6441TIP3   OH240957   2.781   3.095   0.199  0.3319 -0.0378  0.1582
 6441TIP3    H140958   2.805   3.106   0.107  0.4756  0.7189  0.2784
 6441TIP3    H240959   2.791   3.182   0.237  2.0040 -0.6640  1.2987
 6442TIP3   OH240960   4.842   5.385   1.334 -0.4760  0.3302 -0.3864
 6442TIP3    H140961   4.846   5.441   1.256  0.7365  0.5978 -0.1564
 6442TIP3    H240962   4.932   5.354   1.346 -0.6276  0.3395  0.9408
 6443TIP3   OH240963   6.852   1.598   7.358 -0.2653  0.2003 -0.0129
 6443TIP3    H140964   6.906   1.604   7.279  0.4848 -3.0530  0.0772
 6443TIP3    H240965   6.903   1.642   7.426  1.6158 -1.3433 -0.3197
 6444TIP3   OH240966   6.756   4.983   2.908 -0.2236  0.3174 -0.1577
 6444TIP3    H140967   6.677   4.988   2.962 -0.9259  0.7321 -1.1866
 6444TIP3    H240968   6.802   5.066   2.925 -0.5819  0.5679 -0.4032
 6445TIP3   OH240969   1.243   6.398   3.212  0.5637 -0.3855  0.1936
 6445TIP3    H140970   1.198   6.478   3.186  1.0917 -0.0669  0.2358
 6445TIP3    H240971   1.336   6.417   3.196  0.7700 -0.6798  1.0139
 6446TIP3   OH240972   5.702   2.517   1.381  0.4378 -0.8493 -1.1328
 6446TIP3    H140973   5.671   2.602   1.349 -0.3481 -1.0504 -0.9334
 6446TIP3    H240974   5.635   2.455   1.352 -0.7560 -0.9362  1.4993
 6447TIP3   OH240975   5.425   4.001   1.145 -0.2277  0.0019 -0.9323
 6447TIP3    H140976   5.487   4.069   1.169 -1.5559  1.2345 -0.8357
 6447TIP3    H240977   5.370   3.990   1.223 -0.6122 -0.5117 -1.2665
 6448TIP3   OH240978   2.212   1.940   7.026 -0.1214 -0.1344  0.1299
 6448TIP3    H140979   2.303   1.913   7.038 -0.2836 -1.3094 -1.0165
 6448TIP3    H240980   2.208   1.972   6.936 -1.1312 -1.5660 -0.3837
 6449TIP3   OH240981   2.052   2.630   1.955  0.2255 -0.3806  0.3871
 6449TIP3    H140982   2.070   2.688   1.881 -0.1541 -0.9984 -0.1962
 6449TIP3    H240983   2.013   2.687   2.021  0.1125  0.0873 -0.0779
 6450TIP3   OH240984   5.175   0.140   1.288  0.5384 -0.0638  0.7396
 6450TIP3    H140985   5.232   0.142   1.211  0.3320 -0.6530  0.5627
 6450TIP3    H240986   5.227   0.179   1.358  1.0315 -0.2804  0.4974
 6451TIP3   OH240987   3.102   6.197   2.250  0.2278 -0.4246 -0.3982
 6451TIP3    H140988   3.112   6.193   2.345  0.1736  2.9936 -0.1133
 6451TIP3    H240989   3.170   6.140   2.216  3.0817  1.4705  1.7213
 6452TIP3   OH240990   5.125   4.694   0.170 -0.5191  0.3974 -0.4128
 6452TIP3    H140991   5.032   4.700   0.146 -0.7880  0.6048  0.6575
 6452TIP3    H240992   5.135   4.604   0.203 -0.1859  0.1690 -1.1019
 6453TIP3   OH240993   1.913   1.089   2.403  0.7368  0.2046  0.3972
 6453TIP3    H140994   1.872   1.142   2.471  1.2424 -0.1258  0.9721
 6453TIP3    H240995   1.840   1.050   2.355  0.3754 -0.3488  1.3754
 6454TIP3   OH240996   5.942   0.013   2.997  0.1251  0.0166  0.2759
 6454TIP3    H140997   6.019   0.054   3.035 -0.1923  1.1955 -0.3124
 6454TIP3    H240998   5.960  -0.081   3.001  0.0928  0.0449  3.3444
 6455TIP3   OH240999   5.693   0.693   1.066  0.1180  0.2571  0.3759
 6455TIP3    H141000   5.736   0.747   0.999 -0.7392  2.8008  1.7588
 6455TIP3    H241001   5.736   0.718   1.148 -0.7303 -0.7534  1.1526
 6456TIP3   OH241002   2.637   2.477   1.779  0.0841 -0.3382  0.1404
 6456TIP3    H141003   2.634   2.469   1.684  1.2654  1.1450 -0.0732
 6456TIP3    H241004   2.727   2.456   1.802  0.1836  0.6607  0.7481
 6457TIP3   OH241005   2.718   6.162   8.436 -0.2052 -0.1009  0.5444
 6457TIP3    H141006   2.777   6.092   8.407 -1.5080 -0.8662 -0.4013
 6457TIP3    H241007   2.712   6.151   8.531  0.1236 -0.8660  0.4838
 6458TIP3   OH241008   4.871   1.846   8.586  0.0309 -0.3740 -0.3516
 6458TIP3    H141009   4.942   1.901   8.553  0.7750 -0.6841  0.6617
 6458TIP3    H241010   4.879   1.853   8.682 -1.2864 -0.4457 -0.2160
 6459TIP3   OH241011   2.126   2.292   3.240  0.3407  0.4264  0.1448
 6459TIP3    H141012   2.125   2.277   3.334 -0.7526  2.7610  0.5816
 6459TIP3    H241013   2.053   2.352   3.224 -0.9576 -1.6205 -2.5463
 6460TIP3   OH241014   5.362   0.112   3.564  0.4386  0.2628  0.5224
 6460TIP3    H141015   5.274   0.139   3.588 -0.5668 -1.3527 -1.1055
 6460TIP3    H241016   5.399   0.187   3.518 -2.3674 -0.7908 -4.1523
 6461TIP3   OH241017   1.972   6.281   2.422 -0.2613 -0.4247  0.3086
 6461TIP3    H141018   1.965   6.301   2.329 -0.2505 -0.2401  0.3467
 6461TIP3    H241019   2.034   6.346   2.456 -0.4864 -0.3072  0.4982
 6462TIP3   OH241020   2.758   0.022   2.813 -0.2746 -0.2162 -0.2016
 6462TIP3    H141021   2.696   0.079   2.768 -0.5818 -0.5580 -0.2166
 6462TIP3    H241022   2.703  -0.046   2.854  0.1421 -0.9485 -0.8290
 6463TIP3   OH241023   0.307   3.235   3.428 -0.5708 -0.1083  0.9817
 6463TIP3    H141024   0.302   3.151   3.474 -0.0414 -0.5090  0.3379
 6463TIP3    H241025   0.346   3.213   3.344  1.4510  1.0662  1.5474
 6464TIP3   OH241026   1.375   0.244   7.955 -0.1064 -0.3856  0.0093
 6464TIP3    H141027   1.362   0.174   8.018 -0.0521 -0.4710 -0.0745
 6464TIP3    H241028   1.307   0.308   7.975 -0.1034 -0.4239  0.1388
 6465TIP3   OH241029   4.765   5.556   2.825  0.5673  0.0879  0.4264
 6465TIP3    H141030   4.697   5.565   2.892  1.6014 -0.4297  1.5762
 6465TIP3    H241031   4.717   5.526   2.747 -0.9126  2.3526  0.3682
 6466TIP3   OH241032   2.547   0.123   1.662 -0.5187 -0.5422 -0.6186
 6466TIP3    H141033   2.489   0.199   1.667 -2.5736 -1.9666 -1.3875
 6466TIP3    H241034   2.557   0.107   1.568  1.7576  0.0659 -0.5392
 6467TIP3   OH241035   2.269   4.353   1.776 -0.0229 -0.3379  0.4505
 6467TIP3    H141036   2.189   4.346   1.724  0.2726  0.6580 -0.1742
 6467TIP3    H241037   2.254   4.296   1.852 -0.6675 -1.4432 -0.4692
 6468TIP3   OH241038   4.450   5.777   3.203  0.0070  0.3044  0.1475
 6468TIP3    H141039   4.421   5.743   3.288  0.6127  0.5541  0.4572
 6468TIP3    H241040   4.491   5.860   3.223 -0.8367  0.9050 -0.5337
 6469TIP3   OH241041   5.884   5.520   8.510 -0.0939  0.0885 -0.0576
 6469TIP3    H141042   5.899   5.452   8.444  1.4895 -0.9822  1.3333
 6469TIP3    H241043   5.970   5.535   8.550 -1.1307  0.1075  2.3058
 6470TIP3   OH241044   3.769   0.822   2.437 -0.2254  0.4743 -0.2121
 6470TIP3    H141045   3.738   0.731   2.438 -0.5942  0.5994 -0.2591
 6470TIP3    H241046   3.705   0.870   2.489  0.0120  0.6958 -0.1225
 6471TIP3   OH241047   4.733   5.823   0.109 -0.4520 -0.2021 -0.0952
 6471TIP3    H141048   4.678   5.837   0.187 -0.7202  2.5106 -0.6654
 6471TIP3    H241049   4.678   5.850   0.036  1.0180  0.9392 -0.8436
 6472TIP3   OH241050   0.691   6.838   0.278 -0.4229  0.1501  0.3038
 6472TIP3    H141051   0.764   6.782   0.253 -0.3299 -0.3154  1.5891
 6472TIP3    H241052   0.697   6.846   0.373 -0.9550  1.6289  0.2355
 6473TIP3   OH241053   0.519   5.741   3.047  0.3412 -0.2401  0.0398
 6473TIP3    H141054   0.445   5.695   3.007  1.4008 -1.5668 -0.4645
 6473TIP3    H241055   0.555   5.794   2.976  1.8775 -2.1654 -0.7066
 6474TIP3   OH241056   0.381   3.784   1.476  0.3637  0.0204  0.1927
 6474TIP3    H141057   0.306   3.741   1.518 -0.4820  0.6627 -0.6010
 6474TIP3    H241058   0.348   3.810   1.390  1.1423  1.3652  0.2726
 6475TIP3   OH241059   6.599   6.215   1.163  0.1699  0.1335  0.2689
 6475TIP3    H141060   6.634   6.304   1.171 -1.5572  0.8464  0.4039
 6475TIP3    H241061   6.624   6.187   1.075  1.1899  0.5182  0.4187
 6476TIP3   OH241062   0.564   4.232   0.273  0.0687 -0.1896 -0.3692
 6476TIP3    H141063   0.489   4.291   0.279  1.1610  1.0848  2.2928
 6476TIP3    H241064   0.600   4.248   0.186 -1.1775  1.1149 -0.6849
 6477TIP3   OH241065   2.356   2.456   2.380 -0.1057  0.3847 -0.1795
 6477TIP3    H141066   2.327   2.422   2.295  2.7617  0.0321 -1.1191
 6477TIP3    H241067   2.405   2.535   2.359  0.7356  0.2473  1.1315
 6478TIP3   OH241068   5.655   6.701   7.562 -0.7657 -0.3600  0.5984
 6478TIP3    H141069   5.601   6.738   7.632 -1.7234 -1.5576  0.5322
 6478TIP3    H241070   5.591   6.667   7.499  0.0773  0.4227 -0.7287
 6479TIP3   OH241071   4.088   4.948   0.095  0.0863  0.2781  0.5725
 6479TIP3    H141072   4.183   4.941   0.087 -0.1326 -1.8440 -1.0839
 6479TIP3    H241073   4.066   4.897   0.174  0.2533 -0.1169  0.3666
 6480TIP3   OH241074   6.784   6.176   3.105 -0.5984 -0.2210 -0.5659
 6480TIP3    H141075   6.877   6.170   3.082 -0.3323 -0.3800  0.5136
 6480TIP3    H241076   6.742   6.110   3.049  0.1793 -1.3209  0.0982
 6481TIP3   OH241077   4.391   4.913   1.813  0.6195 -0.5574 -0.1598
 6481TIP3    H141078   4.338   4.841   1.846 -0.8792 -0.0148 -1.2523
 6481TIP3    H241079   4.352   4.992   1.851  1.5840 -0.2258  0.1907
 6482TIP3   OH241080   4.846   1.566   8.557 -0.2495 -0.4693  0.2851
 6482TIP3    H141081   4.802   1.649   8.540 -0.5278 -0.7138 -0.2182
 6482TIP3    H241082   4.775   1.503   8.567 -0.0391 -0.6511  0.6600
 6483TIP3   OH241083   3.503   6.872   1.114 -0.1373  0.0736  0.3052
 6483TIP3    H141084   3.476   6.891   1.204  0.4886  1.1588  0.2737
 6483TIP3    H241085   3.597   6.893   1.112 -0.3712  1.1232 -0.8829
 6484TIP3   OH241086   1.028   3.907   0.861  0.0365  0.0595 -0.3133
 6484TIP3    H141087   1.086   3.899   0.785  0.4517  0.0041  0.0050
 6484TIP3    H241088   1.068   3.850   0.927  1.5131  2.5338  1.0657
 6485TIP3   OH241089   5.177   6.531   1.304  0.3952  0.2212 -0.8424
 6485TIP3    H141090   5.235   6.567   1.237  2.5948  0.7042  1.1690
 6485TIP3    H241091   5.105   6.492   1.255  1.6576  0.9152 -3.4410
 6486TIP3   OH241092   1.804   2.984   2.947 -0.2635 -0.3458 -0.4188
 6486TIP3    H141093   1.800   2.948   3.036 -1.6953 -0.6369 -0.5831
 6486TIP3    H241094   1.897   3.002   2.933  0.2173 -1.9733  0.4696
 6487TIP3   OH241095   4.107   6.782   0.791 -0.0362  0.2088  0.3486
 6487TIP3    H141096   4.166   6.822   0.728 -1.4517  0.9343 -0.5670
 6487TIP3    H241097   4.061   6.856   0.831 -1.0505 -0.3732  0.2939
 6488TIP3   OH241098   0.517   6.513   8.007  0.3085  0.6067 -0.1560
 6488TIP3    H141099   0.542   6.524   7.915 -0.4195 -2.6405 -0.8770
 6488TIP3    H241100   0.593   6.469   8.047 -0.2442 -0.0462  0.1971
 6489TIP3   OH241101   4.225   2.774   2.522  0.1491 -0.1735 -0.2813
 6489TIP3    H141102   4.159   2.720   2.478  0.6673 -0.7275 -0.3971
 6489TIP3    H241103   4.175   2.832   2.579 -0.4755 -0.0944 -0.9011
 6490TIP3   OH241104   2.562   1.665   0.348  0.6408  0.4150 -0.1701
 6490TIP3    H141105   2.500   1.706   0.408 -1.3047 -2.1592 -0.2640
 6490TIP3    H241106   2.538   1.699   0.262  1.0481  1.3226  0.0604
 6491TIP3   OH241107   5.397   3.609   1.593  0.0105 -0.6753 -0.2796
 6491TIP3    H141108   5.428   3.609   1.683  1.1273  0.8227 -0.6239
 6491TIP3    H241109   5.304   3.589   1.599  0.1522 -0.9990  1.1483
 6492TIP3   OH241110   6.805   0.844   1.207  0.4002 -0.3036 -0.2939
 6492TIP3    H141111   6.722   0.876   1.170  0.8862  1.4358  0.0807
 6492TIP3    H241112   6.793   0.749   1.211 -1.4348 -0.1251 -0.5982
 6493TIP3   OH241113   1.051   1.495   1.292  0.1403 -0.2766 -0.2353
 6493TIP3    H141114   0.978   1.555   1.278 -0.1573 -1.1435 -2.9103
 6493TIP3    H241115   1.011   1.408   1.296  0.9166 -0.6705 -0.7193
 6494TIP3   OH241116   6.871   0.831   0.740  0.3607  0.4408  0.3445
 6494TIP3    H141117   6.914   0.909   0.776  1.4978 -0.4692  1.0227
 6494TIP3    H241118   6.881   0.841   0.645  0.0581  1.3468  0.3928
 6495TIP3   OH241119   1.447   2.370   0.367 -0.0333 -0.2266  0.0523
 6495TIP3    H141120   1.504   2.295   0.383  2.7373  1.7935  0.3467
 6495TIP3    H241121   1.506   2.439   0.337 -2.5511  1.6627 -0.9234
 6496TIP3   OH241122   1.176   2.931   0.611  0.0211  0.1963  0.0432
 6496TIP3    H141123   1.208   2.907   0.698 -1.8329  1.9809  1.2929
 6496TIP3    H241124   1.082   2.940   0.622 -0.0254  2.5379 -1.6210
 6497TIP3   OH241125   0.415   5.442   7.587  0.1171 -0.3909 -0.3275
 6497TIP3    H141126   0.383   5.402   7.506 -2.2322 -0.2403  0.4578
 6497TIP3    H241127   0.504   5.407   7.596 -0.0844 -1.5795 -2.1817
 6498TIP3   OH241128   5.344   5.424   0.978 -0.1864  0.0848  0.0140
 6498TIP3    H141129   5.286   5.441   1.052  0.8168  1.7060  0.4945
 6498TIP3    H241130   5.287   5.431   0.901 -0.8359  0.5368  0.5212
 6499TIP3   OH241131   5.435   1.749   1.756 -0.3390  0.3684  0.2441
 6499TIP3    H141132   5.413   1.754   1.663  1.2808  0.8137 -0.1511
 6499TIP3    H241133   5.378   1.680   1.790 -1.4726  0.6997 -0.9094
 6500TIP3   OH241134   6.350   3.158   8.404  0.4796 -0.1880  0.0889
 6500TIP3    H141135   6.386   3.178   8.491  1.0369  0.9840 -0.3989
 6500TIP3    H241136   6.391   3.075   8.380  2.1234  0.5991 -0.0065
 6501TIP3   OH241137   5.055   0.590   1.158 -0.2820  0.1739 -0.3066
 6501TIP3    H141138   4.983   0.597   1.221  0.8508 -0.2331  1.0846
 6501TIP3    H241139   5.112   0.664   1.178 -0.4455  0.6614 -1.5934
 6502TIP3   OH241140   0.943   2.433   2.350  0.7001 -0.0571  0.0286
 6502TIP3    H141141   0.899   2.508   2.389  0.6066 -0.4237  0.6533
 6502TIP3    H241142   0.973   2.463   2.264 -0.1939  0.3900 -0.1312
 6503TIP3   OH241143   5.628   1.495   0.331 -0.4823  0.4084 -0.6775
 6503TIP3    H141144   5.603   1.406   0.308 -0.0777  0.0060  0.3725
 6503TIP3    H241145   5.576   1.516   0.409 -0.0129  0.7968 -0.4602
 6504TIP3   OH241146   2.229   2.284   7.995  0.3630 -0.5799  0.0091
 6504TIP3    H141147   2.285   2.357   8.020 -2.3550  1.2131  1.3367
 6504TIP3    H241148   2.220   2.291   7.900  0.7281  0.3791  0.0375
 6505TIP3   OH241149   0.710   4.785   1.255 -0.4853  0.6685  0.3938
 6505TIP3    H141150   0.745   4.744   1.335 -2.6399  0.1243  1.1104
 6505TIP3    H241151   0.678   4.712   1.202  1.2814  0.9889 -1.2218
 6506TIP3   OH241152   0.807   4.163   0.476  0.8092  0.1400  0.4792
 6506TIP3    H141153   0.748   4.095   0.445  0.4025  0.6169  0.1849
 6506TIP3    H241154   0.834   4.134   0.563  1.1139 -0.6848  0.1146
 6507TIP3   OH241155   1.824   0.130   8.021  0.1693 -0.0002 -0.4132
 6507TIP3    H141156   1.802   0.146   7.929 -1.8631 -0.7704 -0.1115
 6507TIP3    H241157   1.913   0.163   8.030  0.2939  0.4155 -2.5707
 6508TIP3   OH241158   0.659   1.177   0.692  0.1008 -0.0872 -0.0572
 6508TIP3    H141159   0.610   1.117   0.748 -0.2978  0.6538  0.4070
 6508TIP3    H241160   0.592   1.218   0.638 -0.2107  2.7967  2.2911
 6509TIP3   OH241161   0.871   5.276   7.835 -0.4593 -0.3010  0.2380
 6509TIP3    H141162   0.901   5.352   7.885  0.1330  0.6200 -1.4278
 6509TIP3    H241163   0.946   5.216   7.835 -0.9186 -0.9195  1.5321
 6510TIP3   OH241164   3.089   2.896   8.578  1.0206 -0.3422 -0.5648
 6510TIP3    H141165   3.042   2.813   8.590  0.1740 -0.0006 -1.3839
 6510TIP3    H241166   3.122   2.918   8.665  0.6586 -1.1891 -0.2017
 6511TIP3   OH241167   6.665   6.623   1.944  0.9706 -0.2011  0.6226
 6511TIP3    H141168   6.652   6.553   2.007 -0.5016 -0.6219 -0.0972
 6511TIP3    H241169   6.679   6.579   1.860 -0.8659  0.3118 -0.0049
 6512TIP3   OH241170   1.718   5.982   8.267  0.1189  0.1625  0.7361
 6512TIP3    H141171   1.694   5.931   8.189 -0.4404  0.1965  0.8853
 6512TIP3    H241172   1.814   5.980   8.267  0.1480  0.6651 -0.2957
 6513TIP3   OH241173   4.116   5.590   2.218  0.2585  0.0683 -0.3206
 6513TIP3    H141174   4.106   5.664   2.159 -0.3982  0.2012 -0.0538
 6513TIP3    H241175   4.037   5.537   2.204 -0.2106  0.4178  0.8700
 6514TIP3   OH241176   4.823   5.020   1.351  1.2545  0.6147  0.0333
 6514TIP3    H141177   4.816   4.927   1.374  0.1398 -0.0327 -2.5411
 6514TIP3    H241178   4.745   5.060   1.389  0.3155 -0.0914 -1.0564
 6515TIP3   OH241179   3.700   4.700   2.571 -0.2085 -0.4628  0.0148
 6515TIP3    H141180   3.657   4.759   2.509 -0.5020 -1.2209 -0.5118
 6515TIP3    H241181   3.629   4.666   2.625  0.0004 -0.1040  0.5265
 6516TIP3   OH241182   6.751   1.204   0.013  0.1699  0.3906  0.7996
 6516TIP3    H141183   6.826   1.193   0.072  0.1327  1.8344  1.1550
 6516TIP3    H241184   6.726   1.115  -0.011  2.1685 -0.1131  0.4601
 6517TIP3   OH241185   5.388   2.817   8.370 -0.1424 -0.1114 -0.4966
 6517TIP3    H141186   5.332   2.857   8.304 -0.9205  1.4754  1.0404
 6517TIP3    H241187   5.330   2.804   8.445  1.6584  2.4975  1.5245
 6518TIP3   OH241188   5.442   5.692   1.161 -0.4661  0.3159  0.5046
 6518TIP3    H141189   5.366   5.721   1.212 -0.5964 -0.9688  1.0870
 6518TIP3    H241190   5.425   5.722   1.072 -0.3931  2.3363  1.1243
 6519TIP3   OH241191   6.630   4.018   2.539  0.6917 -0.0170  0.8030
 6519TIP3    H141192   6.666   4.037   2.452 -1.5583 -2.6917 -0.8854
 6519TIP3    H241193   6.535   4.011   2.525  0.3569 -1.5611  3.2526
 6520TIP3   OH241194   5.896   2.001   0.209 -0.4150 -0.2369 -0.2510
 6520TIP3    H141195   5.943   1.924   0.242  1.6096  1.4441  1.0225
 6520TIP3    H241196   5.894   1.988   0.114  0.7100 -1.4425 -0.1426
 6521TIP3   OH241197   0.673   6.798   8.540 -0.0266 -0.4048  0.4333
 6521TIP3    H141198   0.581   6.825   8.528 -0.7438 -2.5787  0.5976
 6521TIP3    H241199   0.672   6.749   8.622  0.9980 -1.6598 -0.2878
 6522TIP3   OH241200   0.270   1.712   3.216 -0.4817 -0.5814 -0.6419
 6522TIP3    H141201   0.260   1.790   3.161 -1.4068 -0.0771  0.2092
 6522TIP3    H241202   0.338   1.736   3.279 -0.1035 -0.8044 -0.9665
 6523TIP3   OH241203   1.198   4.861   3.642 -0.5660 -0.3762 -0.2188
 6523TIP3    H141204   1.175   4.771   3.620 -0.8682 -0.3915  0.1577
 6523TIP3    H241205   1.119   4.912   3.624 -1.0093 -0.4646  1.3030
 6524TIP3   OH241206   5.820   2.413   0.107 -0.1378  0.2726 -0.6930
 6524TIP3    H141207   5.805   2.328   0.066 -0.4426 -0.0145  0.0134
 6524TIP3    H241208   5.784   2.405   0.195  3.0116 -0.0677  0.6983
 6525TIP3   OH241209   2.536   5.649   2.656 -0.0507  0.1901  0.2381
 6525TIP3    H141210   2.597   5.722   2.645  1.7947 -1.1874  0.7337
 6525TIP3    H241211   2.533   5.635   2.751 -1.8979  0.8028  0.3008
 6526TIP3   OH241212   5.823   0.732   1.738  0.0636 -0.6868  0.1451
 6526TIP3    H141213   5.862   0.648   1.714  0.6382 -1.0539  2.2075
 6526TIP3    H241214   5.796   0.770   1.654  0.1720 -2.7154 -0.8800
 6527TIP3   OH241215   4.428   0.769   0.456  0.3487 -0.0852 -0.4029
 6527TIP3    H141216   4.396   0.859   0.468  2.0205  0.5018 -0.0815
 6527TIP3    H241217   4.393   0.742   0.371  0.5778  1.2245 -0.9335
 6528TIP3   OH241218   5.092   3.098   1.548  0.4904  0.0782 -0.0547
 6528TIP3    H141219   5.111   3.188   1.576 -2.3563  0.8241 -0.2041
 6528TIP3    H241220   5.061   3.054   1.627 -0.3104 -0.0712 -0.4435
 6529TIP3   OH241221   1.660   6.159   2.311 -0.2275  0.3512  0.2941
 6529TIP3    H141222   1.725   6.099   2.348  0.8820  1.1298 -0.2984
 6529TIP3    H241223   1.625   6.207   2.386 -2.0423 -1.8014  0.9483
 6530TIP3   OH241224   5.471   1.566   0.546  0.4023  0.5376  0.3601
 6530TIP3    H141225   5.387   1.522   0.554  0.1848  0.9578  0.4562
 6530TIP3    H241226   5.455   1.654   0.582  0.3687  1.2702 -1.3453
 6531TIP3   OH241227   0.316   6.522   1.260 -0.2901  0.0347 -0.3929
 6531TIP3    H141228   0.372   6.551   1.187 -1.9731  0.8550 -1.4136
 6531TIP3    H241229   0.259   6.596   1.277 -1.4857 -0.9837  0.1968
 6532TIP3   OH241230   4.886   1.194   1.793 -0.1836  0.1698 -0.3372
 6532TIP3    H141231   4.883   1.285   1.765 -1.4426  0.6030  1.0962
 6532TIP3    H241232   4.808   1.154   1.756  0.8204 -0.5943 -1.7137
 6533TIP3   OH241233   1.549   3.961   0.451  0.1190 -0.2716  0.8212
 6533TIP3    H141234   1.528   3.948   0.544 -0.5392 -2.4215  0.4219
 6533TIP3    H241235   1.541   3.874   0.412  0.3489  0.5897 -1.2750
 6534TIP3   OH241236   3.833   2.790   8.523  0.2664  0.4286  0.4382
 6534TIP3    H141237   3.760   2.731   8.505  0.3530  0.8857 -1.5651
 6534TIP3    H241238   3.793   2.875   8.538  0.3795  0.7275 -0.8873
 6535TIP3   OH241239   5.396   2.551   2.903  0.1307  0.3091 -0.2572
 6535TIP3    H141240   5.370   2.526   2.814 -2.1965  2.3322 -0.2432
 6535TIP3    H241241   5.340   2.498   2.960  0.7922 -0.1294  0.0005
 6536TIP3   OH241242   1.523   0.319   7.744 -0.2875 -0.0394  0.6249
 6536TIP3    H141243   1.491   0.354   7.827  1.1241  0.5076  0.9694
 6536TIP3    H241244   1.523   0.395   7.685  2.4547  0.5743  1.2756
 6537TIP3   OH241245   5.903   5.245   1.930  0.1434  0.0701  0.0106
 6537TIP3    H141246   5.852   5.242   2.010  0.7798 -0.9475  0.3964
 6537TIP3    H241247   5.972   5.309   1.947  0.9072 -0.9026  0.6836
 6538TIP3   OH241248   4.012   3.806   7.583  1.1026  0.1245  0.4208
 6538TIP3    H141249   4.011   3.789   7.489  0.0412  1.9243  0.0534
 6538TIP3    H241250   4.006   3.720   7.623  0.1602 -0.6141 -1.1915
 6539TIP3   OH241251   2.250   1.453   2.971  0.6286 -0.0893  0.5034
 6539TIP3    H141252   2.329   1.486   2.929 -1.1291  1.2311 -2.0302
 6539TIP3    H241253   2.215   1.528   3.018  0.0034 -0.1585  0.1583
 6540TIP3   OH241254   0.531   2.521   7.645 -0.0792 -0.0175 -0.2536
 6540TIP3    H141255   0.476   2.479   7.578 -0.0861 -0.9471  0.3248
 6540TIP3    H241256   0.471   2.579   7.692 -0.1555  0.3595 -0.8077
 6541TIP3   OH241257   0.852   0.566   2.211  0.2698  0.6725  0.2293
 6541TIP3    H141258   0.919   0.593   2.273  0.1274 -2.3848  1.9362
 6541TIP3    H241259   0.777   0.622   2.230  0.5182  0.3731  2.2827
 6542TIP3   OH241260   3.055   0.568   0.713 -0.2266 -0.1208  0.0245
 6542TIP3    H141261   3.055   0.533   0.624 -0.2687 -1.1252  0.4037
 6542TIP3    H241262   3.147   0.584   0.732 -0.0033 -1.6467  0.4295
 6543TIP3   OH241263   5.985   3.778   8.189  0.0671 -0.4264  0.1246
 6543TIP3    H141264   6.060   3.756   8.133 -0.8719  0.3599 -1.5196
 6543TIP3    H241265   6.003   3.733   8.271  1.3928 -1.8649 -0.8860
 6544TIP3   OH241266   2.684   2.366   0.329 -0.1308  0.7266 -0.3612
 6544TIP3    H141267   2.690   2.439   0.267 -1.3399  0.9507 -0.2445
 6544TIP3    H241268   2.593   2.369   0.360  0.3078  0.2756  1.0144
 6545TIP3   OH241269   4.492   1.007   1.454  0.1043  0.0199 -0.4697
 6545TIP3    H141270   4.402   1.031   1.476 -0.0432  0.6747 -1.6654
 6545TIP3    H241271   4.489   0.913   1.438 -0.2747 -0.0365 -0.0520
 6546TIP3   OH241272   4.511   0.894   1.852 -0.1361  0.3314 -0.3209
 6546TIP3    H141273   4.426   0.928   1.826 -1.4937 -2.5132 -0.0321
 6546TIP3    H241274   4.554   0.872   1.770  0.4241  1.8669 -0.4718
 6547TIP3   OH241275   4.116   1.401   0.080  0.0432  0.0310  0.0963
 6547TIP3    H141276   4.064   1.428   0.005  1.2307  3.6095  0.3368
 6547TIP3    H241277   4.206   1.401   0.048  0.6218  2.0717  1.5013
 6548TIP3   OH241278   2.823   4.711   0.725  0.1419 -0.6248  0.5153
 6548TIP3    H141279   2.786   4.774   0.786  0.0946 -1.1868  1.0680
 6548TIP3    H241280   2.906   4.685   0.764  0.8477  0.1412 -0.4027
 6549TIP3   OH241281   1.389   1.194   8.230  0.0864  0.3019  0.0194
 6549TIP3    H141282   1.329   1.259   8.193 -0.5431 -0.7969 -0.9592
 6549TIP3    H241283   1.349   1.169   8.313  1.0749  2.1781  1.1240
 6550TIP3   OH241284   6.426   0.384   0.970 -0.3139 -0.3250 -0.2834
 6550TIP3    H141285   6.339   0.409   0.937 -0.4494  1.0115  0.9771
 6550TIP3    H241286   6.477   0.464   0.966  0.4689 -0.7913  0.2111
 6551TIP3   OH241287   4.111   0.508   1.088  0.4753 -0.1334  0.0816
 6551TIP3    H141288   4.105   0.454   1.167 -0.9210  0.3402  0.3196
 6551TIP3    H241289   4.149   0.450   1.022  0.8201 -0.8018  0.8571
 6552TIP3   OH241290   6.134   0.734   2.514 -0.0829 -0.2592 -0.0962
 6552TIP3    H141291   6.176   0.810   2.473 -0.7791 -0.3837 -1.0654
 6552TIP3    H241292   6.171   0.658   2.468 -1.8689 -0.3390 -1.4608
 6553TIP3   OH241293   6.130   1.909   0.960  0.1674 -0.2140 -0.0211
 6553TIP3    H141294   6.166   1.917   1.048 -2.0092 -1.6555  1.0840
 6553TIP3    H241295   6.059   1.973   0.957  1.8732  1.7463 -1.7471
 6554TIP3   OH241296   1.100   3.095   1.537  0.0661 -0.0454  0.6315
 6554TIP3    H141297   1.062   3.098   1.449  0.7160  1.0464  0.3636
 6554TIP3    H241298   1.041   3.147   1.591  0.5330  0.6877  0.4608
 6555TIP3   OH241299   4.860   4.257   2.939 -0.0583  0.2917 -0.3829
 6555TIP3    H141300   4.837   4.349   2.950  1.9721  0.8459 -0.4344
 6555TIP3    H241301   4.868   4.224   3.029 -0.1689  0.3189 -0.3621
 6556TIP3   OH241302   2.139   6.486   1.571  0.2028 -0.7537  0.1310
 6556TIP3    H141303   2.185   6.411   1.534  0.6554 -0.3556 -0.1245
 6556TIP3    H241304   2.171   6.492   1.661  1.7053  0.3241 -0.4230
 6557TIP3   OH241305   2.141   6.158   0.706  0.7645 -0.3330 -0.1415
 6557TIP3    H141306   2.234   6.175   0.726  0.4424 -0.2425  1.3455
 6557TIP3    H241307   2.094   6.192   0.782 -0.3506 -2.3403  0.1159
 6558TIP3   OH241308   2.513   5.498   7.509  0.8096  0.2185 -0.0973
 6558TIP3    H141309   2.528   5.556   7.583  3.0552  0.0566 -0.3654
 6558TIP3    H241310   2.533   5.552   7.432 -1.5631  0.4145 -0.6648
 6559TIP3   OH241311   6.079   0.612   0.942 -0.1287 -0.0687 -0.0111
 6559TIP3    H141312   6.170   0.619   0.971 -0.4338 -2.1474  1.6222
 6559TIP3    H241313   6.068   0.520   0.919 -1.8885  0.1142 -0.0123
 6560TIP3   OH241314   4.034   3.184   8.303 -0.0473 -0.0223 -0.4055
 6560TIP3    H141315   3.995   3.213   8.221  2.6595 -1.0715 -2.1775
 6560TIP3    H241316   4.022   3.089   8.303 -0.6137  0.0161  0.8105
 6561TIP3   OH241317   1.658   4.327   8.529  0.1306 -0.5483  0.1093
 6561TIP3    H141318   1.654   4.423   8.523  0.3654 -0.4834  0.9025
 6561TIP3    H241319   1.718   4.302   8.459 -0.4031 -0.1669 -0.4968
 6562TIP3   OH241320   5.829   1.379   1.226  0.3462  0.2968  0.0406
 6562TIP3    H141321   5.820   1.317   1.298  0.3250  0.3081  0.0478
 6562TIP3    H241322   5.908   1.429   1.247  0.3855  0.2455  0.0146
 6563TIP3   OH241323   6.809   3.073   2.789 -0.2495 -0.5067  0.5451
 6563TIP3    H141324   6.732   3.029   2.754  0.5568 -0.6613 -1.1906
 6563TIP3    H241325   6.866   3.003   2.819  0.4638 -0.6175 -0.9772
 6564TIP3   OH241326   6.156   3.613   7.484  0.2070  0.0738 -0.3280
 6564TIP3    H141327   6.152   3.540   7.546 -0.5615  0.7785  0.4875
 6564TIP3    H241328   6.236   3.660   7.509  1.0703 -0.8428 -1.2909
 6565TIP3   OH241329   2.996   3.545   3.671 -0.3560 -0.4554  0.7315
 6565TIP3    H141330   2.950   3.615   3.625 -0.8085 -1.1074  0.1991
 6565TIP3    H241331   2.979   3.466   3.621  0.1770 -0.9576  1.3158
 6566TIP3   OH241332   0.283   5.257   0.838  0.6253 -0.0382  0.0368
 6566TIP3    H141333   0.229   5.327   0.801 -0.0463 -1.3533 -1.5957
 6566TIP3    H241334   0.251   5.248   0.928 -1.6204 -0.4241 -0.7218
 6567TIP3   OH241335   1.208   0.613   8.337 -0.3181 -0.1010  0.5297
 6567TIP3    H141336   1.125   0.648   8.370 -0.1921  0.9758 -0.2465
 6567TIP3    H241337   1.248   0.687   8.291 -0.4629 -1.4776 -1.9714
 6568TIP3   OH241338   1.866   2.187   0.091 -0.0922  0.3911  0.1880
 6568TIP3    H141339   1.860   2.162   0.183  2.0510 -2.0551 -0.2279
 6568TIP3    H241340   1.954   2.223   0.081 -0.1784  0.3263 -0.9665
 6569TIP3   OH241341   3.270   5.455   7.917  0.1701 -0.0477  0.0652
 6569TIP3    H141342   3.225   5.427   7.997  0.8372  0.9476  0.8098
 6569TIP3    H241343   3.200   5.471   7.854 -0.3047 -2.4444 -0.1377
 6570TIP3   OH241344   5.207   2.365   0.029  0.5180 -0.6161  0.2057
 6570TIP3    H141345   5.135   2.407  -0.019 -1.4064 -1.4883  2.1645
 6570TIP3    H241346   5.177   2.275   0.042  2.1591 -1.1166  0.7752
 6571TIP3   OH241347   0.436   5.953   8.643  0.3810 -0.0953 -0.6105
 6571TIP3    H141348   0.504   5.975   8.579 -0.4254 -1.5897 -2.0595
 6571TIP3    H241349   0.459   5.866   8.674  0.5720  0.4766  0.9641
 6572TIP3   OH241350   0.461   0.459   1.728 -0.1883  0.4033  0.4428
 6572TIP3    H141351   0.497   0.384   1.776 -0.3206 -0.5525 -0.9064
 6572TIP3    H241352   0.427   0.517   1.797  0.3125 -0.5607  1.5338
 6573TIP3   OH241353   1.284   2.836   2.518 -0.3608  0.1367 -0.5179
 6573TIP3    H141354   1.351   2.871   2.459 -0.0889 -1.2306 -1.0442
 6573TIP3    H241355   1.204   2.835   2.466 -0.4556  0.3340 -0.3780
 6574TIP3   OH241356   6.834   0.972   2.303 -0.0625  1.0668  0.1934
 6574TIP3    H141357   6.919   0.947   2.339 -0.3799  0.2476  0.3950
 6574TIP3    H241358   6.838   0.946   2.211 -0.2022  0.7622  0.2739
 6575TIP3   OH241359   0.114   4.029   7.983 -0.2383  0.0068  0.4713
 6575TIP3    H141360   0.097   4.123   7.970 -2.4171 -0.5018 -0.8465
 6575TIP3    H241361   0.073   4.009   8.067  1.0223  0.3818  1.1982
 6576TIP3   OH241362   3.399   0.148   0.183  0.4359 -0.2755  0.2127
 6576TIP3    H141363   3.379   0.226   0.131 -0.4380 -1.0618 -0.6828
 6576TIP3    H241364   3.472   0.175   0.240 -0.2057  1.3401  0.3269
 6577TIP3   OH241365   3.051   3.404   1.922 -0.1264  0.2623  0.0159
 6577TIP3    H141366   3.135   3.421   1.879  0.4839  1.6323  1.5953
 6577TIP3    H241367   3.007   3.340   1.867  1.1876  0.8804 -1.8281
 6578TIP3   OH241368   5.019   2.776   1.124  0.7563 -0.0354  0.4966
 6578TIP3    H141369   5.052   2.837   1.190  0.0977  2.1442 -1.0728
 6578TIP3    H241370   4.929   2.806   1.107  0.2182 -1.7887  0.0319
 6579TIP3   OH241371   2.092   3.626   0.696 -0.4559 -0.4703  0.0434
 6579TIP3    H141372   2.108   3.709   0.650  2.2914 -1.3109 -0.6811
 6579TIP3    H241373   1.996   3.621   0.703 -0.7346  2.3831 -0.5404
 6580TIP3   OH241374   1.265   6.456   1.059  0.2684  0.4720 -0.5046
 6580TIP3    H141375   1.234   6.496   1.140 -1.3900 -1.8177  0.0916
 6580TIP3    H241376   1.361   6.459   1.066  0.1600  1.3872  0.9674
 6581TIP3   OH241377   2.685   2.034   1.848  0.3874  0.4661  0.0554
 6581TIP3    H141378   2.590   2.022   1.850  0.5260 -0.8750 -0.5234
 6581TIP3    H241379   2.699   2.105   1.785 -0.1827  0.0629 -0.5384
 6582TIP3   OH241380   1.397   0.518   0.322  0.3183  0.1215  0.4197
 6582TIP3    H141381   1.348   0.581   0.269  0.4510 -0.2559 -0.1693
 6582TIP3    H241382   1.488   0.533   0.298  0.3617 -0.1947  0.3814
 6583TIP3   OH241383   5.444   1.033   2.037 -0.4089  0.2211 -0.8929
 6583TIP3    H141384   5.376   1.031   2.104  0.2391  0.6808 -0.2036
 6583TIP3    H241385   5.442   1.123   2.004 -0.0722  0.2648 -0.7969
 6584TIP3   OH241386   5.412   6.762   3.544 -0.0133  0.1718 -0.4545
 6584TIP3    H141387   5.324   6.726   3.549 -0.0161  0.0010 -1.4967
 6584TIP3    H241388   5.405   6.848   3.587 -0.3978 -0.3341  0.5204
 6585TIP3   OH241389   1.357   3.749   2.769 -0.6211  0.4238 -0.3361
 6585TIP3    H141390   1.358   3.786   2.680  0.7100 -0.9926 -0.9518
 6585TIP3    H241391   1.355   3.826   2.826  0.1661  1.4093 -1.5765
 6586TIP3   OH241392   5.730   6.796   0.687  0.5847  0.7688 -0.5795
 6586TIP3    H141393   5.695   6.780   0.774  0.9370  1.0062 -0.3928
 6586TIP3    H241394   5.807   6.740   0.682  0.7619  1.0153 -0.6102
 6587TIP3   OH241395   0.266   0.517   7.430  0.7131 -0.3581 -0.3006
 6587TIP3    H141396   0.184   0.471   7.412  1.2123 -0.6550 -2.0175
 6587TIP3    H241397   0.239   0.603   7.464 -0.3195 -0.2863 -1.2588
 6588TIP3   OH241398   0.517   4.930   0.894 -0.0478  0.5965  0.0901
 6588TIP3    H141399   0.612   4.930   0.887 -0.1177  0.2327 -1.0866
 6588TIP3    H241400   0.488   4.860   0.835 -1.0783  1.1979 -0.1452
 6589TIP3   OH241401   4.316   6.802   1.089  0.3342  0.1662 -0.0684
 6589TIP3    H141402   4.343   6.750   1.164  1.3282 -0.4042 -0.7899
 6589TIP3    H241403   4.238   6.758   1.056 -0.3477  0.6544  0.8485
 6590TIP3   OH241404   0.944   0.252   1.813 -0.4466  0.4002 -0.2205
 6590TIP3    H141405   0.879   0.217   1.753 -0.4641  0.6750 -0.3645
 6590TIP3    H241406   0.909   0.337   1.841  1.0577  1.8446 -2.4041
 6591TIP3   OH241407   4.901   1.936   2.840  0.1775 -0.4873  0.7115
 6591TIP3    H141408   4.973   1.986   2.879 -0.3106 -0.9541  2.3217
 6591TIP3    H241409   4.935   1.847   2.832  0.5885 -0.2113 -0.8737
 6592TIP3   OH241410   3.593   4.789   2.832 -0.0800 -0.2472 -0.2383
 6592TIP3    H141411   3.547   4.803   2.914 -0.3509 -1.4414 -0.1754
 6592TIP3    H241412   3.530   4.744   2.776 -0.1570  1.2020 -1.3802
 6593TIP3   OH241413   4.206   5.679   8.614 -0.5129  0.0144 -0.8869
 6593TIP3    H141414   4.161   5.762   8.596 -0.9760 -0.1533 -0.5374
 6593TIP3    H241415   4.298   5.704   8.624 -0.7461  0.6171 -0.0257
 6594TIP3   OH241416   4.641   4.065   1.938 -0.2263 -0.1565 -0.3380
 6594TIP3    H141417   4.631   3.998   1.870 -0.8281 -0.7110  0.2899
 6594TIP3    H241418   4.554   4.104   1.946 -0.2324 -0.2922  0.3144
 6595TIP3   OH241419   0.134   3.415   2.427  0.3682 -0.0314 -0.3677
 6595TIP3    H141420   0.108   3.369   2.507  0.6186  1.6995  0.7506
 6595TIP3    H241421   0.224   3.442   2.443  1.3003 -1.7064 -2.2356
 6596TIP3   OH241422   1.491   6.757   2.121 -0.9769  0.4480 -0.4304
 6596TIP3    H141423   1.415   6.801   2.083  0.3912  1.5120 -2.1296
 6596TIP3    H241424   1.548   6.739   2.046  0.4758 -0.2723  0.7836
 6597TIP3   OH241425   5.261   2.780   2.474  0.4553  0.9216  0.0084
 6597TIP3    H141426   5.271   2.836   2.551  0.0622  1.1182 -0.0780
 6597TIP3    H241427   5.317   2.820   2.408  1.8439  0.0014  0.5760
 6598TIP3   OH241428   5.646   6.602   2.600 -0.6965  0.0809 -0.3487
 6598TIP3    H141429   5.652   6.695   2.623 -1.6640  0.1632 -0.4061
 6598TIP3    H241430   5.615   6.601   2.510  1.3223 -0.2791 -1.0760
 6599TIP3   OH241431   2.052   5.141   2.818 -0.4327 -1.0240 -0.2357
 6599TIP3    H141432   2.098   5.117   2.899 -2.4002 -1.5124  0.7971
 6599TIP3    H241433   2.113   5.118   2.748  0.1775 -3.4591  0.9918
 6600TIP3   OH241434   1.165   3.662   2.245 -0.3958  0.4920  0.3229
 6600TIP3    H141435   1.120   3.729   2.296  0.4507  2.1738 -1.0440
 6600TIP3    H241436   1.165   3.695   2.155  1.6774 -0.4357 -0.0859
 6601TIP3   OH241437   6.853   5.771   0.773  0.1258 -0.6842  0.9539
 6601TIP3    H141438   6.848   5.806   0.683 -0.8637 -2.1850  0.3869
 6601TIP3    H241439   6.801   5.691   0.770 -1.2118  0.0116  3.2700
 6602TIP3   OH241440   2.271   2.675   7.403  0.3307 -0.0213 -0.1713
 6602TIP3    H141441   2.203   2.741   7.391  1.0022  0.3430 -2.1980
 6602TIP3    H241442   2.225   2.592   7.393 -0.0587  0.1803 -0.0849
 6603TIP3   OH241443   0.005   3.563   2.062 -0.1580 -0.4022 -0.3978
 6603TIP3    H141444  -0.039   3.516   1.991 -1.3984 -0.6278  0.4793
 6603TIP3    H241445  -0.062   3.571   2.130  1.0601 -0.4078  0.8500
 6604TIP3   OH241446   4.558   4.663   1.633 -0.2368 -0.2205  0.6667
 6604TIP3    H141447   4.477   4.701   1.598 -0.9970 -2.1093  0.2543
 6604TIP3    H241448   4.612   4.646   1.556 -0.8587 -2.0034  0.5618
 6605TIP3   OH241449   4.732   2.428   0.014  0.1841 -0.3284 -0.0762
 6605TIP3    H141450   4.687   2.513   0.017  2.0035  0.6579  0.5172
 6605TIP3    H241451   4.665   2.366   0.042 -1.2285  0.8671 -0.5913
 6606TIP3   OH241452   1.387   5.926   0.903  0.2685  0.4283 -0.1438
 6606TIP3    H141453   1.345   5.857   0.955 -0.6785 -0.1578 -1.5830
 6606TIP3    H241454   1.321   5.995   0.897 -0.2890 -0.1984 -1.8452
 6607TIP3   OH241455   6.430   0.758   8.101 -0.1276 -0.0814 -0.2468
 6607TIP3    H141456   6.424   0.719   8.013 -0.1628 -0.4232 -0.0962
 6607TIP3    H241457   6.521   0.788   8.107 -0.2270  0.2912 -0.5424
 6608TIP3   OH241458   0.877   3.177   0.183  0.2296  0.0925  0.2369
 6608TIP3    H141459   0.951   3.230   0.213 -0.5396  0.8779  0.8107
 6608TIP3    H241460   0.809   3.192   0.249 -0.9345  0.5284 -1.0317
 6609TIP3   OH241461   4.147   6.501   0.164  0.1712 -0.7590  0.4209
 6609TIP3    H141462   4.095   6.519   0.085 -0.1981 -1.1418  0.5703
 6609TIP3    H241463   4.082   6.476   0.230  0.5631 -1.4619  0.5467
 6610TIP3   OH241464   6.813   2.637   2.109 -0.2914 -0.8533 -0.0163
 6610TIP3    H141465   6.870   2.620   2.184 -0.5337  2.5183  1.1009
 6610TIP3    H241466   6.744   2.693   2.143 -2.7461 -2.4602 -1.9701
 6611TIP3   OH241467   5.140   4.569   2.408 -0.4193  0.2133  0.1184
 6611TIP3    H141468   5.140   4.527   2.494  1.4601 -0.7482 -0.3101
 6611TIP3    H241469   5.190   4.510   2.352 -0.5945  1.4053 -1.3539
 6612TIP3   OH241470   5.018   1.431   7.264 -0.1076 -0.3370 -0.6754
 6612TIP3    H141471   4.962   1.356   7.286  1.1099 -1.2520 -0.5852
 6612TIP3    H241472   5.086   1.394   7.207  0.4935  0.7201 -0.6747
 6613TIP3   OH241473   5.849   2.878   3.088  0.5508  0.0586  0.1764
 6613TIP3    H141474   5.920   2.825   3.123 -0.0504 -0.9113 -0.0566
 6613TIP3    H241475   5.777   2.866   3.149  0.5090  0.8894  0.3103
 6614TIP3   OH241476   3.975   0.531   8.555  0.1478 -0.2006  0.8199
 6614TIP3    H141477   4.018   0.477   8.488 -0.2305 -0.6744  0.9572
 6614TIP3    H241478   3.948   0.469   8.623 -0.6207  0.1072  0.8083
 6615TIP3   OH241479   3.052   2.636   8.571 -0.2094  0.3826  0.8168
 6615TIP3    H141480   3.122   2.612   8.509 -0.8668  1.9997 -0.6533
 6615TIP3    H241481   2.988   2.565   8.563 -1.0772  1.3194 -1.7224
 6616TIP3   OH241482   5.529   0.650   1.512  0.0548 -0.1502  0.8856
 6616TIP3    H141483   5.594   0.700   1.463 -0.6297 -0.0561  0.0428
 6616TIP3    H241484   5.545   0.559   1.487 -0.2008 -0.1168  0.5978
 6617TIP3   OH241485   6.558   6.183   0.140  0.3543  0.0644  0.4350
 6617TIP3    H141486   6.533   6.113   0.200  2.0678 -0.1377  0.9476
 6617TIP3    H241487   6.477   6.203   0.092 -0.4157 -1.5322  1.0002
 6618TIP3   OH241488   5.592   3.221   7.793  0.0698 -0.0621  0.0500
 6618TIP3    H141489   5.560   3.302   7.832  0.9587  0.7287 -0.7970
 6618TIP3    H241490   5.685   3.237   7.779  0.5541 -1.7652  1.1478
 6619TIP3   OH241491   2.886   1.828   0.781 -0.1976  0.5867  0.2636
 6619TIP3    H141492   2.850   1.749   0.822  0.8964  0.0476  0.1984
 6619TIP3    H241493   2.963   1.850   0.833 -1.1165  2.3114  1.0063
 6620TIP3   OH241494   2.613   3.533   2.185 -0.2526 -0.6827 -0.0079
 6620TIP3    H141495   2.651   3.445   2.174 -1.8854 -1.6530  1.6648
 6620TIP3    H241496   2.573   3.552   2.100  1.0059 -1.0717 -0.7237
 6621TIP3   OH241497   1.455   2.166   7.501 -0.0415 -0.3441 -0.0479
 6621TIP3    H141498   1.445   2.097   7.567  2.8390 -1.4756 -0.6474
 6621TIP3    H241499   1.399   2.138   7.428 -1.9499  0.0625  1.1864
 6622TIP3   OH241500   3.379   0.594   2.717  0.5584  0.1565  0.4432
 6622TIP3    H141501   3.328   0.654   2.771 -0.2417 -0.5316  0.4819
 6622TIP3    H241502   3.316   0.526   2.692  0.4838  1.1925 -2.5633
 6623TIP3   OH241503   1.757   0.969   2.196 -0.4115  0.0531  0.3182
 6623TIP3    H141504   1.812   1.009   2.128 -1.4542  1.2878  0.1657
 6623TIP3    H241505   1.709   0.901   2.151 -0.1278 -0.0157  0.1138
 6624TIP3   OH241506   0.002   0.559   0.568  0.5664  0.0709 -0.1008
 6624TIP3    H141507  -0.010   0.502   0.644 -1.0544 -1.5620 -1.4703
 6624TIP3    H241508   0.087   0.600   0.581  1.1190 -1.5249  1.7057
 6625TIP3   OH241509   0.075   2.306   1.892 -0.1605 -0.2590 -0.2414
 6625TIP3    H141510   0.010   2.319   1.960  0.1180  0.8107 -0.1687
 6625TIP3    H241511   0.031   2.333   1.811  0.6156  1.8534 -0.0087
 6626TIP3   OH241512   4.620   4.082   0.986  0.1445 -0.4094 -0.3264
 6626TIP3    H141513   4.587   4.147   0.924 -2.6082 -1.9481 -0.6341
 6626TIP3    H241514   4.590   3.998   0.951 -0.9795 -1.3899  2.7092
 6627TIP3   OH241515   6.032   0.107   0.660  0.5711 -0.5092 -0.2961
 6627TIP3    H141516   5.952   0.084   0.614 -0.2442 -0.1996  0.9128
 6627TIP3    H241517   6.002   0.149   0.741  1.9422 -0.7642  0.3776
 6628TIP3   OH241518   6.336   5.341   2.525 -0.3478 -0.4232 -0.2128
 6628TIP3    H141519   6.421   5.324   2.565  0.1203 -0.2895 -1.1250
 6628TIP3    H241520   6.272   5.316   2.592  0.4130  0.4479  0.8696
 6629TIP3   OH241521   3.872   1.827   3.069  0.0186  0.0348  0.0821
 6629TIP3    H141522   3.916   1.899   3.114 -0.0882  0.5907 -0.6741
 6629TIP3    H241523   3.930   1.752   3.080  1.1623  0.7436 -0.8600
 6630TIP3   OH241524   6.081   5.750   1.384  0.4209 -0.7254  0.0581
 6630TIP3    H141525   6.008   5.692   1.360 -0.5909 -0.5914  2.5284
 6630TIP3    H241526   6.067   5.769   1.476  1.8747  1.8612 -0.1672
 6631TIP3   OH241527   3.542   0.679   8.638 -0.3558 -0.3611  0.1227
 6631TIP3    H141528   3.450   0.660   8.659 -0.2033  0.4358  1.6656
 6631TIP3    H241529   3.586   0.594   8.645 -0.8458 -0.6198  0.1364
 6632TIP3   OH241530   1.011   1.437   7.904 -0.2789 -0.3935  0.0581
 6632TIP3    H141531   1.041   1.371   7.842 -1.6502 -1.4123  0.4286
 6632TIP3    H241532   0.917   1.423   7.911 -0.2311 -0.1290  2.1288
 6633TIP3   OH241533   0.716   0.994   1.518 -0.0227  0.6449 -0.0161
 6633TIP3    H141534   0.757   0.985   1.604 -1.4483 -1.8809  0.5110
 6633TIP3    H241535   0.775   0.949   1.458 -0.3972 -0.0790  0.1538
 6634TIP3   OH241536   4.524   4.186   7.951  0.2005  0.3533 -0.6126
 6634TIP3    H141537   4.482   4.261   7.994  0.8561  0.0951  0.5407
 6634TIP3    H241538   4.469   4.111   7.974  0.2620  0.2911 -0.6664
 6635TIP3   OH241539   0.436   1.984   2.034  0.7941 -0.3282 -0.0790
 6635TIP3    H141540   0.349   2.001   1.997  0.4690  0.5141  1.0193
 6635TIP3    H241541   0.494   2.042   1.984  0.4058  0.5674  0.4741
 6636TIP3   OH241542   2.417   3.058   8.064  0.0551  0.2850 -1.0091
 6636TIP3    H141543   2.468   3.099   8.134 -1.4546  1.0320 -0.3016
 6636TIP3    H241544   2.472   3.068   7.986  1.0940  0.8135 -0.2438
 6637TIP3   OH241545   2.871   3.799   2.765  0.0875 -0.3565 -0.0939
 6637TIP3    H141546   2.841   3.859   2.833 -1.8147 -1.0216 -0.2778
 6637TIP3    H241547   2.933   3.742   2.808  0.6830  0.6998  0.4859
 6638TIP3   OH241548   0.469   3.612   2.784  0.0217  0.4989  0.0268
 6638TIP3    H141549   0.417   3.677   2.737  1.2351  1.3122 -0.2036
 6638TIP3    H241550   0.403   3.554   2.823 -1.0782  1.7262  0.0750
 6639TIP3   OH241551   0.189   4.726   0.457 -0.4281  0.2400  0.0217
 6639TIP3    H141552   0.229   4.649   0.497 -0.2359 -0.1783 -0.9395
 6639TIP3    H241553   0.231   4.800   0.501  1.5795 -0.1828 -1.0373
 6640TIP3   OH241554   0.391   6.102   0.343  0.2802  0.1509  0.1007
 6640TIP3    H141555   0.423   6.130   0.429  2.0800  0.5524 -0.6775
 6640TIP3    H241556   0.433   6.160   0.280 -0.1760 -0.8118 -1.1453
 6641TIP3   OH241557   1.284   3.413   0.856  0.5340 -0.5390  0.1157
 6641TIP3    H141558   1.374   3.388   0.834  0.3109 -1.8682  0.6101
 6641TIP3    H241559   1.231   3.377   0.785  0.0029 -3.3164  1.7424
 6642TIP3   OH241560   5.640   2.160   1.023  0.1571  0.1930 -0.1460
 6642TIP3    H141561   5.670   2.193   0.938  1.7904 -0.5394  0.1047
 6642TIP3    H241562   5.691   2.080   1.037 -2.1959 -1.3217  0.2154
 6643TIP3   OH241563   2.263   0.700   1.738 -0.0578 -0.2150 -0.6924
 6643TIP3    H141564   2.205   0.656   1.800 -0.1666  0.5517 -0.2466
 6643TIP3    H241565   2.206   0.723   1.665  0.2249 -1.8331 -1.4723
 6644TIP3   OH241566   3.605   3.149   2.681 -0.1679  0.1895  0.2030
 6644TIP3    H141567   3.517   3.120   2.656 -1.0256  0.1767  2.8696
 6644TIP3    H241568   3.616   3.114   2.770  2.4907  0.3392 -0.0039
 6645TIP3   OH241569   5.277   6.763   0.701 -0.0650 -0.0356  0.1403
 6645TIP3    H141570   5.239   6.799   0.781 -1.5134 -0.0648 -0.4855
 6645TIP3    H241571   5.304   6.675   0.723 -1.3691 -0.4030  0.3828
 6646TIP3   OH241572   5.412   6.625   2.142 -0.0198  0.2308 -0.6909
 6646TIP3    H141573   5.439   6.656   2.056 -2.1080  2.0198 -0.7701
 6646TIP3    H241574   5.319   6.646   2.148  0.3024  1.3667  2.4882
 6647TIP3   OH241575   0.909   3.867   7.181  0.1131  0.1462  0.1614
 6647TIP3    H141576   1.000   3.876   7.153  0.4845  0.3389  1.3576
 6647TIP3    H241577   0.860   3.923   7.121  0.9592  1.0891  0.3180
 6648TIP3   OH241578   1.660   0.994   8.563  0.2782  0.3193  1.2763
 6648TIP3    H141579   1.697   0.974   8.649  1.2838  3.0181  1.5873
 6648TIP3    H241580   1.660   1.090   8.560 -0.4626  0.2969 -1.4317
 6649TIP3   OH241581   5.098   6.008   8.283  0.2679 -0.0511 -0.2209
 6649TIP3    H141582   5.088   6.043   8.194  0.4455  0.8152  0.0839
 6649TIP3    H241583   5.128   5.918   8.271  0.3527  0.0817 -1.0381
 6650TIP3   OH241584   5.666   4.620   1.194  0.9996 -0.0470 -0.5510
 6650TIP3    H141585   5.738   4.585   1.142  0.6009 -1.3188 -0.2774
 6650TIP3    H241586   5.707   4.685   1.252  1.5851  0.7312 -1.7919
 6651TIP3   OH241587   5.592   6.290   2.429 -0.1162  0.1006  0.6207
 6651TIP3    H141588   5.601   6.250   2.343 -0.0482  1.0608  0.1735
 6651TIP3    H241589   5.677   6.277   2.470 -0.4961 -1.3775  1.0105
 6652TIP3   OH241590   6.187   4.959   8.577  0.0139 -0.0555 -0.0410
 6652TIP3    H141591   6.186   4.906   8.498  0.0843 -0.3478  0.1549
 6652TIP3    H241592   6.197   4.897   8.648 -1.9000  0.0254  0.3484
 6653TIP3   OH241593   6.305   4.545   0.581  0.2887 -0.1815  0.9487
 6653TIP3    H141594   6.313   4.501   0.497  1.4456  0.6275  0.6114
 6653TIP3    H241595   6.213   4.572   0.585  0.2384 -0.1503 -0.0998
 6654TIP3   OH241596   1.657   2.747   1.446 -0.1423 -0.5338 -0.0252
 6654TIP3    H141597   1.714   2.707   1.380  0.7590 -1.3713  1.2093
 6654TIP3    H241598   1.645   2.837   1.416 -1.3605 -1.3969 -2.3262
 6655TIP3   OH241599   4.217   6.864   2.285 -0.1562 -0.3430  0.1300
 6655TIP3    H141600   4.176   6.812   2.216  1.4254 -1.2467 -0.1889
 6655TIP3    H241601   4.244   6.945   2.241  1.5150 -1.2215 -0.5618
 6656TIP3   OH241602   5.999   1.797   8.294 -0.0248  0.5378  0.3962
 6656TIP3    H141603   5.934   1.726   8.294  0.4094  0.0749 -1.5922
 6656TIP3    H241604   6.075   1.760   8.339  1.1224 -1.2738 -2.7201
 6657TIP3   OH241605   1.171   4.203   2.014 -0.4663 -0.3089  0.8584
 6657TIP3    H141606   1.156   4.295   2.037 -1.7797  0.5775 -2.7753
 6657TIP3    H241607   1.086   4.171   1.984  0.5363 -1.8090 -0.5897
 6658TIP3   OH241608   3.589   5.283   2.249  0.4249  0.0609 -0.4507
 6658TIP3    H141609   3.594   5.347   2.320 -2.5385  0.5447 -0.5354
 6658TIP3    H241610   3.676   5.285   2.209  1.5085  1.3990  1.7450
 6659TIP3   OH241611   5.442   2.023   2.347  0.1205 -0.3953  0.2438
 6659TIP3    H141612   5.378   2.054   2.283 -0.2297 -1.7944 -0.1175
 6659TIP3    H241613   5.499   2.098   2.363  3.0675 -0.9988 -5.1429
 6660TIP3   OH241614   3.885   4.909   1.780  0.0560  0.1920  0.0383
 6660TIP3    H141615   3.980   4.924   1.780  0.1841  0.0582 -3.3462
 6660TIP3    H241616   3.876   4.816   1.799  0.6661  0.0202 -0.4818
 6661TIP3   OH241617   5.111   1.681   3.164  0.0140 -0.4293 -0.4071
 6661TIP3    H141618   5.134   1.767   3.130 -2.4044 -0.5811 -2.8337
 6661TIP3    H241619   5.193   1.644   3.196  1.7980  1.4004 -2.5832
 6662TIP3   OH241620   4.925   2.292   2.859 -0.2611 -0.5899 -0.2721
 6662TIP3    H141621   4.982   2.254   2.925 -1.2723  0.6067  1.3589
 6662TIP3    H241622   4.836   2.272   2.889 -0.7800  1.3248 -0.3830
 6663TIP3   OH241623   4.839   1.716   1.620  0.2961  0.8204  0.1893
 6663TIP3    H141624   4.908   1.658   1.653 -0.6951 -0.8374 -0.5552
 6663TIP3    H241625   4.758   1.676   1.650 -0.4749  1.1810 -1.3409
 6664TIP3   OH241626   1.256   2.686   2.173  0.5785 -0.6194  0.7295
 6664TIP3    H141627   1.270   2.743   2.097  0.4225  1.4326  2.1634
 6664TIP3    H241628   1.340   2.641   2.184  0.7634 -0.5735 -0.3440
 6665TIP3   OH241629   2.050   2.856   0.086 -0.3775  0.5486 -0.2174
 6665TIP3    H141630   1.961   2.821   0.083 -0.7535  1.5248 -0.6134
 6665TIP3    H241631   2.061   2.902   0.003  0.5766  0.2740 -0.2610
 6666TIP3   OH241632   2.764   0.665   0.417  0.4583 -0.3437  0.1167
 6666TIP3    H141633   2.746   0.759   0.423  0.2915 -0.3762  0.1466
 6666TIP3    H241634   2.694   0.624   0.468 -0.9393 -0.6219 -1.8869
 6667TIP3   OH241635   2.241   5.917   2.103  0.3622 -0.0903  0.2239
 6667TIP3    H141636   2.161   5.960   2.072  0.7197  1.2292  1.0598
 6667TIP3    H241637   2.244   5.835   2.053 -0.7808  0.4592 -0.8238
 6668TIP3   OH241638   2.663   5.697   1.048  0.1857 -0.6556  0.2363
 6668TIP3    H141639   2.756   5.714   1.065  0.2176  0.7463 -1.0623
 6668TIP3    H241640   2.618   5.771   1.089 -0.4532 -1.6598  1.4218
 6669TIP3   OH241641   2.695   3.879   1.195 -0.3649 -0.0490 -0.1586
 6669TIP3    H141642   2.695   3.974   1.192  0.1510 -0.0568 -1.0884
 6669TIP3    H241643   2.772   3.854   1.143 -1.6511 -1.0015 -1.7335
 6670TIP3   OH241644   3.951   5.421   0.683 -0.3360  0.5120 -0.3072
 6670TIP3    H141645   3.957   5.424   0.587 -2.2318 -0.7504 -0.5083
 6670TIP3    H241646   3.868   5.464   0.703 -2.8782 -4.0333  0.2337
 6671TIP3   OH241647   4.470   3.642   0.314 -0.4014 -0.4556  0.3717
 6671TIP3    H141648   4.433   3.599   0.391 -2.3426  3.6400  1.9881
 6671TIP3    H241649   4.394   3.663   0.259  0.6136 -0.3924 -1.0703
 6672TIP3   OH241650   2.418   4.993   1.835  0.0359 -0.3506 -0.4297
 6672TIP3    H141651   2.323   4.993   1.821 -0.1614 -1.8547  0.6506
 6672TIP3    H241652   2.451   5.058   1.774 -1.7043  0.2668 -0.7721
 6673TIP3   OH241653   0.827   3.807   0.533 -0.4167 -0.4874  0.1658
 6673TIP3    H141654   0.774   3.874   0.490 -1.0573 -1.3343 -0.3987
 6673TIP3    H241655   0.766   3.734   0.548  0.6605 -1.6434 -0.8716
 6674TIP3   OH241656   4.291   6.428   1.109 -0.5494  0.7460  0.1498
 6674TIP3    H141657   4.299   6.465   1.021  0.2027  0.9979  0.3222
 6674TIP3    H241658   4.312   6.501   1.168  3.6284 -0.4898  0.4835
 6675TIP3   OH241659   4.956   3.474   0.339 -0.5435 -0.3433  0.0417
 6675TIP3    H141660   4.884   3.412   0.330 -1.1215  0.3470 -0.1459
 6675TIP3    H241661   5.013   3.435   0.406 -1.0696 -0.9139  0.1652
 6676TIP3   OH241662   4.981   1.259   2.163 -0.3167 -0.3996 -0.1466
 6676TIP3    H141663   4.989   1.259   2.259 -1.8685  0.6865  0.0148
 6676TIP3    H241664   5.006   1.171   2.137  0.4476 -0.6189  1.2254
 6677TIP3   OH241665   2.691   3.845   8.019  0.0594  0.7284  0.0815
 6677TIP3    H141666   2.625   3.785   8.055  1.0705  1.2488  3.0917
 6677TIP3    H241667   2.655   3.933   8.037  1.1089  1.0118  0.8336
 6678TIP3   OH241668   3.046   0.483   1.390 -0.4701  0.6578 -0.2115
 6678TIP3    H141669   3.138   0.463   1.405 -0.2811  1.6541  0.0156
 6678TIP3    H241670   3.029   0.562   1.442 -1.2756  0.8669 -0.7638
 6679TIP3   OH241671   0.894   0.029   8.444 -0.5323 -0.3305  0.1313
 6679TIP3    H141672   0.887   0.016   8.349 -0.2000  0.7789 -0.0510
 6679TIP3    H241673   0.830  -0.032   8.481  0.4776 -1.9952 -0.7056
 6680TIP3   OH241674   2.144   0.658   0.188  0.0159 -0.5223 -0.2519
 6680TIP3    H141675   2.093   0.585   0.154  1.8608 -1.2689 -1.5902
 6680TIP3    H241676   2.184   0.698   0.110  0.5915  0.7062  0.6338
 6681TIP3   OH241677   6.331   2.018   1.924  0.3221  0.6731 -0.4830
 6681TIP3    H141678   6.323   2.039   2.017  0.3049 -1.3470  0.0298
 6681TIP3    H241679   6.396   2.080   1.890  0.3890  1.3795  0.8890
 6682TIP3   OH241680   3.552   6.574   1.057 -0.4713 -0.9042 -0.4507
 6682TIP3    H141681   3.603   6.599   0.980  2.8585 -2.6313  0.9878
 6682TIP3    H241682   3.538   6.656   1.104  0.1214 -0.2473 -1.3770
 6683TIP3   OH241683   4.404   0.483   7.845 -0.5424 -0.3399  0.2325
 6683TIP3    H141684   4.334   0.428   7.808  0.3544 -0.7334 -0.9479
 6683TIP3    H241685   4.469   0.488   7.775 -0.2950  1.6906  0.5588
 6684TIP3   OH241686   4.439   1.316   1.655  0.9718  0.1719 -0.8735
 6684TIP3    H141687   4.400   1.309   1.568  0.2069  0.4227 -0.5679
 6684TIP3    H241688   4.442   1.410   1.673  0.7049  0.1047 -0.4550
 6685TIP3   OH241689   2.367   1.715   0.008 -0.5810 -0.3689  0.1672
 6685TIP3    H141690   2.332   1.696   0.095 -1.4249 -0.3404 -0.1596
 6685TIP3    H241691   2.309   1.783  -0.026 -0.1890 -0.3048 -0.3774
 6686TIP3   OH241692   6.109   4.330   1.281 -0.1117 -0.0457 -0.3843
 6686TIP3    H141693   6.047   4.279   1.229 -0.5078 -0.4039  0.4249
 6686TIP3    H241694   6.191   4.281   1.273 -0.2630 -0.3048 -0.3708
 6687TIP3   OH241695   4.519   0.232   2.357 -0.0910 -0.6131  0.6577
 6687TIP3    H141696   4.609   0.266   2.351  0.3300 -1.7093  0.3607
 6687TIP3    H241697   4.463   0.306   2.335  0.7675 -0.0330  0.3865
 6688TIP3   OH241698   6.632   5.414   8.437  0.5555  0.3795  0.1325
 6688TIP3    H141699   6.655   5.349   8.504  0.4581  1.1845  0.9627
 6688TIP3    H241700   6.613   5.362   8.359 -2.0146 -0.8261  1.4294
 6689TIP3   OH241701   3.661   2.748   1.164 -0.0035 -0.2050 -0.5422
 6689TIP3    H141702   3.599   2.778   1.230  1.4995 -0.2860  0.9616
 6689TIP3    H241703   3.617   2.674   1.122 -1.8450  1.1523 -1.1299
 6690TIP3   OH241704   0.164   6.823   8.420 -0.1891 -0.0020  0.3456
 6690TIP3    H141705   0.153   6.906   8.466  0.5234  1.0561 -1.2674
 6690TIP3    H241706   0.120   6.836   8.336 -1.2588 -1.7762  0.5737
 6691TIP3   OH241707   5.836   3.611   3.204 -0.1233  0.3741 -0.1679
 6691TIP3    H141708   5.827   3.553   3.280  0.2440 -0.1391 -0.5036
 6691TIP3    H241709   5.879   3.556   3.138 -2.1698  0.1810 -1.4230
 6692TIP3   OH241710   4.887   2.063   8.147  0.7317  0.0145 -0.3212
 6692TIP3    H141711   4.944   2.139   8.156 -0.4100  1.0293 -1.2768
 6692TIP3    H241712   4.923   1.998   8.208  1.3977  1.5152  0.9489
 6693TIP3   OH241713   2.090   3.529   7.412 -0.3961 -0.7822 -0.9151
 6693TIP3    H141714   2.026   3.464   7.384  0.4571 -1.7255 -0.7551
 6693TIP3    H241715   2.128   3.491   7.492  1.1973 -0.8274 -1.6622
 6694TIP3   OH241716   0.429   0.999   1.438 -0.3617  0.0438 -0.0202
 6694TIP3    H141717   0.414   0.932   1.372 -0.1299  0.0010 -0.0305
 6694TIP3    H241718   0.521   0.990   1.462  0.2485  1.6985 -1.5212
 6695TIP3   OH241719   0.897   3.931   1.345 -0.2112 -0.4833  0.2921
 6695TIP3    H141720   0.916   4.016   1.385  0.7863  0.7482 -2.5421
 6695TIP3    H241721   0.804   3.935   1.323 -0.1656 -0.1455  0.1680
 6696TIP3   OH241722   1.922   5.996   1.052 -0.0206  0.4018  0.7131
 6696TIP3    H141723   1.838   5.980   1.009  0.4345 -0.5737  0.1631
 6696TIP3    H241724   1.935   5.921   1.109  0.4192  0.6172  0.9023
 6697TIP3   OH241725   5.256   4.078   1.792 -0.2474  0.4111  0.1210
 6697TIP3    H141726   5.241   4.004   1.851 -2.0351 -0.7597 -1.6379
 6697TIP3    H241727   5.348   4.072   1.768 -0.7818 -2.7326 -1.7071
 6698TIP3   OH241728   2.501   3.616   1.929 -0.0147 -0.5390  0.1782
 6698TIP3    H141729   2.558   3.565   1.872  0.6497 -1.6614  1.7494
 6698TIP3    H241730   2.416   3.614   1.886  0.4115 -1.5112 -0.6721
 6699TIP3   OH241731   6.532   1.774   8.390  0.0865  0.3937 -0.5606
 6699TIP3    H141732   6.604   1.728   8.347  0.5830 -0.7932  1.4138
 6699TIP3    H241733   6.459   1.712   8.385 -0.7133  1.3929 -2.1098
 6700TIP3   OH241734   0.962   1.377   2.228  0.0373 -0.0945  0.3613
 6700TIP3    H141735   1.038   1.433   2.210 -0.2136  0.0647 -0.1944
 6700TIP3    H241736   0.888   1.438   2.235 -0.2121 -0.3452 -0.1033
 6701TIP3   OH241737   1.028   5.807   2.184 -0.3289 -0.6267 -0.2685
 6701TIP3    H141738   1.108   5.775   2.141  0.2592  0.2620  0.1427
 6701TIP3    H241739   1.044   5.792   2.277  0.0784  1.0724 -0.0389
 6702TIP3   OH241740   6.082   3.341   0.392 -0.1655  0.1796  0.2715
 6702TIP3    H141741   6.056   3.267   0.446 -1.4675  0.2559 -0.2257
 6702TIP3    H241742   6.052   3.418   0.440 -3.9197  0.2068 -1.6907
 6703TIP3   OH241743   5.380   5.316   1.316 -0.1379 -0.1978  0.4072
 6703TIP3    H141744   5.343   5.316   1.404 -1.3832 -4.1701  0.0936
 6703TIP3    H241745   5.305   5.332   1.258  0.1368 -0.4030 -0.0097
 6704TIP3   OH241746   6.734   6.901   1.211 -0.0500 -0.3132 -0.2335
 6704TIP3    H141747   6.741   6.825   1.153 -0.0033 -1.1343  0.8017
 6704TIP3    H241748   6.759   6.976   1.157  0.1520 -1.0699 -1.2123
 6705TIP3   OH241749   3.844   2.337   1.404 -0.4764 -0.5973 -0.3530
 6705TIP3    H141750   3.899   2.405   1.365 -2.2760  0.7756 -0.6647
 6705TIP3    H241751   3.787   2.309   1.332 -0.5472 -1.5837  0.0835
 6706TIP3   OH241752   1.520   1.815   2.678 -0.0488 -0.5447 -0.0665
 6706TIP3    H141753   1.431   1.823   2.713  0.7201  1.7967  1.6114
 6706TIP3    H241754   1.565   1.759   2.742  0.3892  0.6431  0.6895
 6707TIP3   OH241755   3.056   0.766   1.486  0.2515 -0.6281  0.2793
 6707TIP3    H141756   3.107   0.844   1.509 -1.0816  0.4870 -0.4199
 6707TIP3    H241757   3.079   0.750   1.394 -1.0513  0.2341 -0.2214
 6708TIP3   OH241758   1.419   5.036   3.554  0.7964 -0.1173 -0.1564
 6708TIP3    H141759   1.419   5.039   3.459  1.8440 -0.6449 -0.1844
 6708TIP3    H241760   1.347   4.977   3.576  1.7186 -1.4961 -0.7019
 6709TIP3   OH241761   0.192   5.938   0.252  0.5787 -0.2202 -0.3055
 6709TIP3    H141762   0.255   6.008   0.267  0.0951 -0.1840  2.0281
 6709TIP3    H241763   0.245   5.863   0.225  1.2269  0.7041 -1.6575
 6710TIP3   OH241764   0.363   3.924   2.237  0.1372 -0.1280  0.6260
 6710TIP3    H141765   0.293   3.870   2.200  1.3048 -0.0897 -1.8183
 6710TIP3    H241766   0.380   3.885   2.322 -0.7472 -2.0854 -0.0340
 6711TIP3   OH241767   5.159   4.919   2.593 -0.0082  0.4016  0.5741
 6711TIP3    H141768   5.161   4.863   2.516 -0.2932  1.3624 -0.1618
 6711TIP3    H241769   5.250   4.945   2.608 -0.1678  1.8694 -0.7319
 6712TIP3   OH241770   1.929   1.099   1.656 -0.4071 -0.2158  0.6125
 6712TIP3    H141771   2.022   1.107   1.634 -0.8495  1.3069 -0.9052
 6712TIP3    H241772   1.920   1.147   1.739 -0.2156  1.6379 -0.4028
 6713TIP3   OH241773   1.737   1.308   2.499  0.4976 -0.4371 -0.5831
 6713TIP3    H141774   1.646   1.293   2.521  0.0104 -0.8858 -2.6535
 6713TIP3    H241775   1.760   1.390   2.544 -1.9791  1.5964 -2.6827
 6714TIP3   OH241776   6.529   3.550   3.228 -0.2426  0.5452 -0.4668
 6714TIP3    H141777   6.611   3.589   3.198  0.0688  0.7013  0.5677
 6714TIP3    H241778   6.540   3.456   3.213  1.0327  0.2940  1.6826
 6715TIP3   OH241779   5.395   4.968   1.102 -0.1767 -0.1733 -0.9549
 6715TIP3    H141780   5.382   5.006   1.190  1.0444 -1.4246 -0.2054
 6715TIP3    H241781   5.423   5.043   1.049  0.0541  0.4218 -0.0372
 6716TIP3   OH241782   6.646   0.234   1.942  0.6605  0.5182 -0.4684
 6716TIP3    H141783   6.609   0.320   1.919  0.7987  1.0739  1.2626
 6716TIP3    H241784   6.712   0.253   2.008 -0.8530 -1.0861  1.6259
 6717TIP3   OH241785   6.030   5.743   1.666  0.2191  0.1324  0.4498
 6717TIP3    H141786   5.948   5.696   1.651 -0.1275  0.6607  0.6596
 6717TIP3    H241787   6.063   5.708   1.748 -1.1951  1.8030  1.8324
 6718TIP3   OH241788   2.060   5.430   2.762 -0.6943  0.2653  0.1258
 6718TIP3    H141789   1.998   5.498   2.791  1.1144  1.0660  2.4038
 6718TIP3    H241790   2.035   5.353   2.813 -0.5642  0.2301  0.1347
 6719TIP3   OH241791   2.073   0.288   0.901  0.0594 -0.6961  0.6462
 6719TIP3    H141792   2.051   0.361   0.958 -0.4095 -0.0045 -0.3746
 6719TIP3    H241793   2.047   0.318   0.813  0.0715 -1.9982  0.1730
 6720TIP3   OH241794   6.152   0.295   1.089  0.4046 -0.1563  0.6442
 6720TIP3    H141795   6.112   0.208   1.094 -3.2437  0.9527 -3.1861
 6720TIP3    H241796   6.171   0.307   0.996  0.9923  3.0512  1.0737
 6721TIP3   OH241797   2.263   6.907   1.692  0.0947  0.1231  0.5985
 6721TIP3    H141798   2.230   6.892   1.604 -1.7727 -1.2849  1.4558
 6721TIP3    H241799   2.255   7.001   1.706 -0.7053  0.2029 -0.3181
 6722TIP3   OH241800   2.058   0.612   2.397  0.3929 -0.0370 -0.3735
 6722TIP3    H141801   1.979   0.665   2.410 -0.0661 -0.9268  0.5565
 6722TIP3    H241802   2.090   0.638   2.311 -0.2210  1.2329 -0.2345
 6723TIP3   OH241803   6.858   4.806   1.693  0.0043  0.0821  0.0147
 6723TIP3    H141804   6.811   4.871   1.745  0.3157 -0.3706  0.8772
 6723TIP3    H241805   6.838   4.829   1.602 -1.7274  0.0130  0.3497
 6724TIP3   OH241806   1.388   3.583   3.047  0.3065 -0.1392  0.9873
 6724TIP3    H141807   1.478   3.575   3.017 -0.1617 -0.4678 -0.3918
 6724TIP3    H241808   1.347   3.644   2.986 -0.5801 -0.5275  1.1735
 6725TIP3   OH241809   0.410   1.617   3.496 -0.2125  0.3445  0.5206
 6725TIP3    H141810   0.409   1.587   3.587  0.3422  0.6871  0.6426
 6725TIP3    H241811   0.375   1.543   3.446 -0.2161  0.0371  0.9742
 6726TIP3   OH241812   1.021   6.632   0.656  0.0360  0.8145  0.4752
 6726TIP3    H141813   0.995   6.654   0.745 -3.0281 -0.4617  0.0044
 6726TIP3    H241814   0.963   6.684   0.600 -0.6064 -1.1041 -0.7097
 6727TIP3   OH241815   5.157   3.392   0.517 -0.1741 -0.4089  0.5928
 6727TIP3    H141816   5.215   3.455   0.475 -0.6890 -1.0444 -1.1474
 6727TIP3    H241817   5.212   3.352   0.585  0.9694  0.0333 -0.0310
 6728TIP3   OH241818   6.012   1.660   7.973 -0.7402  0.1948 -0.0017
 6728TIP3    H141819   6.060   1.739   7.950  0.2800 -0.0856  1.0947
 6728TIP3    H241820   6.030   1.600   7.901 -0.5452  0.5462 -0.2469
 6729TIP3   OH241821   6.141   2.668   0.462 -0.6703  0.0618  0.0157
 6729TIP3    H141822   6.172   2.725   0.392  0.9552 -1.4479 -0.5709
 6729TIP3    H241823   6.099   2.595   0.416 -0.6817 -0.3424  0.6598
 6730TIP3   OH241824   2.577   5.021   2.866 -0.5345  0.2864 -0.2738
 6730TIP3    H141825   2.563   4.957   2.796  1.2026  0.6059 -0.9785
 6730TIP3    H241826   2.554   5.105   2.827  0.0560  0.4170 -0.3579
 6731TIP3   OH241827   0.647   3.956   2.116 -0.1724  0.6353  0.0071
 6731TIP3    H141828   0.733   3.967   2.158  0.1225 -0.8429 -0.1613
 6731TIP3    H241829   0.637   4.034   2.061  0.5582  1.3645  0.8876
 6732TIP3   OH241830   3.583   6.711   1.646 -0.4021 -0.5782  1.0051
 6732TIP3    H141831   3.503   6.673   1.682 -1.5078  2.0188  1.4875
 6732TIP3    H241832   3.596   6.792   1.695  0.9423  0.4872 -0.9540
 6733TIP3   OH241833   2.682   3.391   7.385  0.2819  0.1493  0.0476
 6733TIP3    H141834   2.741   3.466   7.391 -0.6483  0.7714  2.0499
 6733TIP3    H241835   2.715   3.328   7.449 -0.5014  0.0011  0.3256
 6734TIP3   OH241836   1.785   0.171   8.415  0.2349  0.4477  0.1779
 6734TIP3    H141837   1.760   0.082   8.437  2.9395 -0.4153  0.2038
 6734TIP3    H241838   1.784   0.218   8.499  0.7905 -0.1267  0.5121
 6735TIP3   OH241839   4.754   0.739   3.102 -0.3573  0.0640  0.2675
 6735TIP3    H141840   4.700   0.782   3.168 -1.0897  0.9623 -0.8829
 6735TIP3    H241841   4.785   0.659   3.145 -1.8306 -0.0018  1.2763
 6736TIP3   OH241842   2.179   5.544   7.259  0.1478  0.3777 -0.4520
 6736TIP3    H141843   2.088   5.533   7.289  0.5993  1.5018  1.5120
 6736TIP3    H241844   2.171   5.581   7.172 -1.2835 -0.2132 -0.6049
 6737TIP3   OH241845   2.365   2.528   0.624  0.1444 -0.0756 -0.0867
 6737TIP3    H141846   2.344   2.621   0.615  0.6109 -0.0734 -1.3174
 6737TIP3    H241847   2.306   2.497   0.693  0.1222  1.1674  0.4801
 6738TIP3   OH241848   5.088   0.739   2.107 -0.2912  0.1750 -0.1742
 6738TIP3    H141849   5.051   0.779   2.028  0.3045 -1.7260 -1.4763
 6738TIP3    H241850   5.180   0.765   2.106 -0.9809  3.3812  2.0918
 6739TIP3   OH241851   2.101   4.865   8.320  0.0267  0.4723  0.7375
 6739TIP3    H141852   2.117   4.774   8.293 -0.0630  1.0225 -1.3663
 6739TIP3    H241853   2.129   4.917   8.244 -0.3564  2.1765  1.7241
 6740TIP3   OH241854   3.821   6.326   8.068 -0.3242  0.4118 -0.1897
 6740TIP3    H141855   3.757   6.284   8.010 -0.9231  0.3420  0.5179
 6740TIP3    H241856   3.799   6.295   8.156  0.9962 -0.0263  0.0199
 6741TIP3   OH241857   2.739   5.001   8.440  0.2492  0.1148 -0.5774
 6741TIP3    H141858   2.731   5.070   8.505 -0.1684  0.9927 -1.5297
 6741TIP3    H241859   2.806   4.943   8.475 -0.1320  0.4329  0.7362
 6742TIP3   OH241860   6.373   2.403   8.247 -0.1006  0.4109  0.2927
 6742TIP3    H141861   6.279   2.415   8.262 -0.2610 -0.2281 -0.1233
 6742TIP3    H241862   6.398   2.335   8.309  0.2866  1.2075  1.0217
 6743TIP3   OH241863   1.679   3.323   8.381  0.1269 -0.0530  0.0583
 6743TIP3    H141864   1.671   3.342   8.474  0.9275 -2.9104  0.7746
 6743TIP3    H241865   1.592   3.293   8.355  0.1565 -0.1575  0.0831
 6744TIP3   OH241866   6.334   6.379   0.383  0.2255  0.6124 -0.4579
 6744TIP3    H141867   6.264   6.343   0.330 -0.0298 -0.6606  0.6805
 6744TIP3    H241868   6.344   6.469   0.353  0.8863 -0.3600 -3.4228
 6745TIP3   OH241869   5.828   4.726   7.952 -0.5211  0.0509 -0.1297
 6745TIP3    H141870   5.872   4.641   7.946  1.2554  0.6656  2.4409
 6745TIP3    H241871   5.735   4.705   7.957 -0.0743 -1.8636  1.2491
 6746TIP3   OH241872   1.049   4.645   0.851  0.3064  0.2432  0.7675
 6746TIP3    H141873   1.045   4.565   0.798  1.5045  0.8924 -0.3776
 6746TIP3    H241874   1.130   4.636   0.900  0.0368  0.4047  1.2434
 6747TIP3   OH241875   0.477   6.620   1.537 -0.3687  0.4675 -0.4729
 6747TIP3    H141876   0.403   6.681   1.541 -0.6860  0.2207 -1.8822
 6747TIP3    H241877   0.554   6.675   1.554 -0.9088  0.5031  2.2632
 6748TIP3   OH241878   4.056   3.819   8.092  0.1893  0.3906 -0.3702
 6748TIP3    H141879   4.098   3.850   8.012 -0.2370 -0.3105 -0.8850
 6748TIP3    H241880   3.997   3.749   8.062  1.0238 -0.8217  0.6987
 6749TIP3   OH241881   5.304   6.850   8.110  0.3240  0.5165  0.0429
 6749TIP3    H141882   5.365   6.784   8.142  0.0602 -0.0261 -0.5334
 6749TIP3    H241883   5.359   6.919   8.074  0.6057  0.2549 -0.0351
 6750TIP3   OH241884   0.874   4.150   1.911 -0.1561  0.0575 -0.1142
 6750TIP3    H141885   0.872   4.058   1.885 -1.0146  0.1122 -0.2643
 6750TIP3    H241886   0.786   4.167   1.945 -1.0270  1.6065 -2.8492
 6751TIP3   OH241887   0.633   5.346   0.836  0.0947  0.6494  0.0496
 6751TIP3    H141888   0.575   5.350   0.759  2.0517  0.8912 -1.4880
 6751TIP3    H241889   0.626   5.256   0.866  0.0760  0.2516 -1.0718
 6752TIP3   OH241890   6.452   3.504   2.232 -0.0850  0.0755  0.5435
 6752TIP3    H141891   6.541   3.538   2.245 -0.1562  0.7156 -0.5708
 6752TIP3    H241892   6.456   3.415   2.267  0.7906  0.3491  1.1884
 6753TIP3   OH241893   5.751   6.457   0.085  0.3161 -0.1687 -0.2918
 6753TIP3    H141894   5.706   6.468   0.002  0.4926  1.3886 -0.2138
 6753TIP3    H241895   5.694   6.400   0.136 -1.1216  0.9840 -0.5437
 6754TIP3   OH241896   5.442   2.143   0.343  0.4182  0.3020 -0.0524
 6754TIP3    H141897   5.438   2.133   0.438 -1.0343  0.7521 -0.0362
 6754TIP3    H241898   5.351   2.136   0.315  0.8186  0.2930 -1.4042
 6755TIP3   OH241899   0.103   3.574   7.348  0.1310 -0.0971 -0.5895
 6755TIP3    H141900   0.048   3.598   7.274  0.9361 -1.3568 -1.6418
 6755TIP3    H241901   0.193   3.592   7.319  0.3845  0.8137  0.6575
 6756TIP3   OH241902   6.725   2.298   7.913 -0.1511  0.0346  0.7406
 6756TIP3    H141903   6.679   2.334   7.837 -1.7204  0.5296  1.8521
 6756TIP3    H241904   6.773   2.223   7.879  2.1891  2.3007 -1.4194
 6757TIP3   OH241905   3.228   6.736   2.276  0.3010  0.0615 -0.1715
 6757TIP3    H141906   3.196   6.821   2.306 -0.3091 -0.6099  1.1529
 6757TIP3    H241907   3.150   6.693   2.240  0.6219  0.0610 -0.8984
 6758TIP3   OH241908   1.130   6.259   2.635  0.0325 -0.3545 -0.4468
 6758TIP3    H141909   1.139   6.257   2.731 -1.1985  1.5400 -0.2325
 6758TIP3    H241910   1.112   6.168   2.611  0.8120 -0.9546  1.0492
 6759TIP3   OH241911   5.573   0.144   1.668  0.1883 -0.7394  0.2330
 6759TIP3    H141912   5.629   0.067   1.662  0.9572 -0.2682  1.1030
 6759TIP3    H241913   5.631   0.217   1.647 -0.7501 -0.4430 -1.5472
 6760TIP3   OH241914   2.980   5.041   0.819 -0.0717  0.7608  0.0709
 6760TIP3    H141915   3.051   4.981   0.796  0.0681 -0.0872  2.4352
 6760TIP3    H241916   3.001   5.122   0.773  1.5655  0.0334 -0.5340
 6761TIP3   OH241917   4.220   2.438   8.109  0.5932 -0.2563 -0.2241
 6761TIP3    H141918   4.300   2.487   8.130 -0.1513  0.1447  1.9065
 6761TIP3    H241919   4.241   2.347   8.133  0.2510 -0.0569  0.8763
 6762TIP3   OH241920   5.370   0.970   0.101  0.4340 -0.2897 -0.2079
 6762TIP3    H141921   5.302   0.971   0.034  0.5072  1.7992 -0.3309
 6762TIP3    H241922   5.440   0.916   0.065  0.2336  0.3432 -1.6052
 6763TIP3   OH241923   1.304   5.508   2.650  0.1748  0.0007 -0.4682
 6763TIP3    H141924   1.265   5.586   2.689  0.5069  1.1726 -2.3522
 6763TIP3    H241925   1.250   5.436   2.682 -2.0014  1.3076 -0.9915
 6764TIP3   OH241926   5.979   1.127   0.012  0.1402  0.1537  0.5287
 6764TIP3    H141927   5.912   1.079  -0.036  0.2817  0.9080 -0.4598
 6764TIP3    H241928   6.060   1.078  -0.006 -0.0032 -0.3016  1.0760
 6765TIP3   OH241929   2.562   0.598   7.352  0.1870 -0.0419  0.3044
 6765TIP3    H141930   2.519   0.615   7.269 -0.1163  2.6363  0.9184
 6765TIP3    H241931   2.493   0.608   7.418  0.8092 -0.2328  1.0079
 6766TIP3   OH241932   4.557   1.852   1.008  0.3110  0.0680 -0.5882
 6766TIP3    H141933   4.567   1.940   0.972 -0.3294  0.5281  0.3062
 6766TIP3    H241934   4.462   1.840   1.016  0.4002 -0.5872 -0.4225
 6767TIP3   OH241935   1.779   4.145   1.402 -0.2913 -0.1064 -0.0602
 6767TIP3    H141936   1.774   4.213   1.469 -3.2382 -0.6228  0.3498
 6767TIP3    H241937   1.688   4.122   1.384  0.5191 -1.8633 -2.3507
 6768TIP3   OH241938   2.650   2.114   6.866  0.3423  0.3645  0.1568
 6768TIP3    H141939   2.625   2.182   6.929 -0.2890  0.3116 -0.0365
 6768TIP3    H241940   2.630   2.151   6.781  0.9495  0.3271 -0.0101
 6769TIP3   OH241941   6.675   5.001   0.941  0.1697 -0.0564 -0.1516
 6769TIP3    H141942   6.657   4.945   0.865  3.5223 -2.0835  0.3528
 6769TIP3    H241943   6.765   5.032   0.927  0.8604 -0.4016  2.8881
 6770TIP3   OH241944   4.466   1.668   8.238  0.3572  0.6983 -0.5159
 6770TIP3    H141945   4.496   1.633   8.155  2.6193  1.3655 -0.0515
 6770TIP3    H241946   4.525   1.741   8.256 -0.2733  0.7776  1.5012
 6771TIP3   OH241947   6.331   0.334   7.980  0.2190 -0.3670  0.4030
 6771TIP3    H141948   6.303   0.245   7.960 -1.2084  0.3412 -0.9716
 6771TIP3    H241949   6.316   0.383   7.899  1.7338  0.9669  0.8639
 6772TIP3   OH241950   5.771   3.556   2.242 -0.5871  0.2564 -0.4835
 6772TIP3    H141951   5.728   3.638   2.216 -1.0002  0.3881  0.5767
 6772TIP3    H241952   5.703   3.489   2.232 -1.1331  0.4946  1.3810
 6773TIP3   OH241953   3.354   1.545   0.285 -0.1532 -0.0140  0.1899
 6773TIP3    H141954   3.270   1.576   0.251 -0.5200 -0.6510  0.4712
 6773TIP3    H241955   3.345   1.554   0.380  0.7788  1.5569  0.1613
 6774TIP3   OH241956   1.738   3.839   1.536 -0.3198 -0.0529  0.7445
 6774TIP3    H141957   1.814   3.804   1.583 -0.7777 -0.9269  0.8650
 6774TIP3    H241958   1.667   3.833   1.600 -0.4285  1.0435  0.7350
 6775TIP3   OH241959   3.128   2.381   8.515 -0.3297 -0.0279 -0.6134
 6775TIP3    H141960   3.070   2.329   8.570 -0.3958 -0.1022 -0.7526
 6775TIP3    H241961   3.121   2.341   8.428  0.4955 -0.4998 -0.4762
 6776TIP3   OH241962   2.949   4.453   1.591  0.0101  0.4964  1.0644
 6776TIP3    H141963   2.991   4.426   1.673 -0.7439  0.2343  1.3742
 6776TIP3    H241964   2.879   4.512   1.618  0.0683  0.7936  0.5702
 6777TIP3   OH241965   4.461   5.461   7.947 -0.2427 -0.3951  1.0047
 6777TIP3    H141966   4.405   5.485   7.873  1.9625  2.3215  0.0808
 6777TIP3    H241967   4.418   5.500   8.023  0.3350  1.7343  0.2929
 6778TIP3   OH241968   5.685   6.613   1.463 -0.2251  0.2970 -0.0753
 6778TIP3    H141969   5.677   6.529   1.508  0.7209  0.3258  0.1766
 6778TIP3    H241970   5.780   6.626   1.454 -0.1329  2.7456  2.6337
 6779TIP3   OH241971   1.641   5.864   1.485 -0.4744 -0.1029 -0.4040
 6779TIP3    H141972   1.553   5.903   1.478  0.1818  1.3844 -0.9230
 6779TIP3    H241973   1.697   5.925   1.436  0.8623 -0.9665  0.0198
 6780TIP3   OH241974   3.193   2.243   7.796  0.3875  0.2432 -0.2479
 6780TIP3    H141975   3.252   2.172   7.824  2.0347  0.8601 -1.9153
 6780TIP3    H241976   3.112   2.198   7.773  0.7416 -0.8593  0.5193
 6781TIP3   OH241977   6.140   1.719   0.037 -0.2972 -0.5896 -0.6634
 6781TIP3    H141978   6.231   1.693   0.048 -0.3943 -0.5248  0.4172
 6781TIP3    H241979   6.121   1.772   0.114  0.2801  3.9675 -3.3042
 6782TIP3   OH241980   2.343   5.568   2.482  0.5401  0.4086  0.2348
 6782TIP3    H141981   2.275   5.627   2.514  0.3892 -0.0011  0.6978
 6782TIP3    H241982   2.415   5.579   2.545  0.8989  0.8384 -0.2514
 6783TIP3   OH241983   3.116   2.491   0.399 -0.1373 -0.1874 -0.2897
 6783TIP3    H141984   3.092   2.507   0.307 -0.5346 -1.3795 -0.4138
 6783TIP3    H241985   3.060   2.550   0.449 -2.2771 -1.7746 -0.6699
 6784TIP3   OH241986   1.345   6.906   2.668  0.2419 -0.7275  0.5385
 6784TIP3    H141987   1.416   6.862   2.620  0.5630 -1.9944  2.0811
 6784TIP3    H241988   1.354   6.875   2.758 -0.5995  1.2455  1.3570
 6785TIP3   OH241989   1.751   6.491   8.217 -0.2855  0.0259 -0.1565
 6785TIP3    H141990   1.737   6.490   8.312 -4.0006  0.6910 -0.5646
 6785TIP3    H241991   1.740   6.583   8.192 -0.5445 -0.3165 -1.3569
 6786TIP3   OH241992   6.834   2.458   8.364 -0.3523 -0.2922  0.3548
 6786TIP3    H141993   6.825   2.472   8.270 -0.3192 -0.5232  0.3157
 6786TIP3    H241994   6.745   2.444   8.395 -0.1886 -2.5304 -0.0186
 6787TIP3   OH241995   3.869   3.274   3.178  0.7037  0.1394 -0.0033
 6787TIP3    H141996   3.879   3.347   3.117  0.3058 -0.4712 -0.8272
 6787TIP3    H241997   3.949   3.222   3.167 -0.0373 -0.8113 -1.1917
 6788TIP3   OH241998   1.715   4.723   7.768  0.6950  0.2647  0.7489
 6788TIP3    H141999   1.766   4.786   7.818  0.8586  0.0153  0.8978
 6788TIP3    H242000   1.779   4.657   7.740  0.7993  0.9084 -0.6236
 6789TIP3   OH242001   0.587   2.332   0.013  0.4266 -0.0207  0.6103
 6789TIP3    H142002   0.609   2.318  -0.079  0.3991 -2.0146  0.8717
 6789TIP3    H242003   0.496   2.305   0.021  0.7439 -0.9258  1.4150
 6790TIP3   OH242004   5.522   1.209   0.261  0.3660  0.1253  0.9068
 6790TIP3    H142005   5.481   1.206   0.174  1.2501  1.3302  0.4210
 6790TIP3    H242006   5.589   1.140   0.257 -0.1939 -0.4338  0.9654
 6791TIP3   OH242007   5.262   2.497   2.434  0.5488  0.4875  0.2726
 6791TIP3    H142008   5.308   2.480   2.352  0.1547  1.1520 -0.0996
 6791TIP3    H242009   5.251   2.592   2.435  0.3595  0.4612  0.9963
 6792TIP3   OH242010   5.557   4.866   7.932 -0.6100 -0.4082  0.2241
 6792TIP3    H142011   5.466   4.839   7.927 -1.4641  2.1291  0.7326
 6792TIP3    H242012   5.573   4.914   7.850 -0.2553  0.5541  0.8389
 6793TIP3   OH242013   0.747   5.723   0.411  0.1658 -0.1192 -0.4102
 6793TIP3    H142014   0.802   5.795   0.439  0.1521 -0.3931  0.3412
 6793TIP3    H242015   0.809   5.654   0.386  0.1909 -0.6406  0.9919
 6794TIP3   OH242016   4.586   1.798   1.510 -0.0273 -0.0176  0.6497
 6794TIP3    H142017   4.583   1.890   1.482 -1.6643  0.0903  1.0636
 6794TIP3    H242018   4.672   1.767   1.483 -0.2878  0.9953 -1.5498
 6795TIP3   OH242019   4.152   0.584   2.651 -0.2532  0.2463 -0.3615
 6795TIP3    H142020   4.242   0.551   2.647 -0.4110 -0.0534 -2.6359
 6795TIP3    H242021   4.161   0.679   2.642 -0.1609  0.2652 -0.1002
 6796TIP3   OH242022   1.410   6.696   7.214 -0.2622  0.3776  0.1001
 6796TIP3    H142023   1.349   6.750   7.266  0.8410  1.2794  0.4972
 6796TIP3    H242024   1.360   6.675   7.134 -0.7674  1.9427 -0.0432
 6797TIP3   OH242025   2.181   1.934   0.563  0.8175  0.3649  0.0989
 6797TIP3    H142026   2.230   1.978   0.633  0.5721  0.7026  0.0633
 6797TIP3    H242027   2.188   1.992   0.488 -1.2388  1.4310  0.6267
 6798TIP3   OH242028   2.970   4.717   2.304  0.3178 -0.1208  0.3092
 6798TIP3    H142029   2.956   4.808   2.330 -0.2067 -0.3469  0.8361
 6798TIP3    H242030   2.887   4.689   2.265 -0.0028 -0.7906  1.4237
 6799TIP3   OH242031   6.661   4.264   2.991  0.4190 -0.2350  0.1063
 6799TIP3    H142032   6.639   4.221   2.908 -1.2701  0.4858  0.1294
 6799TIP3    H242033   6.672   4.356   2.969 -3.0636  0.5570  1.0013
 6800TIP3   OH242034   1.269   5.334   7.694  0.0322  0.2045  0.4633
 6800TIP3    H142035   1.228   5.268   7.750  1.3606  0.6738  2.0435
 6800TIP3    H242036   1.275   5.292   7.608 -1.7959 -0.6311  0.7070
 6801TIP3   OH242037   4.459   3.338   0.691  0.5111 -0.1052 -0.5541
 6801TIP3    H142038   4.451   3.261   0.747 -2.5213 -0.2552 -1.0156
 6801TIP3    H242039   4.447   3.306   0.602  2.3421  0.5363 -1.0813
 6802TIP3   OH242040   5.638   1.913   1.594 -0.6377 -0.1225  0.0449
 6802TIP3    H142041   5.623   1.820   1.610  0.7035 -0.0640  2.0129
 6802TIP3    H242042   5.604   1.928   1.506 -2.6764 -2.0342  0.4044
 6803TIP3   OH242043   5.584   6.018   0.025 -0.1064  0.1305  0.4717
 6803TIP3    H142044   5.631   6.084  -0.026 -0.2569  0.3694  0.6371
 6803TIP3    H242045   5.631   6.014   0.108  0.1106 -0.2236  0.3291
 6804TIP3   OH242046   3.524   0.392   7.969  0.5276  0.1107  0.1221
 6804TIP3    H142047   3.603   0.409   7.917  0.7686 -0.0868  0.4141
 6804TIP3    H242048   3.478   0.475   7.972 -0.1149 -0.1405 -1.4203
 6805TIP3   OH242049   1.233   0.818   8.117 -0.5250 -0.2738 -0.6402
 6805TIP3    H142050   1.310   0.800   8.063 -0.2138  0.0040 -0.2952
 6805TIP3    H242051   1.161   0.775   8.071 -0.2145 -0.2912 -1.1184
 6806TIP3   OH242052   4.162   4.171   8.008 -0.0935  0.0967  0.5658
 6806TIP3    H142053   4.242   4.187   8.058 -0.4467 -0.3366  1.2960
 6806TIP3    H242054   4.179   4.089   7.961 -0.4665 -0.5483  1.5223
 6807TIP3   OH242055   3.821   6.142   1.404 -0.2100 -0.2828  0.7871
 6807TIP3    H142056   3.769   6.138   1.485 -2.3352  1.2161 -0.3863
 6807TIP3    H242057   3.843   6.235   1.396 -0.6682 -0.2837 -0.6846
 6808TIP3   OH242058   4.009   6.640   3.330 -0.4683  0.3493  0.3651
 6808TIP3    H142059   4.059   6.630   3.249 -1.1924 -0.3263 -0.0072
 6808TIP3    H242060   4.048   6.716   3.373 -0.3511  0.9818 -0.8253
 6809TIP3   OH242061   3.453   6.597   7.983  0.2930 -0.0444 -0.4457
 6809TIP3    H142062   3.466   6.514   8.029 -1.0135 -1.4047 -2.3724
 6809TIP3    H242063   3.534   6.646   7.997  0.7122 -1.2241  1.5368
 6810TIP3   OH242064   1.938   4.575   7.752  0.2769 -0.3272 -0.2142
 6810TIP3    H142065   2.020   4.551   7.794 -0.3705 -2.4312 -0.0279
 6810TIP3    H242066   1.959   4.654   7.701  1.9832  0.1048  1.0536
 6811TIP3   OH242067   0.419   5.683   1.694 -0.1982 -0.0891  0.0665
 6811TIP3    H142068   0.480   5.747   1.656 -1.9974  0.2873 -2.4974
 6811TIP3    H242069   0.363   5.658   1.621 -2.7658 -0.8161  2.1466
 6812TIP3   OH242070   5.989   2.565   0.276  0.1893 -0.0010 -0.3137
 6812TIP3    H142071   5.919   2.532   0.219  0.4691 -0.7503 -0.2285
 6812TIP3    H242072   6.010   2.651   0.240 -1.6763  0.8272  0.4473
 6813TIP3   OH242073   4.096   4.192   7.238 -0.2175 -0.5074 -0.0357
 6813TIP3    H142074   4.133   4.247   7.169 -0.5022 -1.0470 -0.6311
 6813TIP3    H242075   4.002   4.212   7.238  0.0585  1.0212  1.6189
 6814TIP3   OH242076   5.512   4.091   8.536  0.7372 -0.3172  0.4772
 6814TIP3    H142077   5.482   4.113   8.624  0.4115 -0.2545  0.3524
 6814TIP3    H242078   5.444   4.035   8.501 -0.0914  1.1822 -0.4236
 6815TIP3   OH242079   2.299   5.208   0.065 -0.5458  0.4179  0.3853
 6815TIP3    H142080   2.257   5.294   0.074 -0.2784  0.6465 -0.4075
 6815TIP3    H242081   2.258   5.170  -0.013 -0.5207 -0.0965  0.6197
 6816TIP3   OH242082   5.079   0.475   0.567  0.3167 -0.1209  0.1644
 6816TIP3    H142083   5.135   0.552   0.556  1.5233 -0.4220  3.2220
 6816TIP3    H242084   4.993   0.510   0.590 -0.0126  0.2997 -1.5709
 6817TIP3   OH242085   4.759   1.814   8.339 -0.1149 -0.5692 -0.1348
 6817TIP3    H142086   4.674   1.858   8.335 -0.1579 -0.4784  1.2927
 6817TIP3    H242087   4.787   1.824   8.430  2.2834  0.9692 -0.9356
 6818TIP3   OH242088   0.057   2.854   2.601 -0.1757 -0.2843 -0.4078
 6818TIP3    H142089   0.081   2.773   2.645  0.2150 -0.5342 -1.0603
 6818TIP3    H242090  -0.035   2.842   2.578 -0.1944 -0.4263 -0.2598
 6819TIP3   OH242091   3.938   6.359   3.323  0.0169 -0.6662  0.1864
 6819TIP3    H142092   4.018   6.319   3.287 -0.7904 -0.0908 -2.4523
 6819TIP3    H242093   3.956   6.453   3.323  0.0690 -0.6610  1.5785
 6820TIP3   OH242094   3.848   5.888   3.473 -0.2407  0.1088 -0.5560
 6820TIP3    H142095   3.881   5.803   3.444  1.2258  0.6973 -0.7189
 6820TIP3    H242096   3.853   5.884   3.569 -2.2604 -0.7483 -0.4316
 6821TIP3   OH242097   1.911   5.558   7.298 -0.7218  0.2702 -0.1629
 6821TIP3    H142098   1.852   5.483   7.301 -1.4663  0.8605  0.0342
 6821TIP3    H242099   1.854   5.634   7.290 -0.1086  1.0088  1.8808
 6822TIP3   OH242100   2.724   5.898   3.504  0.0678  0.2159  0.1107
 6822TIP3    H142101   2.783   5.851   3.563  1.7945  0.7420 -1.1330
 6822TIP3    H242102   2.777   5.916   3.427 -1.5313  1.3614 -0.7644
 6823TIP3   OH242103   2.473   4.097   0.597  0.0766  0.2583  0.0118
 6823TIP3    H142104   2.568   4.107   0.587  0.0904  0.3088  0.1878
 6823TIP3    H242105   2.461   4.069   0.688 -0.0026 -0.7892 -0.3082
 6824TIP3   OH242106   3.447   2.997   8.511 -0.1638 -0.3354  0.5612
 6824TIP3    H142107   3.481   2.930   8.571  0.6337 -0.3254  0.1443
 6824TIP3    H242108   3.524   3.026   8.462 -0.4019  1.2535  1.0793
 6825TIP3   OH242109   3.648   1.290   0.798 -0.3736  0.2869  0.7909
 6825TIP3    H142110   3.686   1.328   0.719 -0.6883 -0.0868  0.4567
 6825TIP3    H242111   3.712   1.309   0.867  0.7369 -0.8970  0.1181
 6826TIP3   OH242112   4.457   4.289   1.901  0.2062  0.5356 -0.7130
 6826TIP3    H142113   4.440   4.321   1.813 -0.1645  2.1581 -0.0945
 6826TIP3    H242114   4.546   4.319   1.921  0.1277  0.5554 -0.3819
 6827TIP3   OH242115   3.164   4.826   0.152 -0.1365  0.4771 -0.2759
 6827TIP3    H142116   3.180   4.919   0.133 -0.0479  0.3253 -0.9512
 6827TIP3    H242117   3.192   4.816   0.243 -1.9989  1.5611  0.4635
 6828TIP3   OH242118   6.767   4.698   3.043  0.1671  0.4644 -0.4862
 6828TIP3    H142119   6.701   4.764   3.022  0.4627  0.7612 -0.4915
 6828TIP3    H242120   6.717   4.624   3.077 -0.2319  0.3915 -1.2101
 6829TIP3   OH242121   5.362   1.811   0.715 -0.1442 -0.0432  0.3294
 6829TIP3    H142122   5.281   1.809   0.766  0.8350 -0.8171  1.9281
 6829TIP3    H242123   5.432   1.804   0.780  1.3391  2.6384 -0.8004
 6830TIP3   OH242124   1.894   3.026   1.963  0.0948  0.1549 -0.9203
 6830TIP3    H142125   1.860   2.995   1.879 -2.2392 -0.6124  0.2156
 6830TIP3    H242126   1.850   3.110   1.977  0.1909  0.1085 -0.3004
 6831TIP3   OH242127   6.073   1.435   3.239  0.3745  0.6429 -0.4981
 6831TIP3    H142128   6.049   1.471   3.154  1.6355  0.8028 -0.8101
 6831TIP3    H242129   6.045   1.501   3.302  1.0798  1.3701 -0.9360
 6832TIP3   OH242130   1.334   5.306   1.406 -0.0353  0.1301  0.8931
 6832TIP3    H142131   1.271   5.237   1.428  0.7207 -1.1341 -0.6491
 6832TIP3    H242132   1.370   5.335   1.489 -1.3778 -0.3519  1.6672
 6833TIP3   OH242133   6.187   1.646   8.423 -0.8383  0.5867  0.4727
 6833TIP3    H142134   6.257   1.581   8.425  0.5996  1.9697 -1.2027
 6833TIP3    H242135   6.164   1.660   8.514 -0.6298 -1.6344  0.9295
 6834TIP3   OH242136   6.241   5.083   8.054  0.1728 -0.5213 -0.3243
 6834TIP3    H142137   6.307   5.020   8.025  1.8746  0.4562  1.2115
 6834TIP3    H242138   6.243   5.152   7.988  2.1688  0.4432  0.6414
 6835TIP3   OH242139   4.845   2.910   2.119 -0.3090  0.2868  0.4823
 6835TIP3    H142140   4.758   2.875   2.133 -1.2015  1.9215 -0.6630
 6835TIP3    H242141   4.881   2.858   2.047 -0.2559 -0.4978  1.0675
 6836TIP3   OH242142   3.081   6.466   8.091 -0.4335 -0.2011 -0.0874
 6836TIP3    H142143   3.045   6.413   8.162 -0.4677 -0.0553  0.0050
 6836TIP3    H242144   3.043   6.430   8.012 -0.7934 -0.0394  0.0109
 6837TIP3   OH242145   1.712   5.891   0.289 -0.0735 -0.2058 -0.1117
 6837TIP3    H142146   1.728   5.825   0.356 -0.6910 -1.4692 -1.1483
 6837TIP3    H242147   1.746   5.973   0.326  0.8711 -1.1330  1.1415
 6838TIP3   OH242148   1.384   5.110   2.352 -0.1981  0.3214  0.3546
 6838TIP3    H142149   1.437   5.057   2.413  0.1978  1.7516  1.2989
 6838TIP3    H242150   1.294   5.081   2.367  0.2422 -2.4074 -1.5250
 6839TIP3   OH242151   2.354   0.194   2.154  0.2891  0.1438 -0.3597
 6839TIP3    H142152   2.327   0.262   2.216 -0.4223  0.0671 -0.5717
 6839TIP3    H242153   2.439   0.222   2.121  0.5537  0.3172  0.4576
 6840TIP3   OH242154   2.882   6.610   8.587 -0.1691  0.2353  0.3542
 6840TIP3    H142155   2.826   6.554   8.533 -0.7216  0.0181  1.1425
 6840TIP3    H242156   2.827   6.685   8.609  1.0668  2.0242 -2.1132
 6841TIP3   OH242157   4.470   3.244   0.429 -0.2269  0.7411  0.3094
 6841TIP3    H142158   4.418   3.324   0.420 -0.0716  0.6131 -2.7230
 6841TIP3    H242159   4.431   3.183   0.366  1.1292 -0.7483  0.8424
 6842TIP3   OH242160   4.764   4.873   2.302  0.0847 -0.1334  0.2678
 6842TIP3    H142161   4.824   4.927   2.251 -0.9369 -0.3475 -1.2370
 6842TIP3    H242162   4.686   4.865   2.247 -0.3583 -1.9399  1.0596
 6843TIP3   OH242163   5.082   3.352   0.895  0.3958 -0.8711 -0.0563
 6843TIP3    H142164   5.066   3.311   0.980  1.9608  0.7725  1.1168
 6843TIP3    H242165   5.111   3.280   0.838  1.2268 -1.7068  1.3780
 6844TIP3   OH242166   0.353   6.553   3.374 -0.0405 -0.4158 -0.5567
 6844TIP3    H142167   0.322   6.462   3.371 -0.4578 -0.3403  0.8434
 6844TIP3    H242168   0.441   6.546   3.413  0.3829 -0.3083 -1.4651
 6845TIP3   OH242169   5.356   3.219   0.661 -0.7128  0.1243  0.4180
 6845TIP3    H142170   5.415   3.185   0.593 -1.5253  1.4552 -1.0395
 6845TIP3    H242171   5.407   3.286   0.705 -0.3250 -0.4436  0.8441
 6846TIP3   OH242172   0.637   6.536   0.335  0.0016  0.1624  0.2232
 6846TIP3    H142173   0.687   6.458   0.310 -0.8536 -0.4390  0.3380
 6846TIP3    H242174   0.572   6.546   0.266 -1.5274 -0.7293  1.4845
 6847TIP3   OH242175   6.053   5.937   7.244 -0.5341  0.0073  0.2729
 6847TIP3    H142176   6.116   5.981   7.187  0.0544 -0.5993  0.4505
 6847TIP3    H242177   6.010   5.873   7.187  0.0605 -0.6053  0.5052
 6848TIP3   OH242178   0.135   3.918   1.834  0.1066 -0.2085  0.4859
 6848TIP3    H142179   0.219   3.874   1.824 -0.7855 -1.5836 -1.8546
 6848TIP3    H242180   0.142   3.996   1.778 -0.6555 -1.1473 -0.9568
 6849TIP3   OH242181   3.479   0.366   0.871 -0.0053 -0.2432  0.3198
 6849TIP3    H142182   3.487   0.366   0.966  1.4970 -1.3463  0.2326
 6849TIP3    H242183   3.467   0.274   0.847 -0.4618  0.0303 -0.5576
 6850TIP3   OH242184   3.869   4.799   8.541  0.3183 -0.2380  0.1265
 6850TIP3    H142185   3.786   4.839   8.515  1.3421  0.5348 -2.1911
 6850TIP3    H242186   3.921   4.872   8.574  0.3788 -0.5936  0.8410
 6851TIP3   OH242187   3.324   1.216   7.825  0.2458 -0.1577  0.8861
 6851TIP3    H142188   3.297   1.131   7.791 -1.5699  0.3676  0.9088
 6851TIP3    H242189   3.246   1.271   7.816  1.1334  1.2728  1.6325
 6852TIP3   OH242190   3.893   6.046   3.193  0.3020  0.7367  0.2908
 6852TIP3    H142191   3.969   6.036   3.135 -0.9054 -0.9414 -1.0923
 6852TIP3    H242192   3.916   5.998   3.272 -0.4668 -2.6221 -1.3703
 6853TIP3   OH242193   4.797   1.550   0.197  0.3878  0.0971  0.2914
 6853TIP3    H142194   4.852   1.555   0.119  1.5588  0.3597  1.0938
 6853TIP3    H242195   4.707   1.551   0.164  0.8275  1.7373 -0.9648
 6854TIP3   OH242196   0.828   2.389   1.192  0.1113  0.1558  0.2131
 6854TIP3    H142197   0.859   2.472   1.155  1.1485 -0.2819  0.0549
 6854TIP3    H242198   0.908   2.339   1.209 -0.4841 -0.7065  0.5637
 6855TIP3   OH242199   2.516   0.192   8.452 -0.3475  0.1414 -0.8647
 6855TIP3    H142200   2.598   0.163   8.414  0.7950  1.4144  0.4944
 6855TIP3    H242201   2.471   0.112   8.477  1.6863 -0.5820  0.7524
 6856TIP3   OH242202   6.246   1.480   2.432  0.4449 -0.5452 -0.0026
 6856TIP3    H142203   6.296   1.561   2.439 -1.7194  0.9216 -0.4563
 6856TIP3    H242204   6.237   1.449   2.523 -1.5475  1.6548  0.6763
 6857TIP3   OH242205   0.209   5.633   1.507  0.1971 -0.2735 -0.0853
 6857TIP3    H142206   0.169   5.711   1.468  0.1864 -0.6116 -0.7766
 6857TIP3    H242207   0.139   5.594   1.560 -1.0782 -1.8861 -2.7458
 6858TIP3   OH242208   4.544   4.520   2.743  0.1133  0.3723 -0.1589
 6858TIP3    H142209   4.588   4.559   2.819  1.4111  1.3207 -1.3548
 6858TIP3    H242210   4.481   4.459   2.781  1.2674  0.2417  1.6616
 6859TIP3   OH242211   0.001   1.833   0.073  0.0516 -0.2863  0.4297
 6859TIP3    H142212   0.053   1.818   0.152 -0.8899 -1.2019  0.8982
 6859TIP3    H242213   0.064   1.864   0.008  1.6822 -3.5506  0.2593
 6860TIP3   OH242214   0.414   5.820   1.256  0.0614  0.5544 -0.1670
 6860TIP3    H142215   0.502   5.821   1.293 -0.6310  0.9562  1.6049
 6860TIP3    H242216   0.357   5.843   1.330 -1.5947 -0.4275 -1.0650
 6861TIP3   OH242217   1.137   0.429   1.022 -0.1386 -0.0091 -0.0673
 6861TIP3    H142218   1.185   0.493   1.075 -1.5302 -0.5445  1.9568
 6861TIP3    H242219   1.158   0.345   1.061 -0.7967 -0.4871 -0.7201
 6862TIP3   OH242220   3.963   3.159   2.623  0.8263  0.1092  0.6337
 6862TIP3    H142221   3.999   3.248   2.626 -0.8634  0.8148  1.6471
 6862TIP3    H242222   3.910   3.157   2.543  1.6889 -0.3794  0.0442
 6863TIP3   OH242223   3.593   3.734   1.735 -0.1121  0.4879  0.2774
 6863TIP3    H142224   3.505   3.702   1.756  0.0102  0.9580  1.5902
 6863TIP3    H242225   3.639   3.656   1.703 -0.9143  0.1772 -0.1534
 6864TIP3   OH242226   2.371   6.861   8.510  0.0357 -0.1311 -0.1123
 6864TIP3    H142227   2.388   6.821   8.424  0.3093 -0.3895  0.0585
 6864TIP3    H242228   2.348   6.787   8.566 -1.6991  0.2167 -0.3391
 6865TIP3   OH242229   4.220   5.610   3.338  0.5183  0.3022 -0.6070
 6865TIP3    H142230   4.263   5.627   3.423 -0.8696 -2.2203  0.7000
 6865TIP3    H242231   4.266   5.535   3.302 -0.7941 -0.5246 -0.6271
 6866TIP3   OH242232   6.757   3.342   1.982 -0.1867 -0.1908  0.5097
 6866TIP3    H142233   6.675   3.342   2.031  0.4033  0.0055  1.5190
 6866TIP3    H242234   6.816   3.287   2.034  0.3365 -0.2957 -0.1800
 6867TIP3   OH242235   0.872   3.210   0.865 -0.4754  0.1972  0.3113
 6867TIP3    H142236   0.913   3.149   0.926 -0.1452 -0.7140 -0.7923
 6867TIP3    H242237   0.864   3.291   0.915 -1.2286 -0.8228  1.9100
 6868TIP3   OH242238   3.516   4.511   2.055  0.1890 -0.1630 -0.2643
 6868TIP3    H142239   3.421   4.499   2.050  0.3952 -1.5633 -1.5310
 6868TIP3    H242240   3.534   4.514   2.149 -0.9109 -1.8809  0.0468
 6869TIP3   OH242241   6.033   5.966   1.146 -0.1612 -0.0316 -0.3487
 6869TIP3    H142242   5.960   6.013   1.185 -0.3012 -1.4047  1.1670
 6869TIP3    H242243   5.992   5.905   1.085 -0.0818  0.7717 -1.2296
 6870TIP3   OH242244   2.407   6.732   1.334  0.0089  0.2952 -0.3883
 6870TIP3    H142245   2.452   6.673   1.272  2.7038 -0.6324  2.2010
 6870TIP3    H242246   2.457   6.813   1.329  0.3297  0.1664  0.6246
 6871TIP3   OH242247   3.749   5.396   8.236 -0.2513  0.3346 -0.9140
 6871TIP3    H142248   3.721   5.315   8.278  2.0050 -0.5203 -0.9221
 6871TIP3    H242249   3.669   5.432   8.198 -1.4119 -1.6081 -0.4570
 6872TIP3   OH242250   0.133   4.462   2.513  0.5176 -0.1159  0.2825
 6872TIP3    H142251   0.160   4.371   2.500 -1.1257 -0.5395 -0.4003
 6872TIP3    H242252   0.209   4.514   2.486  0.9647 -1.2588 -0.7537
 6873TIP3   OH242253   1.893   3.554   1.126 -0.0155 -0.6921 -0.4490
 6873TIP3    H142254   1.922   3.608   1.052 -0.6305  0.5984  0.2068
 6873TIP3    H242255   1.845   3.615   1.182 -1.8004 -2.1987 -0.2446
 6874TIP3   OH242256   6.861   2.654   0.429 -0.1491 -0.2468 -1.1128
 6874TIP3    H142257   6.845   2.743   0.462 -1.9892 -0.4018 -1.4933
 6874TIP3    H242258   6.846   2.597   0.505  3.6155 -0.1716 -0.1231
 6875TIP3   OH242259   3.968   2.091   1.529  0.1014  0.5954 -0.2337
 6875TIP3    H142260   3.917   2.132   1.459  0.6972  1.2743 -0.2721
 6875TIP3    H242261   4.059   2.100   1.501  0.2773 -0.2608  0.0245
 6876TIP3   OH242262   5.254   3.903   0.923  0.2573  0.1192 -0.2677
 6876TIP3    H142263   5.325   3.905   0.988  0.3256 -1.3569 -0.2703
 6876TIP3    H242264   5.188   3.962   0.959  0.8039  0.2675  0.5284
 6877TIP3   OH242265   3.282   1.822   7.128 -0.1143  0.2990  0.3121
 6877TIP3    H142266   3.366   1.866   7.112  0.2337 -0.4524 -0.0038
 6877TIP3    H242267   3.216   1.883   7.096  0.3280  0.8198  0.3851
 6878TIP3   OH242268   0.785   5.895   0.057 -0.0996  0.2276 -0.4753
 6878TIP3    H142269   0.746   5.942   0.130 -0.5248 -0.0892 -0.4964
 6878TIP3    H242270   0.867   5.859   0.092  0.7557  1.8420 -0.7480
 6879TIP3   OH242271   5.639   0.399   0.302 -0.2577 -0.2747 -0.1449
 6879TIP3    H142272   5.674   0.312   0.282  0.2985  0.2411 -1.5447
 6879TIP3    H242273   5.544   0.389   0.288 -0.0486 -0.3284 -1.6869
 6880TIP3   OH242274   5.612   3.798   1.141  0.5724 -0.1733 -0.0399
 6880TIP3    H142275   5.557   3.876   1.145 -0.8884 -1.0893 -1.1930
 6880TIP3    H242276   5.655   3.795   1.227  0.7762  1.9341 -0.0169
 6881TIP3   OH242277   6.549   6.557   0.491 -0.3533  0.3303  0.1562
 6881TIP3    H142278   6.499   6.596   0.419 -0.4775  1.9935  1.1011
 6881TIP3    H242279   6.620   6.510   0.447 -1.5325 -0.3268 -1.1124
 6882TIP3   OH242280   3.063   3.254   3.257 -0.0778  0.2034 -0.1230
 6882TIP3    H142281   3.153   3.270   3.284 -0.1618 -0.3509  0.5029
 6882TIP3    H242282   3.053   3.159   3.260 -0.4205  0.1954 -1.0633
 6883TIP3   OH242283   3.132   3.760   2.173 -0.4659 -0.2463 -0.8563
 6883TIP3    H142284   3.117   3.835   2.231 -2.9096  0.4048 -2.1568
 6883TIP3    H242285   3.223   3.737   2.186  0.4048  2.9573 -0.3584
 6884TIP3   OH242286   4.567   2.801   1.328  0.2674  0.0103 -0.3718
 6884TIP3    H142287   4.635   2.736   1.347  1.5863  1.2819 -0.5356
 6884TIP3    H242288   4.488   2.765   1.367  1.0920 -1.3942  0.0800
 6885TIP3   OH242289   6.493   4.823   3.003 -0.1398  0.7733  0.1772
 6885TIP3    H142290   6.430   4.752   3.018  1.7703 -0.8650  0.8293
 6885TIP3    H242291   6.498   4.867   3.088  2.1554 -1.3551  1.2707
 6886TIP3   OH242292   1.284   6.521   0.631  0.3986 -0.0027 -0.2530
 6886TIP3    H142293   1.210   6.580   0.636  0.8476  0.7311 -1.8304
 6886TIP3    H242294   1.343   6.551   0.700 -1.1103 -1.1886  1.6730
 6887TIP3   OH242295   3.915   6.184   0.867 -0.0300  0.1978 -0.4131
 6887TIP3    H142296   3.830   6.140   0.878 -0.9637  1.8172 -0.9190
 6887TIP3    H242297   3.936   6.174   0.774  0.2970 -0.0927 -0.3131
 6888TIP3   OH242298   2.685   0.090   8.131  0.2202  0.0972  0.4035
 6888TIP3    H142299   2.644   0.156   8.074 -3.1394  0.1822  2.6018
 6888TIP3    H242300   2.695   0.013   8.075 -0.1407  1.0441 -1.0286
 6889TIP3   OH242301   5.558   4.261   7.008 -0.1707 -0.1992 -0.0452
 6889TIP3    H142302   5.546   4.196   6.939 -0.1497 -1.3172  0.9849
 6889TIP3    H242303   5.649   4.251   7.034 -0.6938 -1.1862  1.5035
 6890TIP3   OH242304   1.399   6.284   0.263  0.2146  0.4550  0.2411
 6890TIP3    H142305   1.397   6.252   0.173  1.3068 -2.4975  1.1705
 6890TIP3    H242306   1.359   6.214   0.315 -0.3203  2.0398  2.1193
 6891TIP3   OH242307   3.556   6.175   2.208 -0.0072 -0.0702 -0.2664
 6891TIP3    H142308   3.539   6.248   2.148 -0.4108  0.1916  0.1567
 6891TIP3    H242309   3.502   6.194   2.285  0.5594 -0.3673  0.2104
 6892TIP3   OH242310   1.072   2.787   2.381 -1.0409 -0.2234  0.0692
 6892TIP3    H142311   0.987   2.806   2.341 -0.8208  0.0101 -0.2905
 6892TIP3    H242312   1.120   2.739   2.313 -0.6955  0.1030  0.0802
 6893TIP3   OH242313   5.111   6.528   2.382 -0.1231  0.0157  0.2874
 6893TIP3    H142314   5.177   6.466   2.352 -0.2447  0.1841 -0.3456
 6893TIP3    H242315   5.102   6.590   2.309 -0.4022  0.4502  0.6911
 6894TIP3   OH242316   0.363   6.412   0.409  0.6141  0.1735 -0.1151
 6894TIP3    H142317   0.406   6.351   0.468 -0.3785 -1.4039 -0.9646
 6894TIP3    H242318   0.380   6.498   0.447  1.7300 -0.6389  1.3153
 6895TIP3   OH242319   2.980   4.348   2.987 -0.3048  0.7088  0.2961
 6895TIP3    H142320   2.913   4.288   2.953 -0.5543  2.0307 -1.6919
 6895TIP3    H242321   3.060   4.296   2.987 -0.8712 -0.2058  0.5235
 6896TIP3   OH242322   2.237   1.593   1.591  0.3477  0.4427 -0.3123
 6896TIP3    H142323   2.292   1.517   1.609 -0.7725 -0.3647 -0.1907
 6896TIP3    H242324   2.276   1.663   1.643  1.0286 -0.1988  0.0788
 6897TIP3   OH242325   4.061   2.588   3.265 -0.2199  0.0939  0.4136
 6897TIP3    H142326   4.131   2.583   3.199 -1.8615  0.9649 -1.4998
 6897TIP3    H242327   4.067   2.505   3.312  2.0048  0.0930  0.2493
 6898TIP3   OH242328   2.218   5.439   7.524 -0.0075  0.5459 -0.3927
 6898TIP3    H142329   2.204   5.345   7.533 -1.6446  0.7756 -0.3002
 6898TIP3    H242330   2.254   5.449   7.435 -1.3759 -0.0354 -1.0353
 6899TIP3   OH242331   1.322   0.838   2.314  0.1811  0.1363 -0.3465
 6899TIP3    H142332   1.318   0.907   2.249 -1.5656  1.5299  1.1404
 6899TIP3    H242333   1.242   0.787   2.301 -0.1017  0.3261  0.5829
 6900TIP3   OH242334   2.616   3.242   1.424  0.0478 -0.5775  0.2637
 6900TIP3    H142335   2.552   3.197   1.479 -0.1012 -0.0085  0.5646
 6900TIP3    H242336   2.627   3.185   1.348 -1.5311 -0.2426 -0.2482
 6901TIP3   OH242337   1.142   0.646   0.213  0.2511 -0.2693  0.1941
 6901TIP3    H142338   1.066   0.612   0.259  0.3943 -0.8208  0.0353
 6901TIP3    H242339   1.155   0.585   0.140 -0.4733  1.0248 -1.0819
 6902TIP3   OH242340   5.036   5.672   1.696  0.6066 -0.1273  0.0141
 6902TIP3    H142341   5.083   5.681   1.779 -0.7453  1.6209  0.6399
 6902TIP3    H242342   5.069   5.744   1.642 -0.0527  0.0260 -0.1874
 6903TIP3   OH242343   3.670   2.269   2.927  0.0315  0.5184 -0.0270
 6903TIP3    H142344   3.711   2.200   2.875 -1.0147  0.8718 -1.3628
 6903TIP3    H242345   3.590   2.291   2.880  0.8831  3.4814 -0.3189
 6904TIP3   OH242346   0.678   5.847   0.695 -0.3485 -0.0820  0.4014
 6904TIP3    H142347   0.609   5.807   0.748  0.4817 -1.4254  0.5055
 6904TIP3    H242348   0.659   5.819   0.606 -2.0096  2.5490 -0.1773
 6905TIP3   OH242349   1.469   1.497   0.147 -0.1859 -0.3969 -0.7533
 6905TIP3    H142350   1.450   1.459   0.061 -1.2279  0.8534 -1.1185
 6905TIP3    H242351   1.393   1.474   0.201 -0.4960  0.5076 -0.7776
 6906TIP3   OH242352   6.765   5.663   8.068  0.4085  0.2803  0.2763
 6906TIP3    H142353   6.689   5.691   8.119  0.4085 -1.0136  1.0278
 6906TIP3    H242354   6.773   5.729   7.999 -2.5627 -0.5094 -0.9871
 6907TIP3   OH242355   5.419   5.768   0.888  0.2199  0.1939 -0.3932
 6907TIP3    H142356   5.473   5.835   0.930 -2.2562  1.3177  1.2716
 6907TIP3    H242357   5.437   5.777   0.795  1.7905  1.4673 -0.0083
 6908TIP3   OH242358   2.954   5.975   2.406 -0.1996 -0.3876  0.3133
 6908TIP3    H142359   2.992   5.899   2.362 -0.9460 -0.9873  0.6741
 6908TIP3    H242360   2.907   6.022   2.337 -0.0687 -0.4724  0.1670
 6909TIP3   OH242361   1.601   5.560   1.323 -0.2597 -0.6073 -0.2159
 6909TIP3    H142362   1.514   5.595   1.344 -0.1083 -0.0851 -0.4432
 6909TIP3    H242363   1.656   5.590   1.396 -0.1195 -0.3265 -0.4353
 6910TIP3   OH242364   5.410   1.294   1.933  0.2632  0.2590  0.5257
 6910TIP3    H142365   5.324   1.327   1.908 -0.4418 -1.5947  0.3640
 6910TIP3    H242366   5.423   1.326   2.022 -0.1916  1.2891  0.2322
 6911TIP3   OH242367   0.836   4.246   2.793 -0.0095  0.1748  0.0134
 6911TIP3    H142368   0.920   4.247   2.839 -0.5663  1.5739  1.0876
 6911TIP3    H242369   0.781   4.187   2.844  0.3657 -0.9630 -0.8494
 6912TIP3   OH242370   0.455   1.864   3.616 -0.4731  0.2343  0.1080
 6912TIP3    H142371   0.439   1.782   3.570 -0.8094 -2.0771  3.8618
 6912TIP3    H242372   0.373   1.882   3.663 -0.0010  2.0651  0.3267
 6913TIP3   OH242373   6.651   6.185   2.307  0.3775 -0.3608  0.0116
 6913TIP3    H142374   6.614   6.202   2.394  0.7778  0.4398  0.0362
 6913TIP3    H242375   6.642   6.091   2.295 -3.7009 -0.0795 -0.8799
 6914TIP3   OH242376   5.114   0.712   0.193 -0.6646 -0.7801 -0.0049
 6914TIP3    H142377   5.185   0.673   0.141  0.5276  1.6033 -0.3076
 6914TIP3    H242378   5.058   0.638   0.216  3.1639 -3.3170  2.3533
 6915TIP3   OH242379   2.463   5.831   1.953 -0.4351 -0.0639 -0.1928
 6915TIP3    H142380   2.557   5.846   1.950 -0.3438 -0.4634  0.4131
 6915TIP3    H242381   2.432   5.888   2.023 -0.4621 -0.7566  0.3832
 6916TIP3   OH242382   0.971   2.687   2.858 -0.4004  0.3474 -0.3993
 6916TIP3    H142383   0.900   2.729   2.907  0.7448 -0.3029  1.9422
 6916TIP3    H242384   0.967   2.595   2.883  1.0976  0.2516 -0.4109
 6917TIP3   OH242385   4.694   3.967   2.995 -0.0257 -0.2378  0.3230
 6917TIP3    H142386   4.667   4.030   2.929  0.3154 -0.6733 -0.2418
 6917TIP3    H242387   4.661   4.003   3.078  0.1112  0.6395  0.0077
 6918TIP3   OH242388   1.416   0.075   2.356 -0.4264 -0.0741  0.7175
 6918TIP3    H142389   1.472   0.017   2.304 -0.4336  1.5016 -1.1686
 6918TIP3    H242390   1.453   0.071   2.444  1.8072 -0.1518 -0.1546
 6919TIP3   OH242391   6.645   2.927   8.095  0.6068 -0.2443 -0.3319
 6919TIP3    H142392   6.675   3.018   8.104  1.7953 -0.7409  1.1536
 6919TIP3    H242393   6.672   2.901   8.007  3.6044 -0.2614  0.4738
 6920TIP3   OH242394   3.067   2.971   1.722  0.0165 -0.0305 -0.2069
 6920TIP3    H142395   3.142   2.912   1.724 -0.3184 -0.4455  1.0705
 6920TIP3    H242396   2.991   2.914   1.714 -0.3907  0.0872  2.1314
 6921TIP3   OH242397   5.840   0.741   3.603  0.1766 -0.1120 -0.1752
 6921TIP3    H142398   5.926   0.749   3.643 -0.6779  0.9540  1.5405
 6921TIP3    H242399   5.818   0.829   3.574 -0.4724 -0.3163 -0.3293
 6922TIP3   OH242400   1.001   2.987   1.041  0.1457  0.1253  0.7036
 6922TIP3    H142401   1.042   2.925   1.101  0.9820 -0.4312 -0.4071
 6922TIP3    H242402   1.012   2.948   0.954 -0.0003  1.4511  0.0535
 6923TIP3   OH242403   5.820   6.382   2.179 -0.3797 -0.1323  0.2238
 6923TIP3    H142404   5.892   6.371   2.242 -0.5834 -0.0281  0.4749
 6923TIP3    H242405   5.756   6.315   2.203  0.3323 -1.2881 -1.0022
 6924TIP3   OH242406   3.413   3.619   7.904  0.2689  0.0334 -0.3108
 6924TIP3    H142407   3.477   3.569   7.854 -0.9450 -1.7700 -0.1343
 6924TIP3    H242408   3.345   3.640   7.840 -1.7103 -3.0112  0.5946
 6925TIP3   OH242409   1.051   6.632   8.250 -0.5349  0.1539 -0.5248
 6925TIP3    H142410   0.980   6.635   8.314  0.2546 -1.0390  0.4726
 6925TIP3    H242411   1.009   6.598   8.171 -0.8059 -2.3479  0.5746
 6926TIP3   OH242412   4.228   5.172   2.828 -0.0095  0.7295 -0.2678
 6926TIP3    H142413   4.307   5.120   2.845  0.2388  0.1392 -2.8470
 6926TIP3    H242414   4.182   5.174   2.912  1.3617 -1.2965  0.6009
 6927TIP3   OH242415   1.113   5.013   8.378  0.2725  0.0631 -0.2242
 6927TIP3    H142416   1.119   4.962   8.297  0.3357  0.8351 -0.7198
 6927TIP3    H242417   1.193   4.993   8.426 -0.0472 -0.8651 -0.0727
 6928TIP3   OH242418   3.559   4.491   3.316 -0.4253 -0.4585  0.3070
 6928TIP3    H142419   3.538   4.505   3.224  0.6084 -1.2346 -0.0593
 6928TIP3    H242420   3.576   4.397   3.323  3.7522  0.1394  0.3416
 6929TIP3   OH242421   5.618   4.892   0.573  0.5556  0.2632 -0.2260
 6929TIP3    H142422   5.573   4.862   0.494  1.1673  0.9790 -0.8600
 6929TIP3    H242423   5.547   4.916   0.633  0.0753  1.0803 -1.0958
 6930TIP3   OH242424   2.611   2.594   8.296 -0.3807  0.0399  0.1771
 6930TIP3    H142425   2.666   2.547   8.233 -0.3824  0.8984 -0.4846
 6930TIP3    H242426   2.658   2.675   8.314 -1.9426  1.3642 -1.3355
 6931TIP3   OH242427   5.142   6.645   3.546  0.1345 -0.2381  0.6076
 6931TIP3    H142428   5.074   6.630   3.612  0.1775  0.8256  0.9102
 6931TIP3    H242429   5.127   6.576   3.481 -0.7888 -0.4528  1.0198
 6932TIP3   OH242430   4.219   6.320   2.568  0.0858  0.6469  0.3414
 6932TIP3    H142431   4.285   6.344   2.503  1.4397 -0.5261  1.2210
 6932TIP3    H242432   4.253   6.355   2.650  0.1146 -0.7780  0.9671
 6933TIP3   OH242433   1.716   5.500   1.795  0.4501  1.1253  0.0904
 6933TIP3    H142434   1.627   5.521   1.765  0.1411  0.5835  0.6226
 6933TIP3    H242435   1.716   5.524   1.888  1.5703  3.3165 -0.3915
 6934TIP3   OH242436   6.417   5.666   7.839  0.4915  0.0446 -0.0996
 6934TIP3    H142437   6.389   5.622   7.758 -0.7697  0.2340  0.2203
 6934TIP3    H242438   6.342   5.659   7.898  1.1309  0.5587  0.8019
 6935TIP3   OH242439   3.198   2.850   8.324 -0.3172  0.0645  0.6572
 6935TIP3    H142440   3.195   2.877   8.416  1.2529  1.8740  0.2332
 6935TIP3    H242441   3.274   2.793   8.318 -1.6635 -1.8775  0.8400
 6936TIP3   OH242442   1.164   3.655   3.206  0.2979  0.3507 -0.1200
 6936TIP3    H142443   1.225   3.583   3.190 -1.2102 -1.0465  0.1081
 6936TIP3    H242444   1.193   3.724   3.147  2.2567 -0.1244  0.1836
 6937TIP3   OH242445   5.357   2.035   7.560  0.3448  0.7017 -0.1334
 6937TIP3    H142446   5.369   1.940   7.554 -0.2547  0.6518 -0.7554
 6937TIP3    H242447   5.414   2.071   7.492  0.5585  0.7805  0.0904
 6938TIP3   OH242448   1.892   0.763   1.318  0.3227  0.2433  0.3738
 6938TIP3    H142449   1.950   0.786   1.392 -0.4071  2.5106  0.3194
 6938TIP3    H242450   1.947   0.775   1.241  0.8264 -1.2661  0.4675
 6939TIP3   OH242451   2.901   5.773   3.135  0.3989 -0.2661  0.1877
 6939TIP3    H142452   2.886   5.837   3.205 -0.6160 -1.0511  0.7205
 6939TIP3    H242453   2.985   5.733   3.157  0.5771  0.2131  0.3870
 6940TIP3   OH242454   0.753   2.738   7.601  0.0105  0.2399  0.5952
 6940TIP3    H142455   0.710   2.808   7.552 -2.1688 -0.6853  1.1005
 6940TIP3    H242456   0.686   2.704   7.660  1.5363 -1.0886  1.6556
 6941TIP3   OH242457   5.756   0.654   0.185  0.3852 -0.4324  0.1726
 6941TIP3    H142458   5.739   0.735   0.233 -0.2674 -0.2193 -0.3888
 6941TIP3    H242459   5.704   0.588   0.229  0.2805 -0.3684  0.1465
 6942TIP3   OH242460   5.142   5.337   7.637  0.1104  0.2017  0.1721
 6942TIP3    H142461   5.233   5.313   7.651  0.2596  0.9413  0.4652
 6942TIP3    H242462   5.142   5.387   7.555 -0.1572 -0.4871 -0.2626
 6943TIP3   OH242463   6.796   5.887   8.470  0.0203 -0.2540  0.8767
 6943TIP3    H142464   6.756   5.974   8.471  1.1312  0.2759  0.0544
 6943TIP3    H242465   6.881   5.899   8.512  1.9221 -0.0246 -2.6612
 6944TIP3   OH242466   2.999   2.994   7.434 -0.0096  0.1117  0.0271
 6944TIP3    H142467   2.938   2.995   7.361 -0.1430 -1.9428  0.0659
 6944TIP3    H242468   3.084   2.975   7.394 -0.0579 -0.8745  0.3665
 6945TIP3   OH242469   4.091   2.131   2.120 -0.1365 -0.0910  0.1017
 6945TIP3    H142470   4.153   2.058   2.127  0.0203  0.1217  1.0941
 6945TIP3    H242471   4.033   2.121   2.195 -1.7427 -0.6478 -1.1409
 6946TIP3   OH242472   3.857   2.011   0.415  0.3024  0.2896  0.6358
 6946TIP3    H142473   3.772   1.970   0.434 -0.7406  2.1670  0.2663
 6946TIP3    H242474   3.915   1.937   0.397 -1.2979 -1.0550  0.6882
 6947TIP3   OH242475   4.391   5.067   1.171  0.3202  0.9178 -0.1341
 6947TIP3    H142476   4.479   5.105   1.158 -0.5611  3.1106 -0.1685
 6947TIP3    H242477   4.351   5.072   1.084  0.6898 -1.6948 -0.5242
 6948TIP3   OH242478   5.469   4.148   0.641 -0.8745  0.4043  0.1237
 6948TIP3    H142479   5.499   4.057   0.651 -1.0891  0.3382  0.1816
 6948TIP3    H242480   5.453   4.177   0.731 -0.7907  0.5060  0.1059
 6949TIP3   OH242481   5.657   3.397   1.219 -0.0708  0.1385  0.2091
 6949TIP3    H142482   5.562   3.413   1.214 -0.3785 -1.5339 -0.2097
 6949TIP3    H242483   5.687   3.449   1.293 -1.2484  1.0188  0.0973
 6950TIP3   OH242484   5.228   1.017   1.730 -0.1886 -0.0726  0.5018
 6950TIP3    H142485   5.164   0.959   1.690  0.0420  1.2111 -1.8852
 6950TIP3    H242486   5.308   1.004   1.680  0.5972  0.4432  1.5869
 6951TIP3   OH242487   3.440   5.562   8.506 -0.1764  0.1552 -0.3164
 6951TIP3    H142488   3.394   5.565   8.590  0.4106 -0.3904  0.0305
 6951TIP3    H242489   3.472   5.652   8.493  0.8378 -0.0399  0.6776
 6952TIP3   OH242490   0.985   0.866   0.468  0.4641  0.2763 -0.5911
 6952TIP3    H142491   1.011   0.780   0.500 -0.1044  0.0077 -0.8265
 6952TIP3    H242492   0.925   0.899   0.535 -0.6072 -0.2207 -1.2744
 6953TIP3   OH242493   4.463   3.344   2.838 -0.4806 -0.1744  0.1669
 6953TIP3    H142494   4.424   3.327   2.924  0.6324 -1.6974  0.4056
 6953TIP3    H242495   4.546   3.389   2.859 -1.5146  2.1029 -0.2868
 6954TIP3   OH242496   5.977   1.110   2.894 -0.4935  0.7190  0.5022
 6954TIP3    H142497   5.946   1.029   2.934 -0.2520  1.0825  1.4350
 6954TIP3    H242498   5.909   1.133   2.830 -0.4446 -0.3453  0.0378
 6955TIP3   OH242499   0.796   4.542   0.954 -0.0356 -1.4805 -0.8222
 6955TIP3    H142500   0.846   4.473   0.998  2.4319  1.6483  1.7730
 6955TIP3    H242501   0.861   4.596   0.910 -0.9800  2.1228  1.7045
 6956TIP3   OH242502   1.082   3.578   1.566  0.4450 -0.0891 -0.5542
 6956TIP3    H142503   1.094   3.672   1.557  0.5699 -0.1277 -0.7994
 6956TIP3    H242504   1.069   3.564   1.660  0.1504  0.2026 -0.5536
 6957TIP3   OH242505   6.018   2.477   1.998 -0.1464  0.0020  0.0795
 6957TIP3    H142506   5.938   2.424   1.998 -1.3961  1.7736 -1.0487
 6957TIP3    H242507   6.026   2.508   2.088  0.3250 -1.6183  0.6356
 6958TIP3   OH242508   4.402   6.413   0.245 -0.0620 -0.4076  0.4149
 6958TIP3    H142509   4.324   6.437   0.194  0.6378 -1.4766 -1.2577
 6958TIP3    H242510   4.475   6.434   0.187  0.8794 -0.0885  1.6858
 6959TIP3   OH242511   1.417   5.479   3.396 -0.6208  0.2628  0.2540
 6959TIP3    H142512   1.394   5.456   3.486 -0.6895  0.4235  0.2761
 6959TIP3    H242513   1.368   5.559   3.378  1.0671  1.4466  0.8006
 6960TIP3   OH242514   1.253   1.370   0.291  0.1108  0.0018  0.0323
 6960TIP3    H142515   1.192   1.336   0.227 -0.0736  0.3852  0.0044
 6960TIP3    H242516   1.200   1.423   0.350  0.0700 -1.2349  1.1821
 6961TIP3   OH242517   2.577   4.128   1.769 -0.4887 -0.3292  0.0722
 6961TIP3    H142518   2.646   4.062   1.759 -2.3206 -2.2593 -0.5679
 6961TIP3    H242519   2.521   4.116   1.693 -1.1674  1.6829  0.1999
 6962TIP3   OH242520   4.881   4.152   7.062 -0.6836 -0.1972 -0.5873
 6962TIP3    H142521   4.966   4.157   7.018 -0.0778 -2.1336  0.2444
 6962TIP3    H242522   4.883   4.225   7.124  0.0939  0.1652 -1.0124
 6963TIP3   OH242523   5.812   1.021   8.490  0.4455 -0.3531 -0.4225
 6963TIP3    H142524   5.773   1.108   8.478 -0.7240 -0.7178  0.5430
 6963TIP3    H242525   5.873   1.012   8.417  0.2917  1.1197 -0.7595
 6964TIP3   OH242526   3.357   1.127   1.606 -0.5908 -0.1813 -0.3345
 6964TIP3    H142527   3.401   1.128   1.521 -0.2976 -0.8156 -0.1997
 6964TIP3    H242528   3.356   1.218   1.635 -0.5801  0.0184 -0.9592
 6965TIP3   OH242529   5.821   3.534   1.863 -0.7298  0.0323  0.0386
 6965TIP3    H142530   5.754   3.509   1.926 -0.5562  0.6237  0.4599
 6965TIP3    H242531   5.777   3.596   1.805 -0.0861  1.8169  1.3862
 6966TIP3   OH242532   5.919   0.839   2.988  0.0445  0.6607  0.2565
 6966TIP3    H142533   5.843   0.823   3.044  0.5498 -0.7829  0.5728
 6966TIP3    H242534   5.915   0.772   2.921  0.8830  0.7331  0.1182
 6967TIP3   OH242535   3.090   3.018   2.335  0.1170  0.7996 -0.3919
 6967TIP3    H142536   3.138   2.984   2.410 -1.2888 -0.6652 -0.0957
 6967TIP3    H242537   3.144   2.995   2.259  0.9916  1.2834  0.0616
 6968TIP3   OH242538   2.646   3.070   1.219 -0.1480  0.5596 -0.2779
 6968TIP3    H142539   2.641   3.053   1.125  0.0786  0.2095 -0.2270
 6968TIP3    H242540   2.591   3.003   1.259  2.3667 -1.4230  0.0667
 6969TIP3   OH242541   4.449   4.640   8.211  0.0650  0.0494 -0.0221
 6969TIP3    H142542   4.476   4.676   8.127  0.0469  1.0582  0.3881
 6969TIP3    H242543   4.395   4.708   8.251 -0.7040 -0.7891  0.4148
 6970TIP3   OH242544   1.124   4.791   7.724 -0.0318  0.2844 -0.2817
 6970TIP3    H142545   1.206   4.841   7.724  0.5749 -0.6277 -2.0521
 6970TIP3    H242546   1.130   4.736   7.802  0.2402  1.4592  0.5478
 6971TIP3   OH242547   6.164   4.643   8.003  0.3998  0.1028 -0.0491
 6971TIP3    H142548   6.112   4.722   7.984  0.8803  0.5891  0.5787
 6971TIP3    H242549   6.191   4.610   7.918  1.6877  1.6440 -0.2730
 6972TIP3   OH242550   3.333   0.654   7.969  0.0131  0.2759  0.3058
 6972TIP3    H142551   3.269   0.632   7.901  0.6072 -0.2197 -0.1136
 6972TIP3    H242552   3.281   0.677   8.045 -0.7075  2.2152 -0.7062
 6973TIP3   OH242553   1.804   5.347   2.558  0.0507  0.4182  0.2145
 6973TIP3    H142554   1.881   5.371   2.610 -0.2925  2.3775 -0.1108
 6973TIP3    H242555   1.729   5.369   2.613 -0.3310 -1.7509  0.6466
 6974TIP3   OH242556   6.463   5.791   1.309  0.1319  0.2427 -0.1053
 6974TIP3    H142557   6.430   5.881   1.318 -1.5595 -0.4083  0.5632
 6974TIP3    H242558   6.404   5.750   1.246 -0.6333 -1.0496  1.3809
 6975TIP3   OH242559   0.109   5.068   0.344  0.0023 -0.0626 -0.3239
 6975TIP3    H142560   0.144   5.000   0.287  1.5243  0.9932 -0.7129
 6975TIP3    H242561   0.073   5.021   0.420 -0.0787 -1.3386 -1.1354
 6976TIP3   OH242562   5.017   1.310   0.755  0.6410  0.1398 -0.0888
 6976TIP3    H142563   5.081   1.326   0.686  0.2074  0.2983 -0.4677
 6976TIP3    H242564   4.975   1.227   0.730  0.9643 -0.1620  0.3641
 6977TIP3   OH242565   4.973   2.301   2.038 -0.2090  0.0312 -0.1246
 6977TIP3    H142566   4.998   2.367   1.974 -0.3545 -0.2163 -0.4401
 6977TIP3    H242567   4.924   2.348   2.105 -2.3705 -0.0983 -1.5052
 6978TIP3   OH242568   1.724   2.414   0.124 -0.2733  0.0667  0.2409
 6978TIP3    H142569   1.809   2.447   0.094 -0.1608  0.5515  1.0837
 6978TIP3    H242570   1.730   2.319   0.111  1.7813 -0.4135  3.5251
 6979TIP3   OH242571   1.197   5.923   3.056 -0.0595  0.7572 -0.3463
 6979TIP3    H142572   1.104   5.897   3.060  0.3885 -1.0672 -0.7183
 6979TIP3    H242573   1.202   6.001   3.111 -1.4067 -0.4040  1.5715
 6980TIP3   OH242574   0.816   1.159   0.003  0.0603 -0.1039 -0.3080
 6980TIP3    H142575   0.805   1.093   0.072 -1.3063  0.2486 -0.1581
 6980TIP3    H242576   0.727   1.187  -0.017  0.4863  0.2195 -1.8309
 6981TIP3   OH242577   6.049   4.501   8.523  0.1386  0.4817  0.6978
 6981TIP3    H142578   6.082   4.564   8.588 -0.3826 -1.0357  2.5286
 6981TIP3    H242579   6.029   4.422   8.574 -1.0448 -0.5301 -1.2128
 6982TIP3   OH242580   1.395   0.105   7.618  0.4044  0.4501  0.0450
 6982TIP3    H142581   1.421   0.182   7.669  2.0276 -0.0791  0.1016
 6982TIP3    H242582   1.478   0.069   7.587 -0.2415 -1.6939  0.6358
 6983TIP3   OH242583   3.872   6.262   1.954  0.0452 -0.2444  0.3843
 6983TIP3    H142584   3.851   6.196   2.021 -0.6340  1.2945  1.7821
 6983TIP3    H242585   3.786   6.296   1.927  0.3963  0.3902  0.0495
 6984TIP3   OH242586   3.588   2.907   2.405 -0.2728 -0.1461 -0.1071
 6984TIP3    H142587   3.668   2.917   2.354  0.4615  1.2355  1.2374
 6984TIP3    H242588   3.598   2.823   2.450  0.0216 -0.3720 -0.5781
 6985TIP3   OH242589   5.465   1.626   0.162 -0.0414 -0.3962 -0.6401
 6985TIP3    H142590   5.518   1.593   0.235  0.1160  1.7998  0.3040
 6985TIP3    H242591   5.465   1.554   0.099  2.3389 -1.2582  0.2132
 6986TIP3   OH242592   5.885   0.319   2.537 -0.3985  0.1508 -0.6236
 6986TIP3    H142593   5.882   0.342   2.630 -0.4632  0.6847 -0.7587
 6986TIP3    H242594   5.912   0.227   2.537 -2.5861 -0.5709  0.0467
 6987TIP3   OH242595   3.534   1.282   2.372  0.0079  0.1271 -0.1644
 6987TIP3    H142596   3.559   1.190   2.375  1.5156  0.5145  0.2703
 6987TIP3    H242597   3.453   1.287   2.422 -0.0978 -0.9661 -0.2085
 6988TIP3   OH242598   1.242   4.498   7.705  0.3187  0.2361 -0.1885
 6988TIP3    H142599   1.243   4.504   7.610  0.6859 -1.1885 -0.3069
 6988TIP3    H242600   1.326   4.457   7.727 -0.2243 -0.4761  0.6446
 6989TIP3   OH242601   0.087   4.556   2.949  0.7020 -0.2017  0.0817
 6989TIP3    H142602   0.087   4.491   3.019  0.1533 -1.3581 -0.9536
 6989TIP3    H242603   0.026   4.623   2.979  1.6580  0.1088  1.3911
 6990TIP3   OH242604   4.273   6.052   0.612  0.0386 -0.1618 -0.1967
 6990TIP3    H142605   4.346   6.070   0.552 -0.5395  0.0405 -0.8531
 6990TIP3    H242606   4.310   5.995   0.678  0.5376 -0.9068 -1.0930
 6991TIP3   OH242607   1.294   1.335   2.355 -0.2592  0.4078 -0.1866
 6991TIP3    H142608   1.227   1.276   2.388  0.5599 -0.6484 -0.3705
 6991TIP3    H242609   1.304   1.401   2.424  1.4006 -1.7356  1.7883
 6992TIP3   OH242610   4.579   5.898   0.330  0.3507  0.0683 -0.1539
 6992TIP3    H142611   4.569   5.993   0.340 -0.0452 -0.1114  1.2367
 6992TIP3    H242612   4.651   5.876   0.389  2.4348 -0.1205 -2.5818
 6993TIP3   OH242613   2.043   1.632   8.645 -0.0452  0.0554 -0.4380
 6993TIP3    H142614   2.083   1.652   8.560 -1.4138  0.7230 -0.9628
 6993TIP3    H242615   1.998   1.549   8.631 -0.7450  0.4423 -0.5588
 6994TIP3   OH242616   6.039   1.712   0.546 -0.1882 -0.4007  0.0185
 6994TIP3    H142617   5.964   1.680   0.596  1.0379 -2.9944  0.3669
 6994TIP3    H242618   6.114   1.670   0.586  1.0838 -0.8403 -2.6267
 6995TIP3   OH242619   1.928   4.759   0.671  0.0350 -0.0408 -0.1572
 6995TIP3    H142620   1.917   4.669   0.639 -2.0380 -0.2712  1.0215
 6995TIP3    H242621   1.871   4.811   0.614 -0.6562  0.1366  0.6877
 6996TIP3   OH242622   4.566   5.393   2.364  0.1198  0.2055 -0.5365
 6996TIP3    H142623   4.475   5.423   2.362 -0.1782 -0.7192 -1.9861
 6996TIP3    H242624   4.593   5.393   2.273  0.6808 -2.1397 -0.4285
 6997TIP3   OH242625   1.057   2.066   0.714 -0.1981  0.2159 -0.5462
 6997TIP3    H142626   1.075   2.107   0.798  0.5858  0.1890 -0.6876
 6997TIP3    H242627   1.144   2.050   0.676 -0.3768 -2.9117  0.1323
 6998TIP3   OH242628   3.904   6.010   2.742  0.1688 -0.3959  0.1232
 6998TIP3    H142629   3.954   6.039   2.666 -1.4545 -1.0495 -1.2696
 6998TIP3    H242630   3.902   6.085   2.800  0.1903  0.6399 -1.1766
 6999TIP3   OH242631   1.157   4.757   1.956  0.5412  0.4764  0.2867
 6999TIP3    H142632   1.242   4.714   1.946  0.6132  0.4977  0.8167
 6999TIP3    H242633   1.173   4.827   2.019  0.6629  1.9194 -1.2528
 7000TIP3   OH242634   5.625   6.592   3.051  0.5041 -0.5615 -0.4738
 7000TIP3    H142635   5.632   6.541   3.132  2.2976 -1.7378 -1.2956
 7000TIP3    H242636   5.716   6.600   3.020 -0.0527  0.6293 -1.9057
 7001TIP3   OH242637   2.541   0.558   1.010 -0.4046  0.5252 -0.5027
 7001TIP3    H142638   2.519   0.468   0.987  1.2375  0.2795 -1.2706
 7001TIP3    H242639   2.536   0.561   1.105 -0.1927 -0.4546 -0.4518
 7002TIP3   OH242640   1.644   0.552   0.205  0.2189  0.0039  0.6091
 7002TIP3    H142641   1.685   0.574   0.289 -1.1723  0.5883  1.1681
 7002TIP3    H242642   1.630   0.637   0.163  2.4813 -0.3462 -1.0483
 7003TIP3   OH242643   6.308   1.656   0.902 -0.2113 -0.4709 -0.1810
 7003TIP3    H142644   6.267   1.735   0.936 -0.3474 -0.7989  0.4449
 7003TIP3    H242645   6.249   1.585   0.930 -0.3650 -0.7418 -1.1798
 7004TIP3   OH242646   3.640   5.438   1.934  0.5793  0.1331 -0.0011
 7004TIP3    H142647   3.665   5.505   1.871 -0.9354 -1.0007 -1.9295
 7004TIP3    H242648   3.656   5.355   1.889 -2.4868 -0.7056  0.1765
 7005TIP3   OH242649   2.334   2.796   8.646  0.0863  0.4262  0.2573
 7005TIP3    H142650   2.313   2.733   8.716 -1.0967 -0.0228 -0.4634
 7005TIP3    H242651   2.254   2.847   8.636  0.3538  0.6949 -0.5552
 7006TIP3   OH242652   5.725   2.934   1.872 -0.3361  0.4694 -0.1340
 7006TIP3    H142653   5.701   2.922   1.780  0.6797 -2.0313 -0.1507
 7006TIP3    H242654   5.654   2.893   1.920 -1.0746  2.1348  0.2882
 7007TIP3   OH242655   1.064   1.740   1.746  0.0343 -0.1496  0.0006
 7007TIP3    H142656   1.039   1.735   1.838  0.4916  0.6060  0.1786
 7007TIP3    H242657   1.038   1.656   1.709 -0.0498 -0.5059  0.8484
 7008TIP3   OH242658   5.218   3.377   1.256 -0.2740  0.3195 -0.1214
 7008TIP3    H142659   5.205   3.467   1.224 -0.4283  0.9750  1.6757
 7008TIP3    H242660   5.153   3.325   1.209 -1.0580  1.3820 -0.2493
 7009TIP3   OH242661   4.151   2.486   0.383  0.0988  0.0716 -0.0058
 7009TIP3    H142662   4.200   2.507   0.303 -0.3892  0.5815 -0.1772
 7009TIP3    H242663   4.066   2.455   0.352 -0.3649  0.9770  0.3169
 7010TIP3   OH242664   3.975   0.941   2.082 -0.3727  0.1441  0.4730
 7010TIP3    H142665   4.059   0.966   2.044 -1.3723  1.7242 -0.8846
 7010TIP3    H242666   3.915   1.012   2.056 -2.0003 -0.6493  1.8464
 7011TIP3   OH242667   4.172   1.285   0.460 -0.1928  0.2589 -0.3923
 7011TIP3    H142668   4.130   1.368   0.437 -0.1672  0.9134  1.6805
 7011TIP3    H242669   4.099   1.224   0.473 -0.1614 -0.6379 -3.6815
 7012TIP3   OH242670   1.810   3.640   0.723  0.0724  0.1232  0.6733
 7012TIP3    H142671   1.719   3.617   0.741 -0.0783 -0.3466 -0.6083
 7012TIP3    H242672   1.835   3.697   0.796 -1.1017 -0.1013  1.2767
 7013TIP3   OH242673   2.716   6.806   1.277  0.3927  0.1064 -0.2846
 7013TIP3    H142674   2.803   6.821   1.315  0.2586  1.7487 -0.5644
 7013TIP3    H242675   2.730   6.741   1.209  1.2837 -0.1325  0.1167
 7014TIP3   OH242676   5.328   3.832   7.957  0.4569 -0.0001 -0.5669
 7014TIP3    H142677   5.372   3.917   7.954 -0.0493  0.2540 -0.9974
 7014TIP3    H242678   5.318   3.807   7.865 -0.2145 -0.0873 -0.4756
 7015TIP3   OH242679   0.168   3.544   0.012  0.0581  0.3327  0.0933
 7015TIP3    H142680   0.149   3.460  -0.028 -0.0813  0.0495  0.7408
 7015TIP3    H242681   0.263   3.546   0.021  0.1711  0.7739 -1.0438
 7016TIP3   OH242682   5.315   1.645   8.347 -0.2760  0.7611  0.3323
 7016TIP3    H142683   5.220   1.640   8.355 -0.3485  0.6148 -0.4953
 7016TIP3    H242684   5.346   1.670   8.434 -0.9287 -1.1265  1.1522
 7017TIP3   OH242685   0.566   4.430   1.566  0.3424 -0.2567  0.4186
 7017TIP3    H142686   0.628   4.432   1.639  0.6211  0.5977  0.1593
 7017TIP3    H242687   0.520   4.513   1.571  0.0813 -0.3660 -0.1497
 7018TIP3   OH242688   4.219   3.699   0.215 -0.1674 -0.4028  0.1223
 7018TIP3    H142689   4.186   3.748   0.290 -1.5714  0.9587 -1.3000
 7018TIP3    H242690   4.150   3.635   0.196  0.6584 -1.4662  0.6004
 7019TIP3   OH242691   5.706   6.601   1.852 -0.3009 -0.1868  0.3802
 7019TIP3    H142692   5.615   6.573   1.847 -0.8511  1.6190 -0.7947
 7019TIP3    H242693   5.756   6.524   1.826 -1.5053 -1.0482  0.5063
 7020TIP3   OH242694   3.782   6.206   0.395 -0.0343  0.2346 -0.0781
 7020TIP3    H142695   3.825   6.123   0.418  1.8879  0.6710 -1.8640
 7020TIP3    H242696   3.763   6.247   0.480  0.4178 -1.2962  0.8053
 7021TIP3   OH242697   0.100   6.248   2.112 -0.0209  0.4111  0.5489
 7021TIP3    H142698   0.064   6.159   2.114  0.6993  0.1136  1.9198
 7021TIP3    H242699   0.195   6.236   2.117  0.0536  1.2434  1.7747
 7022TIP3   OH242700   5.314   4.972   1.365 -0.2251 -0.0733  0.4437
 7022TIP3    H142701   5.278   4.919   1.436  1.3565 -1.7160  0.0915
 7022TIP3    H242702   5.392   5.013   1.403  1.1772 -1.7023 -0.5115
 7023TIP3   OH242703   4.171   5.663   7.420 -0.2095  0.1620 -0.4125
 7023TIP3    H142704   4.201   5.588   7.368  0.9976 -0.4060  1.0185
 7023TIP3    H242705   4.098   5.699   7.370 -0.1708 -1.3556 -1.6498
 7024TIP3   OH242706   3.128   3.427   2.204 -0.3650 -0.0652  0.3414
 7024TIP3    H142707   3.052   3.376   2.232  0.3395 -1.7842 -0.6646
 7024TIP3    H242708   3.101   3.464   2.120 -1.0558  1.7437  1.3002
 7025TIP3   OH242709   3.067   4.921   1.113  0.0094  0.2143 -0.1650
 7025TIP3    H142710   2.982   4.923   1.157  0.7452  0.1775  1.3355
 7025TIP3    H242711   3.129   4.895   1.182  1.5921  2.5276 -0.5806
 7026TIP3   OH242712   2.200   5.332   1.683 -0.1106 -0.8034  0.1242
 7026TIP3    H142713   2.235   5.304   1.767 -0.6951  1.2998  1.1633
 7026TIP3    H242714   2.122   5.384   1.706 -0.3957 -0.3328 -1.7156
 7027TIP3   OH242715   4.616   6.253   1.691  0.5489  0.4270  0.7034
 7027TIP3    H142716   4.566   6.294   1.621 -0.9625 -1.1339  0.8137
 7027TIP3    H242717   4.708   6.270   1.668  0.0636  0.5531 -1.2691
 7028TIP3   OH242718   2.913   5.512   0.367 -0.4696  0.0235 -0.0136
 7028TIP3    H142719   2.945   5.585   0.419 -2.7004  0.8442  0.3422
 7028TIP3    H242720   2.822   5.534   0.348 -0.2425 -1.0732 -2.8405
 7029TIP3   OH242721   3.635   2.397   0.623  0.2335  0.2281  0.2843
 7029TIP3    H142722   3.722   2.380   0.659 -0.3996  0.7769  2.2197
 7029TIP3    H242723   3.647   2.397   0.528  2.5159  1.2570  0.5251
 7030TIP3   OH242724   2.272   1.325   8.577 -0.0594  0.1290  0.4862
 7030TIP3    H142725   2.362   1.360   8.579  0.6510 -1.5511 -0.3314
 7030TIP3    H242726   2.230   1.373   8.506  0.6358 -0.0301 -0.0524
 7031TIP3   OH242727   2.797   6.344   3.116  0.2288  0.3831 -0.4023
 7031TIP3    H142728   2.799   6.287   3.193 -1.3448  1.8273  0.7921
 7031TIP3    H242729   2.888   6.369   3.103  0.7240 -1.0194  0.0742
 7032TIP3   OH242730   1.231   4.821   0.686 -0.5491 -0.0229 -0.4346
 7032TIP3    H142731   1.234   4.777   0.771 -1.9152 -0.6956 -0.6932
 7032TIP3    H242732   1.319   4.856   0.673  0.3331 -1.8406  0.2526
 7033TIP3   OH242733   4.616   3.272   7.715 -0.2426 -0.5981  0.1792
 7033TIP3    H142734   4.631   3.251   7.807  2.8257  1.6891  0.3303
 7033TIP3    H242735   4.607   3.367   7.712 -1.1035 -0.6770 -1.8203
 7034TIP3   OH242736   2.925   6.644   8.234 -0.5690  0.1461 -0.3884
 7034TIP3    H142737   2.990   6.629   8.303 -1.4569 -3.1788 -0.1061
 7034TIP3    H242738   2.977   6.657   8.155  0.4617 -0.6369  0.1373
 7035TIP3   OH242739   0.789   3.638   1.919 -0.2122  0.4458  0.0206
 7035TIP3    H142740   0.805   3.554   1.961  0.9782  0.5924 -0.1012
 7035TIP3    H242741   0.702   3.664   1.949 -0.5594 -0.7875  0.1174
 7036TIP3   OH242742   1.968   1.241   1.114  0.9359 -0.3968  0.1436
 7036TIP3    H142743   1.942   1.221   1.204 -0.8380  0.8368 -0.0496
 7036TIP3    H242744   1.973   1.337   1.111  1.8462 -0.4528 -0.8615
 7037TIP3   OH242745   1.372   0.480   1.594  0.2013 -0.1931  0.4805
 7037TIP3    H142746   1.313   0.532   1.647 -1.2252 -1.4478  0.1872
 7037TIP3    H242747   1.432   0.544   1.555 -0.0578  0.9576  1.8824
 7038TIP3   OH242748   0.900   5.472   0.712  0.1924  0.0745  0.7577
 7038TIP3    H142749   0.807   5.452   0.715 -0.1260  1.2193 -0.3346
 7038TIP3    H242750   0.943   5.394   0.748 -1.1780 -0.3955  1.4482
 7039TIP3   OH242751   4.127   6.578   8.534 -0.1274 -0.2486  0.1399
 7039TIP3    H142752   4.129   6.483   8.524  2.3383 -0.1762 -0.5758
 7039TIP3    H242753   4.044   6.605   8.494 -0.1715 -1.9538 -0.9875
 7040TIP3   OH242754   4.774   0.187   2.684 -0.6556 -0.5210  0.3037
 7040TIP3    H142755   4.833   0.201   2.759  0.0897  1.4838 -0.5738
 7040TIP3    H242756   4.747   0.275   2.659 -2.4065 -1.2876 -0.6307
 7041TIP3   OH242757   2.849   0.621   2.762 -0.2854  0.2985 -0.2699
 7041TIP3    H142758   2.809   0.588   2.843 -0.2941 -1.4134 -0.9188
 7041TIP3    H242759   2.808   0.569   2.693  0.6397  0.8517 -1.2592
 7042TIP3   OH242760   0.257   1.330   2.405  0.6390  0.6755 -0.3857
 7042TIP3    H142761   0.319   1.258   2.414 -0.1765  0.1419  1.4083
 7042TIP3    H242762   0.306   1.408   2.433  1.0141  0.5421 -0.6679
 7043TIP3   OH242763   3.278   2.910   0.981 -0.2501  0.4198 -0.1713
 7043TIP3    H142764   3.310   2.820   0.979 -2.9091 -0.6176 -0.3075
 7043TIP3    H242765   3.189   2.905   0.946 -1.2343  2.7543  1.6790
 7044TIP3   OH242766   3.136   1.076   8.079  0.2036  0.0865 -0.7904
 7044TIP3    H142767   3.199   1.080   8.007  0.1845  0.8545 -0.7663
 7044TIP3    H242768   3.052   1.057   8.037  0.5352 -1.6503 -0.7642
 7045TIP3   OH242769   5.572   3.826   7.391  0.1629 -0.2930  0.1497
 7045TIP3    H142770   5.658   3.801   7.425  0.6013  0.4671 -0.3771
 7045TIP3    H242771   5.547   3.902   7.443  0.6683  0.6432 -0.9503
 7046TIP3   OH242772   6.431   6.018   7.579  0.4514  0.2061 -0.0553
 7046TIP3    H142773   6.479   5.961   7.638 -1.0101 -0.9980  0.0179
 7046TIP3    H242774   6.453   6.107   7.608  0.2069 -0.3460  1.9390
 7047TIP3   OH242775   1.937   4.888   0.924 -0.2340 -0.4994  0.2205
 7047TIP3    H142776   1.937   4.850   0.836  2.0015 -1.8709  0.7149
 7047TIP3    H242777   2.029   4.909   0.940 -0.6176 -0.1835  2.1823
 7048TIP3   OH242778   6.326   1.591   2.102 -0.2242  0.4576  1.0388
 7048TIP3    H142779   6.296   1.597   2.193 -0.6930 -0.3599  0.9468
 7048TIP3    H242780   6.267   1.527   2.062  1.0151 -0.4394  0.5845
 7049TIP3   OH242781   1.885   3.492   1.568  0.3823  0.5067 -0.0043
 7049TIP3    H142782   1.799   3.450   1.559  0.5155 -0.2274  1.7277
 7049TIP3    H242783   1.930   3.440   1.635  1.9132  1.3204 -0.3542
 7050TIP3   OH242784   4.444   0.730   2.549 -0.2640 -0.6551  0.0862
 7050TIP3    H142785   4.448   0.661   2.484  0.0914 -0.7238  0.1811
 7050TIP3    H242786   4.477   0.690   2.629  1.3215  0.0175 -0.1903
 7051TIP3   OH242787   1.693   6.031   7.483 -0.8097 -0.1024  0.1059
 7051TIP3    H142788   1.750   5.954   7.479 -0.3290  0.2280  0.5376
 7051TIP3    H242789   1.613   5.999   7.526 -1.2086 -0.7102 -1.0206
 7052TIP3   OH242790   4.238   5.785   8.209 -0.6673  0.9985  0.2503
 7052TIP3    H142791   4.276   5.697   8.205 -0.9873  0.6433  3.2510
 7052TIP3    H242792   4.144   5.770   8.208 -0.7217  1.3427  0.3444
 7053TIP3   OH242793   2.235   4.999   2.959 -0.2982 -0.0357 -0.0469
 7053TIP3    H142794   2.260   4.939   3.029  2.5579 -0.4136 -1.2150
 7053TIP3    H242795   2.237   4.946   2.880 -0.9537  0.9184 -0.7378
 7054TIP3   OH242796   6.701   1.308   3.129 -0.2824 -0.7839  0.1717
 7054TIP3    H142797   6.693   1.235   3.067  0.1198 -1.0787  0.4695
 7054TIP3    H242798   6.649   1.378   3.089 -2.1299 -1.7702  0.7179
 7055TIP3   OH242799   6.293   1.279   0.069  0.2010 -0.2119 -0.0832
 7055TIP3    H142800   6.228   1.241   0.127  0.4737  0.0581  0.4129
 7055TIP3    H242801   6.243   1.334   0.010 -0.1059 -0.6807 -0.2593
 7056TIP3   OH242802   6.621   4.425   2.511  0.4950 -0.5725 -0.1383
 7056TIP3    H142803   6.659   4.383   2.588 -0.2154  0.3742  0.7470
 7056TIP3    H242804   6.697   4.459   2.463  0.9307 -1.0075  0.2312
 7057TIP3   OH242805   0.675   2.720   0.340 -0.2954 -0.7272  0.2152
 7057TIP3    H142806   0.768   2.710   0.319 -0.6652 -2.7300 -0.7296
 7057TIP3    H242807   0.632   2.651   0.289 -1.9622 -1.7842  2.8433
 7058TIP3   OH242808   4.196   4.776   3.408 -0.2162  0.2049  0.3245
 7058TIP3    H142809   4.191   4.865   3.374 -1.8083 -0.2230 -0.6784
 7058TIP3    H242810   4.117   4.733   3.374 -0.9960 -0.7821  3.0980
 7059TIP3   OH242811   0.380   5.996   1.029  0.1747  0.6715 -0.3485
 7059TIP3    H142812   0.286   5.990   1.042  0.3631  1.3410  1.5526
 7059TIP3    H242813   0.418   5.942   1.098  1.2060 -1.8169 -2.6582
 7060TIP3   OH242814   1.088   3.633   8.348 -0.0105  0.5801 -0.2270
 7060TIP3    H142815   1.144   3.626   8.425  0.3755  0.5319 -0.5063
 7060TIP3    H242816   1.032   3.708   8.365  2.1855  2.5713 -1.2152
 7061TIP3   OH242817   0.379   2.949   3.270 -0.1266 -0.7402 -0.1920
 7061TIP3    H142818   0.473   2.964   3.277 -0.5503  1.5963  2.2751
 7061TIP3    H242819   0.348   2.949   3.361 -2.4417 -2.2917 -0.8740
 7062TIP3   OH242820   2.000   0.347   2.469 -0.0389 -0.1606 -0.0768
 7062TIP3    H142821   2.022   0.437   2.444  1.4909 -0.7959 -1.1660
 7062TIP3    H242822   1.996   0.349   2.565  0.1851  1.0132 -0.0804
 7063TIP3   OH242823   4.064   2.998   8.039  0.4222  0.5204 -0.2318
 7063TIP3    H142824   4.056   2.945   8.118  0.1197  2.4979  1.1523
 7063TIP3    H242825   4.109   3.077   8.068  0.5485  1.1865 -2.1159
 7064TIP3   OH242826   1.226   1.982   1.847  0.0811  0.1147  0.0602
 7064TIP3    H142827   1.295   1.955   1.907 -1.0637 -1.4643  0.7360
 7064TIP3    H242828   1.183   1.901   1.821 -0.6391  0.9255 -1.4571
 7065TIP3   OH242829   0.790   4.907   0.877  0.1028 -0.5615 -0.0250
 7065TIP3    H142830   0.834   4.823   0.892  2.9548  0.8892  0.3825
 7065TIP3    H242831   0.848   4.954   0.818  0.1225  2.2229  2.0130
 7066TIP3   OH242832   0.523   3.710   0.336 -0.5984 -0.1516 -0.3069
 7066TIP3    H142833   0.474   3.658   0.399 -0.5077  3.0769  2.7497
 7066TIP3    H242834   0.459   3.730   0.267 -2.3419  0.3708  1.3686
 7067TIP3   OH242835   6.811   0.413   8.496 -0.1141 -0.1897  0.3773
 7067TIP3    H142836   6.872   0.436   8.566 -1.0283 -0.0677  1.1534
 7067TIP3    H242837   6.824   0.481   8.430  0.3856 -0.0011  0.6620
 7068TIP3   OH242838   2.239   6.740   0.622 -0.3268 -0.0265 -0.6295
 7068TIP3    H142839   2.192   6.808   0.670 -2.4024 -1.0078 -1.1634
 7068TIP3    H242840   2.271   6.784   0.543 -0.8211  0.5712 -0.5050
 7069TIP3   OH242841   3.502   6.210   2.660 -0.4059  0.6102 -0.2230
 7069TIP3    H142842   3.596   6.201   2.644 -0.4570 -0.1874 -0.1039
 7069TIP3    H242843   3.465   6.126   2.633 -0.9013  0.3680  1.1314
 7070TIP3   OH242844   6.164   6.566   7.905 -0.2706  0.0628 -0.4125
 7070TIP3    H142845   6.181   6.485   7.858 -0.1692 -0.8862  1.2018
 7070TIP3    H242846   6.167   6.634   7.837  1.9930 -0.9711 -1.4651
 7071TIP3   OH242847   3.250   0.940   8.573 -0.2160 -0.8545  0.0485
 7071TIP3    H142848   3.191   1.012   8.549 -1.4955 -1.0684  2.1916
 7071TIP3    H242849   3.194   0.862   8.571  0.3428 -1.2829  0.7609
 7072TIP3   OH242850   4.258   0.545   0.711 -0.7720  0.1490 -0.2337
 7072TIP3    H142851   4.264   0.497   0.628  1.2770  0.1718 -0.1341
 7072TIP3    H242852   4.345   0.580   0.725 -1.8281  2.7200  0.4440
 7073TIP3   OH242853   5.093   3.879   8.412  0.6051  0.6220 -0.7338
 7073TIP3    H142854   5.115   3.855   8.322  0.1972 -1.3231 -0.3493
 7073TIP3    H242855   5.006   3.919   8.405  0.6186  0.5785 -1.2091
 7074TIP3   OH242856   0.031   3.868   1.419  0.3201  0.4194 -0.0865
 7074TIP3    H142857   0.085   3.946   1.430 -1.5023  1.7493 -0.1022
 7074TIP3    H242858  -0.021   3.885   1.340 -0.5405 -0.5345  0.2487
 7075TIP3   OH242859   3.607   5.931   2.013 -0.1293  0.1341  0.0658
 7075TIP3    H142860   3.526   5.970   1.981  0.6003  0.3825 -1.6452
 7075TIP3    H242861   3.671   5.949   1.943  1.2253 -0.6333  1.0523
 7076TIP3   OH242862   4.818   3.985   2.277  0.1413 -0.2851 -0.0234
 7076TIP3    H142863   4.793   4.011   2.366 -1.2918 -2.5317  0.3216
 7076TIP3    H242864   4.850   3.895   2.286 -2.9776 -1.8065 -2.0391
 7077TIP3   OH242865   0.720   3.706   8.623 -1.0551 -0.2967 -0.0251
 7077TIP3    H142866   0.793   3.723   8.564 -0.8234  0.5044  0.4838
 7077TIP3    H242867   0.727   3.612   8.643 -0.0213 -0.1763  0.2190
 7078TIP3   OH242868   3.729   2.477   8.453 -0.2900  0.0063  0.2256
 7078TIP3    H142869   3.772   2.516   8.377  0.1557  1.2518  1.0864
 7078TIP3    H242870   3.774   2.393   8.466  2.8369  1.7649  1.8290
 7079TIP3   OH242871   1.192   4.052   2.675  0.1534 -0.1198 -0.2706
 7079TIP3    H142872   1.152   4.043   2.762 -0.0537 -0.1234 -0.3664
 7079TIP3    H242873   1.272   4.102   2.691  0.3212 -0.4649 -0.0204
 7080TIP3   OH242874   4.113   0.476   0.235 -0.0248  0.2180 -0.3629
 7080TIP3    H142875   4.108   0.502   0.328 -0.2497  0.6802 -0.4970
 7080TIP3    H242876   4.022   0.456   0.211 -0.1971  1.4759 -0.8523
 7081TIP3   OH242877   5.289   4.898   8.171 -0.9055  0.8564  0.2162
 7081TIP3    H142878   5.342   4.918   8.094  0.2911  1.5143  1.1687
 7081TIP3    H242879   5.343   4.837   8.222 -1.3572  0.9949  0.8732
 7082TIP3   OH242880   1.016   1.054   2.689  0.0053  0.6189  0.4234
 7082TIP3    H142881   1.089   1.116   2.690  1.0275 -0.5653  1.5662
 7082TIP3    H242882   0.999   1.038   2.596 -1.0688  3.4503  0.0214
 7083TIP3   OH242883   2.716   6.843   3.253  0.4520  0.7004  0.1365
 7083TIP3    H142884   2.770   6.898   3.309 -0.6073  0.1858  1.7401
 7083TIP3    H242885   2.626   6.870   3.272  0.0655  0.9629 -1.8362
 7084TIP3   OH242886   6.183   1.200   0.919 -0.6523  0.2227  0.5491
 7084TIP3    H142887   6.141   1.263   0.978 -0.8302  0.9717 -0.3493
 7084TIP3    H242888   6.176   1.241   0.832 -0.5226 -0.9199 -0.0126
 7085TIP3   OH242889   0.344   0.449   2.952 -0.0831  0.2420  0.2125
 7085TIP3    H142890   0.311   0.398   3.025 -2.5667  0.2690 -0.7988
 7085TIP3    H242891   0.330   0.540   2.977 -1.1314  0.2477 -0.3262
 7086TIP3   OH242892   4.343   5.153   1.573 -0.2515  0.4168  0.2474
 7086TIP3    H142893   4.297   5.187   1.496  0.4627 -0.1981 -0.4632
 7086TIP3    H242894   4.276   5.151   1.641 -0.8125  1.2993 -0.2500
 7087TIP3   OH242895   2.598   3.841   1.507 -0.4655 -0.5051  0.2825
 7087TIP3    H142896   2.654   3.874   1.578 -0.4831  1.4649 -0.5583
 7087TIP3    H242897   2.652   3.774   1.464 -0.8067 -2.4460  2.6538
 7088TIP3   OH242898   0.902   1.035   0.689 -0.2752 -0.6068 -0.5973
 7088TIP3    H142899   0.832   1.098   0.675  1.6630  1.7105 -0.5926
 7088TIP3    H242900   0.900   1.017   0.783  0.6870  1.4996 -0.1183
 7089TIP3   OH242901   6.088   1.285   2.258  0.3278 -0.3720  0.8554
 7089TIP3    H142902   6.094   1.366   2.309  1.7372 -0.6728  1.2041
 7089TIP3    H242903   6.179   1.261   2.239 -0.0471 -1.9268  0.8522
 7090TIP3   OH242904   2.291   4.059   1.351  0.3848 -0.1734 -0.1292
 7090TIP3    H142905   2.253   3.984   1.396 -0.2934 -0.2274 -0.7807
 7090TIP3    H242906   2.284   4.038   1.258 -1.2408  1.3355 -0.4105
 7091TIP3   OH242907   3.717   6.659   0.290 -0.6166 -0.2703 -0.1139
 7091TIP3    H142908   3.683   6.739   0.330  2.2657  0.6055  0.8662
 7091TIP3    H242909   3.673   6.588   0.336 -0.3789  0.7519  1.7857
 7092TIP3   OH242910   3.815   1.722   8.165 -0.4591 -1.0005 -0.1585
 7092TIP3    H142911   3.757   1.677   8.225 -0.2395 -1.1189 -0.0353
 7092TIP3    H242912   3.791   1.814   8.172 -1.4611 -1.1728 -1.0100
 7093TIP3   OH242913   6.493   1.368   0.367 -0.2126  0.2991 -0.3091
 7093TIP3    H142914   6.544   1.298   0.408 -1.3135 -0.1550  0.3320
 7093TIP3    H242915   6.525   1.372   0.277  0.0585 -0.8440 -0.2742
 7094TIP3   OH242916   2.906   6.830   0.686  0.4827 -0.2596  0.1264
 7094TIP3    H142917   2.981   6.782   0.721  1.0903  0.2376 -0.4740
 7094TIP3    H242918   2.888   6.897   0.751  1.2397  0.2919 -0.2155
 7095TIP3   OH242919   4.171   2.088   0.204  0.1002 -0.1275 -0.2847
 7095TIP3    H142920   4.202   2.120   0.288  0.1144 -0.5879 -0.1148
 7095TIP3    H242921   4.076   2.103   0.206 -0.2925 -2.4786  0.8568
 7096TIP3   OH242922   3.654   1.834   2.551  1.0056 -0.5592  0.5589
 7096TIP3    H142923   3.741   1.805   2.577  0.4712 -2.2974  0.5184
 7096TIP3    H242924   3.598   1.758   2.566 -0.1980 -0.0392 -1.0275
 7097TIP3   OH242925   5.736   2.984   0.159  0.1395  0.2049 -0.4061
 7097TIP3    H142926   5.757   2.892   0.143  0.8293  0.4949 -1.2142
 7097TIP3    H242927   5.699   3.015   0.076  0.7971  0.8948 -0.4534
 7098TIP3   OH242928   2.527   1.277   0.250 -0.0278  0.5379  0.2377
 7098TIP3    H142929   2.434   1.298   0.246 -0.4797 -1.4426 -1.1590
 7098TIP3    H242930   2.569   1.340   0.192 -0.8537 -0.0425 -1.0378
 7099TIP3   OH242931   0.848   3.714   2.378  0.2720 -0.2600 -0.5093
 7099TIP3    H142932   0.873   3.765   2.301  1.1176  0.7450  0.3985
 7099TIP3    H242933   0.768   3.757   2.410  0.2820 -0.2784 -0.4597
 7100TIP3   OH242934   1.230   0.030   1.323 -0.8551  0.3472  0.2121
 7100TIP3    H142935   1.202   0.098   1.384  0.0101 -0.3024  1.3738
 7100TIP3    H242936   1.149  -0.016   1.300 -1.2346  0.8097  0.6037
 7101TIP3   OH242937   2.382   4.375   1.491  0.3324  0.2108  0.0637
 7101TIP3    H142938   2.377   4.294   1.441  0.6199  0.6915 -0.7679
 7101TIP3    H242939   2.379   4.348   1.582  2.3076 -0.8696 -0.1527
 7102TIP3   OH242940   1.113   3.327   1.229 -0.0281  0.2509  0.2896
 7102TIP3    H142941   1.103   3.237   1.261  1.5157  0.3920  1.3197
 7102TIP3    H242942   1.026   3.352   1.200 -0.6472 -1.3352  0.6391
 7103TIP3   OH242943   5.079   0.302   0.907 -0.2354  0.3765  0.6138
 7103TIP3    H142944   5.113   0.370   0.848 -0.2704  0.6431  0.8990
 7103TIP3    H242945   5.031   0.350   0.974 -2.2072 -0.0493 -0.4213
 7104TIP3   OH242946   2.297   1.730   7.922  0.1809 -0.2184  0.1440
 7104TIP3    H142947   2.223   1.790   7.932  0.6402  0.5196 -0.6971
 7104TIP3    H242948   2.368   1.785   7.889  0.5823 -1.2472 -0.7771
 7105TIP3   OH242949   1.917   2.080   0.329  0.4672 -0.1947 -0.2764
 7105TIP3    H142950   1.935   2.000   0.279  0.2501 -3.1880  3.9254
 7105TIP3    H242951   2.003   2.121   0.340  1.0815 -1.5096 -0.0246
 7106TIP3   OH242952   5.002   2.352   2.372  0.3549 -0.1159 -0.0773
 7106TIP3    H142953   5.087   2.395   2.368  0.3542 -0.0712  0.3117
 7106TIP3    H242954   5.018   2.269   2.417  0.7310 -1.4926 -2.5867
 7107TIP3   OH242955   4.333   3.687   7.972  0.0378  0.5142  0.4794
 7107TIP3    H142956   4.409   3.634   7.947  1.3047  2.3997  0.1172
 7107TIP3    H242957   4.292   3.638   8.043  0.2408 -1.6661 -0.8017
 7108TIP3   OH242958   4.682   3.274   8.308 -0.4788  0.7754 -0.0132
 7108TIP3    H142959   4.771   3.264   8.273 -0.2163  2.0657  0.2476
 7108TIP3    H242960   4.693   3.267   8.403 -0.6009  1.2061  0.0368
 7109TIP3   OH242961   4.959   4.146   2.725  0.6271  0.3522  0.0734
 7109TIP3    H142962   5.047   4.120   2.752  1.6193  2.6706 -0.6723
 7109TIP3    H242963   4.923   4.191   2.802  1.0257  1.4264 -0.3451
 7110TIP3   OH242964   5.328   2.100   0.616 -0.5663  0.2274 -0.3307
 7110TIP3    H142965   5.339   2.005   0.615  0.3431  0.3295 -0.5749
 7110TIP3    H242966   5.334   2.125   0.708 -1.5872 -0.0239 -0.1792
 7111TIP3   OH242967   1.478   3.050   2.517 -0.1578  0.5052 -0.0734
 7111TIP3    H142968   1.475   3.030   2.424 -3.2013  0.1642 -0.0004
 7111TIP3    H242969   1.563   3.017   2.546  0.2552 -0.7025 -2.4379
 7112TIP3   OH242970   5.936   0.237   0.297  0.2048  0.0082  0.5647
 7112TIP3    H142971   5.884   0.163   0.328 -0.4045 -0.1550 -0.7882
 7112TIP3    H242972   5.960   0.214   0.207  0.9558  0.9642  0.4958
 7113TIP3   OH242973   3.398   1.972   7.455 -0.1073  0.0956 -0.1360
 7113TIP3    H142974   3.337   1.898   7.455  0.3997 -0.3289 -0.3072
 7113TIP3    H242975   3.474   1.941   7.406 -0.3778  1.1553 -1.2756
 7114TIP3   OH242976   1.038   2.249   1.290 -0.2461  0.0379  0.2536
 7114TIP3    H142977   1.027   2.159   1.258  1.0101  0.1694 -0.6086
 7114TIP3    H242978   1.130   2.254   1.316  0.3827  1.7746 -2.0244
 7115TIP3   OH242979   2.579   5.538   7.796 -0.0524 -0.1843 -0.0764
 7115TIP3    H142980   2.567   5.630   7.819 -1.1177 -0.2913 -0.1396
 7115TIP3    H242981   2.673   5.530   7.779 -0.2420  1.4437 -2.4137
 7116TIP3   OH242982   0.648   6.831   7.708 -0.4912 -0.5968  0.8785
 7116TIP3    H142983   0.579   6.885   7.745  0.1008  1.3666 -0.6984
 7116TIP3    H242984   0.614   6.804   7.623  0.7980  0.7880 -0.1246
 7117TIP3   OH242985   1.820   0.765   2.423 -0.1657 -0.1199 -0.2207
 7117TIP3    H142986   1.750   0.722   2.373 -0.7996  1.7613 -1.0127
 7117TIP3    H242987   1.841   0.843   2.373  2.5157 -0.5975  0.0223
 7118TIP3   OH242988   6.509   5.334   0.441  0.2241 -0.4407  0.3084
 7118TIP3    H142989   6.488   5.328   0.348  0.3151  0.5592  0.2176
 7118TIP3    H242990   6.449   5.400   0.475 -0.3933 -1.4139  1.1430
 7119TIP3   OH242991   4.037   5.436   8.209 -0.2889 -0.3223 -0.0488
 7119TIP3    H142992   3.958   5.382   8.207 -0.9656  0.6409 -2.3575
 7119TIP3    H242993   4.039   5.472   8.298 -2.0141 -0.9727  0.2955
 7120TIP3   OH242994   5.070   5.529   7.320 -0.9302  0.5492 -0.3841
 7120TIP3    H142995   5.063   5.434   7.333 -0.6921  0.1901 -2.5729
 7120TIP3    H242996   5.020   5.546   7.240 -0.9857  2.3022 -0.0153
 7121TIP3   OH242997   5.474   4.383   1.557 -0.1178 -0.0169 -0.2873
 7121TIP3    H142998   5.505   4.360   1.644 -1.2522 -1.0964 -0.1425
 7121TIP3    H242999   5.537   4.448   1.526 -0.4253  1.3784  1.8238
 7122TIP3   OH243000   2.244   6.775   1.009  0.1715  0.3663 -0.3147
 7122TIP3    H143001   2.333   6.741   1.023  0.0124  0.2194  0.3739
 7122TIP3    H243002   2.242   6.859   1.054  0.8093  1.7513 -2.6845
 7123TIP3   OH243003   3.502   2.658   0.717 -0.4953 -0.2591 -0.1123
 7123TIP3    H143004   3.548   2.713   0.781 -0.6359  0.3425 -0.5320
 7123TIP3    H243005   3.569   2.596   0.688 -0.6694 -1.1863  1.3342
 7124TIP3   OH243006   1.969   6.895   0.575  0.3185 -0.1901  0.1715
 7124TIP3    H143007   2.047   6.871   0.526  2.5377 -1.5316  3.9537
 7124TIP3    H243008   1.995   6.973   0.626 -0.9123 -0.4079  1.2011
 7125TIP3   OH243009   3.382   3.536   0.248 -0.2264  0.3399  0.8402
 7125TIP3    H143010   3.469   3.520   0.284  0.3798  2.2809  0.3999
 7125TIP3    H243011   3.330   3.567   0.322 -0.4717 -0.5350  1.0425
 7126TIP3   OH243012   4.272   2.190   2.390  0.2988 -0.4082 -0.3391
 7126TIP3    H143013   4.261   2.251   2.317 -0.3882 -0.3756 -0.2078
 7126TIP3    H243014   4.184   2.174   2.422  0.6231 -0.2385  0.6524
 7127TIP3   OH243015   3.562   0.806   1.097 -0.0436  0.5297 -0.7810
 7127TIP3    H143016   3.476   0.765   1.084  0.4242 -0.2617 -1.4352
 7127TIP3    H243017   3.558   0.886   1.044 -0.1334  0.1315 -1.3945
 7128TIP3   OH243018   2.440   0.962   1.564  0.4568  0.0605 -0.0477
 7128TIP3    H143019   2.445   0.922   1.477  0.2142  1.4358 -0.7256
 7128TIP3    H243020   2.517   0.929   1.609  0.3510 -1.0333 -0.6106
 7129TIP3   OH243021   1.543   3.433   1.892 -0.3250  0.1550  0.1374
 7129TIP3    H143022   1.534   3.488   1.970 -1.3492 -0.6052  0.5698
 7129TIP3    H243023   1.464   3.379   1.891 -1.3818  1.5276 -2.5337
 7130TIP3   OH243024   5.196   2.919   2.936  0.2386  0.3036 -0.1615
 7130TIP3    H143025   5.149   3.000   2.954  0.0188  0.5057 -1.5337
 7130TIP3    H243026   5.236   2.933   2.850 -0.4932 -1.3512 -0.8070
 7131TIP3   OH243027   3.698   4.445   0.769  0.8037  0.1560  0.5224
 7131TIP3    H143028   3.660   4.519   0.816  0.4492  0.7683 -0.6826
 7131TIP3    H243029   3.708   4.476   0.679 -0.3083 -1.5731 -0.2566
 7132TIP3   OH243030   1.906   2.795   2.670  0.6408  0.3162  0.2256
 7132TIP3    H143031   1.916   2.805   2.765  1.9985 -3.1406  0.5941
 7132TIP3    H243032   1.987   2.831   2.633  0.3649  1.1370  0.4061
 7133TIP3   OH243033   6.466   6.231   0.875  0.2803  0.8528 -0.6326
 7133TIP3    H143034   6.443   6.201   0.786  0.4559 -0.9090 -0.1315
 7133TIP3    H243035   6.562   6.223   0.878  0.1919 -0.1578  0.0414
 7134TIP3   OH243036   2.597   2.664   3.408  0.0361  0.1827  0.0044
 7134TIP3    H143037   2.559   2.712   3.334 -0.0310  0.3648  0.1544
 7134TIP3    H243038   2.549   2.697   3.484  1.3501  1.3227  0.3557
 7135TIP3   OH243039   0.973   3.881   0.256  0.4132 -0.1611  0.4053
 7135TIP3    H143040   0.954   3.901   0.347  0.9015 -0.8079  0.6671
 7135TIP3    H243041   1.060   3.840   0.259  0.0732 -0.9559 -0.2444
 7136TIP3   OH243042   6.876   5.384   0.857  0.3348 -0.0335  0.1883
 7136TIP3    H143043   6.794   5.387   0.808  0.8020  0.0539 -0.6027
 7136TIP3    H243044   6.936   5.438   0.806  0.5662  0.8904  1.3736
 7137TIP3   OH243045   1.673   5.957   0.856 -0.1200 -0.1487 -0.1497
 7137TIP3    H143046   1.655   5.908   0.775 -0.2094 -1.6430  0.7436
 7137TIP3    H243047   1.593   5.949   0.907 -0.2550  1.2475 -0.0979
 7138TIP3   OH243048   2.669   1.749   7.921 -0.3749  0.3182 -0.3575
 7138TIP3    H143049   2.755   1.774   7.954 -0.7964 -0.5326  1.4728
 7138TIP3    H243050   2.671   1.775   7.828  1.7174  0.5876 -0.2849
 7139TIP3   OH243051   6.833   1.571   8.642  0.4359 -0.1385  0.3119
 7139TIP3    H143052   6.899   1.625   8.684 -0.7718  1.4631  0.2475
 7139TIP3    H243053   6.880   1.524   8.574  1.6665  0.2930  0.8459
 7140TIP3   OH243054   2.448   4.889   8.202 -0.4352  0.1079  0.0400
 7140TIP3    H143055   2.389   4.816   8.184 -0.1607 -0.3094  0.8312
 7140TIP3    H243056   2.439   4.946   8.125  0.6232 -1.5699 -1.3777
 7141TIP3   OH243057   5.722   2.878   2.426 -0.6128 -0.4043  0.1037
 7141TIP3    H143058   5.782   2.851   2.357 -0.0914 -1.5144  0.9741
 7141TIP3    H243059   5.730   2.811   2.494 -1.2369  0.5601  1.1793
 7142TIP3   OH243060   1.909   1.025   8.310  0.5128 -0.0091 -0.2101
 7142TIP3    H143061   1.917   1.098   8.371  1.2658  0.0384 -0.3533
 7142TIP3    H243062   1.880   1.064   8.228 -0.0364 -0.0083 -0.0169
 7143TIP3   OH243063   0.137   5.586   8.323 -0.0999  0.2646  0.1433
 7143TIP3    H143064   0.108   5.677   8.310  1.4893  1.4157  3.5322
 7143TIP3    H243065   0.205   5.574   8.256 -1.6046  0.8606 -1.5720
 7144TIP3   OH243066   0.112   2.582   2.740 -0.6621 -0.3524  0.4785
 7144TIP3    H143067   0.095   2.543   2.826 -1.2299  0.1832  0.6199
 7144TIP3    H243068   0.197   2.626   2.750 -0.7179 -0.3068  0.7633
 7145TIP3   OH243069   4.763   5.653   1.644  0.2653  0.5960 -0.1086
 7145TIP3    H143070   4.753   5.681   1.553 -0.0386  0.0329 -0.2522
 7145TIP3    H243071   4.855   5.625   1.650  0.0184 -0.3511 -0.5304
 7146TIP3   OH243072   2.300   4.284   0.146  0.2676  0.0897 -0.3446
 7146TIP3    H143073   2.362   4.252   0.211 -1.2878  0.2592  1.3167
 7146TIP3    H243074   2.240   4.210   0.131  0.7061 -0.0054 -1.7516
 7147TIP3   OH243075   3.954   5.830   8.431 -0.2618 -0.0682 -0.1163
 7147TIP3    H143076   3.898   5.835   8.508 -0.2121  0.6100 -0.1118
 7147TIP3    H243077   3.924   5.754   8.383 -0.1855 -0.5996  0.6597
 7148TIP3   OH243078   3.947   3.724   2.908 -0.1801  0.6617 -0.1942
 7148TIP3    H143079   3.995   3.792   2.861  1.1912  0.9966  1.5811
 7148TIP3    H243080   3.901   3.770   2.978 -0.2772 -0.0692  0.2382
 7149TIP3   OH243081   2.692   6.787   1.667 -0.1768  0.2374 -0.0278
 7149TIP3    H143082   2.627   6.725   1.635  0.8889 -0.0331 -1.8115
 7149TIP3    H243083   2.651   6.873   1.657 -1.2308 -0.0781  1.3833
 7150TIP3   OH243084   3.556   5.735   2.525 -0.1232 -0.0291 -0.4788
 7150TIP3    H143085   3.600   5.808   2.569  1.3352 -1.3090  0.2892
 7150TIP3    H243086   3.562   5.756   2.432  1.2034  0.3536 -0.3278
 7151TIP3   OH243087   4.869   5.326   7.866  0.1580  0.3211  0.4727
 7151TIP3    H143088   4.820   5.346   7.946  0.6878  2.5388  0.3059
 7151TIP3    H243089   4.954   5.369   7.878  0.2692  0.6455 -1.2371
 7152TIP3   OH243090   5.465   4.539   2.526  0.4537 -0.1029  0.4672
 7152TIP3    H143091   5.496   4.611   2.580 -1.2745  0.5315  0.6789
 7152TIP3    H243092   5.443   4.580   2.442  2.3892 -0.9469 -0.5249
 7153TIP3   OH243093   5.009   1.675   8.110 -0.1605 -0.3992 -0.4470
 7153TIP3    H143094   5.092   1.711   8.080  1.6597 -2.8978  1.1688
 7153TIP3    H243095   4.988   1.606   8.047 -1.2748  0.4745 -1.0692
 7154TIP3   OH243096   3.880   1.023   0.036  0.6912  0.6359  1.0011
 7154TIP3    H143097   3.857   1.115   0.045 -2.6733  0.1975 -1.0902
 7154TIP3    H243098   3.824   0.978   0.100 -0.7643 -0.1353 -0.7098
 7155TIP3   OH243099   5.410   1.125   1.420 -0.1895 -0.1529 -0.0820
 7155TIP3    H143100   5.434   1.073   1.343 -0.1621 -0.5447  0.1925
 7155TIP3    H243101   5.484   1.117   1.479 -0.8000 -1.0094  0.5834
 7156TIP3   OH243102   4.807   6.497   8.020 -0.3031 -0.1133  0.0660
 7156TIP3    H143103   4.731   6.531   8.067  0.1442 -1.6362  2.0140
 7156TIP3    H243104   4.882   6.542   8.058  0.3368 -3.1934  2.9395
 7157TIP3   OH243105   1.323   5.065   7.488 -0.4862 -0.1925  0.2801
 7157TIP3    H143106   1.313   5.106   7.402  1.2837 -0.7485 -0.2371
 7157TIP3    H243107   1.402   5.013   7.480 -0.7720 -0.9523  2.0026
 7158TIP3   OH243108   2.804   5.513   1.410 -0.4009 -0.5194 -0.4796
 7158TIP3    H143109   2.769   5.597   1.440 -2.0561 -1.4364  0.3853
 7158TIP3    H243110   2.889   5.505   1.453 -0.1902  0.7225 -0.6350
 7159TIP3   OH243111   1.745   0.537   2.185  0.3856  0.5380  0.2704
 7159TIP3    H143112   1.674   0.582   2.231  0.8611  0.6123  0.9496
 7159TIP3    H243113   1.750   0.580   2.099 -0.4064  0.5061  0.2026
 7160TIP3   OH243114   3.801   0.626   2.179 -0.3200  0.0239 -0.1288
 7160TIP3    H143115   3.792   0.582   2.264  0.0875 -0.2544 -0.2218
 7160TIP3    H243116   3.851   0.564   2.126  1.3523  1.0871  0.1182
 7161TIP3   OH243117   1.110   1.730   0.092 -0.3396 -0.0729  0.2604
 7161TIP3    H143118   1.127   1.658   0.031  1.5395  0.7684 -0.2857
 7161TIP3    H243119   1.168   1.713   0.166  0.1678  0.9040  0.1008
 7162TIP3   OH243120   1.485   2.288   3.654  0.1772  0.2547 -0.4306
 7162TIP3    H143121   1.542   2.211   3.651  0.9502  0.8319 -0.8545
 7162TIP3    H243122   1.538   2.356   3.695 -0.5472  0.5282  0.0736
 7163TIP3   OH243123   2.183   2.846   7.622  0.1373  0.2715 -0.1595
 7163TIP3    H143124   2.147   2.914   7.564 -0.1595  1.3192  1.1829
 7163TIP3    H243125   2.118   2.776   7.620 -0.0445  0.4480 -0.8002
 7164TIP3   OH243126   3.292   5.409   8.311  0.9266 -0.0977 -0.5648
 7164TIP3    H143127   3.275   5.328   8.359 -0.0602  0.5405  0.2173
 7164TIP3    H243128   3.336   5.466   8.374 -2.9406  1.8163  0.7233
 7165LIG      O43129   2.577   1.941   6.058  0.8426  0.1790 -0.2065
 7165LIG      N43130   2.461   2.091   5.849  1.1185  0.1913  0.2686
 7165LIG     C143131   2.604   2.043   6.271  0.5533 -0.0386  0.3566
 7165LIG     C243132   2.526   2.041   6.145 -0.4130 -0.3789 -0.5603
 7165LIG     C343133   2.576   1.914   6.361 -0.0951  0.3140  0.2059
 7165LIG     C443134   2.754   2.052   6.254  0.9445  0.1957  1.0630
 7165LIG     C543135   2.540   2.181   6.071 -0.4062  0.0132  0.6091
 7165LIG     C643136   2.661   1.915   6.489  0.1355  0.1841 -0.2809
 7165LIG     C743137   2.847   2.043   6.377 -0.0613 -0.1697 -0.1319
 7165LIG     C843138   2.808   1.916   6.458 -0.1008 -0.2616  0.5907
 7165LIG     C943139   2.447   2.200   5.953 -0.0643  0.1471  0.3399
 7165LIG    C1043140   2.379   2.015   6.184 -0.0452  0.1063 -0.4300
 7165LIG    C1143141   2.342   2.084   5.758 -0.2737 -0.1327  0.0158
 7165LIG    C1243142   2.579   2.082   5.775 -0.0882 -0.3835  0.2164
 7165LIG    C1343143   2.339   2.217   5.675  0.4361  0.3766 -0.0815
 7165LIG    C1443144   2.596   2.208   5.679 -0.2867 -0.1779 -0.0067
 7165LIG    C1543145   2.470   2.236   5.594 -0.2945 -0.5383  0.7843
 7165LIG    C1643146   2.313   2.112   6.253  0.4502 -0.1745 -0.0119
 7165LIG    C1743147   2.301   1.906   6.143 -0.2213  0.2813 -0.2710
 7165LIG    C1843148   2.177   2.104   6.280 -0.2594  0.4931 -0.9010
 7165LIG    C1943149   2.161   1.892   6.168 -0.6578  0.5195 -0.0999
 7165LIG    C2043150   2.097   1.993   6.233  0.7783 -0.1275  0.0307
 7165LIG     H143151   2.572   2.133   6.326 -0.5696  0.1809 -0.6068
 7165LIG     H243152   2.612   1.832   6.296  2.0289  0.7128  0.8039
 7165LIG     H343153   2.470   1.912   6.392 -0.4309  0.6428 -0.8813
 7165LIG     H443154   2.786   2.141   6.196 -0.6689  0.9109  1.2187
 7165LIG     H543155   2.775   1.971   6.181 -2.2841  0.0330  0.1360
 7165LIG     H643156   2.647   2.195   6.043 -0.2116  0.1096  1.3878
 7165LIG     H743157   2.522   2.257   6.150  0.2035  0.4939  0.3004
 7165LIG     H843158   2.639   1.823   6.547 -1.4647  0.3130 -0.6407
 7165LIG     H943159   2.625   2.002   6.549  1.3897  0.9979 -0.6592
 7165LIG    H1043160   2.827   2.133   6.439  0.1707  0.9284 -1.5935
 7165LIG    H1143161   2.950   2.059   6.340 -0.7207  3.3109 -0.8221
 7165LIG    H1243162   2.836   1.837   6.386 -2.9938  2.8915 -4.6370
 7165LIG    H1343163   2.866   1.935   6.551  0.4450  1.5269 -0.0763
 7165LIG    H1443164   2.337   2.210   5.968  0.0402  0.1472  1.1399
 7165LIG    H1543165   2.485   2.292   5.904 -1.4685  0.7063  0.2569
 7165LIG    H1643166   2.248   2.056   5.810 -1.0115  2.0688 -0.0221
 7165LIG    H1743167   2.340   2.003   5.682  0.4058 -0.5634  0.4553
 7165LIG    H1843168   2.566   1.988   5.718  1.0054 -1.5681  1.8223
 7165LIG    H1943169   2.661   2.076   5.850 -1.2526 -1.6100  1.4408
 7165LIG    H2043170   2.550   1.984   5.977  1.4104  0.6117 -0.1776
 7165LIG    H2143171   2.325   2.307   5.738  1.8684  1.1534 -0.8171
 7165LIG    H2243172   2.250   2.217   5.609 -1.1759  0.5238  1.9769
 7165LIG    H2343173   2.688   2.205   5.617  1.1471 -0.9428  2.0324
 7165LIG    H2443174   2.616   2.295   5.745  1.3420 -0.8307  0.4109
 7165LIG    H2543175   2.474   2.341   5.556  1.5032 -0.1330  1.9388
 7165LIG    H2643176   2.474   2.168   5.507 -0.4021  2.6436 -1.9160
 7165LIG    H2743177   2.369   2.199   6.287 -0.9131  0.7472 -0.0390
 7165LIG    H2843178   2.346   1.818   6.098  0.2664 -0.7918  2.1701
 7165LIG    H2943179   2.118   2.187   6.318 -0.8882  0.6212 -2.1047
 7165LIG    H3043180   2.114   1.804   6.126  0.5294  0.4832 -1.4523
 7165LIG    H3143181   1.991   1.985   6.250  0.9701  0.9645  2.1061
   6.90867   6.90867   8.65092
