Title
43181
    1CHL1    C3    1   3.375   4.933   7.848 -0.0427 -0.0892 -0.0656
    1CHL1    H3    2   3.274   4.885   7.848 -0.5018  0.7526 -2.2900
    1CHL1    O3    3   3.418   4.961   7.978  0.5631  0.1281 -0.1461
    1CHL1   H3'    4   3.427   4.876   8.023 -0.5206  0.2499  0.3302
    1CHL1    C4    5   3.481   4.836   7.791  1.0010  1.1099 -0.0292
    1CHL1   H4A    6   3.582   4.867   7.825  0.8375 -0.4399  2.0679
    1CHL1   H4B    7   3.462   4.742   7.846  0.0625  0.3690 -1.5631
    1CHL1    C5    8   3.487   4.814   7.639  0.5424  0.2002  0.0489
    1CHL1    C6    9   3.457   4.695   7.593  1.1665  0.7120  0.3151
    1CHL1    H6   10   3.450   4.617   7.671 -0.0789 -0.4739 -0.9177
    1CHL1    C7   11   3.454   4.657   7.443 -0.4122 -0.5196  0.5229
    1CHL1   H7A   12   3.491   4.553   7.427 -2.2761 -1.2645  0.8789
    1CHL1   H7B   13   3.348   4.652   7.412 -0.3055  1.2170 -0.2446
    1CHL1    C8   14   3.522   4.769   7.363 -0.1995  0.1320  0.0782
    1CHL1    H8   15   3.629   4.763   7.390 -0.7432  1.2960  2.8587
    1CHL1   C14   16   3.514   4.760   7.214 -0.2181 -0.2066 -0.5549
    1CHL1   H14   17   3.405   4.762   7.193 -0.4688  2.1982  0.6311
    1CHL1   C15   18   3.564   4.628   7.145  0.3024  0.5027 -0.0860
    1CHL1  H15A   19   3.653   4.596   7.205 -1.2137 -0.1664  1.9267
    1CHL1  H15B   20   3.481   4.555   7.155  0.2829  0.5735  0.3009
    1CHL1   C16   21   3.592   4.669   7.002  0.1058  0.1776 -0.4575
    1CHL1  H16A   22   3.700   4.659   6.981  0.0465  0.4055 -0.8689
    1CHL1  H16B   23   3.533   4.603   6.935  1.2510 -0.7577 -0.5736
    1CHL1   C17   24   3.551   4.810   6.990  0.2266 -0.4393  0.0199
    1CHL1   H17   25   3.442   4.811   6.972  0.2170 -0.9743  0.0490
    1CHL1   C13   26   3.569   4.880   7.132 -0.0933 -0.6382 -0.0321
    1CHL1   C18   27   3.722   4.904   7.148 -0.0116 -0.8101  0.1437
    1CHL1  H18A   28   3.786   4.819   7.113 -1.8153 -2.1510 -0.0464
    1CHL1  H18B   29   3.751   4.999   7.097  0.0669 -1.1697 -0.5021
    1CHL1  H18C   30   3.744   4.922   7.255  0.0454  1.9125 -0.2484
    1CHL1   C12   31   3.480   5.004   7.163 -0.6054 -0.5096 -0.6237
    1CHL1  H12A   32   3.500   5.092   7.099 -0.9441 -1.5557 -2.2378
    1CHL1  H12B   33   3.372   4.979   7.150 -1.4146  2.6207 -0.7201
    1CHL1   C11   34   3.503   5.035   7.315  0.2658  0.1842 -0.0953
    1CHL1  H11A   35   3.602   5.085   7.324 -0.1428  0.9890  0.0392
    1CHL1  H11B   36   3.429   5.108   7.355 -0.2794  0.1360 -1.0033
    1CHL1    C9   37   3.475   4.913   7.409  0.4089 -0.5306 -0.0816
    1CHL1    H9   38   3.365   4.899   7.409  0.4539 -0.8813  0.4085
    1CHL1   C10   39   3.503   4.943   7.561 -0.0122 -0.0781 -0.4360
    1CHL1   C19   40   3.647   4.992   7.581 -0.1753 -0.2213  0.1506
    1CHL1  H19A   41   3.669   5.012   7.688  2.1544  2.1353 -0.6518
    1CHL1  H19B   42   3.721   4.914   7.552 -0.8926  0.1853 -3.1785
    1CHL1  H19C   43   3.676   5.084   7.526  1.9139 -0.7994  0.1814
    1CHL1    C1   44   3.396   5.041   7.614  0.0364  0.4684  1.4411
    1CHL1   H1A   45   3.398   5.143   7.571 -0.4107 -0.3798 -0.7025
    1CHL1   H1B   46   3.300   5.000   7.577  1.0854 -0.7434 -0.0998
    1CHL1    C2   47   3.385   5.068   7.768  0.5132  0.2104  0.2653
    1CHL1   H2A   48   3.302   5.137   7.795  0.7174  1.0756 -1.1804
    1CHL1   H2B   49   3.465   5.138   7.799 -1.0075  1.4945  1.4566
    1CHL1   C20   50   3.617   4.879   6.866 -0.3143  1.5217 -0.0941
    1CHL1   H20   51   3.727   4.882   6.878 -0.3433 -0.0999  0.9488
    1CHL1   C21   52   3.582   5.024   6.840  0.4292 -0.3167  0.5932
    1CHL1  H21A   53   3.627   5.066   6.747 -0.5935 -0.1545  0.1679
    1CHL1  H21B   54   3.606   5.078   6.934 -1.9952 -1.1238  1.7336
    1CHL1  H21C   55   3.472   5.030   6.828  0.5739 -0.0842 -0.8444
    1CHL1   C22   56   3.594   4.801   6.741 -0.0834  0.5996 -0.3658
    1CHL1  H22A   57   3.661   4.850   6.667  1.9513 -0.7062  0.5117
    1CHL1  H22B   58   3.643   4.702   6.737  0.2364  0.7486 -0.2089
    1CHL1   C23   59   3.454   4.799   6.689  0.3313  1.2132  0.1359
    1CHL1  H23A   60   3.392   4.764   6.774 -0.2191  0.1929 -0.6586
    1CHL1  H23B   61   3.425   4.901   6.656 -3.3572  0.4805  0.7165
    1CHL1   C24   62   3.438   4.692   6.578 -0.2629  0.8133 -0.3033
    1CHL1  H24A   63   3.484   4.596   6.610  1.3654  2.0553  1.3678
    1CHL1  H24B   64   3.332   4.677   6.550 -0.7243  0.8715  1.2952
    1CHL1   C25   65   3.507   4.715   6.439 -0.1751  0.0203 -0.4017
    1CHL1   H25   66   3.611   4.747   6.463 -0.5214  0.7411  0.2081
    1CHL1   C26   67   3.485   4.581   6.362  0.3727 -0.0975  0.5199
    1CHL1  H26A   68   3.514   4.488   6.415 -2.2021  0.0383  2.3235
    1CHL1  H26B   69   3.376   4.576   6.344  0.1485 -0.6891  1.9690
    1CHL1  H26C   70   3.538   4.596   6.265 -0.3521  1.0252  0.2736
    1CHL1   C27   71   3.444   4.830   6.368 -0.1662  0.0564  0.2273
    1CHL1  H27A   72   3.343   4.807   6.327  0.7316 -2.5287 -0.7773
    1CHL1  H27B   73   3.436   4.922   6.428  2.1102 -0.2223  1.0421
    1CHL1  H27C   74   3.501   4.862   6.278  1.7743 -2.6058  0.3893
    2CHL1    C3   75   2.712   4.891   7.722 -0.0317 -0.5591  0.5540
    2CHL1    H3   76   2.607   4.866   7.696 -0.2741  0.0464  0.9026
    2CHL1    O3   77   2.714   4.936   7.857 -0.1485  0.0468  0.7045
    2CHL1   H3'   78   2.786   4.999   7.861  0.7527 -0.9964  1.1366
    2CHL1    C4   79   2.797   4.767   7.721 -0.8720  1.0106  0.1086
    2CHL1   H4A   80   2.889   4.777   7.783 -0.8495  0.6366  0.1407
    2CHL1   H4B   81   2.743   4.689   7.779  1.0116 -0.6355 -0.2270
    2CHL1    C5   82   2.820   4.715   7.576 -0.1744  0.5421  0.1655
    2CHL1    C6   83   2.786   4.589   7.546 -0.7725 -0.5157 -0.4521
    2CHL1    H6   84   2.748   4.538   7.636 -0.7475  1.7243  0.9066
    2CHL1    C7   85   2.795   4.537   7.405 -0.0706  0.4188  0.3466
    2CHL1   H7A   86   2.827   4.431   7.402 -2.3109 -0.3464  1.3657
    2CHL1   H7B   87   2.699   4.538   7.349  0.1449 -0.2402 -0.0470
    2CHL1    C8   88   2.893   4.624   7.319 -0.7427  0.4426  0.2378
    2CHL1    H8   89   2.992   4.607   7.366 -1.2998  0.5182  1.4642
    2CHL1   C14   90   2.890   4.591   7.167 -0.7556  0.0958  0.0287
    2CHL1   H14   91   2.788   4.605   7.126 -1.2716  1.0421  1.5467
    2CHL1   C15   92   2.919   4.449   7.129 -0.1064  0.4905  0.4567
    2CHL1  H15A   93   3.008   4.415   7.188  0.1296 -2.2379 -1.3167
    2CHL1  H15B   94   2.842   4.374   7.156  0.6186 -0.3396  0.2453
    2CHL1   C16   95   2.956   4.443   6.977  0.5779 -0.3366 -0.1354
    2CHL1  H16A   96   3.053   4.390   6.970  0.0136 -1.4389  0.1103
    2CHL1  H16B   97   2.878   4.391   6.917  2.7756 -1.1372 -2.4775
    2CHL1   C17   98   2.953   4.599   6.949  0.3879 -1.0516  0.7879
    2CHL1   H17   99   2.850   4.627   6.918  1.0995  0.2544 -0.5240
    2CHL1   C13  100   2.983   4.673   7.082  0.0873 -0.8497  0.4687
    2CHL1   C18  101   3.138   4.655   7.129  0.4723 -0.1079 -0.3901
    2CHL1  H18A  102   3.172   4.557   7.090  1.1191  0.1228 -0.4085
    2CHL1  H18B  103   3.195   4.742   7.092 -3.8143  2.3677 -1.9602
    2CHL1  H18C  104   3.139   4.650   7.240 -4.1336  0.0729 -0.1297
    2CHL1   C12  105   2.931   4.818   7.091  0.3715 -0.1837 -0.0063
    2CHL1  H12A  106   3.000   4.871   7.022  0.2279 -2.3303 -1.9533
    2CHL1  H12B  107   2.827   4.831   7.054 -0.1725 -0.7566  1.2759
    2CHL1   C11  108   2.933   4.868   7.230 -0.3581  0.2916 -0.0629
    2CHL1  H11A  109   3.036   4.877   7.269 -0.0815 -0.8626 -0.5097
    2CHL1  H11B  110   2.894   4.972   7.233  1.1644  0.9424 -1.7237
    2CHL1    C9  111   2.862   4.772   7.334  0.0613 -0.7457  0.1739
    2CHL1    H9  112   2.753   4.788   7.316  0.2120  1.7823  1.1205
    2CHL1   C10  113   2.876   4.821   7.479  0.1590 -0.1217  0.5985
    2CHL1   C19  114   3.023   4.838   7.522 -0.1533  0.1490  0.2507
    2CHL1  H19A  115   3.084   4.746   7.523  1.9195  1.4351  2.2008
    2CHL1  H19B  116   3.066   4.914   7.454 -0.8357 -0.4066 -0.8205
    2CHL1  H19C  117   3.038   4.882   7.623 -0.2268  0.1301  0.2703
    2CHL1    C1  118   2.793   4.953   7.491  0.5682  0.2239 -0.0054
    2CHL1   H1A  119   2.842   5.035   7.433  0.7079 -0.3540 -0.7100
    2CHL1   H1B  120   2.690   4.940   7.451  0.0884 -1.2491  1.5980
    2CHL1    C2  121   2.772   5.000   7.636 -0.4440  0.7598  0.0311
    2CHL1   H2A  122   2.719   5.098   7.643 -1.2441  0.2783  1.1307
    2CHL1   H2B  123   2.875   5.024   7.671  0.0220 -0.9410 -0.0779
    2CHL1   C20  124   3.045   4.635   6.830  0.0971  0.1627  0.0665
    2CHL1   H20  125   3.152   4.617   6.854  0.3890  0.2567 -1.0983
    2CHL1   C21  126   3.055   4.785   6.788  0.5237 -0.4837 -0.7721
    2CHL1  H21A  127   2.954   4.831   6.790  1.1454  1.0035 -2.0426
    2CHL1  H21B  128   3.096   4.808   6.688  2.5950  0.0347  0.1483
    2CHL1  H21C  129   3.116   4.840   6.863 -1.5077  1.5989 -0.5396
    2CHL1   C22  130   3.018   4.553   6.700 -0.7505 -0.0497 -0.0890
    2CHL1  H22A  131   3.107   4.564   6.635  0.7856  0.3586  1.9817
    2CHL1  H22B  132   3.029   4.446   6.726  1.1529  0.3518  0.9428
    2CHL1   C23  133   2.900   4.597   6.607 -0.2652  0.5862 -0.1353
    2CHL1  H23A  134   2.810   4.607   6.671  1.6463  1.6862  2.5737
    2CHL1  H23B  135   2.905   4.698   6.561 -2.2271 -0.0418 -1.8840
    2CHL1   C24  136   2.879   4.496   6.491 -0.6928 -0.7597 -0.2110
    2CHL1  H24A  137   2.975   4.502   6.435 -0.4725  2.0311  0.3096
    2CHL1  H24B  138   2.873   4.391   6.529  2.6769 -0.5446  1.3574
    2CHL1   C25  139   2.771   4.541   6.388 -0.2965  0.5147 -0.2233
    2CHL1   H25  140   2.805   4.643   6.360  1.9961 -0.7018 -2.2982
    2CHL1   C26  141   2.777   4.467   6.248 -0.8556  0.5381 -0.3001
    2CHL1  H26A  142   2.758   4.358   6.263  0.6160 -0.1441 -2.8555
    2CHL1  H26B  143   2.708   4.511   6.173  0.9494 -0.7730 -2.8637
    2CHL1  H26C  144   2.878   4.495   6.212 -0.4208  0.3127  0.7162
    2CHL1   C27  145   2.634   4.543   6.455 -0.2238 -0.0723  0.4831
    2CHL1  H27A  146   2.550   4.566   6.385 -0.6892 -1.0472  0.7069
    2CHL1  H27B  147   2.628   4.438   6.490  0.4201 -0.2664  0.0375
    2CHL1  H27C  148   2.638   4.606   6.546  0.9369 -1.0396  1.1247
    3CHL1    C3  149   0.373   4.094   7.793 -0.2939  0.7874 -0.3314
    3CHL1    H3  150   0.463   4.148   7.755 -0.2190 -0.0712 -1.4546
    3CHL1    O3  151   0.400   4.060   7.923  0.0724  0.2124  0.0572
    3CHL1   H3'  152   0.441   3.973   7.919 -1.3032 -0.5789  1.6519
    3CHL1    C4  153   0.250   4.188   7.780  0.2281  0.4057 -0.2866
    3CHL1   H4A  154   0.162   4.135   7.823 -0.2402  0.6942 -0.8673
    3CHL1   H4B  155   0.271   4.277   7.843  1.7859  0.5909 -1.0208
    3CHL1    C5  156   0.215   4.229   7.637 -0.3243 -0.0094 -0.1687
    3CHL1    C6  157   0.209   4.360   7.597  0.3487  0.0530  0.4856
    3CHL1    H6  158   0.216   4.439   7.673  1.2268 -0.5293  1.0364
    3CHL1    C7  159   0.182   4.396   7.457 -0.0291 -1.2891 -0.1053
    3CHL1   H7A  160   0.106   4.477   7.452  2.8419  1.5702 -1.8752
    3CHL1   H7B  161   0.275   4.438   7.411 -1.3088  0.9589 -0.8317
    3CHL1    C8  162   0.137   4.284   7.364 -0.6544 -0.1496  0.2091
    3CHL1    H8  163   0.033   4.261   7.396 -0.3769 -2.9512 -0.6823
    3CHL1   C14  164   0.154   4.321   7.220  0.3114 -0.2969 -0.5448
    3CHL1   H14  165   0.261   4.349   7.209  0.5120  0.6202  2.7634
    3CHL1   C15  166   0.083   4.454   7.180  1.0334  0.1083 -0.1584
    3CHL1  H15A  167  -0.024   4.450   7.209  0.7743 -3.7643 -1.0813
    3CHL1  H15B  168   0.123   4.545   7.230 -0.3884  1.6785 -1.7091
    3CHL1   C16  169   0.092   4.443   7.023  0.3626  0.5629 -0.1450
    3CHL1  H16A  170  -0.009   4.464   6.982 -0.6939 -0.2579  1.9242
    3CHL1  H16B  171   0.168   4.513   6.983  1.1643  0.1916  0.6840
    3CHL1   C17  172   0.134   4.302   6.983  0.2144  0.3770 -0.0022
    3CHL1   H17  173   0.244   4.296   6.970  0.0901 -0.4332 -0.8880
    3CHL1   C13  174   0.118   4.217   7.113 -0.0253 -0.7533 -0.7351
    3CHL1   C18  175  -0.030   4.180   7.133 -0.1843  0.4825 -0.0292
    3CHL1  H18A  176  -0.051   4.089   7.073 -1.1457  0.5191  0.2392
    3CHL1  H18B  177  -0.054   4.159   7.239 -1.5498  1.2866 -0.1430
    3CHL1  H18C  178  -0.102   4.260   7.105 -0.6685  0.0351 -0.0771
    3CHL1   C12  179   0.215   4.094   7.137 -1.2179 -0.1002  0.3846
    3CHL1  H12A  180   0.198   4.006   7.071 -0.9847  1.5051 -1.9603
    3CHL1  H12B  181   0.321   4.127   7.128 -1.0836 -0.7347 -0.4763
    3CHL1   C11  182   0.193   4.048   7.280 -0.5365  0.0655 -0.1899
    3CHL1  H11A  183   0.090   4.008   7.292  0.2456 -2.7672 -1.8258
    3CHL1  H11B  184   0.255   3.955   7.285  0.5269  0.7719  0.1067
    3CHL1    C9  185   0.218   4.157   7.387  0.6930  0.0800 -0.1760
    3CHL1    H9  186   0.324   4.181   7.365  1.4711 -1.2101  1.8756
    3CHL1   C10  187   0.211   4.111   7.535 -0.0822 -0.1190 -0.0449
    3CHL1   C19  188   0.078   4.043   7.563  0.1792  0.1166 -0.2226
    3CHL1  H19A  189  -0.008   4.113   7.558  1.1219  1.4493  1.3404
    3CHL1  H19B  190   0.061   3.968   7.483  1.2939 -1.3775  0.8837
    3CHL1  H19C  191   0.072   4.006   7.668  0.2556 -1.2978 -0.6948
    3CHL1    C1  192   0.332   4.017   7.560 -0.5518 -0.3923 -0.1356
    3CHL1   H1A  193   0.309   3.925   7.502 -2.1288 -0.0702 -0.0884
    3CHL1   H1B  194   0.427   4.071   7.538 -0.6480  0.1973  0.8189
    3CHL1    C2  195   0.352   3.971   7.708 -0.0587  0.7445 -0.5161
    3CHL1   H2A  196   0.433   3.895   7.715  0.4893  1.3577 -0.0245
    3CHL1   H2B  197   0.258   3.919   7.737  0.0379  1.5076  1.3350
    3CHL1   C20  198   0.078   4.252   6.849  0.0818 -0.0133  0.7285
    3CHL1   H20  199  -0.032   4.245   6.861 -0.0799 -0.4596 -0.8294
    3CHL1   C21  200   0.139   4.118   6.810  0.3661 -0.3107  1.1302
    3CHL1  H21A  201   0.108   4.081   6.710 -2.3548  0.4058  1.6025
    3CHL1  H21B  202   0.091   4.039   6.872 -1.4049 -1.1373 -1.1187
    3CHL1  H21C  203   0.248   4.103   6.820  0.2737 -0.8692  1.3720
    3CHL1   C22  204   0.103   4.346   6.731 -0.1407 -0.3222  0.1902
    3CHL1  H22A  205   0.064   4.449   6.745  0.3272  0.1166 -1.4958
    3CHL1  H22B  206   0.213   4.360   6.737 -0.1351  1.5672 -2.4854
    3CHL1   C23  207   0.053   4.310   6.594 -0.0447  0.1133  0.5062
    3CHL1  H23A  208   0.083   4.208   6.562 -0.5086 -0.8937  3.0337
    3CHL1  H23B  209  -0.058   4.312   6.593 -0.0637 -0.3833  1.0966
    3CHL1   C24  210   0.113   4.401   6.491  0.3732 -0.7269  0.7618
    3CHL1  H24A  211   0.083   4.507   6.505 -0.4400 -0.8260 -0.1286
    3CHL1  H24B  212   0.223   4.389   6.489  0.3581 -1.0708 -2.1505
    3CHL1   C25  213   0.051   4.378   6.349  0.1909  0.3197 -0.1119
    3CHL1   H25  214   0.041   4.267   6.347  0.0126  0.2804  1.6090
    3CHL1   C26  215  -0.090   4.439   6.347  0.1598 -0.2021 -0.1968
    3CHL1  H26A  216  -0.142   4.408   6.440  3.1103  0.0020  1.6735
    3CHL1  H26B  217  -0.079   4.549   6.344  0.7659 -0.2507  0.0150
    3CHL1  H26C  218  -0.159   4.401   6.268 -1.0571  1.6780 -0.0815
    3CHL1   C27  219   0.155   4.416   6.234  0.4451 -0.4170 -0.3696
    3CHL1  H27A  220   0.165   4.526   6.244  0.4366 -0.4962  0.7081
    3CHL1  H27B  221   0.251   4.363   6.251  0.9136 -0.0863 -1.8667
    3CHL1  H27C  222   0.115   4.399   6.132 -1.2870  0.8035  0.0676
    4CHL1    C3  223   4.035   6.694   7.783  0.0890 -0.7205 -0.1687
    4CHL1    H3  224   3.928   6.723   7.773  0.5069  1.0084  0.1465
    4CHL1    O3  225   4.061   6.686   7.923 -0.1524  0.2725 -0.0719
    4CHL1   H3'  226   4.147   6.646   7.928 -0.2815 -0.1741 -1.0656
    4CHL1    C4  227   4.056   6.555   7.710  0.2085 -0.1123 -0.2062
    4CHL1   H4A  228   4.162   6.522   7.722  0.2863  0.5077  1.0457
    4CHL1   H4B  229   3.990   6.472   7.744  0.3962  0.2098  0.9971
    4CHL1    C5  230   4.049   6.563   7.567 -0.0069  0.4384  0.0564
    4CHL1    C6  231   3.969   6.486   7.493 -0.4907 -0.2387  0.1372
    4CHL1    H6  232   3.902   6.414   7.542  0.2807 -0.2755  1.1558
    4CHL1    C7  233   3.967   6.478   7.344 -0.5157 -0.8711  0.7956
    4CHL1   H7A  234   3.974   6.377   7.300 -2.3209 -0.1607 -1.2895
    4CHL1   H7B  235   3.865   6.497   7.305  0.7078 -1.6878 -3.1845
    4CHL1    C8  236   4.076   6.570   7.274 -0.4397 -0.2923 -0.2265
    4CHL1    H8  237   4.176   6.523   7.284 -0.3462 -0.7230 -2.6987
    4CHL1   C14  238   4.036   6.598   7.122 -0.5939  0.2790  0.2287
    4CHL1   H14  239   3.941   6.655   7.126  0.0114  1.4494 -0.9248
    4CHL1   C15  240   4.030   6.473   7.029  0.0475  0.3500  0.7573
    4CHL1  H15A  241   4.120   6.411   7.048  0.1626  0.8983  2.1096
    4CHL1  H15B  242   3.944   6.407   7.056 -0.1377  0.4410  0.4090
    4CHL1   C16  243   4.058   6.529   6.885  0.5676 -0.1013  0.0704
    4CHL1  H16A  244   4.153   6.491   6.842  1.0098  1.7560 -0.6792
    4CHL1  H16B  245   3.974   6.494   6.820 -0.1192 -2.1747  1.9459
    4CHL1   C17  246   4.085   6.683   6.900  0.0904 -0.0225 -0.8498
    4CHL1   H17  247   3.983   6.726   6.900 -1.6609 -3.6820  0.9669
    4CHL1   C13  248   4.131   6.693   7.048  0.6899 -0.2118 -0.4455
    4CHL1   C18  249   4.283   6.652   7.055 -0.1723 -0.2012 -0.4523
    4CHL1  H18A  250   4.305   6.562   6.993 -0.3761 -0.1436 -0.6103
    4CHL1  H18B  251   4.339   6.744   7.029  2.2247 -1.6970 -0.9239
    4CHL1  H18C  252   4.319   6.622   7.155  0.3615 -0.4593 -0.7208
    4CHL1   C12  253   4.115   6.828   7.120 -0.5921 -0.0441  0.2308
    4CHL1  H12A  254   4.176   6.908   7.073  0.7552 -0.9150  0.4688
    4CHL1  H12B  255   4.010   6.861   7.103  0.3233  4.4647  1.9967
    4CHL1   C11  256   4.167   6.812   7.266 -0.2187 -0.5654 -0.8696
    4CHL1  H11A  257   4.277   6.800   7.272 -0.0446  0.3638 -1.9178
    4CHL1  H11B  258   4.145   6.910   7.314  0.4143 -0.8866  0.1114
    4CHL1    C9  259   4.084   6.705   7.347  0.2340  0.0344 -0.5969
    4CHL1    H9  260   3.978   6.739   7.351  0.2975  0.1248  1.0246
    4CHL1   C10  261   4.128   6.682   7.496 -0.3133  0.1169  0.2696
    4CHL1   C19  262   4.284   6.649   7.507  0.2810 -0.3775  0.5475
    4CHL1  H19A  263   4.336   6.733   7.455 -0.0799 -0.9222 -0.7200
    4CHL1  H19B  264   4.315   6.643   7.613  0.8252 -1.2199  0.3455
    4CHL1  H19C  265   4.310   6.560   7.446 -2.0119 -0.5699 -0.2433
    4CHL1    C1  266   4.100   6.813   7.571  0.6513 -0.2161 -0.5750
    4CHL1   H1A  267   4.176   6.893   7.553 -1.1310  2.9566  3.9698
    4CHL1   H1B  268   4.003   6.859   7.542 -0.6422 -1.0811  2.0752
    4CHL1    C2  269   4.110   6.804   7.724 -0.4836  0.6354  0.3383
    4CHL1   H2A  270   4.074   6.902   7.762 -2.0975 -0.6045  2.1965
    4CHL1   H2B  271   4.213   6.798   7.766 -0.9558  0.1318  1.4758
    4CHL1   C20  272   4.171   6.731   6.782  0.0435  0.3251 -0.3537
    4CHL1   H20  273   4.261   6.666   6.789 -0.1776 -0.1001 -1.3338
    4CHL1   C21  274   4.205   6.880   6.809  0.6099  0.3330  0.1811
    4CHL1  H21A  275   4.287   6.897   6.882  1.0221 -0.7194 -0.0189
    4CHL1  H21B  276   4.111   6.931   6.840 -0.6249 -0.9789 -1.2556
    4CHL1  H21C  277   4.224   6.935   6.714 -0.5311 -2.8067 -2.0107
    4CHL1   C22  278   4.095   6.722   6.655 -0.8092 -0.2484  0.3207
    4CHL1  H22A  279   4.040   6.625   6.645  1.0361 -1.2394 -0.7369
    4CHL1  H22B  280   4.014   6.798   6.664 -0.0614  0.3583  2.9248
    4CHL1   C23  281   4.170   6.759   6.531 -0.0057 -0.3258  0.9298
    4CHL1  H23A  282   4.276   6.779   6.558  0.0992 -0.2460  0.4645
    4CHL1  H23B  283   4.181   6.676   6.458 -1.0213  1.7479 -1.7589
    4CHL1   C24  284   4.108   6.885   6.455  0.3251 -0.0729 -0.3014
    4CHL1  H24A  285   4.000   6.868   6.438 -0.2896  2.3517  0.8501
    4CHL1  H24B  286   4.112   6.971   6.525  2.3640  0.1977 -0.6901
    4CHL1   C25  287   4.174   6.921   6.319  0.4544 -0.0350  0.1672
    4CHL1   H25  288   4.129   7.009   6.269  2.5369  0.7763 -0.3906
    4CHL1   C26  289   4.323   6.959   6.326  0.3091 -0.5408  0.7375
    4CHL1  H26A  290   4.332   7.048   6.391  1.7569 -1.9544  2.5873
    4CHL1  H26B  291   4.379   6.880   6.381 -0.6272 -0.5036  1.7826
    4CHL1  H26C  292   4.366   6.971   6.224  0.4024 -0.9751  0.7232
    4CHL1   C27  293   4.165   6.806   6.216  0.2324 -0.4167  0.1979
    4CHL1  H27A  294   4.075   6.742   6.210  0.6626 -1.0609  0.4776
    4CHL1  H27B  295   4.189   6.863   6.124  2.2665 -0.2282  0.7900
    4CHL1  H27C  296   4.247   6.732   6.226 -2.0959 -3.4080 -1.2551
    5CHL1    C3  297   5.640   5.934   7.646 -0.4116 -0.1262  0.0958
    5CHL1    H3  298   5.737   5.965   7.603  0.1008 -2.6875 -0.7449
    5CHL1    O3  299   5.639   5.939   7.786 -0.0221  0.5397  0.0947
    5CHL1   H3'  300   5.684   6.022   7.805  1.0935  0.3541 -1.5344
    5CHL1    C4  301   5.530   6.036   7.604 -0.1581 -0.7040 -0.3900
    5CHL1   H4A  302   5.432   6.002   7.644 -0.6882 -0.4196 -1.4110
    5CHL1   H4B  303   5.546   6.133   7.656 -0.3666 -1.3936  1.0202
    5CHL1    C5  304   5.515   6.057   7.454  0.2726  0.4260  0.1248
    5CHL1    C6  305   5.533   6.178   7.398  0.3277 -0.0600  0.1244
    5CHL1    H6  306   5.549   6.262   7.468  0.4642  0.9608 -1.0870
    5CHL1    C7  307   5.563   6.201   7.256 -0.0484 -0.7467  0.1413
    5CHL1   H7A  308   5.514   6.293   7.217 -0.5084 -1.1619 -0.2720
    5CHL1   H7B  309   5.672   6.222   7.245 -0.5354  1.1579 -1.7044
    5CHL1    C8  310   5.519   6.084   7.170  0.0412 -0.5008  0.7367
    5CHL1    H8  311   5.408   6.085   7.169  0.0126 -1.9811 -0.2030
    5CHL1   C14  312   5.574   6.096   7.023  0.7215  0.4439  0.3005
    5CHL1   H14  313   5.681   6.066   7.033  0.8308 -0.0344 -1.7816
    5CHL1   C15  314   5.578   6.229   6.945 -0.2538 -0.3360  0.2872
    5CHL1  H15A  315   5.492   6.298   6.959  0.9605  1.3671 -0.2541
    5CHL1  H15B  316   5.668   6.282   6.982  1.9954 -1.5708 -2.9420
    5CHL1   C16  317   5.592   6.189   6.796  0.7800 -0.0015 -1.0147
    5CHL1  H16A  318   5.505   6.220   6.735  1.0247 -0.6819 -1.7311
    5CHL1  H16B  319   5.689   6.233   6.764  1.7578  0.7881  2.5943
    5CHL1   C17  320   5.606   6.033   6.795 -0.5713 -0.0019 -0.0110
    5CHL1   H17  321   5.712   6.007   6.817 -0.6697  0.9507  1.7421
    5CHL1   C13  322   5.525   5.993   6.919 -0.1762  0.1748 -0.5889
    5CHL1   C18  323   5.373   6.008   6.887  1.0915  0.7128  0.1842
    5CHL1  H18A  324   5.314   6.011   6.982  0.4788  1.3389 -0.2063
    5CHL1  H18B  325   5.356   6.105   6.836 -0.1034  0.6119  0.3585
    5CHL1  H18C  326   5.334   5.923   6.826  0.0106  0.4449  1.2034
    5CHL1   C12  327   5.547   5.855   6.964  0.3120 -1.0672 -0.3939
    5CHL1  H12A  328   5.496   5.774   6.908  1.5452 -2.9219  1.0074
    5CHL1  H12B  329   5.652   5.822   6.946  0.5809  0.6527 -2.3290
    5CHL1   C11  330   5.497   5.842   7.118 -0.7260  0.0667  0.7980
    5CHL1  H11A  331   5.386   5.847   7.120 -0.6838  0.6491  2.5831
    5CHL1  H11B  332   5.534   5.746   7.160 -0.4743  0.9792  2.7371
    5CHL1    C9  333   5.554   5.949   7.220 -0.1311 -0.1988  0.3503
    5CHL1    H9  334   5.664   5.940   7.208 -0.0579  2.1917 -1.5119
    5CHL1   C10  335   5.513   5.927   7.372 -0.3750 -0.1996  0.4842
    5CHL1   C19  336   5.367   5.881   7.375 -0.0536  0.4937  0.0260
    5CHL1  H19A  337   5.333   5.872   7.480 -2.0540 -0.5834 -0.6600
    5CHL1  H19B  338   5.298   5.944   7.315 -1.6514 -1.7940 -0.6799
    5CHL1  H19C  339   5.356   5.782   7.325 -0.1419  1.9686 -3.1398
    5CHL1    C1  340   5.600   5.802   7.423  0.4369  0.4921  0.5438
    5CHL1   H1A  341   5.571   5.709   7.369 -0.1931  1.2774 -0.5024
    5CHL1   H1B  342   5.710   5.813   7.413  0.6408 -0.4815  1.4695
    5CHL1    C2  343   5.606   5.790   7.585  0.4931 -0.1231 -0.3029
    5CHL1   H2A  344   5.680   5.714   7.620 -1.5291 -1.1503  2.0558
    5CHL1   H2B  345   5.508   5.769   7.632 -1.1507  2.8471 -2.1256
    5CHL1   C20  346   5.570   5.978   6.657 -0.3855 -0.3839  0.3584
    5CHL1   H20  347   5.464   5.998   6.628 -0.9403 -1.2087  1.7182
    5CHL1   C21  348   5.587   5.828   6.650  0.2314 -0.1704 -0.6439
    5CHL1  H21A  349   5.695   5.804   6.640  0.9392  2.6986 -0.6765
    5CHL1  H21B  350   5.548   5.798   6.551  0.5073  2.2891 -1.5638
    5CHL1  H21C  351   5.535   5.774   6.732  0.2507  0.0206 -0.5066
    5CHL1   C22  352   5.663   6.036   6.547  0.1816  0.2786 -0.0625
    5CHL1  H22A  353   5.682   6.142   6.574 -1.1398  0.4354  0.3127
    5CHL1  H22B  354   5.759   5.984   6.568 -0.0413  0.3974  1.4012
    5CHL1   C23  355   5.611   6.038   6.408 -0.0316  0.4473 -0.2856
    5CHL1  H23A  356   5.542   5.955   6.380  1.0249 -0.0995 -1.3513
    5CHL1  H23B  357   5.550   6.129   6.395 -0.1828  0.1915 -1.4611
    5CHL1   C24  358   5.733   6.028   6.309 -0.6222 -0.9046 -0.2610
    5CHL1  H24A  359   5.787   6.119   6.344  1.5667 -2.7193  1.3860
    5CHL1  H24B  360   5.801   5.943   6.328 -1.5567 -2.5408 -3.4656
    5CHL1   C25  361   5.711   6.037   6.159 -0.0922 -0.0160  0.0906
    5CHL1   H25  362   5.632   6.115   6.152  0.6486  0.7012 -0.3488
    5CHL1   C26  363   5.840   6.070   6.087  0.6014  0.0184 -0.3908
    5CHL1  H26A  364   5.828   6.071   5.977 -0.4213 -1.8774 -0.3474
    5CHL1  H26B  365   5.872   6.173   6.113  1.6039  0.3056 -2.5664
    5CHL1  H26C  366   5.916   5.993   6.113  0.2861 -0.4536 -0.8479
    5CHL1   C27  367   5.655   5.901   6.109 -0.4286 -0.5533  0.2950
    5CHL1  H27A  368   5.572   5.871   6.177 -0.7517 -1.3289 -0.4274
    5CHL1  H27B  369   5.592   5.912   6.018  0.9981  0.7982 -0.5785
    5CHL1  H27C  370   5.728   5.818   6.100  0.6784  0.5983 -2.7300
    6CHL1    C3  371   2.158   5.497   7.535 -0.0671 -0.2656  0.6048
    6CHL1    H3  372   2.203   5.402   7.501  0.2411  0.0809  0.0340
    6CHL1    O3  373   2.150   5.504   7.676  0.0097  0.1038 -0.0239
    6CHL1   H3'  374   2.237   5.468   7.695 -0.5150 -1.7415 -0.9481
    6CHL1    C4  375   2.252   5.613   7.502  0.0777 -0.1392 -0.0360
    6CHL1   H4A  376   2.230   5.703   7.563 -1.3399 -2.3369  3.0030
    6CHL1   H4B  377   2.355   5.588   7.535  1.2334  1.6557 -2.0840
    6CHL1    C5  378   2.253   5.645   7.351  0.1991  0.0247  0.3943
    6CHL1    C6  379   2.368   5.636   7.282  0.0164 -0.9899  0.0848
    6CHL1    H6  380   2.465   5.637   7.335  0.4165  1.0240 -0.5868
    6CHL1    C7  381   2.368   5.675   7.136 -0.4361  0.2677 -0.9053
    6CHL1   H7A  382   2.448   5.752   7.128 -2.3073  2.2793 -1.3171
    6CHL1   H7B  383   2.396   5.587   7.075  0.0431 -0.8727  0.8591
    6CHL1    C8  384   2.238   5.747   7.079 -0.5169  0.4573  0.3867
    6CHL1    H8  385   2.230   5.847   7.127 -1.2995  1.4561 -1.7010
    6CHL1   C14  386   2.245   5.742   6.928  0.3537  0.2613 -0.0584
    6CHL1   H14  387   2.249   5.638   6.891  1.3463  0.1384  0.3730
    6CHL1   C15  388   2.364   5.809   6.860 -0.2161  0.2917 -0.2818
    6CHL1  H15A  389   2.391   5.905   6.907 -1.0004 -0.5944  2.1466
    6CHL1  H15B  390   2.455   5.745   6.861  1.4776  2.5023 -2.0010
    6CHL1   C16  391   2.313   5.836   6.721  0.1377 -0.0593 -0.2843
    6CHL1  H16A  392   2.330   5.940   6.686  1.4903 -0.1959 -0.1006
    6CHL1  H16B  393   2.375   5.768   6.659  0.3126 -0.3902  0.2438
    6CHL1   C17  394   2.159   5.792   6.721 -0.6236  0.0826 -0.2180
    6CHL1   H17  395   2.164   5.685   6.693 -0.8732 -0.4730  1.7655
    6CHL1   C13  396   2.123   5.799   6.864  0.6594  0.2625 -0.1850
    6CHL1   C18  397   2.101   5.946   6.900  0.1314  0.2543  0.6694
    6CHL1  H18A  398   2.072   5.958   7.007  1.0115 -1.0968  1.0885
    6CHL1  H18B  399   2.196   5.999   6.879 -0.6323  1.6254  0.5878
    6CHL1  H18C  400   2.013   5.984   6.844 -0.1526 -0.6213  0.5117
    6CHL1   C12  401   2.003   5.719   6.903 -0.6738  0.7082  0.1628
    6CHL1  H12A  402   1.908   5.752   6.857 -0.8398  0.1062  0.0656
    6CHL1  H12B  403   2.033   5.622   6.858  0.5736  1.5366 -0.9089
    6CHL1   C11  404   1.985   5.722   7.053 -0.5306  0.7478 -0.7408
    6CHL1  H11A  405   1.955   5.822   7.089 -2.6168  0.8078 -2.4878
    6CHL1  H11B  406   1.902   5.658   7.090  0.5221  0.7646  1.8854
    6CHL1    C9  407   2.117   5.673   7.130  0.3734 -0.2213 -0.5386
    6CHL1    H9  408   2.133   5.567   7.101  1.4110 -0.2408  0.0351
    6CHL1   C10  409   2.112   5.662   7.283  0.1369  0.5945 -0.6826
    6CHL1   C19  410   2.047   5.791   7.335  0.0928 -0.3883 -0.1112
    6CHL1  H19A  411   2.099   5.883   7.301  1.1033 -0.1885  1.8380
    6CHL1  H19B  412   1.938   5.787   7.313 -0.1113 -1.5964  0.9634
    6CHL1  H19C  413   2.045   5.813   7.443  0.9168  2.4966 -0.6059
    6CHL1    C1  414   2.019   5.533   7.316  1.2616 -0.5873 -0.7030
    6CHL1   H1A  415   1.922   5.562   7.269  1.4502  1.1700 -0.0739
    6CHL1   H1B  416   2.059   5.443   7.266 -2.2763 -2.5463 -0.3147
    6CHL1    C2  417   2.015   5.507   7.467  0.1954  0.1462  0.1072
    6CHL1   H2A  418   1.962   5.414   7.497  1.4949 -1.4274 -2.2194
    6CHL1   H2B  419   1.961   5.586   7.525  0.5364  0.0494  0.5652
    6CHL1   C20  420   2.076   5.857   6.614  0.1450  0.0671  0.2195
    6CHL1   H20  421   2.028   5.951   6.648  0.5602  0.2783  0.2262
    6CHL1   C21  422   1.961   5.766   6.562 -0.0175 -0.1723  0.1151
    6CHL1  H21A  423   1.896   5.821   6.490  1.1295  0.5260 -0.4096
    6CHL1  H21B  424   1.898   5.729   6.645 -2.5936 -1.6544 -2.2903
    6CHL1  H21C  425   2.002   5.677   6.509  1.6153  0.9313 -0.5520
    6CHL1   C22  426   2.158   5.904   6.488 -0.2112  0.0715  0.0213
    6CHL1  H22A  427   2.090   5.958   6.418  0.8614  1.9400  0.3552
    6CHL1  H22B  428   2.230   5.985   6.513 -1.0753  0.2889  1.9347
    6CHL1   C23  429   2.206   5.782   6.408 -0.2277  0.3857 -0.9215
    6CHL1  H23A  430   2.231   5.707   6.487 -2.4093  0.1662 -0.3846
    6CHL1  H23B  431   2.119   5.755   6.346 -2.0911  0.1290  1.6238
    6CHL1   C24  432   2.324   5.816   6.318 -0.1486 -0.3721 -0.2280
    6CHL1  H24A  433   2.278   5.892   6.252 -1.5582 -0.5049  0.5524
    6CHL1  H24B  434   2.410   5.862   6.371 -0.7392  0.2550  0.2107
    6CHL1   C25  435   2.379   5.698   6.238 -0.2078  0.6394 -1.0458
    6CHL1   H25  436   2.291   5.648   6.192  0.1869  1.1199 -2.3709
    6CHL1   C26  437   2.477   5.742   6.132  0.1967  0.4223 -0.0285
    6CHL1  H26A  438   2.525   5.651   6.090  1.0627  0.6444  0.4621
    6CHL1  H26B  439   2.429   5.785   6.042  1.1859 -0.1281 -0.8410
    6CHL1  H26C  440   2.548   5.823   6.162  0.8533 -0.9259  2.2902
    6CHL1   C27  441   2.440   5.593   6.337 -0.3174 -0.2418 -0.4412
    6CHL1  H27A  442   2.493   5.648   6.418 -0.9168 -1.8816  1.1259
    6CHL1  H27B  443   2.359   5.534   6.386 -0.5396 -0.9212 -1.5902
    6CHL1  H27C  444   2.512   5.523   6.291  0.2214 -0.7603  1.1291
    7CHL1    C3  445   5.516   1.301   7.699 -0.4535  0.0570 -0.3227
    7CHL1    H3  446   5.554   1.406   7.696 -1.7365  0.5822  0.8230
    7CHL1    O3  447   5.459   1.301   7.828 -0.6009  0.1362 -0.9736
    7CHL1   H3'  448   5.399   1.227   7.813  0.1667 -0.6724 -0.1747
    7CHL1    C4  449   5.411   1.297   7.589  0.3608 -0.3766 -0.3114
    7CHL1   H4A  450   5.335   1.224   7.624  0.4158 -0.1646  0.2509
    7CHL1   H4B  451   5.356   1.393   7.594 -0.3787 -0.8134  0.1889
    7CHL1    C5  452   5.472   1.275   7.446 -0.4843  0.5456  0.7098
    7CHL1    C6  453   5.444   1.367   7.355  0.2539  0.2046 -0.5154
    7CHL1    H6  454   5.372   1.448   7.372  0.3791  0.5458 -1.5451
    7CHL1    C7  455   5.496   1.350   7.220 -0.4995  0.5851  0.2627
    7CHL1   H7A  456   5.421   1.355   7.139  1.6739 -0.9919 -1.9980
    7CHL1   H7B  457   5.573   1.426   7.195  0.0980 -0.8054 -2.4981
    7CHL1    C8  458   5.552   1.211   7.184  0.1082 -0.1615 -0.0243
    7CHL1    H8  459   5.466   1.141   7.176  2.7390 -3.6080 -0.3075
    7CHL1   C14  460   5.637   1.216   7.053 -0.2306 -0.0363 -0.3696
    7CHL1   H14  461   5.718   1.288   7.078  0.3393 -0.7768 -0.0627
    7CHL1   C15  462   5.571   1.282   6.923 -0.3199 -0.0919  0.4523
    7CHL1  H15A  463   5.465   1.258   6.902 -0.0182 -0.7793 -0.3271
    7CHL1  H15B  464   5.589   1.392   6.926  1.0350 -0.3156  1.5267
    7CHL1   C16  465   5.659   1.227   6.807 -0.6607  0.3311  1.1452
    7CHL1  H16A  466   5.591   1.178   6.734  1.9102 -2.2471  0.3137
    7CHL1  H16B  467   5.705   1.305   6.742 -4.3346  1.1814 -0.7538
    7CHL1   C17  468   5.765   1.119   6.865  1.1744 -0.6686 -0.9263
    7CHL1   H17  469   5.862   1.170   6.884  1.1938 -0.2734 -2.0386
    7CHL1   C13  470   5.697   1.083   7.004 -0.0193 -0.1460  0.0965
    7CHL1   C18  471   5.589   0.980   6.973 -0.4249 -0.2733 -0.3779
    7CHL1  H18A  472   5.525   0.965   7.063  0.5647 -1.3751  0.1746
    7CHL1  H18B  473   5.518   1.021   6.898 -1.9741 -0.1278  1.0834
    7CHL1  H18C  474   5.632   0.881   6.949 -0.6271 -0.2658 -0.7699
    7CHL1   C12  475   5.785   1.033   7.116  0.0389 -0.6529 -0.3168
    7CHL1  H12A  476   5.837   0.936   7.095  0.6514  0.0217 -2.1030
    7CHL1  H12B  477   5.860   1.113   7.136  0.6105 -1.4414  0.8740
    7CHL1   C11  478   5.706   1.018   7.253  0.8135 -0.4116  0.6035
    7CHL1  H11A  479   5.629   0.938   7.248  1.6987 -1.2288 -0.2234
    7CHL1  H11B  480   5.772   0.982   7.335  0.9191 -1.4533  0.0640
    7CHL1    C9  481   5.645   1.154   7.291  0.3331 -0.3639 -0.7168
    7CHL1    H9  482   5.739   1.213   7.298 -0.2312  0.3607  1.1985
    7CHL1   C10  483   5.572   1.160   7.429  0.2195 -0.5725 -0.1375
    7CHL1   C19  484   5.493   1.023   7.442 -0.4966  0.0610  0.3019
    7CHL1  H19A  485   5.428   1.031   7.532  0.8314 -1.2343  1.4302
    7CHL1  H19B  486   5.438   0.987   7.353 -0.1043 -1.4017  0.6318
    7CHL1  H19C  487   5.564   0.944   7.473  0.6918  1.3895  1.1068
    7CHL1    C1  488   5.680   1.176   7.534  0.4583 -0.2076 -0.3745
    7CHL1   H1A  489   5.740   1.083   7.534  2.4566  0.9913  1.0019
    7CHL1   H1B  490   5.745   1.264   7.514 -0.5898  0.7959  0.4696
    7CHL1    C2  491   5.625   1.191   7.676  0.9917 -0.4104 -0.7486
    7CHL1   H2A  492   5.713   1.207   7.741  0.6137  0.3750 -0.4241
    7CHL1   H2B  493   5.571   1.097   7.703 -2.1747  0.7346 -2.4382
    7CHL1   C20  494   5.788   1.018   6.754  0.3221 -0.0377  0.1879
    7CHL1   H20  495   5.701   0.951   6.740  0.6113 -1.0847  2.8679
    7CHL1   C21  496   5.906   0.928   6.800  0.0807  0.8284  0.1103
    7CHL1  H21A  497   5.892   0.881   6.899  1.6983 -1.7793 -0.7992
    7CHL1  H21B  498   6.002   0.984   6.807  1.4536 -0.7437 -3.4389
    7CHL1  H21C  499   5.925   0.841   6.734 -2.6364  0.3396 -0.1315
    7CHL1   C22  500   5.812   1.071   6.610  0.5937 -0.2770  0.3353
    7CHL1  H22A  501   5.713   1.085   6.561 -0.5678 -1.1451  2.2992
    7CHL1  H22B  502   5.872   1.163   6.621 -1.7598  1.5138 -0.9624
    7CHL1   C23  503   5.876   0.964   6.521  0.4588 -0.8813  0.1156
    7CHL1  H23A  504   5.977   0.940   6.558  0.4431 -0.0194  0.7422
    7CHL1  H23B  505   5.815   0.871   6.516 -1.9323  0.6446 -1.0534
    7CHL1   C24  506   5.892   1.006   6.374  0.2782  0.0315 -0.2478
    7CHL1  H24A  507   5.934   0.911   6.336 -0.6987 -1.4296  2.1498
    7CHL1  H24B  508   5.790   1.016   6.331 -0.1636 -0.1622  0.7419
    7CHL1   C25  509   5.974   1.128   6.332 -0.1263 -0.1119  1.1308
    7CHL1   H25  510   5.935   1.223   6.375  1.8185  1.4611 -0.3674
    7CHL1   C26  511   6.117   1.127   6.387  0.0363 -0.7147  0.1496
    7CHL1  H26A  512   6.109   1.092   6.492  1.7440  0.3143  0.6652
    7CHL1  H26B  513   6.191   1.064   6.333  0.1650  1.3660 -2.2833
    7CHL1  H26C  514   6.159   1.229   6.381 -2.1170  0.2342  0.0377
    7CHL1   C27  515   5.983   1.152   6.185 -0.1932 -0.2330  0.2709
    7CHL1  H27A  516   5.883   1.154   6.137  0.2108 -1.8818 -0.6973
    7CHL1  H27B  517   6.039   1.245   6.161 -1.3938  0.9936  1.9410
    7CHL1  H27C  518   6.031   1.067   6.132  1.5762  1.0978 -0.3724
    8CHL1    C3  519   4.643   5.387   7.854 -0.6593  0.4526  0.3554
    8CHL1    H3  520   4.682   5.489   7.837 -0.2847  0.1515 -0.6963
    8CHL1    O3  521   4.598   5.382   7.989  0.1266  0.4577  0.2358
    8CHL1   H3'  522   4.585   5.289   8.007  2.9872  0.3693  2.7372
    8CHL1    C4  523   4.522   5.361   7.759 -0.0869 -0.0129  0.1874
    8CHL1   H4A  524   4.469   5.269   7.789 -2.6575  1.1939 -0.3905
    8CHL1   H4B  525   4.453   5.447   7.771  1.0252  0.9615 -0.2183
    8CHL1    C5  526   4.570   5.367   7.615  0.4147  0.0049 -0.4075
    8CHL1    C6  527   4.504   5.443   7.525  0.4891 -0.1878 -0.1721
    8CHL1    H6  528   4.413   5.497   7.555 -0.1695  0.2744 -2.7797
    8CHL1    C7  529   4.541   5.454   7.380 -0.2913 -0.9611  0.1738
    8CHL1   H7A  530   4.451   5.455   7.315  0.7393 -0.8821 -1.2917
    8CHL1   H7B  531   4.595   5.549   7.364  0.0987 -1.2027  0.0432
    8CHL1    C8  532   4.638   5.339   7.333  0.4519  0.1147  0.2505
    8CHL1    H8  533   4.580   5.245   7.323  0.3387  0.3264 -1.3347
    8CHL1   C14  534   4.692   5.370   7.204 -0.2549  0.3064 -0.0358
    8CHL1   H14  535   4.755   5.462   7.204 -0.5352  0.5111 -1.2046
    8CHL1   C15  536   4.595   5.417   7.097 -0.7454  0.2272  0.1890
    8CHL1  H15A  537   4.512   5.343   7.096 -0.9215  0.4241 -0.5718
    8CHL1  H15B  538   4.551   5.518   7.113 -2.9553 -0.7639  0.7636
    8CHL1   C16  539   4.691   5.409   6.975 -0.4401 -0.2075 -0.3721
    8CHL1  H16A  540   4.646   5.346   6.895  1.3566 -0.8625 -0.9145
    8CHL1  H16B  541   4.703   5.503   6.917  0.9483 -1.7826 -2.7832
    8CHL1   C17  542   4.822   5.337   7.008 -1.0220  0.3430 -0.2248
    8CHL1   H17  543   4.888   5.421   7.039 -1.6024  0.0323  2.0434
    8CHL1   C13  544   4.785   5.266   7.146 -0.3394  0.0809 -0.0020
    8CHL1   C18  545   4.724   5.126   7.122 -0.1236  0.3224  0.0676
    8CHL1  H18A  546   4.679   5.100   7.220  0.1835 -0.0287  0.1161
    8CHL1  H18B  547   4.642   5.125   7.046  1.1436  1.5431 -1.3914
    8CHL1  H18C  548   4.799   5.054   7.085  1.2265  1.7136 -0.0164
    8CHL1   C12  549   4.910   5.253   7.236  0.1092 -0.6778 -0.1655
    8CHL1  H12A  550   4.978   5.170   7.208 -0.6904 -0.7035 -2.1896
    8CHL1  H12B  551   4.981   5.336   7.217 -1.0309  0.5474  0.7550
    8CHL1   C11  552   4.868   5.232   7.386  0.2606 -0.0687  0.8781
    8CHL1  H11A  553   4.841   5.124   7.389  2.6242 -0.7096  1.1641
    8CHL1  H11B  554   4.954   5.248   7.454  1.2777 -0.6255 -0.2429
    8CHL1    C9  555   4.742   5.320   7.432 -0.4340 -0.1413  0.0865
    8CHL1    H9  556   4.784   5.422   7.445 -2.4499  0.9071 -1.2119
    8CHL1   C10  557   4.688   5.282   7.575 -0.2999 -0.6187  0.1457
    8CHL1   C19  558   4.638   5.136   7.577  0.4079  0.0582  0.1365
    8CHL1  H19A  559   4.724   5.068   7.559 -1.1514 -2.0334  0.2437
    8CHL1  H19B  560   4.599   5.106   7.677 -1.0209 -2.5514 -1.0953
    8CHL1  H19C  561   4.554   5.124   7.505  0.5243 -0.9056  0.1530
    8CHL1    C1  562   4.798   5.291   7.679 -0.4025 -0.5324  0.1008
    8CHL1   H1A  563   4.863   5.203   7.656  0.6281  0.2888 -0.2103
    8CHL1   H1B  564   4.869   5.374   7.659  0.7610 -1.2638  1.0018
    8CHL1    C2  565   4.748   5.283   7.828  0.8455  0.2228  0.4917
    8CHL1   H2A  566   4.838   5.297   7.891  1.8056  0.5836 -0.9076
    8CHL1   H2B  567   4.701   5.182   7.835  1.6131 -0.1312  0.6522
    8CHL1   C20  568   4.880   5.263   6.884  0.0231 -0.9420 -0.3948
    8CHL1   H20  569   4.816   5.174   6.870 -0.1938 -0.9056  0.2946
    8CHL1   C21  570   5.028   5.229   6.923  0.8319 -0.3237  0.4252
    8CHL1  H21A  571   5.072   5.325   6.955 -2.1790  1.5425 -0.5981
    8CHL1  H21B  572   5.085   5.201   6.832  4.0777  2.7370  1.3103
    8CHL1  H21C  573   5.032   5.155   7.007  0.7917  0.8418  1.4837
    8CHL1   C22  574   4.881   5.336   6.747 -0.4004  0.2038  0.2333
    8CHL1  H22A  575   4.782   5.380   6.725 -0.3031  1.6337  2.3560
    8CHL1  H22B  576   4.950   5.423   6.746  3.2358 -2.3660 -2.3401
    8CHL1   C23  577   4.925   5.240   6.635 -0.5157  0.1921  0.3269
    8CHL1  H23A  578   5.027   5.199   6.652  0.1802  1.6374 -0.1558
    8CHL1  H23B  579   4.843   5.166   6.624  0.9305 -1.7728  1.9212
    8CHL1   C24  580   4.922   5.294   6.491  0.3943 -0.4198 -0.1556
    8CHL1  H24A  581   4.817   5.312   6.460  0.5871 -0.7112 -1.0085
    8CHL1  H24B  582   4.964   5.396   6.476 -0.8790  0.0210 -0.8675
    8CHL1   C25  583   4.982   5.192   6.388  0.1635  0.9563  1.1679
    8CHL1   H25  584   5.078   5.156   6.429 -0.8382 -2.5427  0.7376
    8CHL1   C26  585   4.891   5.063   6.369 -0.4753 -0.0157  0.2611
    8CHL1  H26A  586   4.963   4.985   6.334  0.7903  0.8378  0.8793
    8CHL1  H26B  587   4.868   5.034   6.474  1.3776  2.7037  1.5269
    8CHL1  H26C  588   4.791   5.081   6.323 -0.5934  2.3184  1.3511
    8CHL1   C27  589   4.991   5.265   6.254  0.6202  0.0756  0.3674
    8CHL1  H27A  590   5.013   5.207   6.161 -1.2796  0.8946 -0.6363
    8CHL1  H27B  591   4.898   5.325   6.245  0.3220 -0.4706 -0.3801
    8CHL1  H27C  592   5.069   5.342   6.270 -0.2066  0.6661  1.6775
    9CHL1    C3  593   0.678   5.286   7.791 -0.1703  0.4266  0.4007
    9CHL1    H3  594   0.768   5.233   7.754 -0.6941  0.2835 -0.7194
    9CHL1    O3  595   0.671   5.293   7.929 -0.2365 -0.0491  0.1573
    9CHL1   H3'  596   0.592   5.340   7.956 -1.0400 -2.6264  2.8855
    9CHL1    C4  597   0.665   5.427   7.737  0.5134  0.6174  0.0861
    9CHL1   H4A  598   0.571   5.468   7.781 -0.9020 -0.1661 -2.0204
    9CHL1   H4B  599   0.748   5.480   7.789 -1.6269  1.7876  2.5826
    9CHL1    C5  600   0.659   5.431   7.588 -0.5994  1.1835  0.2673
    9CHL1    C6  601   0.755   5.490   7.517 -0.0690 -0.1076 -0.2407
    9CHL1    H6  602   0.831   5.546   7.574 -0.1713  1.2905 -1.4499
    9CHL1    C7  603   0.757   5.510   7.367 -0.2710  0.0350 -0.1906
    9CHL1   H7A  604   0.757   5.618   7.342  2.0850  0.0299 -0.5114
    9CHL1   H7B  605   0.854   5.481   7.320 -1.3724 -0.5301 -2.2181
    9CHL1    C8  606   0.630   5.447   7.306 -0.0695  0.0226 -0.6127
    9CHL1    H8  607   0.554   5.527   7.298  0.0275  0.4821  2.2704
    9CHL1   C14  608   0.661   5.412   7.159  0.0911  0.1179  0.0340
    9CHL1   H14  609   0.733   5.328   7.157  1.1777  0.9884  1.1518
    9CHL1   C15  610   0.732   5.518   7.068  0.1422  0.3792 -0.6972
    9CHL1  H15A  611   0.687   5.617   7.091  0.5322  0.7460 -1.4910
    9CHL1  H15B  612   0.839   5.522   7.094  0.0036  0.7586 -0.1711
    9CHL1   C16  613   0.696   5.483   6.929  0.3691  0.3016 -0.3594
    9CHL1  H16A  614   0.657   5.571   6.875  2.5424  3.1357  2.3071
    9CHL1  H16B  615   0.781   5.458   6.862 -0.2672  0.7758 -1.3542
    9CHL1   C17  616   0.599   5.359   6.931  1.2573  0.1573  0.0941
    9CHL1   H17  617   0.662   5.268   6.931  0.3634 -0.5037  1.7441
    9CHL1   C13  618   0.533   5.365   7.081 -0.1814  0.1807 -0.7110
    9CHL1   C18  619   0.407   5.460   7.078  0.4906  0.4140  0.4930
    9CHL1  H18A  620   0.419   5.545   7.007  0.3921 -0.1404 -0.1932
    9CHL1  H18B  621   0.312   5.414   7.042  0.8619  1.3409 -1.8738
    9CHL1  H18C  622   0.388   5.504   7.178 -0.1533  2.3346 -0.4085
    9CHL1   C12  623   0.485   5.232   7.150 -0.1384  1.0408  0.0356
    9CHL1  H12A  624   0.397   5.195   7.092 -0.0839 -1.1618  1.2665
    9CHL1  H12B  625   0.572   5.164   7.147 -0.0870  1.0697  0.7172
    9CHL1   C11  626   0.455   5.264   7.298 -0.2776  0.1315  0.2304
    9CHL1  H11A  627   0.361   5.323   7.301 -0.0691  0.5096 -0.3985
    9CHL1  H11B  628   0.425   5.165   7.338  0.1554 -0.7065 -1.4499
    9CHL1    C9  629   0.576   5.322   7.378  0.1633 -0.5870  0.1250
    9CHL1    H9  630   0.659   5.250   7.366  1.6528  0.6723  2.0721
    9CHL1   C10  631   0.548   5.350   7.523 -0.4505  0.0128 -0.2723
    9CHL1   C19  632   0.417   5.432   7.536  0.0601 -0.4545  0.5882
    9CHL1  H19A  633   0.399   5.468   7.640  3.0757 -1.2412  1.4718
    9CHL1  H19B  634   0.409   5.523   7.473  3.3506  0.5322  1.4246
    9CHL1  H19C  635   0.332   5.364   7.512 -0.1196  0.3540 -1.2112
    9CHL1    C1  636   0.536   5.214   7.579  0.0144  0.6842 -0.2957
    9CHL1   H1A  637   0.434   5.172   7.570  0.5854 -0.6437 -0.8089
    9CHL1   H1B  638   0.613   5.148   7.535  0.0829  1.0570 -0.7401
    9CHL1    C2  639   0.555   5.202   7.740  0.3473  0.0706  0.4112
    9CHL1   H2A  640   0.576   5.095   7.759  1.0283 -0.4956 -2.9084
    9CHL1   H2B  641   0.459   5.236   7.785 -0.4627 -1.2863 -0.2268
    9CHL1   C20  642   0.513   5.355   6.796 -0.4126  0.6344 -0.0125
    9CHL1   H20  643   0.448   5.445   6.800 -1.1401  0.0868  3.0127
    9CHL1   C21  644   0.423   5.223   6.797  0.0174 -0.1627  0.2488
    9CHL1  H21A  645   0.373   5.207   6.699  0.6852  1.0020 -0.3079
    9CHL1  H21B  646   0.341   5.229   6.871  0.2760 -3.6181  0.9882
    9CHL1  H21C  647   0.488   5.141   6.834  2.2269  2.3812  2.4481
    9CHL1   C22  648   0.592   5.355   6.670  0.2506  0.1946  0.1472
    9CHL1  H22A  649   0.689   5.406   6.686  0.1157  0.3345  0.5277
    9CHL1  H22B  650   0.624   5.252   6.643  2.1323  0.7279  0.2393
    9CHL1   C23  651   0.517   5.414   6.548 -0.3487 -0.4962 -0.2877
    9CHL1  H23A  652   0.432   5.350   6.516 -1.0342  0.8964 -1.3725
    9CHL1  H23B  653   0.475   5.515   6.569 -0.5632 -0.0772 -2.4944
    9CHL1   C24  654   0.604   5.434   6.421  0.4521  0.6545 -0.4575
    9CHL1  H24A  655   0.664   5.343   6.399 -2.4224 -1.2334 -1.0944
    9CHL1  H24B  656   0.536   5.438   6.333 -1.3867  1.8921  0.9540
    9CHL1   C25  657   0.693   5.560   6.421  0.4846 -0.5441  0.5965
    9CHL1   H25  658   0.756   5.555   6.512 -0.8830 -1.2907  1.5250
    9CHL1   C26  659   0.801   5.564   6.312 -0.3651  0.7719 -0.7831
    9CHL1  H26A  660   0.868   5.653   6.310  0.7022 -0.0271 -1.7625
    9CHL1  H26B  661   0.859   5.469   6.313 -0.7177  0.4983 -2.7356
    9CHL1  H26C  662   0.744   5.560   6.217 -0.5016  0.6287 -0.6960
    9CHL1   C27  663   0.616   5.695   6.426  0.2231  0.8079  0.2937
    9CHL1  H27A  664   0.524   5.676   6.485  0.7597 -2.8305  0.1875
    9CHL1  H27B  665   0.681   5.772   6.473  2.9909 -1.8859  1.2781
    9CHL1  H27C  666   0.598   5.717   6.319  1.8901 -1.5550 -0.5469
   10CHL1    C3  667   0.216   6.371   7.870 -0.3966  0.4959 -0.1613
   10CHL1    H3  668   0.248   6.477   7.873 -1.6812  0.8741  1.3017
   10CHL1    O3  669   0.203   6.325   8.009  0.3215 -0.2587 -0.7939
   10CHL1   H3'  670   0.164   6.395   8.061  1.0308  1.0280 -1.9211
   10CHL1    C4  671   0.077   6.361   7.800 -0.2925 -0.6187  0.8317
   10CHL1   H4A  672   0.045   6.258   7.826  0.4067 -1.4208 -1.2714
   10CHL1   H4B  673   0.009   6.429   7.856 -2.0622 -0.3838 -1.4370
   10CHL1    C5  674   0.074   6.369   7.648  0.4304  0.7058 -0.5273
   10CHL1    C6  675  -0.010   6.449   7.585  0.6381 -0.1324  0.0044
   10CHL1    H6  676  -0.085   6.508   7.641  0.1115 -0.3469 -0.4629
   10CHL1    C7  677  -0.038   6.438   7.441 -0.8641  0.2527  0.4861
   10CHL1   H7A  678  -0.146   6.438   7.415 -0.3717  0.6958 -1.8160
   10CHL1   H7B  679  -0.011   6.536   7.395 -2.2779  0.1021 -0.7431
   10CHL1    C8  680   0.031   6.318   7.374 -0.1760 -0.5676  0.6835
   10CHL1    H8  681  -0.024   6.224   7.398 -1.9107  0.2459  0.0190
   10CHL1   C14  682   0.043   6.339   7.220  0.1344 -0.0587  0.1126
   10CHL1   H14  683   0.101   6.430   7.191  0.3012 -0.5175 -1.0491
   10CHL1   C15  684  -0.093   6.359   7.141 -0.1827  0.2508 -0.1095
   10CHL1  H15A  685  -0.166   6.286   7.183 -0.1281  0.9326  1.2204
   10CHL1  H15B  686  -0.137   6.457   7.169  0.4935  0.7937 -0.9091
   10CHL1   C16  687  -0.071   6.322   6.999 -0.0673 -0.1094  0.4775
   10CHL1  H16A  688  -0.130   6.231   6.975  0.4788 -1.4773  3.7271
   10CHL1  H16B  689  -0.091   6.405   6.929  1.1209  0.5371  0.8755
   10CHL1   C17  690   0.074   6.274   6.991  0.1835 -0.0907  0.0492
   10CHL1   H17  691   0.143   6.358   6.973  1.9526 -1.1253  1.6648
   10CHL1   C13  692   0.114   6.228   7.140 -0.3693 -0.3996  0.1599
   10CHL1   C18  693   0.042   6.086   7.163 -0.3815  0.2053  0.6850
   10CHL1  H18A  694   0.118   6.013   7.127 -1.4070  0.3609 -2.0217
   10CHL1  H18B  695   0.007   6.063   7.266 -0.4941  0.3584  0.6817
   10CHL1  H18C  696  -0.044   6.070   7.094 -0.0815 -0.5382  0.4702
   10CHL1   C12  697   0.262   6.226   7.190  1.1249  0.2993 -0.3751
   10CHL1  H12A  698   0.312   6.139   7.142  0.4640  1.0355 -2.5198
   10CHL1  H12B  699   0.316   6.321   7.174 -0.4810  0.9980 -2.1979
   10CHL1   C11  700   0.255   6.191   7.339 -0.7678  0.1289  0.0630
   10CHL1  H11A  701   0.207   6.090   7.348 -1.5497  0.3848 -1.0251
   10CHL1  H11B  702   0.357   6.173   7.379 -0.4430 -1.5978 -1.4021
   10CHL1    C9  703   0.171   6.291   7.428  0.1303 -0.0567  0.1995
   10CHL1    H9  704   0.235   6.381   7.422  1.5594 -1.0226  0.3962
   10CHL1   C10  705   0.170   6.269   7.581  0.3395  0.2758 -0.7449
   10CHL1   C19  706   0.133   6.121   7.623  0.7231  0.7417 -0.3101
   10CHL1  H19A  707   0.212   6.051   7.587 -0.7500 -2.5103  2.2026
   10CHL1  H19B  708   0.128   6.110   7.733 -2.0833  1.9141 -0.2405
   10CHL1  H19C  709   0.037   6.082   7.581  0.5402 -0.3823  1.0542
   10CHL1    C1  710   0.311   6.311   7.647  0.3780  0.3491 -0.5160
   10CHL1   H1A  711   0.393   6.252   7.601  0.7569  0.2729  0.2466
   10CHL1   H1B  712   0.336   6.418   7.632 -1.4648  0.8199 -0.4594
   10CHL1    C2  713   0.316   6.274   7.797  0.6956  0.5195  0.1514
   10CHL1   H2A  714   0.422   6.289   7.827  0.3079  0.4925  1.5938
   10CHL1   H2B  715   0.288   6.169   7.821  3.4712 -0.6239 -1.0902
   10CHL1   C20  716   0.089   6.171   6.876 -0.4114  0.0655  0.0326
   10CHL1   H20  717   0.035   6.078   6.903 -1.3658  0.3374 -0.8439
   10CHL1   C21  718   0.245   6.140   6.859  0.7035  0.2879 -0.1033
   10CHL1  H21A  719   0.300   6.125   6.955 -0.7013 -0.9202  0.5586
   10CHL1  H21B  720   0.305   6.209   6.797  0.5138  0.2739 -0.3023
   10CHL1  H21C  721   0.244   6.041   6.808 -0.3701  0.9497 -1.4175
   10CHL1   C22  722   0.023   6.217   6.735  0.3694  0.1231 -0.6781
   10CHL1  H22A  723  -0.087   6.213   6.746  0.3891 -3.7870 -0.5194
   10CHL1  H22B  724   0.054   6.320   6.709 -2.1526  1.5524  1.5357
   10CHL1   C23  725   0.040   6.126   6.612  0.0861  0.0335 -0.1912
   10CHL1  H23A  726   0.143   6.145   6.574 -0.2312  2.4171 -0.0078
   10CHL1  H23B  727   0.024   6.024   6.653  0.7144  0.1326  0.3087
   10CHL1   C24  728  -0.060   6.158   6.496  0.1679 -0.2936 -0.5792
   10CHL1  H24A  729  -0.162   6.143   6.539 -0.1736  2.0989 -0.4038
   10CHL1  H24B  730  -0.048   6.264   6.465 -1.6647  0.1010 -0.0796
   10CHL1   C25  731  -0.049   6.068   6.370  0.2316  0.0076  0.2207
   10CHL1   H25  732  -0.067   5.965   6.405  1.6166 -0.1634  0.5142
   10CHL1   C26  733  -0.164   6.102   6.271 -0.1288  0.1591 -0.4988
   10CHL1  H26A  734  -0.244   6.155   6.327  0.1241  0.6492 -0.5903
   10CHL1  H26B  735  -0.120   6.173   6.198 -0.4093 -0.6609 -1.4760
   10CHL1  H26C  736  -0.202   6.019   6.208  0.0275  0.3662 -0.8678
   10CHL1   C27  737   0.091   6.065   6.302 -0.1406  0.6643  0.1301
   10CHL1  H27A  738   0.126   6.169   6.282 -0.9212  0.6416 -1.5368
   10CHL1  H27B  739   0.171   6.019   6.365 -1.5842 -3.3149 -0.6613
   10CHL1  H27C  740   0.080   5.991   6.220  0.5440 -1.3061  1.7352
   11CHL1    C3  741   1.248   4.940   7.439 -0.1008 -0.4500 -0.3510
   11CHL1    H3  742   1.146   4.983   7.425 -0.1913 -0.6495 -0.3222
   11CHL1    O3  743   1.293   4.963   7.571 -0.1497  0.4630 -0.1048
   11CHL1   H3'  744   1.333   4.881   7.600  0.1299  0.5656 -0.1948
   11CHL1    C4  745   1.233   4.787   7.411 -0.2414  0.2918  0.2510
   11CHL1   H4A  746   1.329   4.732   7.429  0.7398  1.2432 -1.7654
   11CHL1   H4B  747   1.159   4.741   7.480  2.0040 -2.7186  0.8947
   11CHL1    C5  748   1.205   4.748   7.274 -0.7185 -0.4021  0.7339
   11CHL1    C6  749   1.103   4.667   7.247  0.1848  0.6196  0.6324
   11CHL1    H6  750   1.046   4.626   7.332 -0.2641 -1.0369 -0.4197
   11CHL1    C7  751   1.054   4.611   7.118  0.1878  0.2753 -0.1042
   11CHL1   H7A  752   1.035   4.502   7.119  2.4927 -0.1884  1.0844
   11CHL1   H7B  753   0.956   4.660   7.104 -0.5136 -1.2491 -0.7388
   11CHL1    C8  754   1.161   4.646   7.002  0.0157  0.0527  0.7388
   11CHL1    H8  755   1.235   4.564   7.011  0.3192  0.0739 -1.2231
   11CHL1   C14  756   1.100   4.639   6.861 -0.7007 -0.2670 -0.1225
   11CHL1   H14  757   1.039   4.732   6.859 -0.2893  0.0044 -2.0669
   11CHL1   C15  758   1.008   4.521   6.833  0.0113  0.1437 -0.0422
   11CHL1  H15A  759   1.068   4.429   6.849 -0.3674 -0.3232 -1.1876
   11CHL1  H15B  760   0.925   4.523   6.906  1.1155 -1.5196  1.3436
   11CHL1   C16  761   0.992   4.536   6.681  0.3899 -0.2057  0.6911
   11CHL1  H16A  762   1.036   4.442   6.642 -1.1947 -0.2739 -1.0746
   11CHL1  H16B  763   0.885   4.542   6.652 -0.1644 -2.1158  2.1031
   11CHL1   C17  764   1.096   4.642   6.632 -0.3581 -0.7928  0.1135
   11CHL1   H17  765   1.037   4.736   6.624 -0.8371 -1.0583  0.5130
   11CHL1   C13  766   1.201   4.655   6.743  0.0617 -0.3384 -0.2984
   11CHL1   C18  767   1.315   4.541   6.751  0.1526 -0.2770  0.1640
   11CHL1  H18A  768   1.261   4.446   6.730 -2.3981  0.9270  1.0096
   11CHL1  H18B  769   1.407   4.558   6.690 -0.3329 -0.4428 -0.6279
   11CHL1  H18C  770   1.357   4.536   6.853  1.6799  1.6154 -0.3096
   11CHL1   C12  771   1.270   4.794   6.772 -0.4935  0.3566  0.1836
   11CHL1  H12A  772   1.356   4.799   6.702 -0.1972  0.8339  0.5772
   11CHL1  H12B  773   1.195   4.869   6.739 -0.9514 -0.1211  0.1279
   11CHL1   C11  774   1.331   4.807   6.908 -0.1310 -0.7863  0.3364
   11CHL1  H11A  775   1.418   4.738   6.914  0.5715  0.1043  0.6149
   11CHL1  H11B  776   1.365   4.913   6.906  0.3260 -0.9378 -0.4353
   11CHL1    C9  777   1.228   4.782   7.019  0.1474  0.5673 -0.5234
   11CHL1    H9  778   1.153   4.864   7.024  1.0031  1.3143  0.7282
   11CHL1   C10  779   1.288   4.807   7.164 -0.3693 -0.0964  0.0200
   11CHL1   C19  780   1.429   4.733   7.164  0.1970 -0.1172 -0.1385
   11CHL1  H19A  781   1.499   4.799   7.109  0.5228 -0.4275 -0.0954
   11CHL1  H19B  782   1.469   4.738   7.267  1.0228 -1.1404 -0.4007
   11CHL1  H19C  783   1.426   4.630   7.123  0.2085 -1.0374  2.0659
   11CHL1    C1  784   1.300   4.963   7.195  0.3753  0.2352  0.1924
   11CHL1   H1A  785   1.364   5.010   7.117 -0.6918 -1.7345 -1.9862
   11CHL1   H1B  786   1.205   5.018   7.177  0.6275  0.4731 -0.4414
   11CHL1    C2  787   1.344   4.992   7.334 -0.5770  1.0862 -0.1395
   11CHL1   H2A  788   1.357   5.100   7.353  0.5052  0.5483  2.6068
   11CHL1   H2B  789   1.447   4.952   7.346  0.0385  2.3328 -1.0802
   11CHL1   C20  790   1.158   4.610   6.498  0.5418  1.1075  0.8166
   11CHL1   H20  791   1.234   4.529   6.502  0.1041  0.6952  0.7589
   11CHL1   C21  792   1.234   4.728   6.438 -0.0942 -0.6338 -0.6036
   11CHL1  H21A  793   1.315   4.740   6.513 -2.1059 -1.1151  1.7801
   11CHL1  H21B  794   1.164   4.813   6.426 -0.3950 -1.0565 -1.9773
   11CHL1  H21C  795   1.280   4.706   6.340 -0.1345  0.6785 -0.9380
   11CHL1   C22  796   1.052   4.564   6.388  1.1873 -1.2645 -0.4238
   11CHL1  H22A  797   0.994   4.477   6.426  1.1079 -1.0225  0.0188
   11CHL1  H22B  798   0.979   4.646   6.371  0.8717 -1.0329  1.7142
   11CHL1   C23  799   1.109   4.528   6.249 -0.2665  0.0933 -1.0691
   11CHL1  H23A  800   1.161   4.617   6.207 -0.6684  0.8999  0.0938
   11CHL1  H23B  801   1.191   4.454   6.258 -1.2500 -0.8856  0.2281
   11CHL1   C24  802   0.997   4.486   6.155 -0.7914  0.5144  0.1965
   11CHL1  H24A  803   0.982   4.378   6.175  0.7879  0.0826 -0.7405
   11CHL1  H24B  804   0.905   4.541   6.183 -0.5962 -0.1488  2.2587
   11CHL1   C25  805   1.031   4.483   6.003  0.1769  0.1418 -0.3114
   11CHL1   H25  806   1.060   4.588   5.980  0.7936  0.0717  0.1180
   11CHL1   C26  807   1.150   4.394   5.966  0.1649 -0.8258  0.2242
   11CHL1  H26A  808   1.170   4.418   5.859  0.2498  1.4009  0.7040
   11CHL1  H26B  809   1.238   4.408   6.031  0.5605 -0.5469 -0.3622
   11CHL1  H26C  810   1.125   4.286   5.980  0.1282 -0.4436  4.3396
   11CHL1   C27  811   0.906   4.453   5.911  0.2349  0.1982 -0.6627
   11CHL1  H27A  812   0.848   4.366   5.949 -0.9340  0.7365 -1.1624
   11CHL1  H27B  813   0.837   4.539   5.923  0.3211  0.3584 -1.2596
   11CHL1  H27C  814   0.944   4.438   5.808  0.2859 -0.7598 -0.5124
   12CHL1    C3  815   6.318   2.429   7.745 -0.0141 -0.3305  0.5454
   12CHL1    H3  816   6.308   2.539   7.733  0.9061 -0.0971  1.7652
   12CHL1    O3  817   6.299   2.402   7.886 -0.3451 -0.2120 -0.4309
   12CHL1   H3'  818   6.215   2.357   7.896 -1.3107  1.3406 -1.1903
   12CHL1    C4  819   6.210   2.355   7.664 -0.6618 -0.3420  0.0443
   12CHL1   H4A  820   6.223   2.247   7.685 -0.5671 -0.9519 -2.7804
   12CHL1   H4B  821   6.113   2.401   7.693 -0.8761 -1.5894  1.4604
   12CHL1    C5  822   6.234   2.380   7.510  0.8254  0.2475 -0.8575
   12CHL1    C6  823   6.137   2.440   7.437 -0.2967 -0.6926  1.1546
   12CHL1    H6  824   6.043   2.476   7.481 -0.5555  0.2626 -0.1158
   12CHL1    C7  825   6.159   2.474   7.292 -0.5292 -0.4241 -0.2306
   12CHL1   H7A  826   6.073   2.433   7.234 -1.1593 -1.1640  1.1875
   12CHL1   H7B  827   6.165   2.584   7.277 -1.6842 -0.2173  0.6327
   12CHL1    C8  828   6.286   2.413   7.228  0.5501 -0.0785  0.5940
   12CHL1    H8  829   6.254   2.308   7.208 -2.0910  0.7455  0.0770
   12CHL1   C14  830   6.327   2.475   7.094 -0.9238 -0.3891 -0.0511
   12CHL1   H14  831   6.356   2.580   7.116  0.0440 -0.4352 -1.0097
   12CHL1   C15  832   6.213   2.479   6.995  0.0696 -0.2889 -0.2470
   12CHL1  H15A  833   6.164   2.381   6.982  0.9228 -0.5032 -2.0885
   12CHL1  H15B  834   6.136   2.558   7.010  2.6253  2.4765 -0.5992
   12CHL1   C16  835   6.284   2.501   6.865  0.3438  0.3069  0.2889
   12CHL1  H16A  836   6.243   2.423   6.797 -0.7570  1.3724 -0.2952
   12CHL1  H16B  837   6.260   2.595   6.812  1.7661  0.0345 -0.8905
   12CHL1   C17  838   6.436   2.484   6.892  0.1366  0.2616  0.0355
   12CHL1   H17  839   6.480   2.584   6.911  0.5532  0.0022  0.4617
   12CHL1   C13  840   6.446   2.409   7.025  0.1529 -0.3716 -0.7551
   12CHL1   C18  841   6.418   2.258   7.008 -0.1706 -0.0276 -0.6510
   12CHL1  H18A  842   6.420   2.208   7.107 -1.9742  0.6722 -0.2194
   12CHL1  H18B  843   6.313   2.248   6.975 -1.4158  1.9799  2.2609
   12CHL1  H18C  844   6.500   2.220   6.943 -0.7566 -2.0885 -0.2548
   12CHL1   C12  845   6.572   2.427   7.110 -0.6493 -0.4232 -0.2067
   12CHL1  H12A  846   6.654   2.370   7.063 -1.4043 -1.0042 -0.8531
   12CHL1  H12B  847   6.599   2.534   7.126 -0.7778 -0.6380  1.6254
   12CHL1   C11  848   6.542   2.370   7.251 -0.3772  0.1474 -0.6304
   12CHL1  H11A  849   6.540   2.259   7.252 -1.6700  0.1557 -1.2017
   12CHL1  H11B  850   6.614   2.399   7.331 -0.5490 -1.0285 -0.0218
   12CHL1    C9  851   6.406   2.417   7.322 -0.3515  0.4639  0.3191
   12CHL1    H9  852   6.429   2.524   7.339  2.5466 -0.0634  0.2471
   12CHL1   C10  853   6.378   2.352   7.459  0.2368  0.4017  0.3697
   12CHL1   C19  854   6.388   2.202   7.453 -0.1358  1.0598 -0.5938
   12CHL1  H19A  855   6.493   2.178   7.424 -0.5468 -1.9812  0.0896
   12CHL1  H19B  856   6.373   2.150   7.550 -0.0090  0.3258 -0.9645
   12CHL1  H19C  857   6.318   2.168   7.374  1.5332 -2.8497 -0.6036
   12CHL1    C1  858   6.478   2.421   7.556 -0.2905  0.5612  0.5796
   12CHL1   H1A  859   6.575   2.374   7.530 -0.3537  0.2082  0.9706
   12CHL1   H1B  860   6.481   2.530   7.533  0.8523  0.6844  1.2358
   12CHL1    C2  861   6.464   2.394   7.706 -0.1827 -0.0818 -0.2159
   12CHL1   H2A  862   6.532   2.452   7.770  0.6336 -1.9957  0.7382
   12CHL1   H2B  863   6.479   2.289   7.740 -1.0954 -0.3841 -0.6828
   12CHL1   C20  864   6.502   2.420   6.766  0.1921  0.1407 -0.5393
   12CHL1   H20  865   6.463   2.316   6.753 -2.3225  0.6018  2.2466
   12CHL1   C21  866   6.653   2.429   6.789  0.0722 -0.4326 -0.2045
   12CHL1  H21A  867   6.676   2.527   6.837  1.0570 -0.3207 -0.8741
   12CHL1  H21B  868   6.709   2.408   6.695  1.9354  0.0779  0.7344
   12CHL1  H21C  869   6.686   2.361   6.870 -3.7864 -0.2243  1.7376
   12CHL1   C22  870   6.465   2.490   6.632  0.3136  0.7789 -0.0350
   12CHL1  H22A  871   6.357   2.482   6.610  0.1610 -0.6418  1.1220
   12CHL1  H22B  872   6.486   2.599   6.637 -2.0148  1.4558 -2.5503
   12CHL1   C23  873   6.539   2.436   6.508  0.1947  0.3025  0.6778
   12CHL1  H23A  874   6.635   2.490   6.494 -2.2296  4.7402 -0.3711
   12CHL1  H23B  875   6.558   2.331   6.540  0.7492  1.0473  3.0230
   12CHL1   C24  876   6.449   2.435   6.384 -0.6375  1.0744  0.1617
   12CHL1  H24A  877   6.503   2.374   6.309  0.8727  0.8400  1.3755
   12CHL1  H24B  878   6.350   2.395   6.416  0.7872 -0.9977  2.2845
   12CHL1   C25  879   6.418   2.568   6.315 -0.1767 -0.7513  0.1287
   12CHL1   H25  880   6.394   2.631   6.403 -1.3939 -0.9347 -0.0551
   12CHL1   C26  881   6.542   2.617   6.240  0.7103  0.6224 -0.2133
   12CHL1  H26A  882   6.628   2.633   6.309  0.2854  0.8526  0.2680
   12CHL1  H26B  883   6.565   2.551   6.154 -0.7020 -1.5991  1.0122
   12CHL1  H26C  884   6.524   2.723   6.212  2.0027  0.4750 -1.7706
   12CHL1   C27  885   6.300   2.573   6.218  0.0270  0.4890 -0.0758
   12CHL1  H27A  886   6.308   2.490   6.144  0.6654  0.2997  0.1998
   12CHL1  H27B  887   6.204   2.569   6.274  0.1705 -1.5089  0.0896
   12CHL1  H27C  888   6.303   2.665   6.155  1.2972  2.0541  2.1197
   13CHL1    C3  889   3.578   3.854   7.850  0.3527  0.2873 -0.4828
   13CHL1    H3  890   3.473   3.821   7.860 -0.1764  1.0067 -2.9844
   13CHL1    O3  891   3.630   3.888   7.980  0.6538  0.2333  0.4670
   13CHL1   H3'  892   3.676   3.972   7.966 -1.5288  1.3557 -0.3967
   13CHL1    C4  893   3.666   3.737   7.796 -0.3396 -0.0397 -0.0088
   13CHL1   H4A  894   3.771   3.773   7.794  0.2231 -1.2771  2.5717
   13CHL1   H4B  895   3.664   3.650   7.864  0.1310 -1.2571 -1.5005
   13CHL1    C5  896   3.619   3.683   7.658  0.0172 -0.2273  0.4853
   13CHL1    C6  897   3.573   3.555   7.628  0.1671 -0.0749  0.3894
   13CHL1    H6  898   3.556   3.471   7.697 -2.3106 -0.1011 -0.1797
   13CHL1    C7  899   3.532   3.510   7.490 -1.1285  0.0786 -0.7745
   13CHL1   H7A  900   3.570   3.406   7.488  0.3188  0.3596  3.1280
   13CHL1   H7B  901   3.421   3.507   7.493 -1.2126  1.9731 -0.4432
   13CHL1    C8  902   3.571   3.609   7.380 -0.0594  0.3724 -0.3874
   13CHL1    H8  903   3.678   3.587   7.359 -0.1276 -3.2096  2.2067
   13CHL1   C14  904   3.489   3.579   7.248  0.0440  0.1053 -0.6137
   13CHL1   H14  905   3.384   3.601   7.277  0.2250  2.4151 -1.5375
   13CHL1   C15  906   3.487   3.437   7.195 -0.1717  0.0846 -0.1853
   13CHL1  H15A  907   3.588   3.392   7.202 -0.3401 -0.5267 -1.3574
   13CHL1  H15B  908   3.414   3.380   7.256  0.6816  0.7706  1.5646
   13CHL1   C16  909   3.451   3.446   7.049 -0.3751  0.2284  0.2716
   13CHL1  H16A  910   3.541   3.416   6.992  0.3815  1.7228  0.6451
   13CHL1  H16B  911   3.366   3.387   7.007 -0.9406  1.5000 -0.4259
   13CHL1   C17  912   3.428   3.601   7.029  0.3453  0.0951  1.4102
   13CHL1   H17  913   3.320   3.613   7.050 -0.3443  0.9393 -2.0983
   13CHL1   C13  914   3.513   3.676   7.134 -0.2469 -0.8269  0.2760
   13CHL1   C18  915   3.662   3.667   7.098  0.5021  0.3285 -0.5317
   13CHL1  H18A  916   3.685   3.564   7.063  1.2136  0.6124 -0.9219
   13CHL1  H18B  917   3.681   3.737   7.014 -0.6604  0.7727 -0.4386
   13CHL1  H18C  918   3.728   3.687   7.186  0.5161 -1.8783  0.0094
   13CHL1   C12  919   3.474   3.822   7.181 -1.2340  0.0209 -0.5244
   13CHL1  H12A  920   3.482   3.892   7.095  0.5886  0.4792 -0.0194
   13CHL1  H12B  921   3.366   3.830   7.206 -1.3899  0.3203 -1.2477
   13CHL1   C11  922   3.552   3.867   7.309  0.2119 -0.1666 -0.3708
   13CHL1  H11A  923   3.657   3.889   7.279  0.7919 -0.3728  1.3896
   13CHL1  H11B  924   3.515   3.961   7.355  0.7092  0.1038 -0.5187
   13CHL1    C9  925   3.547   3.758   7.426  0.1905  0.6634  0.0531
   13CHL1    H9  926   3.442   3.761   7.460  0.2418 -0.1618  0.2957
   13CHL1   C10  927   3.622   3.801   7.556  0.2305  0.7539  0.5001
   13CHL1   C19  928   3.765   3.832   7.519  0.1800 -0.6154  0.2879
   13CHL1  H19A  929   3.783   3.915   7.447 -0.6011 -1.0021 -0.3683
   13CHL1  H19B  930   3.836   3.847   7.603  0.7717  0.3105 -0.3572
   13CHL1  H19C  931   3.805   3.742   7.468  0.1326 -1.8111  2.2454
   13CHL1    C1  932   3.530   3.912   7.616  1.0071  0.1615 -0.1553
   13CHL1   H1A  933   3.512   4.002   7.553 -0.6760  0.9161  1.3198
   13CHL1   H1B  934   3.426   3.879   7.635  0.4017  2.2471  0.3432
   13CHL1    C2  935   3.577   3.972   7.753  0.0465 -0.2872 -0.2553
   13CHL1   H2A  936   3.513   4.060   7.778  0.3292 -0.3554  0.7864
   13CHL1   H2B  937   3.679   4.013   7.744  1.1327 -2.5982  0.7323
   13CHL1   C20  938   3.458   3.636   6.872  0.6649 -0.3004 -0.9754
   13CHL1   H20  939   3.568   3.651   6.871  0.6617  0.5616  1.8124
   13CHL1   C21  940   3.383   3.764   6.848 -0.6489  0.4335  0.7678
   13CHL1  H21A  941   3.274   3.744   6.845 -0.1713 -2.6219 -0.5150
   13CHL1  H21B  942   3.407   3.801   6.746 -3.0935  0.3022  0.0742
   13CHL1  H21C  943   3.410   3.844   6.920  1.1296  0.3670  0.2379
   13CHL1   C22  944   3.418   3.525   6.772 -0.0997 -0.5354  0.0083
   13CHL1  H22A  945   3.478   3.433   6.792 -0.2544 -1.4966 -3.2996
   13CHL1  H22B  946   3.312   3.493   6.776  0.1672 -1.4787 -0.0596
   13CHL1   C23  947   3.441   3.557   6.623  0.0316 -0.5833 -0.1520
   13CHL1  H23A  948   3.408   3.469   6.564 -0.2120 -0.7559  0.2372
   13CHL1  H23B  949   3.387   3.649   6.594  2.6082  2.0247  2.4952
   13CHL1   C24  950   3.582   3.581   6.594 -0.4024 -0.0694 -0.0043
   13CHL1  H24A  951   3.627   3.672   6.639 -0.8966  0.1840 -0.0143
   13CHL1  H24B  952   3.630   3.497   6.648  0.9903 -0.3039 -1.5327
   13CHL1   C25  953   3.623   3.581   6.442 -0.6609 -0.1572 -0.3054
   13CHL1   H25  954   3.594   3.480   6.406  1.6450 -0.9300 -0.1703
   13CHL1   C26  955   3.544   3.669   6.343  0.2509 -0.1202  0.2237
   13CHL1  H26A  956   3.575   3.776   6.347  0.6668 -0.2577  2.8526
   13CHL1  H26B  957   3.543   3.632   6.239 -0.3506  2.2600 -0.6895
   13CHL1  H26C  958   3.437   3.652   6.368  0.2692 -1.5991 -0.6309
   13CHL1   C27  959   3.775   3.598   6.420  1.1014  0.1901 -0.4644
   13CHL1  H27A  960   3.802   3.552   6.322 -1.2230 -0.0948 -1.0398
   13CHL1  H27B  961   3.801   3.705   6.409  0.8499  0.2605 -0.3797
   13CHL1  H27C  962   3.828   3.546   6.502 -1.6386 -1.3421  0.4447
   14CHL1    C3  963   6.804   0.471   7.766  0.8810  0.8408 -0.2481
   14CHL1    H3  964   6.733   0.386   7.761  0.2358  1.2149  1.6573
   14CHL1    O3  965   6.780   0.532   7.892 -0.6311  0.1059 -0.6482
   14CHL1   H3'  966   6.854   0.593   7.894 -0.2112 -0.4045 -0.7374
   14CHL1    C4  967   6.944   0.415   7.768 -0.7047 -0.4351  0.4172
   14CHL1   H4A  968   7.016   0.492   7.803 -0.3127 -1.3366  1.6829
   14CHL1   H4B  969   6.948   0.336   7.847 -0.7102 -1.4065 -0.5286
   14CHL1    C5  970   6.986   0.378   7.624 -0.4234 -0.0248 -0.1273
   14CHL1    C6  971   7.047   0.258   7.607 -0.4376 -0.4229  0.3606
   14CHL1    H6  972   7.076   0.194   7.692  1.5159  2.9705  2.4984
   14CHL1    C7  973   7.103   0.220   7.474  0.5033  0.7771 -0.5465
   14CHL1   H7A  974   7.205   0.180   7.492 -1.1550 -3.7183  0.1574
   14CHL1   H7B  975   7.044   0.131   7.442  1.0668  0.0057  0.5036
   14CHL1    C8  976   7.103   0.327   7.359  0.6173 -0.3856 -0.0833
   14CHL1    H8  977   7.178   0.404   7.387  0.0469 -0.1208  0.7686
   14CHL1   C14  978   7.123   0.267   7.223 -1.0020  0.4872  0.4188
   14CHL1   H14  979   7.039   0.194   7.223 -0.4731 -0.1618 -1.3035
   14CHL1   C15  980   7.251   0.187   7.197 -0.0726 -0.6630 -0.2161
   14CHL1  H15A  981   7.329   0.244   7.251 -1.0769  1.5214 -0.9533
   14CHL1  H15B  982   7.238   0.084   7.238 -0.0766 -0.4527  0.3155
   14CHL1   C16  983   7.270   0.184   7.049 -0.6233 -0.4154 -0.1207
   14CHL1  H16A  984   7.362   0.236   7.015 -0.1031 -1.1195  0.1801
   14CHL1  H16B  985   7.289   0.081   7.011  2.4389  0.2882 -0.7576
   14CHL1   C17  986   7.148   0.262   6.987 -0.0746  0.1734  0.7860
   14CHL1   H17  987   7.075   0.179   6.976  1.5716 -1.3654  1.0259
   14CHL1   C13  988   7.107   0.356   7.102 -0.4332 -0.3529  0.1224
   14CHL1   C18  989   7.214   0.473   7.107  0.2135 -0.5395 -0.7718
   14CHL1  H18A  990   7.267   0.487   7.204  0.4397  3.1728 -1.3257
   14CHL1  H18B  991   7.295   0.460   7.032 -0.9219  1.0790 -2.3658
   14CHL1  H18C  992   7.161   0.567   7.082  1.8710  0.0606 -2.1709
   14CHL1   C12  993   6.958   0.399   7.112 -0.3841  0.6942 -0.2276
   14CHL1  H12A  994   6.920   0.442   7.016 -1.0690 -1.4525 -0.9846
   14CHL1  H12B  995   6.891   0.310   7.118  0.0528  0.0635 -3.1329
   14CHL1   C11  996   6.933   0.488   7.236 -0.3490  0.7105 -0.0054
   14CHL1  H11A  997   6.990   0.583   7.236 -0.2467  0.7047 -2.4089
   14CHL1  H11B  998   6.827   0.516   7.248 -0.6320  0.5025 -1.7672
   14CHL1    C9  999   6.969   0.406   7.368 -0.4997  0.2121  0.3048
   14CHL1    H9 1000   6.895   0.323   7.373 -2.3530  1.7470 -0.6966
   14CHL1   C10 1001   6.944   0.474   7.511 -0.5890  0.2740 -0.1858
   14CHL1   C19 1002   7.023   0.603   7.515 -0.2561 -0.0686 -0.0971
   14CHL1  H19A 1003   6.985   0.677   7.441 -0.6002 -1.6607 -1.5894
   14CHL1  H19B 1004   7.021   0.645   7.618 -0.4425 -0.6682  0.1446
   14CHL1  H19C 1005   7.130   0.583   7.491  0.2911  0.6245  1.5728
   14CHL1    C1 1006   6.793   0.508   7.528 -0.2322  0.3009 -0.2510
   14CHL1   H1A 1007   6.762   0.571   7.442 -0.8023 -2.2651 -2.0296
   14CHL1   H1B 1008   6.724   0.424   7.504 -2.1757  2.1271 -1.3915
   14CHL1    C2 1009   6.771   0.575   7.661  0.2352  0.4314  0.1616
   14CHL1   H2A 1010   6.661   0.586   7.677  0.0010 -1.4214 -0.0099
   14CHL1   H2B 1011   6.824   0.671   7.682  0.3070  0.0202  1.9270
   14CHL1   C20 1012   7.180   0.314   6.845  0.1188 -0.1678 -0.5173
   14CHL1   H20 1013   7.279   0.363   6.853  0.0501 -0.0027 -0.6518
   14CHL1   C21 1014   7.078   0.411   6.790  0.0125 -0.2000  0.3047
   14CHL1  H21A 1015   6.982   0.355   6.804 -1.6371  2.1666 -0.8930
   14CHL1  H21B 1016   7.087   0.440   6.683 -0.0229  2.3009  0.9171
   14CHL1  H21C 1017   7.068   0.503   6.852  0.8808 -0.3195  0.6381
   14CHL1   C22 1018   7.210   0.204   6.742 -0.3705  0.2041  0.1864
   14CHL1  H22A 1019   7.303   0.149   6.770 -1.2510 -0.3338  2.2402
   14CHL1  H22B 1020   7.125   0.134   6.759 -2.0284  1.9514 -0.5205
   14CHL1   C23 1021   7.221   0.254   6.598 -0.7098  0.0193 -0.6475
   14CHL1  H23A 1022   7.130   0.297   6.551 -0.3826 -1.0384 -2.3691
   14CHL1  H23B 1023   7.300   0.332   6.604 -0.5466 -0.2541  2.9927
   14CHL1   C24 1024   7.268   0.143   6.498  0.0762  0.4035 -0.2481
   14CHL1  H24A 1025   7.358   0.095   6.543  1.6552  0.2944 -3.2322
   14CHL1  H24B 1026   7.204   0.055   6.480  1.6760 -0.9047  0.1807
   14CHL1   C25 1027   7.317   0.197   6.356 -0.7923  0.0311  0.5388
   14CHL1   H25 1028   7.347   0.106   6.300  0.9610  1.0796 -0.3072
   14CHL1   C26 1029   7.191   0.253   6.289 -0.0894 -0.3574  0.1827
   14CHL1  H26A 1030   7.178   0.357   6.325  0.3698 -1.2361  3.1257
   14CHL1  H26B 1031   7.210   0.250   6.179  3.5094  2.8728  0.4797
   14CHL1  H26C 1032   7.101   0.190   6.306 -0.6056 -0.4784 -2.4844
   14CHL1   C27 1033   7.433   0.301   6.361  0.0486 -0.0759  0.0826
   14CHL1  H27A 1034   7.400   0.400   6.400 -0.2519 -0.2274  0.2179
   14CHL1  H27B 1035   7.522   0.266   6.416  2.3389  2.2246 -1.9176
   14CHL1  H27C 1036   7.467   0.299   6.255  3.3298 -3.1412  1.0249
   15CHL1    C3 1037   4.468   0.174   7.650 -0.1863  0.0043 -0.4506
   15CHL1    H3 1038   4.365   0.145   7.621  0.4042 -1.9884 -0.7001
   15CHL1    O3 1039   4.493   0.140   7.789 -0.1027 -0.2798  0.0094
   15CHL1   H3' 1040   4.576   0.187   7.804  0.8953 -0.9738 -2.6409
   15CHL1    C4 1041   4.560   0.090   7.562  0.2135  0.1518 -0.6561
   15CHL1   H4A 1042   4.663   0.109   7.601 -0.0482  1.5618 -0.6082
   15CHL1   H4B 1043   4.520  -0.009   7.593 -1.1389  0.3784 -1.6487
   15CHL1    C5 1044   4.555   0.110   7.415 -0.7085  0.0163 -0.3594
   15CHL1    C6 1045   4.531   0.017   7.329 -0.1391  0.7737 -0.2076
   15CHL1    H6 1046   4.520  -0.087   7.362 -4.1222  0.5715 -1.6448
   15CHL1    C7 1047   4.516   0.044   7.182  0.4869  0.2125 -0.5809
   15CHL1   H7A 1048   4.569  -0.033   7.122  1.6572 -0.3133  1.0701
   15CHL1   H7B 1049   4.409   0.045   7.150  0.0600 -1.4137  0.6751
   15CHL1    C8 1050   4.574   0.176   7.126 -0.3643  0.4130  0.4968
   15CHL1    H8 1051   4.684   0.161   7.120 -0.2156  1.1295  1.2583
   15CHL1   C14 1052   4.527   0.203   6.983  0.6700  0.3756  0.3681
   15CHL1   H14 1053   4.416   0.206   6.984  0.6455 -0.5006  0.8664
   15CHL1   C15 1054   4.562   0.105   6.875 -0.2336  0.1426  0.0162
   15CHL1  H15A 1055   4.665   0.064   6.868  0.2711  1.3601  0.0975
   15CHL1  H15B 1056   4.495   0.016   6.880 -2.5791  1.7317 -1.3125
   15CHL1   C16 1057   4.528   0.179   6.744 -0.3093  0.1140  0.2829
   15CHL1  H16A 1058   4.616   0.160   6.679 -0.0817  1.5377  0.1474
   15CHL1  H16B 1059   4.444   0.127   6.692  0.6578 -1.3147  0.1014
   15CHL1   C17 1060   4.507   0.324   6.781 -0.5936 -0.7717  0.2919
   15CHL1   H17 1061   4.397   0.334   6.795 -0.4963  3.3293 -0.6700
   15CHL1   C13 1062   4.568   0.338   6.924 -0.0067  0.5668  0.1424
   15CHL1   C18 1063   4.717   0.353   6.906  0.0441 -0.5370 -0.5589
   15CHL1  H18A 1064   4.757   0.339   7.008 -1.6115  0.4695  0.2863
   15CHL1  H18B 1065   4.760   0.282   6.833  4.0407  1.0671  0.0100
   15CHL1  H18C 1066   4.739   0.456   6.868  0.5560 -0.3821  0.1406
   15CHL1   C12 1067   4.502   0.439   7.012 -0.3391 -1.0445  0.0372
   15CHL1  H12A 1068   4.516   0.544   6.979 -0.4426 -0.8723  0.5362
   15CHL1  H12B 1069   4.391   0.434   7.013 -0.5502  0.7439 -2.9970
   15CHL1   C11 1070   4.548   0.426   7.164 -0.6746 -0.3800  0.0894
   15CHL1  H11A 1071   4.655   0.454   7.166 -0.6576  0.0915 -3.1516
   15CHL1  H11B 1072   4.490   0.500   7.223  1.1872  0.6028  0.7697
   15CHL1    C9 1073   4.525   0.283   7.221 -0.3233  0.4920 -0.0933
   15CHL1    H9 1074   4.417   0.258   7.228 -1.1313  3.0119 -1.9631
   15CHL1   C10 1075   4.561   0.259   7.375 -0.6548 -0.6202  0.2042
   15CHL1   C19 1076   4.717   0.303   7.392 -0.3479 -0.6116  0.1662
   15CHL1  H19A 1077   4.732   0.411   7.371 -2.6123  0.0548  1.6473
   15CHL1  H19B 1078   4.751   0.285   7.496 -2.2602  1.2095  1.1962
   15CHL1  H19C 1079   4.773   0.243   7.317 -0.1808  0.7959 -0.8811
   15CHL1    C1 1080   4.470   0.351   7.472 -0.8414  0.2379 -0.2589
   15CHL1   H1A 1081   4.480   0.456   7.436 -1.2093 -0.0157 -1.1227
   15CHL1   H1B 1082   4.365   0.318   7.452 -0.1560 -0.9387 -2.2655
   15CHL1    C2 1083   4.490   0.322   7.620 -0.5247 -0.2550  0.2858
   15CHL1   H2A 1084   4.419   0.385   7.677 -0.6159  0.9535 -1.1283
   15CHL1   H2B 1085   4.595   0.352   7.641 -0.2697 -1.1000  0.2809
   15CHL1   C20 1086   4.537   0.419   6.665  0.1562  0.8764 -0.6712
   15CHL1   H20 1087   4.646   0.419   6.644 -0.1997  1.1208 -2.6993
   15CHL1   C21 1088   4.488   0.556   6.696  0.7918  0.5076  0.5148
   15CHL1  H21A 1089   4.379   0.539   6.715  0.4654  1.9743  0.0884
   15CHL1  H21B 1090   4.496   0.623   6.608  0.8994 -3.0867 -2.4766
   15CHL1  H21C 1091   4.533   0.601   6.787 -1.8787  1.5014  1.4541
   15CHL1   C22 1092   4.486   0.362   6.535  0.0157  0.3250  0.2785
   15CHL1  H22A 1093   4.526   0.258   6.525 -0.3791  0.2490 -0.6357
   15CHL1  H22B 1094   4.377   0.341   6.537  0.0285 -0.1530 -1.8237
   15CHL1   C23 1095   4.539   0.437   6.406 -0.2100  0.0490 -0.0591
   15CHL1  H23A 1096   4.486   0.534   6.399 -1.4240 -0.6802 -1.5723
   15CHL1  H23B 1097   4.650   0.442   6.413 -0.1511 -0.0967 -0.7838
   15CHL1   C24 1098   4.514   0.367   6.272  0.0748 -0.2483  0.0205
   15CHL1  H24A 1099   4.572   0.272   6.272 -0.8426 -0.8706  2.4055
   15CHL1  H24B 1100   4.408   0.342   6.251 -0.3584  0.6601  1.0387
   15CHL1   C25 1101   4.574   0.457   6.158 -0.1737 -0.1286 -0.2056
   15CHL1   H25 1102   4.678   0.488   6.184 -0.5114  2.2825 -1.4375
   15CHL1   C26 1103   4.584   0.374   6.030  0.2452 -0.2209 -0.0215
   15CHL1  H26A 1104   4.656   0.290   6.030  0.2161 -0.2564  0.7652
   15CHL1  H26B 1105   4.484   0.327   6.023  0.1031  0.1455 -0.5156
   15CHL1  H26C 1106   4.614   0.435   5.942 -0.9361 -0.2099 -0.4356
   15CHL1   C27 1107   4.494   0.585   6.136 -0.2231  0.5548  0.5168
   15CHL1  H27A 1108   4.385   0.565   6.135 -0.0015 -0.7862 -0.2357
   15CHL1  H27B 1109   4.509   0.648   6.226  0.7490  1.4319 -0.2354
   15CHL1  H27C 1110   4.519   0.645   6.046  2.3995 -1.4947 -0.2622
   16CHL1    C3 1111   6.759   5.114   7.483  0.2696  0.6467  0.4185
   16CHL1    H3 1112   6.655   5.076   7.479  0.8520 -0.9417 -1.8271
   16CHL1    O3 1113   6.795   5.142   7.616  0.0470 -0.3523 -0.5594
   16CHL1   H3' 1114   6.862   5.211   7.610 -1.6837  1.3082 -1.5639
   16CHL1    C4 1115   6.849   4.999   7.432 -0.4604  0.0189  0.2982
   16CHL1   H4A 1116   6.952   5.032   7.459  0.1010 -2.7673  2.0043
   16CHL1   H4B 1117   6.819   4.914   7.498  0.0691  0.2719  0.8799
   16CHL1    C5 1118   6.837   4.964   7.283 -0.5338 -0.4266 -0.2631
   16CHL1    C6 1119   6.798   4.846   7.248  0.3661 -0.7028  0.1599
   16CHL1    H6 1120   6.778   4.764   7.318 -0.6737 -1.3002 -0.7864
   16CHL1    C7 1121   6.791   4.806   7.099  0.2244  0.0731 -0.1454
   16CHL1   H7A 1122   6.826   4.703   7.079 -0.2717 -0.0168 -0.5627
   16CHL1   H7B 1123   6.684   4.788   7.076  0.0604  1.1403 -0.2687
   16CHL1    C8 1124   6.854   4.904   7.004  0.2244  0.3700 -0.3460
   16CHL1    H8 1125   6.963   4.884   7.003  0.3487  1.0416 -1.0028
   16CHL1   C14 1126   6.803   4.872   6.859 -0.0069  0.4408 -0.1718
   16CHL1   H14 1127   6.694   4.893   6.863  0.0885  1.0529 -0.6740
   16CHL1   C15 1128   6.814   4.727   6.807  0.1722  0.6008 -0.0091
   16CHL1  H15A 1129   6.917   4.686   6.805 -0.2114 -0.4254  0.1569
   16CHL1  H15B 1130   6.742   4.655   6.853 -1.5646  1.7674 -0.7678
   16CHL1   C16 1131   6.779   4.747   6.659  0.8007 -0.3208 -0.4135
   16CHL1  H16A 1132   6.841   4.685   6.591  2.3898  0.2713  0.4534
   16CHL1  H16B 1133   6.671   4.725   6.642  0.4922  1.0944 -0.3835
   16CHL1   C17 1134   6.788   4.903   6.625  0.1877 -0.0506  0.1276
   16CHL1   H17 1135   6.685   4.947   6.628  0.2190 -0.0368  1.3668
   16CHL1   C13 1136   6.861   4.967   6.752  1.0711 -0.3996  0.6605
   16CHL1   C18 1137   7.017   4.949   6.736  0.1838  0.0089 -0.4680
   16CHL1  H18A 1138   7.063   4.958   6.836  2.5157 -2.6231 -1.1742
   16CHL1  H18B 1139   7.046   4.846   6.706  2.1796 -0.2345  2.0157
   16CHL1  H18C 1140   7.057   5.022   6.662 -1.1707  1.6341  0.3435
   16CHL1   C12 1141   6.829   5.111   6.794  0.4120 -0.2986  0.4328
   16CHL1  H12A 1142   6.872   5.184   6.722 -0.0655 -1.3217 -0.9530
   16CHL1  H12B 1143   6.718   5.119   6.784  0.6757  1.9295 -1.9092
   16CHL1   C11 1144   6.880   5.152   6.934 -0.0491  0.3952 -0.5511
   16CHL1  H11A 1145   6.991   5.153   6.934  0.1923 -2.7920  2.5653
   16CHL1  H11B 1146   6.840   5.251   6.962 -1.5721 -0.3648  0.1160
   16CHL1    C9 1147   6.823   5.049   7.041 -0.7279  0.2824 -0.5032
   16CHL1    H9 1148   6.712   5.058   7.034 -0.7491  0.2163 -0.2436
   16CHL1   C10 1149   6.867   5.080   7.189  0.5634  0.2324  0.3736
   16CHL1   C19 1150   7.017   5.121   7.186  0.4693  0.0174 -0.0853
   16CHL1  H19A 1151   7.080   5.050   7.130  1.5128 -1.5261  2.8205
   16CHL1  H19B 1152   7.024   5.226   7.152  1.6122  0.4517  1.3653
   16CHL1  H19C 1153   7.064   5.114   7.287  0.7307  0.2439 -0.1901
   16CHL1    C1 1154   6.783   5.197   7.240  0.0997 -0.2218 -1.3043
   16CHL1   H1A 1155   6.807   5.287   7.179 -0.5072  0.0039 -1.2180
   16CHL1   H1B 1156   6.681   5.154   7.233  1.3067 -3.4517 -0.9103
   16CHL1    C2 1157   6.791   5.233   7.390 -0.0837 -0.0329  0.2950
   16CHL1   H2A 1158   6.720   5.318   7.401 -0.5188  0.0245 -2.3336
   16CHL1   H2B 1159   6.892   5.272   7.414 -0.7714  2.0254  0.1110
   16CHL1   C20 1160   6.847   4.936   6.492  0.2789 -0.5207  0.5643
   16CHL1   H20 1161   6.952   4.900   6.486 -0.4706 -2.6727 -3.2712
   16CHL1   C21 1162   6.835   5.092   6.464 -0.3719  1.0213  0.2033
   16CHL1  H21A 1163   6.732   5.130   6.479 -0.4636  1.2398 -0.8771
   16CHL1  H21B 1164   6.860   5.118   6.359 -1.3610 -1.0289 -0.5898
   16CHL1  H21C 1165   6.896   5.153   6.534  0.8241 -0.2057  0.2801
   16CHL1   C22 1166   6.769   4.869   6.367 -0.6739  0.4611 -0.7991
   16CHL1  H22A 1167   6.754   4.762   6.394 -2.1870  0.3062 -2.1027
   16CHL1  H22B 1168   6.670   4.916   6.348 -1.9098 -2.0786 -1.0455
   16CHL1   C23 1169   6.849   4.866   6.240 -0.0034  0.0886  0.3340
   16CHL1  H23A 1170   6.888   4.970   6.231  0.4851  0.1841  2.7816
   16CHL1  H23B 1171   6.939   4.805   6.262  0.1536 -0.5003 -1.8107
   16CHL1   C24 1172   6.756   4.822   6.127 -0.3734 -0.1201 -0.6401
   16CHL1  H24A 1173   6.696   4.734   6.159  1.1350 -0.4419  1.5285
   16CHL1  H24B 1174   6.683   4.903   6.112 -1.8973 -1.6300 -1.7919
   16CHL1   C25 1175   6.813   4.791   5.989 -0.3658  0.0144 -0.1988
   16CHL1   H25 1176   6.720   4.780   5.929 -0.0098 -1.4107 -0.5309
   16CHL1   C26 1177   6.892   4.910   5.926  0.5564 -0.1811  0.1847
   16CHL1  H26A 1178   6.980   4.938   5.987  2.4179 -1.7860 -1.6111
   16CHL1  H26B 1179   6.926   4.893   5.821 -0.1470  1.0534 -0.2710
   16CHL1  H26C 1180   6.815   4.989   5.924 -0.7309 -1.3986 -1.3906
   16CHL1   C27 1181   6.898   4.666   5.978  0.0979 -0.4343 -0.3569
   16CHL1  H27A 1182   6.854   4.584   6.038 -1.1700  0.7246  0.3729
   16CHL1  H27B 1183   6.920   4.638   5.873  1.2235  0.3711 -0.3540
   16CHL1  H27C 1184   6.999   4.682   6.021  0.7597  2.3187 -2.6173
   17CHL1    C3 1185   2.777   6.635   7.400 -0.4790  0.5418 -0.0285
   17CHL1    H3 1186   2.679   6.684   7.381  0.1616  1.8607 -0.0922
   17CHL1    O3 1187   2.776   6.592   7.538  0.5331 -0.0379 -0.0784
   17CHL1   H3' 1188   2.832   6.651   7.589  0.6017 -0.2917  0.1389
   17CHL1    C4 1189   2.793   6.514   7.304  0.0443 -0.9365 -0.4931
   17CHL1   H4A 1190   2.880   6.462   7.350 -0.9301 -0.6077  1.8615
   17CHL1   H4B 1191   2.704   6.447   7.311  0.0400 -0.8732  0.1225
   17CHL1    C5 1192   2.823   6.547   7.157 -0.4494  0.9327 -0.6415
   17CHL1    C6 1193   2.749   6.500   7.049  0.4357  0.2076  0.0051
   17CHL1    H6 1194   2.668   6.427   7.066 -1.8483  1.8635 -2.8896
   17CHL1    C7 1195   2.786   6.520   6.908  0.1729  0.4881 -0.4048
   17CHL1   H7A 1196   2.797   6.420   6.861  0.6585 -1.0543  2.7051
   17CHL1   H7B 1197   2.705   6.572   6.852 -2.3521 -1.3081  1.3408
   17CHL1    C8 1198   2.928   6.579   6.897  0.5758 -0.0069  0.3597
   17CHL1    H8 1199   3.004   6.504   6.926  2.3155  1.0010 -1.3140
   17CHL1   C14 1200   2.955   6.608   6.748 -0.4898  0.1859 -0.5592
   17CHL1   H14 1201   2.874   6.677   6.719 -0.3349  0.1764 -1.0353
   17CHL1   C15 1202   2.939   6.495   6.646  0.3539  0.0106  0.5800
   17CHL1  H15A 1203   2.977   6.403   6.696  0.5670  1.4211  3.1877
   17CHL1  H15B 1204   2.832   6.475   6.626 -0.1105  1.0587  1.8623
   17CHL1   C16 1205   3.012   6.555   6.523 -0.6410 -0.1270  0.2277
   17CHL1  H16A 1206   3.078   6.475   6.485 -1.7603 -1.2844  0.6323
   17CHL1  H16B 1207   2.947   6.577   6.436  2.6214  0.8902 -2.1336
   17CHL1   C17 1208   3.085   6.689   6.569  0.3372  0.8761  0.2591
   17CHL1   H17 1209   3.017   6.775   6.547  0.3301  1.0505  0.9423
   17CHL1   C13 1210   3.086   6.679   6.725 -0.8958 -0.3093  0.0598
   17CHL1   C18 1211   3.204   6.588   6.765  0.4649 -0.2821  0.5286
   17CHL1  H18A 1212   3.300   6.644   6.771  1.0275 -0.0132 -5.3930
   17CHL1  H18B 1213   3.190   6.551   6.869 -0.0156  2.1303  1.3970
   17CHL1  H18C 1214   3.219   6.507   6.691  2.6963  1.0233 -0.5494
   17CHL1   C12 1215   3.091   6.810   6.799  0.3271 -0.5065 -0.1510
   17CHL1  H12A 1216   3.179   6.870   6.769 -0.2595  0.1009 -0.7100
   17CHL1  H12B 1217   2.998   6.858   6.760  0.8428 -0.4170 -1.3166
   17CHL1   C11 1218   3.073   6.785   6.949 -0.4710  0.3173  0.5852
   17CHL1  H11A 1219   3.167   6.740   6.986 -0.7019  0.8826  1.8942
   17CHL1  H11B 1220   3.053   6.879   7.004 -2.5573  0.4506 -0.2990
   17CHL1    C9 1221   2.947   6.697   6.986 -0.3409  0.4703 -0.2308
   17CHL1    H9 1222   2.854   6.755   6.967 -0.4844  0.9934  1.8287
   17CHL1   C10 1223   2.935   6.647   7.135 -0.8605 -0.3906 -0.0631
   17CHL1   C19 1224   3.065   6.584   7.175  0.1465  0.2578 -0.2098
   17CHL1  H19A 1225   3.097   6.502   7.106  1.5945  0.9139 -0.3524
   17CHL1  H19B 1226   3.153   6.651   7.163 -0.3274  1.0570  0.7151
   17CHL1  H19C 1227   3.063   6.540   7.277 -2.1313 -0.5033 -0.5195
   17CHL1    C1 1228   2.905   6.773   7.222 -0.7308 -0.9592  0.5798
   17CHL1   H1A 1229   2.981   6.854   7.210 -1.3077 -0.7547 -2.4307
   17CHL1   H1B 1230   2.811   6.819   7.184 -0.9576 -1.0177  1.0721
   17CHL1    C2 1231   2.887   6.748   7.376 -0.0890 -0.4678  0.3362
   17CHL1   H2A 1232   2.845   6.839   7.423 -0.8153 -0.3340 -0.5573
   17CHL1   H2B 1233   2.983   6.714   7.420  0.7858  0.8261 -0.5259
   17CHL1   C20 1234   3.217   6.714   6.497  0.1416 -0.0384 -0.5802
   17CHL1   H20 1235   3.291   6.638   6.530  0.1123  1.0634  2.2605
   17CHL1   C21 1236   3.286   6.847   6.532 -0.6182  0.1932  0.1896
   17CHL1  H21A 1237   3.211   6.928   6.539  0.5048  1.4626 -1.5635
   17CHL1  H21B 1238   3.366   6.881   6.462  0.5819 -1.0706  0.8841
   17CHL1  H21C 1239   3.338   6.833   6.629  0.8304  0.4385 -0.5114
   17CHL1   C22 1240   3.208   6.701   6.342  0.5060  0.3188 -0.0201
   17CHL1  H22A 1241   3.145   6.617   6.304 -1.3272  2.2710 -1.5742
   17CHL1  H22B 1242   3.161   6.789   6.294 -3.9089 -0.7733  1.8004
   17CHL1   C23 1243   3.346   6.694   6.265 -0.3254  0.3655  0.1441
   17CHL1  H23A 1244   3.394   6.791   6.289  2.1723 -0.2979 -1.7308
   17CHL1  H23B 1245   3.411   6.613   6.304 -2.1529 -1.4791 -0.4210
   17CHL1   C24 1246   3.329   6.691   6.114  0.4446 -1.2729  0.0689
   17CHL1  H24A 1247   3.258   6.771   6.084 -0.1108 -2.1600 -1.0495
   17CHL1  H24B 1248   3.423   6.722   6.064  0.5663 -0.4014  0.8167
   17CHL1   C25 1249   3.274   6.561   6.056  1.1684 -0.0076 -0.8371
   17CHL1   H25 1250   3.196   6.521   6.124  2.0764 -0.7559 -0.2054
   17CHL1   C26 1251   3.209   6.586   5.915  0.3445 -0.8877 -0.1104
   17CHL1  H26A 1252   3.294   6.619   5.851  0.1273  1.6350  0.7721
   17CHL1  H26B 1253   3.155   6.495   5.883 -4.4287  1.5486  0.0586
   17CHL1  H26C 1254   3.127   6.661   5.922 -0.5513 -1.8086 -0.4295
   17CHL1   C27 1255   3.389   6.461   6.047  1.0580 -0.2762 -0.3983
   17CHL1  H27A 1256   3.345   6.366   6.008  0.3719 -1.3447  2.6424
   17CHL1  H27B 1257   3.465   6.506   5.980 -0.2468 -0.8767 -2.3638
   17CHL1  H27C 1258   3.420   6.424   6.147 -0.9042 -2.0189 -0.3595
   18CHL1    C3 1259   3.290   2.595   7.535  0.2692  0.7836  0.3326
   18CHL1    H3 1260   3.257   2.699   7.517  3.3509  1.5942 -1.3765
   18CHL1    O3 1261   3.341   2.573   7.665  0.2946  0.4695  0.3046
   18CHL1   H3' 1262   3.379   2.485   7.671 -2.1963 -0.5909  1.8682
   18CHL1    C4 1263   3.175   2.496   7.503 -0.5613  0.2633 -0.0090
   18CHL1   H4A 1264   3.219   2.394   7.503 -1.6905 -0.2410  0.5392
   18CHL1   H4B 1265   3.096   2.516   7.579  0.7967  0.6117  1.3671
   18CHL1    C5 1266   3.125   2.527   7.362 -0.3989  0.2033  0.7057
   18CHL1    C6 1267   2.996   2.565   7.347  0.2677  0.5484  0.7964
   18CHL1    H6 1268   2.925   2.586   7.428 -0.1778  0.4551  0.4322
   18CHL1    C7 1269   2.941   2.590   7.210 -0.2469  0.5383 -0.2037
   18CHL1   H7A 1270   2.842   2.541   7.202  0.2117 -0.5526  0.4904
   18CHL1   H7B 1271   2.926   2.698   7.191  0.9425  0.5652 -1.1269
   18CHL1    C8 1272   3.030   2.542   7.099  0.0359  1.0790  0.2925
   18CHL1    H8 1273   3.015   2.434   7.079  0.8135  0.8617  0.8581
   18CHL1   C14 1274   2.979   2.613   6.968 -0.2336 -0.2736  0.0891
   18CHL1   H14 1275   3.004   2.719   6.989 -1.8640 -0.4471  3.6649
   18CHL1   C15 1276   2.828   2.619   6.933  1.2645 -0.2048  0.7672
   18CHL1  H15A 1277   2.783   2.519   6.953  2.1664 -0.2864  2.6480
   18CHL1  H15B 1278   2.782   2.697   6.997  2.8813 -0.1620  1.9652
   18CHL1   C16 1279   2.834   2.644   6.779  0.7356 -0.0975  0.0800
   18CHL1  H16A 1280   2.793   2.554   6.728 -1.7518  1.7123 -1.3960
   18CHL1  H16B 1281   2.755   2.715   6.744 -1.4397 -2.2397  0.4098
   18CHL1   C17 1282   2.986   2.683   6.742  0.3059 -0.0079 -0.7444
   18CHL1   H17 1283   3.013   2.786   6.772 -0.9034  0.0291  0.2744
   18CHL1   C13 1284   3.059   2.586   6.838 -0.2386 -0.1149  0.8194
   18CHL1   C18 1285   3.056   2.441   6.786  0.1184 -0.4002  0.3219
   18CHL1  H18A 1286   3.114   2.423   6.693  1.2451  1.0036  0.7225
   18CHL1  H18B 1287   3.103   2.371   6.858  0.9549  0.8826  1.0540
   18CHL1  H18C 1288   2.951   2.415   6.759  0.3238  0.6477 -1.7000
   18CHL1   C12 1289   3.211   2.624   6.858 -0.0239  0.0280  0.1787
   18CHL1  H12A 1290   3.280   2.607   6.773 -2.0558  2.7151 -2.2207
   18CHL1  H12B 1291   3.193   2.732   6.874 -0.7969 -0.1787  0.7471
   18CHL1   C11 1292   3.269   2.571   6.992  0.2131  0.7039  0.5500
   18CHL1  H11A 1293   3.303   2.467   6.973 -0.2525  0.6093  0.2272
   18CHL1  H11B 1294   3.366   2.622   7.013  1.4406 -1.1145 -0.3779
   18CHL1    C9 1295   3.178   2.580   7.118  0.6640 -0.0832 -0.4152
   18CHL1    H9 1296   3.182   2.689   7.142  1.6207 -0.2406  0.1921
   18CHL1   C10 1297   3.230   2.511   7.244 -0.1767 -0.9623 -0.0633
   18CHL1   C19 1298   3.252   2.361   7.218  0.4128 -0.3216  0.2620
   18CHL1  H19A 1299   3.329   2.342   7.140 -0.4917 -0.7371 -0.5468
   18CHL1  H19B 1300   3.291   2.309   7.308  0.8638  1.7912  1.3344
   18CHL1  H19C 1301   3.165   2.304   7.178 -0.8099  1.3612  0.4242
   18CHL1    C1 1302   3.356   2.585   7.287 -0.0333  0.1405  0.4892
   18CHL1   H1A 1303   3.432   2.558   7.211  0.7218  2.4385  0.3446
   18CHL1   H1B 1304   3.333   2.694   7.279 -0.8960 -0.0520  0.2012
   18CHL1    C2 1305   3.400   2.567   7.436  0.2783  0.4818  0.2816
   18CHL1   H2A 1306   3.478   2.645   7.451 -0.2825  1.4698 -1.6022
   18CHL1   H2B 1307   3.445   2.467   7.455 -2.4464 -0.3950  2.8473
   18CHL1   C20 1308   3.006   2.670   6.592 -0.2740  0.5011  0.2040
   18CHL1   H20 1309   2.989   2.564   6.566  2.1526 -0.0863  0.7294
   18CHL1   C21 1310   3.152   2.714   6.543  0.4829 -0.2979 -0.0364
   18CHL1  H21A 1311   3.165   2.704   6.433  0.9086  1.5240 -0.1826
   18CHL1  H21B 1312   3.221   2.642   6.592 -0.8461  0.4870  3.2565
   18CHL1  H21C 1313   3.176   2.818   6.574  3.7929 -0.0734 -2.8310
   18CHL1   C22 1314   2.899   2.755   6.517 -0.1874 -0.0157  0.1221
   18CHL1  H22A 1315   2.923   2.766   6.409 -1.4152  0.8128 -0.0934
   18CHL1  H22B 1316   2.799   2.706   6.527 -1.9505  3.4702  1.1473
   18CHL1   C23 1317   2.881   2.904   6.563 -0.9105 -0.6093 -0.3176
   18CHL1  H23A 1318   2.852   2.909   6.670 -1.1715 -1.1432 -0.3609
   18CHL1  H23B 1319   2.979   2.954   6.549 -0.1944 -0.9237  2.7127
   18CHL1   C24 1320   2.773   2.983   6.488 -0.6181 -0.1004  0.4667
   18CHL1  H24A 1321   2.681   2.920   6.485  0.5562 -1.8678 -0.0201
   18CHL1  H24B 1322   2.747   3.066   6.557 -0.4254 -0.0608  0.4935
   18CHL1   C25 1323   2.799   3.028   6.341  0.4491  0.5253 -0.1850
   18CHL1   H25 1324   2.840   2.935   6.298  1.3342  1.2311 -0.9078
   18CHL1   C26 1325   2.665   3.061   6.271  0.6388 -0.4688 -1.0344
   18CHL1  H26A 1326   2.595   2.975   6.266  0.2980 -0.2721  0.0444
   18CHL1  H26B 1327   2.611   3.141   6.327  2.7146  0.1457  0.2065
   18CHL1  H26C 1328   2.666   3.101   6.168 -3.1894  0.2231 -0.9604
   18CHL1   C27 1329   2.896   3.146   6.334  0.2557  0.6069 -0.2579
   18CHL1  H27A 1330   2.992   3.112   6.378 -0.3285  0.7086  1.1328
   18CHL1  H27B 1331   2.906   3.180   6.228 -2.7070  0.1450 -0.7844
   18CHL1  H27C 1332   2.851   3.221   6.401 -2.9088 -0.8355 -0.5552
   19CHL1    C3 1333   2.522   2.387   7.757 -0.5199 -0.0378 -0.1948
   19CHL1    H3 1334   2.627   2.369   7.724 -0.8443 -0.1983 -1.1751
   19CHL1    O3 1335   2.525   2.355   7.896 -0.1335  0.6277  0.2062
   19CHL1   H3' 1336   2.438   2.366   7.934 -1.2454  0.0425 -2.0325
   19CHL1    C4 1337   2.511   2.543   7.741 -0.2086 -0.5975 -0.7296
   19CHL1   H4A 1338   2.421   2.581   7.794  0.0390  0.5520 -1.0991
   19CHL1   H4B 1339   2.604   2.577   7.791  0.0565 -0.0487 -1.5674
   19CHL1    C5 1340   2.505   2.576   7.592  0.0341  0.2696  0.9469
   19CHL1    C6 1341   2.591   2.665   7.534 -0.2595 -0.2160  0.0572
   19CHL1    H6 1342   2.665   2.721   7.594 -0.7928  0.6892 -0.1046
   19CHL1    C7 1343   2.588   2.707   7.392  0.0649 -0.3448  0.7175
   19CHL1   H7A 1344   2.604   2.817   7.388  1.2961 -0.3261  3.6616
   19CHL1   H7B 1345   2.674   2.661   7.339  1.0172  1.9061  0.1693
   19CHL1    C8 1346   2.461   2.653   7.309 -0.1504 -0.1206 -0.3041
   19CHL1    H8 1347   2.376   2.716   7.342 -0.3837 -0.6816  0.1536
   19CHL1   C14 1348   2.489   2.650   7.158 -0.4488  0.1605 -0.4412
   19CHL1   H14 1349   2.568   2.577   7.130 -0.3597 -0.7935  2.0329
   19CHL1   C15 1350   2.519   2.791   7.101  0.1562  0.2344  0.0802
   19CHL1  H15A 1351   2.457   2.861   7.161  1.6482  0.9357  0.8366
   19CHL1  H15B 1352   2.626   2.818   7.107 -0.0473  2.2458 -2.9082
   19CHL1   C16 1353   2.487   2.785   6.948  0.3344 -0.2989  0.6151
   19CHL1  H16A 1354   2.435   2.880   6.924  1.3152  0.0852 -0.0520
   19CHL1  H16B 1355   2.576   2.779   6.881  0.0276 -2.9810  0.3385
   19CHL1   C17 1356   2.398   2.654   6.933  0.2737 -0.2497 -1.0622
   19CHL1   H17 1357   2.463   2.579   6.883 -0.5704  0.3653 -3.2084
   19CHL1   C13 1358   2.364   2.613   7.077  0.2137  0.2950  0.7758
   19CHL1   C18 1359   2.244   2.708   7.119 -0.0884  0.2826 -0.4670
   19CHL1  H18A 1360   2.252   2.816   7.092 -1.4721  0.4485 -0.3139
   19CHL1  H18B 1361   2.146   2.673   7.080 -0.3291  1.9727 -1.4991
   19CHL1  H18C 1362   2.231   2.698   7.229  0.6666 -1.4007 -0.5055
   19CHL1   C12 1363   2.336   2.469   7.103 -0.1221  0.4522 -0.2730
   19CHL1  H12A 1364   2.239   2.439   7.059  0.6307  0.6624 -2.1331
   19CHL1  H12B 1365   2.415   2.400   7.067 -0.4339  0.5808 -1.2124
   19CHL1   C11 1366   2.318   2.447   7.260  0.1692 -0.0454  0.3970
   19CHL1  H11A 1367   2.215   2.485   7.275 -0.8313 -2.3275 -0.3078
   19CHL1  H11B 1368   2.309   2.341   7.292 -2.5101  0.2547  0.8485
   19CHL1    C9 1369   2.425   2.515   7.349  1.0775 -0.2755 -0.2387
   19CHL1    H9 1370   2.515   2.454   7.325  1.7162  0.9082 -0.9365
   19CHL1   C10 1371   2.404   2.493   7.511  1.0066  0.0525  0.4582
   19CHL1   C19 1372   2.257   2.529   7.548  0.4864  0.2355 -0.2128
   19CHL1  H19A 1373   2.184   2.447   7.533 -0.4487  1.2460 -1.4328
   19CHL1  H19B 1374   2.264   2.564   7.653 -0.9575 -0.6713  0.2090
   19CHL1  H19C 1375   2.211   2.614   7.493 -1.6823 -1.7365 -1.6076
   19CHL1    C1 1376   2.422   2.338   7.537  0.3040  0.3812 -0.3379
   19CHL1   H1A 1377   2.351   2.275   7.480  1.2187 -1.2743  0.2845
   19CHL1   H1B 1378   2.524   2.312   7.503  0.9685  0.0305  1.7713
   19CHL1    C2 1379   2.425   2.300   7.682 -0.2591 -0.3989 -0.4538
   19CHL1   H2A 1380   2.459   2.194   7.680 -0.8857 -0.5867 -1.9071
   19CHL1   H2B 1381   2.328   2.315   7.734  0.6786  1.4157  0.9044
   19CHL1   C20 1382   2.290   2.685   6.838  0.7354  0.0502  0.1682
   19CHL1   H20 1383   2.216   2.758   6.877  1.2552  1.5429 -1.5013
   19CHL1   C21 1384   2.211   2.554   6.808 -0.4018  0.2293 -0.2359
   19CHL1  H21A 1385   2.277   2.471   6.775 -3.8103 -2.5952 -0.5315
   19CHL1  H21B 1386   2.145   2.585   6.723  1.8464  2.7062 -1.2191
   19CHL1  H21C 1387   2.153   2.515   6.894  3.5828  0.2533  2.7228
   19CHL1   C22 1388   2.330   2.760   6.703 -0.0935  0.3951  0.1740
   19CHL1  H22A 1389   2.429   2.810   6.709 -0.5386  1.2616  0.5987
   19CHL1  H22B 1390   2.349   2.679   6.630  0.0927  0.9611 -0.4077
   19CHL1   C23 1391   2.229   2.868   6.663  0.1078  0.3449  0.4337
   19CHL1  H23A 1392   2.132   2.814   6.653 -0.5337  1.0461  2.4342
   19CHL1  H23B 1393   2.216   2.925   6.757 -0.2710  0.4915  0.2969
   19CHL1   C24 1394   2.268   2.951   6.537  0.4848 -0.1830 -0.2944
   19CHL1  H24A 1395   2.364   3.008   6.539 -0.7118  2.0948 -2.4058
   19CHL1  H24B 1396   2.281   2.893   6.444  1.8540  1.2884 -1.0608
   19CHL1   C25 1397   2.157   3.050   6.495  0.3010 -0.3497  0.1065
   19CHL1   H25 1398   2.187   3.110   6.407 -0.0693 -0.3981 -0.0535
   19CHL1   C26 1399   2.034   2.983   6.441  0.0155  0.0326  0.2646
   19CHL1  H26A 1400   1.983   2.916   6.513 -1.4479  2.0653  1.2444
   19CHL1  H26B 1401   1.967   3.071   6.427 -0.1811  0.0865  1.4652
   19CHL1  H26C 1402   2.060   2.935   6.344 -2.2430  1.2410 -1.0281
   19CHL1   C27 1403   2.113   3.141   6.609  0.6442 -0.5923  0.1141
   19CHL1  H27A 1404   2.196   3.191   6.663  1.5288 -1.1722 -0.6781
   19CHL1  H27B 1405   2.055   3.218   6.554 -1.0180 -2.2464 -0.5269
   19CHL1  H27C 1406   2.036   3.094   6.674  0.6546 -1.8808 -0.7761
   20CHL1    C3 1407   6.011   4.265   7.814  0.5281  0.5561 -0.7228
   20CHL1    H3 1408   6.017   4.366   7.769 -0.9361  0.2369 -1.6963
   20CHL1    O3 1409   5.995   4.288   7.953  0.0296  0.0068  0.0158
   20CHL1   H3' 1410   6.059   4.236   8.003  0.7099  2.1118  1.4769
   20CHL1    C4 1411   5.882   4.195   7.750 -0.4659 -0.6552  0.6192
   20CHL1   H4A 1412   5.860   4.102   7.807 -0.1922 -0.5505  0.8965
   20CHL1   H4B 1413   5.799   4.264   7.776  0.9664  1.0515  0.8443
   20CHL1    C5 1414   5.892   4.181   7.599  0.4957  0.3916 -0.0532
   20CHL1    C6 1415   5.804   4.232   7.512  0.3230 -1.0961  0.4902
   20CHL1    H6 1416   5.736   4.304   7.561 -0.0587 -0.4491 -0.9150
   20CHL1    C7 1417   5.795   4.199   7.367 -0.0790  0.0418  0.5297
   20CHL1   H7A 1418   5.691   4.174   7.335 -0.4668 -0.3999  2.0452
   20CHL1   H7B 1419   5.833   4.284   7.305  0.4693 -1.8061 -1.8434
   20CHL1    C8 1420   5.891   4.081   7.330 -0.5293 -0.3174  0.5245
   20CHL1    H8 1421   5.840   3.986   7.355 -3.2231 -0.2562 -3.7075
   20CHL1   C14 1422   5.918   4.074   7.176  0.8975 -0.7348 -0.0029
   20CHL1   H14 1423   5.977   4.164   7.149  1.7595 -1.6255 -1.1985
   20CHL1   C15 1424   5.802   4.080   7.078 -0.6245 -0.1115  0.4314
   20CHL1  H15A 1425   5.722   4.010   7.112  1.1457 -1.9505  0.9589
   20CHL1  H15B 1426   5.757   4.181   7.068 -0.9609 -0.3167 -0.2097
   20CHL1   C16 1427   5.865   4.037   6.941 -0.2954 -0.3005  0.5446
   20CHL1  H16A 1428   5.805   3.952   6.901 -0.4370 -0.5886  1.3442
   20CHL1  H16B 1429   5.871   4.107   6.856 -0.5916  0.0160  0.7809
   20CHL1   C17 1430   6.011   3.996   6.976  0.4044 -0.0299 -0.1238
   20CHL1   H17 1431   6.066   4.093   6.966 -0.1321  0.3836  0.8055
   20CHL1   C13 1432   6.005   3.964   7.127  0.1001  0.5468  0.2179
   20CHL1   C18 1433   5.944   3.825   7.148  0.3461  0.5188 -0.3175
   20CHL1  H18A 1434   5.954   3.798   7.255  2.8406  0.6252 -0.4494
   20CHL1  H18B 1435   5.847   3.804   7.099  0.4546  0.7433 -0.6353
   20CHL1  H18C 1436   6.027   3.761   7.111  0.4854  0.8988 -0.6731
   20CHL1   C12 1437   6.143   3.985   7.203 -0.0966  0.1499  0.1201
   20CHL1  H12A 1438   6.217   3.905   7.182 -0.4736  0.2021 -1.6342
   20CHL1  H12B 1439   6.192   4.071   7.152  0.0974 -0.4277 -0.6968
   20CHL1   C11 1440   6.128   3.987   7.354  0.0407 -0.1560 -0.1002
   20CHL1  H11A 1441   6.101   3.884   7.383  1.2701 -0.2901  0.6175
   20CHL1  H11B 1442   6.232   3.999   7.392  0.6205 -2.9494 -0.6365
   20CHL1    C9 1443   6.028   4.095   7.404  0.4426 -0.5279 -0.0797
   20CHL1    H9 1444   6.060   4.195   7.367 -0.9978  0.0289  0.1233
   20CHL1   C10 1445   6.016   4.098   7.562  0.2026 -1.2770 -0.1412
   20CHL1   C19 1446   5.985   3.958   7.614 -0.1312  0.9430 -0.3986
   20CHL1  H19A 1447   5.952   3.954   7.720 -1.1068  0.4803 -0.7121
   20CHL1  H19B 1448   5.912   3.901   7.553 -0.8720  4.3645 -2.9849
   20CHL1  H19C 1449   6.077   3.896   7.614 -2.9028 -3.6468 -0.0034
   20CHL1    C1 1450   6.141   4.159   7.618 -0.0465 -0.3737 -0.0632
   20CHL1   H1A 1451   6.230   4.103   7.583  1.2850  1.2727  0.5299
   20CHL1   H1B 1452   6.157   4.264   7.585 -3.0257  0.3609  0.5011
   20CHL1    C2 1453   6.134   4.180   7.776 -0.5008  0.4330 -1.0192
   20CHL1   H2A 1454   6.215   4.249   7.807 -0.3163  0.4867 -1.6131
   20CHL1   H2B 1455   6.139   4.087   7.837  2.9221  1.4070  0.4407
   20CHL1   C20 1456   6.094   3.899   6.885 -0.6684 -0.9335  0.1611
   20CHL1   H20 1457   6.175   3.843   6.935  0.1899 -0.0420 -0.1866
   20CHL1   C21 1458   6.167   3.990   6.789 -0.4081 -0.6611 -0.0773
   20CHL1  H21A 1459   6.088   4.041   6.729  1.0215  1.0781 -0.5652
   20CHL1  H21B 1460   6.231   3.941   6.713 -0.6353 -0.7440 -0.2174
   20CHL1  H21C 1461   6.229   4.067   6.840  0.1403 -1.0518 -0.1536
   20CHL1   C22 1462   6.007   3.801   6.811 -0.0255  0.4388 -0.8491
   20CHL1  H22A 1463   5.945   3.739   6.879  0.9111  0.1661 -0.2216
   20CHL1  H22B 1464   5.937   3.852   6.742 -1.9738 -1.2394 -0.2152
   20CHL1   C23 1465   6.095   3.708   6.729  0.1194  0.2683  0.1668
   20CHL1  H23A 1466   6.155   3.765   6.655 -0.1425  1.1279  0.6046
   20CHL1  H23B 1467   6.164   3.657   6.800 -0.7919 -1.4224 -0.1134
   20CHL1   C24 1468   6.007   3.609   6.658 -0.5035 -0.6476 -0.0103
   20CHL1  H24A 1469   5.970   3.533   6.730 -1.3057 -1.0447 -0.8133
   20CHL1  H24B 1470   5.919   3.662   6.615 -0.8475  0.4090  1.9158
   20CHL1   C25 1471   6.075   3.536   6.542  0.8605 -0.2061 -0.6464
   20CHL1   H25 1472   6.124   3.619   6.487 -0.3781 -0.0828 -1.5924
   20CHL1   C26 1473   6.179   3.433   6.591  0.1066  0.4580  0.6379
   20CHL1  H26A 1474   6.127   3.360   6.657  0.9608 -3.3840 -2.5604
   20CHL1  H26B 1475   6.216   3.399   6.492  1.4523  1.5132  0.7625
   20CHL1  H26C 1476   6.260   3.489   6.642 -1.0435  1.4989  1.3663
   20CHL1   C27 1477   5.966   3.473   6.459  0.7446 -0.2965  0.8440
   20CHL1  H27A 1478   6.009   3.436   6.363  2.2741  0.5716  1.1619
   20CHL1  H27B 1479   5.920   3.390   6.517 -1.3544  1.2383  1.4996
   20CHL1  H27C 1480   5.884   3.545   6.442  0.6486 -0.5209  0.3422
   21CHL1    C3 1481   5.374   4.226   7.625  0.2663 -0.3739 -0.3058
   21CHL1    H3 1482   5.475   4.179   7.617  0.3948 -0.6091  2.0831
   21CHL1    O3 1483   5.346   4.227   7.761 -0.4986 -0.2076 -0.4432
   21CHL1   H3' 1484   5.252   4.208   7.763 -0.4019 -0.7434 -0.6885
   21CHL1    C4 1485   5.375   4.365   7.567  0.2022 -0.4752 -0.4693
   21CHL1   H4A 1486   5.276   4.414   7.579  0.5229 -0.1585  1.2199
   21CHL1   H4B 1487   5.446   4.424   7.629 -2.2578  1.3195  0.8778
   21CHL1    C5 1488   5.406   4.360   7.421 -0.8900 -0.0650 -0.2390
   21CHL1    C6 1489   5.512   4.432   7.371  0.6011 -0.0890 -0.0813
   21CHL1    H6 1490   5.579   4.498   7.428  0.4890  0.7896 -0.9459
   21CHL1    C7 1491   5.539   4.438   7.224 -0.5146 -0.0191  0.4658
   21CHL1   H7A 1492   5.544   4.545   7.194  0.7762 -0.1646  0.1337
   21CHL1   H7B 1493   5.632   4.384   7.200 -1.4831 -0.5432 -2.5494
   21CHL1    C8 1494   5.430   4.375   7.133 -0.1289 -0.3006  0.0287
   21CHL1    H8 1495   5.343   4.440   7.110  0.8329  0.7678 -0.7928
   21CHL1   C14 1496   5.494   4.344   6.997  0.7071  0.1961 -0.1968
   21CHL1   H14 1497   5.569   4.264   7.016 -0.2929 -0.4145  1.2658
   21CHL1   C15 1498   5.562   4.460   6.914 -0.3960 -0.1867  0.2229
   21CHL1  H15A 1499   5.505   4.554   6.931  1.2357  0.4837  2.4576
   21CHL1  H15B 1500   5.662   4.478   6.958  0.3775 -2.7054 -0.3543
   21CHL1   C16 1501   5.566   4.407   6.772  0.1402  0.7898 -0.3018
   21CHL1  H16A 1502   5.512   4.484   6.713  0.1939  0.4495 -0.8064
   21CHL1  H16B 1503   5.670   4.398   6.736  0.5503  3.3843  0.0978
   21CHL1   C17 1504   5.492   4.269   6.773  0.0826 -0.0189  0.6106
   21CHL1   H17 1505   5.567   4.191   6.801  1.9990  2.2654  2.2342
   21CHL1   C13 1506   5.399   4.280   6.893 -0.4412 -0.0917  0.0620
   21CHL1   C18 1507   5.274   4.361   6.870  0.0555  0.0180 -0.9790
   21CHL1  H18A 1508   5.212   4.313   6.792 -0.3914  1.5171 -1.5736
   21CHL1  H18B 1509   5.201   4.367   6.954  2.1103 -0.9428  0.9921
   21CHL1  H18C 1510   5.300   4.459   6.825  3.1912 -0.9119 -1.4134
   21CHL1   C12 1511   5.361   4.141   6.942  0.9868 -0.4845 -0.8721
   21CHL1  H12A 1512   5.293   4.084   6.875 -0.2031 -1.4140  1.0354
   21CHL1  H12B 1513   5.451   4.079   6.962  0.3393 -1.0904  0.3729
   21CHL1   C11 1514   5.299   4.165   7.089  0.2420 -0.2224  0.5090
   21CHL1  H11A 1515   5.198   4.212   7.084  0.0801 -0.6863 -1.1723
   21CHL1  H11B 1516   5.277   4.069   7.139  1.9112  0.1374  2.0196
   21CHL1    C9 1517   5.384   4.246   7.191  0.0843  0.2379  0.3071
   21CHL1    H9 1518   5.475   4.184   7.205 -0.6567 -1.3418 -1.3888
   21CHL1   C10 1519   5.318   4.263   7.333 -0.6591  0.2971  0.0238
   21CHL1   C19 1520   5.177   4.314   7.320  0.1489  0.5367  0.2767
   21CHL1  H19A 1521   5.111   4.240   7.271  0.0854  2.1092 -2.2121
   21CHL1  H19B 1522   5.135   4.345   7.418 -2.4119 -0.9340 -0.2624
   21CHL1  H19C 1523   5.164   4.400   7.250 -2.4395 -1.9496 -2.6251
   21CHL1    C1 1524   5.310   4.126   7.406  1.0154 -0.3514 -0.4278
   21CHL1   H1A 1525   5.233   4.070   7.350  1.2597  1.1862 -2.4037
   21CHL1   H1B 1526   5.414   4.088   7.395  0.2977 -3.4545  2.0344
   21CHL1    C2 1527   5.274   4.130   7.557  0.4185 -0.3377 -0.2015
   21CHL1   H2A 1528   5.263   4.031   7.607 -0.7761 -0.2777 -0.3076
   21CHL1   H2B 1529   5.175   4.180   7.566 -0.2342 -1.6296  0.0731
   21CHL1   C20 1530   5.434   4.240   6.635 -0.0772  0.2017  0.0316
   21CHL1   H20 1531   5.360   4.320   6.613  0.0713  0.7007  1.2461
   21CHL1   C21 1532   5.368   4.101   6.628 -0.1011  0.4961  0.9530
   21CHL1  H21A 1533   5.362   4.069   6.522 -0.6961  0.7421  0.9124
   21CHL1  H21B 1534   5.270   4.111   6.680  0.4667 -3.3408  3.1825
   21CHL1  H21C 1535   5.431   4.021   6.672 -1.0135 -0.8206 -0.0620
   21CHL1   C22 1536   5.542   4.256   6.521 -0.4050 -0.2402 -0.4177
   21CHL1  H22A 1537   5.490   4.217   6.430  0.0110 -1.0396 -0.3302
   21CHL1  H22B 1538   5.569   4.362   6.502  1.6421 -0.5871  0.2615
   21CHL1   C23 1539   5.672   4.173   6.536 -0.3191  0.1195  0.4003
   21CHL1  H23A 1540   5.720   4.214   6.627 -1.4617 -2.5738  2.3402
   21CHL1  H23B 1541   5.645   4.069   6.563  0.6061 -0.4104 -0.6123
   21CHL1   C24 1542   5.768   4.173   6.422 -0.0172 -0.3405 -0.1763
   21CHL1  H24A 1543   5.726   4.146   6.323 -0.1922  1.2815 -0.5692
   21CHL1  H24B 1544   5.806   4.275   6.403 -1.4700  0.3785  0.6418
   21CHL1   C25 1545   5.890   4.085   6.451 -0.4932 -0.5098  0.5175
   21CHL1   H25 1546   5.921   4.110   6.555 -2.1249  0.4437  0.7898
   21CHL1   C26 1547   5.870   3.930   6.447  0.1979 -0.1701  0.1586
   21CHL1  H26A 1548   5.821   3.899   6.353 -2.2749 -0.2196  1.3780
   21CHL1  H26B 1549   5.971   3.889   6.468 -0.0555 -0.2496  1.2981
   21CHL1  H26C 1550   5.801   3.906   6.530 -0.4729  1.4880  0.1308
   21CHL1   C27 1551   6.004   4.126   6.349  0.0013  0.3559  0.2856
   21CHL1  H27A 1552   6.047   4.224   6.379 -0.6250  2.1442 -3.9559
   21CHL1  H27B 1553   6.085   4.050   6.362  1.2378  1.6189  0.2341
   21CHL1  H27C 1554   5.974   4.139   6.242 -1.2516 -0.3038  0.5398
   22CHL1    C3 1555   1.919   0.976   7.777 -0.3039  0.9166 -0.4463
   22CHL1    H3 1556   1.834   0.956   7.709  0.2562  2.0639 -1.5431
   22CHL1    O3 1557   1.891   0.932   7.912 -0.5808  0.2422  0.6635
   22CHL1   H3' 1558   1.961   0.976   7.962  1.4135 -0.7399 -1.0863
   22CHL1    C4 1559   2.040   0.897   7.735 -0.2730 -0.5041 -0.8390
   22CHL1   H4A 1560   2.120   0.907   7.811 -1.3772  3.0747  0.0596
   22CHL1   H4B 1561   2.018   0.789   7.747  0.3541 -0.3745  2.3671
   22CHL1    C5 1562   2.071   0.947   7.597  0.3003  0.0555 -0.2874
   22CHL1    C6 1563   2.077   0.864   7.492  0.4749 -0.2056 -0.2444
   22CHL1    H6 1564   2.058   0.758   7.516 -2.3102  0.5537  1.4799
   22CHL1    C7 1565   2.117   0.906   7.353  0.6019  0.0156 -0.3705
   22CHL1   H7A 1566   2.180   0.822   7.317 -0.1564 -2.5137  3.6079
   22CHL1   H7B 1567   2.033   0.915   7.281 -0.0527 -1.6159  0.1610
   22CHL1    C8 1568   2.186   1.043   7.357 -0.0357  0.6592  0.7943
   22CHL1    H8 1569   2.288   1.021   7.395  0.6293 -0.2000 -1.3785
   22CHL1   C14 1570   2.197   1.090   7.211  0.2479 -0.0551  1.2532
   22CHL1   H14 1571   2.093   1.098   7.173  1.5161  2.7953 -2.2007
   22CHL1   C15 1572   2.272   0.998   7.108  0.3280 -0.4932  0.2042
   22CHL1  H15A 1573   2.375   0.977   7.146  1.5657  2.3260 -1.2726
   22CHL1  H15B 1574   2.198   0.919   7.084  0.2866 -0.2473 -0.4902
   22CHL1   C16 1575   2.279   1.089   6.985  0.8865 -0.2390  0.7082
   22CHL1  H16A 1576   2.380   1.088   6.939 -0.4526  1.2033 -2.5500
   22CHL1  H16B 1577   2.205   1.053   6.911 -1.8677  1.7853  2.2944
   22CHL1   C17 1578   2.246   1.236   7.028 -0.3102  0.2039 -0.5012
   22CHL1   H17 1579   2.140   1.257   7.001  0.0283  1.1768 -1.1008
   22CHL1   C13 1580   2.256   1.232   7.188 -0.0476 -0.1523  0.2556
   22CHL1   C18 1581   2.400   1.226   7.235 -0.2959  0.1313  0.2935
   22CHL1  H18A 1582   2.432   1.332   7.224  2.0680 -0.6241 -0.7188
   22CHL1  H18B 1583   2.407   1.199   7.343  1.2379 -1.3763 -0.1460
   22CHL1  H18C 1584   2.466   1.159   7.175 -1.5006 -2.0280  1.2519
   22CHL1   C12 1585   2.158   1.326   7.268 -0.2642 -0.2518  0.0836
   22CHL1  H12A 1586   2.176   1.435   7.259 -1.1572 -0.2513 -2.7894
   22CHL1  H12B 1587   2.058   1.313   7.221 -0.9644 -0.1510  1.5105
   22CHL1   C11 1588   2.148   1.290   7.417 -0.8924 -0.1870 -0.1210
   22CHL1  H11A 1589   2.244   1.310   7.469  0.2941 -0.9303 -1.9316
   22CHL1  H11B 1590   2.078   1.361   7.467  1.7634  0.8286  2.4607
   22CHL1    C9 1591   2.099   1.147   7.441 -0.0957 -0.4934  0.6095
   22CHL1    H9 1592   1.995   1.136   7.406 -0.5671 -2.6599  2.4625
   22CHL1   C10 1593   2.097   1.102   7.588  0.1170  0.3006 -0.2113
   22CHL1   C19 1594   2.229   1.122   7.661  0.0820  0.1300  0.8497
   22CHL1  H19A 1595   2.217   1.093   7.768  1.9852  0.7302  1.2686
   22CHL1  H19B 1596   2.312   1.078   7.603 -1.3963 -1.1015 -0.4119
   22CHL1  H19C 1597   2.261   1.228   7.671 -0.1247  0.3038 -0.2418
   22CHL1    C1 1598   1.980   1.178   7.658 -1.2316 -0.2156  0.2588
   22CHL1   H1A 1599   2.010   1.285   7.666  1.5843 -1.0423  2.0716
   22CHL1   H1B 1600   1.887   1.170   7.598 -2.2691 -0.8221  1.8833
   22CHL1    C2 1601   1.941   1.128   7.792 -0.2325  0.5835 -0.5663
   22CHL1   H2A 1602   1.848   1.182   7.822 -3.2061 -2.9541 -2.6197
   22CHL1   H2B 1603   2.017   1.148   7.871 -1.6691  0.6089  0.8713
   22CHL1   C20 1604   2.323   1.341   6.952  0.7662  0.3912 -0.4582
   22CHL1   H20 1605   2.429   1.337   6.985 -0.0731  0.9199  2.6739
   22CHL1   C21 1606   2.268   1.479   6.996  1.7889 -0.5062  0.2930
   22CHL1  H21A 1607   2.322   1.511   7.088  1.4026  1.9618 -0.2775
   22CHL1  H21B 1608   2.160   1.476   7.024  1.7030 -0.1744  0.0031
   22CHL1  H21C 1609   2.284   1.560   6.921  1.9723  1.3626  2.2502
   22CHL1   C22 1610   2.312   1.313   6.794 -0.7428  0.7968 -0.8859
   22CHL1  H22A 1611   2.384   1.391   6.759 -0.2619  1.2369  0.9705
   22CHL1  H22B 1612   2.355   1.211   6.783 -1.4990  0.1267  1.7466
   22CHL1   C23 1613   2.173   1.325   6.729  0.0686 -0.4117 -0.3736
   22CHL1  H23A 1614   2.092   1.272   6.785  0.6422  1.2930  2.2476
   22CHL1  H23B 1615   2.154   1.434   6.726  1.9206 -0.0353  0.1597
   22CHL1   C24 1616   2.157   1.283   6.580  0.2640  0.1413 -0.1205
   22CHL1  H24A 1617   2.244   1.333   6.532  0.2434  0.4855  0.2006
   22CHL1  H24B 1618   2.190   1.177   6.573 -0.3048 -0.0402 -0.1354
   22CHL1   C25 1619   2.017   1.310   6.516 -0.0667  0.4199  0.2453
   22CHL1   H25 1620   1.985   1.415   6.531 -1.2741 -0.3392  4.3119
   22CHL1   C26 1621   2.018   1.284   6.360 -0.1883 -0.4875  0.0600
   22CHL1  H26A 1622   1.924   1.320   6.313  0.0097 -0.9738 -0.7391
   22CHL1  H26B 1623   2.100   1.338   6.308  1.8888 -3.7335 -0.3350
   22CHL1  H26C 1624   2.036   1.175   6.345 -1.0149 -0.6459  0.1305
   22CHL1   C27 1625   1.914   1.218   6.577 -0.0966  0.2586  0.5538
   22CHL1  H27A 1626   1.810   1.246   6.551  0.9148  2.0402 -1.8768
   22CHL1  H27B 1627   1.928   1.112   6.545 -0.0596  0.1612  0.8785
   22CHL1  H27C 1628   1.923   1.224   6.688  2.4949 -1.0890  0.4996
   23CHL1    C3 1629   0.761   1.547   7.355  0.0445  0.9023  0.3885
   23CHL1    H3 1630   0.653   1.522   7.361  0.1203  0.7558  1.2623
   23CHL1    O3 1631   0.784   1.574   7.489 -0.0718 -0.1259 -0.1796
   23CHL1   H3' 1632   0.876   1.553   7.503 -0.0822  0.4383  0.8337
   23CHL1    C4 1633   0.845   1.428   7.303 -0.0987  0.1740  0.1989
   23CHL1   H4A 1634   0.954   1.442   7.318 -0.2373  1.5835 -0.0129
   23CHL1   H4B 1635   0.810   1.335   7.353  2.1397 -0.9442 -0.2112
   23CHL1    C5 1636   0.819   1.403   7.153 -0.3111 -0.0604 -0.1864
   23CHL1    C6 1637   0.779   1.286   7.099  0.5886 -0.1197 -0.2814
   23CHL1    H6 1638   0.776   1.196   7.162  0.4742 -0.4575 -0.7614
   23CHL1    C7 1639   0.762   1.252   6.957  0.0858 -0.1026  0.0002
   23CHL1   H7A 1640   0.810   1.155   6.934 -0.1489  0.2174 -1.9548
   23CHL1   H7B 1641   0.653   1.263   6.940  0.3043  0.7087 -1.0106
   23CHL1    C8 1642   0.830   1.362   6.867 -0.1619  0.2015  0.1702
   23CHL1    H8 1643   0.940   1.346   6.866 -0.1402  0.2691  1.0610
   23CHL1   C14 1644   0.781   1.350   6.716  0.3594  0.4911 -0.4547
   23CHL1   H14 1645   0.674   1.377   6.725  0.1280 -0.5503  0.2020
   23CHL1   C15 1646   0.773   1.214   6.651  0.2390  0.9042 -0.2565
   23CHL1  H15A 1647   0.857   1.151   6.686 -1.9505 -2.5464 -0.7165
   23CHL1  H15B 1648   0.677   1.162   6.672  2.2678 -3.3647 -0.6360
   23CHL1   C16 1649   0.765   1.245   6.500 -0.0298 -0.1152  0.0158
   23CHL1  H16A 1650   0.858   1.206   6.454  0.0979 -0.1939  0.3348
   23CHL1  H16B 1651   0.678   1.210   6.441 -0.0898  2.8443 -1.8325
   23CHL1   C17 1652   0.774   1.398   6.485 -0.0617 -0.5053 -0.0423
   23CHL1   H17 1653   0.667   1.428   6.482 -0.4378 -1.5947  1.1610
   23CHL1   C13 1654   0.848   1.443   6.619 -0.0181 -1.1508 -0.0362
   23CHL1   C18 1655   1.003   1.417   6.607 -0.2492 -0.8060  0.2859
   23CHL1  H18A 1656   1.014   1.310   6.578 -0.0732 -1.0409  1.1785
   23CHL1  H18B 1657   1.052   1.485   6.534  0.0789  0.1771  1.3881
   23CHL1  H18C 1658   1.055   1.423   6.705  1.0033  1.5760 -0.4465
   23CHL1   C12 1659   0.802   1.583   6.664  0.0748  0.1122 -0.0700
   23CHL1  H12A 1660   0.843   1.662   6.599  0.7490 -0.1363  0.0488
   23CHL1  H12B 1661   0.691   1.589   6.656 -0.1096 -1.2384  1.0490
   23CHL1   C11 1662   0.839   1.616   6.806 -0.2699  0.0036 -0.3627
   23CHL1  H11A 1663   0.950   1.624   6.809 -0.3624  1.1496  1.5869
   23CHL1  H11B 1664   0.798   1.713   6.843 -1.1631 -1.4592  2.7750
   23CHL1    C9 1665   0.799   1.509   6.913  0.2124 -0.2042 -0.3519
   23CHL1    H9 1666   0.688   1.511   6.912  0.1049  0.8731  2.6407
   23CHL1   C10 1667   0.844   1.529   7.057 -0.4627  0.0498 -0.2614
   23CHL1   C19 1668   0.991   1.569   7.052  0.7103 -0.1292 -0.2529
   23CHL1  H19A 1669   1.056   1.484   7.023  0.5122 -0.0616 -0.9038
   23CHL1  H19B 1670   1.016   1.656   6.987  1.9915 -1.4597 -1.6278
   23CHL1  H19C 1671   1.032   1.592   7.153  2.1778 -1.8198 -0.4112
   23CHL1    C1 1672   0.753   1.641   7.111  0.1190  0.1105 -0.2187
   23CHL1   H1A 1673   0.767   1.738   7.059 -0.2339  0.4917  0.3910
   23CHL1   H1B 1674   0.647   1.612   7.103  0.0892 -0.0893  0.7383
   23CHL1    C2 1675   0.778   1.671   7.261  0.3861 -0.3284 -0.5974
   23CHL1   H2A 1676   0.688   1.726   7.295  0.7228  0.5841 -1.1504
   23CHL1   H2B 1677   0.877   1.720   7.266  1.8245 -3.1319  2.3835
   23CHL1   C20 1678   0.831   1.441   6.348 -0.5192  0.2407  0.4897
   23CHL1   H20 1679   0.936   1.406   6.343 -0.1116  1.4844 -0.1945
   23CHL1   C21 1680   0.811   1.600   6.328 -0.7855 -0.3494  1.4396
   23CHL1  H21A 1681   0.859   1.637   6.235 -0.2636 -2.2454  0.9157
   23CHL1  H21B 1682   0.856   1.655   6.414  0.5238  1.4443 -0.2859
   23CHL1  H21C 1683   0.701   1.618   6.318 -0.4239  0.6517 -2.7759
   23CHL1   C22 1684   0.761   1.373   6.223 -0.1604 -0.5873  0.1065
   23CHL1  H22A 1685   0.715   1.274   6.246 -1.6379 -0.0865 -0.5544
   23CHL1  H22B 1686   0.673   1.435   6.195  2.2885  2.5319 -1.2334
   23CHL1   C23 1687   0.850   1.352   6.104 -0.3767  0.3357  0.4029
   23CHL1  H23A 1688   0.909   1.439   6.070 -0.3844  0.3820  0.5083
   23CHL1  H23B 1689   0.926   1.274   6.125  0.3676  0.6743 -0.9328
   23CHL1   C24 1690   0.777   1.291   5.981 -0.0799  0.1492 -0.1440
   23CHL1  H24A 1691   0.714   1.209   6.020  0.6638 -1.0759 -1.4397
   23CHL1  H24B 1692   0.715   1.368   5.931 -0.1408 -1.5106 -2.8020
   23CHL1   C25 1693   0.866   1.236   5.865 -0.8047  0.3818 -0.3300
   23CHL1   H25 1694   0.947   1.171   5.905 -0.4075  0.5923 -0.7839
   23CHL1   C26 1695   0.773   1.150   5.775 -0.3425 -0.3902 -0.6613
   23CHL1  H26A 1696   0.728   1.217   5.698  0.8072 -1.0269 -1.9345
   23CHL1  H26B 1697   0.825   1.066   5.726 -3.3845 -2.0643 -1.2864
   23CHL1  H26C 1698   0.698   1.101   5.840 -1.3771  1.8204 -0.0650
   23CHL1   C27 1699   0.919   1.346   5.768  0.7357  0.1324 -0.2522
   23CHL1  H27A 1700   0.971   1.313   5.676  1.8427  0.9676  0.0356
   23CHL1  H27B 1701   0.828   1.403   5.740  0.3483 -0.7171 -0.7420
   23CHL1  H27C 1702   0.970   1.416   5.838 -0.8812  0.5843  0.5260
   24CHL1    C3 1703   3.154   1.662   7.774 -0.0256  0.4411 -0.4702
   24CHL1    H3 1704   3.162   1.749   7.705 -1.5690  0.1883 -1.0034
   24CHL1    O3 1705   3.146   1.696   7.913 -0.4995 -0.3164  0.1349
   24CHL1   H3' 1706   3.057   1.728   7.929  0.7987  4.7265 -0.9636
   24CHL1    C4 1707   3.032   1.591   7.729  0.8132  0.8547  0.4355
   24CHL1   H4A 1708   3.032   1.495   7.786  2.5183  0.8081  0.4340
   24CHL1   H4B 1709   2.949   1.659   7.755  1.1554  0.8842  1.5020
   24CHL1    C5 1710   3.043   1.553   7.578  0.3916  0.1358  0.1625
   24CHL1    C6 1711   2.939   1.580   7.498 -0.3698 -0.9390 -0.7055
   24CHL1    H6 1712   2.848   1.621   7.543 -0.2275 -1.8061  0.4069
   24CHL1    C7 1713   2.933   1.533   7.361  0.9714 -0.4449  0.8792
   24CHL1   H7A 1714   2.832   1.492   7.339  1.6179 -1.6225 -0.0805
   24CHL1   H7B 1715   2.964   1.611   7.288  2.6380 -3.2001 -1.6459
   24CHL1    C8 1716   3.045   1.433   7.332 -0.0740 -0.2633 -0.0227
   24CHL1    H8 1717   3.014   1.332   7.367 -1.6554  0.3086  0.2920
   24CHL1   C14 1718   3.062   1.426   7.185 -0.3072  0.0415 -0.2196
   24CHL1   H14 1719   3.114   1.519   7.154 -0.0045  0.3823  1.2476
   24CHL1   C15 1720   2.937   1.423   7.089  0.0968 -0.1584 -0.1380
   24CHL1  H15A 1721   2.865   1.353   7.136  0.3554  0.7743  1.7127
   24CHL1  H15B 1722   2.899   1.528   7.088 -1.1815 -0.5550  1.7738
   24CHL1   C16 1723   2.996   1.367   6.956 -0.8273 -0.1619 -0.3290
   24CHL1  H16A 1724   2.929   1.285   6.922 -0.2854 -0.8872  0.3096
   24CHL1  H16B 1725   2.983   1.449   6.882 -1.7711  0.9038  0.9739
   24CHL1   C17 1726   3.148   1.331   6.982  0.2998 -0.6228  0.0634
   24CHL1   H17 1727   3.202   1.424   6.955  1.0036 -0.9791  0.2348
   24CHL1   C13 1728   3.161   1.318   7.132  0.7069  0.9211 -0.5857
   24CHL1   C18 1729   3.117   1.173   7.171  0.2191  0.2357  0.7090
   24CHL1  H18A 1730   3.106   1.158   7.280  0.0489 -0.7009  0.5762
   24CHL1  H18B 1731   3.014   1.168   7.129  0.5892 -1.0962 -0.0950
   24CHL1  H18C 1732   3.176   1.089   7.128 -0.8202  0.1907 -0.6844
   24CHL1   C12 1733   3.301   1.357   7.190 -0.3827  0.2912 -0.3888
   24CHL1  H12A 1734   3.370   1.276   7.159 -0.9990 -0.6337  0.5742
   24CHL1  H12B 1735   3.350   1.446   7.145  0.2101 -0.2101 -0.7395
   24CHL1   C11 1736   3.292   1.366   7.343 -0.4561  0.2536 -0.1024
   24CHL1  H11A 1737   3.283   1.268   7.394  1.7191  0.9066  1.7163
   24CHL1  H11B 1738   3.386   1.408   7.386 -0.3824  0.3388 -0.3431
   24CHL1    C9 1739   3.183   1.465   7.393  0.6097 -0.5023  0.4325
   24CHL1    H9 1740   3.217   1.561   7.349 -1.8252 -0.4374 -1.5345
   24CHL1   C10 1741   3.173   1.476   7.542  0.1425  0.0250 -0.3885
   24CHL1   C19 1742   3.139   1.335   7.604  0.4657  0.4954 -0.0795
   24CHL1  H19A 1743   3.214   1.258   7.577 -1.9688 -1.5977 -1.2599
   24CHL1  H19B 1744   3.139   1.330   7.715  1.0107 -0.0292 -0.0989
   24CHL1  H19C 1745   3.039   1.298   7.571  0.4068 -2.5577  2.8885
   24CHL1    C1 1746   3.297   1.546   7.606 -0.1176  0.0646  0.9306
   24CHL1   H1A 1747   3.386   1.481   7.592 -1.6140 -2.1074  1.0678
   24CHL1   H1B 1748   3.312   1.641   7.551 -1.2888 -0.5420 -0.5317
   24CHL1    C2 1749   3.281   1.584   7.754 -0.0037  0.0021  0.7760
   24CHL1   H2A 1750   3.365   1.654   7.775 -0.3382  0.5936  0.2006
   24CHL1   H2B 1751   3.286   1.492   7.816 -2.1562 -3.2070 -3.3009
   24CHL1   C20 1752   3.204   1.220   6.887  0.1479  0.3451 -0.8290
   24CHL1   H20 1753   3.147   1.128   6.910  1.2472 -0.5432 -1.5299
   24CHL1   C21 1754   3.355   1.201   6.909 -0.8903  0.1120  0.0945
   24CHL1  H21A 1755   3.385   1.128   6.831  1.7643  1.2039 -0.0245
   24CHL1  H21B 1756   3.358   1.145   7.005  0.2690  2.4699  1.5309
   24CHL1  H21C 1757   3.415   1.294   6.912 -2.2131  1.0140 -0.5884
   24CHL1   C22 1758   3.173   1.248   6.737  0.3075 -0.3654 -0.5018
   24CHL1  H22A 1759   3.203   1.161   6.675  0.8728 -0.1665 -0.5133
   24CHL1  H22B 1760   3.063   1.258   6.726 -0.3220 -3.0662  2.0249
   24CHL1   C23 1761   3.254   1.362   6.669 -0.4783 -0.1845  0.0813
   24CHL1  H23A 1762   3.243   1.450   6.735  0.6221 -0.3809  0.5436
   24CHL1  H23B 1763   3.363   1.344   6.661 -0.3618  0.6609 -0.2981
   24CHL1   C24 1764   3.204   1.400   6.523  0.5660  0.6555  0.1826
   24CHL1  H24A 1765   3.100   1.439   6.524  0.5165  0.5247  1.3534
   24CHL1  H24B 1766   3.277   1.478   6.492  3.3773 -1.0037  2.0749
   24CHL1   C25 1767   3.212   1.285   6.419 -0.2965 -0.9064 -0.6428
   24CHL1   H25 1768   3.147   1.201   6.452 -1.6204  1.2176  2.6606
   24CHL1   C26 1769   3.146   1.337   6.287  0.3013  0.0961 -0.0538
   24CHL1  H26A 1770   3.205   1.421   6.246  0.8261  1.7106  3.6195
   24CHL1  H26B 1771   3.143   1.255   6.212 -2.9198 -0.4874  0.5623
   24CHL1  H26C 1772   3.043   1.370   6.310 -0.3084  1.1465 -3.7584
   24CHL1   C27 1773   3.351   1.226   6.397  0.3777  1.0232 -0.4439
   24CHL1  H27A 1774   3.334   1.150   6.318  2.7591 -0.7039  0.5904
   24CHL1  H27B 1775   3.423   1.308   6.379  1.8180  0.3122  1.6739
   24CHL1  H27C 1776   3.403   1.172   6.479  1.8353  0.4708 -1.6971
   25CHL1    C3 1777   6.439   4.650   7.730  0.3206  0.5596  0.2792
   25CHL1    H3 1778   6.398   4.747   7.696 -0.4997  0.2694  0.4087
   25CHL1    O3 1779   6.461   4.659   7.868 -0.4735  0.1119  0.0067
   25CHL1   H3' 1780   6.463   4.568   7.897 -0.8208 -0.0767 -0.5373
   25CHL1    C4 1781   6.344   4.530   7.698  0.4840  1.0743  0.4519
   25CHL1   H4A 1782   6.387   4.437   7.742  0.6241  0.5533 -0.7399
   25CHL1   H4B 1783   6.248   4.555   7.748 -1.1170 -2.1420 -0.6949
   25CHL1    C5 1784   6.328   4.515   7.551  0.0398 -0.2467 -0.3000
   25CHL1    C6 1785   6.209   4.518   7.489 -1.2686 -0.5155  0.2717
   25CHL1    H6 1786   6.119   4.520   7.552 -0.7745 -0.6080  0.9892
   25CHL1    C7 1787   6.203   4.514   7.337  0.4578 -0.5425  0.8429
   25CHL1   H7A 1788   6.116   4.449   7.312  2.6077 -2.8595 -1.1493
   25CHL1   H7B 1789   6.195   4.614   7.290 -0.0267 -0.1212  1.8052
   25CHL1    C8 1790   6.328   4.449   7.271  0.1275  0.4117 -0.3301
   25CHL1    H8 1791   6.338   4.347   7.314 -0.1495 -0.2721 -1.8331
   25CHL1   C14 1792   6.322   4.460   7.121 -0.2460 -0.4264 -0.5611
   25CHL1   H14 1793   6.313   4.569   7.102  1.4756  0.2014  1.7453
   25CHL1   C15 1794   6.201   4.400   7.054 -0.7926  0.6062 -0.5440
   25CHL1  H15A 1795   6.183   4.302   7.103  0.9305  0.4674 -0.1113
   25CHL1  H15B 1796   6.109   4.460   7.068 -2.5537 -2.1251  0.5948
   25CHL1   C16 1797   6.243   4.392   6.910 -0.7507 -0.1518 -0.0181
   25CHL1  H16A 1798   6.219   4.292   6.869  0.1444 -0.4455  0.1595
   25CHL1  H16B 1799   6.189   4.468   6.850  2.3661  2.1146 -0.1998
   25CHL1   C17 1800   6.393   4.431   6.896 -1.3249 -0.1310  0.5572
   25CHL1   H17 1801   6.403   4.540   6.876 -0.4713 -0.0491  1.3796
   25CHL1   C13 1802   6.445   4.415   7.042  0.1648  0.7898 -0.6012
   25CHL1   C18 1803   6.460   4.262   7.053  1.0022  0.0699  0.0312
   25CHL1  H18A 1804   6.457   4.239   7.162  0.3571  2.8086  0.6709
   25CHL1  H18B 1805   6.380   4.210   6.998  1.5125  0.6350 -1.2896
   25CHL1  H18C 1806   6.556   4.223   7.014  0.9469  0.0631 -0.0991
   25CHL1   C12 1807   6.560   4.501   7.088  0.0934  0.3986  0.1949
   25CHL1  H12A 1808   6.654   4.465   7.040  0.9798  0.1495  2.0358
   25CHL1  H12B 1809   6.572   4.606   7.055  1.4444  0.3749  0.5463
   25CHL1   C11 1810   6.577   4.489   7.246  0.0573 -0.3627  0.6937
   25CHL1  H11A 1811   6.608   4.385   7.269  0.6363 -0.0588  1.3216
   25CHL1  H11B 1812   6.674   4.535   7.276  0.5392  0.4347 -1.8487
   25CHL1    C9 1813   6.450   4.526   7.320 -0.3430  0.0021 -0.0753
   25CHL1    H9 1814   6.424   4.633   7.305 -0.1588 -0.1387 -1.4491
   25CHL1   C10 1815   6.461   4.510   7.476 -0.0114  0.1304 -0.1322
   25CHL1   C19 1816   6.523   4.372   7.513 -0.6478 -0.1045  0.2785
   25CHL1  H19A 1817   6.452   4.293   7.480 -0.9701  0.7091 -1.0799
   25CHL1  H19B 1818   6.620   4.342   7.469 -1.0051 -0.7020 -0.1174
   25CHL1  H19C 1819   6.543   4.369   7.622  0.9775 -0.8635 -0.0191
   25CHL1    C1 1820   6.559   4.625   7.521  0.6646 -0.2302 -0.3222
   25CHL1   H1A 1821   6.658   4.606   7.474 -1.0043 -2.0736 -3.4531
   25CHL1   H1B 1822   6.528   4.721   7.476 -0.6469 -0.6387 -0.3187
   25CHL1    C2 1823   6.575   4.637   7.669  0.3165 -0.2317 -0.0853
   25CHL1   H2A 1824   6.637   4.727   7.689  1.8699 -1.7301  2.2867
   25CHL1   H2B 1825   6.631   4.549   7.708  0.5901 -0.1080 -0.2015
   25CHL1   C20 1826   6.460   4.364   6.772 -0.2008  0.0214 -0.2780
   25CHL1   H20 1827   6.472   4.258   6.802 -1.8382 -0.8401 -2.3590
   25CHL1   C21 1828   6.595   4.437   6.743 -0.6556  0.5165  0.1812
   25CHL1  H21A 1829   6.575   4.539   6.704  1.9488  0.2849 -2.0126
   25CHL1  H21B 1830   6.656   4.382   6.668 -1.1880 -0.0012  0.1196
   25CHL1  H21C 1831   6.644   4.447   6.842 -0.4822  0.6615  0.0813
   25CHL1   C22 1832   6.364   4.367   6.649 -0.1740 -0.3983  0.5785
   25CHL1  H22A 1833   6.266   4.319   6.668 -0.6024  0.6707  1.1765
   25CHL1  H22B 1834   6.335   4.473   6.633  2.2895  0.3837  0.7980
   25CHL1   C23 1835   6.430   4.307   6.525  0.3724 -0.1378  0.0717
   25CHL1  H23A 1836   6.525   4.355   6.493 -0.0828 -1.1793 -3.2052
   25CHL1  H23B 1837   6.460   4.203   6.552 -1.4935 -0.3141  1.6817
   25CHL1   C24 1838   6.336   4.326   6.405 -0.0932  0.4662  0.6639
   25CHL1  H24A 1839   6.239   4.271   6.410 -0.2912  0.0471 -3.8222
   25CHL1  H24B 1840   6.307   4.431   6.386  0.8031  0.2611 -2.4145
   25CHL1   C25 1841   6.400   4.276   6.273  0.3814 -0.8448  0.4687
   25CHL1   H25 1842   6.488   4.340   6.253 -2.1561  2.0004 -2.7248
   25CHL1   C26 1843   6.430   4.123   6.283 -0.7740 -0.1613  0.3910
   25CHL1  H26A 1844   6.437   4.072   6.185  2.9746 -1.8136  1.3580
   25CHL1  H26B 1845   6.519   4.102   6.346  0.2975  1.1742 -0.6234
   25CHL1  H26C 1846   6.342   4.070   6.325 -0.7662  0.7548  1.6225
   25CHL1   C27 1847   6.305   4.286   6.158  0.6180 -0.0835 -0.1925
   25CHL1  H27A 1848   6.362   4.254   6.068 -1.6995 -1.4872 -1.2347
   25CHL1  H27B 1849   6.221   4.214   6.167  1.1837 -0.8186 -0.6058
   25CHL1  H27C 1850   6.265   4.389   6.147  0.1313 -0.3354 -0.8183
   26CHL1    C3 1851   1.954   2.363   7.965  0.0457 -0.0066  0.1929
   26CHL1    H3 1852   2.060   2.336   7.949  0.2064  1.0313 -0.5592
   26CHL1    O3 1853   1.920   2.324   8.104 -0.0527 -0.1089 -0.3071
   26CHL1   H3' 1854   1.951   2.398   8.157  0.8414 -0.8535  0.2367
   26CHL1    C4 1855   1.929   2.514   7.953 -0.3487  0.1978  1.0591
   26CHL1   H4A 1856   1.832   2.536   8.003  0.4266  0.8488  2.3424
   26CHL1   H4B 1857   2.008   2.576   8.001 -1.0179  0.4956  1.8021
   26CHL1    C5 1858   1.921   2.567   7.810  0.0818  0.0241 -0.1230
   26CHL1    C6 1859   1.976   2.683   7.762 -0.3374 -0.2163 -0.2852
   26CHL1    H6 1860   2.034   2.748   7.828  0.4013 -1.3454  0.1882
   26CHL1    C7 1861   1.967   2.739   7.622 -0.4939  0.4256 -0.0337
   26CHL1   H7A 1862   1.935   2.845   7.631 -3.1320 -0.3795  0.9403
   26CHL1   H7B 1863   2.067   2.731   7.575 -0.3748  0.1166  0.2636
   26CHL1    C8 1864   1.859   2.662   7.535 -0.9754 -0.1081 -0.0364
   26CHL1    H8 1865   1.763   2.709   7.565 -0.5153  1.7385 -1.2722
   26CHL1   C14 1866   1.878   2.693   7.391  0.0219 -0.4518 -0.4014
   26CHL1   H14 1867   1.978   2.652   7.365  0.2169 -0.5148  0.4191
   26CHL1   C15 1868   1.884   2.839   7.339  0.3968  0.4646  0.0989
   26CHL1  H15A 1869   1.810   2.904   7.390 -1.0615  0.2693 -1.6316
   26CHL1  H15B 1870   1.975   2.901   7.354 -0.6596  1.7272  1.5547
   26CHL1   C16 1871   1.837   2.835   7.190 -0.4330  0.0178 -0.5933
   26CHL1  H16A 1872   1.755   2.907   7.169  0.5210  2.6766  3.5498
   26CHL1  H16B 1873   1.927   2.861   7.132 -1.4037 -0.8872 -2.5999
   26CHL1   C17 1874   1.806   2.688   7.163  0.0545 -0.0224  0.8413
   26CHL1   H17 1875   1.898   2.632   7.135  0.6739  0.9471  0.9081
   26CHL1   C13 1876   1.775   2.628   7.304  0.3982  0.1212  0.4167
   26CHL1   C18 1877   1.636   2.683   7.346  0.4202 -0.1659  0.5622
   26CHL1  H18A 1878   1.648   2.792   7.365  0.7025  0.1532 -1.2770
   26CHL1  H18B 1879   1.561   2.683   7.265  0.2054 -0.9816  0.7469
   26CHL1  H18C 1880   1.583   2.630   7.428 -0.0374 -1.6198 -0.6419
   26CHL1   C12 1881   1.785   2.477   7.322  0.5637 -0.3866  0.1519
   26CHL1  H12A 1882   1.697   2.420   7.286  0.0711  1.2498 -1.3335
   26CHL1  H12B 1883   1.883   2.443   7.280 -0.3699  0.3983 -2.8751
   26CHL1   C11 1884   1.777   2.436   7.469 -0.4043  0.4118 -0.3167
   26CHL1  H11A 1885   1.672   2.439   7.505 -0.4376 -1.1176 -0.2233
   26CHL1  H11B 1886   1.805   2.329   7.470  0.5023  0.6398  1.3526
   26CHL1    C9 1887   1.866   2.515   7.563  0.3546 -0.3878 -0.2281
   26CHL1    H9 1888   1.972   2.486   7.542  0.5742 -1.0054  1.5672
   26CHL1   C10 1889   1.848   2.478   7.707  0.0877 -0.5398 -0.2982
   26CHL1   C19 1890   1.697   2.486   7.750 -0.0934  0.4957 -0.7322
   26CHL1  H19A 1891   1.644   2.397   7.711  1.9607 -2.7364  3.0937
   26CHL1  H19B 1892   1.687   2.480   7.861  1.5548  1.7393 -0.4729
   26CHL1  H19C 1893   1.654   2.585   7.723 -0.2591  0.1841 -1.6326
   26CHL1    C1 1894   1.886   2.328   7.721 -0.0479  0.4531  0.2236
   26CHL1   H1A 1895   1.820   2.263   7.660 -0.1648 -0.3538  1.1922
   26CHL1   H1B 1896   1.987   2.312   7.677  0.2526 -0.6928  1.2740
   26CHL1    C2 1897   1.872   2.276   7.868 -0.1832  0.0855  0.7607
   26CHL1   H2A 1898   1.919   2.175   7.865  0.4463  0.3797 -1.7289
   26CHL1   H2B 1899   1.767   2.273   7.904 -0.5122 -0.9928 -0.1862
   26CHL1   C20 1900   1.699   2.663   7.053  0.1178  0.0350 -0.5243
   26CHL1   H20 1901   1.603   2.717   7.069  1.3241  1.7001  1.7131
   26CHL1   C21 1902   1.653   2.514   7.041  0.3777  0.1321 -0.2084
   26CHL1  H21A 1903   1.735   2.441   7.022 -0.4117 -1.2851  1.5480
   26CHL1  H21B 1904   1.594   2.495   6.949 -0.1457  0.3679  0.0739
   26CHL1  H21C 1905   1.591   2.481   7.127 -1.1573 -1.2321 -1.7561
   26CHL1   C22 1906   1.743   2.708   6.911  0.4449  0.0388  0.1061
   26CHL1  H22A 1907   1.822   2.786   6.914  1.7322 -1.1799 -0.6724
   26CHL1  H22B 1908   1.779   2.622   6.851  1.0103  1.4530 -1.6977
   26CHL1   C23 1909   1.627   2.768   6.827  0.2175  0.0252 -0.7585
   26CHL1  H23A 1910   1.551   2.688   6.810  0.4065 -0.2335 -0.4152
   26CHL1  H23B 1911   1.584   2.855   6.880  1.8036  0.1162  0.4456
   26CHL1   C24 1912   1.671   2.822   6.695 -0.3553 -0.6993 -0.1116
   26CHL1  H24A 1913   1.753   2.896   6.708  0.0226 -0.9966 -0.7627
   26CHL1  H24B 1914   1.720   2.737   6.643  2.2464  0.1454  0.7652
   26CHL1   C25 1915   1.559   2.880   6.609 -0.1527 -0.5923 -0.3370
   26CHL1   H25 1916   1.492   2.941   6.674  1.7249 -0.7895  1.9073
   26CHL1   C26 1917   1.614   2.967   6.498  0.1643 -0.0726  0.0534
   26CHL1  H26A 1918   1.695   2.916   6.443 -0.4337  0.7263 -1.6173
   26CHL1  H26B 1919   1.538   3.006   6.427  0.1232  0.6669  0.4945
   26CHL1  H26C 1920   1.662   3.057   6.543 -1.7002  0.3764  1.2701
   26CHL1   C27 1921   1.473   2.765   6.559  0.1336  0.4122  0.4353
   26CHL1  H27A 1922   1.515   2.715   6.469 -1.2634  0.8779 -0.5137
   26CHL1  H27B 1923   1.460   2.677   6.626  0.0709  0.0551 -0.0400
   26CHL1  H27C 1924   1.380   2.812   6.520 -0.6515 -1.4109  0.0247
   27CHL1    C3 1925   3.660   6.492   7.716 -0.5857 -0.0828  0.2414
   27CHL1    H3 1926   3.767   6.478   7.690 -0.7165 -1.3310  0.3545
   27CHL1    O3 1927   3.651   6.435   7.843 -0.1169  0.1416 -0.0436
   27CHL1   H3' 1928   3.560   6.447   7.871 -0.4015  1.3425 -1.3821
   27CHL1    C4 1929   3.618   6.642   7.722 -0.1970  1.1852 -0.6891
   27CHL1   H4A 1930   3.514   6.651   7.760 -0.0505 -2.3136  0.9833
   27CHL1   H4B 1931   3.685   6.684   7.800  0.1176  0.3100 -0.4728
   27CHL1    C5 1932   3.630   6.714   7.585 -0.6089 -0.3148 -0.3001
   27CHL1    C6 1933   3.691   6.834   7.564 -0.0412  0.2220 -0.5047
   27CHL1    H6 1934   3.725   6.899   7.646  0.6375 -0.6633 -0.0660
   27CHL1    C7 1935   3.698   6.901   7.428 -0.1511 -0.5034 -0.1006
   27CHL1   H7A 1936   3.669   7.004   7.457  2.8620  0.3281  0.2760
   27CHL1   H7B 1937   3.799   6.924   7.386  0.0359 -1.4596 -0.2014
   27CHL1    C8 1938   3.615   6.837   7.313 -0.1582  0.7044 -0.1870
   27CHL1    H8 1939   3.510   6.870   7.328 -0.5125 -1.4237  3.0493
   27CHL1   C14 1940   3.677   6.880   7.174 -0.5353  0.2492  0.2718
   27CHL1   H14 1941   3.778   6.835   7.163 -0.0724  0.6389  2.4227
   27CHL1   C15 1942   3.698   7.027   7.130 -0.7372  0.1806 -0.3137
   27CHL1  H15A 1943   3.603   7.080   7.156 -1.1127  0.5518 -2.2532
   27CHL1  H15B 1944   3.783   7.074   7.183  0.5133 -1.3289 -0.9197
   27CHL1   C16 1945   3.717   7.019   6.978  0.3822  0.2351 -0.2333
   27CHL1  H16A 1946   3.637   7.083   6.935 -1.1093 -0.0795  1.8792
   27CHL1  H16B 1947   3.816   7.047   6.935  1.2489  0.0499  1.5336
   27CHL1   C17 1948   3.686   6.877   6.922  0.7682  0.0715 -0.9951
   27CHL1   H17 1949   3.780   6.818   6.919 -1.0553 -3.2505  0.8405
   27CHL1   C13 1950   3.614   6.814   7.048  0.3585 -0.2312 -0.6015
   27CHL1   C18 1951   3.466   6.860   7.047  0.2052  0.4523 -0.2744
   27CHL1  H18A 1952   3.455   6.965   7.011 -0.4232  1.1941  1.9057
   27CHL1  H18B 1953   3.423   6.798   6.965 -1.8929 -0.2367  1.2787
   27CHL1  H18C 1954   3.399   6.850   7.135 -0.0705  1.9093 -0.2901
   27CHL1   C12 1955   3.613   6.662   7.063 -0.1077  0.1717 -0.4594
   27CHL1  H12A 1956   3.552   6.614   6.984  3.3892 -2.7640 -1.6391
   27CHL1  H12B 1957   3.716   6.622   7.045 -0.5335 -1.2081  0.0767
   27CHL1   C11 1958   3.559   6.612   7.197  0.2582 -0.0814 -0.1261
   27CHL1  H11A 1959   3.449   6.627   7.208  0.3099 -0.6452  1.4101
   27CHL1  H11B 1960   3.588   6.506   7.215 -1.7371 -0.3335  2.1498
   27CHL1    C9 1961   3.610   6.686   7.322 -0.0637  0.5127  0.0782
   27CHL1    H9 1962   3.718   6.660   7.318 -0.4027 -0.8200 -2.1061
   27CHL1   C10 1963   3.565   6.633   7.464  0.5544 -0.5844 -0.4401
   27CHL1   C19 1964   3.407   6.658   7.471  0.6246 -0.0757  0.2261
   27CHL1  H19A 1965   3.383   6.767   7.466 -0.0078 -0.2405 -0.5397
   27CHL1  H19B 1966   3.349   6.607   7.391  0.4949  0.1776  0.1573
   27CHL1  H19C 1967   3.380   6.618   7.571 -0.4104  0.7306  0.2882
   27CHL1    C1 1968   3.576   6.480   7.481  0.4379  0.2190  0.2300
   27CHL1   H1A 1969   3.490   6.442   7.423 -2.3114  1.3107  3.2892
   27CHL1   H1B 1970   3.672   6.443   7.440  0.2657  1.6714 -1.6597
   27CHL1    C2 1971   3.561   6.420   7.625  0.1504 -0.5821 -0.7799
   27CHL1   H2A 1972   3.578   6.311   7.615  0.9441 -0.5050 -0.3630
   27CHL1   H2B 1973   3.457   6.437   7.661 -0.3677 -0.9713 -2.0498
   27CHL1   C20 1974   3.622   6.872   6.787  0.0987 -0.0366 -0.2220
   27CHL1   H20 1975   3.522   6.918   6.800  1.8065  3.6106  1.1999
   27CHL1   C21 1976   3.602   6.725   6.734 -0.4852 -0.5995 -0.1191
   27CHL1  H21A 1977   3.532   6.671   6.801  0.3755  0.5807  1.8257
   27CHL1  H21B 1978   3.694   6.664   6.731 -0.6053 -0.7478 -3.0661
   27CHL1  H21C 1979   3.568   6.732   6.629  0.8290  2.3463 -0.4522
   27CHL1   C22 1980   3.701   6.961   6.684  0.2298 -0.0242 -0.3601
   27CHL1  H22A 1981   3.696   7.071   6.702  1.9331  0.0777 -0.2988
   27CHL1  H22B 1982   3.807   6.928   6.684  0.5751  0.8386  2.3516
   27CHL1   C23 1983   3.636   6.964   6.544  0.1204 -0.0451  0.6808
   27CHL1  H23A 1984   3.639   6.866   6.492  0.7877  0.7989 -0.9588
   27CHL1  H23B 1985   3.530   6.995   6.553 -0.5345 -1.7800 -0.6495
   27CHL1   C24 1986   3.719   7.051   6.460  0.1507 -0.2698  0.0832
   27CHL1  H24A 1987   3.715   7.154   6.501 -0.2514 -0.6926  1.1411
   27CHL1  H24B 1988   3.821   7.009   6.471 -0.8348 -2.5211  1.0613
   27CHL1   C25 1989   3.677   7.057   6.308  0.9413 -0.4450 -0.2166
   27CHL1   H25 1990   3.755   7.115   6.255 -1.4391  1.3379 -1.9521
   27CHL1   C26 1991   3.699   6.924   6.242  0.0263  0.1662 -0.3048
   27CHL1  H26A 1992   3.632   6.849   6.289  0.4181 -0.1021 -0.1665
   27CHL1  H26B 1993   3.673   6.934   6.135 -1.7772  1.9849  0.2213
   27CHL1  H26C 1994   3.805   6.896   6.258  0.2017  0.2740 -1.2536
   27CHL1   C27 1995   3.537   7.118   6.282  0.0874  1.0100  0.0240
   27CHL1  H27A 1996   3.492   7.097   6.182  0.1666  1.8308 -0.1872
   27CHL1  H27B 1997   3.468   7.070   6.355  1.6523 -1.1215  0.2323
   27CHL1  H27C 1998   3.524   7.226   6.304 -1.2875  0.9986 -0.6368
   28CHL1    C3 1999   6.768   1.517   7.953 -0.3326 -0.5593  0.8382
   28CHL1    H3 2000   6.658   1.529   7.944 -0.4181  0.2630  2.6106
   28CHL1    O3 2001   6.808   1.532   8.089 -0.0320  0.4836 -0.3723
   28CHL1   H3' 2002   6.901   1.556   8.083  0.0641  0.3478  0.3840
   28CHL1    C4 2003   6.798   1.376   7.907 -0.5773  0.5892  0.1002
   28CHL1   H4A 2004   6.903   1.351   7.930 -1.0935 -1.2858  0.5212
   28CHL1   H4B 2005   6.742   1.308   7.974  1.5785  0.4678  1.9090
   28CHL1    C5 2006   6.753   1.357   7.762 -0.3444  0.0027 -0.2686
   28CHL1    C6 2007   6.661   1.270   7.728 -0.0026 -0.6081 -0.0615
   28CHL1    H6 2008   6.622   1.200   7.804 -2.9596  1.7630  0.8258
   28CHL1    C7 2009   6.615   1.245   7.589 -0.5335  0.2602  0.8219
   28CHL1   H7A 2010   6.619   1.142   7.547  0.1029  1.6235 -2.7853
   28CHL1   H7B 2011   6.507   1.272   7.589 -0.6823 -0.2922  0.0102
   28CHL1    C8 2012   6.693   1.325   7.473  0.1990  0.4399  0.0714
   28CHL1    H8 2013   6.792   1.278   7.455 -0.4706 -1.2970  0.6452
   28CHL1   C14 2014   6.618   1.329   7.339 -0.0398  0.1640 -0.3051
   28CHL1   H14 2015   6.528   1.390   7.360 -1.3950 -1.4818 -1.0469
   28CHL1   C15 2016   6.572   1.198   7.277 -0.1474 -0.5732  0.6486
   28CHL1  H15A 2017   6.654   1.125   7.293  0.4791 -0.3638 -1.2625
   28CHL1  H15B 2018   6.481   1.157   7.325 -0.6712  2.5924  2.6703
   28CHL1   C16 2019   6.568   1.226   7.124 -0.1413 -0.2217 -0.4179
   28CHL1  H16A 2020   6.652   1.168   7.081  0.4538  1.4539 -1.5899
   28CHL1  H16B 2021   6.467   1.200   7.084 -1.1003 -0.3104  1.8976
   28CHL1   C17 2022   6.593   1.381   7.109  0.0684 -0.0500 -0.3648
   28CHL1   H17 2023   6.495   1.431   7.123 -0.2166 -0.6476 -0.1981
   28CHL1   C13 2024   6.687   1.409   7.230 -0.4259  0.0202 -0.6393
   28CHL1   C18 2025   6.829   1.348   7.196  0.3458  0.1045  0.4348
   28CHL1  H18A 2026   6.821   1.247   7.149 -0.1989 -0.4558  1.6840
   28CHL1  H18B 2027   6.886   1.415   7.128  1.1918  1.6324  2.5720
   28CHL1  H18C 2028   6.899   1.351   7.282  2.7833 -2.0967 -1.3006
   28CHL1   C12 2029   6.707   1.554   7.268 -0.0850  0.5005 -0.2600
   28CHL1  H12A 2030   6.777   1.601   7.196 -0.0705 -0.6157 -1.0059
   28CHL1  H12B 2031   6.607   1.602   7.273  0.1173  1.1648 -1.9769
   28CHL1   C11 2032   6.776   1.552   7.409  0.1724  0.3965  0.2736
   28CHL1  H11A 2033   6.884   1.534   7.388  0.1624  1.1076 -0.4500
   28CHL1  H11B 2034   6.779   1.658   7.441  0.2095  0.2613  0.7306
   28CHL1    C9 2035   6.715   1.465   7.525 -0.0127  0.0508  0.1784
   28CHL1    H9 2036   6.616   1.511   7.545 -0.4289 -0.0208 -1.5918
   28CHL1   C10 2037   6.798   1.466   7.664 -0.1961  0.3123 -0.0879
   28CHL1   C19 2038   6.949   1.432   7.629 -0.1981  0.0025  0.1935
   28CHL1  H19A 2039   6.998   1.518   7.578  1.4839 -1.3370 -0.5377
   28CHL1  H19B 2040   7.004   1.421   7.724  1.1516  1.0291 -0.4353
   28CHL1  H19C 2041   6.953   1.342   7.564  1.5431 -0.5228  0.9801
   28CHL1    C1 2042   6.797   1.608   7.716 -0.2204  0.4233  0.2265
   28CHL1   H1A 2043   6.835   1.692   7.653 -0.3243 -0.0207 -0.4451
   28CHL1   H1B 2044   6.690   1.635   7.726 -0.3774  0.5683 -1.5191
   28CHL1    C2 2045   6.846   1.617   7.862 -0.4344  0.2230  0.5421
   28CHL1   H2A 2046   6.832   1.723   7.893 -1.3300  1.0811 -2.5282
   28CHL1   H2B 2047   6.952   1.586   7.876 -0.2294  0.8996  0.5438
   28CHL1   C20 2048   6.646   1.417   6.966  0.5178  0.0993  0.4115
   28CHL1   H20 2049   6.753   1.387   6.968 -0.3081 -3.2478  0.5383
   28CHL1   C21 2050   6.614   1.570   6.953  0.8119 -0.1159  0.7991
   28CHL1  H21A 2051   6.653   1.642   7.028 -0.1518  1.6155 -0.2909
   28CHL1  H21B 2052   6.505   1.583   6.936  0.7778  1.0150  1.7649
   28CHL1  H21C 2053   6.668   1.600   6.860 -0.0742  2.2304  0.9617
   28CHL1   C22 2054   6.578   1.332   6.851  0.3838 -0.2948 -0.4042
   28CHL1  H22A 2055   6.599   1.225   6.870  1.8548 -0.2394 -1.5134
   28CHL1  H22B 2056   6.469   1.352   6.863  0.7569  1.1611  0.9284
   28CHL1   C23 2057   6.618   1.372   6.709  0.8246 -0.1759 -0.1774
   28CHL1  H23A 2058   6.603   1.481   6.692 -0.4972 -0.0823  1.3468
   28CHL1  H23B 2059   6.724   1.341   6.705  0.4244 -1.7633  0.6725
   28CHL1   C24 2060   6.541   1.304   6.594  0.8424 -0.3913 -0.2166
   28CHL1  H24A 2061   6.566   1.197   6.607  0.8977 -0.1976  1.5337
   28CHL1  H24B 2062   6.436   1.321   6.624  1.4528 -0.3075  2.0375
   28CHL1   C25 2063   6.582   1.343   6.453  0.1245 -1.1470 -0.5269
   28CHL1   H25 2064   6.693   1.345   6.441 -0.0098 -0.6051 -1.7953
   28CHL1   C26 2065   6.528   1.232   6.367 -0.0461  0.3208 -0.7076
   28CHL1  H26A 2066   6.565   1.134   6.403 -4.6978 -2.2695 -2.1694
   28CHL1  H26B 2067   6.418   1.224   6.382 -0.1451  0.6069 -1.2482
   28CHL1  H26C 2068   6.556   1.236   6.260 -0.0930 -0.7969 -0.7703
   28CHL1   C27 2069   6.534   1.489   6.417  0.2654  0.3991 -0.9111
   28CHL1  H27A 2070   6.555   1.512   6.310 -2.0038 -0.1351 -1.5337
   28CHL1  H27B 2071   6.425   1.501   6.434  0.9327  1.6526  4.5809
   28CHL1  H27C 2072   6.571   1.573   6.479  0.3565  0.5978 -1.2301
   29CHL1    C3 2073   3.092   1.786   4.226  1.1084 -0.2480  0.0218
   29CHL1    H3 2074   3.138   1.688   4.248  0.2093 -0.8497 -0.6828
   29CHL1    O3 2075   3.078   1.785   4.087 -0.6318 -0.0843  0.3964
   29CHL1   H3' 2076   3.013   1.717   4.065  0.5405 -0.9930 -0.4208
   29CHL1    C4 2077   2.946   1.798   4.289  0.1251  0.8643  0.6659
   29CHL1   H4A 2078   2.907   1.895   4.250 -0.4842  0.1804 -0.5062
   29CHL1   H4B 2079   2.882   1.716   4.250  1.1779  0.3751 -0.0738
   29CHL1    C5 2080   2.950   1.784   4.434 -0.2979 -0.6032 -0.8607
   29CHL1    C6 2081   2.898   1.686   4.509  0.3634 -0.5675  0.2586
   29CHL1    H6 2082   2.854   1.594   4.469  3.1754 -2.3867  1.0891
   29CHL1    C7 2083   2.884   1.700   4.660 -0.1894 -0.6971  0.6221
   29CHL1   H7A 2084   2.777   1.682   4.686 -0.3111 -3.2353 -1.2385
   29CHL1   H7B 2085   2.955   1.630   4.710  0.4330 -0.5700 -0.0706
   29CHL1    C8 2086   2.906   1.846   4.718 -0.2644  0.1412 -0.0449
   29CHL1    H8 2087   2.815   1.902   4.690 -1.3008 -0.9811  0.9660
   29CHL1   C14 2088   2.917   1.842   4.867 -0.4904 -0.1951  0.5582
   29CHL1   H14 2089   2.998   1.772   4.899 -1.3258 -1.1354  0.6557
   29CHL1   C15 2090   2.793   1.801   4.945 -0.0371 -0.4813 -0.4178
   29CHL1  H15A 2091   2.705   1.842   4.891  0.5212 -0.2083 -1.1482
   29CHL1  H15B 2092   2.777   1.693   4.961 -1.7353  0.0657  2.2476
   29CHL1   C16 2093   2.806   1.864   5.087  0.0803  0.8301  0.1754
   29CHL1  H16A 2094   2.720   1.931   5.104 -1.6095 -1.0938 -0.3990
   29CHL1  H16B 2095   2.811   1.781   5.161 -1.9803  0.7962  0.3344
   29CHL1   C17 2096   2.945   1.943   5.080  0.3726  0.5049  0.3314
   29CHL1   H17 2097   3.026   1.873   5.109  0.4001  0.1504 -0.5672
   29CHL1   C13 2098   2.961   1.975   4.934 -0.2360  0.1056 -0.0457
   29CHL1   C18 2099   2.862   2.091   4.897 -0.0411  0.0125  0.1806
   29CHL1  H18A 2100   2.900   2.176   4.957  1.6353  1.0504 -2.1816
   29CHL1  H18B 2101   2.870   2.103   4.787 -0.9406  1.2920  0.2419
   29CHL1  H18C 2102   2.755   2.064   4.914 -0.8601  1.9899 -1.4625
   29CHL1   C12 2103   3.102   2.019   4.885 -0.7348  0.3977 -0.1951
   29CHL1  H12A 2104   3.135   2.122   4.911  2.5744 -0.5845  0.0613
   29CHL1  H12B 2105   3.177   1.943   4.916 -0.3531  0.5399 -0.7489
   29CHL1   C11 2106   3.109   2.006   4.724  0.5331  0.2024 -0.7891
   29CHL1  H11A 2107   3.061   2.104   4.701  1.0700  1.0618  1.4855
   29CHL1  H11B 2108   3.216   2.010   4.693  0.6067 -0.6051 -0.6623
   29CHL1    C9 2109   3.032   1.893   4.648  0.3452 -0.0050  0.1481
   29CHL1    H9 2110   3.089   1.797   4.655 -3.4683 -2.5272 -0.5026
   29CHL1   C10 2111   3.021   1.905   4.494  0.5732 -0.1728  0.5995
   29CHL1   C19 2112   2.948   2.037   4.469  0.3032  0.2055  0.0915
   29CHL1  H19A 2113   2.854   2.042   4.528  1.3044 -0.0326  1.7604
   29CHL1  H19B 2114   3.001   2.123   4.516  0.6965 -0.0249  0.0738
   29CHL1  H19C 2115   2.917   2.051   4.363  0.8367  1.5578  0.0909
   29CHL1    C1 2116   3.171   1.918   4.431 -0.0457  0.9699 -0.7049
   29CHL1   H1A 2117   3.219   2.008   4.474  1.9275  0.9162 -2.6172
   29CHL1   H1B 2118   3.233   1.833   4.467  0.7395  1.2621 -1.3293
   29CHL1    C2 2119   3.173   1.905   4.278 -0.4598  0.1081 -0.6984
   29CHL1   H2A 2120   3.276   1.894   4.237  0.5953  1.1555  1.4993
   29CHL1   H2B 2121   3.127   1.994   4.231  1.2791  1.5813  0.2901
   29CHL1   C20 2122   2.941   2.063   5.176 -0.3369  0.0974  0.4843
   29CHL1   H20 2123   2.867   2.140   5.145  0.0827 -0.9421 -3.6999
   29CHL1   C21 2124   3.077   2.137   5.176 -0.0961  0.6589 -0.4541
   29CHL1  H21A 2125   3.087   2.209   5.092 -1.2781  0.2280 -0.9895
   29CHL1  H21B 2126   3.165   2.071   5.191 -0.3386  0.5151  0.4013
   29CHL1  H21C 2127   3.083   2.200   5.267 -2.3800  0.0579  0.1734
   29CHL1   C22 2128   2.905   2.024   5.321 -0.0602  0.0606  0.1281
   29CHL1  H22A 2129   2.831   1.943   5.336  0.9072 -1.0267 -0.7897
   29CHL1  H22B 2130   3.001   1.985   5.362  0.5436  1.2636 -0.0867
   29CHL1   C23 2131   2.868   2.137   5.420 -0.0180 -0.0729  0.6555
   29CHL1  H23A 2132   2.952   2.209   5.405 -0.3626  0.2277  0.1004
   29CHL1  H23B 2133   2.775   2.181   5.378 -0.2275 -0.4350  0.7385
   29CHL1   C24 2134   2.850   2.082   5.562  0.4699  0.1152  0.2862
   29CHL1  H24A 2135   2.762   2.015   5.550  2.2465 -2.1651 -0.6463
   29CHL1  H24B 2136   2.940   2.024   5.589  1.3283  1.7776  1.1770
   29CHL1   C25 2137   2.830   2.190   5.674  0.5665 -0.7267  0.5892
   29CHL1   H25 2138   2.906   2.269   5.659 -0.3636 -0.1502 -1.3982
   29CHL1   C26 2139   2.694   2.249   5.658 -0.0130  0.2258  0.4199
   29CHL1  H26A 2140   2.677   2.291   5.556 -0.6829 -0.1145  0.3842
   29CHL1  H26B 2141   2.614   2.173   5.670  1.2935 -1.2782 -0.0327
   29CHL1  H26C 2142   2.684   2.333   5.730 -0.3553 -0.7122  1.4939
   29CHL1   C27 2143   2.849   2.120   5.805  0.0447  0.1336 -0.2940
   29CHL1  H27A 2144   2.811   2.191   5.882 -0.1972 -1.6781  1.3144
   29CHL1  H27B 2145   2.789   2.027   5.808 -0.3859  0.4379  0.9822
   29CHL1  H27C 2146   2.951   2.087   5.833  0.6552  0.6041 -1.8329
   30CHL1    C3 2147   3.118   6.818   4.149 -0.5894 -0.2593  0.2256
   30CHL1    H3 2148   3.173   6.722   4.136  0.5343  0.4902 -0.7219
   30CHL1    O3 2149   3.117   6.883   4.022 -0.2394 -0.7040 -0.2482
   30CHL1   H3' 2150   3.043   6.842   3.976 -2.7713  0.7465  2.1886
   30CHL1    C4 2151   2.975   6.811   4.196 -0.2201  0.3357 -0.5722
   30CHL1   H4A 2152   2.928   6.911   4.193  1.0506  0.9389 -0.9439
   30CHL1   H4B 2153   2.921   6.753   4.119  3.8098 -0.6219 -2.9571
   30CHL1    C5 2154   2.948   6.753   4.337 -0.1259 -1.0733  0.7887
   30CHL1    C6 2155   2.868   6.655   4.367  0.1977  0.3336  0.4169
   30CHL1    H6 2156   2.816   6.596   4.291  2.6154 -1.1698 -0.1802
   30CHL1    C7 2157   2.827   6.615   4.509  0.1254 -0.2649  0.4110
   30CHL1   H7A 2158   2.717   6.601   4.522  0.5963 -3.6242  1.5781
   30CHL1   H7B 2159   2.877   6.520   4.535 -1.0723 -1.1855 -0.5447
   30CHL1    C8 2160   2.870   6.724   4.609 -1.3969  0.6677 -0.0504
   30CHL1    H8 2161   2.801   6.811   4.605 -1.7717  0.5514  2.2454
   30CHL1   C14 2162   2.875   6.663   4.748 -0.0992  0.3651 -0.3481
   30CHL1   H14 2163   2.950   6.581   4.750 -1.6226 -1.1125  2.5076
   30CHL1   C15 2164   2.750   6.590   4.799  0.0619 -0.0964 -0.0944
   30CHL1  H15A 2165   2.665   6.650   4.761  0.8765  0.3717 -1.2584
   30CHL1  H15B 2166   2.758   6.488   4.753  0.9720 -0.2471  0.3666
   30CHL1   C16 2167   2.768   6.574   4.950 -0.0474 -0.3122 -0.1575
   30CHL1  H16A 2168   2.680   6.622   4.996  0.6080 -0.6229  1.4799
   30CHL1  H16B 2169   2.778   6.467   4.981  0.1540 -0.1331  0.4071
   30CHL1   C17 2170   2.899   6.657   4.988  0.7493  0.2836  0.8648
   30CHL1   H17 2171   2.979   6.582   4.977 -0.6275 -0.9752 -1.1864
   30CHL1   C13 2172   2.918   6.748   4.863  0.5652 -0.0418 -0.3165
   30CHL1   C18 2173   2.828   6.872   4.878  1.1234  0.3318  0.7885
   30CHL1  H18A 2174   2.721   6.844   4.880  1.0709  0.4126 -0.2786
   30CHL1  H18B 2175   2.839   6.921   4.978 -1.8906  3.9156 -0.4275
   30CHL1  H18C 2176   2.843   6.940   4.792 -0.3805 -0.1444  0.1303
   30CHL1   C12 2177   3.060   6.784   4.836  0.1667  0.3409  0.4237
   30CHL1  H12A 2178   3.082   6.865   4.908  1.2617  0.2318  0.2249
   30CHL1  H12B 2179   3.123   6.692   4.839  0.8012  0.6155 -2.1729
   30CHL1   C11 2180   3.084   6.849   4.698  0.2372  0.0500 -0.3117
   30CHL1  H11A 2181   3.045   6.953   4.709  1.8332  0.6509  0.1337
   30CHL1  H11B 2182   3.193   6.853   4.673 -0.2702  0.1435 -2.6748
   30CHL1    C9 2183   3.016   6.775   4.580  0.1256  0.2745 -0.5856
   30CHL1    H9 2184   3.077   6.682   4.568  1.4626  0.8537  1.2497
   30CHL1   C10 2185   3.013   6.839   4.437  0.0892  0.7585  0.0662
   30CHL1   C19 2186   2.941   6.978   4.447  0.0300  0.4186 -0.6826
   30CHL1  H19A 2187   2.960   7.046   4.361 -1.2922  1.6097 -0.0645
   30CHL1  H19B 2188   2.832   6.957   4.454  0.0700  0.3640 -0.2228
   30CHL1  H19C 2189   2.975   7.026   4.541 -2.2420  0.2274  0.3116
   30CHL1    C1 2190   3.163   6.857   4.395  1.1222 -0.1449 -0.0779
   30CHL1   H1A 2191   3.197   6.937   4.463  1.6953 -1.2328  0.9331
   30CHL1   H1B 2192   3.219   6.762   4.401 -2.1603 -2.2828 -0.3346
   30CHL1    C2 2193   3.184   6.906   4.246 -0.0587  0.4265 -0.4790
   30CHL1   H2A 2194   3.294   6.918   4.238  0.3085 -1.5441  0.9988
   30CHL1   H2B 2195   3.129   7.001   4.229 -2.1030 -0.5406  0.4005
   30CHL1   C20 2196   2.904   6.708   5.134  0.1329  0.0574  0.4152
   30CHL1   H20 2197   2.816   6.773   5.155  0.0730  0.6839 -1.5804
   30CHL1   C21 2198   3.022   6.799   5.174  0.2289  0.0630  0.5280
   30CHL1  H21A 2199   3.031   6.887   5.107  2.5682 -0.1620  0.4819
   30CHL1  H21B 2200   3.121   6.749   5.166 -0.2719 -0.6176 -2.3954
   30CHL1  H21C 2201   3.018   6.833   5.280 -1.7805  1.8143 -0.0491
   30CHL1   C22 2202   2.892   6.590   5.230 -0.1676 -0.0518  0.1399
   30CHL1  H22A 2203   2.803   6.528   5.208  1.5077 -2.5399  0.0599
   30CHL1  H22B 2204   2.976   6.518   5.218  0.0349  0.4065 -1.4110
   30CHL1   C23 2205   2.873   6.638   5.378 -0.0347  0.6607 -0.0478
   30CHL1  H23A 2206   2.974   6.673   5.408  1.6803 -2.8066 -1.1323
   30CHL1  H23B 2207   2.801   6.720   5.399  0.6648  0.7584  2.1998
   30CHL1   C24 2208   2.831   6.528   5.470 -0.4703 -0.2454 -0.2724
   30CHL1  H24A 2209   2.729   6.495   5.441 -1.7878  0.2133  3.3294
   30CHL1  H24B 2210   2.902   6.443   5.460  2.3927  2.0009 -0.1638
   30CHL1   C25 2211   2.812   6.572   5.617 -0.5962 -0.4206 -0.2174
   30CHL1   H25 2212   2.736   6.652   5.607  0.4644  1.2589  3.7136
   30CHL1   C26 2213   2.740   6.464   5.700 -0.4660 -0.3090  0.1634
   30CHL1  H26A 2214   2.634   6.461   5.667  0.4433 -1.3714 -3.1126
   30CHL1  H26B 2215   2.781   6.361   5.696 -0.8719 -0.6094  2.5426
   30CHL1  H26C 2216   2.745   6.486   5.809  0.7146 -0.6119  0.1804
   30CHL1   C27 2217   2.938   6.625   5.682 -0.3782 -0.2737 -0.3258
   30CHL1  H27A 2218   2.925   6.673   5.782 -0.6013  0.9592 -0.9273
   30CHL1  H27B 2219   3.015   6.546   5.689 -0.3690 -0.1954  0.6245
   30CHL1  H27C 2220   2.978   6.706   5.617 -0.1215  0.2821  0.4976
   31CHL1    C3 2221   2.791   6.246   4.385 -0.3746  0.4059 -0.0482
   31CHL1    H3 2222   2.806   6.354   4.408  0.2580  0.5159 -0.9405
   31CHL1    O3 2223   2.818   6.230   4.247 -0.1756 -0.6554 -0.3171
   31CHL1   H3' 2224   2.760   6.296   4.208  2.4527  2.8767  1.2104
   31CHL1    C4 2225   2.890   6.171   4.481  0.4699 -1.0119  0.7843
   31CHL1   H4A 2226   2.876   6.070   4.439  4.1511 -1.1533 -0.4817
   31CHL1   H4B 2227   2.988   6.201   4.435 -0.5545  0.0247 -0.8444
   31CHL1    C5 2228   2.874   6.174   4.627 -0.8638 -0.2669 -0.3831
   31CHL1    C6 2229   2.958   6.223   4.717 -0.0726 -0.7822 -0.3709
   31CHL1    H6 2230   3.050   6.276   4.687  0.1694  1.1628  3.2638
   31CHL1    C7 2231   2.933   6.210   4.867 -0.2285  0.5248  0.3646
   31CHL1   H7A 2232   3.026   6.187   4.923  0.7187  2.4400 -0.3102
   31CHL1   H7B 2233   2.913   6.315   4.898 -0.0371  1.3401 -2.0969
   31CHL1    C8 2234   2.812   6.122   4.906 -0.7511 -0.4236  0.2797
   31CHL1    H8 2235   2.835   6.014   4.899 -1.3828 -0.4580 -1.9030
   31CHL1   C14 2236   2.765   6.152   5.044 -0.0043  0.3715  0.3774
   31CHL1   H14 2237   2.746   6.261   5.050  0.2915  0.4783 -0.4844
   31CHL1   C15 2238   2.870   6.127   5.156 -0.0285 -0.0004 -0.5008
   31CHL1  H15A 2239   2.932   6.037   5.141 -0.4984 -0.3358 -0.4594
   31CHL1  H15B 2240   2.940   6.213   5.160 -1.0058  0.9277 -2.0611
   31CHL1   C16 2241   2.786   6.130   5.280  0.2975 -0.6617 -0.2134
   31CHL1  H16A 2242   2.810   6.040   5.340 -1.1548  0.4873  2.2682
   31CHL1  H16B 2243   2.812   6.212   5.350  1.1260 -1.1112  0.0191
   31CHL1   C17 2244   2.632   6.132   5.241 -0.9882  0.0105  1.4042
   31CHL1   H17 2245   2.601   6.237   5.222  2.3919  0.9579  0.5889
   31CHL1   C13 2246   2.637   6.087   5.093 -1.1509  0.0865  0.3366
   31CHL1   C18 2247   2.646   5.932   5.082  0.2285 -0.2025  0.3686
   31CHL1  H18A 2248   2.544   5.889   5.072 -0.5863  1.7091  0.0378
   31CHL1  H18B 2249   2.706   5.900   4.994 -1.9218  0.6845 -1.5268
   31CHL1  H18C 2250   2.685   5.890   5.177 -0.8048 -2.1023 -0.0041
   31CHL1   C12 2251   2.526   6.147   5.005 -0.1036  0.0381 -0.4131
   31CHL1  H12A 2252   2.425   6.104   5.025  0.5732 -1.3482  0.1208
   31CHL1  H12B 2253   2.515   6.255   5.027 -3.4337 -0.0033 -1.3620
   31CHL1   C11 2254   2.550   6.117   4.854  0.2235  0.4202  0.2120
   31CHL1  H11A 2255   2.531   6.009   4.841 -3.2667  0.6379  2.2428
   31CHL1  H11B 2256   2.477   6.183   4.801 -0.1501 -0.5713 -0.5432
   31CHL1    C9 2257   2.692   6.156   4.812 -0.5659 -0.1756  0.5034
   31CHL1    H9 2258   2.687   6.266   4.829 -1.6304 -0.2422  0.6535
   31CHL1   C10 2259   2.726   6.129   4.663 -0.1361 -0.3474 -0.8539
   31CHL1   C19 2260   2.714   5.974   4.638  0.3907 -0.1645 -0.3032
   31CHL1  H19A 2261   2.608   5.941   4.628  1.0452 -1.7808 -3.7707
   31CHL1  H19B 2262   2.765   5.952   4.541  1.5933  1.5487 -0.0920
   31CHL1  H19C 2263   2.771   5.919   4.716 -0.8598  0.2252  0.9281
   31CHL1    C1 2264   2.631   6.212   4.565 -0.0446  0.3268  0.4760
   31CHL1   H1A 2265   2.526   6.178   4.574  0.2463 -0.8818 -0.4570
   31CHL1   H1B 2266   2.637   6.317   4.601  0.4431  1.4025 -2.4185
   31CHL1    C2 2267   2.656   6.200   4.420 -0.0122 -0.3771  0.0095
   31CHL1   H2A 2268   2.595   6.281   4.374  2.5218  1.8860  0.3813
   31CHL1   H2B 2269   2.623   6.100   4.385  0.6250 -0.8282  0.6636
   31CHL1   C20 2270   2.539   6.062   5.344  0.1678  0.1827  0.7253
   31CHL1   H20 2271   2.594   5.970   5.375  0.6976  0.4442  0.5702
   31CHL1   C21 2272   2.397   6.017   5.282  0.2657 -0.3525  0.2366
   31CHL1  H21A 2273   2.332   5.997   5.371 -2.4661 -0.4481 -1.6616
   31CHL1  H21B 2274   2.414   5.925   5.223 -1.4446 -1.3922  1.2924
   31CHL1  H21C 2275   2.342   6.096   5.227 -1.6583 -1.9621 -0.2728
   31CHL1   C22 2276   2.509   6.151   5.471  0.1465 -0.4062 -0.0295
   31CHL1  H22A 2277   2.593   6.223   5.485  0.6938 -0.6257 -1.9902
   31CHL1  H22B 2278   2.418   6.215   5.468 -0.2416 -0.9013  0.7618
   31CHL1   C23 2279   2.488   6.067   5.600 -0.5263  0.0784 -0.1360
   31CHL1  H23A 2280   2.392   6.013   5.609 -0.6632  0.3202 -0.1607
   31CHL1  H23B 2281   2.573   5.995   5.604 -0.8206 -0.2399  0.6927
   31CHL1   C24 2282   2.498   6.156   5.724  0.6071  0.0166 -0.1667
   31CHL1  H24A 2283   2.601   6.200   5.724  1.2179 -1.3172 -1.6026
   31CHL1  H24B 2284   2.424   6.239   5.718  0.2762 -0.1772  0.9929
   31CHL1   C25 2285   2.482   6.086   5.863 -0.2744 -0.1425  0.1171
   31CHL1   H25 2286   2.396   6.016   5.867  0.5599 -1.2798 -0.7823
   31CHL1   C26 2287   2.609   5.996   5.881  0.0556  0.5079 -0.9982
   31CHL1  H26A 2288   2.613   5.947   5.980 -0.1137  1.3771 -0.5570
   31CHL1  H26B 2289   2.605   5.911   5.808  0.4704 -1.8020  1.5238
   31CHL1  H26C 2290   2.700   6.059   5.879  0.9556 -0.4718  2.4861
   31CHL1   C27 2291   2.462   6.187   5.980  0.4498 -0.1763  0.5503
   31CHL1  H27A 2292   2.459   6.131   6.076  1.4561  0.0500  0.7242
   31CHL1  H27B 2293   2.548   6.256   5.980 -0.7136  1.4054 -1.8798
   31CHL1  H27C 2294   2.367   6.244   5.985  2.0002  2.8063 -1.3833
   32CHL1    C3 2295   2.769   2.462   4.762  0.1698  0.1233  0.4926
   32CHL1    H3 2296   2.769   2.352   4.774 -0.6169  0.2317  1.6132
   32CHL1    O3 2297   2.724   2.487   4.628  0.3641  0.3613  0.2381
   32CHL1   H3' 2298   2.767   2.568   4.599  1.6346  0.3999  2.0725
   32CHL1    C4 2299   2.692   2.531   4.867  0.6805 -1.0048 -0.1012
   32CHL1   H4A 2300   2.676   2.635   4.831 -2.8314 -0.6349  2.1058
   32CHL1   H4B 2301   2.594   2.480   4.879  1.7778 -3.1828 -0.0098
   32CHL1    C5 2302   2.766   2.535   5.002  0.8059 -1.5473 -0.7694
   32CHL1    C6 2303   2.693   2.507   5.109 -0.0744  1.2048 -0.1347
   32CHL1    H6 2304   2.588   2.478   5.095  0.0540  0.8461 -0.3922
   32CHL1    C7 2305   2.742   2.519   5.249 -0.0363 -0.1795 -0.5016
   32CHL1   H7A 2306   2.673   2.578   5.313  0.6125  1.9539 -1.6688
   32CHL1   H7B 2307   2.751   2.415   5.288  0.9748 -0.3086 -1.0437
   32CHL1    C8 2308   2.883   2.589   5.260  0.4021 -0.0022 -0.0338
   32CHL1    H8 2309   2.856   2.696   5.255  1.4448  0.2547 -0.2716
   32CHL1   C14 2310   2.962   2.556   5.394  0.4628 -0.0347 -0.0169
   32CHL1   H14 2311   2.970   2.446   5.397 -1.7647 -0.2645 -0.7998
   32CHL1   C15 2312   2.889   2.585   5.525 -0.3936  0.2659 -0.3452
   32CHL1  H15A 2313   2.842   2.686   5.528 -3.6606 -1.1279 -0.1715
   32CHL1  H15B 2314   2.808   2.509   5.536 -1.4363  1.2759 -0.8300
   32CHL1   C16 2315   2.998   2.576   5.628  0.4791 -0.3915  0.2001
   32CHL1  H16A 2316   3.005   2.669   5.689  2.0016  0.2333 -0.8530
   32CHL1  H16B 2317   2.979   2.488   5.693 -1.8176  1.3352  2.0580
   32CHL1   C17 2318   3.132   2.561   5.553  0.1825 -0.4699 -0.2537
   32CHL1   H17 2319   3.170   2.458   5.539  0.4788 -0.3466 -0.3661
   32CHL1   C13 2320   3.106   2.613   5.408  0.5107 -0.6122  0.1138
   32CHL1   C18 2321   3.092   2.765   5.410  0.0604  0.0823  0.9408
   32CHL1  H18A 2322   3.017   2.790   5.332  0.1719 -2.9170 -0.2568
   32CHL1  H18B 2323   3.052   2.812   5.503 -0.0534  4.5139 -1.1083
   32CHL1  H18C 2324   3.191   2.810   5.390  0.1152 -0.4297 -0.0112
   32CHL1   C12 2325   3.181   2.553   5.297 -0.3039  0.0071  0.2400
   32CHL1  H12A 2326   3.284   2.595   5.299 -0.8768  1.4914  2.1068
   32CHL1  H12B 2327   3.189   2.443   5.307  2.3023  0.0821 -0.2654
   32CHL1   C11 2328   3.124   2.584   5.164  0.4569 -0.4726  0.1757
   32CHL1  H11A 2329   3.143   2.691   5.145 -0.8356 -0.1079  0.8367
   32CHL1  H11B 2330   3.180   2.521   5.091 -0.4499 -0.5520 -0.4706
   32CHL1    C9 2331   2.974   2.543   5.145  0.8140 -0.6387 -0.5261
   32CHL1    H9 2332   2.975   2.432   5.147 -1.8500 -0.7931 -2.2268
   32CHL1   C10 2333   2.914   2.569   5.005  0.8942 -0.6365  0.0752
   32CHL1   C19 2334   2.934   2.722   4.970 -0.2512 -0.7998  0.0585
   32CHL1  H19A 2335   2.866   2.751   4.887 -0.1522 -1.0702 -0.1188
   32CHL1  H19B 2336   2.900   2.784   5.056 -2.2759 -1.0800 -0.4819
   32CHL1  H19C 2337   3.039   2.745   4.944 -0.3694  1.4185  1.3106
   32CHL1    C1 2338   2.981   2.486   4.899 -0.2321 -0.4910  0.0737
   32CHL1   H1A 2339   3.090   2.504   4.894 -0.6381  2.9393  1.0551
   32CHL1   H1B 2340   2.977   2.379   4.928  1.2824 -1.4949 -2.9240
   32CHL1    C2 2341   2.917   2.499   4.760 -0.5651 -0.7746  0.2634
   32CHL1   H2A 2342   2.962   2.432   4.684 -0.9302  1.5771 -2.1813
   32CHL1   H2B 2343   2.935   2.600   4.719  0.3077 -1.0750 -0.1289
   32CHL1   C20 2344   3.249   2.631   5.628 -0.2181  0.1141  0.5777
   32CHL1   H20 2345   3.220   2.737   5.643 -0.1920  0.1722  0.2172
   32CHL1   C21 2346   3.387   2.635   5.556  0.5852  0.4885 -0.2755
   32CHL1  H21A 2347   3.427   2.538   5.519  1.1676  0.9654 -0.9241
   32CHL1  H21B 2348   3.462   2.674   5.628 -0.8902  0.6403  1.2486
   32CHL1  H21C 2349   3.376   2.712   5.477 -0.6126 -1.2608 -1.9233
   32CHL1   C22 2350   3.270   2.557   5.768 -0.0264 -0.4992  0.8894
   32CHL1  H22A 2351   3.174   2.534   5.820  0.1409 -0.2528  1.3160
   32CHL1  H22B 2352   3.319   2.463   5.737 -1.5022 -0.9412 -0.2323
   32CHL1   C23 2353   3.350   2.637   5.871 -0.3638 -0.0430  0.0475
   32CHL1  H23A 2354   3.455   2.658   5.841 -0.9420 -0.0340 -2.1339
   32CHL1  H23B 2355   3.300   2.735   5.889 -2.2220 -1.0281  0.5172
   32CHL1   C24 2356   3.349   2.560   6.007  0.7352 -0.3747 -0.4512
   32CHL1  H24A 2357   3.244   2.551   6.039  1.0955 -0.3371  0.7771
   32CHL1  H24B 2358   3.372   2.452   5.989  1.6350 -0.3811  0.5961
   32CHL1   C25 2359   3.435   2.619   6.115  0.0754 -0.8147 -0.4445
   32CHL1   H25 2360   3.541   2.620   6.084  0.3981  2.3313  0.3481
   32CHL1   C26 2361   3.419   2.774   6.146  0.4941 -0.1602 -0.4147
   32CHL1  H26A 2362   3.312   2.803   6.156  0.9382  2.0548 -1.5253
   32CHL1  H26B 2363   3.473   2.802   6.238  0.4685 -0.7571 -0.2134
   32CHL1  H26C 2364   3.450   2.839   6.061  0.7561  1.4664  0.8831
   32CHL1   C27 2365   3.425   2.527   6.239  0.0468 -0.2613 -0.2884
   32CHL1  H27A 2366   3.478   2.590   6.314  3.0455 -0.5696 -1.9740
   32CHL1  H27B 2367   3.319   2.511   6.266 -0.3083  1.7809 -0.3125
   32CHL1  H27C 2368   3.489   2.436   6.239  1.4958  0.6589 -3.0134
   33CHL1    C3 2369   0.272   5.191   4.139  0.1762  0.2893 -0.1020
   33CHL1    H3 2370   0.225   5.094   4.167  0.5911  0.1569  0.1342
   33CHL1    O3 2371   0.262   5.211   4.002  0.0658  0.4635 -0.7367
   33CHL1   H3' 2372   0.241   5.304   3.990  2.8344  1.4619  1.1296
   33CHL1    C4 2373   0.218   5.315   4.207  0.0286 -0.4481 -0.1379
   33CHL1   H4A 2374   0.283   5.398   4.174  1.3581 -0.4882  2.1749
   33CHL1   H4B 2375   0.112   5.330   4.178  0.2459 -0.0376 -0.7274
   33CHL1    C5 2376   0.237   5.314   4.356  0.4072  0.4683 -0.8632
   33CHL1    C6 2377   0.130   5.329   4.442  0.3760  0.0738  0.2054
   33CHL1    H6 2378   0.032   5.360   4.403  0.8838  0.8722 -0.4757
   33CHL1    C7 2379   0.133   5.324   4.591  0.2515 -0.3279 -1.2115
   33CHL1   H7A 2380   0.078   5.415   4.622  2.8976  1.4860 -1.5345
   33CHL1   H7B 2381   0.071   5.235   4.617  2.3668 -1.1035  1.7149
   33CHL1    C8 2382   0.269   5.329   4.650 -0.1732  0.3920  0.0509
   33CHL1    H8 2383   0.312   5.431   4.654  0.7622 -0.0311  1.8815
   33CHL1   C14 2384   0.276   5.274   4.786  0.3391 -0.4628 -0.7249
   33CHL1   H14 2385   0.231   5.172   4.790 -2.5556  0.7545  1.6657
   33CHL1   C15 2386   0.178   5.334   4.892 -0.3065  0.1250 -0.4424
   33CHL1  H15A 2387   0.156   5.441   4.869 -1.3883 -0.3089 -1.5356
   33CHL1  H15B 2388   0.077   5.289   4.879 -1.2257  1.1780  2.3778
   33CHL1   C16 2389   0.232   5.294   5.029 -0.5088  0.1815 -0.2569
   33CHL1  H16A 2390   0.250   5.382   5.095  0.6069  0.4022 -0.8335
   33CHL1  H16B 2391   0.158   5.238   5.091  0.0728  0.5701  0.8224
   33CHL1   C17 2392   0.369   5.223   4.994  0.8685  0.3153  0.2454
   33CHL1   H17 2393   0.338   5.118   4.975 -0.9440  1.2585 -2.5354
   33CHL1   C13 2394   0.413   5.275   4.853  0.3385  0.7054 -0.5403
   33CHL1   C18 2395   0.472   5.417   4.869 -0.1966 -0.0733 -0.1378
   33CHL1  H18A 2396   0.577   5.417   4.903 -0.0017  0.1673 -0.7465
   33CHL1  H18B 2397   0.481   5.450   4.763 -1.4236  0.9344  0.0373
   33CHL1  H18C 2398   0.412   5.487   4.932 -2.0211 -1.3807 -0.3249
   33CHL1   C12 2399   0.503   5.172   4.776  0.0189 -0.3780  0.3724
   33CHL1  H12A 2400   0.604   5.182   4.822 -0.7654  0.2796  2.0121
   33CHL1  H12B 2401   0.455   5.073   4.793  0.5385 -0.8262 -0.6242
   33CHL1   C11 2402   0.502   5.215   4.631  0.6167  0.1785  0.0579
   33CHL1  H11A 2403   0.564   5.306   4.620  0.6088  0.1718 -0.0397
   33CHL1  H11B 2404   0.550   5.136   4.568  2.6789  0.4472  1.1766
   33CHL1    C9 2405   0.366   5.235   4.559 -0.7782  1.1259 -1.2028
   33CHL1    H9 2406   0.315   5.137   4.552  1.2457  0.0667 -1.9300
   33CHL1   C10 2407   0.375   5.281   4.408 -0.1926 -0.2470  0.0907
   33CHL1   C19 2408   0.452   5.418   4.399  0.3666 -0.3079 -0.3589
   33CHL1  H19A 2409   0.401   5.502   4.452  1.8750 -0.4751  1.4697
   33CHL1  H19B 2410   0.551   5.417   4.450 -1.0742 -0.2891  2.6023
   33CHL1  H19C 2411   0.474   5.443   4.292 -0.7467 -1.1143 -0.7871
   33CHL1    C1 2412   0.442   5.167   4.320  0.0571  0.0767 -0.2295
   33CHL1   H1A 2413   0.553   5.168   4.326  0.1219 -0.1166 -1.2863
   33CHL1   H1B 2414   0.411   5.065   4.353  0.6133  0.0487  0.2358
   33CHL1    C2 2415   0.416   5.183   4.170 -0.9079  0.4212  0.2822
   33CHL1   H2A 2416   0.466   5.107   4.107 -1.7937  1.2427 -1.4631
   33CHL1   H2B 2417   0.450   5.286   4.145 -1.1859  0.8111  1.4410
   33CHL1   C20 2418   0.466   5.235   5.112  0.1221  0.1714  0.5867
   33CHL1   H20 2419   0.472   5.344   5.132  0.3947  0.4720 -0.9798
   33CHL1   C21 2420   0.610   5.178   5.079  0.6080 -0.5094 -0.1422
   33CHL1  H21A 2421   0.676   5.160   5.167  0.9629 -0.1748 -0.3369
   33CHL1  H21B 2422   0.663   5.250   5.012 -1.8126 -0.6133 -2.3389
   33CHL1  H21C 2423   0.612   5.081   5.024 -0.3045  0.6058 -2.2726
   33CHL1   C22 2424   0.413   5.152   5.233  0.0378  0.3316  0.1522
   33CHL1  H22A 2425   0.302   5.161   5.229  0.0300  0.6037  0.8058
   33CHL1  H22B 2426   0.445   5.048   5.214 -1.1378  0.1404 -0.9309
   33CHL1   C23 2427   0.465   5.197   5.371 -0.5751  0.0253 -0.1012
   33CHL1  H23A 2428   0.576   5.201   5.370 -0.3042 -3.7754  0.5524
   33CHL1  H23B 2429   0.428   5.298   5.399 -0.1716  0.0972  0.1734
   33CHL1   C24 2430   0.419   5.107   5.485  0.2474 -0.1593 -0.6952
   33CHL1  H24A 2431   0.311   5.111   5.509  0.7021 -1.4714  2.0115
   33CHL1  H24B 2432   0.432   5.006   5.442  1.9083 -0.6980  0.9181
   33CHL1   C25 2433   0.495   5.119   5.624 -0.1222 -0.9324  0.4671
   33CHL1   H25 2434   0.443   5.052   5.695 -0.6290 -0.2167  0.7865
   33CHL1   C26 2435   0.646   5.077   5.609  0.4435  0.0578 -0.6604
   33CHL1  H26A 2436   0.697   5.062   5.706 -0.5937 -1.5662 -0.3180
   33CHL1  H26B 2437   0.655   4.974   5.570  4.5725 -0.2651  0.6934
   33CHL1  H26C 2438   0.698   5.143   5.536 -2.5640  0.7932 -2.3342
   33CHL1   C27 2439   0.475   5.262   5.679  0.2354  0.0120  0.3465
   33CHL1  H27A 2440   0.520   5.273   5.780  0.9660 -1.4553  0.2089
   33CHL1  H27B 2441   0.534   5.332   5.616 -1.9859 -0.1276 -2.0516
   33CHL1  H27C 2442   0.367   5.285   5.679 -0.0035 -1.0332 -0.1977
   34CHL1    C3 2443   3.707   0.130   4.378  0.2312 -0.1284 -0.3577
   34CHL1    H3 2444   3.750   0.028   4.369 -0.9757 -0.6289 -0.6319
   34CHL1    O3 2445   3.712   0.194   4.252 -1.0041 -0.5661 -0.3429
   34CHL1   H3' 2446   3.696   0.288   4.265  0.3839 -0.3539 -0.0399
   34CHL1    C4 2447   3.559   0.107   4.422  0.4669 -0.0774 -0.1270
   34CHL1   H4A 2448   3.516   0.210   4.424  0.0498 -0.2515  1.0725
   34CHL1   H4B 2449   3.499   0.060   4.341  0.5489  0.8558 -0.7542
   34CHL1    C5 2450   3.554   0.045   4.563  0.1046 -0.3669  0.6757
   34CHL1    C6 2451   3.494  -0.069   4.582  0.1871  0.6203 -0.5836
   34CHL1    H6 2452   3.446  -0.122   4.498 -0.1925  0.9244 -0.5620
   34CHL1    C7 2453   3.479  -0.129   4.719  0.0874  0.5450 -0.8275
   34CHL1   H7A 2454   3.376  -0.169   4.736  0.5223 -0.7350 -1.1213
   34CHL1   H7B 2455   3.551  -0.212   4.735 -0.0218  0.3378 -1.3635
   34CHL1    C8 2456   3.510  -0.027   4.839 -1.2909 -0.9016  0.9937
   34CHL1    H8 2457   3.430   0.051   4.836 -0.4938 -0.0993 -0.0140
   34CHL1   C14 2458   3.526  -0.092   4.982  0.5097 -0.5391  0.3597
   34CHL1   H14 2459   3.602  -0.170   4.959  0.1678 -0.6897 -0.2900
   34CHL1   C15 2460   3.407  -0.177   5.047  0.1288 -0.4594 -0.4568
   34CHL1  H15A 2461   3.318  -0.112   5.031  0.9815  1.1758  1.1484
   34CHL1  H15B 2462   3.388  -0.275   4.998  2.5769 -0.6139 -1.2083
   34CHL1   C16 2463   3.445  -0.195   5.196 -1.0454  0.2219 -0.1168
   34CHL1  H16A 2464   3.364  -0.164   5.265 -0.0792  0.9155  0.7337
   34CHL1  H16B 2465   3.459  -0.303   5.216  0.6770  0.5513  0.6918
   34CHL1   C17 2466   3.576  -0.101   5.209 -0.6200 -0.5736  0.1297
   34CHL1   H17 2467   3.660  -0.172   5.195  0.5397  0.6794  0.5084
   34CHL1   C13 2468   3.579  -0.002   5.089 -0.4469  0.4628 -0.5422
   34CHL1   C18 2469   3.469   0.109   5.108 -0.2911  0.2292  0.0966
   34CHL1  H18A 2470   3.474   0.192   5.034 -1.1005 -1.1545 -1.5889
   34CHL1  H18B 2471   3.365   0.070   5.102  0.6238 -2.1176 -1.6804
   34CHL1  H18C 2472   3.460   0.152   5.211 -0.0931 -0.7081  0.5104
   34CHL1   C12 2473   3.708   0.067   5.055 -0.0035  0.2440  0.4160
   34CHL1  H12A 2474   3.728   0.143   5.133 -0.0451  1.2547 -0.5385
   34CHL1  H12B 2475   3.787  -0.011   5.058  1.4788  1.6221 -1.0351
   34CHL1   C11 2476   3.695   0.142   4.921  0.4643  0.4380 -0.6123
   34CHL1  H11A 2477   3.631   0.233   4.925 -2.6310 -1.6343  1.0606
   34CHL1  H11B 2478   3.795   0.171   4.881 -0.1268  0.6151 -2.0301
   34CHL1    C9 2479   3.642   0.048   4.803  0.4618  0.5191 -0.6334
   34CHL1    H9 2480   3.710  -0.039   4.799 -3.0053 -2.3875 -2.3178
   34CHL1   C10 2481   3.634   0.116   4.665 -0.0784 -0.3059  0.0905
   34CHL1   C19 2482   3.564   0.260   4.675 -0.2350  0.7309 -0.0790
   34CHL1  H19A 2483   3.531   0.309   4.581 -0.9489  2.6451  1.1037
   34CHL1  H19B 2484   3.472   0.250   4.738  0.9339 -1.9224  1.3626
   34CHL1  H19C 2485   3.634   0.320   4.736 -0.4832  0.6717  0.2686
   34CHL1    C1 2486   3.782   0.136   4.611 -0.3858 -0.1721  0.4874
   34CHL1   H1A 2487   3.847   0.201   4.674  0.8409 -0.3069 -0.5922
   34CHL1   H1B 2488   3.823   0.033   4.608 -2.1266 -0.9047  0.5308
   34CHL1    C2 2489   3.791   0.210   4.476 -0.3853  0.0618 -0.3043
   34CHL1   H2A 2490   3.894   0.228   4.438  0.0488  0.1099  0.8656
   34CHL1   H2B 2491   3.747   0.310   4.492 -1.0045 -0.3442  0.6164
   34CHL1   C20 2492   3.592  -0.040   5.348  0.1923 -0.3920 -0.4072
   34CHL1   H20 2493   3.631   0.062   5.334 -1.3008  0.3898  0.7669
   34CHL1   C21 2494   3.694  -0.120   5.426  0.2546  0.1479  0.6018
   34CHL1  H21A 2495   3.718  -0.066   5.520 -2.7524  1.6142  0.6461
   34CHL1  H21B 2496   3.789  -0.128   5.369  1.1436 -1.1142  2.1625
   34CHL1  H21C 2497   3.666  -0.224   5.454  0.1721  0.0090  0.0105
   34CHL1   C22 2498   3.460  -0.012   5.427  0.2574 -0.3473  0.5085
   34CHL1  H22A 2499   3.372   0.016   5.365  1.1705  3.0562  0.5516
   34CHL1  H22B 2500   3.416  -0.108   5.463 -0.6607  0.0775  0.5480
   34CHL1   C23 2501   3.469   0.083   5.543 -0.0704  0.3115  0.4070
   34CHL1  H23A 2502   3.550   0.046   5.609 -0.0292  0.6475  0.5422
   34CHL1  H23B 2503   3.503   0.180   5.502  2.4551 -0.8899 -0.5886
   34CHL1   C24 2504   3.341   0.086   5.626 -0.1607 -0.5039  0.0646
   34CHL1  H24A 2505   3.271   0.144   5.562  0.4220  0.3203  0.1479
   34CHL1  H24B 2506   3.307  -0.019   5.636  1.2589 -1.0157 -0.2289
   34CHL1   C25 2507   3.361   0.139   5.764  0.5554  0.6380 -0.5371
   34CHL1   H25 2508   3.465   0.118   5.798  1.0596  0.2067 -2.2068
   34CHL1   C26 2509   3.347   0.286   5.759 -0.0474 -0.7365 -0.0155
   34CHL1  H26A 2510   3.260   0.321   5.699  0.4668  0.0339 -0.3212
   34CHL1  H26B 2511   3.345   0.321   5.864  1.2120 -1.8450  0.4043
   34CHL1  H26C 2512   3.436   0.332   5.712  0.3808 -1.1886  0.3427
   34CHL1   C27 2513   3.251   0.080   5.857 -0.2500  0.5455  0.1019
   34CHL1  H27A 2514   3.260  -0.030   5.872 -0.9124  0.4759  0.0246
   34CHL1  H27B 2515   3.270   0.123   5.958  0.2601  0.8764 -0.1285
   34CHL1  H27C 2516   3.150   0.094   5.815 -1.3048 -1.4095  1.7821
   35CHL1    C3 2517   5.271   5.212   4.365  0.6247  0.0270  0.0757
   35CHL1    H3 2518   5.254   5.314   4.325 -0.9672  0.3472  1.4318
   35CHL1    O3 2519   5.267   5.113   4.251  0.6665  0.3200 -0.4995
   35CHL1   H3' 2520   5.267   5.169   4.172 -0.4076  2.4587  0.9029
   35CHL1    C4 2521   5.410   5.215   4.434 -0.7611  0.0721 -0.3309
   35CHL1   H4A 2522   5.441   5.109   4.451 -1.0763  0.1672  0.9116
   35CHL1   H4B 2523   5.490   5.244   4.363 -0.6788 -0.1159 -0.3171
   35CHL1    C5 2524   5.423   5.309   4.551  0.1247  0.9382 -0.2676
   35CHL1    C6 2525   5.520   5.403   4.559  0.3507 -0.6480 -0.6851
   35CHL1    H6 2526   5.602   5.409   4.485  0.1760  0.6228 -0.7850
   35CHL1    C7 2527   5.535   5.491   4.679 -0.7458 -0.1124 -0.3746
   35CHL1   H7A 2528   5.641   5.496   4.711 -0.6852  0.9916 -0.7241
   35CHL1   H7B 2529   5.498   5.593   4.656  0.5400  0.8078  1.4031
   35CHL1    C8 2530   5.460   5.434   4.801  0.3479 -0.3886  0.2403
   35CHL1    H8 2531   5.525   5.350   4.833  0.3884 -0.9325 -1.1672
   35CHL1   C14 2532   5.460   5.535   4.913 -0.4590 -0.4097 -0.2688
   35CHL1   H14 2533   5.402   5.618   4.867 -2.7378 -1.7257  0.0461
   35CHL1   C15 2534   5.597   5.590   4.960 -0.6119 -0.3456  0.4796
   35CHL1  H15A 2535   5.676   5.514   4.974  0.4322  0.9527  1.8856
   35CHL1  H15B 2536   5.629   5.671   4.890  2.1023 -2.1884 -0.5672
   35CHL1   C16 2537   5.573   5.654   5.094 -0.2852  0.1890  0.5028
   35CHL1  H16A 2538   5.657   5.617   5.157 -0.5127 -2.9315 -0.8401
   35CHL1  H16B 2539   5.592   5.763   5.101  0.7222 -0.0528  2.3017
   35CHL1   C17 2540   5.427   5.616   5.131 -0.3097  0.4289  0.2030
   35CHL1   H17 2541   5.355   5.696   5.106 -1.1607 -0.8121 -1.5178
   35CHL1   C13 2542   5.393   5.501   5.039  0.2987  0.1685 -0.5247
   35CHL1   C18 2543   5.459   5.367   5.101  0.3732  0.3425  0.5404
   35CHL1  H18A 2544   5.383   5.321   5.167 -0.9603  0.1033 -1.0803
   35CHL1  H18B 2545   5.471   5.283   5.029 -0.5158 -2.0514  3.0156
   35CHL1  H18C 2546   5.553   5.392   5.154  0.4076  1.6162 -0.0720
   35CHL1   C12 2547   5.239   5.478   5.000  0.0403 -0.4483  0.6298
   35CHL1  H12A 2548   5.169   5.444   5.079 -0.7682 -0.9679 -0.2717
   35CHL1  H12B 2549   5.209   5.580   4.968 -2.0976 -0.6713  1.7216
   35CHL1   C11 2550   5.228   5.364   4.893 -0.7291  0.4999  0.4610
   35CHL1  H11A 2551   5.252   5.266   4.940  0.9297  0.8380  0.3719
   35CHL1  H11B 2552   5.127   5.362   4.846 -1.2656 -0.1547  1.5755
   35CHL1    C9 2553   5.315   5.398   4.773  0.0338 -0.2913  0.0456
   35CHL1    H9 2554   5.266   5.489   4.731 -2.2783 -2.2135 -1.7672
   35CHL1   C10 2555   5.310   5.286   4.657  0.0344 -0.1463  0.2582
   35CHL1   C19 2556   5.342   5.147   4.728  0.4997 -0.4934  0.1628
   35CHL1  H19A 2557   5.271   5.126   4.811 -0.0013  2.0887  0.4693
   35CHL1  H19B 2558   5.346   5.060   4.659  1.8089 -0.3199 -0.0054
   35CHL1  H19C 2559   5.435   5.142   4.788  0.2539 -0.0487  0.5877
   35CHL1    C1 2560   5.169   5.280   4.590 -0.0035 -0.3663  0.0295
   35CHL1   H1A 2561   5.090   5.261   4.665 -0.6839 -0.2439 -0.6443
   35CHL1   H1B 2562   5.146   5.383   4.556 -0.7255 -0.1277  1.1948
   35CHL1    C2 2563   5.163   5.184   4.466  0.2780 -0.7120 -0.3067
   35CHL1   H2A 2564   5.062   5.182   4.419  0.4164 -1.6686 -0.5833
   35CHL1   H2B 2565   5.182   5.078   4.494  0.5029 -0.9510 -1.3019
   35CHL1   C20 2566   5.413   5.591   5.286  0.7680 -0.4288 -0.1788
   35CHL1   H20 2567   5.475   5.505   5.319 -2.5002 -2.7845  0.3057
   35CHL1   C21 2568   5.267   5.544   5.318 -0.1699 -0.0378 -0.5313
   35CHL1  H21A 2569   5.253   5.536   5.428  1.6179  2.4227 -0.0653
   35CHL1  H21B 2570   5.243   5.449   5.266  1.7733  0.4626 -2.5158
   35CHL1  H21C 2571   5.197   5.624   5.284 -1.6424 -0.8885  0.3645
   35CHL1   C22 2572   5.460   5.705   5.377 -0.5264 -0.3510  0.1434
   35CHL1  H22A 2573   5.556   5.748   5.339 -1.5936  0.6029 -1.6092
   35CHL1  H22B 2574   5.393   5.793   5.366  2.4598  1.9169 -1.4761
   35CHL1   C23 2575   5.479   5.656   5.518  0.1675 -0.1501 -0.1858
   35CHL1  H23A 2576   5.383   5.621   5.563 -0.4001 -0.1222 -1.3292
   35CHL1  H23B 2577   5.541   5.564   5.515  0.6735  0.1685  0.4139
   35CHL1   C24 2578   5.547   5.761   5.609  0.0852  0.3492  0.2371
   35CHL1  H24A 2579   5.603   5.711   5.690  1.9799 -1.8707 -2.2782
   35CHL1  H24B 2580   5.630   5.814   5.558  0.3868  1.4646  1.8354
   35CHL1   C25 2581   5.449   5.874   5.662 -0.6960 -0.5386  0.0083
   35CHL1   H25 2582   5.384   5.910   5.579 -0.1752 -0.5908 -0.4241
   35CHL1   C26 2583   5.348   5.819   5.773 -0.5779 -0.4055  0.7206
   35CHL1  H26A 2584   5.277   5.897   5.807  2.0010  1.4769  2.1532
   35CHL1  H26B 2585   5.296   5.731   5.730 -0.0075 -0.8325  0.8950
   35CHL1  H26C 2586   5.413   5.793   5.859  0.3842  1.7020  0.6786
   35CHL1   C27 2587   5.537   5.985   5.710 -0.1527  1.0319 -0.4220
   35CHL1  H27A 2588   5.617   6.011   5.637 -1.0600 -0.6716 -2.1184
   35CHL1  H27B 2589   5.465   6.068   5.730 -0.5126  0.0945  2.6284
   35CHL1  H27C 2590   5.581   5.954   5.807 -2.3523 -1.0972 -0.0000
   36CHL1    C3 2591   6.209   6.427   4.431  0.3517 -0.4737  0.2007
   36CHL1    H3 2592   6.106   6.401   4.465  0.9816  0.7596  3.3865
   36CHL1    O3 2593   6.229   6.425   4.289 -0.0639  0.0076  0.8162
   36CHL1   H3' 2594   6.239   6.333   4.266 -0.7422 -0.6262  2.8691
   36CHL1    C4 2595   6.229   6.572   4.486  0.8459  0.4899  0.1811
   36CHL1   H4A 2596   6.331   6.599   4.450  0.2831  0.8615 -1.2005
   36CHL1   H4B 2597   6.159   6.642   4.436 -2.3134 -1.7932  1.0940
   36CHL1    C5 2598   6.223   6.571   4.635 -0.6689  0.2973 -0.1632
   36CHL1    C6 2599   6.130   6.639   4.705 -0.3764  0.2068  0.5692
   36CHL1    H6 2600   6.068   6.706   4.643  1.5306  1.6362  0.1290
   36CHL1    C7 2601   6.106   6.641   4.850  0.0133 -0.1278 -0.1687
   36CHL1   H7A 2602   6.091   6.748   4.874  0.1630  0.0893 -0.9974
   36CHL1   H7B 2603   6.014   6.588   4.883  0.1691 -0.0645  0.3684
   36CHL1    C8 2604   6.229   6.580   4.924 -0.0620  0.1084  0.5585
   36CHL1    H8 2605   6.321   6.641   4.912  1.0316 -1.7348 -1.2088
   36CHL1   C14 2606   6.196   6.554   5.071  0.2402  0.6632  0.3430
   36CHL1   H14 2607   6.116   6.477   5.065  0.5033  0.2855  1.4508
   36CHL1   C15 2608   6.127   6.666   5.153 -0.0385  0.7655 -0.2555
   36CHL1  H15A 2609   6.199   6.751   5.154  2.2778 -1.0523  1.8796
   36CHL1  H15B 2610   6.028   6.696   5.114  0.0030 -0.5335 -1.4564
   36CHL1   C16 2611   6.119   6.595   5.295  0.4797 -0.8594  0.5087
   36CHL1  H16A 2612   6.159   6.678   5.358  1.6115 -1.3595  0.4871
   36CHL1  H16B 2613   6.011   6.583   5.314 -0.2021  0.6278 -1.9892
   36CHL1   C17 2614   6.225   6.477   5.294 -0.0627 -0.1828 -0.3516
   36CHL1   H17 2615   6.184   6.374   5.285  2.9102 -1.3636 -1.9618
   36CHL1   C13 2616   6.308   6.490   5.158  1.0303 -0.3262 -0.5127
   36CHL1   C18 2617   6.423   6.594   5.174  0.3066 -0.0191 -0.2320
   36CHL1  H18A 2618   6.475   6.606   5.077  0.7262 -0.5527 -0.0800
   36CHL1  H18B 2619   6.393   6.697   5.203 -0.2882 -0.5210  1.0091
   36CHL1  H18C 2620   6.494   6.563   5.254 -1.4933 -2.2951  0.5847
   36CHL1   C12 2621   6.357   6.356   5.092  0.3196  0.3479  0.1967
   36CHL1  H12A 2622   6.449   6.320   5.143 -0.5169  0.5124  1.9105
   36CHL1  H12B 2623   6.285   6.272   5.095 -1.8900  2.1270  0.5167
   36CHL1   C11 2624   6.381   6.374   4.940 -0.0122  0.5180 -0.9704
   36CHL1  H11A 2625   6.474   6.434   4.932  0.8525 -0.8520 -1.4349
   36CHL1  H11B 2626   6.390   6.273   4.896 -0.8369 -0.0941  0.2083
   36CHL1    C9 2627   6.271   6.443   4.857  0.0822  0.4022 -0.0791
   36CHL1    H9 2628   6.184   6.375   4.870  0.5154 -0.3037 -0.7800
   36CHL1   C10 2629   6.308   6.462   4.704  0.3007  0.4200  0.4701
   36CHL1   C19 2630   6.458   6.499   4.684  0.5048  0.2919 -0.1796
   36CHL1  H19A 2631   6.476   6.509   4.575  0.4042 -0.3178 -0.2569
   36CHL1  H19B 2632   6.474   6.594   4.738  0.0322  1.0713 -1.3813
   36CHL1  H19C 2633   6.537   6.425   4.709  2.5333  2.5949  0.5486
   36CHL1    C1 2634   6.282   6.319   4.636 -0.6382  0.0707 -0.2446
   36CHL1   H1A 2635   6.342   6.239   4.685  0.0575  2.0810  2.4396
   36CHL1   H1B 2636   6.176   6.294   4.655 -0.9384  1.0969 -0.5130
   36CHL1    C2 2637   6.298   6.322   4.489 -0.2440 -0.0257  0.8075
   36CHL1   H2A 2638   6.264   6.224   4.451 -1.2120  0.0628  1.4101
   36CHL1   H2B 2639   6.403   6.341   4.457  0.5104  0.6310  3.4099
   36CHL1   C20 2640   6.304   6.485   5.428  0.5890  0.0792  0.3852
   36CHL1   H20 2641   6.343   6.589   5.432  1.2886 -0.2005  1.1789
   36CHL1   C21 2642   6.422   6.387   5.439  0.0774 -0.2665 -0.3047
   36CHL1  H21A 2643   6.490   6.390   5.351  0.3188  1.5007 -0.0883
   36CHL1  H21B 2644   6.389   6.281   5.447 -0.7272  0.1209  2.9762
   36CHL1  H21C 2645   6.480   6.411   5.531 -1.0657 -1.1101  0.6654
   36CHL1   C22 2646   6.213   6.459   5.544 -0.2583 -0.0271 -0.1924
   36CHL1  H22A 2647   6.285   6.463   5.629 -1.4095 -1.9136  0.9504
   36CHL1  H22B 2648   6.134   6.535   5.565 -0.6581 -0.8106  1.2747
   36CHL1   C23 2649   6.136   6.324   5.538 -0.2482  0.5053 -0.5946
   36CHL1  H23A 2650   6.031   6.348   5.510  0.4942  2.6673 -1.7359
   36CHL1  H23B 2651   6.189   6.263   5.462 -0.0506 -0.8547  0.5846
   36CHL1   C24 2652   6.150   6.257   5.677 -0.8647  0.2543 -0.1410
   36CHL1  H24A 2653   6.259   6.263   5.698 -0.9234 -0.1479  0.2907
   36CHL1  H24B 2654   6.102   6.312   5.761  1.1639  0.3931  1.0110
   36CHL1   C25 2655   6.118   6.108   5.690 -0.3412  0.6245 -0.3242
   36CHL1   H25 2656   6.188   6.056   5.621 -3.8798 -3.0834 -1.5090
   36CHL1   C26 2657   6.144   6.047   5.829 -0.1347  0.1275 -0.7796
   36CHL1  H26A 2658   6.080   6.098   5.903 -0.5455 -0.6220 -0.6033
   36CHL1  H26B 2659   6.142   5.936   5.819  0.4600  0.1251 -0.9019
   36CHL1  H26C 2660   6.246   6.070   5.867 -1.0620 -1.2328  2.9782
   36CHL1   C27 2661   5.972   6.078   5.653 -0.3487  0.2701  0.0913
   36CHL1  H27A 2662   5.945   6.091   5.546  1.4861 -1.3469 -0.6322
   36CHL1  H27B 2663   5.945   5.974   5.681 -1.3567  0.7376  0.8882
   36CHL1  H27C 2664   5.909   6.152   5.707 -0.2357  0.8376 -0.5303
   37CHL1    C3 2665   3.525   5.501   3.840 -0.0447  0.6114  0.5973
   37CHL1    H3 2666   3.614   5.439   3.814 -0.4400  1.0111 -1.9705
   37CHL1    O3 2667   3.452   5.537   3.724  0.1299  0.4761  0.6377
   37CHL1   H3' 2668   3.399   5.462   3.696 -0.7726  0.2845  2.6698
   37CHL1    C4 2669   3.444   5.392   3.923 -0.5102 -0.2424  0.3611
   37CHL1   H4A 2670   3.336   5.420   3.920 -0.7264 -1.0600  0.3419
   37CHL1   H4B 2671   3.451   5.297   3.866  2.0606 -0.8442  1.5194
   37CHL1    C5 2672   3.486   5.374   4.068 -0.0504 -0.6032  0.5317
   37CHL1    C6 2673   3.495   5.256   4.118  0.2915  0.3396  0.4630
   37CHL1    H6 2674   3.467   5.171   4.053 -1.5294  0.7383  0.6967
   37CHL1    C7 2675   3.559   5.222   4.248 -0.2232  0.1268  0.7942
   37CHL1   H7A 2676   3.493   5.153   4.304  0.8228 -1.3985  0.2073
   37CHL1   H7B 2677   3.654   5.166   4.241 -1.2112 -1.4927 -0.0396
   37CHL1    C8 2678   3.569   5.345   4.336  0.2849 -0.2891 -0.0032
   37CHL1    H8 2679   3.465   5.371   4.368 -0.1020  0.4138 -1.7073
   37CHL1   C14 2680   3.654   5.327   4.463 -0.1805  0.4545  0.0381
   37CHL1   H14 2681   3.758   5.304   4.431  0.6381 -0.3224  2.9055
   37CHL1   C15 2682   3.612   5.207   4.550 -0.5973  0.0770  0.6833
   37CHL1  H15A 2683   3.502   5.199   4.537 -0.5439  0.9800 -0.5309
   37CHL1  H15B 2684   3.654   5.112   4.509 -2.0330 -0.6805  0.8826
   37CHL1   C16 2685   3.667   5.231   4.689  0.0006  0.0855 -0.2348
   37CHL1  H16A 2686   3.583   5.228   4.762 -0.0795  0.9960 -0.2790
   37CHL1  H16B 2687   3.746   5.160   4.722 -0.9837 -1.6827 -1.5235
   37CHL1   C17 2688   3.728   5.375   4.684 -0.1539  0.0052 -0.4497
   37CHL1   H17 2689   3.834   5.369   4.649 -0.3949  0.0642 -1.2245
   37CHL1   C13 2690   3.658   5.447   4.560 -0.3808  0.5143  0.3049
   37CHL1   C18 2691   3.511   5.481   4.608 -0.4957  0.0952 -0.2981
   37CHL1  H18A 2692   3.446   5.509   4.522 -0.8982 -1.3214 -0.4793
   37CHL1  H18B 2693   3.450   5.408   4.666  0.1645 -0.1640  0.0761
   37CHL1  H18C 2694   3.520   5.573   4.670  2.0070 -0.8029  0.7965
   37CHL1   C12 2695   3.732   5.549   4.475 -0.1329 -0.1235  0.1119
   37CHL1  H12A 2696   3.736   5.644   4.533 -2.8207 -0.3673  0.8628
   37CHL1  H12B 2697   3.831   5.521   4.433 -1.3436 -1.9596 -1.7102
   37CHL1   C11 2698   3.647   5.589   4.350 -0.0544 -0.1429  0.6054
   37CHL1  H11A 2699   3.545   5.628   4.371  0.1185  0.1446  0.9396
   37CHL1  H11B 2700   3.706   5.657   4.284  1.0798 -1.3327  0.3594
   37CHL1    C9 2701   3.624   5.468   4.258 -0.3586  0.0724  0.2418
   37CHL1    H9 2702   3.724   5.435   4.222 -0.1705  0.8760  0.0058
   37CHL1   C10 2703   3.540   5.501   4.134  0.6345  0.1012 -0.3787
   37CHL1   C19 2704   3.411   5.573   4.177  0.3251  1.0125  0.3118
   37CHL1  H19A 2705   3.422   5.674   4.222 -0.3015  0.7957  0.9786
   37CHL1  H19B 2706   3.345   5.593   4.089  1.8379  1.6280 -0.7156
   37CHL1  H19C 2707   3.348   5.514   4.247  0.8500 -0.4201 -0.3856
   37CHL1    C1 2708   3.623   5.585   4.048 -1.0063  0.1352  0.0067
   37CHL1   H1A 2709   3.651   5.684   4.092  0.7730  0.5116 -1.8438
   37CHL1   H1B 2710   3.723   5.544   4.023  0.0894  1.9499  1.1686
   37CHL1    C2 2711   3.561   5.628   3.916  0.1599  0.0774  0.1512
   37CHL1   H2A 2712   3.635   5.672   3.845 -0.8193  1.4655 -0.0401
   37CHL1   H2B 2713   3.469   5.689   3.929 -1.3389 -1.8697 -0.7227
   37CHL1   C20 2714   3.741   5.456   4.816 -0.3420 -0.7133 -0.2192
   37CHL1   H20 2715   3.636   5.483   4.842 -0.4927  0.8543 -2.1962
   37CHL1   C21 2716   3.835   5.577   4.796 -0.2104 -0.0539  0.5973
   37CHL1  H21A 2717   3.815   5.655   4.873  2.0401 -0.5352  1.7355
   37CHL1  H21B 2718   3.821   5.633   4.701 -0.1523  0.5740  0.9501
   37CHL1  H21C 2719   3.942   5.549   4.796  0.6726  2.9227 -0.3929
   37CHL1   C22 2720   3.783   5.377   4.934  0.2205 -0.5619  0.0216
   37CHL1  H22A 2721   3.713   5.293   4.954  0.6959 -0.7358  1.0461
   37CHL1  H22B 2722   3.882   5.327   4.923 -1.3760 -3.6279 -1.6683
   37CHL1   C23 2723   3.795   5.456   5.064 -0.0517  0.3354  0.5001
   37CHL1  H23A 2724   3.890   5.513   5.062  1.6981 -2.4077 -1.8940
   37CHL1  H23B 2725   3.704   5.520   5.062  1.3941  2.4699 -0.3874
   37CHL1   C24 2726   3.775   5.359   5.183 -0.3893  0.3077 -0.2911
   37CHL1  H24A 2727   3.668   5.329   5.189 -0.0311 -1.7210 -2.3538
   37CHL1  H24B 2728   3.826   5.264   5.154 -0.4335  0.0562  0.4484
   37CHL1   C25 2729   3.815   5.417   5.322  0.0314  0.5307  0.7636
   37CHL1   H25 2730   3.924   5.437   5.327  0.4904 -1.2914 -0.9404
   37CHL1   C26 2731   3.748   5.555   5.353 -0.0093  0.4250  1.0456
   37CHL1  H26A 2732   3.637   5.546   5.346  0.2195 -1.5259 -3.0865
   37CHL1  H26B 2733   3.784   5.588   5.453  0.1352 -0.5169  1.3202
   37CHL1  H26C 2734   3.774   5.630   5.276 -1.0202 -0.4337 -0.1657
   37CHL1   C27 2735   3.788   5.307   5.430 -0.0593 -0.5036  0.5758
   37CHL1  H27A 2736   3.817   5.359   5.524 -1.1220  1.2157 -0.0169
   37CHL1  H27B 2737   3.681   5.279   5.428 -0.1660 -0.3625  2.6064
   37CHL1  H27C 2738   3.847   5.214   5.412  2.6252  0.9647  1.2964
   38CHL1    C3 2739   1.886   5.068   4.304  0.2120  0.3214 -0.4290
   38CHL1    H3 2740   1.796   5.012   4.272  0.5300 -0.1906 -0.4310
   38CHL1    O3 2741   1.951   5.122   4.192 -0.5658  0.1697 -0.2806
   38CHL1   H3' 2742   1.894   5.197   4.172 -0.2478  0.6123  0.4357
   38CHL1    C4 2743   1.840   5.182   4.396 -0.1420 -0.0024  0.0814
   38CHL1   H4A 2744   1.927   5.248   4.418 -1.1274  1.2392  0.3954
   38CHL1   H4B 2745   1.773   5.252   4.342  0.9719  1.3327  0.3638
   38CHL1    C5 2746   1.787   5.130   4.529  0.0139  0.0843  0.5891
   38CHL1    C6 2747   1.664   5.169   4.567  0.0812  0.0659 -0.3226
   38CHL1    H6 2748   1.597   5.228   4.503 -1.5400  0.0227  1.2515
   38CHL1    C7 2749   1.606   5.130   4.706  0.3328  0.2546 -0.0886
   38CHL1   H7A 2750   1.574   5.220   4.762  0.8754  0.6068 -0.3393
   38CHL1   H7B 2751   1.520   5.061   4.691  0.4429  0.1621 -0.3097
   38CHL1    C8 2752   1.709   5.062   4.794 -0.2144  0.1440 -0.3020
   38CHL1    H8 2753   1.761   5.147   4.844 -3.0651  0.6508  2.0963
   38CHL1   C14 2754   1.638   4.983   4.910 -0.8903 -0.0607  0.0023
   38CHL1   H14 2755   1.591   4.894   4.863 -1.2511  0.9217 -1.5987
   38CHL1   C15 2756   1.530   5.054   4.991  0.3560 -0.5051 -0.7128
   38CHL1  H15A 2757   1.540   5.161   5.019  0.7782 -0.8371  0.4476
   38CHL1  H15B 2758   1.444   5.046   4.921  0.3018  0.8742 -0.8278
   38CHL1   C16 2759   1.512   4.966   5.114  0.3673  0.8383  0.2169
   38CHL1  H16A 2760   1.516   5.023   5.209  1.2121  0.7976  0.2172
   38CHL1  H16B 2761   1.417   4.909   5.116  0.4794  0.4896 -1.9613
   38CHL1   C17 2762   1.623   4.857   5.112  0.1587 -0.1465  0.5607
   38CHL1   H17 2763   1.586   4.773   5.048 -3.1439  1.5729  0.0082
   38CHL1   C13 2764   1.735   4.920   5.013 -0.1462 -0.6402  0.2421
   38CHL1   C18 2765   1.822   5.021   5.091  0.0302 -0.4650 -0.4663
   38CHL1  H18A 2766   1.906   4.969   5.140  0.4359  0.0055 -0.6493
   38CHL1  H18B 2767   1.858   5.089   5.010  1.7139 -0.0182  0.6190
   38CHL1  H18C 2768   1.769   5.078   5.170 -1.2739  0.3522 -1.8615
   38CHL1   C12 2769   1.825   4.822   4.935  0.5946  0.0686  0.0908
   38CHL1  H12A 2770   1.910   4.782   4.995 -0.1266 -1.6400  0.0482
   38CHL1  H12B 2771   1.761   4.735   4.906  2.7574 -1.0107 -1.7435
   38CHL1   C11 2772   1.889   4.891   4.815  0.1652  0.2651  1.3479
   38CHL1  H11A 2773   1.965   4.957   4.862  0.1954 -0.7585  2.7983
   38CHL1  H11B 2774   1.943   4.809   4.763  0.2967 -0.3190  2.3800
   38CHL1    C9 2775   1.799   4.970   4.717 -0.2608  0.0053 -0.4780
   38CHL1    H9 2776   1.717   4.908   4.675 -2.1713  1.6510  0.6403
   38CHL1   C10 2777   1.882   5.035   4.604 -0.2096  0.0931  0.6168
   38CHL1   C19 2778   2.000   5.119   4.657 -0.3462  0.3923  0.5404
   38CHL1  H19A 2779   1.954   5.194   4.724 -1.5791 -0.0608  0.2281
   38CHL1  H19B 2780   2.076   5.062   4.714 -0.0467  1.0114  0.7660
   38CHL1  H19C 2781   2.053   5.181   4.582  1.5135 -0.5818  1.0020
   38CHL1    C1 2782   1.938   4.926   4.506  0.2284  0.9351  0.1429
   38CHL1   H1A 2783   2.015   4.861   4.552 -0.0501  1.6058  1.6232
   38CHL1   H1B 2784   1.861   4.850   4.478  2.1045 -0.0956 -2.6739
   38CHL1    C2 2785   1.986   4.982   4.374  0.0988 -1.1761  0.1711
   38CHL1   H2A 2786   2.018   4.899   4.306 -2.8956  0.5617 -3.7409
   38CHL1   H2B 2787   2.072   5.052   4.383 -1.5455  1.1947 -1.5545
   38CHL1   C20 2788   1.669   4.809   5.251 -0.0647 -0.2681 -0.3080
   38CHL1   H20 2789   1.700   4.897   5.311 -0.4810 -0.2818 -0.0641
   38CHL1   C21 2790   1.788   4.708   5.238  0.3857  0.1374  0.1816
   38CHL1  H21A 2791   1.802   4.661   5.337 -1.9483 -1.4408 -0.1694
   38CHL1  H21B 2792   1.882   4.761   5.210 -0.7073  1.6282 -0.8117
   38CHL1  H21C 2793   1.765   4.634   5.159  1.2067  0.8405 -0.7540
   38CHL1   C22 2794   1.551   4.741   5.317  0.1741  0.5777 -0.2138
   38CHL1  H22A 2795   1.463   4.810   5.313 -0.5848 -0.2884  0.9164
   38CHL1  H22B 2796   1.516   4.647   5.271 -0.6490 -0.5603  2.5244
   38CHL1   C23 2797   1.572   4.738   5.475  0.2171 -0.5283 -0.9214
   38CHL1  H23A 2798   1.653   4.680   5.524 -0.4304 -0.2282  0.5875
   38CHL1  H23B 2799   1.612   4.839   5.499  0.0534 -0.4582 -0.9411
   38CHL1   C24 2800   1.443   4.704   5.550  0.0692  0.0965  0.3446
   38CHL1  H24A 2801   1.373   4.787   5.523  0.8933  0.6391 -0.1473
   38CHL1  H24B 2802   1.410   4.603   5.519  1.5897 -0.1540 -0.5265
   38CHL1   C25 2803   1.450   4.711   5.709 -0.2373  0.2456  0.5389
   38CHL1   H25 2804   1.533   4.643   5.738  0.3209  0.5592 -0.2822
   38CHL1   C26 2805   1.481   4.855   5.759 -0.3776  0.0085  0.2624
   38CHL1  H26A 2806   1.519   4.852   5.863  2.3638  1.2521 -0.6097
   38CHL1  H26B 2807   1.570   4.891   5.702 -0.1067 -2.8263 -1.3063
   38CHL1  H26C 2808   1.396   4.925   5.748  0.4935  1.1106  0.4599
   38CHL1   C27 2809   1.321   4.652   5.770 -0.0256  0.2806  0.0324
   38CHL1  H27A 2810   1.310   4.546   5.740  1.7316  0.5661 -1.8267
   38CHL1  H27B 2811   1.324   4.657   5.881 -2.1720 -0.7371  0.1772
   38CHL1  H27C 2812   1.235   4.718   5.744  0.4421  0.1557 -2.0548
   39CHL1    C3 2813   1.837   6.309   4.474  0.1389  0.0292 -0.2369
   39CHL1    H3 2814   1.916   6.235   4.451  1.9297  1.2696  1.5337
   39CHL1    O3 2815   1.812   6.385   4.359  0.0467 -0.0594  0.5670
   39CHL1   H3' 2816   1.897   6.386   4.314 -1.1499 -3.0798 -2.0550
   39CHL1    C4 2817   1.724   6.228   4.533  0.8850  0.2590 -0.2969
   39CHL1   H4A 2818   1.650   6.306   4.560  0.0141 -0.5452 -0.3110
   39CHL1   H4B 2819   1.678   6.159   4.459  0.9922 -1.2416  0.9885
   39CHL1    C5 2820   1.759   6.155   4.664  0.6398 -0.4181  0.3307
   39CHL1    C6 2821   1.751   6.021   4.677  0.0903 -0.3773 -0.4467
   39CHL1    H6 2822   1.720   5.958   4.593 -2.3798  0.4208 -0.2135
   39CHL1    C7 2823   1.779   5.937   4.799 -0.1254 -0.2608  0.1748
   39CHL1   H7A 2824   1.700   5.863   4.825  0.7364 -1.3169 -0.1303
   39CHL1   H7B 2825   1.872   5.880   4.780  0.1232  0.1460  0.1740
   39CHL1    C8 2826   1.801   6.027   4.931  0.0397 -0.2203 -0.6096
   39CHL1    H8 2827   1.701   6.059   4.967  0.2227  0.1016 -0.3776
   39CHL1   C14 2828   1.863   5.959   5.048 -0.0935  0.3520 -0.6489
   39CHL1   H14 2829   1.967   5.950   5.010  0.8570  0.3168  1.7969
   39CHL1   C15 2830   1.825   5.819   5.075  0.8357 -0.9567 -0.5590
   39CHL1  H15A 2831   1.716   5.808   5.061  0.3166  0.8773  1.6667
   39CHL1  H15B 2832   1.884   5.761   5.000 -0.2061  1.2380 -3.2546
   39CHL1   C16 2833   1.872   5.794   5.219 -0.0786  0.2250  0.6611
   39CHL1  H16A 2834   1.788   5.768   5.288  0.1532  0.5206  1.0634
   39CHL1  H16B 2835   1.946   5.713   5.232 -0.6348 -0.1419  1.6908
   39CHL1   C17 2836   1.929   5.929   5.275  0.1946  0.8080  0.1250
   39CHL1   H17 2837   2.037   5.919   5.255  0.1585  1.1230 -0.2431
   39CHL1   C13 2838   1.876   6.039   5.177 -0.1224  0.0712 -0.9569
   39CHL1   C18 2839   1.731   6.080   5.223  0.0818 -0.2420 -0.2709
   39CHL1  H18A 2840   1.720   6.141   5.316 -1.2829  1.4858 -1.4965
   39CHL1  H18B 2841   1.661   6.120   5.147 -0.9056  1.1144  1.2591
   39CHL1  H18C 2842   1.688   5.979   5.240  1.2992 -0.5966  0.8363
   39CHL1   C12 2843   1.963   6.167   5.151 -0.3021  0.1760  0.3136
   39CHL1  H12A 2844   1.965   6.223   5.247  1.5729  0.2173  0.2910
   39CHL1  H12B 2845   2.069   6.138   5.133 -0.7298 -0.4449 -1.3409
   39CHL1   C11 2846   1.898   6.246   5.035  0.1926  0.0144  0.0687
   39CHL1  H11A 2847   1.803   6.293   5.069  0.5746  1.8074 -1.1997
   39CHL1  H11B 2848   1.957   6.333   4.999 -1.1935 -0.1506 -2.8759
   39CHL1    C9 2849   1.878   6.162   4.906 -0.3522  0.8167 -0.4325
   39CHL1    H9 2850   1.980   6.128   4.879 -0.4791 -1.3276  1.4401
   39CHL1   C10 2851   1.825   6.246   4.778 -0.1890 -0.7242 -0.3586
   39CHL1   C19 2852   1.710   6.339   4.828 -0.1436 -0.2670  0.2498
   39CHL1  H19A 2853   1.666   6.392   4.741  0.2181  1.2186  0.9397
   39CHL1  H19B 2854   1.637   6.271   4.879 -0.9506  0.1836 -0.2803
   39CHL1  H19C 2855   1.747   6.411   4.904  1.2391 -1.8269  1.1166
   39CHL1    C1 2856   1.947   6.324   4.710  0.1587 -0.9915 -0.1476
   39CHL1   H1A 2857   1.976   6.391   4.794 -3.5545 -2.7097  2.8579
   39CHL1   H1B 2858   2.026   6.251   4.683  0.1327 -1.0705 -0.0125
   39CHL1    C2 2859   1.900   6.399   4.585 -0.2233  0.0972 -0.2087
   39CHL1   H2A 2860   1.985   6.457   4.544  1.0545  0.1110  2.2455
   39CHL1   H2B 2861   1.822   6.473   4.611 -0.4499  0.1937 -1.1328
   39CHL1   C20 2862   1.903   5.950   5.423 -0.1288 -0.3258  0.1718
   39CHL1   H20 2863   1.795   5.966   5.446 -0.2219  1.5644 -1.2927
   39CHL1   C21 2864   1.976   6.075   5.483  0.3637 -0.2542 -0.2882
   39CHL1  H21A 2865   2.084   6.062   5.457  0.4507 -0.1207 -0.0031
   39CHL1  H21B 2866   1.970   6.083   5.594 -1.4068 -2.1557 -0.2123
   39CHL1  H21C 2867   1.929   6.165   5.439 -0.4854  0.4281  1.8737
   39CHL1   C22 2868   1.960   5.831   5.507  0.4634  0.1967 -0.2823
   39CHL1  H22A 2869   1.908   5.740   5.470  1.6607 -1.5048  1.9730
   39CHL1  H22B 2870   2.071   5.837   5.500  0.9134 -2.6871  2.1556
   39CHL1   C23 2871   1.913   5.832   5.659  0.2449  0.3641  0.4226
   39CHL1  H23A 2872   1.932   5.930   5.707 -1.3697  0.1917  1.4679
   39CHL1  H23B 2873   1.804   5.814   5.669 -0.4202  2.1449 -2.3650
   39CHL1   C24 2874   1.996   5.727   5.733 -0.3326  0.6301 -0.5852
   39CHL1  H24A 2875   1.966   5.630   5.687 -0.1597 -1.4330  3.2331
   39CHL1  H24B 2876   2.103   5.741   5.708  0.2277 -3.1452 -0.8488
   39CHL1   C25 2877   1.981   5.726   5.883  0.0037 -0.3101 -0.0130
   39CHL1   H25 2878   2.014   5.825   5.922  1.2170 -0.9854  0.7413
   39CHL1   C26 2879   1.840   5.694   5.931 -1.2233  0.2989 -0.0170
   39CHL1  H26A 2880   1.817   5.587   5.908 -0.6637  0.1551  0.0733
   39CHL1  H26B 2881   1.817   5.713   6.038  0.1246  1.2362  0.1328
   39CHL1  H26C 2882   1.763   5.757   5.881 -1.7835 -0.7314 -0.4822
   39CHL1   C27 2883   2.077   5.625   5.944  0.8983  0.1764 -0.5540
   39CHL1  H27A 2884   2.051   5.522   5.910 -1.6577  0.1047  1.2882
   39CHL1  H27B 2885   2.185   5.639   5.919  0.6485  2.7147 -0.4677
   39CHL1  H27C 2886   2.056   5.635   6.053 -0.8980  0.6241 -0.9176
   40CHL1    C3 2887   6.125   1.702   5.032 -0.2907 -0.1941  0.0054
   40CHL1    H3 2888   6.087   1.625   5.102 -0.4403  0.9251  1.1926
   40CHL1    O3 2889   6.083   1.674   4.899 -0.6018  0.4885 -0.1927
   40CHL1   H3' 2890   6.127   1.734   4.838 -0.5072 -0.7892 -1.4314
   40CHL1    C4 2891   6.071   1.839   5.084 -0.2685  0.0564  0.0047
   40CHL1   H4A 2892   6.094   1.913   5.005  0.4837 -0.9174 -0.7041
   40CHL1   H4B 2893   5.960   1.838   5.077 -0.1702 -0.3843 -1.7892
   40CHL1    C5 2894   6.127   1.871   5.220 -0.5268 -0.0954 -0.8581
   40CHL1    C6 2895   6.046   1.887   5.325  0.0112  0.0714  0.4147
   40CHL1    H6 2896   5.938   1.890   5.306 -0.3572  1.3845  2.3992
   40CHL1    C7 2897   6.094   1.921   5.465  1.2978  0.4184 -0.3252
   40CHL1   H7A 2898   6.020   1.984   5.520  0.0641  0.1255 -1.5881
   40CHL1   H7B 2899   6.080   1.833   5.532 -1.0092  3.1970  3.2566
   40CHL1    C8 2900   6.241   1.964   5.476  0.3669  0.1251 -0.3071
   40CHL1    H8 2901   6.257   2.061   5.424 -1.6826  0.0322 -1.2273
   40CHL1   C14 2902   6.280   1.950   5.622 -0.3253 -0.4545 -0.6869
   40CHL1   H14 2903   6.254   1.843   5.636  2.3222 -1.0803  0.0899
   40CHL1   C15 2904   6.201   2.022   5.733  0.0248  0.1388 -0.9314
   40CHL1  H15A 2905   6.181   2.127   5.705 -0.7324 -0.0277 -1.0262
   40CHL1  H15B 2906   6.105   1.966   5.741  0.4368 -0.5586 -0.7558
   40CHL1   C16 2907   6.295   2.010   5.857 -0.0591 -0.5915  0.2338
   40CHL1  H16A 2908   6.306   2.109   5.906 -0.5989 -0.7115  0.6036
   40CHL1  H16B 2909   6.242   1.943   5.928  1.3903 -1.7738  0.2538
   40CHL1   C17 2910   6.425   1.944   5.808 -0.2186  0.8681 -0.0637
   40CHL1   H17 2911   6.412   1.834   5.817 -0.1332  0.8560 -0.0897
   40CHL1   C13 2912   6.429   1.966   5.660  0.4106 -0.2028  0.4409
   40CHL1   C18 2913   6.474   2.114   5.623 -0.0297  0.7019  0.1071
   40CHL1  H18A 2914   6.580   2.130   5.651  0.7102 -2.4319 -0.5511
   40CHL1  H18B 2915   6.470   2.118   5.512  0.1640 -0.7188  0.0353
   40CHL1  H18C 2916   6.405   2.181   5.679 -0.9048 -1.5283  1.8493
   40CHL1   C12 2917   6.511   1.878   5.573 -0.1211  0.3518 -0.0178
   40CHL1  H12A 2918   6.613   1.918   5.591  0.4329 -0.3961 -1.3240
   40CHL1  H12B 2919   6.507   1.771   5.605  0.8017  0.0916 -0.6967
   40CHL1   C11 2920   6.478   1.880   5.420  0.1090 -0.0138  0.4094
   40CHL1  H11A 2921   6.522   1.971   5.373  0.0418 -0.2774 -0.1782
   40CHL1  H11B 2922   6.537   1.797   5.377 -1.3641 -0.5742 -0.6044
   40CHL1    C9 2923   6.325   1.865   5.387  0.0777 -0.0287 -0.5244
   40CHL1    H9 2924   6.309   1.757   5.410  0.9361  0.4013  2.5312
   40CHL1   C10 2925   6.287   1.871   5.234  0.4497  0.9957 -0.8435
   40CHL1   C19 2926   6.344   1.993   5.171 -0.8534 -0.0004 -0.4332
   40CHL1  H19A 2927   6.454   2.010   5.172 -1.0670  1.5560 -0.4127
   40CHL1  H19B 2928   6.315   1.999   5.063  0.8049  2.0494 -0.8248
   40CHL1  H19C 2929   6.304   2.087   5.215  1.3652  0.8903 -0.1810
   40CHL1    C1 2930   6.335   1.740   5.164 -0.1914 -0.3470  0.1671
   40CHL1   H1A 2931   6.444   1.753   5.147 -0.2350  0.4596  0.4887
   40CHL1   H1B 2932   6.327   1.650   5.229  0.1570  0.9253  2.0490
   40CHL1    C2 2933   6.272   1.704   5.030  0.3672  0.1376  0.1419
   40CHL1   H2A 2934   6.312   1.607   4.994  2.7855  0.9584  0.4306
   40CHL1   H2B 2935   6.303   1.777   4.952 -0.8478  0.0317 -0.4523
   40CHL1   C20 2936   6.556   1.973   5.895 -0.7096  0.2473  0.3944
   40CHL1   H20 2937   6.639   1.984   5.821 -1.7908 -0.2531 -0.9353
   40CHL1   C21 2938   6.587   1.848   5.978  0.5291 -0.6666 -0.3494
   40CHL1  H21A 2939   6.678   1.873   6.037 -1.2654  0.9862  1.8723
   40CHL1  H21B 2940   6.607   1.764   5.907 -0.0323  1.0535 -2.6303
   40CHL1  H21C 2941   6.508   1.816   6.050  1.4746 -1.9622  0.1679
   40CHL1   C22 2942   6.547   2.099   5.985 -0.8922 -0.0593 -0.2453
   40CHL1  H22A 2943   6.528   2.186   5.919  2.1818  0.3808 -0.7130
   40CHL1  H22B 2944   6.465   2.095   6.060 -0.7605 -1.1481 -0.1413
   40CHL1   C23 2945   6.690   2.127   6.052  0.4148 -0.0277 -0.7444
   40CHL1  H23A 2946   6.696   2.076   6.150  0.7824  2.9984  0.9297
   40CHL1  H23B 2947   6.763   2.076   5.985 -1.2865 -1.0817 -1.8852
   40CHL1   C24 2948   6.719   2.274   6.062  0.2401 -0.3049 -0.1506
   40CHL1  H24A 2949   6.724   2.321   5.961 -0.2599  1.1346  0.4688
   40CHL1  H24B 2950   6.631   2.321   6.110 -0.3397 -0.5046 -0.9983
   40CHL1   C25 2951   6.849   2.311   6.144  0.9750  0.0558 -0.3555
   40CHL1   H25 2952   6.935   2.245   6.123  1.6588  1.0562 -0.7589
   40CHL1   C26 2953   6.891   2.459   6.132  0.4252  0.6546 -0.1495
   40CHL1  H26A 2954   6.795   2.500   6.169  0.6833 -0.0570  1.3910
   40CHL1  H26B 2955   6.976   2.491   6.197  1.0241  0.6707 -0.9281
   40CHL1  H26C 2956   6.916   2.498   6.031  3.8745 -3.3320 -1.0930
   40CHL1   C27 2957   6.819   2.287   6.295 -1.0830 -0.4283  0.1726
   40CHL1  H27A 2958   6.779   2.185   6.316 -1.7896  0.1557  1.8330
   40CHL1  H27B 2959   6.906   2.302   6.364 -0.8477 -0.5554 -0.0934
   40CHL1  H27C 2960   6.738   2.354   6.329 -0.4135 -0.7417  2.6234
   41CHL1    C3 2961   4.925   1.678   4.462  0.8849  0.0785  0.6420
   41CHL1    H3 2962   5.007   1.749   4.438 -0.1155  0.9871 -0.1873
   41CHL1    O3 2963   4.849   1.625   4.350  0.0801 -0.1660  0.3106
   41CHL1   H3' 2964   4.787   1.693   4.322  2.2560  0.7954 -2.6949
   41CHL1    C4 2965   4.996   1.559   4.536 -0.0618 -0.3488  0.2784
   41CHL1   H4A 2966   4.917   1.482   4.549  0.3736 -0.6562  1.1607
   41CHL1   H4B 2967   5.071   1.505   4.475 -1.0707 -0.2031 -1.1264
   41CHL1    C5 2968   5.047   1.593   4.671 -0.7810  0.3830  0.0618
   41CHL1    C6 2969   5.180   1.567   4.706  0.1360 -0.1687  0.3261
   41CHL1    H6 2970   5.257   1.521   4.643 -0.7617 -0.6142 -0.4581
   41CHL1    C7 2971   5.235   1.594   4.845 -0.5930  0.3934  0.1396
   41CHL1   H7A 2972   5.302   1.514   4.880 -0.8397 -0.3004 -0.9323
   41CHL1   H7B 2973   5.308   1.677   4.836  1.2926 -1.3084 -0.9505
   41CHL1    C8 2974   5.131   1.619   4.959 -0.4453 -0.0620  0.0581
   41CHL1    H8 2975   5.075   1.525   4.979 -0.9669 -0.0060 -1.0423
   41CHL1   C14 2976   5.197   1.667   5.095  0.0177  0.4245  0.4555
   41CHL1   H14 2977   5.254   1.760   5.075  2.2269 -0.7326  1.1044
   41CHL1   C15 2978   5.305   1.577   5.156 -0.4545  0.2961 -0.3213
   41CHL1  H15A 2979   5.253   1.478   5.155 -2.8310  1.4519 -2.0261
   41CHL1  H15B 2980   5.391   1.577   5.087 -1.3722 -0.5874 -1.5156
   41CHL1   C16 2981   5.318   1.632   5.301  0.4419  0.3691 -0.1503
   41CHL1  H16A 2982   5.293   1.551   5.373 -0.7034  1.9888  1.3867
   41CHL1  H16B 2983   5.409   1.691   5.326  1.1990 -0.7296 -0.2709
   41CHL1   C17 2984   5.200   1.734   5.315 -0.3670 -0.8186  0.2727
   41CHL1   H17 2985   5.250   1.831   5.295  0.3646 -1.4676 -1.2605
   41CHL1   C13 2986   5.098   1.707   5.200 -1.4604 -0.3272 -0.5699
   41CHL1   C18 2987   4.997   1.594   5.246 -0.1643  0.6107 -0.3124
   41CHL1  H18A 2988   4.957   1.540   5.158 -2.6845 -2.8590  2.6384
   41CHL1  H18B 2989   5.042   1.516   5.311 -0.1570  1.0278  0.1949
   41CHL1  H18C 2990   4.909   1.645   5.291 -1.1576  0.8448 -2.4078
   41CHL1   C12 2991   5.015   1.823   5.137  0.0020  0.5681 -0.4053
   41CHL1  H12A 2992   4.944   1.869   5.209  1.7940  0.7210  1.3462
   41CHL1  H12B 2993   5.081   1.907   5.106 -0.2003  0.7603 -0.3140
   41CHL1   C11 2994   4.932   1.775   5.014  0.3475  0.9840 -0.4987
   41CHL1  H11A 2995   4.846   1.713   5.046 -2.9316  3.6681 -3.3765
   41CHL1  H11B 2996   4.882   1.866   4.975  0.0129  0.3066 -1.6757
   41CHL1    C9 2997   5.024   1.714   4.903 -0.1201 -0.9557 -0.5717
   41CHL1    H9 2998   5.085   1.797   4.862  0.6133 -1.5409 -0.6790
   41CHL1   C10 2999   4.950   1.664   4.767  0.1061 -0.0866  0.0288
   41CHL1   C19 3000   4.835   1.568   4.818  0.3260  0.0335  0.9418
   41CHL1  H19A 3001   4.882   1.499   4.892 -2.4897 -3.9270 -0.5943
   41CHL1  H19B 3002   4.755   1.609   4.883  1.6447 -1.2861  3.5523
   41CHL1  H19C 3003   4.800   1.501   4.736  1.7296  0.6679 -0.2161
   41CHL1    C1 3004   4.892   1.787   4.687 -0.0070 -0.4623 -0.9668
   41CHL1   H1A 3005   4.825   1.846   4.754  1.8877 -0.3366  0.8946
   41CHL1   H1B 3006   4.957   1.873   4.662 -2.4951  1.7182 -0.4609
   41CHL1    C2 3007   4.825   1.751   4.558  0.0094 -0.0174 -0.5341
   41CHL1   H2A 3008   4.788   1.845   4.513 -0.5944  0.7547  1.4724
   41CHL1   H2B 3009   4.745   1.676   4.578  1.4879 -1.5891 -0.2289
   41CHL1   C20 3010   5.140   1.741   5.457  0.3507 -0.0452  0.4468
   41CHL1   H20 3011   5.093   1.642   5.473 -0.2125 -0.4358 -2.8391
   41CHL1   C21 3012   5.038   1.853   5.471 -0.3264 -0.6093 -0.1041
   41CHL1  H21A 3013   5.020   1.871   5.579  0.2340 -0.9252  0.0463
   41CHL1  H21B 3014   4.939   1.838   5.422 -0.4469 -0.8696  0.2121
   41CHL1  H21C 3015   5.072   1.945   5.418 -1.0018  1.0442  2.1828
   41CHL1   C22 3016   5.246   1.758   5.569  0.1004 -0.1636  0.2331
   41CHL1  H22A 3017   5.331   1.688   5.560  0.8813  0.9753 -1.9567
   41CHL1  H22B 3018   5.285   1.860   5.551 -1.2173  0.3889  0.3897
   41CHL1   C23 3019   5.190   1.750   5.711 -0.4343 -0.1153  0.7759
   41CHL1  H23A 3020   5.155   1.849   5.749 -1.0508  0.2813 -0.7719
   41CHL1  H23B 3021   5.102   1.683   5.718 -0.8838  0.4089  0.1988
   41CHL1   C24 3022   5.298   1.704   5.810 -0.6056 -0.3521 -0.3097
   41CHL1  H24A 3023   5.330   1.601   5.786  0.6055 -0.8947  3.0979
   41CHL1  H24B 3024   5.382   1.775   5.791 -1.4909  0.3921 -1.6938
   41CHL1   C25 3025   5.266   1.685   5.954  0.0812 -0.1298  0.0668
   41CHL1   H25 3026   5.176   1.620   5.953  1.7768 -2.7346 -3.2916
   41CHL1   C26 3027   5.381   1.615   6.012  0.0976  0.2615 -0.5119
   41CHL1  H26A 3028   5.381   1.505   5.999  1.4699 -0.0886  1.8817
   41CHL1  H26B 3029   5.484   1.652   5.988  0.9758 -0.8226  1.3691
   41CHL1  H26C 3030   5.388   1.627   6.122  1.6891  2.1849 -0.7551
   41CHL1   C27 3031   5.230   1.814   6.022  0.3616 -0.5649  0.2647
   41CHL1  H27A 3032   5.187   1.798   6.123 -1.6564  0.9854 -0.2795
   41CHL1  H27B 3033   5.320   1.878   6.031  1.7288 -2.0946 -1.5853
   41CHL1  H27C 3034   5.148   1.864   5.966 -0.1801  0.8138  2.2005
   42CHL1    C3 3035   5.717   5.278   7.702 -0.3368 -0.0153 -0.7932
   42CHL1    H3 3036   5.778   5.190   7.732  1.2618  0.4619 -2.4142
   42CHL1    O3 3037   5.658   5.335   7.817  0.4875 -0.0163 -0.0838
   42CHL1   H3' 3038   5.727   5.323   7.883  2.6624 -1.7387 -2.4524
   42CHL1    C4 3039   5.813   5.382   7.641 -0.3316 -0.2711  0.4188
   42CHL1   H4A 3040   5.756   5.475   7.623 -1.5268 -1.2794 -1.2505
   42CHL1   H4B 3041   5.890   5.402   7.719  0.9860 -1.3813 -0.5440
   42CHL1    C5 3042   5.868   5.358   7.503 -0.5087 -0.2929  0.3106
   42CHL1    C6 3043   6.001   5.390   7.464  0.7603 -0.8119 -0.4164
   42CHL1    H6 3044   6.078   5.429   7.532 -1.5822  2.6891  0.5328
   42CHL1    C7 3045   6.040   5.363   7.323  0.2391  0.5035  0.3113
   42CHL1   H7A 3046   6.102   5.444   7.280  1.7179 -0.3425  0.7660
   42CHL1   H7B 3047   6.110   5.276   7.325  1.2902  1.2148 -2.2383
   42CHL1    C8 3048   5.933   5.331   7.218 -0.3250  0.4183 -0.0244
   42CHL1    H8 3049   5.892   5.430   7.190 -1.7385 -0.2755 -0.5035
   42CHL1   C14 3050   5.987   5.255   7.097  0.0714 -0.4076  0.1327
   42CHL1   H14 3051   6.024   5.154   7.127  3.8476  0.6430 -0.4708
   42CHL1   C15 3052   6.117   5.313   7.034  0.7696  0.5386  0.0779
   42CHL1  H15A 3053   6.106   5.423   7.034  1.7796  0.6832  1.9302
   42CHL1  H15B 3054   6.202   5.282   7.099  2.1797 -0.2622 -2.0422
   42CHL1   C16 3055   6.117   5.254   6.892  0.0947 -0.2620 -0.2423
   42CHL1  H16A 3056   6.124   5.331   6.813 -0.1418  0.7500  0.7050
   42CHL1  H16B 3057   6.210   5.196   6.876  0.0784 -0.0896 -0.9661
   42CHL1   C17 3058   5.988   5.168   6.880 -0.2972 -0.0974 -0.0975
   42CHL1   H17 3059   6.009   5.067   6.923 -0.6824  0.7246  2.1258
   42CHL1   C13 3060   5.886   5.227   6.985 -0.3543  0.6836 -0.0161
   42CHL1   C18 3061   5.836   5.357   6.922 -0.2200 -0.7305 -0.1749
   42CHL1  H18A 3062   5.916   5.421   6.879 -0.6644 -1.0059 -1.4461
   42CHL1  H18B 3063   5.773   5.345   6.831  1.9017 -1.5197 -1.5854
   42CHL1  H18C 3064   5.783   5.420   6.997  0.0541 -2.3379  1.4332
   42CHL1   C12 3065   5.782   5.132   7.046 -0.2926 -0.7045 -0.4691
   42CHL1  H12A 3066   5.695   5.123   6.978 -1.2866 -2.7002  0.9539
   42CHL1  H12B 3067   5.818   5.032   7.080  1.4683  0.4627  1.3142
   42CHL1   C11 3068   5.714   5.216   7.160  0.1261  0.3634 -0.6235
   42CHL1  H11A 3069   5.670   5.310   7.120 -1.1622 -0.6201 -1.5680
   42CHL1  H11B 3070   5.631   5.154   7.200 -0.1718 -0.0296 -1.8154
   42CHL1    C9 3071   5.819   5.253   7.272  0.1250 -0.0481  0.5646
   42CHL1    H9 3072   5.860   5.156   7.308 -0.5774  0.2397  2.1816
   42CHL1   C10 3073   5.760   5.300   7.405  0.0957  0.2442 -0.1657
   42CHL1   C19 3074   5.663   5.418   7.377  0.3008  0.0954  0.4773
   42CHL1  H19A 3075   5.611   5.456   7.468 -0.6471  1.4100 -0.5660
   42CHL1  H19B 3076   5.722   5.502   7.334 -1.4949  0.5734 -1.1680
   42CHL1  H19C 3077   5.583   5.379   7.310  0.8523 -0.4343  0.1168
   42CHL1    C1 3078   5.683   5.184   7.473  0.5356  0.3718  0.0627
   42CHL1   H1A 3079   5.599   5.158   7.405 -1.1632  2.7408  1.0979
   42CHL1   H1B 3080   5.755   5.099   7.477  2.7760  2.0155 -2.0854
   42CHL1    C2 3081   5.612   5.224   7.605 -0.6035 -0.0765 -0.0531
   42CHL1   H2A 3082   5.560   5.138   7.650  0.2838 -0.4409  0.2963
   42CHL1   H2B 3083   5.540   5.305   7.583  0.2561  0.6287 -0.3628
   42CHL1   C20 3084   5.953   5.144   6.733 -0.2424 -0.1820 -0.1640
   42CHL1   H20 3085   5.928   5.239   6.681  0.5410 -0.2092 -0.5971
   42CHL1   C21 3086   5.833   5.056   6.718 -0.4383 -0.4429 -0.0194
   42CHL1  H21A 3087   5.802   5.042   6.612  0.5874  0.8291 -0.4995
   42CHL1  H21B 3088   5.754   5.107   6.777  2.3306  2.8893  1.1160
   42CHL1  H21C 3089   5.844   4.953   6.759 -0.5246 -0.1254  0.8220
   42CHL1   C22 3090   6.070   5.082   6.654  0.7652  0.3981 -0.5428
   42CHL1  H22A 3091   6.154   5.153   6.667  0.4081  0.4797  1.6435
   42CHL1  H22B 3092   6.107   4.987   6.698  0.4219  0.2498 -0.5732
   42CHL1   C23 3093   6.033   5.059   6.504  0.1685 -0.4552 -0.6049
   42CHL1  H23A 3094   6.127   5.023   6.456  0.7525  0.9350 -0.5645
   42CHL1  H23B 3095   5.957   4.978   6.504 -1.9535  1.3921  1.5167
   42CHL1   C24 3096   5.983   5.176   6.415 -0.3453 -0.9242 -0.1035
   42CHL1  H24A 3097   5.897   5.225   6.464 -0.7492 -0.2001 -1.4987
   42CHL1  H24B 3098   6.063   5.254   6.411  0.5311 -1.8328 -0.9422
   42CHL1   C25 3099   5.958   5.157   6.265 -0.6940 -0.1033 -0.1978
   42CHL1   H25 3100   5.919   5.246   6.211 -0.3340  0.0151 -0.2678
   42CHL1   C26 3101   6.095   5.136   6.200  0.2924  0.5643  0.4613
   42CHL1  H26A 3102   6.164   5.223   6.200 -1.8903  2.3960 -0.5163
   42CHL1  H26B 3103   6.145   5.048   6.246  2.7071  1.6399  0.0305
   42CHL1  H26C 3104   6.087   5.109   6.092 -0.5946 -0.9741  0.8734
   42CHL1   C27 3105   5.876   5.035   6.237  0.0413 -0.0360  0.4383
   42CHL1  H27A 3106   5.849   5.009   6.132 -0.4594  2.0700  0.0130
   42CHL1  H27B 3107   5.918   4.947   6.290 -2.1601 -1.1877  0.4179
   42CHL1  H27C 3108   5.786   5.051   6.301  0.3904 -1.9062  1.4630
   43CHL1    C3 3109   1.441   4.902   3.974 -0.2963  0.0124 -0.4538
   43CHL1    H3 3110   1.427   4.794   3.954 -0.0913  0.0835 -0.9773
   43CHL1    O3 3111   1.476   4.971   3.861 -0.7512  0.4032 -0.3545
   43CHL1   H3' 3112   1.495   5.056   3.902  1.1183 -0.9728  1.8908
   43CHL1    C4 3113   1.320   4.965   4.042  0.1420  0.6150  0.0215
   43CHL1   H4A 3114   1.347   5.072   4.054  3.2293 -0.0396 -0.3324
   43CHL1   H4B 3115   1.238   4.955   3.968 -0.8459  1.3548  0.9942
   43CHL1    C5 3116   1.283   4.898   4.172 -0.0463 -0.0104  0.4599
   43CHL1    C6 3117   1.162   4.851   4.195 -0.0413 -0.9109 -0.2465
   43CHL1    H6 3118   1.085   4.879   4.122 -1.2573 -3.2095  0.0662
   43CHL1    C7 3119   1.122   4.782   4.323  0.1589  0.0792 -0.2021
   43CHL1   H7A 3120   1.031   4.831   4.365  0.0551  0.6342 -1.0406
   43CHL1   H7B 3121   1.113   4.674   4.302 -1.1984  0.2480 -0.6217
   43CHL1    C8 3122   1.226   4.800   4.440  0.2604  0.0763 -0.2130
   43CHL1    H8 3123   1.210   4.902   4.481  0.3798  0.1145 -0.2586
   43CHL1   C14 3124   1.208   4.697   4.544 -0.0978 -0.1094  0.0592
   43CHL1   H14 3125   1.235   4.601   4.494  0.4060  0.6290 -1.1236
   43CHL1   C15 3126   1.070   4.679   4.605 -0.4305 -0.1508  0.5974
   43CHL1  H15A 3127   1.028   4.778   4.631 -1.4532 -0.9570  2.2053
   43CHL1  H15B 3128   0.999   4.627   4.536  3.7692 -1.8077 -2.9290
   43CHL1   C16 3129   1.088   4.602   4.739  0.4597 -0.0109 -0.5107
   43CHL1  H16A 3130   1.038   4.652   4.825  3.8789  1.2612  0.9229
   43CHL1  H16B 3131   1.041   4.506   4.711  0.1569 -0.3368  1.0474
   43CHL1   C17 3132   1.239   4.598   4.763  0.0384 -0.5660  0.4550
   43CHL1   H17 3133   1.265   4.495   4.728 -0.8974 -1.6739  2.8008
   43CHL1   C13 3134   1.298   4.704   4.663  0.4067  0.1749 -0.3846
   43CHL1   C18 3135   1.287   4.841   4.730 -0.2477  0.1891  0.2443
   43CHL1  H18A 3136   1.304   4.921   4.654  0.4712 -1.2669 -1.2045
   43CHL1  H18B 3137   1.187   4.862   4.773  0.1462  1.3453  0.6291
   43CHL1  H18C 3138   1.358   4.860   4.813 -0.6224 -2.3542  1.2431
   43CHL1   C12 3139   1.441   4.683   4.604  0.5865  0.2673 -0.5632
   43CHL1  H12A 3140   1.526   4.703   4.673  0.0331  0.1964  0.1521
   43CHL1  H12B 3141   1.454   4.578   4.570  0.9345  0.6203 -1.5505
   43CHL1   C11 3142   1.474   4.784   4.491  0.3609 -0.0607 -0.2617
   43CHL1  H11A 3143   1.475   4.886   4.534 -0.2117  0.2700 -1.0121
   43CHL1  H11B 3144   1.576   4.762   4.454  1.8167 -0.3243  3.4590
   43CHL1    C9 3145   1.366   4.781   4.385  0.2671 -0.2185 -0.5522
   43CHL1    H9 3146   1.370   4.680   4.341 -0.0679  0.8583 -3.2049
   43CHL1   C10 3147   1.403   4.879   4.270 -0.2156  0.3730  0.7680
   43CHL1   C19 3148   1.436   5.022   4.322  0.0388 -0.3199 -0.0564
   43CHL1  H19A 3149   1.368   5.055   4.403  0.3847 -1.4569  0.7309
   43CHL1  H19B 3150   1.532   5.023   4.377 -0.0836  0.2311  0.1467
   43CHL1  H19C 3151   1.432   5.097   4.240 -1.1920 -0.2294  0.0662
   43CHL1    C1 3152   1.530   4.821   4.198  0.1840 -0.1499  0.2193
   43CHL1   H1A 3153   1.618   4.827   4.266  1.0467 -1.3545 -0.7316
   43CHL1   H1B 3154   1.517   4.714   4.173  1.2091  0.0670 -1.4146
   43CHL1    C2 3155   1.565   4.894   4.065  0.1616  0.0138  0.2890
   43CHL1   H2A 3156   1.654   4.847   4.016  0.5853  0.1281  0.9283
   43CHL1   H2B 3157   1.601   4.997   4.088  2.7339 -0.6303 -0.5025
   43CHL1   C20 3158   1.281   4.612   4.910  0.3785 -0.2840 -0.4465
   43CHL1   H20 3159   1.252   4.709   4.955  0.6740 -1.1740  1.8609
   43CHL1   C21 3160   1.433   4.598   4.923  0.2315  0.3201  0.9236
   43CHL1  H21A 3161   1.468   4.504   4.875  1.4881  0.6489  1.1671
   43CHL1  H21B 3162   1.471   4.589   5.028 -1.3767 -2.3616  1.3755
   43CHL1  H21C 3163   1.486   4.680   4.870  1.3578 -1.7648 -1.3739
   43CHL1   C22 3164   1.199   4.507   4.999 -0.2675  0.4120 -0.2760
   43CHL1  H22A 3165   1.089   4.528   4.998 -0.7485 -1.8813 -0.5705
   43CHL1  H22B 3166   1.213   4.403   4.963 -0.5967  0.7090 -1.3265
   43CHL1   C23 3167   1.244   4.515   5.140  0.4437  0.2775 -0.4778
   43CHL1  H23A 3168   1.346   4.477   5.162 -0.0160 -0.2544  0.8414
   43CHL1  H23B 3169   1.229   4.620   5.175  2.2170 -0.1587  1.7795
   43CHL1   C24 3170   1.154   4.417   5.219  0.2311 -0.1413  0.7073
   43CHL1  H24A 3171   1.045   4.430   5.207  0.2055 -0.8711  0.0454
   43CHL1  H24B 3172   1.166   4.310   5.192  0.5908 -0.3893  1.7725
   43CHL1   C25 3173   1.196   4.417   5.370 -0.1080 -0.3058 -0.5698
   43CHL1   H25 3174   1.307   4.415   5.370  0.0065  2.4894 -0.3803
   43CHL1   C26 3175   1.158   4.542   5.443  0.2294 -0.4862 -0.1703
   43CHL1  H26A 3176   1.204   4.528   5.543 -0.1424 -1.0080 -0.0661
   43CHL1  H26B 3177   1.200   4.636   5.403 -0.3497 -0.8021 -1.5734
   43CHL1  H26C 3178   1.047   4.551   5.450  0.3588  2.1713 -0.7851
   43CHL1   C27 3179   1.145   4.294   5.445  0.1657 -0.4282  0.2772
   43CHL1  H27A 3180   1.036   4.293   5.423  0.1377  1.3813  0.1735
   43CHL1  H27B 3181   1.191   4.214   5.383 -0.1246 -0.6719  0.3749
   43CHL1  H27C 3182   1.178   4.278   5.550 -2.4428 -1.4241  1.0191
   44CHL1    C3 3183   2.200   3.214   4.142  0.2688  0.1075 -0.2857
   44CHL1    H3 3184   2.234   3.109   4.154 -0.3068  0.0236  0.6533
   44CHL1    O3 3185   2.204   3.227   4.002  0.1981 -0.1010  0.0904
   44CHL1   H3' 3186   2.151   3.156   3.965 -1.1094  0.6954  0.4051
   44CHL1    C4 3187   2.055   3.219   4.195  0.2327  0.0425  0.2804
   44CHL1   H4A 3188   2.023   3.316   4.152 -0.3353  0.2867  1.2209
   44CHL1   H4B 3189   1.998   3.133   4.153  0.8294 -0.2435  0.0348
   44CHL1    C5 3190   2.051   3.222   4.350 -0.4215  0.2886 -0.1945
   44CHL1    C6 3191   1.976   3.143   4.421  0.0569 -0.5727  0.3744
   44CHL1    H6 3192   1.915   3.069   4.367 -1.8571  3.1704 -3.1344
   44CHL1    C7 3193   1.958   3.148   4.572  0.2573 -0.2506 -0.7391
   44CHL1   H7A 3194   1.848   3.145   4.587  0.3491  0.8771  0.3313
   44CHL1   H7B 3195   2.009   3.059   4.614  0.3829  0.5912  0.9726
   44CHL1    C8 3196   2.009   3.268   4.640  0.1796  0.1521  0.1289
   44CHL1    H8 3197   1.929   3.341   4.620 -1.3458 -1.0427  1.6172
   44CHL1   C14 3198   2.038   3.243   4.787 -0.1421 -0.1250 -0.1182
   44CHL1   H14 3199   2.112   3.159   4.791  2.0187  1.6344 -0.8644
   44CHL1   C15 3200   1.922   3.190   4.875 -0.8800  0.2299  0.1393
   44CHL1  H15A 3201   1.833   3.254   4.857 -0.0974  0.8772 -1.6015
   44CHL1  H15B 3202   1.906   3.081   4.860 -0.0255  0.2155 -0.7182
   44CHL1   C16 3203   1.968   3.215   5.020 -0.5052 -0.1222  0.0777
   44CHL1  H16A 3204   1.895   3.275   5.078  0.4037  0.4560  0.6622
   44CHL1  H16B 3205   2.000   3.121   5.071 -1.6816  0.7494  2.5951
   44CHL1   C17 3206   2.093   3.314   5.016 -0.3348 -0.2629 -0.0299
   44CHL1   H17 3207   2.180   3.247   5.028 -0.2659 -0.2609 -0.4871
   44CHL1   C13 3208   2.095   3.366   4.870 -0.6674  0.3360 -0.1672
   44CHL1   C18 3209   1.991   3.477   4.854  0.4063 -1.0646  0.1002
   44CHL1  H18A 3210   2.020   3.572   4.905  1.0128 -0.8283 -0.6675
   44CHL1  H18B 3211   1.984   3.512   4.749  4.5311  1.9262  0.5852
   44CHL1  H18C 3212   1.898   3.453   4.910  1.4190 -2.6296  1.2336
   44CHL1   C12 3213   2.230   3.405   4.805 -0.4243  0.6676  0.1760
   44CHL1  H12A 3214   2.267   3.501   4.848 -0.7808  0.2265  1.5313
   44CHL1  H12B 3215   2.298   3.322   4.834 -1.5943  0.2749  2.0074
   44CHL1   C11 3216   2.212   3.431   4.656 -0.2746  0.0528  1.2544
   44CHL1  H11A 3217   2.149   3.521   4.640  1.1507  0.7040 -1.2468
   44CHL1  H11B 3218   2.315   3.443   4.616 -0.2905 -0.6537  0.9956
   44CHL1    C9 3219   2.143   3.310   4.580  0.3331  0.8070  0.3122
   44CHL1    H9 3220   2.206   3.223   4.610 -0.6218 -0.9591 -2.3950
   44CHL1   C10 3221   2.143   3.326   4.421 -0.2796 -0.2287 -0.6309
   44CHL1   C19 3222   2.097   3.466   4.387  0.0652 -0.1311 -0.0962
   44CHL1  H19A 3223   1.992   3.478   4.419  0.0372  0.5356 -0.4194
   44CHL1  H19B 3224   2.155   3.544   4.441 -2.0441  0.3142  1.6498
   44CHL1  H19C 3225   2.099   3.489   4.278 -0.8939  0.0713 -0.0800
   44CHL1    C1 3226   2.292   3.303   4.375 -0.3550  0.8964  0.3248
   44CHL1   H1A 3227   2.360   3.383   4.410 -0.6770  1.2660  0.1076
   44CHL1   H1B 3228   2.335   3.207   4.410  0.1169  0.5762 -1.0835
   44CHL1    C2 3229   2.297   3.307   4.217 -0.4082  0.0685 -0.5907
   44CHL1   H2A 3230   2.400   3.277   4.187  1.0217  2.0733  1.9678
   44CHL1   H2B 3231   2.282   3.413   4.189  0.7668  0.3469 -0.2104
   44CHL1   C20 3232   2.105   3.400   5.148 -0.1604 -0.0182 -0.8106
   44CHL1   H20 3233   2.013   3.461   5.159 -0.1664  0.2980 -2.3204
   44CHL1   C21 3234   2.234   3.482   5.136 -0.2630 -0.1026  0.0707
   44CHL1  H21A 3235   2.318   3.409   5.129 -0.5846 -0.4138 -0.5870
   44CHL1  H21B 3236   2.259   3.535   5.230  1.6378  0.0187 -0.4434
   44CHL1  H21C 3237   2.232   3.557   5.055  0.0031 -1.8896 -1.6799
   44CHL1   C22 3238   2.115   3.314   5.277 -0.0360 -0.1798 -0.3632
   44CHL1  H22A 3239   2.053   3.222   5.275 -2.1080  1.1487 -0.2359
   44CHL1  H22B 3240   2.222   3.286   5.287  0.1459  0.7376  0.4589
   44CHL1   C23 3241   2.066   3.385   5.406  0.4542  0.0440 -0.6254
   44CHL1  H23A 3242   2.102   3.490   5.406 -2.0572  0.9847 -0.2703
   44CHL1  H23B 3243   1.955   3.394   5.404  0.2469 -0.9359  2.0551
   44CHL1   C24 3244   2.116   3.333   5.535  0.3257 -0.0762 -0.2463
   44CHL1  H24A 3245   2.080   3.229   5.551  1.3836 -0.2535  1.1601
   44CHL1  H24B 3246   2.227   3.327   5.534  0.3290 -0.0385 -0.8869
   44CHL1   C25 3247   2.060   3.414   5.654 -0.6145 -0.0233 -0.0663
   44CHL1   H25 3248   2.069   3.523   5.632 -0.5357  0.6467  2.8819
   44CHL1   C26 3249   1.913   3.387   5.665 -0.3987 -0.1522  0.2852
   44CHL1  H26A 3250   1.861   3.449   5.742  0.0717 -2.8178  2.9277
   44CHL1  H26B 3251   1.853   3.407   5.573 -2.2907 -0.2590  1.4291
   44CHL1  H26C 3252   1.889   3.282   5.693  1.1704 -0.5251  0.2923
   44CHL1   C27 3253   2.135   3.368   5.777 -0.1262 -0.2788 -0.5234
   44CHL1  H27A 3254   2.079   3.408   5.864  1.0743  1.1992 -0.3830
   44CHL1  H27B 3255   2.133   3.257   5.776 -1.7476 -0.3097  0.8324
   44CHL1  H27C 3256   2.240   3.404   5.771  0.5195 -1.7209  1.2253
   45CHL1    C3 3257   3.744   6.585   4.281  0.4764 -0.4143  0.2719
   45CHL1    H3 3258   3.682   6.668   4.321 -0.2065  0.7708 -2.9458
   45CHL1    O3 3259   3.736   6.588   4.141  0.1658 -0.2988 -0.0596
   45CHL1   H3' 3260   3.767   6.503   4.110 -1.8139 -0.8206 -0.8110
   45CHL1    C4 3261   3.887   6.613   4.334  0.2292  0.1828  0.2190
   45CHL1   H4A 3262   3.951   6.534   4.289 -0.8725 -0.5174 -0.1697
   45CHL1   H4B 3263   3.923   6.709   4.293 -1.0951  0.3406 -0.6210
   45CHL1    C5 3264   3.897   6.609   4.486  0.5549  0.4571  0.2032
   45CHL1    C6 3265   3.958   6.709   4.555  0.0820  0.6827 -0.1058
   45CHL1    H6 3266   4.004   6.787   4.494 -1.6909  1.9376  0.0904
   45CHL1    C7 3267   3.970   6.713   4.706  0.3560  0.3712  0.2843
   45CHL1   H7A 3268   4.068   6.746   4.747  1.2114 -0.1024 -1.3103
   45CHL1   H7B 3269   3.891   6.788   4.730 -2.1605 -1.5539 -1.3972
   45CHL1    C8 3270   3.929   6.575   4.775 -0.5007  0.9273  1.0345
   45CHL1    H8 3271   4.014   6.508   4.749 -1.7326 -0.9936  1.7394
   45CHL1   C14 3272   3.914   6.584   4.930  0.0339 -0.1687 -0.1676
   45CHL1   H14 3273   3.819   6.638   4.951  1.4664  1.6794  2.1556
   45CHL1   C15 3274   4.016   6.661   5.020  0.0060 -0.2174  0.6523
   45CHL1  H15A 3275   4.118   6.636   4.984 -0.6322 -0.5846 -1.0154
   45CHL1  H15B 3276   4.008   6.772   5.028  2.3460 -0.0742  1.5388
   45CHL1   C16 3277   4.001   6.602   5.157 -0.0259 -0.5981 -0.3912
   45CHL1  H16A 3278   4.103   6.571   5.187 -0.1463  0.6736  1.5030
   45CHL1  H16B 3279   3.974   6.678   5.233  1.2169  1.4436 -1.8681
   45CHL1   C17 3280   3.895   6.490   5.151  0.1526 -0.8454  0.6462
   45CHL1   H17 3281   3.794   6.535   5.166 -1.2834 -2.7879 -2.2173
   45CHL1   C13 3282   3.888   6.451   5.000  0.7820  0.1024 -0.0901
   45CHL1   C18 3283   4.001   6.348   4.981 -0.7138  0.2380  0.5017
   45CHL1  H18A 3284   4.030   6.335   4.874 -1.3947  2.9665 -0.0824
   45CHL1  H18B 3285   4.097   6.381   5.024  0.2170  0.6971 -1.7567
   45CHL1  H18C 3286   3.981   6.243   5.012  1.3874 -1.4648 -3.2189
   45CHL1   C12 3287   3.759   6.386   4.935  0.4017 -0.2882 -0.4780
   45CHL1  H12A 3288   3.732   6.286   4.974  0.7629 -0.5756 -0.9470
   45CHL1  H12B 3289   3.670   6.451   4.948  0.2293 -0.5946 -0.1194
   45CHL1   C11 3290   3.767   6.375   4.784 -0.0707  0.3558 -0.6488
   45CHL1  H11A 3291   3.851   6.304   4.769 -0.2609  0.2314 -1.1528
   45CHL1  H11B 3292   3.669   6.332   4.754  0.9996 -3.1955  0.4753
   45CHL1    C9 3293   3.810   6.508   4.710  0.2295  0.4496 -0.8523
   45CHL1    H9 3294   3.739   6.590   4.734  0.6770  0.3439  1.0210
   45CHL1   C10 3295   3.827   6.489   4.556  0.7756  0.0630 -0.6501
   45CHL1   C19 3296   3.931   6.377   4.522 -0.2013 -0.2988 -0.5032
   45CHL1  H19A 3297   3.940   6.378   4.412 -1.0834  1.4765 -0.5893
   45CHL1  H19B 3298   4.029   6.382   4.573 -0.3243  2.8540 -0.3585
   45CHL1  H19C 3299   3.899   6.274   4.550  3.0199 -1.4828 -0.7701
   45CHL1    C1 3300   3.686   6.466   4.495  0.4237 -0.8058 -0.1832
   45CHL1   H1A 3301   3.633   6.372   4.524  0.1693 -0.6985 -0.2989
   45CHL1   H1B 3302   3.612   6.540   4.530  0.0952 -1.4363  0.4753
   45CHL1    C2 3303   3.690   6.455   4.330 -0.2732  0.0782 -0.0192
   45CHL1   H2A 3304   3.584   6.433   4.305 -1.4347  2.8650  1.8986
   45CHL1   H2B 3305   3.759   6.371   4.307  0.7291  1.3635 -1.9484
   45CHL1   C20 3306   3.911   6.382   5.261 -0.4602 -0.0832 -0.2783
   45CHL1   H20 3307   4.003   6.326   5.235 -0.6078 -0.3563 -0.2186
   45CHL1   C21 3308   3.800   6.278   5.255 -0.0580  0.5748  0.4014
   45CHL1  H21A 3309   3.701   6.329   5.251 -0.2103  0.5106  2.6075
   45CHL1  H21B 3310   3.814   6.206   5.337  1.4831  1.6629  1.1439
   45CHL1  H21C 3311   3.806   6.227   5.156  0.9032  0.2282  0.6293
   45CHL1   C22 3312   3.931   6.442   5.411 -0.4639 -0.4415  1.1414
   45CHL1  H22A 3313   4.010   6.519   5.410  2.0377 -2.8428  1.2278
   45CHL1  H22B 3314   3.830   6.473   5.446 -0.7669 -0.1141  0.0099
   45CHL1   C23 3315   3.999   6.335   5.507 -0.3394 -0.2450 -0.4499
   45CHL1  H23A 3316   3.922   6.268   5.552 -0.2251  0.0379  0.1804
   45CHL1  H23B 3317   4.067   6.269   5.449  1.4301 -0.4172  1.6868
   45CHL1   C24 3318   4.089   6.386   5.622 -0.1483 -0.3681 -0.7265
   45CHL1  H24A 3319   4.151   6.298   5.649 -2.6689 -2.3645 -0.9956
   45CHL1  H24B 3320   4.162   6.456   5.576 -0.2474 -0.8397 -1.6277
   45CHL1   C25 3321   4.009   6.460   5.732  0.1953  0.0009 -0.4976
   45CHL1   H25 3322   3.956   6.541   5.678  0.5643  0.1086 -0.7041
   45CHL1   C26 3323   3.916   6.367   5.813  0.2843  0.5593 -0.1360
   45CHL1  H26A 3324   3.962   6.285   5.872 -1.5255 -0.4258 -0.0528
   45CHL1  H26B 3325   3.858   6.425   5.888  0.9640  1.9867 -0.6631
   45CHL1  H26C 3326   3.834   6.330   5.748  0.8888 -2.4338  0.6665
   45CHL1   C27 3327   4.110   6.538   5.827  0.3822  0.0319 -0.2890
   45CHL1  H27A 3328   4.052   6.622   5.871 -0.2442 -0.3517 -0.3661
   45CHL1  H27B 3329   4.153   6.475   5.908  0.6190  3.0082  2.1010
   45CHL1  H27C 3330   4.201   6.571   5.772  1.0972 -1.3437  0.0280
   46CHL1    C3 3331   2.783   0.608   4.409 -0.0274  0.3745 -0.3485
   46CHL1    H3 3332   2.886   0.586   4.444  0.0873 -1.7600 -1.8806
   46CHL1    O3 3333   2.809   0.653   4.278  0.5185  0.1065 -0.2385
   46CHL1   H3' 3334   2.770   0.738   4.257 -1.5464 -0.5499  0.7202
   46CHL1    C4 3335   2.711   0.469   4.417  0.2248 -0.2833  0.5287
   46CHL1   H4A 3336   2.624   0.487   4.350  0.6212  0.0753  0.1050
   46CHL1   H4B 3337   2.774   0.391   4.370 -1.7578  0.2269 -3.3153
   46CHL1    C5 3338   2.671   0.424   4.558  1.2623 -0.4807  0.2684
   46CHL1    C6 3339   2.677   0.290   4.596  0.3027  0.1898 -0.2519
   46CHL1    H6 3340   2.708   0.208   4.529 -0.6149 -1.8507  1.7000
   46CHL1    C7 3341   2.632   0.245   4.732  0.7440 -0.1247  0.3617
   46CHL1   H7A 3342   2.582   0.145   4.727  0.6245 -0.0325 -0.4060
   46CHL1   H7B 3343   2.728   0.225   4.784  0.9432  0.2860  0.1557
   46CHL1    C8 3344   2.545   0.346   4.811 -0.5183 -0.5890 -0.0232
   46CHL1    H8 3345   2.441   0.334   4.773 -0.4430 -0.0021 -0.4326
   46CHL1   C14 3346   2.552   0.311   4.960  0.0213 -0.2704 -0.1877
   46CHL1   H14 3347   2.661   0.308   4.983 -0.0688  0.2401  0.3486
   46CHL1   C15 3348   2.501   0.174   5.007  0.3862 -0.1237 -0.2038
   46CHL1  H15A 3349   2.397   0.158   4.972  0.0940  2.5934 -0.8282
   46CHL1  H15B 3350   2.566   0.096   4.962 -0.1864 -1.9765  2.0126
   46CHL1   C16 3351   2.501   0.174   5.156 -0.1242 -0.4642 -0.5206
   46CHL1  H16A 3352   2.401   0.138   5.186 -0.9146 -0.7597 -3.2536
   46CHL1  H16B 3353   2.577   0.097   5.185  1.5773  0.4642 -2.2858
   46CHL1   C17 3354   2.535   0.324   5.197 -0.0756 -0.2938 -0.9090
   46CHL1   H17 3355   2.646   0.319   5.199 -0.0385 -0.4814 -2.3533
   46CHL1   C13 3356   2.500   0.406   5.069  0.4651  0.0820 -0.3612
   46CHL1   C18 3357   2.344   0.423   5.058  0.5779  0.1480  0.3835
   46CHL1  H18A 3358   2.303   0.426   4.955 -0.8094  0.1944  0.9238
   46CHL1  H18B 3359   2.286   0.352   5.121 -0.3451  2.1161  1.8171
   46CHL1  H18C 3360   2.315   0.520   5.101  1.2111 -0.6755  2.8212
   46CHL1   C12 3361   2.570   0.542   5.043  0.7543 -0.8378 -0.1306
   46CHL1  H12A 3362   2.519   0.612   5.113  0.4377 -0.3743 -0.8252
   46CHL1  H12B 3363   2.677   0.519   5.062  0.2242 -2.1016  1.5410
   46CHL1   C11 3364   2.550   0.593   4.904 -0.1726  0.2899  0.0115
   46CHL1  H11A 3365   2.442   0.608   4.883 -0.3117  1.4279  1.3533
   46CHL1  H11B 3366   2.602   0.691   4.889  0.5254 -0.2067 -0.9234
   46CHL1    C9 3367   2.601   0.487   4.796  0.8166 -0.3733 -0.1305
   46CHL1    H9 3368   2.709   0.473   4.818  0.7401  2.3932  2.7508
   46CHL1   C10 3369   2.607   0.533   4.652 -0.1905  0.7741  0.7979
   46CHL1   C19 3370   2.469   0.571   4.607  1.1711  0.1646  0.6116
   46CHL1  H19A 3371   2.429   0.656   4.667 -4.2060 -1.8590  0.4809
   46CHL1  H19B 3372   2.463   0.598   4.500 -1.4511  0.5582  0.8001
   46CHL1  H19C 3373   2.405   0.482   4.623  0.8230 -0.2240 -2.3797
   46CHL1    C1 3374   2.709   0.650   4.638 -0.2073  0.7315 -0.1689
   46CHL1   H1A 3375   2.699   0.732   4.712  2.7312 -0.3303  1.5922
   46CHL1   H1B 3376   2.807   0.603   4.659 -2.1573 -3.6717  0.2855
   46CHL1    C2 3377   2.713   0.710   4.500  0.6911  0.5916  0.2381
   46CHL1   H2A 3378   2.765   0.809   4.502  1.0458  0.4278 -0.6665
   46CHL1   H2B 3379   2.613   0.736   4.459 -0.5193 -2.1463  1.1962
   46CHL1   C20 3380   2.474   0.364   5.337  0.4591 -0.9254  0.5064
   46CHL1   H20 3381   2.363   0.365   5.329  0.3148  1.7708  1.8331
   46CHL1   C21 3382   2.521   0.497   5.374 -0.1717 -0.0058  0.2998
   46CHL1  H21A 3383   2.462   0.527   5.464 -0.2851  5.0588 -1.1303
   46CHL1  H21B 3384   2.497   0.589   5.316  0.1382  1.2779  2.1063
   46CHL1  H21C 3385   2.631   0.498   5.393 -0.2795 -0.5539  1.0080
   46CHL1   C22 3386   2.520   0.263   5.446 -0.0743 -0.5630  0.9589
   46CHL1  H22A 3387   2.477   0.291   5.545 -0.7407 -1.9683  1.0842
   46CHL1  H22B 3388   2.478   0.163   5.424 -1.4941  0.1955  0.0996
   46CHL1   C23 3389   2.667   0.232   5.452  0.1621  0.3966 -0.0863
   46CHL1  H23A 3390   2.697   0.165   5.368 -0.9570  0.5152 -0.5920
   46CHL1  H23B 3391   2.727   0.326   5.442  1.9462 -0.8020 -1.5186
   46CHL1   C24 3392   2.708   0.148   5.581  0.2081 -0.1378 -0.2021
   46CHL1  H24A 3393   2.637   0.166   5.664  1.3628  0.2994  0.7232
   46CHL1  H24B 3394   2.693   0.043   5.548 -2.0757 -0.1844  0.8333
   46CHL1   C25 3395   2.851   0.152   5.641 -0.2592  0.3986 -0.1080
   46CHL1   H25 3396   2.863   0.064   5.709 -0.5962  0.4330 -0.0029
   46CHL1   C26 3397   2.941   0.118   5.523  0.8717 -0.3276 -0.4988
   46CHL1  H26A 3398   3.042   0.094   5.561  0.8303  0.7117  0.3213
   46CHL1  H26B 3399   2.917   0.020   5.476  1.8638 -0.2433 -1.1940
   46CHL1  H26C 3400   2.936   0.200   5.448  1.8493 -1.0437 -1.3701
   46CHL1   C27 3401   2.898   0.281   5.713  0.1401  0.3984 -0.8197
   46CHL1  H27A 3402   2.814   0.329   5.769  0.7017 -1.1630  1.4888
   46CHL1  H27B 3403   2.976   0.263   5.790  0.8241  1.7769 -1.1611
   46CHL1  H27C 3404   2.934   0.345   5.629  0.0183  0.0468 -1.1448
   47CHL1    C3 3405   2.303   2.883   4.337  0.3430 -0.4392 -1.1122
   47CHL1    H3 3406   2.265   2.987   4.337 -0.8851 -0.8545  0.2558
   47CHL1    O3 3407   2.313   2.835   4.206  0.0454 -0.4453 -1.0249
   47CHL1   H3' 3408   2.347   2.746   4.219 -0.3515 -0.3506  1.1483
   47CHL1    C4 3409   2.443   2.879   4.402  0.5226 -0.2933  0.0984
   47CHL1   H4A 3410   2.485   2.777   4.388 -0.2290 -0.6294  0.2693
   47CHL1   H4B 3411   2.517   2.947   4.354  0.8125  0.2992  1.3558
   47CHL1    C5 3412   2.447   2.908   4.550 -0.4082  0.1987  0.7408
   47CHL1    C6 3413   2.521   3.015   4.594  0.1525  0.9378 -0.3878
   47CHL1    H6 3414   2.582   3.074   4.524  0.2421  0.8812 -0.3574
   47CHL1    C7 3415   2.532   3.055   4.741  0.0582 -0.2748 -0.2715
   47CHL1   H7A 3416   2.637   3.066   4.777 -0.2155 -1.0704  0.8374
   47CHL1   H7B 3417   2.474   3.148   4.760 -0.9829 -1.5919  4.6045
   47CHL1    C8 3418   2.472   2.952   4.840  0.9567 -0.5473  0.0707
   47CHL1    H8 3419   2.541   2.866   4.856 -0.5251 -1.4134  2.3205
   47CHL1   C14 3420   2.438   3.013   4.977 -0.1090 -0.0257  0.2332
   47CHL1   H14 3421   2.368   3.099   4.967 -2.3826 -1.4623  2.4188
   47CHL1   C15 3422   2.563   3.074   5.048  0.0962 -0.8225  0.4943
   47CHL1  H15A 3423   2.639   2.996   5.070  0.8455  0.2255  1.7383
   47CHL1  H15B 3424   2.601   3.158   4.985 -2.4155  0.9196  1.1298
   47CHL1   C16 3425   2.501   3.115   5.184  0.3480 -0.4121 -0.1457
   47CHL1  H16A 3426   2.562   3.105   5.276  0.7744 -0.4448 -0.4317
   47CHL1  H16B 3427   2.481   3.223   5.170  0.2822 -0.6110 -1.7936
   47CHL1   C17 3428   2.373   3.032   5.202 -0.1065 -0.9034 -0.2163
   47CHL1   H17 3429   2.281   3.093   5.190 -0.6585 -1.0060  2.7243
   47CHL1   C13 3430   2.366   2.930   5.083 -0.2325  0.2222 -0.7566
   47CHL1   C18 3431   2.456   2.808   5.132 -0.1175 -0.4063  0.4377
   47CHL1  H18A 3432   2.540   2.833   5.200  1.7141  0.4729 -1.9801
   47CHL1  H18B 3433   2.387   2.735   5.179 -0.2488 -0.9767 -0.5930
   47CHL1  H18C 3434   2.518   2.758   5.054  0.4809 -0.4607  0.9403
   47CHL1   C12 3435   2.231   2.890   5.016 -0.7439 -0.2776 -0.1200
   47CHL1  H12A 3436   2.162   2.826   5.075 -0.5353 -0.9046 -0.5589
   47CHL1  H12B 3437   2.187   2.989   4.988 -0.3310  0.3871  1.4761
   47CHL1   C11 3438   2.253   2.815   4.884  0.2497 -0.5907 -0.1630
   47CHL1  H11A 3439   2.303   2.719   4.910  1.0428  0.3814  2.1537
   47CHL1  H11B 3440   2.156   2.787   4.838  1.7923 -2.3780 -2.6215
   47CHL1    C9 3441   2.343   2.895   4.783 -0.0095 -1.1883  0.6786
   47CHL1    H9 3442   2.275   2.982   4.769 -0.4837 -1.4809  1.1078
   47CHL1   C10 3443   2.360   2.830   4.643  0.0814  0.5676 -0.9246
   47CHL1   C19 3444   2.407   2.684   4.662  0.7298  0.0043 -0.0076
   47CHL1  H19A 3445   2.414   2.642   4.560  1.8522 -0.0876  0.0990
   47CHL1  H19B 3446   2.507   2.671   4.710  1.1010  1.4599 -0.3502
   47CHL1  H19C 3447   2.333   2.613   4.705  1.8040 -1.5609 -0.6571
   47CHL1    C1 3448   2.222   2.838   4.574  0.7217 -0.5238  0.0387
   47CHL1   H1A 3449   2.153   2.766   4.622  0.8945 -0.5383  0.2664
   47CHL1   H1B 3450   2.174   2.937   4.588  1.8022 -0.1416  1.1390
   47CHL1    C2 3451   2.213   2.801   4.427 -0.2692  0.4762  0.6075
   47CHL1   H2A 3452   2.108   2.794   4.393  0.2984 -0.1339 -1.1737
   47CHL1   H2B 3453   2.260   2.700   4.423 -0.6342  0.3468 -0.9427
   47CHL1   C20 3454   2.337   2.971   5.346  0.3087  0.6357 -0.3174
   47CHL1   H20 3455   2.423   2.905   5.370  1.7293  2.6048  0.2801
   47CHL1   C21 3456   2.197   2.901   5.362  0.9098 -0.5722  0.1482
   47CHL1  H21A 3457   2.177   2.857   5.462 -0.3740  1.4443  0.8424
   47CHL1  H21B 3458   2.177   2.826   5.283  1.2270  0.6185 -1.1001
   47CHL1  H21C 3459   2.119   2.977   5.336  2.7716  0.8896 -1.4285
   47CHL1   C22 3460   2.342   3.072   5.461  0.0642 -0.2216  0.1181
   47CHL1  H22A 3461   2.359   3.165   5.402 -0.5952 -0.1127  0.0874
   47CHL1  H22B 3462   2.242   3.077   5.509 -0.3508 -0.2951 -0.7173
   47CHL1   C23 3463   2.453   3.053   5.565  0.7290  0.3973 -0.3514
   47CHL1  H23A 3464   2.430   2.978   5.644  2.5093 -0.4671 -0.6098
   47CHL1  H23B 3465   2.549   3.018   5.522  1.1241 -0.6516  1.3037
   47CHL1   C24 3466   2.464   3.183   5.645 -0.6607  0.6267 -0.3323
   47CHL1  H24A 3467   2.485   3.265   5.573  2.0947 -0.3314 -0.7163
   47CHL1  H24B 3468   2.370   3.201   5.702 -0.9856 -0.3774 -0.5381
   47CHL1   C25 3469   2.570   3.190   5.763 -0.0580 -0.1509 -1.4804
   47CHL1   H25 3470   2.560   3.103   5.832 -0.0602  1.4443  0.6380
   47CHL1   C26 3471   2.711   3.194   5.705  0.4094  0.7720 -0.7474
   47CHL1  H26A 3472   2.725   3.095   5.656  0.5297  1.8423 -2.9918
   47CHL1  H26B 3473   2.715   3.283   5.640  0.4870  2.6658  1.7154
   47CHL1  H26C 3474   2.788   3.220   5.781  0.9979 -1.6870 -0.3912
   47CHL1   C27 3475   2.561   3.313   5.851 -0.5121  0.3701 -0.7291
   47CHL1  H27A 3476   2.639   3.300   5.929 -1.7889  2.7602  1.0618
   47CHL1  H27B 3477   2.574   3.409   5.798  0.2218  1.3501  1.1403
   47CHL1  H27C 3478   2.460   3.316   5.895 -0.5878 -0.3094 -0.8352
   48CHL1    C3 3479   3.820   4.439   4.614  0.7288 -0.1437 -0.0777
   48CHL1    H3 3480   3.730   4.459   4.676  0.9284 -1.4147  0.6668
   48CHL1    O3 3481   3.787   4.447   4.479 -0.3515  0.5117  0.4165
   48CHL1   H3' 3482   3.867   4.458   4.427 -0.7338 -2.3760 -1.0299
   48CHL1    C4 3483   3.938   4.527   4.652 -0.4006  1.0963 -0.0759
   48CHL1   H4A 3484   4.033   4.501   4.600  0.1093 -0.5479  1.5831
   48CHL1   H4B 3485   3.921   4.633   4.625 -0.3287  1.2880  0.6243
   48CHL1    C5 3486   3.969   4.512   4.796 -0.1885  0.0276 -0.5464
   48CHL1    C6 3487   3.980   4.619   4.882 -0.0137  0.4053  0.6986
   48CHL1    H6 3488   3.957   4.714   4.831 -0.2122 -1.3417 -2.8491
   48CHL1    C7 3489   4.039   4.607   5.020  0.1080 -0.0689 -0.3192
   48CHL1   H7A 3490   4.099   4.694   5.054 -2.6448  2.6874 -1.9356
   48CHL1   H7B 3491   3.954   4.621   5.090  1.1563  1.9079  0.6499
   48CHL1    C8 3492   4.100   4.471   5.057 -0.2348  0.3436  0.0377
   48CHL1    H8 3493   4.200   4.474   5.009 -0.1912  2.3962  0.1646
   48CHL1   C14 3494   4.119   4.448   5.199  0.0429  0.3766 -0.7981
   48CHL1   H14 3495   4.018   4.443   5.246  0.8460  1.0131  1.1073
   48CHL1   C15 3496   4.190   4.552   5.273  0.0897 -0.7143 -0.3740
   48CHL1  H15A 3497   4.285   4.584   5.225 -0.4813  1.5839 -0.1137
   48CHL1  H15B 3498   4.131   4.646   5.277  1.4486  0.1613 -0.2552
   48CHL1   C16 3499   4.231   4.495   5.407  0.1783 -0.3071  0.4435
   48CHL1  H16A 3500   4.337   4.522   5.426 -0.1797  0.5736  1.2529
   48CHL1  H16B 3501   4.170   4.529   5.493  0.9562  0.0211  0.8750
   48CHL1   C17 3502   4.213   4.341   5.394  0.1789  0.6786  0.5204
   48CHL1   H17 3503   4.113   4.315   5.436 -0.6315  0.7628 -1.2934
   48CHL1   C13 3504   4.193   4.319   5.241  0.3439  0.3036 -0.0206
   48CHL1   C18 3505   4.329   4.306   5.172  0.0696 -0.4327 -1.1438
   48CHL1  H18A 3506   4.316   4.312   5.062 -0.2734 -2.1044 -1.2216
   48CHL1  H18B 3507   4.397   4.390   5.196 -0.7676  0.5566 -2.1185
   48CHL1  H18C 3508   4.390   4.218   5.203 -0.5378 -0.4107  0.1885
   48CHL1   C12 3509   4.095   4.203   5.200  0.2545 -0.1971  0.0192
   48CHL1  H12A 3510   4.145   4.106   5.216  0.6692 -0.2949 -1.6352
   48CHL1  H12B 3511   4.001   4.209   5.259 -0.0097 -0.9856 -0.3117
   48CHL1   C11 3512   4.052   4.216   5.054  0.1838  0.0203  0.3737
   48CHL1  H11A 3513   4.145   4.186   5.001  0.8513 -0.9557  2.0345
   48CHL1  H11B 3514   3.971   4.141   5.039  0.2107 -0.1080  0.8644
   48CHL1    C9 3515   4.014   4.356   5.001 -0.1415  0.2336  0.1043
   48CHL1    H9 3516   3.913   4.384   5.038 -0.4158  0.5958 -0.8749
   48CHL1   C10 3517   3.996   4.374   4.850 -0.4812  0.3433  0.5018
   48CHL1   C19 3518   4.123   4.321   4.770 -0.2298  0.6689 -0.9755
   48CHL1  H19A 3519   4.217   4.378   4.789 -0.3367  0.6535 -0.3981
   48CHL1  H19B 3520   4.149   4.216   4.795  1.0261  1.3978  0.9952
   48CHL1  H19C 3521   4.102   4.325   4.661 -0.2507 -0.4811 -1.0271
   48CHL1    C1 3522   3.874   4.282   4.804 -0.6244  0.4977 -0.5661
   48CHL1   H1A 3523   3.905   4.180   4.834 -1.0943  0.7825  0.9861
   48CHL1   H1B 3524   3.786   4.314   4.863 -0.6011  3.7339 -2.0457
   48CHL1    C2 3525   3.843   4.293   4.655  1.2810 -0.3964 -0.1521
   48CHL1   H2A 3526   3.752   4.231   4.644  1.0123  0.0391 -0.3922
   48CHL1   H2B 3527   3.924   4.257   4.587 -0.4740  0.6380 -2.9363
   48CHL1   C20 3528   4.319   4.261   5.470 -0.9087 -0.0078  0.3154
   48CHL1   H20 3529   4.420   4.266   5.422 -1.0894 -1.4782 -0.2570
   48CHL1   C21 3530   4.286   4.107   5.474 -0.5549 -0.3708  0.7197
   48CHL1  H21A 3531   4.317   4.070   5.374  2.0327  1.8260  0.5777
   48CHL1  H21B 3532   4.177   4.089   5.485 -0.2620 -2.0084  1.1933
   48CHL1  H21C 3533   4.348   4.055   5.549  1.8133 -0.4282 -1.1630
   48CHL1   C22 3534   4.356   4.312   5.622 -0.4405  0.1968  0.1615
   48CHL1  H22A 3535   4.418   4.226   5.655  1.0371  0.0721 -2.6905
   48CHL1  H22B 3536   4.410   4.409   5.614 -1.5925  0.7310 -1.7879
   48CHL1   C23 3537   4.230   4.314   5.714  0.5394  0.0927  0.5445
   48CHL1  H23A 3538   4.167   4.402   5.692 -0.3490 -0.5080  0.6600
   48CHL1  H23B 3539   4.161   4.231   5.690  0.1042  0.3654  0.8457
   48CHL1   C24 3540   4.273   4.317   5.858 -0.7908  0.2926  0.6798
   48CHL1  H24A 3541   4.335   4.227   5.880  0.2974  0.6813 -0.6323
   48CHL1  H24B 3542   4.328   4.411   5.880 -1.7993  1.5586 -1.8060
   48CHL1   C25 3543   4.153   4.317   5.946  0.3289  0.9111 -0.1572
   48CHL1   H25 3544   4.092   4.405   5.915  1.0512  1.2950 -0.5260
   48CHL1   C26 3545   4.073   4.189   5.938  0.2383 -0.0559 -0.2206
   48CHL1  H26A 3546   3.971   4.211   5.977 -0.3697 -1.0754 -1.1608
   48CHL1  H26B 3547   4.059   4.168   5.830  1.7794 -0.7717 -0.3030
   48CHL1  H26C 3548   4.123   4.108   5.995  0.6507  1.9356  2.4371
   48CHL1   C27 3549   4.191   4.331   6.096  0.7693  0.0282 -0.1707
   48CHL1  H27A 3550   4.106   4.338   6.168 -0.0587  0.2920 -1.1424
   48CHL1  H27B 3551   4.232   4.231   6.118  0.3452 -0.1610 -0.2255
   48CHL1  H27C 3552   4.264   4.413   6.112 -1.4484  1.9696  0.6891
   49CHL1    C3 3553   4.811   0.482   4.098  0.7747  0.7681 -0.5155
   49CHL1    H3 3554   4.705   0.510   4.116  0.0051 -2.8000  1.2328
   49CHL1    O3 3555   4.821   0.470   3.957 -0.2732  0.4982  0.0728
   49CHL1   H3' 3556   4.913   0.442   3.952 -0.0391  1.3471 -0.6978
   49CHL1    C4 3557   4.912   0.585   4.139  0.0763 -0.0619 -0.0547
   49CHL1   H4A 3558   5.015   0.575   4.101  0.1143 -0.7540  0.2238
   49CHL1   H4B 3559   4.882   0.683   4.094 -0.2743 -0.4385 -0.6568
   49CHL1    C5 3560   4.922   0.599   4.292  0.3908 -0.4830  0.5044
   49CHL1    C6 3561   4.911   0.727   4.343  0.5716 -0.0464 -0.2690
   49CHL1    H6 3562   4.893   0.807   4.270  0.1366 -2.1531 -2.6199
   49CHL1    C7 3563   4.927   0.755   4.492 -0.0692 -0.0663  0.0912
   49CHL1   H7A 3564   4.980   0.850   4.513 -2.1852  0.7853  1.9743
   49CHL1   H7B 3565   4.823   0.772   4.526 -0.7242 -1.4753 -1.1169
   49CHL1    C8 3566   4.987   0.638   4.578 -0.1457  0.1401  0.4604
   49CHL1    H8 3567   5.097   0.634   4.562 -0.5193 -2.2005 -2.4129
   49CHL1   C14 3568   4.946   0.661   4.723  0.7287  0.4158 -1.4140
   49CHL1   H14 3569   4.836   0.648   4.729  1.0536 -2.4668  0.4249
   49CHL1   C15 3570   4.980   0.799   4.789  0.3651  0.1915  0.6433
   49CHL1  H15A 3571   5.082   0.836   4.764  0.4342 -0.5138 -0.1401
   49CHL1  H15B 3572   4.916   0.882   4.751 -0.0160 -0.1653  0.5082
   49CHL1   C16 3573   4.960   0.774   4.942  0.3856  0.4291 -0.8437
   49CHL1  H16A 3574   5.040   0.821   5.004  1.3255 -1.2617 -0.7235
   49CHL1  H16B 3575   4.866   0.819   4.979  1.3948  2.6839 -0.8387
   49CHL1   C17 3576   4.963   0.619   4.958  0.3730  0.2832 -0.7896
   49CHL1   H17 3577   4.861   0.580   4.976  0.7524 -0.2127  0.3277
   49CHL1   C13 3578   5.017   0.561   4.818  0.3654 -0.5836  0.2068
   49CHL1   C18 3579   5.170   0.579   4.819 -0.2265 -0.2969 -0.4335
   49CHL1  H18A 3580   5.197   0.677   4.863 -1.6233 -0.3390  0.5889
   49CHL1  H18B 3581   5.215   0.498   4.880  0.3827 -1.4185 -2.2674
   49CHL1  H18C 3582   5.207   0.567   4.714  0.9677 -1.0961  0.0595
   49CHL1   C12 3583   4.975   0.422   4.778  0.1491  0.2961 -0.0533
   49CHL1  H12A 3584   5.025   0.346   4.842  5.3867  1.9183 -1.6803
   49CHL1  H12B 3585   4.866   0.407   4.790  0.2124 -0.5699 -0.4331
   49CHL1   C11 3586   5.016   0.397   4.629 -0.4232 -0.4416  0.2940
   49CHL1  H11A 3587   5.127   0.403   4.622 -0.1844  0.1876  3.4456
   49CHL1  H11B 3588   4.988   0.295   4.596 -1.2790 -1.4127  3.6347
   49CHL1    C9 3589   4.941   0.499   4.539  0.2277 -0.5510 -0.1862
   49CHL1    H9 3590   4.834   0.484   4.564 -0.1734  0.8636 -0.9366
   49CHL1   C10 3591   4.947   0.471   4.380 -0.9448  0.1491 -0.1789
   49CHL1   C19 3592   5.093   0.426   4.347  0.7126 -0.8151 -0.4101
   49CHL1  H19A 3593   5.110   0.415   4.238  0.5178  0.6463 -0.6055
   49CHL1  H19B 3594   5.175   0.490   4.387  2.3752 -2.6148 -0.7264
   49CHL1  H19C 3595   5.124   0.332   4.399 -0.1343 -0.0117  1.6516
   49CHL1    C1 3596   4.835   0.374   4.334 -0.2635 -1.0187  0.2111
   49CHL1   H1A 3597   4.839   0.278   4.390  2.2884 -0.5902  0.9182
   49CHL1   H1B 3598   4.742   0.426   4.365  1.5610  1.8236  1.3299
   49CHL1    C2 3599   4.826   0.348   4.177  0.3698  0.0097 -0.2720
   49CHL1   H2A 3600   4.747   0.277   4.145  1.9218 -1.4476 -1.0229
   49CHL1   H2B 3601   4.920   0.294   4.150 -0.3830 -3.5250  3.2227
   49CHL1   C20 3602   5.041   0.578   5.084 -0.4988 -0.6289 -0.2392
   49CHL1   H20 3603   5.146   0.613   5.074 -1.1205  2.4998  2.3462
   49CHL1   C21 3604   5.034   0.429   5.102 -0.3570 -0.6254 -0.1846
   49CHL1  H21A 3605   5.109   0.367   5.048 -0.9800 -0.0285 -1.8090
   49CHL1  H21B 3606   4.932   0.400   5.067 -1.1679  1.8285 -0.1078
   49CHL1  H21C 3607   5.039   0.394   5.207  1.3635 -1.1923 -0.4402
   49CHL1   C22 3608   4.997   0.659   5.210 -0.3961  0.3279 -0.6123
   49CHL1  H22A 3609   5.007   0.769   5.198  3.4240  0.3445  1.0786
   49CHL1  H22B 3610   4.888   0.645   5.222 -0.2001 -2.0434 -1.0682
   49CHL1   C23 3611   5.074   0.621   5.342  0.0832  0.0059  0.2722
   49CHL1  H23A 3612   5.016   0.532   5.374  2.6846 -0.9443  2.7281
   49CHL1  H23B 3613   5.167   0.572   5.309 -0.8769 -2.1701  0.6464
   49CHL1   C24 3614   5.072   0.726   5.450 -0.7222  0.1636  0.2159
   49CHL1  H24A 3615   5.115   0.814   5.397 -2.0478  0.7903  0.1331
   49CHL1  H24B 3616   4.973   0.757   5.489 -0.8608  0.0332 -0.0362
   49CHL1   C25 3617   5.163   0.694   5.574  0.1301  0.2953  0.4568
   49CHL1   H25 3618   5.255   0.648   5.532  0.7991  1.4511  0.6372
   49CHL1   C26 3619   5.188   0.828   5.656 -0.0021 -0.1409  0.4614
   49CHL1  H26A 3620   5.243   0.804   5.750 -0.5036  1.1028  1.0836
   49CHL1  H26B 3621   5.247   0.900   5.596 -0.6327  0.9197  1.0989
   49CHL1  H26C 3622   5.091   0.877   5.678 -0.5586 -0.6924 -0.6542
   49CHL1   C27 3623   5.108   0.589   5.672 -0.4229 -0.2822  0.4643
   49CHL1  H27A 3624   5.126   0.491   5.623  1.1975 -0.0460  0.5419
   49CHL1  H27B 3625   5.175   0.592   5.760  0.1730 -3.0652  0.1901
   49CHL1  H27C 3626   5.004   0.594   5.712 -1.4707  0.4658 -2.1246
   50CHL1    C3 3627   4.672   1.301   4.335  0.2836  0.5915  0.2445
   50CHL1    H3 3628   4.723   1.397   4.358 -0.0936  0.6936  0.6622
   50CHL1    O3 3629   4.662   1.302   4.195 -0.6446 -0.3133 -0.3325
   50CHL1   H3' 3630   4.614   1.224   4.164 -0.7124  0.1847 -1.5264
   50CHL1    C4 3631   4.764   1.190   4.385  0.3372 -1.0551 -0.1860
   50CHL1   H4A 3632   4.730   1.091   4.346 -0.1146 -1.3912  1.0197
   50CHL1   H4B 3633   4.861   1.208   4.335  0.1930  1.5291  0.3437
   50CHL1    C5 3634   4.777   1.183   4.536  0.4346 -0.1139 -0.2412
   50CHL1    C6 3635   4.887   1.188   4.599 -0.1617 -0.0266  0.6215
   50CHL1    H6 3636   4.979   1.194   4.539  0.8909  0.2145  2.1752
   50CHL1    C7 3637   4.911   1.182   4.753  0.1579  0.7748  0.1119
   50CHL1   H7A 3638   4.997   1.121   4.788 -0.9708  0.1894  2.0323
   50CHL1   H7B 3639   4.934   1.288   4.779  0.3849  1.0332 -1.1209
   50CHL1    C8 3640   4.782   1.140   4.831  0.5022  0.5223  0.1883
   50CHL1    H8 3641   4.780   1.030   4.815  0.9300  0.5427 -0.0160
   50CHL1   C14 3642   4.794   1.187   4.971  0.2023 -0.0829 -1.5369
   50CHL1   H14 3643   4.800   1.297   4.960  0.1139  0.5456  3.0630
   50CHL1   C15 3644   4.918   1.148   5.055  0.0172  0.2279  0.3424
   50CHL1  H15A 3645   4.934   1.038   5.052 -2.7237 -0.2442  0.3162
   50CHL1  H15B 3646   5.008   1.201   5.019  0.2686 -0.1422  0.4199
   50CHL1   C16 3647   4.876   1.202   5.190 -0.2511 -0.0677 -0.5282
   50CHL1  H16A 3648   4.913   1.139   5.274  1.1492  1.5007  0.0900
   50CHL1  H16B 3649   4.935   1.294   5.207 -1.3935  0.1796  3.1009
   50CHL1   C17 3650   4.720   1.236   5.188 -0.2672 -0.4891 -0.0735
   50CHL1   H17 3651   4.712   1.344   5.164 -1.4959 -0.1645  1.6300
   50CHL1   C13 3652   4.674   1.164   5.060 -0.2055 -0.0158 -0.0857
   50CHL1   C18 3653   4.651   1.011   5.088  0.2509  0.2058 -0.5676
   50CHL1  H18A 3654   4.624   0.949   5.000  1.1210 -0.2004 -0.5587
   50CHL1  H18B 3655   4.732   0.959   5.143 -1.7586 -0.2945  2.1012
   50CHL1  H18C 3656   4.575   1.022   5.168  2.1228  3.3366  1.0104
   50CHL1   C12 3657   4.543   1.218   5.002 -0.2112 -0.1118 -0.4796
   50CHL1  H12A 3658   4.466   1.169   5.065  0.3494  0.1636  0.4368
   50CHL1  H12B 3659   4.533   1.328   5.015  1.2048 -0.0091 -0.0899
   50CHL1   C11 3660   4.530   1.186   4.851  0.4820 -0.4348  0.0153
   50CHL1  H11A 3661   4.510   1.077   4.847  2.9281 -0.9232 -0.5449
   50CHL1  H11B 3662   4.448   1.234   4.793 -0.7724 -1.7879  0.5850
   50CHL1    C9 3663   4.661   1.209   4.768 -0.1537  0.2638 -0.1209
   50CHL1    H9 3664   4.682   1.318   4.773 -0.5925  0.3512 -0.1627
   50CHL1   C10 3665   4.643   1.175   4.618 -0.2088  0.2315 -0.5752
   50CHL1   C19 3666   4.585   1.030   4.611  0.6905 -0.3113 -0.4472
   50CHL1  H19A 3667   4.479   1.040   4.640  1.0446  2.5194  0.1472
   50CHL1  H19B 3668   4.585   0.993   4.506  0.3536 -0.9201 -0.2391
   50CHL1  H19C 3669   4.636   0.963   4.683  1.7610  0.7595 -0.1744
   50CHL1    C1 3670   4.548   1.279   4.554  0.0167  0.5179 -0.0683
   50CHL1   H1A 3671   4.447   1.270   4.598 -0.3760  3.2924 -0.2012
   50CHL1   H1B 3672   4.575   1.385   4.576 -2.3425  1.4218 -1.2132
   50CHL1    C2 3673   4.534   1.282   4.401 -0.6374  0.1031  0.1065
   50CHL1   H2A 3674   4.471   1.367   4.366 -0.0639  1.0359  1.2625
   50CHL1   H2B 3675   4.491   1.191   4.355 -0.2616  0.8813 -1.8837
   50CHL1   C20 3676   4.645   1.219   5.322 -0.2027 -0.3876  0.3359
   50CHL1   H20 3677   4.539   1.200   5.295 -0.0309  1.0223 -1.5777
   50CHL1   C21 3678   4.656   1.348   5.406 -0.2764 -1.2768 -0.0466
   50CHL1  H21A 3679   4.612   1.355   5.507 -1.3926 -1.2061 -0.5221
   50CHL1  H21B 3680   4.604   1.426   5.345 -0.0379 -1.1327 -0.0689
   50CHL1  H21C 3681   4.763   1.379   5.406  0.3934 -2.5791 -5.3691
   50CHL1   C22 3682   4.699   1.100   5.405  0.4695  0.8677 -0.3400
   50CHL1  H22A 3683   4.718   1.008   5.347 -1.8995 -1.2687  2.0167
   50CHL1  H22B 3684   4.785   1.123   5.473  0.8317  3.0360 -1.4382
   50CHL1   C23 3685   4.595   1.046   5.502  0.3665 -1.1036 -0.0354
   50CHL1  H23A 3686   4.573   1.123   5.579  1.5674 -1.2586  0.4825
   50CHL1  H23B 3687   4.493   1.021   5.466 -0.3588 -0.8363  1.7313
   50CHL1   C24 3688   4.661   0.918   5.563  0.0433 -0.7588 -0.1460
   50CHL1  H24A 3689   4.668   0.847   5.477  0.6475 -0.0586 -0.6870
   50CHL1  H24B 3690   4.764   0.948   5.591 -0.0657 -1.1139  0.6668
   50CHL1   C25 3691   4.594   0.867   5.691  0.1562  0.5037 -0.8604
   50CHL1   H25 3692   4.484   0.873   5.697  0.2319  0.5111  1.1994
   50CHL1   C26 3693   4.642   0.724   5.721 -0.3914 -0.1552  0.1770
   50CHL1  H26A 3694   4.587   0.673   5.803  0.0873  0.2336  0.7477
   50CHL1  H26B 3695   4.626   0.664   5.629  0.2038 -0.2506  0.1264
   50CHL1  H26C 3696   4.752   0.723   5.742 -0.1180  0.1644 -1.1354
   50CHL1   C27 3697   4.634   0.948   5.821  0.1250  0.8614  0.9990
   50CHL1  H27A 3698   4.584   0.919   5.916 -1.0481 -0.1614  0.0996
   50CHL1  H27B 3699   4.745   0.934   5.825  0.0316 -0.3978 -0.0979
   50CHL1  H27C 3700   4.615   1.055   5.798 -1.2302  0.0695 -1.9918
   51CHL1    C3 3701   5.318   5.946   4.373 -0.1589 -1.1128 -0.2506
   51CHL1    H3 3702   5.352   6.052   4.378 -1.7816 -0.6380  1.6150
   51CHL1    O3 3703   5.339   5.910   4.234  0.2637 -0.8697 -0.4960
   51CHL1   H3' 3704   5.287   5.829   4.229  1.1927 -1.5767  0.6263
   51CHL1    C4 3705   5.417   5.867   4.473  0.2970 -0.4833  0.6742
   51CHL1   H4A 3706   5.383   5.763   4.455 -3.8060  1.2092 -3.6575
   51CHL1   H4B 3707   5.523   5.883   4.443 -0.4197  2.4650 -0.6839
   51CHL1    C5 3708   5.389   5.914   4.619 -0.5349  0.6152  0.3220
   51CHL1    C6 3709   5.493   5.964   4.696 -0.0860 -0.0678  0.1540
   51CHL1    H6 3710   5.598   5.969   4.664  0.3089 -3.6612  0.3953
   51CHL1    C7 3711   5.466   5.998   4.839 -0.3348 -0.6485 -0.1555
   51CHL1   H7A 3712   5.547   5.978   4.912 -0.2298  2.5902  0.7456
   51CHL1   H7B 3713   5.449   6.108   4.840 -0.0973 -0.6099 -0.3862
   51CHL1    C8 3714   5.329   5.966   4.906 -0.6791  0.2591  0.1584
   51CHL1    H8 3715   5.327   5.858   4.933  1.0997 -0.0560 -0.8131
   51CHL1   C14 3716   5.312   6.048   5.032 -0.1636  0.0349 -0.4278
   51CHL1   H14 3717   5.311   6.155   5.003  0.3679  0.2553  0.3239
   51CHL1   C15 3718   5.422   6.034   5.144 -0.2909 -0.4961 -0.4292
   51CHL1  H15A 3719   5.427   5.925   5.166 -0.1169 -0.4155 -0.0738
   51CHL1  H15B 3720   5.523   6.066   5.110 -0.5197 -1.2372 -1.8799
   51CHL1   C16 3721   5.365   6.111   5.264  0.5167 -0.4695 -0.2301
   51CHL1  H16A 3722   5.383   6.050   5.355  0.4830 -0.1621 -0.0156
   51CHL1  H16B 3723   5.402   6.215   5.278  2.0308 -1.0838  0.5787
   51CHL1   C17 3724   5.209   6.105   5.236  0.2227  0.0150 -0.0292
   51CHL1   H17 3725   5.181   6.209   5.206 -1.4765  0.8234  3.7572
   51CHL1   C13 3726   5.181   6.018   5.110  0.1148 -0.2304 -0.3542
   51CHL1   C18 3727   5.167   5.871   5.148  0.0754  0.5709 -0.0908
   51CHL1  H18A 3728   5.256   5.838   5.206  0.3352  2.1316  0.4341
   51CHL1  H18B 3729   5.074   5.842   5.202  0.5560 -0.9934 -0.0468
   51CHL1  H18C 3730   5.174   5.817   5.051 -0.6440 -3.3249  1.8040
   51CHL1   C12 3731   5.061   6.050   5.008 -0.6417 -0.5118 -0.6913
   51CHL1  H12A 3732   4.959   6.036   5.049 -0.7890  0.7261 -0.5960
   51CHL1  H12B 3733   5.066   6.158   4.984 -1.6130 -0.7844 -2.2449
   51CHL1   C11 3734   5.077   5.975   4.871  0.2120 -0.6823  0.0190
   51CHL1  H11A 3735   5.050   5.867   4.877 -2.1772 -0.1124  0.4591
   51CHL1  H11B 3736   5.006   6.021   4.799  0.6478 -1.4669 -0.9383
   51CHL1    C9 3737   5.224   5.989   4.807  0.6594 -0.1522  0.7988
   51CHL1    H9 3738   5.210   6.094   4.774 -2.6912 -0.2000  1.6690
   51CHL1   C10 3739   5.243   5.914   4.669  0.1657 -0.2953  0.4048
   51CHL1   C19 3740   5.198   5.766   4.691  0.3913  0.5377 -0.2653
   51CHL1  H19A 3741   5.255   5.695   4.627  0.5004 -0.0484  0.4736
   51CHL1  H19B 3742   5.213   5.734   4.796  2.5829 -0.3140 -0.7712
   51CHL1  H19C 3743   5.090   5.750   4.674  0.6384  0.0549 -1.5651
   51CHL1    C1 3744   5.149   5.977   4.559 -0.6061 -0.3419 -0.0801
   51CHL1   H1A 3745   5.042   5.970   4.586 -0.6567  2.9501  1.0682
   51CHL1   H1B 3746   5.148   6.088   4.558 -2.7064 -0.3014 -2.2337
   51CHL1    C2 3747   5.172   5.924   4.418 -0.7653  0.1038 -0.0209
   51CHL1   H2A 3748   5.095   5.973   4.354 -3.9816  0.2316  3.5601
   51CHL1   H2B 3749   5.152   5.815   4.423 -1.0939 -0.1308 -3.9694
   51CHL1   C20 3750   5.130   6.082   5.361  0.2051  0.2975  0.6490
   51CHL1   H20 3751   5.160   5.982   5.402 -1.0976 -0.4613 -0.2036
   51CHL1   C21 3752   4.978   6.087   5.340  0.0473 -0.3999 -0.4168
   51CHL1  H21A 3753   4.938   6.037   5.249 -1.2769  1.1649 -0.7515
   51CHL1  H21B 3754   4.943   6.192   5.331  1.5860  0.2866  1.1596
   51CHL1  H21C 3755   4.925   6.048   5.429  0.6077  0.3523  0.2710
   51CHL1   C22 3756   5.163   6.193   5.472 -0.3519 -0.2341  0.4624
   51CHL1  H22A 3757   5.267   6.169   5.502 -0.8148 -2.3161  0.5278
   51CHL1  H22B 3758   5.157   6.297   5.434  3.7549 -0.1609 -0.4905
   51CHL1   C23 3759   5.080   6.183   5.603 -0.0533  0.9263 -0.2247
   51CHL1  H23A 3760   4.983   6.234   5.587 -0.8715  0.2100  2.0261
   51CHL1  H23B 3761   5.066   6.079   5.641  1.6273  0.3712 -1.0037
   51CHL1   C24 3762   5.153   6.265   5.709  0.8934  0.2667  0.4723
   51CHL1  H24A 3763   5.249   6.217   5.737 -0.1653 -0.9085  2.2956
   51CHL1  H24B 3764   5.175   6.365   5.664  1.1864 -1.1450 -2.8583
   51CHL1   C25 3765   5.060   6.287   5.824 -0.1021  0.6798  0.1930
   51CHL1   H25 3766   4.962   6.321   5.783  0.2203  1.8765  0.3885
   51CHL1   C26 3767   5.033   6.159   5.904 -0.4761 -0.4253  0.3925
   51CHL1  H26A 3768   5.125   6.110   5.942  0.3508 -0.2499 -1.2648
   51CHL1  H26B 3769   4.961   6.184   5.985 -0.6890  0.8115 -0.1481
   51CHL1  H26C 3770   4.988   6.074   5.848  1.2804 -2.5113  1.9879
   51CHL1   C27 3771   5.111   6.389   5.922  0.0120 -0.6405  0.5177
   51CHL1  H27A 3772   5.034   6.407   5.999 -1.2259  0.7179 -0.9605
   51CHL1  H27B 3773   5.206   6.355   5.968  0.7529  2.7391  1.7902
   51CHL1  H27C 3774   5.132   6.487   5.874  0.0382 -1.4270 -1.1439
   52CHL1    C3 3775   5.390   2.016   4.842  0.2027 -0.1052  0.1062
   52CHL1    H3 3776   5.301   1.963   4.882  1.5503 -2.1511  0.5709
   52CHL1    O3 3777   5.384   2.034   4.705 -0.4554 -0.2201 -0.1878
   52CHL1   H3' 3778   5.458   1.979   4.677  0.3646  0.4841  0.5145
   52CHL1    C4 3779   5.407   2.159   4.907 -0.2886 -0.4064 -0.2861
   52CHL1   H4A 3780   5.485   2.220   4.857  0.0126  1.1918  1.9869
   52CHL1   H4B 3781   5.309   2.206   4.885  0.5772  0.6729 -2.0341
   52CHL1    C5 3782   5.433   2.154   5.056  0.3457  0.5952 -0.0556
   52CHL1    C6 3783   5.353   2.227   5.140  0.3586 -0.2587  0.2231
   52CHL1    H6 3784   5.284   2.302   5.099 -0.1821 -1.8947 -2.0550
   52CHL1    C7 3785   5.373   2.237   5.291 -0.6254  0.4948 -0.0485
   52CHL1   H7A 3786   5.372   2.342   5.328  3.1797  0.9076 -0.6828
   52CHL1   H7B 3787   5.295   2.171   5.334  0.5094  1.2236  3.4240
   52CHL1    C8 3788   5.512   2.170   5.340  0.3240 -0.1039 -0.8644
   52CHL1    H8 3789   5.588   2.250   5.329 -0.5234  0.6123 -1.8272
   52CHL1   C14 3790   5.499   2.131   5.487  1.0920  0.1327  0.6304
   52CHL1   H14 3791   5.412   2.062   5.495  0.8872 -0.3301 -3.4307
   52CHL1   C15 3792   5.466   2.241   5.587  0.7074 -0.4448 -0.0579
   52CHL1  H15A 3793   5.543   2.321   5.581  0.9979 -0.7456 -0.4677
   52CHL1  H15B 3794   5.371   2.296   5.572  0.3878 -1.3835 -1.7133
   52CHL1   C16 3795   5.477   2.162   5.726 -1.1376  0.0425  0.8970
   52CHL1  H16A 3796   5.538   2.223   5.796 -0.8137 -2.0186  2.4650
   52CHL1  H16B 3797   5.377   2.134   5.765 -2.1961  0.5166 -1.2626
   52CHL1   C17 3798   5.560   2.030   5.689  0.1325  0.7084 -0.6365
   52CHL1   H17 3799   5.474   1.959   5.691 -0.1630  1.0596  1.3388
   52CHL1   C13 3800   5.611   2.048   5.550  0.4600  0.1109 -0.3494
   52CHL1   C18 3801   5.733   2.148   5.564 -0.4923  0.2368  0.1781
   52CHL1  H18A 3802   5.731   2.216   5.652  0.1909 -0.8995  1.1029
   52CHL1  H18B 3803   5.825   2.087   5.574 -1.1167 -1.1036 -1.7474
   52CHL1  H18C 3804   5.749   2.194   5.465 -0.3548 -0.0500  0.0677
   52CHL1   C12 3805   5.647   1.930   5.460  0.3895  1.1109 -0.4079
   52CHL1  H12A 3806   5.744   1.888   5.494 -1.2551  0.6372  4.4652
   52CHL1  H12B 3807   5.560   1.862   5.451  0.5573  0.9254 -0.6330
   52CHL1   C11 3808   5.677   1.973   5.316 -0.0746  0.1268  0.5487
   52CHL1  H11A 3809   5.760   2.047   5.309 -1.6419  1.7791 -3.3541
   52CHL1  H11B 3810   5.701   1.893   5.243 -0.3307  2.3537 -2.1464
   52CHL1    C9 3811   5.538   2.045   5.263 -0.2230  0.8420 -0.1955
   52CHL1    H9 3812   5.452   1.979   5.288  0.2377  0.0764 -0.6087
   52CHL1   C10 3813   5.534   2.060   5.105 -1.3674 -0.1856  0.0882
   52CHL1   C19 3814   5.678   2.116   5.063 -0.0003 -0.2086 -1.1037
   52CHL1  H19A 3815   5.746   2.029   5.045  3.7630  1.2859  3.6910
   52CHL1  H19B 3816   5.674   2.182   4.974 -0.9887 -0.5376 -1.3146
   52CHL1  H19C 3817   5.717   2.192   5.133 -0.8875  0.3673 -1.2227
   52CHL1    C1 3818   5.520   1.915   5.038  1.3064  0.1559  0.0660
   52CHL1   H1A 3819   5.608   1.848   5.049 -0.1339 -2.1857 -1.7156
   52CHL1   H1B 3820   5.429   1.863   5.073  0.7426  0.3199 -1.1152
   52CHL1    C2 3821   5.506   1.928   4.886  0.8885  1.0075 -0.7740
   52CHL1   H2A 3822   5.521   1.835   4.826 -1.0265  1.5458 -2.1838
   52CHL1   H2B 3823   5.593   1.985   4.848  0.1487  1.1318 -2.3772
   52CHL1   C20 3824   5.654   1.983   5.798 -0.6167  0.1572 -0.1472
   52CHL1   H20 3825   5.740   2.054   5.805  0.6112 -1.2497 -0.3792
   52CHL1   C21 3826   5.707   1.841   5.765  0.4712  0.4885  0.1146
   52CHL1  H21A 3827   5.620   1.780   5.732  0.6967 -0.0930  0.5691
   52CHL1  H21B 3828   5.749   1.789   5.854 -0.4446  0.7341  0.7051
   52CHL1  H21C 3829   5.778   1.827   5.681 -0.1997  0.6014 -0.4830
   52CHL1   C22 3830   5.591   1.976   5.940 -0.2178  0.1004 -0.4945
   52CHL1  H22A 3831   5.530   2.067   5.959  0.6614  1.4842 -3.6391
   52CHL1  H22B 3832   5.524   1.887   5.947  0.6155 -0.4347  1.0453
   52CHL1   C23 3833   5.704   1.959   6.046  0.7895  0.2694 -0.0316
   52CHL1  H23A 3834   5.748   1.857   6.039 -0.0838 -0.1645  0.7038
   52CHL1  H23B 3835   5.773   2.044   6.027 -0.3256  0.6035 -3.2371
   52CHL1   C24 3836   5.647   1.965   6.193  0.0302 -0.7764  0.4508
   52CHL1  H24A 3837   5.585   2.057   6.197  0.7235 -0.3074  0.5399
   52CHL1  H24B 3838   5.586   1.876   6.220  0.7937 -1.0743  1.2265
   52CHL1   C25 3839   5.752   2.012   6.301  0.9282  0.4879  0.2271
   52CHL1   H25 3840   5.810   2.100   6.263  0.4959  1.8208  2.4835
   52CHL1   C26 3841   5.686   2.059   6.430  0.7068  0.1000 -0.4983
   52CHL1  H26A 3842   5.764   2.076   6.507  0.8479 -0.3485 -0.5428
   52CHL1  H26B 3843   5.621   2.148   6.415  0.5635  0.1246  0.2246
   52CHL1  H26C 3844   5.616   1.983   6.472  0.8391  0.3883  0.2579
   52CHL1   C27 3845   5.854   1.899   6.339  0.3510  0.0469  0.8949
   52CHL1  H27A 3846   5.913   1.918   6.431 -0.9328  2.7832  1.2534
   52CHL1  H27B 3847   5.796   1.804   6.338  0.9396 -0.3158 -0.3192
   52CHL1  H27C 3848   5.922   1.889   6.252 -0.8876 -0.3504 -0.0612
   53CHL1    C3 3849   0.319   6.280   4.350  0.4572  0.0970  0.6007
   53CHL1    H3 3850   0.315   6.390   4.365 -4.2309  0.2114 -0.2369
   53CHL1    O3 3851   0.237   6.254   4.234  0.0093  0.3403  0.0327
   53CHL1   H3' 3852   0.242   6.165   4.199 -0.1485  0.1582  0.4593
   53CHL1    C4 3853   0.456   6.213   4.326  0.6730  0.2282 -0.4643
   53CHL1   H4A 3854   0.453   6.106   4.296  1.7798  0.5895 -1.9779
   53CHL1   H4B 3855   0.496   6.260   4.234 -0.8741  0.1819 -1.1896
   53CHL1    C5 3856   0.545   6.223   4.446  0.4267 -0.0461 -0.4628
   53CHL1    C6 3857   0.666   6.279   4.445  0.3078  0.4065 -0.1368
   53CHL1    H6 3858   0.705   6.328   4.354 -1.3517  0.2485 -0.9670
   53CHL1    C7 3859   0.765   6.286   4.552 -0.2205 -0.2489  0.1194
   53CHL1   H7A 3860   0.869   6.263   4.522  0.5914  2.3199  0.7272
   53CHL1   H7B 3861   0.769   6.393   4.582 -0.4554 -0.1063 -0.3540
   53CHL1    C8 3862   0.716   6.208   4.678  0.4983  0.3676 -0.6795
   53CHL1    H8 3863   0.737   6.099   4.665 -0.4991  0.1706 -0.7576
   53CHL1   C14 3864   0.785   6.265   4.796 -0.0035  0.1074 -0.1207
   53CHL1   H14 3865   0.756   6.372   4.803 -0.1969  0.0459  0.0135
   53CHL1   C15 3866   0.938   6.266   4.795  0.2330  0.3082  0.1810
   53CHL1  H15A 3867   0.975   6.166   4.764  1.3016  0.6567  0.3164
   53CHL1  H15B 3868   0.996   6.337   4.732  2.0574  0.0250  1.4935
   53CHL1   C16 3869   0.983   6.286   4.942  0.5139 -0.3727  0.8643
   53CHL1  H16A 3870   1.062   6.215   4.973  1.0688 -0.5882 -0.9138
   53CHL1  H16B 3871   1.039   6.382   4.950  1.4396 -0.6172 -1.6700
   53CHL1   C17 3872   0.849   6.277   5.020 -0.1668 -0.2036 -0.0398
   53CHL1   H17 3873   0.798   6.375   5.017 -1.6182 -0.8676  1.4366
   53CHL1   C13 3874   0.751   6.199   4.930  0.1213  1.1725 -0.3094
   53CHL1   C18 3875   0.781   6.044   4.934 -0.2589 -0.2648  1.2539
   53CHL1  H18A 3876   0.746   6.006   5.032 -2.0973  0.7301  1.0267
   53CHL1  H18B 3877   0.715   6.002   4.855 -0.1296  2.1419 -0.2532
   53CHL1  H18C 3878   0.889   6.029   4.914 -0.9608 -2.5731 -1.4180
   53CHL1   C12 3879   0.595   6.229   4.954 -0.0281  0.5456  0.0203
   53CHL1  H12A 3880   0.566   6.185   5.052 -1.7236 -0.5624 -0.9310
   53CHL1  H12B 3881   0.573   6.338   4.951  0.0058  0.5415 -0.7600
   53CHL1   C11 3882   0.507   6.176   4.835 -0.0196 -0.0931 -0.3612
   53CHL1  H11A 3883   0.509   6.065   4.840  0.9509 -0.2622 -2.9056
   53CHL1  H11B 3884   0.400   6.205   4.843  0.0656  0.8040 -2.0044
   53CHL1    C9 3885   0.562   6.219   4.698  0.4452 -0.2564  0.4575
   53CHL1    H9 3886   0.552   6.330   4.698  3.8180  0.1796 -0.3946
   53CHL1   C10 3887   0.480   6.174   4.575  0.5432  0.3880 -0.4937
   53CHL1   C19 3888   0.476   6.022   4.577 -0.0624  0.2926  0.8582
   53CHL1  H19A 3889   0.437   5.987   4.480 -0.8624  1.8870  0.5654
   53CHL1  H19B 3890   0.567   5.969   4.613  0.6244  1.1335  0.4028
   53CHL1  H19C 3891   0.404   5.988   4.654  0.6924  0.6801  1.7731
   53CHL1    C1 3892   0.333   6.233   4.596  0.2950 -0.7606  0.0921
   53CHL1   H1A 3893   0.269   6.180   4.670 -1.1164  1.5759  0.6286
   53CHL1   H1B 3894   0.333   6.342   4.616 -0.1565 -0.2850 -2.1626
   53CHL1    C2 3895   0.252   6.215   4.463  0.0103 -0.2766  0.0347
   53CHL1   H2A 3896   0.150   6.253   4.485 -0.6520 -2.1063  0.2700
   53CHL1   H2B 3897   0.245   6.106   4.443 -0.5010 -0.6675  2.0979
   53CHL1   C20 3898   0.852   6.255   5.173 -0.1660 -0.3594 -0.7820
   53CHL1   H20 3899   0.748   6.231   5.203  0.0162 -1.8692 -1.2586
   53CHL1   C21 3900   0.891   6.390   5.245  0.3544  1.2130 -0.2637
   53CHL1  H21A 3901   0.994   6.426   5.224  0.7933 -0.7374 -1.7583
   53CHL1  H21B 3902   0.888   6.372   5.355 -0.4136  1.9322 -0.1554
   53CHL1  H21C 3903   0.814   6.469   5.228 -0.1950  0.5161 -1.1382
   53CHL1   C22 3904   0.944   6.140   5.214 -0.0941  0.3437 -0.3042
   53CHL1  H22A 3905   0.938   6.054   5.145  1.9922 -1.2615  1.3756
   53CHL1  H22B 3906   1.051   6.171   5.212 -0.9002  3.4545 -0.7292
   53CHL1   C23 3907   0.916   6.089   5.359  0.6396 -0.4588  0.8095
   53CHL1  H23A 3908   0.880   6.174   5.421  1.3846  0.3496  0.1533
   53CHL1  H23B 3909   0.833   6.016   5.368  0.8656 -0.5447  2.5745
   53CHL1   C24 3910   1.039   6.024   5.429  0.0421  0.3698 -0.4128
   53CHL1  H24A 3911   1.087   5.963   5.350 -0.5381 -0.2005 -0.3345
   53CHL1  H24B 3912   1.121   6.090   5.464 -0.9864  0.4000  2.1809
   53CHL1   C25 3913   0.997   5.933   5.541  0.7024 -0.2073 -0.5764
   53CHL1   H25 3914   0.931   5.849   5.512  0.0614 -0.2372  0.8728
   53CHL1   C26 3915   1.127   5.859   5.583  0.4053 -0.1554 -0.2886
   53CHL1  H26A 3916   1.117   5.774   5.654  0.7201 -0.4417 -0.5826
   53CHL1  H26B 3917   1.185   5.828   5.494 -0.4800 -2.2373 -0.1940
   53CHL1  H26C 3918   1.189   5.927   5.645 -3.1794  0.5345  2.9609
   53CHL1   C27 3919   0.937   5.998   5.671 -0.2200  0.5877  0.7860
   53CHL1  H27A 3920   0.827   6.007   5.658 -0.3193 -1.3191 -0.0160
   53CHL1  H27B 3921   0.962   5.946   5.766 -2.4579 -0.1916  1.0129
   53CHL1  H27C 3922   0.986   6.097   5.679  0.3543  0.5562 -1.5576
   54CHL1    C3 3923   5.942   0.449   4.428  0.3653 -0.1693  0.5271
   54CHL1    H3 3924   5.890   0.546   4.440  2.2049  1.1155 -1.3620
   54CHL1    O3 3925   5.924   0.401   4.295  0.6338 -0.1843  0.1182
   54CHL1   H3' 3926   5.962   0.314   4.292 -0.3644 -0.7417  1.9761
   54CHL1    C4 3927   6.089   0.456   4.462 -0.6778 -0.1558  0.4306
   54CHL1   H4A 3928   6.141   0.361   4.441 -0.1256  0.3042 -0.3445
   54CHL1   H4B 3929   6.127   0.528   4.386 -0.8891  0.3368  0.7897
   54CHL1    C5 3930   6.110   0.485   4.608 -0.1181 -0.4563  0.9109
   54CHL1    C6 3931   6.171   0.603   4.644 -0.0253  0.6756  0.2444
   54CHL1    H6 3932   6.218   0.667   4.567 -0.0907 -0.7638 -1.0513
   54CHL1    C7 3933   6.189   0.639   4.793  0.5053 -0.6676  0.6023
   54CHL1   H7A 3934   6.295   0.668   4.805  0.1337 -0.0620  2.9655
   54CHL1   H7B 3935   6.130   0.729   4.821  1.7847  0.4435 -0.1737
   54CHL1    C8 3936   6.167   0.521   4.891  0.3379 -0.0519 -0.0575
   54CHL1    H8 3937   6.257   0.457   4.888 -0.7670 -1.6494 -0.2994
   54CHL1   C14 3938   6.142   0.583   5.035  0.1290  0.8873  0.1051
   54CHL1   H14 3939   6.043   0.634   5.034 -0.7347 -0.5520  2.6278
   54CHL1   C15 3940   6.248   0.682   5.094  0.8340  0.1490 -0.0138
   54CHL1  H15A 3941   6.356   0.665   5.074  1.0777  1.8643 -0.3396
   54CHL1  H15B 3942   6.219   0.778   5.045 -1.0618 -0.5640 -0.3876
   54CHL1   C16 3943   6.214   0.680   5.243  0.0555  0.2736  0.0233
   54CHL1  H16A 3944   6.308   0.649   5.296 -0.2131  0.1800  0.4531
   54CHL1  H16B 3945   6.195   0.785   5.272  0.6711 -0.4063  3.3249
   54CHL1   C17 3946   6.099   0.583   5.260  0.3883  0.5779 -0.3428
   54CHL1   H17 3947   6.001   0.633   5.246 -0.6715 -0.9834  1.2146
   54CHL1   C13 3948   6.106   0.483   5.143 -0.2226 -0.4917 -0.5272
   54CHL1   C18 3949   6.226   0.380   5.162  0.3387 -0.2375 -0.9944
   54CHL1  H18A 3950   6.311   0.435   5.209 -1.4003  0.4277  1.5560
   54CHL1  H18B 3951   6.188   0.301   5.230 -0.2159  0.2120 -0.7798
   54CHL1  H18C 3952   6.256   0.329   5.068  1.0502 -0.5731 -0.5967
   54CHL1   C12 3953   5.971   0.413   5.097  0.0418  0.7016  0.6754
   54CHL1  H12A 3954   5.949   0.333   5.171  1.2686  0.5552  0.8986
   54CHL1  H12B 3955   5.883   0.481   5.096 -1.0587 -0.6110 -1.9931
   54CHL1   C11 3956   5.994   0.345   4.960  0.3310  0.2299 -0.4844
   54CHL1  H11A 3957   6.070   0.268   4.983 -3.0174 -2.7873  1.6930
   54CHL1  H11B 3958   5.902   0.286   4.938 -0.1375  0.2438  1.2759
   54CHL1    C9 3959   6.043   0.440   4.847 -0.0931  0.2987 -0.8192
   54CHL1    H9 3960   5.965   0.519   4.849  0.2265  0.6077 -0.3943
   54CHL1   C10 3961   6.049   0.385   4.701  0.2662  0.7740 -0.0244
   54CHL1   C19 3962   6.117   0.247   4.701  0.1280  0.0838 -0.1126
   54CHL1  H19A 3963   6.221   0.252   4.739 -0.4444  2.4140  1.3322
   54CHL1  H19B 3964   6.070   0.168   4.764 -1.9867  0.2379 -1.3857
   54CHL1  H19C 3965   6.118   0.212   4.596  0.2730 -2.2089  0.5954
   54CHL1    C1 3966   5.903   0.368   4.668  0.9785  0.0112  0.3805
   54CHL1   H1A 3967   5.861   0.283   4.725  0.6134 -1.2875 -1.7234
   54CHL1   H1B 3968   5.844   0.457   4.701 -1.6905 -2.1431  1.8695
   54CHL1    C2 3969   5.874   0.348   4.522 -0.4560  0.5185  0.2258
   54CHL1   H2A 3970   5.764   0.350   4.516 -0.9106 -2.1980  3.6710
   54CHL1   H2B 3971   5.917   0.252   4.486  1.6439  2.5545 -3.2005
   54CHL1   C20 3972   6.104   0.524   5.398 -0.2122  0.1643  0.1953
   54CHL1   H20 3973   6.191   0.458   5.416 -0.7386 -0.6329 -0.1245
   54CHL1   C21 3974   5.986   0.425   5.426 -0.2193  0.2794 -0.2794
   54CHL1  H21A 3975   5.890   0.471   5.395 -1.0268 -2.8354 -3.0681
   54CHL1  H21B 3976   5.972   0.398   5.532 -0.0105 -0.3871 -0.4151
   54CHL1  H21C 3977   5.999   0.331   5.367  0.5929 -0.8729  1.6504
   54CHL1   C22 3978   6.121   0.631   5.508 -0.1758  0.4462  0.4654
   54CHL1  H22A 3979   6.132   0.577   5.605  3.2676 -0.8118 -0.5020
   54CHL1  H22B 3980   6.222   0.677   5.510  0.0216 -0.0141  1.1397
   54CHL1   C23 3981   6.016   0.739   5.504  0.7689  0.3843 -0.6727
   54CHL1  H23A 3982   6.017   0.789   5.405  0.3517  1.4093 -0.1782
   54CHL1  H23B 3983   5.916   0.692   5.510  0.4684  1.1690  1.5184
   54CHL1   C24 3984   6.032   0.842   5.625 -0.8846  0.2642 -0.3440
   54CHL1  H24A 3985   6.008   0.812   5.729 -1.0281  1.4685 -0.0095
   54CHL1  H24B 3986   6.134   0.885   5.613 -0.3828  0.6058  3.6901
   54CHL1   C25 3987   5.950   0.966   5.621  0.9296  0.2690 -0.1165
   54CHL1   H25 3988   5.842   0.940   5.624  0.5429  1.6336 -0.8556
   54CHL1   C26 3989   5.978   1.059   5.741 -0.1463 -0.6259 -0.3810
   54CHL1  H26A 3990   6.001   0.999   5.832  1.4220  0.7042  0.1414
   54CHL1  H26B 3991   6.063   1.129   5.723 -0.2240 -0.2822  0.5293
   54CHL1  H26C 3992   5.884   1.117   5.754 -0.2364 -0.8541  0.0169
   54CHL1   C27 3993   5.965   1.041   5.492  0.3229  0.2914  0.4778
   54CHL1  H27A 3994   6.053   1.020   5.427 -1.3102  0.5257 -1.9034
   54CHL1  H27B 3995   5.876   1.025   5.428 -0.2352  1.1489  1.0175
   54CHL1  H27C 3996   5.972   1.151   5.502 -0.4383  0.6112 -1.9466
   55CHL1    C3 3997   4.020   0.996   4.246  0.3945 -0.4835 -0.4146
   55CHL1    H3 3998   3.945   0.917   4.271 -1.5095  1.4095  0.2284
   55CHL1    O3 3999   4.030   1.006   4.108 -0.3465 -0.1528 -0.2450
   55CHL1   H3' 4000   4.122   0.994   4.085 -0.6633 -1.2765 -0.9998
   55CHL1    C4 4001   3.953   1.131   4.293  0.1953 -0.3872 -0.0789
   55CHL1   H4A 4002   4.029   1.211   4.281  2.1675 -2.3259 -1.2465
   55CHL1   H4B 4003   3.865   1.154   4.229  0.6276 -0.2313 -0.6279
   55CHL1    C5 4004   3.928   1.110   4.435 -0.8689 -0.2725 -0.1657
   55CHL1    C6 4005   3.802   1.113   4.485 -0.9241  0.3126 -0.4210
   55CHL1    H6 4006   3.718   1.149   4.423  0.1188 -0.6916 -2.5117
   55CHL1    C7 4007   3.771   1.102   4.631  0.1285  0.0027 -0.6711
   55CHL1   H7A 4008   3.699   1.179   4.665 -1.0031 -1.8775  1.4854
   55CHL1   H7B 4009   3.722   1.004   4.654 -0.2818  0.2253 -0.5861
   55CHL1    C8 4010   3.900   1.108   4.727 -0.6666  0.3199  0.4823
   55CHL1    H8 4011   3.927   1.215   4.735  0.4033  0.0583  0.5273
   55CHL1   C14 4012   3.876   1.049   4.865  0.1118 -0.4325  0.2125
   55CHL1   H14 4013   3.843   0.946   4.840 -2.2955  0.7440 -1.9891
   55CHL1   C15 4014   3.760   1.103   4.957  0.3493  0.4046 -0.3390
   55CHL1  H15A 4015   3.745   1.213   4.951 -1.3504  0.3971  2.2584
   55CHL1  H15B 4016   3.665   1.062   4.918  0.0684  0.1699  0.5826
   55CHL1   C16 4017   3.787   1.051   5.103 -0.0478  0.2031  0.6478
   55CHL1  H16A 4018   3.806   1.139   5.168  0.4555  0.3061  0.3618
   55CHL1  H16B 4019   3.700   0.993   5.142 -3.0462  2.3849 -2.2452
   55CHL1   C17 4020   3.914   0.976   5.087  0.9231  0.4678  0.1774
   55CHL1   H17 4021   3.900   0.871   5.052  1.1978  0.8713 -1.1867
   55CHL1   C13 4022   3.989   1.032   4.963 -0.5186 -0.3641 -0.2049
   55CHL1   C18 4023   4.047   1.168   5.010 -0.3063  0.0525 -0.5784
   55CHL1  H18A 4024   4.084   1.235   4.930  2.2201  0.5924  0.9370
   55CHL1  H18B 4025   3.978   1.233   5.068  0.1333  0.4033 -0.4407
   55CHL1  H18C 4026   4.137   1.150   5.073 -0.0566  0.0641 -0.9288
   55CHL1   C12 4027   4.092   0.937   4.901  0.8614  0.3529 -0.3280
   55CHL1  H12A 4028   4.182   0.937   4.965 -0.9482  2.2100  2.4367
   55CHL1  H12B 4029   4.045   0.838   4.882  2.0140 -0.1301 -0.7378
   55CHL1   C11 4030   4.130   0.992   4.756  0.0968  0.4701  0.4961
   55CHL1  H11A 4031   4.167   1.094   4.775 -2.6166  1.5453  0.5027
   55CHL1  H11B 4032   4.209   0.926   4.714  0.0146 -0.0032  1.0657
   55CHL1    C9 4033   4.007   1.018   4.663 -0.2360  0.3866  0.9654
   55CHL1    H9 4034   3.967   0.915   4.648 -0.3896  0.5165  0.4812
   55CHL1   C10 4035   4.051   1.066   4.519  0.4070  0.0292  0.3200
   55CHL1   C19 4036   4.133   1.192   4.542 -0.1095 -0.0312  0.3246
   55CHL1  H19A 4037   4.222   1.168   4.604  1.7362  2.0165 -1.3575
   55CHL1  H19B 4038   4.179   1.224   4.446 -1.2632 -2.5414 -1.1639
   55CHL1  H19C 4039   4.069   1.277   4.573 -2.1422 -0.2998 -2.6801
   55CHL1    C1 4040   4.142   0.961   4.456 -0.0397 -0.7001  0.3238
   55CHL1   H1A 4041   4.244   0.955   4.500  1.2637 -2.2521 -2.6468
   55CHL1   H1B 4042   4.102   0.858   4.471  0.0427 -0.4890  2.2432
   55CHL1    C2 4043   4.159   0.976   4.302  0.0998  0.0698 -0.5253
   55CHL1   H2A 4044   4.215   0.891   4.258  0.6392  0.0781  0.1262
   55CHL1   H2B 4045   4.218   1.063   4.269 -1.0898  1.1057 -0.0189
   55CHL1   C20 4046   4.000   0.931   5.213  0.0313 -1.1976 -0.6020
   55CHL1   H20 4047   4.106   0.926   5.182 -0.0649 -1.8970 -0.8245
   55CHL1   C21 4048   3.970   0.791   5.248  0.4928 -0.2054 -0.0888
   55CHL1  H21A 4049   4.022   0.755   5.340 -1.2532 -0.0854  0.9829
   55CHL1  H21B 4050   3.994   0.731   5.158 -0.6941  0.7409 -1.0797
   55CHL1  H21C 4051   3.860   0.789   5.262  0.4780 -0.8909 -0.3097
   55CHL1   C22 4052   3.968   1.027   5.335  0.5343 -0.2055  0.1985
   55CHL1  H22A 4053   4.008   1.126   5.307 -0.4172  0.6785  1.8192
   55CHL1  H22B 4054   3.859   1.037   5.353  0.4028 -0.1767 -0.5816
   55CHL1   C23 4055   4.026   0.987   5.475 -0.2618  0.0550 -0.2071
   55CHL1  H23A 4056   3.974   0.899   5.519 -3.1929  1.6059 -0.3157
   55CHL1  H23B 4057   4.132   0.966   5.453  0.2557  1.0975  1.1597
   55CHL1   C24 4058   4.005   1.105   5.568  0.0252  0.3246 -0.6637
   55CHL1  H24A 4059   4.072   1.184   5.528  0.5586 -0.7121 -1.8851
   55CHL1  H24B 4060   3.899   1.135   5.587  0.1523 -0.0761  0.8141
   55CHL1   C25 4061   4.051   1.057   5.709  0.6607 -0.0025  1.2229
   55CHL1   H25 4062   3.987   0.968   5.726 -0.9861  0.8591 -0.1215
   55CHL1   C26 4063   4.190   0.999   5.721  0.8064  0.7213  0.0228
   55CHL1  H26A 4064   4.214   0.925   5.641  2.0661  1.3087 -0.1619
   55CHL1  H26B 4065   4.266   1.079   5.710  2.4481 -0.8454 -0.5030
   55CHL1  H26C 4066   4.200   0.953   5.821 -0.9383 -1.7348 -0.8284
   55CHL1   C27 4067   4.019   1.146   5.826  0.9840 -0.2288  0.2870
   55CHL1  H27A 4068   4.057   1.248   5.801 -0.0890  0.3663  0.9990
   55CHL1  H27B 4069   3.909   1.163   5.834  0.6942 -0.5811 -2.1176
   55CHL1  H27C 4070   4.046   1.102   5.924 -1.1457 -1.1084  0.5313
   56CHL1    C3 4071   4.206   1.718   4.397 -0.3001 -0.5878  0.4220
   56CHL1    H3 4072   4.098   1.726   4.423 -0.3719  0.0083 -0.0528
   56CHL1    O3 4073   4.224   1.752   4.258  0.3598 -0.0320  0.1090
   56CHL1   H3' 4074   4.273   1.835   4.247 -0.3288  0.1369 -2.1581
   56CHL1    C4 4075   4.288   1.818   4.481  0.6248 -0.0145  0.0303
   56CHL1   H4A 4076   4.394   1.817   4.447 -0.1034  0.9120 -2.4724
   56CHL1   H4B 4077   4.242   1.915   4.452  0.7956 -0.1504 -0.7108
   56CHL1    C5 4078   4.277   1.793   4.629 -0.4908 -0.0061  0.5904
   56CHL1    C6 4079   4.240   1.885   4.723  0.7858 -0.2416 -0.1546
   56CHL1    H6 4080   4.207   1.985   4.692 -0.4997 -0.3894  0.6366
   56CHL1    C7 4081   4.245   1.869   4.873  0.9615  0.2785  0.1859
   56CHL1   H7A 4082   4.297   1.961   4.908 -1.0642  2.4617 -2.1483
   56CHL1   H7B 4083   4.143   1.875   4.917  0.7201  1.1386 -0.4605
   56CHL1    C8 4084   4.316   1.741   4.927  0.7831 -1.4272 -0.7036
   56CHL1    H8 4085   4.425   1.760   4.926  0.8831 -1.1765  3.0101
   56CHL1   C14 4086   4.263   1.715   5.073  0.2188  0.3584 -0.0415
   56CHL1   H14 4087   4.153   1.704   5.056  0.1617  0.8897 -0.0432
   56CHL1   C15 4088   4.272   1.817   5.181 -0.3517  0.0147  0.2424
   56CHL1  H15A 4089   4.368   1.873   5.181 -0.5495  0.4334  2.1419
   56CHL1  H15B 4090   4.190   1.892   5.190  2.8581  3.6927  1.7324
   56CHL1   C16 4091   4.260   1.729   5.310  0.2350 -0.2177  0.6555
   56CHL1  H16A 4092   4.360   1.727   5.359  0.0651 -1.3181  0.9910
   56CHL1  H16B 4093   4.167   1.754   5.366 -1.1049  0.7436 -1.8446
   56CHL1   C17 4094   4.249   1.580   5.273 -0.4527  0.2097 -0.4675
   56CHL1   H17 4095   4.146   1.547   5.252 -0.0312 -1.1631 -0.4286
   56CHL1   C13 4096   4.320   1.586   5.127  0.2181 -0.2048  0.0483
   56CHL1   C18 4097   4.472   1.590   5.146 -0.9359 -0.2635 -0.0152
   56CHL1  H18A 4098   4.524   1.610   5.049 -0.4484  0.6216  0.4111
   56CHL1  H18B 4099   4.520   1.663   5.214 -0.8495  0.3540 -0.7270
   56CHL1  H18C 4100   4.498   1.487   5.179 -0.1588  0.3791  1.4481
   56CHL1   C12 4101   4.275   1.476   5.029 -0.0123  0.0059  0.1958
   56CHL1  H12A 4102   4.307   1.377   5.070  0.4898  1.0609  2.5277
   56CHL1  H12B 4103   4.164   1.472   5.032 -0.1616 -0.4186 -2.7503
   56CHL1   C11 4104   4.318   1.493   4.883 -0.1606  0.5237 -0.5850
   56CHL1  H11A 4105   4.429   1.486   4.881 -0.2626 -2.1442 -0.6347
   56CHL1  H11B 4106   4.271   1.412   4.822  1.3800 -1.5863  0.8762
   56CHL1    C9 4107   4.272   1.631   4.827 -0.0022  0.0989 -0.4167
   56CHL1    H9 4108   4.162   1.625   4.833 -0.0818 -0.9619 -2.2147
   56CHL1   C10 4109   4.319   1.655   4.677 -0.1464 -0.1452  0.1514
   56CHL1   C19 4110   4.473   1.658   4.665 -0.5283 -0.5196  0.1059
   56CHL1  H19A 4111   4.510   1.742   4.727 -0.3144 -1.2144  0.9389
   56CHL1  H19B 4112   4.520   1.567   4.708 -1.1388 -1.1432 -0.5148
   56CHL1  H19C 4113   4.509   1.669   4.560  1.6010  3.2938  1.0545
   56CHL1    C1 4114   4.264   1.543   4.577 -0.1427  0.7789  0.3987
   56CHL1   H1A 4115   4.338   1.463   4.599  0.9680  1.5804 -0.2957
   56CHL1   H1B 4116   4.161   1.513   4.608 -0.1390  0.4328  0.0938
   56CHL1    C2 4117   4.266   1.581   4.428 -0.6699  1.1964  0.7554
   56CHL1   H2A 4118   4.218   1.503   4.366  2.0169  0.4690 -0.5427
   56CHL1   H2B 4119   4.371   1.596   4.394 -0.7809  0.8688  0.2623
   56CHL1   C20 4120   4.303   1.480   5.385 -0.0411  0.1332 -0.6175
   56CHL1   H20 4121   4.415   1.484   5.386  0.0325 -1.4002  0.5286
   56CHL1   C21 4122   4.270   1.337   5.352 -0.0925 -0.2098 -0.0551
   56CHL1  H21A 4123   4.315   1.303   5.256 -2.1027  1.1753 -1.5831
   56CHL1  H21B 4124   4.160   1.317   5.352  0.0133 -0.9452  1.6921
   56CHL1  H21C 4125   4.291   1.260   5.429 -2.4609  1.4513  2.4546
   56CHL1   C22 4126   4.271   1.518   5.531  0.1054  0.3276 -0.9408
   56CHL1  H22A 4127   4.287   1.628   5.539  1.0889  0.3766 -2.9724
   56CHL1  H22B 4128   4.163   1.498   5.549 -0.3453  1.6552 -1.9995
   56CHL1   C23 4129   4.357   1.448   5.643 -0.0796  0.3638  0.1530
   56CHL1  H23A 4130   4.334   1.339   5.646  2.2593 -0.2555 -1.5208
   56CHL1  H23B 4131   4.466   1.453   5.625 -0.2518 -1.0899 -1.5733
   56CHL1   C24 4132   4.339   1.511   5.784  0.7488 -0.9550 -0.1972
   56CHL1  H24A 4133   4.324   1.620   5.772 -3.1865 -1.2050  1.1579
   56CHL1  H24B 4134   4.245   1.474   5.830 -0.3073 -0.6318 -1.9988
   56CHL1   C25 4135   4.445   1.470   5.882  0.4626  0.3941 -0.6401
   56CHL1   H25 4136   4.544   1.499   5.840  1.1257  0.9911  1.2175
   56CHL1   C26 4137   4.438   1.543   6.015 -0.1772  0.4556 -0.3756
   56CHL1  H26A 4138   4.535   1.530   6.068  1.0105  0.0439 -2.4983
   56CHL1  H26B 4139   4.425   1.652   6.000  0.0166  1.2254  3.9469
   56CHL1  H26C 4140   4.364   1.499   6.085  2.0902  0.9895  2.5261
   56CHL1   C27 4141   4.432   1.320   5.908 -0.2639  1.2094  0.0705
   56CHL1  H27A 4142   4.324   1.294   5.916  0.5991 -2.1071  3.0442
   56CHL1  H27B 4143   4.487   1.255   5.837  0.1121 -0.7072  2.0215
   56CHL1  H27C 4144   4.461   1.298   6.013  1.5177  1.8858 -0.2381
   57SAPC     N 4145   6.680   3.158   8.360 -0.1633 -0.3860 -0.2126
   57SAPC   C12 4146   6.540   3.146   8.293 -0.0479 -0.3113  0.1168
   57SAPC  H12A 4147   6.488   3.239   8.307  0.5093 -0.3707  3.1490
   57SAPC  H12B 4148   6.494   3.061   8.342  4.0467 -2.0967  1.3101
   57SAPC   C13 4149   6.771   3.251   8.280  0.4335  0.1786 -0.4655
   57SAPC  H13A 4150   6.875   3.245   8.306  0.3081 -2.5731 -0.2912
   57SAPC  H13B 4151   6.782   3.217   8.178  2.8225  2.3506 -1.0170
   57SAPC  H13C 4152   6.732   3.351   8.267 -0.3591 -0.4062 -3.2867
   57SAPC   C14 4153   6.672   3.211   8.493 -0.0103 -0.2482 -0.2848
   57SAPC  H14A 4154   6.771   3.234   8.530  0.5022  1.0815 -2.2767
   57SAPC  H14B 4155   6.629   3.310   8.504  0.6050 -0.1517  1.4934
   57SAPC  H14C 4156   6.623   3.152   8.568  3.1170 -1.6931  0.8002
   57SAPC   C15 4157   6.739   3.019   8.363 -0.5013  0.4181 -0.1955
   57SAPC  H15A 4158   6.755   2.986   8.262 -1.5394  2.0192 -0.9200
   57SAPC  H15B 4159   6.841   3.022   8.401 -0.3709 -3.1703  0.0591
   57SAPC  H15C 4160   6.676   2.952   8.419  2.6375 -1.5150  1.3201
   57SAPC   C11 4161   6.533   3.105   8.142  0.6893 -0.1795 -0.6070
   57SAPC  H11A 4162   6.425   3.091   8.123  1.0240 -3.4465 -0.5475
   57SAPC  H11B 4163   6.577   3.004   8.129  1.0529  0.2321 -3.1379
   57SAPC     P 4164   6.531   3.321   8.003 -0.0261 -0.1306 -0.1427
   57SAPC   O13 4165   6.436   3.365   8.112  0.2741 -0.1301  0.2169
   57SAPC   O14 4166   6.638   3.418   7.956  0.4935  0.5907 -0.0012
   57SAPC   O12 4167   6.598   3.192   8.052 -0.5213  0.3230  0.4325
   57SAPC   O11 4168   6.446   3.271   7.880 -0.6418 -0.1267 -0.0440
   57SAPC    C1 4169   6.488   3.154   7.819  0.6347  0.2181 -0.2511
   57SAPC    HA 4170   6.599   3.152   7.818  0.8118  3.2576  1.5577
   57SAPC    HB 4171   6.452   3.068   7.879  1.1028  0.8014  0.9015
   57SAPC    C2 4172   6.434   3.129   7.677 -0.0087  0.1207  0.1615
   57SAPC    HS 4173   6.472   3.027   7.653 -0.2312 -0.2056  1.1335
   57SAPC   O21 4174   6.487   3.227   7.583 -0.2256  0.2838 -0.0970
   57SAPC   C21 4175   6.614   3.233   7.560  0.4893 -0.4935  0.4360
   57SAPC   O22 4176   6.701   3.164   7.614 -0.6928 -0.0334 -0.2374
   57SAPC   C22 4177   6.635   3.334   7.455  0.9009 -0.6248  0.1584
   57SAPC   H2R 4178   6.540   3.354   7.402  0.2980 -0.4067  1.3023
   57SAPC   H2S 4179   6.671   3.430   7.497 -0.5487  1.2999 -2.7088
   57SAPC    C3 4180   6.284   3.123   7.669  0.3026  0.0228  0.3284
   57SAPC    HX 4181   6.258   3.225   7.705 -0.8388  0.6967 -2.1901
   57SAPC    HY 4182   6.245   3.038   7.729 -1.6988  0.4364 -0.3288
   57SAPC   O31 4183   6.239   3.110   7.535  0.0264 -0.0163  0.2711
   57SAPC   C31 4184   6.264   2.998   7.472 -0.1496  1.0493  0.2516
   57SAPC   O32 4185   6.322   2.897   7.514  0.2264  0.4475 -0.0996
   57SAPC   C32 4186   6.213   3.007   7.330  0.4821 -0.1879  0.3506
   57SAPC   H2X 4187   6.251   3.104   7.290 -0.0856 -0.2462 -0.3515
   57SAPC   H2Y 4188   6.103   3.000   7.319  0.6350 -2.0276 -0.3389
   57SAPC   C23 4189   6.748   3.288   7.360  0.3841 -0.3587  0.2523
   57SAPC   H3R 4190   6.749   3.177   7.363 -2.2212 -0.4470  3.6431
   57SAPC   H3S 4191   6.841   3.334   7.401  1.1523 -0.1206 -1.6565
   57SAPC   C24 4192   6.729   3.343   7.222  0.0203 -0.1047 -0.2759
   57SAPC   H4R 4193   6.710   3.451   7.241  0.9124 -0.0472  0.3633
   57SAPC   H4S 4194   6.645   3.286   7.177 -0.6166  0.1916  0.5211
   57SAPC   C25 4195   6.858   3.342   7.132  0.4883  0.7990  0.1585
   57SAPC   H5R 4196   6.932   3.419   7.160  1.7539 -0.2570 -0.1937
   57SAPC   C26 4197   6.876   3.270   7.021  0.3315 -0.1971 -0.5199
   57SAPC   H6R 4198   6.978   3.257   6.981  0.7388  0.9253  0.0990
   57SAPC   C27 4199   6.781   3.172   6.957 -0.2066  0.1353 -0.1231
   57SAPC   H7R 4200   6.830   3.129   6.867  0.3195 -0.2520  0.3455
   57SAPC   H7S 4201   6.687   3.227   6.933 -0.2773 -0.5586 -1.5773
   57SAPC   C28 4202   6.729   3.058   7.047 -0.3712 -0.0275  0.3478
   57SAPC   H8R 4203   6.716   3.072   7.155  1.2182 -0.1044  0.5741
   57SAPC   C29 4204   6.693   2.933   7.009 -1.3388  0.1398 -0.6940
   57SAPC   H9R 4205   6.646   2.862   7.078  0.0902 -1.2417 -1.0801
   57SAPC  C210 4206   6.695   2.878   6.868  0.1315 -0.0845 -0.1686
   57SAPC  H10R 4207   6.655   2.959   6.803 -0.9842  0.7257  1.4612
   57SAPC  H10S 4208   6.617   2.800   6.863  0.1966 -0.0921 -3.0651
   57SAPC  C211 4209   6.824   2.839   6.807  0.2597 -0.1624 -0.6148
   57SAPC  H11R 4210   6.910   2.857   6.874 -0.6611  0.2578  0.4662
   57SAPC  C212 4211   6.851   2.823   6.681 -0.1145 -0.4499 -0.0010
   57SAPC  H12R 4212   6.957   2.817   6.650  0.6621 -0.6081  2.4976
   57SAPC  C213 4213   6.754   2.814   6.575 -0.3964  0.2616 -1.3454
   57SAPC  H13R 4214   6.653   2.785   6.609  0.7701 -2.2177  0.3444
   57SAPC  H13S 4215   6.792   2.723   6.522 -0.2379 -1.2825  1.2376
   57SAPC  C214 4216   6.755   2.943   6.486  0.5201  0.3534 -0.1783
   57SAPC  H14R 4217   6.698   3.023   6.537 -4.0603 -0.9287 -2.7379
   57SAPC  C215 4218   6.815   2.968   6.365  0.3863 -0.1304 -0.5918
   57SAPC  H15R 4219   6.798   3.072   6.332 -1.8089 -0.2867 -0.1033
   57SAPC  C216 4220   6.900   2.875   6.285 -1.1161  0.0253  0.5463
   57SAPC  H16R 4221   6.914   2.773   6.325  0.8038  1.1127  2.9387
   57SAPC  H16S 4222   7.001   2.921   6.292 -1.7433  1.5986 -0.1514
   57SAPC  C217 4223   6.857   2.859   6.137 -0.5807  0.2909  0.4861
   57SAPC  H17R 4224   6.832   2.962   6.105  0.3938  0.9274  1.7058
   57SAPC  H17S 4225   6.760   2.804   6.141 -1.6999  1.5223 -3.7882
   57SAPC  C218 4226   6.975   2.811   6.048 -0.4924 -0.5697 -0.6065
   57SAPC  H18R 4227   7.035   2.736   6.105 -1.6518 -0.1258  1.2746
   57SAPC  H18S 4228   7.046   2.895   6.058 -1.5877  0.5321 -1.7665
   57SAPC  C219 4229   6.952   2.792   5.898  0.0512  0.7697  0.0002
   57SAPC  H19R 4230   6.887   2.704   5.880  1.2739 -0.7032  2.3030
   57SAPC  H19S 4231   7.053   2.768   5.856 -0.9940 -3.4035 -0.5956
   57SAPC  C220 4232   6.902   2.913   5.822 -0.4953 -0.0981 -0.0088
   57SAPC  H20R 4233   6.796   2.938   5.845 -1.3748 -1.0194 -2.6752
   57SAPC  H20S 4234   6.901   2.885   5.714 -0.3364 -1.6479  0.3698
   57SAPC  H20T 4235   6.965   3.000   5.851  0.1898 -0.9785  1.2329
   57SAPC   C33 4236   6.269   2.903   7.235 -0.5748 -0.7422  0.1568
   57SAPC   H3X 4237   6.250   2.809   7.292  0.4895  0.1057  2.0097
   57SAPC   H3Y 4238   6.377   2.916   7.217 -0.5118 -3.4955 -2.2006
   57SAPC   C34 4239   6.201   2.891   7.097  0.0301 -0.8126  0.4966
   57SAPC   H4X 4240   6.092   2.911   7.086  0.4591  0.5564 -2.1566
   57SAPC   H4Y 4241   6.229   2.788   7.065 -1.4266 -2.0539  2.8926
   57SAPC   C35 4242   6.273   2.985   6.998  0.7373 -0.0258  0.4902
   57SAPC   H5X 4243   6.372   3.011   7.040  1.3877  0.0109 -0.9975
   57SAPC   H5Y 4244   6.214   3.079   6.988 -1.7272 -1.5138  0.0937
   57SAPC   C36 4245   6.292   2.914   6.865  0.6410 -0.8782  0.0559
   57SAPC   H6X 4246   6.220   2.830   6.851 -0.0669 -0.4477  1.0009
   57SAPC   H6Y 4247   6.398   2.886   6.847  0.5190 -0.2972 -1.7287
   57SAPC   C37 4248   6.258   3.007   6.738  0.1856  0.5850  0.1271
   57SAPC   H7X 4249   6.335   3.086   6.744 -0.1205  0.9529 -0.7082
   57SAPC   H7Y 4250   6.158   3.054   6.749  0.7335  1.7097  0.4322
   57SAPC   C38 4251   6.268   2.935   6.603  1.0954  1.0375  0.0117
   57SAPC   H8X 4252   6.209   2.843   6.618 -1.1788  2.3147 -0.5549
   57SAPC   H8Y 4253   6.375   2.905   6.599  0.7336 -0.1609 -1.6584
   57SAPC   C39 4254   6.217   3.009   6.480  0.8801 -0.7896 -0.1568
   57SAPC   H9X 4255   6.245   3.117   6.483 -1.5253  0.2197 -4.6252
   57SAPC   H9Y 4256   6.107   3.010   6.494  0.8016  0.4152 -0.7380
   57SAPC  C310 4257   6.245   2.943   6.348  0.2210 -0.4892  0.4257
   57SAPC  H10X 4258   6.189   2.848   6.355 -1.1637  0.1509 -1.1806
   57SAPC  H10Y 4259   6.353   2.918   6.341  0.9589  2.6209 -1.0583
   57SAPC  C311 4260   6.188   3.029   6.235  0.0089  0.0478 -0.7022
   57SAPC  H11X 4261   6.253   3.119   6.220  0.1721  0.3390  1.4432
   57SAPC  H11Y 4262   6.087   3.067   6.260 -0.6563 -1.7994 -0.4541
   57SAPC  C312 4263   6.199   2.952   6.103  0.6895 -0.1814  0.4369
   57SAPC  H12X 4264   6.139   3.005   6.025 -0.6614 -0.4620  1.2590
   57SAPC  H12Y 4265   6.147   2.855   6.118  0.1351  0.3518  2.1835
   57SAPC  C313 4266   6.349   2.938   6.053  1.3799  0.0286  0.3034
   57SAPC  H13X 4267   6.413   2.896   6.134  0.0126 -1.7105  0.5403
   57SAPC  H13Y 4268   6.394   3.035   6.024  1.9724  0.4107  2.3332
   57SAPC  C314 4269   6.371   2.833   5.941 -0.3509  0.0149  0.7152
   57SAPC  H14X 4270   6.289   2.843   5.867 -1.0444 -2.2587  1.0975
   57SAPC  H14Y 4271   6.347   2.730   5.976 -1.8137  0.7388  1.9703
   57SAPC  C315 4272   6.511   2.842   5.859 -0.0897 -0.7180 -0.9156
   57SAPC  H15X 4273   6.583   2.898   5.921 -2.1494 -0.2906  1.2400
   57SAPC  H15Y 4274   6.504   2.894   5.761 -1.4868  0.0983 -0.4163
   57SAPC  C316 4275   6.575   2.703   5.835  0.0225  0.4140  0.0004
   57SAPC  H16X 4276   6.581   2.660   5.937  1.2384 -0.7956 -0.5527
   57SAPC  H16Y 4277   6.681   2.710   5.803  0.6354 -1.1310  1.5741
   57SAPC  C317 4278   6.493   2.625   5.733 -0.1921  0.4464  0.5505
   57SAPC  H17X 4279   6.488   2.686   5.641  0.5798 -1.3945 -0.7824
   57SAPC  H17Y 4280   6.386   2.605   5.758 -0.9497  1.8811 -1.3244
   57SAPC  C318 4281   6.556   2.487   5.698 -0.4629 -0.4317  0.0848
   57SAPC  H18X 4282   6.501   2.436   5.616 -1.2517 -0.5361  0.6645
   57SAPC  H18Y 4283   6.545   2.416   5.783 -1.1375  0.1744  0.5148
   57SAPC  H18Z 4284   6.660   2.491   5.658 -1.3482 -0.2769 -2.3113
   58SAPC     N 4285   5.314   2.326   8.487 -0.3217  0.0173  0.0601
   58SAPC   C12 4286   5.233   2.384   8.374 -0.0351 -0.0317 -0.0030
   58SAPC  H12A 4287   5.217   2.489   8.388  0.9087 -0.0269  1.2539
   58SAPC  H12B 4288   5.134   2.343   8.386  0.6682 -1.9646 -0.3057
   58SAPC   C13 4289   5.267   2.383   8.616  0.5702 -0.3485  0.2600
   58SAPC  H13A 4290   5.335   2.358   8.696 -0.0490  1.3966  1.3850
   58SAPC  H13B 4291   5.251   2.490   8.616  0.6776 -0.3328  0.3312
   58SAPC  H13C 4292   5.166   2.348   8.632  0.1778  0.6652  0.0995
   58SAPC   C14 4293   5.313   2.175   8.493 -0.5685 -0.5049  0.5223
   58SAPC  H14A 4294   5.379   2.142   8.572  0.2324  0.7406  0.3916
   58SAPC  H14B 4295   5.219   2.124   8.509  0.2364 -2.8258 -1.4824
   58SAPC  H14C 4296   5.346   2.137   8.398  0.8069  1.8620 -0.0176
   58SAPC   C15 4297   5.464   2.366   8.482  0.1304 -0.4241  0.0250
   58SAPC  H15A 4298   5.498   2.338   8.384 -0.0737 -0.6659  0.0221
   58SAPC  H15B 4299   5.479   2.473   8.494  0.4183 -0.6170  1.6363
   58SAPC  H15C 4300   5.523   2.310   8.553  1.6523  1.1969  0.0907
   58SAPC   C11 4301   5.258   2.334   8.224 -0.2893 -0.7047 -0.5623
   58SAPC  H11A 4302   5.358   2.365   8.189 -0.3728  0.4706  0.1914
   58SAPC  H11B 4303   5.195   2.387   8.149  1.4163 -0.2420 -1.7242
   58SAPC     P 4304   5.115   2.121   8.178  0.4380  0.3686  0.0197
   58SAPC   O13 4305   5.156   1.986   8.127 -0.3299  0.9025  0.2639
   58SAPC   O14 4306   5.037   2.138   8.302  0.4842  0.2174 -0.9447
   58SAPC   O12 4307   5.251   2.194   8.212  0.1621  0.0187  0.2599
   58SAPC   O11 4308   5.053   2.206   8.064  0.1131  0.7878  0.2369
   58SAPC    C1 4309   5.113   2.205   7.939  0.5114 -0.3039 -0.0569
   58SAPC    HA 4310   5.133   2.309   7.905  0.5829  0.4159  2.0517
   58SAPC    HB 4311   5.208   2.149   7.929 -0.2217 -1.7850  0.9630
   58SAPC    C2 4312   5.026   2.152   7.819  0.5082 -0.3763 -0.5789
   58SAPC    HS 4313   4.953   2.230   7.788  0.1647 -0.7656 -0.7673
   58SAPC   O21 4314   4.947   2.040   7.861 -0.5042 -0.1682 -0.5822
   58SAPC   C21 4315   4.836   2.068   7.941 -0.2220 -0.2313  0.5581
   58SAPC   O22 4316   4.797   2.186   7.952 -0.0435 -0.4398  0.0453
   58SAPC   C22 4317   4.772   1.939   7.982 -0.3195 -0.1470  0.8495
   58SAPC   H2R 4318   4.851   1.861   7.972 -1.4250 -1.2967  0.7803
   58SAPC   H2S 4319   4.741   1.939   8.089 -0.8192 -1.6672  0.7361
   58SAPC    C3 4320   5.108   2.114   7.698 -0.3663  0.4049 -0.2829
   58SAPC    HX 4321   5.162   2.017   7.707 -0.6612  0.4382  2.7258
   58SAPC    HY 4322   5.194   2.182   7.677  1.1449 -1.1692  0.5830
   58SAPC   O31 4323   5.022   2.122   7.581  0.3576  0.2479  0.3643
   58SAPC   C31 4324   5.095   2.105   7.468  0.1845  0.4355  0.2935
   58SAPC   O32 4325   5.208   2.069   7.467 -0.0969 -0.3176  0.6618
   58SAPC   C32 4326   4.996   2.124   7.345  0.4083 -0.4777  0.1352
   58SAPC   H2X 4327   4.987   2.234   7.329 -0.7459 -0.2985  1.7374
   58SAPC   H2Y 4328   4.900   2.073   7.368 -0.4347  1.0079  0.0251
   58SAPC   C23 4329   4.654   1.897   7.888 -0.5219  0.1220  0.7248
   58SAPC   H3R 4330   4.572   1.973   7.881 -0.9096 -0.2416  1.2322
   58SAPC   H3S 4331   4.611   1.806   7.935  0.5842 -0.5050  0.5470
   58SAPC   C24 4332   4.714   1.857   7.753  0.0663 -0.0056  0.2474
   58SAPC   H4R 4333   4.768   1.761   7.769 -0.9517 -0.7292 -0.5273
   58SAPC   H4S 4334   4.797   1.926   7.725 -1.4094  0.9307 -2.0586
   58SAPC   C25 4335   4.604   1.850   7.646 -0.0346  0.0316 -0.3710
   58SAPC   H5R 4336   4.563   1.748   7.644  1.9618 -0.8172 -0.1358
   58SAPC   C26 4337   4.572   1.933   7.544 -0.0763  0.2527 -0.2309
   58SAPC   H6R 4338   4.478   1.906   7.495  0.2171  0.8148 -1.1368
   58SAPC   C27 4339   4.629   2.070   7.521  0.2651 -0.8583  0.0078
   58SAPC   H7R 4340   4.669   2.076   7.417 -1.4599 -2.2329 -0.8016
   58SAPC   H7S 4341   4.716   2.094   7.585  1.9248 -2.0512 -1.6747
   58SAPC   C28 4342   4.516   2.176   7.538 -0.1969 -0.0652 -0.2609
   58SAPC   H8R 4343   4.445   2.168   7.622 -2.4579 -0.0419 -2.0944
   58SAPC   C29 4344   4.491   2.273   7.449 -0.4729  0.2636 -0.3933
   58SAPC   H9R 4345   4.417   2.351   7.469  0.0867  0.4815  0.9059
   58SAPC  C210 4346   4.575   2.300   7.326 -0.0509  0.0194 -0.0218
   58SAPC  H10R 4347   4.550   2.233   7.241  1.0624 -0.4788  0.0286
   58SAPC  H10S 4348   4.680   2.275   7.350 -0.2462  0.2421  1.1392
   58SAPC  C211 4349   4.569   2.439   7.279  0.0318  0.2909  0.1951
   58SAPC  H11R 4350   4.493   2.499   7.330 -2.2329 -1.3438 -1.0675
   58SAPC  C212 4351   4.650   2.490   7.189  1.0899 -0.2880  0.7773
   58SAPC  H12R 4352   4.650   2.596   7.159 -2.1551 -0.8686 -1.9267
   58SAPC  C213 4353   4.744   2.409   7.104 -0.3193  1.4474  0.5124
   58SAPC  H13R 4354   4.690   2.375   7.014  2.4707 -0.1274 -0.6953
   58SAPC  H13S 4355   4.781   2.317   7.154 -1.0675  1.2584  0.7394
   58SAPC  C214 4356   4.861   2.497   7.063  0.1467 -0.1156 -0.4472
   58SAPC  H14R 4357   4.938   2.520   7.137  0.7111  0.4924 -1.2106
   58SAPC  C215 4358   4.862   2.576   6.950 -0.5221 -0.5811  0.3581
   58SAPC  H15R 4359   4.950   2.640   6.933 -1.0054  0.4646  1.6458
   58SAPC  C216 4360   4.762   2.577   6.841 -0.2044 -0.0876 -0.2995
   58SAPC  H16R 4361   4.725   2.679   6.820 -1.0186 -0.3620 -0.2667
   58SAPC  H16S 4362   4.664   2.527   6.858  0.0003 -0.4393 -0.1372
   58SAPC  C217 4363   4.817   2.528   6.702 -1.1289  0.2843 -0.1827
   58SAPC  H17R 4364   4.877   2.609   6.656 -2.2317  1.3394  0.1623
   58SAPC  H17S 4365   4.730   2.515   6.634 -0.9929  2.0751 -0.7522
   58SAPC  C218 4366   4.886   2.393   6.708 -0.0325 -0.9553 -0.0151
   58SAPC  H18R 4367   4.804   2.327   6.745 -1.2206  1.0177  1.0254
   58SAPC  H18S 4368   4.970   2.397   6.781 -0.4196 -1.4845  0.4745
   58SAPC  C219 4369   4.950   2.353   6.577 -0.2189 -0.4605  0.8361
   58SAPC  H19R 4370   5.003   2.255   6.572 -0.5580 -0.5785 -2.0924
   58SAPC  H19S 4371   5.031   2.427   6.563 -1.6593  1.2003  0.9799
   58SAPC  C220 4372   4.858   2.371   6.457  0.7337 -0.5996  0.2442
   58SAPC  H20R 4373   4.890   2.311   6.368 -1.0174 -1.9725  0.4821
   58SAPC  H20S 4374   4.828   2.474   6.429  1.4474 -0.3007  0.5649
   58SAPC  H20T 4375   4.761   2.325   6.486  0.3918 -0.1975 -0.2298
   58SAPC   C33 4376   5.069   2.056   7.224  0.3625 -1.1504  0.0132
   58SAPC   H3X 4377   5.082   1.947   7.239  4.1164 -0.8467 -0.0090
   58SAPC   H3Y 4378   5.168   2.106   7.212  0.1980 -0.9975 -0.7959
   58SAPC   C34 4379   4.994   2.091   7.091 -0.1223  0.3048  0.0383
   58SAPC   H4X 4380   5.075   2.073   7.018 -0.4677  0.0168 -0.2794
   58SAPC   H4Y 4381   4.965   2.198   7.100 -1.7265 -0.1607  0.6953
   58SAPC   C35 4382   4.890   1.992   7.051  0.6785 -0.0416 -0.8071
   58SAPC   H5X 4383   4.825   1.978   7.141  0.2393  1.4770 -0.8541
   58SAPC   H5Y 4384   4.948   1.901   7.026 -0.2921 -0.5088 -1.3920
   58SAPC   C36 4385   4.814   2.041   6.923 -0.3878 -0.0598 -0.3614
   58SAPC   H6X 4386   4.803   2.151   6.927 -1.8590 -0.0960 -2.0600
   58SAPC   H6Y 4387   4.711   1.999   6.919 -1.0599  1.3809  0.9166
   58SAPC   C37 4388   4.882   2.014   6.790  0.6546  0.1598 -0.2457
   58SAPC   H7X 4389   4.909   1.907   6.776 -0.1040 -0.5398  2.9197
   58SAPC   H7Y 4390   4.970   2.080   6.776 -0.1669  1.5179  0.7832
   58SAPC   C38 4391   4.786   2.046   6.674 -0.2516  0.7350  0.4944
   58SAPC   H8X 4392   4.754   2.152   6.664 -1.1924  0.5704  1.5174
   58SAPC   H8Y 4393   4.696   1.983   6.689  0.4137 -0.4832 -0.4440
   58SAPC   C39 4394   4.855   1.998   6.544 -0.5289  0.6688  0.3231
   58SAPC   H9X 4395   4.895   1.894   6.542  0.2006  0.9526 -0.6438
   58SAPC   H9Y 4396   4.943   2.065   6.536  0.9817 -1.2895 -0.1932
   58SAPC  C310 4397   4.764   2.006   6.417 -0.0771  0.2037  0.6065
   58SAPC  H10X 4398   4.728   2.111   6.410  3.7088  1.6686  0.6683
   58SAPC  H10Y 4399   4.685   1.928   6.417  0.5154 -0.4086  0.8990
   58SAPC  C311 4400   4.837   1.967   6.283 -0.2209  0.2332  0.2036
   58SAPC  H11X 4401   4.907   1.882   6.302 -1.1789 -0.1726  2.2927
   58SAPC  H11Y 4402   4.898   2.050   6.245 -0.0449 -0.9017 -2.1686
   58SAPC  C312 4403   4.738   1.938   6.164 -0.0589  0.4273 -0.5621
   58SAPC  H12X 4404   4.646   1.995   6.189 -1.8321 -2.6799  0.5369
   58SAPC  H12Y 4405   4.719   1.830   6.180  0.9448  0.5329  1.6945
   58SAPC  C313 4406   4.794   1.953   6.023  0.0933  0.0023 -0.2529
   58SAPC  H13X 4407   4.883   1.893   5.996  0.1746  1.0910 -2.6438
   58SAPC  H13Y 4408   4.841   2.054   6.025 -0.2579  0.1603  0.5851
   58SAPC  C314 4409   4.689   1.927   5.908 -0.4156  0.7644  0.3182
   58SAPC  H14X 4410   4.595   1.987   5.916 -1.0380 -0.2059  0.4108
   58SAPC  H14Y 4411   4.659   1.823   5.932 -0.4056  0.5880 -0.4256
   58SAPC  C315 4412   4.758   1.919   5.773 -0.1155  0.2993  0.2295
   58SAPC  H15X 4413   4.830   1.835   5.766  1.4798  1.5947  0.6443
   58SAPC  H15Y 4414   4.817   2.012   5.761 -0.1593  0.1853 -1.0010
   58SAPC  C316 4415   4.658   1.921   5.650 -0.5706  0.2412 -0.6420
   58SAPC  H16X 4416   4.572   1.854   5.674 -0.9170  1.0113  0.3598
   58SAPC  H16Y 4417   4.712   1.893   5.557  1.8462 -0.2321  0.8166
   58SAPC  C317 4418   4.609   2.059   5.625 -0.9401 -0.0876 -0.1285
   58SAPC  H17X 4419   4.582   2.095   5.726  0.2517  0.0450  0.1535
   58SAPC  H17Y 4420   4.527   2.054   5.550  0.9176  0.5598 -2.3519
   58SAPC  C318 4421   4.714   2.157   5.568  0.7585  0.3414 -0.2325
   58SAPC  H18X 4422   4.807   2.176   5.626  0.1693 -0.2985  0.9801
   58SAPC  H18Y 4423   4.663   2.255   5.560 -1.0862 -0.6246 -0.8170
   58SAPC  H18Z 4424   4.737   2.130   5.463 -2.8365  0.0690 -1.0735
   59SAPC     N 4425   0.695   6.439   8.609  0.1977  0.0488 -0.0370
   59SAPC   C12 4426   0.675   6.387   8.464  0.8017  0.5286  0.3552
   59SAPC  H12A 4427   0.636   6.288   8.478 -1.6647  1.3548 -0.2144
   59SAPC  H12B 4428   0.774   6.377   8.421  0.6310  0.3914 -0.0001
   59SAPC   C13 4429   0.810   6.375   8.676 -0.0067 -0.5423  0.1201
   59SAPC  H13A 4430   0.797   6.389   8.782  0.1573  1.3845 -0.0734
   59SAPC  H13B 4431   0.809   6.272   8.645 -1.6353 -0.1490 -1.3338
   59SAPC  H13C 4432   0.899   6.423   8.637 -2.2565  3.3110 -0.8412
   59SAPC   C14 4433   0.727   6.581   8.611  0.0922  0.4070 -0.1110
   59SAPC  H14A 4434   0.739   6.616   8.713 -0.6240 -1.1651  0.5532
   59SAPC  H14B 4435   0.818   6.613   8.563 -0.5201  1.9904 -0.2884
   59SAPC  H14C 4436   0.642   6.637   8.574  1.1312  2.3793  0.3180
   59SAPC   C15 4437   0.573   6.411   8.698  0.5403 -0.6459 -0.3759
   59SAPC  H15A 4438   0.584   6.461   8.793  0.9792  0.8796 -1.2103
   59SAPC  H15B 4439   0.493   6.465   8.650  0.8361 -0.4733 -0.6761
   59SAPC  H15C 4440   0.551   6.307   8.718  1.2224 -0.7865 -0.3204
   59SAPC   C11 4441   0.583   6.463   8.367 -0.6364  0.4562  0.2194
   59SAPC  H11A 4442   0.490   6.486   8.423 -0.0389 -0.7193  1.7729
   59SAPC  H11B 4443   0.564   6.405   8.274  0.8979 -0.9440  0.7364
   59SAPC     P 4444   0.770   6.589   8.242  0.0963 -0.0244 -0.1095
   59SAPC   O13 4445   0.808   6.731   8.218 -0.0905 -0.4355  0.5974
   59SAPC   O14 4446   0.868   6.501   8.306 -0.5065  0.1237  0.2912
   59SAPC   O12 4447   0.637   6.585   8.331  0.1962 -0.0692  0.0446
   59SAPC   O11 4448   0.712   6.528   8.103 -0.5076 -0.4646  0.2376
   59SAPC    C1 4449   0.674   6.612   7.989  0.4448 -0.5848 -0.0388
   59SAPC    HA 4450   0.573   6.587   7.949  1.2764  0.2495 -2.8528
   59SAPC    HB 4451   0.672   6.720   8.014 -0.7338 -0.6083  0.0211
   59SAPC    C2 4452   0.769   6.609   7.861  0.7468  0.5173 -0.3484
   59SAPC    HS 4453   0.722   6.665   7.777 -1.1847 -2.3938 -1.3403
   59SAPC   O21 4454   0.797   6.470   7.832 -0.1832  0.0935 -0.4286
   59SAPC   C21 4455   0.712   6.403   7.749  0.5733  0.8318 -0.7720
   59SAPC   O22 4456   0.608   6.452   7.707  0.8038 -0.0653 -0.1402
   59SAPC   C22 4457   0.764   6.262   7.713 -0.4391  0.5725 -0.4078
   59SAPC   H2R 4458   0.866   6.257   7.757 -0.1796 -1.4594 -1.1028
   59SAPC   H2S 4459   0.703   6.180   7.757  1.8304 -1.7838 -1.3324
   59SAPC    C3 4460   0.897   6.678   7.903  0.7121 -0.4050 -0.2918
   59SAPC    HX 4461   0.947   6.624   7.986  1.4394  0.6675 -0.0132
   59SAPC    HY 4462   0.862   6.778   7.935 -1.9919 -0.7983 -1.7059
   59SAPC   O31 4463   0.977   6.699   7.780  0.1914 -0.3350  0.7065
   59SAPC   C31 4464   1.083   6.626   7.763  0.0755  0.1994  0.0486
   59SAPC   O32 4465   1.135   6.547   7.847  0.0347 -0.3137 -0.4260
   59SAPC   C32 4466   1.140   6.644   7.623  0.3027 -0.2234 -0.0176
   59SAPC   H2X 4467   1.164   6.751   7.604 -1.2056  0.2255  0.4754
   59SAPC   H2Y 4468   1.065   6.600   7.554 -2.1060 -0.4833  2.5686
   59SAPC   C23 4469   0.764   6.222   7.563 -0.2985  0.5422 -0.4387
   59SAPC   H3R 4470   0.661   6.222   7.523 -1.3157 -0.6884  1.9827
   59SAPC   H3S 4471   0.798   6.117   7.555  0.3308  0.7854 -1.1237
   59SAPC   C24 4472   0.851   6.311   7.477 -0.7256  0.0052 -0.1972
   59SAPC   H4R 4473   0.823   6.416   7.500  0.0802 -0.2092  1.9643
   59SAPC   H4S 4474   0.825   6.297   7.370 -2.1021 -2.4131  0.3493
   59SAPC   C25 4475   0.998   6.292   7.496 -0.2681  0.8015 -0.8084
   59SAPC   H5R 4476   1.032   6.277   7.599  0.9408  1.8480 -1.0321
   59SAPC   C26 4477   1.093   6.296   7.400 -0.5321  0.5635 -0.2423
   59SAPC   H6R 4478   1.195   6.267   7.432 -1.0837  1.2700  2.4809
   59SAPC   C27 4479   1.068   6.320   7.256  0.0182  0.9841 -0.2678
   59SAPC   H7R 4480   0.999   6.250   7.204 -0.1228  0.5441  0.5106
   59SAPC   H7S 4481   1.164   6.293   7.207  1.9912  3.3703  1.9479
   59SAPC   C28 4482   1.032   6.459   7.218 -0.2765  0.4782 -0.5311
   59SAPC   H8R 4483   0.984   6.528   7.290 -0.5965 -0.6936  0.4191
   59SAPC   C29 4484   1.053   6.523   7.105  0.4857  0.3408 -0.1878
   59SAPC   H9R 4485   1.032   6.631   7.107 -1.4398  0.0059  0.3540
   59SAPC  C210 4486   1.111   6.464   6.978  0.2672  0.2666  0.6981
   59SAPC  H10R 4487   1.041   6.405   6.916 -0.0836  0.4803  0.8852
   59SAPC  H10S 4488   1.195   6.396   7.002 -0.4732 -1.8279 -2.2250
   59SAPC  C211 4489   1.183   6.561   6.892  0.2785  0.1576 -0.3753
   59SAPC  H11R 4490   1.245   6.640   6.939 -0.8224  2.2391 -2.2178
   59SAPC  C212 4491   1.187   6.568   6.757 -0.3482  0.1303  0.6189
   59SAPC  H12R 4492   1.250   6.651   6.721  2.7562 -1.7333  1.4164
   59SAPC  C213 4493   1.120   6.475   6.656  0.6873 -0.1869 -0.5653
   59SAPC  H13R 4494   1.070   6.527   6.572 -1.3456 -0.3669  0.4685
   59SAPC  H13S 4495   1.049   6.400   6.696  0.6315 -0.0246 -0.3543
   59SAPC  C214 4496   1.228   6.397   6.597  0.0448 -0.1277 -0.0250
   59SAPC  H14R 4497   1.269   6.316   6.659  3.0466  0.7455 -0.7129
   59SAPC  C215 4498   1.289   6.427   6.484  0.2383 -0.2988  0.2114
   59SAPC  H15R 4499   1.361   6.358   6.439  1.1262  1.7734 -1.7378
   59SAPC  C216 4500   1.268   6.534   6.385 -0.1102 -0.1300  0.0919
   59SAPC  H16R 4501   1.371   6.572   6.370  0.1375  1.4710  4.2622
   59SAPC  H16S 4502   1.205   6.617   6.426 -1.0343 -0.0041 -1.5069
   59SAPC  C217 4503   1.192   6.484   6.268  0.0430 -0.5430 -1.1464
   59SAPC  H17R 4504   1.184   6.557   6.185 -3.8400  2.5067  1.5113
   59SAPC  H17S 4505   1.092   6.448   6.302  0.3671 -1.1802 -0.8421
   59SAPC  C218 4506   1.255   6.364   6.194  0.0872 -0.3401 -1.0293
   59SAPC  H18R 4507   1.244   6.270   6.252 -0.5979 -0.7539 -1.8175
   59SAPC  H18S 4508   1.363   6.390   6.188 -0.0415  0.9208  0.9551
   59SAPC  C219 4509   1.208   6.344   6.056  0.4746 -0.1533  0.6226
   59SAPC  H19R 4510   1.227   6.439   6.001 -1.2173 -0.2703 -0.2227
   59SAPC  H19S 4511   1.098   6.332   6.059  0.4130  0.0952 -0.3985
   59SAPC  C220 4512   1.281   6.220   5.988 -0.0601  0.3435  0.4018
   59SAPC  H20R 4513   1.246   6.218   5.883 -1.1419 -2.1224  0.7450
   59SAPC  H20S 4514   1.263   6.120   6.033 -2.0740 -0.2355 -1.4782
   59SAPC  H20T 4515   1.391   6.234   5.996 -0.0367 -0.0540  0.8651
   59SAPC   C33 4516   1.269   6.553   7.612 -0.6189 -0.0028  0.2748
   59SAPC   H3X 4517   1.258   6.447   7.646  1.7165  0.2123  2.0199
   59SAPC   H3Y 4518   1.343   6.599   7.682 -0.5709  0.9674 -0.3970
   59SAPC   C34 4519   1.316   6.564   7.470  0.1383 -0.1394  0.0649
   59SAPC   H4X 4520   1.364   6.658   7.435  1.6570 -1.5352 -1.7659
   59SAPC   H4Y 4521   1.232   6.534   7.404 -0.0634  1.6850 -0.5732
   59SAPC   C35 4522   1.428   6.465   7.442 -0.1474 -0.3306 -0.1028
   59SAPC   H5X 4523   1.408   6.365   7.487  2.1740 -0.4898  0.7009
   59SAPC   H5Y 4524   1.516   6.497   7.502 -1.1726  3.8122 -0.4552
   59SAPC   C36 4525   1.460   6.450   7.297  0.1454 -0.0101 -0.5079
   59SAPC   H6X 4526   1.380   6.400   7.239  0.1003  1.5234 -1.8485
   59SAPC   H6Y 4527   1.542   6.375   7.300 -0.9976 -1.3180 -0.7183
   59SAPC   C37 4528   1.511   6.580   7.222  0.1530  1.2180  0.0621
   59SAPC   H7X 4529   1.606   6.605   7.273 -0.1809 -2.2043  2.7673
   59SAPC   H7Y 4530   1.449   6.669   7.247 -1.8172  0.3260 -1.3391
   59SAPC   C38 4531   1.525   6.567   7.073  0.0164  0.0070  0.5318
   59SAPC   H8X 4532   1.424   6.565   7.027  0.7093  1.7605 -1.2305
   59SAPC   H8Y 4533   1.573   6.472   7.043  0.0185  0.1390  0.1085
   59SAPC   C39 4534   1.601   6.682   7.000  0.5614  0.1211 -0.4360
   59SAPC   H9X 4535   1.705   6.676   7.040  0.1210 -1.0196  0.5996
   59SAPC   H9Y 4536   1.555   6.781   7.016  0.8012  0.1091  0.3414
   59SAPC  C310 4537   1.606   6.660   6.848  0.0450 -0.4844  0.5972
   59SAPC  H10X 4538   1.509   6.677   6.798  1.3688  2.2289 -1.3531
   59SAPC  H10Y 4539   1.649   6.561   6.823  1.5286  0.3606 -0.4043
   59SAPC  C311 4540   1.701   6.762   6.777 -0.2515 -0.1874  0.0699
   59SAPC  H11X 4541   1.809   6.742   6.796 -0.2206 -0.7246 -0.6475
   59SAPC  H11Y 4542   1.680   6.864   6.816 -1.4052 -0.5905  0.5613
   59SAPC  C312 4543   1.655   6.774   6.631 -0.2409  0.1184  0.8086
   59SAPC  H12X 4544   1.553   6.819   6.634 -0.4776 -0.4331  1.2373
   59SAPC  H12Y 4545   1.645   6.668   6.600  1.5359  0.3335 -0.6723
   59SAPC  C313 4546   1.754   6.856   6.547  0.5268 -0.0048 -0.4090
   59SAPC  H13X 4547   1.748   6.962   6.577 -1.3893 -0.4225  0.8545
   59SAPC  H13Y 4548   1.720   6.858   6.441  0.0798 -0.0324 -0.2671
   59SAPC  C314 4549   1.899   6.810   6.546  1.5116 -0.8010  0.2935
   59SAPC  H14X 4550   1.911   6.701   6.527 -0.6102 -1.1279  0.5879
   59SAPC  H14Y 4551   1.940   6.811   6.649 -0.0762  0.5150  0.9686
   59SAPC  C315 4552   1.979   6.906   6.450  0.0050 -0.1518 -0.2235
   59SAPC  H15X 4553   1.964   7.008   6.490 -0.0745 -0.7358  1.2809
   59SAPC  H15Y 4554   1.932   6.907   6.349  0.0162 -5.0355 -0.5329
   59SAPC  C316 4555   2.121   6.861   6.430 -0.0767 -0.2325  0.0307
   59SAPC  H16X 4556   2.112   6.763   6.379 -0.6870 -0.3264  0.3036
   59SAPC  H16Y 4557   2.172   6.850   6.528 -0.9472 -2.7162  0.2658
   59SAPC  C317 4558   2.193   6.960   6.341 -0.2104 -0.0355  0.1346
   59SAPC  H17X 4559   2.134   6.962   6.247 -0.3001  0.7181  0.1991
   59SAPC  H17Y 4560   2.294   6.920   6.319 -0.5678 -1.4222  0.8659
   59SAPC  C318 4561   2.202   7.106   6.396  0.0765  0.0417  0.4067
   59SAPC  H18X 4562   2.253   7.169   6.321  0.8272  1.0074  1.6891
   59SAPC  H18Y 4563   2.272   7.108   6.483  2.1112 -2.7951 -0.9928
   59SAPC  H18Z 4564   2.097   7.141   6.410 -0.2888  0.1169 -2.0675
   60SAPC     N 4565   6.770   0.431   8.297  0.0643  0.1951  0.3947
   60SAPC   C12 4566   6.896   0.360   8.277 -0.4985  0.5732 -0.0184
   60SAPC  H12A 4567   6.890   0.258   8.310 -2.2393  0.4794 -0.5174
   60SAPC  H12B 4568   6.961   0.417   8.343  0.5605 -0.8029  0.1857
   60SAPC   C13 4569   6.655   0.364   8.228  0.0467 -0.1456 -0.1073
   60SAPC  H13A 4570   6.686   0.359   8.125 -3.5722  0.5789 -1.3858
   60SAPC  H13B 4571   6.645   0.258   8.246 -2.1991 -0.5286 -2.9176
   60SAPC  H13C 4572   6.561   0.417   8.229  0.3096  0.3256 -0.2441
   60SAPC   C14 4573   6.741   0.429   8.445 -0.3507  0.4825  0.3881
   60SAPC  H14A 4574   6.809   0.491   8.501  0.2481 -2.0237  2.6044
   60SAPC  H14B 4575   6.651   0.480   8.476 -0.0594  0.5042  1.2044
   60SAPC  H14C 4576   6.728   0.329   8.483  0.2086 -0.0511 -0.7743
   60SAPC   C15 4577   6.792   0.575   8.250  0.7675 -0.7132 -0.0400
   60SAPC  H15A 4578   6.876   0.623   8.299  0.7519  1.8272 -2.2815
   60SAPC  H15B 4579   6.820   0.583   8.145  1.9834  0.8898  0.3656
   60SAPC  H15C 4580   6.707   0.638   8.271  1.9953  0.1060  2.9238
   60SAPC   C11 4581   6.959   0.336   8.138 -0.0735  0.2039  0.3851
   60SAPC  H11A 4582   6.956   0.430   8.080 -0.0717 -0.4259 -0.6545
   60SAPC  H11B 4583   6.898   0.260   8.085 -0.5242  0.2250  0.8591
   60SAPC     P 4584   7.219   0.386   8.149  0.0416 -0.1428 -0.4342
   60SAPC   O13 4585   7.172   0.524   8.128  0.0833  0.6620  0.4430
   60SAPC   O14 4586   7.298   0.372   8.274 -0.0241  0.5043  0.3626
   60SAPC   O12 4587   7.095   0.289   8.157 -0.1145 -0.6094  0.0411
   60SAPC   O11 4588   7.303   0.337   8.025  0.2377 -0.5131 -0.2809
   60SAPC    C1 4589   7.251   0.314   7.889 -0.4505 -0.7124  0.1099
   60SAPC    HA 4590   7.274   0.210   7.857  0.2665 -0.0298 -1.7697
   60SAPC    HB 4591   7.140   0.313   7.878 -0.2959 -1.7929 -1.8625
   60SAPC    C2 4592   7.334   0.406   7.795 -0.0713 -0.5317 -0.0994
   60SAPC    HS 4593   7.285   0.399   7.696 -0.1761  1.3313 -0.2079
   60SAPC   O21 4594   7.473   0.373   7.792  0.4777  0.0141 -0.4422
   60SAPC   C21 4595   7.498   0.268   7.722 -0.3571  0.0606 -0.3180
   60SAPC   O22 4596   7.418   0.192   7.670 -0.0543  0.1630  0.0559
   60SAPC   C22 4597   7.655   0.249   7.721  0.4054  0.3405 -0.2639
   60SAPC   H2R 4598   7.672   0.140   7.735 -0.1930  0.4871  2.0145
   60SAPC   H2S 4599   7.684   0.286   7.621 -0.9683  1.5135 -0.2720
   60SAPC    C3 4600   7.318   0.554   7.833  0.4333 -0.0593 -1.0280
   60SAPC    HX 4601   7.372   0.571   7.929  0.9781 -0.7462 -1.2073
   60SAPC    HY 4602   7.213   0.571   7.865  0.9129  0.5098  0.3243
   60SAPC   O31 4603   7.357   0.634   7.725 -0.5051  0.1348  0.2672
   60SAPC   C31 4604   7.414   0.748   7.751  0.6321  0.0918 -0.4526
   60SAPC   O32 4605   7.433   0.791   7.862  0.1093 -0.3858 -0.7026
   60SAPC   C32 4606   7.461   0.814   7.622 -0.1513  0.1072  0.5888
   60SAPC   H2X 4607   7.393   0.901   7.610  0.6900  0.5136 -1.9300
   60SAPC   H2Y 4608   7.444   0.752   7.532  1.2856 -1.0242  1.0577
   60SAPC   C23 4609   7.724   0.328   7.837  0.5867 -0.5136  0.1513
   60SAPC   H3R 4610   7.695   0.278   7.932  2.1228 -0.3686  0.7247
   60SAPC   H3S 4611   7.698   0.435   7.829 -2.0168 -1.0750  0.1403
   60SAPC   C24 4612   7.880   0.323   7.832  0.1773  0.8721  0.4795
   60SAPC   H4R 4613   7.929   0.386   7.910  2.8096 -0.4594  0.0295
   60SAPC   H4S 4614   7.908   0.374   7.738 -0.6635  0.3032 -0.0928
   60SAPC   C25 4615   7.950   0.189   7.840 -0.5383  0.5457 -0.3237
   60SAPC   H5R 4616   7.904   0.122   7.913 -0.6789 -1.0790 -1.8461
   60SAPC   C26 4617   8.055   0.141   7.767  0.7527 -0.4074 -0.2629
   60SAPC   H6R 4618   8.098   0.046   7.803 -1.5641 -0.6546  2.2291
   60SAPC   C27 4619   8.106   0.223   7.647 -0.3682  0.8108 -0.2665
   60SAPC   H7R 4620   8.217   0.235   7.651 -0.2306  0.5250 -2.1822
   60SAPC   H7S 4621   8.077   0.331   7.647 -1.5347  0.5010  0.1823
   60SAPC   C28 4622   8.047   0.156   7.521  0.2779 -0.3250 -0.5003
   60SAPC   H8R 4623   7.939   0.131   7.525 -0.1126  1.4334  1.5825
   60SAPC   C29 4624   8.122   0.129   7.414 -0.1285 -0.6281 -0.2995
   60SAPC   H9R 4625   8.071   0.079   7.330 -1.6575  1.4381 -0.7131
   60SAPC  C210 4626   8.272   0.139   7.392  0.0679  0.7953  0.0829
   60SAPC  H10R 4627   8.305   0.058   7.324  1.4863  2.5053 -1.3642
   60SAPC  H10S 4628   8.334   0.126   7.483  2.0554 -1.1305 -1.4472
   60SAPC  C211 4629   8.323   0.254   7.304 -0.1889 -0.3119 -0.3628
   60SAPC  H11R 4630   8.388   0.324   7.359  1.4919 -2.6372  0.7816
   60SAPC  C212 4631   8.312   0.280   7.173  0.1406 -0.3232 -0.2679
   60SAPC  H12R 4632   8.350   0.377   7.137  0.7167 -1.1508 -1.9863
   60SAPC  C213 4633   8.230   0.207   7.070 -0.3409 -0.0067  0.2502
   60SAPC  H13R 4634   8.137   0.262   7.046 -1.5122 -2.5587 -1.5331
   60SAPC  H13S 4635   8.201   0.106   7.106 -0.3965 -0.0859 -0.0154
   60SAPC  C214 4636   8.304   0.172   6.938  0.1502  0.0873 -0.3227
   60SAPC  H14R 4637   8.395   0.111   6.953 -0.2306 -1.0144 -2.1005
   60SAPC  C215 4638   8.258   0.188   6.812 -0.5851 -0.5885 -0.2169
   60SAPC  H15R 4639   8.318   0.159   6.724  0.9776 -0.6589  0.8179
   60SAPC  C216 4640   8.126   0.242   6.776  0.2789  0.4323  0.0393
   60SAPC  H16R 4641   8.146   0.329   6.710  2.5383  0.2895  0.4296
   60SAPC  H16S 4642   8.055   0.261   6.859  0.2024 -2.6494  0.8214
   60SAPC  C217 4643   8.044   0.138   6.683  0.2453  0.4933  0.2896
   60SAPC  H17R 4644   7.940   0.175   6.688  0.6505  1.8919 -0.8365
   60SAPC  H17S 4645   8.045   0.033   6.720  2.3973 -0.5708 -2.3717
   60SAPC  C218 4646   8.088   0.138   6.538  0.7128  0.9064  0.8189
   60SAPC  H18R 4647   8.122   0.244   6.526 -2.1115  1.6726 -2.0040
   60SAPC  H18S 4648   8.004   0.114   6.469  0.9513  0.6466  0.6152
   60SAPC  C219 4649   8.191   0.031   6.494 -0.0100  0.9116 -0.1822
   60SAPC  H19R 4650   8.145  -0.052   6.437 -1.3607  1.7804 -0.3763
   60SAPC  H19S 4651   8.229  -0.029   6.580 -1.8022 -1.6078 -1.0203
   60SAPC  C220 4652   8.307   0.080   6.407 -0.6860 -0.6550 -0.8950
   60SAPC  H20R 4653   8.376   0.144   6.467 -1.0160 -0.6075 -0.5617
   60SAPC  H20S 4654   8.266   0.131   6.317 -1.8485  0.0528  0.0088
   60SAPC  H20T 4655   8.362  -0.010   6.374  1.6302  0.4437 -0.2855
   60SAPC   C33 4656   7.616   0.852   7.632 -0.5495 -0.1277 -0.0043
   60SAPC   H3X 4657   7.645   0.895   7.730 -1.6245 -1.8401  1.1260
   60SAPC   H3Y 4658   7.643   0.933   7.562 -2.2102  0.6780  0.2549
   60SAPC   C34 4659   7.703   0.730   7.616 -0.0567 -0.1546 -0.2988
   60SAPC   H4X 4660   7.676   0.644   7.680  0.1684  0.0585  0.0836
   60SAPC   H4Y 4661   7.801   0.780   7.636  0.1962  0.8494 -3.4636
   60SAPC   C35 4662   7.707   0.682   7.463 -0.3446  0.0282 -0.7870
   60SAPC   H5X 4663   7.700   0.771   7.398  0.2751 -0.3023 -1.3239
   60SAPC   H5Y 4664   7.626   0.612   7.437  0.0674 -1.0452  0.6597
   60SAPC   C36 4665   7.838   0.602   7.439 -0.7892  0.5944  0.1395
   60SAPC   H6X 4666   7.838   0.516   7.510  1.3227 -0.5801 -1.1843
   60SAPC   H6Y 4667   7.930   0.664   7.450  0.6016 -1.0945 -1.3281
   60SAPC   C37 4668   7.837   0.536   7.301 -0.2888  0.3143 -0.1235
   60SAPC   H7X 4669   7.743   0.483   7.275  0.8125 -0.7980 -2.0349
   60SAPC   H7Y 4670   7.930   0.478   7.289 -0.3819  0.4144 -1.5195
   60SAPC   C38 4671   7.847   0.649   7.192  0.2827  0.1140 -0.3522
   60SAPC   H8X 4672   7.948   0.694   7.197  1.1243 -1.7568  2.9900
   60SAPC   H8Y 4673   7.765   0.721   7.210  0.5500  0.1500  0.8004
   60SAPC   C39 4674   7.816   0.591   7.046 -0.8340 -0.1528  0.4917
   60SAPC   H9X 4675   7.707   0.572   7.038 -1.0713  1.5000 -0.5282
   60SAPC   H9Y 4676   7.868   0.492   7.047  2.6514  1.5193  1.5227
   60SAPC  C310 4677   7.881   0.673   6.932  0.3688 -0.7359  0.0554
   60SAPC  H10X 4678   7.977   0.722   6.960  0.4691 -0.4880 -0.7027
   60SAPC  H10Y 4679   7.815   0.756   6.899  0.1390 -1.9292 -2.7648
   60SAPC  C311 4680   7.907   0.587   6.801 -0.4969 -0.5154 -0.5485
   60SAPC  H11X 4681   7.809   0.548   6.764 -0.7332 -0.6035  0.1619
   60SAPC  H11Y 4682   7.975   0.502   6.821  0.8030  0.7221  0.5097
   60SAPC  C312 4683   7.968   0.669   6.683 -0.1682  0.0466  0.7505
   60SAPC  H12X 4684   8.066   0.719   6.702  0.5372 -1.3173  0.7963
   60SAPC  H12Y 4685   7.889   0.744   6.662  0.1076  0.3557  0.8099
   60SAPC  C313 4686   7.994   0.561   6.565  0.2689 -0.2803  0.5977
   60SAPC  H13X 4687   7.895   0.512   6.553  0.6657 -0.5853 -2.1395
   60SAPC  H13Y 4688   8.062   0.486   6.609  0.3962  0.3219  1.4575
   60SAPC  C314 4689   8.048   0.614   6.432 -0.2113  0.4751  0.5967
   60SAPC  H14X 4690   8.139   0.677   6.443  0.2160 -0.2859  1.6755
   60SAPC  H14Y 4691   7.973   0.687   6.396  0.4475  1.3094  0.8987
   60SAPC  C315 4692   8.064   0.502   6.340  0.3872  0.2332  0.5388
   60SAPC  H15X 4693   7.961   0.491   6.300  0.2173 -1.0785  1.2864
   60SAPC  H15Y 4694   8.096   0.403   6.380  1.4735 -0.1568 -1.1641
   60SAPC  C316 4695   8.154   0.532   6.219 -0.3462  0.1885  0.2164
   60SAPC  H16X 4696   8.260   0.561   6.234 -0.6968  2.5078 -1.1897
   60SAPC  H16Y 4697   8.115   0.619   6.162  0.8854  0.5429 -0.1132
   60SAPC  C317 4698   8.157   0.424   6.111  0.6136 -0.3647  0.2361
   60SAPC  H17X 4699   8.204   0.325   6.132  1.1872 -0.9096 -3.0459
   60SAPC  H17Y 4700   8.213   0.471   6.026 -0.6884 -2.7640 -2.1140
   60SAPC  C318 4701   8.021   0.383   6.060 -0.6630  0.2074 -0.0258
   60SAPC  H18X 4702   7.963   0.348   6.148 -0.3325 -4.2382 -1.3294
   60SAPC  H18Y 4703   8.030   0.291   5.998 -0.1087 -0.6485  1.2721
   60SAPC  H18Z 4704   7.973   0.466   6.004  0.1874  0.3713 -0.5234
   61SAPC     N 4705   0.966   2.047   8.403  0.5235 -0.3298 -0.2576
   61SAPC   C12 4706   1.040   2.052   8.274 -0.3644  0.2704  0.2111
   61SAPC  H12A 4707   1.133   1.999   8.288 -0.3003  0.6501  1.3603
   61SAPC  H12B 4708   1.060   2.154   8.246  0.6969  0.2367  0.8204
   61SAPC   C13 4709   1.060   2.093   8.505  0.5405  0.6226 -0.1950
   61SAPC  H13A 4710   1.147   2.030   8.507  0.0428 -0.0874  1.7127
   61SAPC  H13B 4711   1.093   2.193   8.483 -1.5514  1.3140 -0.4416
   61SAPC  H13C 4712   1.014   2.090   8.603 -0.9334 -0.3926 -0.8817
   61SAPC   C14 4713   0.841   2.142   8.399 -0.0878  0.2987 -0.1764
   61SAPC  H14A 4714   0.886   2.240   8.390  0.2864  0.0180 -1.5131
   61SAPC  H14B 4715   0.778   2.112   8.317 -0.1175 -1.2562  0.3896
   61SAPC  H14C 4716   0.783   2.136   8.491  1.5030 -0.9235  0.7899
   61SAPC   C15 4717   0.930   1.913   8.444  0.0174  0.2909  0.7504
   61SAPC  H15A 4718   0.864   1.874   8.368  1.3186 -0.7324  0.0990
   61SAPC  H15B 4719   1.024   1.860   8.439 -0.5498 -0.6393 -0.5584
   61SAPC  H15C 4720   0.888   1.890   8.541 -1.8711 -1.7523 -0.4563
   61SAPC   C11 4721   0.970   2.001   8.144  0.0160  0.0369 -0.1771
   61SAPC  H11A 4722   1.027   2.024   8.051  1.6474 -1.6876  0.3430
   61SAPC  H11B 4723   0.874   2.057   8.147 -0.5826 -0.9214  3.3548
   61SAPC     P 4724   1.065   1.767   8.129  0.4638 -0.4948 -0.0411
   61SAPC   O13 4725   1.182   1.810   8.205 -0.3766  0.0510 -0.3409
   61SAPC   O14 4726   1.011   1.626   8.145  0.2409 -0.2648  0.1129
   61SAPC   O12 4727   0.941   1.868   8.150  0.7788  0.1897 -0.2083
   61SAPC   O11 4728   1.095   1.777   7.978 -0.6814 -0.1227 -0.4813
   61SAPC    C1 4729   0.991   1.763   7.875  0.3044  0.2141 -0.0789
   61SAPC    HA 4730   0.951   1.659   7.875 -1.5625  0.7883  3.2315
   61SAPC    HB 4731   0.905   1.831   7.895  0.9363  1.2105 -0.6699
   61SAPC    C2 4732   1.047   1.793   7.730 -0.2669 -0.2787 -0.2991
   61SAPC    HS 4733   0.967   1.775   7.656 -0.4887  0.6389 -0.3002
   61SAPC   O21 4734   1.173   1.722   7.708 -0.1208  0.2398  0.3920
   61SAPC   C21 4735   1.162   1.617   7.629  0.8598  0.3358 -0.3264
   61SAPC   O22 4736   1.055   1.574   7.584  0.8615  0.0959  0.7676
   61SAPC   C22 4737   1.301   1.555   7.601 -0.4269 -0.1145  0.1518
   61SAPC   H2R 4738   1.372   1.638   7.578  1.5363 -2.1494 -1.5108
   61SAPC   H2S 4739   1.334   1.512   7.698 -0.8997 -0.8040  0.0167
   61SAPC    C3 4740   1.082   1.942   7.714  0.2862 -0.2671 -0.1034
   61SAPC    HX 4741   1.175   1.964   7.771  0.1712  0.2451 -0.1079
   61SAPC    HY 4742   1.007   2.013   7.756 -0.0060 -1.4076  1.4145
   61SAPC   O31 4743   1.112   1.972   7.578  0.1157  0.0740  0.1106
   61SAPC   C31 4744   1.016   1.973   7.489 -0.1627 -0.8027 -0.7947
   61SAPC   O32 4745   0.902   1.955   7.507  0.1926  0.5242 -0.0061
   61SAPC   C32 4746   1.073   2.023   7.352 -0.9902 -0.4521 -0.3706
   61SAPC   H2X 4747   1.155   1.952   7.328 -1.4889 -0.8575 -0.8694
   61SAPC   H2Y 4748   1.112   2.125   7.373 -0.4400 -0.6009 -0.6431
   61SAPC   C23 4749   1.305   1.445   7.492 -0.8222  0.4377  0.3369
   61SAPC   H3R 4750   1.239   1.364   7.531 -0.5249  1.1047  2.3611
   61SAPC   H3S 4751   1.408   1.402   7.496 -0.8895  0.1967 -0.3464
   61SAPC   C24 4752   1.274   1.500   7.355  0.6599 -0.5884 -0.6388
   61SAPC   H4R 4753   1.173   1.546   7.353 -0.2599 -2.4234  0.6768
   61SAPC   H4S 4754   1.270   1.409   7.291  0.9373 -1.2222  0.2235
   61SAPC   C25 4755   1.377   1.597   7.305  0.3027  0.2419  0.6606
   61SAPC   H5R 4756   1.403   1.678   7.375  1.3685  1.0624 -0.6331
   61SAPC   C26 4757   1.453   1.586   7.192 -0.0932 -0.3272  0.6332
   61SAPC   H6R 4758   1.525   1.667   7.173 -1.3017  1.0297  1.6383
   61SAPC   C27 4759   1.416   1.489   7.078 -0.9381 -0.2020 -0.1696
   61SAPC   H7R 4760   1.356   1.402   7.111  1.8164 -1.8850  0.8249
   61SAPC   H7S 4761   1.503   1.428   7.045 -0.5998 -0.3494  0.9388
   61SAPC   C28 4762   1.358   1.556   6.957 -0.4069 -0.3159  0.9557
   61SAPC   H8R 4763   1.251   1.578   6.961  0.1598  3.0363  0.5618
   61SAPC   C29 4764   1.436   1.606   6.856  0.0302 -0.7187 -0.7225
   61SAPC   H9R 4765   1.385   1.651   6.770 -1.7888  0.0745  0.6892
   61SAPC  C210 4766   1.585   1.593   6.842 -0.1632 -0.5019 -0.8563
   61SAPC  H10R 4767   1.627   1.566   6.942  1.2275  2.4878 -0.5273
   61SAPC  H10S 4768   1.624   1.689   6.802  3.0294 -1.2045  0.2623
   61SAPC  C211 4769   1.623   1.477   6.762 -0.6793  0.0217  1.1945
   61SAPC  H11R 4770   1.665   1.386   6.809  3.0217 -0.2943 -2.1128
   61SAPC  C212 4771   1.608   1.469   6.621  0.5517  0.4628 -0.9688
   61SAPC  H12R 4772   1.632   1.369   6.582  2.2139  0.8890 -1.1067
   61SAPC  C213 4773   1.551   1.567   6.532  0.5701  0.0630  0.1142
   61SAPC  H13R 4774   1.589   1.667   6.561  0.1122  0.4742 -0.6834
   61SAPC  H13S 4775   1.442   1.573   6.550  1.0623 -0.1176  4.0835
   61SAPC  C214 4776   1.585   1.531   6.392  0.0399 -0.1651  0.3730
   61SAPC  H14R 4777   1.570   1.425   6.365 -0.6961 -0.0523  0.3295
   61SAPC  C215 4778   1.630   1.626   6.299 -0.1879 -0.6723 -0.2840
   61SAPC  H15R 4779   1.645   1.596   6.194 -0.4469  1.9628 -1.1618
   61SAPC  C216 4780   1.656   1.774   6.312 -0.0204  0.0037 -0.5631
   61SAPC  H16R 4781   1.758   1.804   6.345 -0.2051 -1.4492  1.5261
   61SAPC  H16S 4782   1.591   1.819   6.391 -1.2683  0.9950 -2.0927
   61SAPC  C217 4783   1.640   1.861   6.181  0.4870 -0.1676  0.0334
   61SAPC  H17R 4784   1.692   1.803   6.102 -0.3360 -0.2321 -0.4740
   61SAPC  H17S 4785   1.701   1.954   6.189 -1.4281  1.6659 -3.9690
   61SAPC  C218 4786   1.497   1.899   6.145 -0.6448 -0.1619 -0.1959
   61SAPC  H18R 4787   1.428   1.812   6.152 -0.1262 -0.4432  2.7788
   61SAPC  H18S 4788   1.503   1.945   6.044 -0.8397 -0.9478 -0.5775
   61SAPC  C219 4789   1.454   2.012   6.241  0.5693 -0.0415  0.1798
   61SAPC  H19R 4790   1.524   2.097   6.227  4.3686 -2.6325  1.9040
   61SAPC  H19S 4791   1.471   1.976   6.345 -2.7495  0.1780  0.9121
   61SAPC  C220 4792   1.303   2.048   6.226 -0.5646 -0.4717  1.2401
   61SAPC  H20R 4793   1.291   2.100   6.129  1.6945 -1.8288  0.1428
   61SAPC  H20S 4794   1.266   2.114   6.308 -2.0516 -0.6930  0.7665
   61SAPC  H20T 4795   1.232   1.963   6.220 -1.9103  0.3165  4.2563
   61SAPC   C33 4796   0.970   2.016   7.244  0.7290 -1.0641 -0.4957
   61SAPC   H3X 4797   0.882   2.078   7.272  2.9601  1.3738  1.6423
   61SAPC   H3Y 4798   0.927   1.916   7.223 -0.4628 -0.6417 -0.1470
   61SAPC   C34 4799   0.997   2.080   7.104 -0.0625 -0.1551  0.4277
   61SAPC   H4X 4800   1.097   2.046   7.068 -1.1101 -0.1927 -2.7751
   61SAPC   H4Y 4801   1.003   2.190   7.111 -1.6208 -0.0518  0.3636
   61SAPC   C35 4802   0.890   2.054   7.006  0.2971 -0.0630 -0.7447
   61SAPC   H5X 4803   0.795   2.050   7.065  0.0165 -3.0239 -1.2429
   61SAPC   H5Y 4804   0.896   1.955   6.956 -1.4717 -0.5714 -0.0582
   61SAPC   C36 4805   0.881   2.158   6.902  0.3548 -0.2362  0.7943
   61SAPC   H6X 4806   0.979   2.157   6.848  0.9702 -1.3076  1.8833
   61SAPC   H6Y 4807   0.863   2.265   6.928 -0.1231  0.2223 -1.2453
   61SAPC   C37 4808   0.789   2.115   6.786 -0.2485  0.2008 -0.0259
   61SAPC   H7X 4809   0.684   2.139   6.812  0.3313  1.0456  1.6532
   61SAPC   H7Y 4810   0.798   2.005   6.771  0.2461  0.2374 -0.0334
   61SAPC   C38 4811   0.836   2.188   6.656  0.4365 -0.1491 -0.0223
   61SAPC   H8X 4812   0.942   2.154   6.646 -0.2007 -1.8348 -1.7676
   61SAPC   H8Y 4813   0.843   2.296   6.681  0.2495 -0.3594  0.9612
   61SAPC   C39 4814   0.747   2.156   6.530 -0.6098  0.1570 -0.5580
   61SAPC   H9X 4815   0.755   2.046   6.520 -0.6425  0.1897 -0.9559
   61SAPC   H9Y 4816   0.783   2.200   6.435 -0.7806 -0.3954 -0.8810
   61SAPC  C310 4817   0.601   2.193   6.539  0.5311 -0.4697 -0.2162
   61SAPC  H10X 4818   0.585   2.299   6.566  1.1409 -0.7351  1.2976
   61SAPC  H10Y 4819   0.555   2.141   6.626 -0.3791  0.7592  0.0600
   61SAPC  C311 4820   0.524   2.155   6.410  0.3905  0.6391  0.1865
   61SAPC  H11X 4821   0.415   2.169   6.430  0.5162  0.6234  0.9079
   61SAPC  H11Y 4822   0.545   2.046   6.401 -0.5793  0.5721 -2.0487
   61SAPC  C312 4823   0.564   2.240   6.288  0.3165  0.2059 -0.6077
   61SAPC  H12X 4824   0.674   2.257   6.296  0.4479 -1.5621  3.0271
   61SAPC  H12Y 4825   0.522   2.343   6.301 -0.7049  0.1624 -3.0140
   61SAPC  C313 4826   0.535   2.187   6.146  0.7784  0.6016  0.0591
   61SAPC  H13X 4827   0.591   2.092   6.133  1.9688  1.2463  0.3346
   61SAPC  H13Y 4828   0.578   2.260   6.075  1.5065 -0.3445 -0.4877
   61SAPC  C314 4829   0.389   2.172   6.115 -0.0064  0.3382  0.3058
   61SAPC  H14X 4830   0.348   2.274   6.122  1.2635  0.9231 -0.4106
   61SAPC  H14Y 4831   0.353   2.100   6.192  4.2510 -1.0258  1.3006
   61SAPC  C315 4832   0.371   2.128   5.971 -0.4911 -0.0848  0.0267
   61SAPC  H15X 4833   0.409   2.024   5.974 -3.1597 -1.1572 -0.2588
   61SAPC  H15Y 4834   0.425   2.202   5.909  0.7692 -0.2586  0.8725
   61SAPC  C316 4835   0.224   2.133   5.923 -0.0503 -0.1560  0.9853
   61SAPC  H16X 4836   0.183   2.236   5.930 -1.7492 -0.5007 -2.0852
   61SAPC  H16Y 4837   0.163   2.073   5.994 -0.9461 -2.2327 -1.3669
   61SAPC  C317 4838   0.203   2.087   5.782  0.6987 -0.2302 -0.2002
   61SAPC  H17X 4839   0.196   1.976   5.784  0.9604 -0.2394  0.7170
   61SAPC  H17Y 4840   0.294   2.114   5.725  0.6975 -0.3857 -0.2758
   61SAPC  C318 4841   0.079   2.142   5.708 -0.3723  0.7662  0.1656
   61SAPC  H18X 4842  -0.014   2.113   5.761 -1.3439 -0.0022 -1.8417
   61SAPC  H18Y 4843   0.069   2.093   5.608  2.7559 -0.6427  0.4142
   61SAPC  H18Z 4844   0.085   2.251   5.692 -1.2388  1.0606  1.6683
   62SAPC     N 4845   5.990   3.366   8.550 -0.5710  0.5744 -0.2452
   62SAPC   C12 4846   5.920   3.342   8.419 -0.2332  0.2388 -0.3974
   62SAPC  H12A 4847   6.000   3.328   8.348 -0.0328  1.1494 -0.3624
   62SAPC  H12B 4848   5.868   3.435   8.399 -1.7470  0.1595  2.6180
   62SAPC   C13 4849   5.903   3.398   8.665  0.2180 -0.2302 -0.2680
   62SAPC  H13A 4850   5.953   3.391   8.761  1.7102 -0.0803 -0.9935
   62SAPC  H13B 4851   5.846   3.490   8.661 -0.8829 -0.6123  3.1671
   62SAPC  H13C 4852   5.825   3.324   8.661  0.0492 -0.0409 -0.5437
   62SAPC   C14 4853   6.074   3.243   8.588 -0.1601 -0.4907 -0.3950
   62SAPC  H14A 4854   6.128   3.210   8.500 -1.0306  0.1939 -1.2093
   62SAPC  H14B 4855   6.134   3.276   8.671 -1.5389 -0.3062  0.5625
   62SAPC  H14C 4856   6.011   3.160   8.616 -0.8298  0.7919  2.2103
   62SAPC   C15 4857   6.095   3.476   8.539  0.3722 -0.4560 -0.3483
   62SAPC  H15A 4858   6.135   3.479   8.439 -1.9353  2.9577 -1.3421
   62SAPC  H15B 4859   6.042   3.570   8.545  2.0153  0.5383 -0.7357
   62SAPC  H15C 4860   6.171   3.468   8.616 -1.8648  0.0150  2.0408
   62SAPC   C11 4861   5.815   3.231   8.409 -1.0507  0.6377 -0.0818
   62SAPC  H11A 4862   5.746   3.253   8.324 -1.9271  0.4779  0.5790
   62SAPC  H11B 4863   5.751   3.231   8.500  0.0777 -0.5157  0.7444
   62SAPC     P 4864   5.959   3.060   8.257 -0.3660  0.0099  0.2353
   62SAPC   O13 4865   6.104   3.051   8.292 -0.8360  0.1296  0.3798
   62SAPC   O14 4866   5.893   2.943   8.190 -0.0777 -0.1186  0.3639
   62SAPC   O12 4867   5.880   3.096   8.390 -0.0045 -0.4822  0.0229
   62SAPC   O11 4868   5.933   3.181   8.159  0.6193 -0.4062 -0.9859
   62SAPC    C1 4869   6.037   3.249   8.089  0.2552 -0.7151  0.2369
   62SAPC    HA 4870   6.047   3.342   8.149 -1.2918 -0.3674 -0.0018
   62SAPC    HB 4871   6.127   3.187   8.071  1.7492  1.2904  0.5179
   62SAPC    C2 4872   5.969   3.287   7.950 -0.3979  0.5929 -0.5248
   62SAPC    HS 4873   5.864   3.320   7.965 -2.4602 -3.7556 -3.3915
   62SAPC   O21 4874   5.961   3.162   7.874  0.4990 -0.2641  0.1435
   62SAPC   C21 4875   5.862   3.156   7.787 -0.4157  0.2856  0.3341
   62SAPC   O22 4876   5.779   3.242   7.771  0.2807 -0.3746 -0.6187
   62SAPC   C22 4877   5.871   3.022   7.710  0.4204 -0.0707 -0.2822
   62SAPC   H2R 4878   5.981   3.006   7.714  1.0259  2.8346 -2.1966
   62SAPC   H2S 4879   5.818   2.944   7.769  2.1400 -0.2565  1.1303
   62SAPC    C3 4880   6.043   3.404   7.866  0.0187 -0.0333 -0.5890
   62SAPC    HX 4881   6.147   3.366   7.859 -1.4818 -4.8212 -0.4132
   62SAPC    HY 4882   6.042   3.496   7.929  0.5034 -1.3309  1.3880
   62SAPC   O31 4883   6.001   3.433   7.732 -0.2137 -0.2013 -0.1523
   62SAPC   C31 4884   5.912   3.526   7.707 -0.7638  0.5366  0.9145
   62SAPC   O32 4885   5.860   3.597   7.791  0.4372 -0.5760 -0.0889
   62SAPC   C32 4886   5.884   3.543   7.560  0.6127  0.3632  0.0946
   62SAPC   H2X 4887   5.954   3.618   7.517 -1.5659  2.2792 -0.3059
   62SAPC   H2Y 4888   5.783   3.587   7.548  0.0869 -0.9343 -0.3929
   62SAPC   C23 4889   5.814   3.020   7.559 -0.7128  0.3511  0.1503
   62SAPC   H3R 4890   5.813   3.121   7.514 -1.8466 -0.2315 -1.1814
   62SAPC   H3S 4891   5.707   2.992   7.553 -0.2627 -1.6468  0.5766
   62SAPC   C24 4892   5.888   2.917   7.471 -0.9185 -0.4905 -0.2720
   62SAPC   H4R 4893   5.995   2.918   7.499 -0.6266  1.9834 -1.2260
   62SAPC   H4S 4894   5.895   2.953   7.366  1.5152  0.6572  0.2210
   62SAPC   C25 4895   5.833   2.777   7.480 -0.7588  0.5037 -0.7650
   62SAPC   H5R 4896   5.859   2.724   7.573 -1.7348 -0.9489 -1.2861
   62SAPC   C26 4897   5.780   2.703   7.381  0.1960  0.2750 -0.3085
   62SAPC   H6R 4898   5.743   2.601   7.399 -1.1908  0.5834 -1.2608
   62SAPC   C27 4899   5.767   2.756   7.235  0.2910 -0.1275  0.2788
   62SAPC   H7R 4900   5.861   2.735   7.179 -0.2867  1.0769 -1.2065
   62SAPC   H7S 4901   5.744   2.864   7.232 -0.5521 -0.3160 -0.4768
   62SAPC   C28 4902   5.658   2.681   7.166  0.7033 -0.2208  0.6150
   62SAPC   H8R 4903   5.562   2.664   7.216 -0.3794 -1.0684 -1.5672
   62SAPC   C29 4904   5.668   2.628   7.037 -0.3804  0.2512  0.1538
   62SAPC   H9R 4905   5.578   2.580   6.997 -1.1043  1.4841  0.2561
   62SAPC  C210 4906   5.787   2.632   6.939 -0.2563 -0.0262  0.1343
   62SAPC  H10R 4907   5.828   2.529   6.945 -3.1820 -1.3766 -1.0808
   62SAPC  H10S 4908   5.860   2.710   6.970 -1.4127  1.8819 -1.7040
   62SAPC  C211 4909   5.766   2.673   6.794  0.5979 -0.3099 -0.4822
   62SAPC  H11R 4910   5.713   2.769   6.795  2.8708  1.0228 -0.9838
   62SAPC  C212 4911   5.800   2.615   6.676 -0.4400  0.0815  0.1822
   62SAPC  H12R 4912   5.780   2.664   6.580 -0.7263 -0.2253  0.0833
   62SAPC  C213 4913   5.872   2.479   6.680 -0.0124 -0.0985 -0.4588
   62SAPC  H13R 4914   5.791   2.404   6.669  1.2645 -1.4488 -0.9789
   62SAPC  H13S 4915   5.922   2.453   6.775  2.4159 -1.1170 -1.9270
   62SAPC  C214 4916   5.973   2.461   6.575  0.3538 -0.2311  0.0598
   62SAPC  H14R 4917   6.075   2.467   6.615  0.1916 -1.6398  0.7497
   62SAPC  C215 4918   5.955   2.425   6.450 -0.7351 -0.5487 -0.0081
   62SAPC  H15R 4919   6.044   2.411   6.387 -2.5250 -1.0135 -2.5750
   62SAPC  C216 4920   5.828   2.401   6.373 -0.6227  0.6266 -0.8102
   62SAPC  H16R 4921   5.747   2.399   6.450  1.1001 -0.1349  1.0735
   62SAPC  H16S 4922   5.841   2.296   6.338 -0.5514  0.6157 -0.7508
   62SAPC  C217 4923   5.807   2.502   6.264  0.3630 -0.3725  0.3000
   62SAPC  H17R 4924   5.715   2.478   6.207  0.7668  1.8894 -1.4474
   62SAPC  H17S 4925   5.886   2.489   6.187 -1.9976 -0.0417 -2.3833
   62SAPC  C218 4926   5.809   2.650   6.293 -0.4137  0.3370  1.0846
   62SAPC  H18R 4927   5.912   2.668   6.328  0.0559  1.1218 -0.5930
   62SAPC  H18S 4928   5.738   2.675   6.376 -2.0340 -0.3244 -0.0428
   62SAPC  C219 4929   5.782   2.737   6.166  0.5097  0.1203 -0.2144
   62SAPC  H19R 4930   5.826   2.835   6.195 -1.7587  0.7798  1.3304
   62SAPC  H19S 4931   5.673   2.741   6.145  0.5086  2.1817 -0.0128
   62SAPC  C220 4932   5.848   2.690   6.038  0.3504 -0.1934 -0.4577
   62SAPC  H20R 4933   5.952   2.662   6.065 -0.0375 -1.7071 -0.4751
   62SAPC  H20S 4934   5.852   2.771   5.962 -0.3603 -0.0155 -0.3082
   62SAPC  H20T 4935   5.802   2.601   5.990 -1.1302 -0.3949  1.2019
   62SAPC   C33 4936   5.884   3.412   7.474 -0.2339  0.4319  0.1196
   62SAPC   H3X 4937   5.805   3.345   7.513  0.2004 -0.4301 -0.4580
   62SAPC   H3Y 4938   5.984   3.365   7.485 -0.4797  0.0366  0.7031
   62SAPC   C34 4939   5.856   3.442   7.329  0.6699  0.3432  0.1372
   62SAPC   H4X 4940   5.886   3.548   7.317 -2.0128  1.2932  1.0323
   62SAPC   H4Y 4941   5.748   3.437   7.301  1.0132 -1.1839 -1.0480
   62SAPC   C35 4942   5.926   3.349   7.226  0.0800 -0.3396 -0.3299
   62SAPC   H5X 4943   6.032   3.362   7.257  0.5267  3.7022 -2.8451
   62SAPC   H5Y 4944   5.903   3.380   7.122 -2.4591 -1.9802 -0.3298
   62SAPC   C36 4945   5.894   3.201   7.227  0.1506 -0.4582 -0.7277
   62SAPC   H6X 4946   5.909   3.165   7.331 -0.2687 -0.9480 -0.8318
   62SAPC   H6Y 4947   5.975   3.160   7.163 -0.4810 -0.3936 -1.5850
   62SAPC   C37 4948   5.761   3.171   7.174  0.0977 -0.0819  0.3498
   62SAPC   H7X 4949   5.678   3.235   7.212 -0.5390 -1.4490  1.3862
   62SAPC   H7Y 4950   5.738   3.076   7.228  0.6118 -0.3930  0.0320
   62SAPC   C38 4951   5.765   3.136   7.026 -0.2198 -0.8511  0.2651
   62SAPC   H8X 4952   5.690   3.055   7.020 -0.1555 -0.8117 -1.5066
   62SAPC   H8Y 4953   5.863   3.095   6.993 -0.1929 -0.3251 -0.3350
   62SAPC   C39 4954   5.704   3.249   6.942  0.3772 -0.2869  0.1146
   62SAPC   H9X 4955   5.775   3.333   6.930 -1.4822  1.1299 -1.8132
   62SAPC   H9Y 4956   5.609   3.287   6.985  1.1311  1.2079  0.5205
   62SAPC  C310 4957   5.675   3.197   6.799 -0.8735 -0.1325 -0.2009
   62SAPC  H10X 4958   5.596   3.262   6.755 -0.6488  0.2133 -0.1065
   62SAPC  H10Y 4959   5.636   3.094   6.808 -0.7829 -0.4498 -2.7178
   62SAPC  C311 4960   5.794   3.170   6.709  0.0179  0.3625 -0.8602
   62SAPC  H11X 4961   5.852   3.080   6.741 -0.9492 -0.7412 -2.0689
   62SAPC  H11Y 4962   5.865   3.254   6.720 -0.6202  0.8994 -0.8214
   62SAPC  C312 4963   5.752   3.134   6.571  0.5789  0.0496  0.1032
   62SAPC  H12X 4964   5.850   3.131   6.517  0.1685 -1.1065 -0.6239
   62SAPC  H12Y 4965   5.688   3.212   6.525  1.4139  0.8475  0.2796
   62SAPC  C313 4966   5.660   3.009   6.556 -0.6871  0.4919  0.3283
   62SAPC  H13X 4967   5.599   3.006   6.649 -2.0716  3.7827 -0.3388
   62SAPC  H13Y 4968   5.713   2.911   6.556 -0.9699  0.3249  1.1099
   62SAPC  C314 4969   5.561   3.018   6.437 -0.5931  0.1755  0.3413
   62SAPC  H14X 4970   5.626   3.036   6.348 -0.6199  1.8633  0.6246
   62SAPC  H14Y 4971   5.499   3.110   6.446 -0.4716  0.1358  1.7355
   62SAPC  C315 4972   5.483   2.891   6.425 -0.1956 -0.2216  0.2794
   62SAPC  H15X 4973   5.410   2.874   6.508 -1.5522 -1.6013 -1.1149
   62SAPC  H15Y 4974   5.547   2.800   6.421  2.0635  1.2438  1.0712
   62SAPC  C316 4975   5.392   2.898   6.298  0.0530  1.2210  0.4679
   62SAPC  H16X 4976   5.463   2.929   6.219 -1.6256  3.2291 -0.3499
   62SAPC  H16Y 4977   5.309   2.970   6.315 -0.7646  0.4465 -0.1334
   62SAPC  C317 4978   5.328   2.766   6.264  0.7549  0.4038  0.4989
   62SAPC  H17X 4979   5.408   2.691   6.281  0.2745 -0.0166  0.9355
   62SAPC  H17Y 4980   5.298   2.762   6.157  1.7787 -0.5831  0.2392
   62SAPC  C318 4981   5.208   2.717   6.347  1.0180 -0.7234  0.0000
   62SAPC  H18X 4982   5.133   2.800   6.347  3.2332  1.3910 -0.6241
   62SAPC  H18Y 4983   5.238   2.700   6.453  1.8790  4.1963  0.8197
   62SAPC  H18Z 4984   5.160   2.625   6.310 -1.1493 -0.6913  2.3952
   63SAPC     N 4985   0.398   6.873   8.382 -0.1328 -0.0426  0.1850
   63SAPC   C12 4986   0.356   6.733   8.408 -0.1024 -0.0111 -0.3222
   63SAPC  H12A 4987   0.296   6.739   8.498  1.0836 -2.7904  0.7637
   63SAPC  H12B 4988   0.438   6.667   8.430 -2.2285 -2.1628  1.9276
   63SAPC   C13 4989   0.481   6.928   8.493  0.0219  0.0634 -0.3265
   63SAPC  H13A 4990   0.435   6.906   8.588  0.4927 -2.5624 -0.6020
   63SAPC  H13B 4991   0.581   6.889   8.484  0.2132  0.7473 -1.3843
   63SAPC  H13C 4992   0.490   7.035   8.487  1.5341 -0.0946 -1.3056
   63SAPC   C14 4993   0.481   6.876   8.256  0.2210 -0.2332 -0.1072
   63SAPC  H14A 4994   0.506   6.980   8.243 -1.0752 -0.0101 -1.0983
   63SAPC  H14B 4995   0.560   6.804   8.268 -0.5727 -1.0428  0.3838
   63SAPC  H14C 4996   0.430   6.848   8.165  1.4240 -1.4578 -0.4426
   63SAPC   C15 4997   0.287   6.968   8.359  0.8436  0.1406 -0.0186
   63SAPC  H15A 4998   0.240   6.933   8.268 -0.3418  0.8626  0.3054
   63SAPC  H15B 4999   0.223   6.974   8.445  2.2849  0.5243  1.0791
   63SAPC  H15C 5000   0.319   7.067   8.332  0.4481  0.4806  0.7375
   63SAPC   C11 5001   0.268   6.657   8.308  0.0026 -1.0704 -0.3567
   63SAPC  H11A 5002   0.270   6.553   8.344 -0.9573 -0.7874  0.5651
   63SAPC  H11B 5003   0.317   6.660   8.208  1.6419  1.3416  0.4212
   63SAPC     P 5004   0.009   6.630   8.268  0.3411  0.1552  0.1016
   63SAPC   O13 5005   0.005   6.499   8.343 -0.4834 -0.7830 -0.1027
   63SAPC   O14 5006  -0.109   6.717   8.278  1.0137 -0.0327 -0.3272
   63SAPC   O12 5007   0.138   6.715   8.300 -0.1021 -0.4375 -0.0851
   63SAPC   O11 5008   0.018   6.596   8.111  0.0176  0.3817  0.1895
   63SAPC    C1 5009   0.094   6.682   8.028 -0.0005  0.2585  0.0612
   63SAPC    HA 5010   0.195   6.701   8.071  0.0593 -1.1940  0.6402
   63SAPC    HB 5011   0.115   6.632   7.931  2.5625  0.3680  0.4948
   63SAPC    C2 5012   0.028   6.819   7.981  0.1368 -0.3146  0.3874
   63SAPC    HS 5013  -0.021   6.869   8.067  1.9613 -1.5435  2.2523
   63SAPC   O21 5014  -0.071   6.802   7.882  0.3207 -0.2650  0.0929
   63SAPC   C21 5015  -0.152   6.910   7.856  0.3732 -0.8333 -0.2956
   63SAPC   O22 5016  -0.161   7.007   7.934  0.3496  0.3398 -0.0021
   63SAPC   C22 5017  -0.234   6.898   7.729 -0.2596 -0.7919  0.4403
   63SAPC   H2R 5018  -0.277   6.797   7.712 -2.7742  0.3880 -0.7728
   63SAPC   H2S 5019  -0.320   6.967   7.740 -0.7136 -0.9571 -1.6723
   63SAPC    C3 5020   0.139   6.921   7.925  0.1712 -0.1457 -0.2242
   63SAPC    HX 5021   0.199   6.964   8.008 -0.3829  1.4044 -0.5957
   63SAPC    HY 5022   0.081   7.007   7.886 -1.4861 -0.6278  1.0700
   63SAPC   O31 5023   0.210   6.862   7.813  0.0270  0.4109  0.1454
   63SAPC   C31 5024   0.332   6.807   7.846 -0.1684 -0.6701  0.1235
   63SAPC   O32 5025   0.393   6.826   7.952 -0.2009 -0.4379 -0.3218
   63SAPC   C32 5026   0.391   6.736   7.726  0.5117 -0.1328  0.5386
   63SAPC   H2X 5027   0.413   6.632   7.757 -2.6460 -0.7449  1.0717
   63SAPC   H2Y 5028   0.486   6.789   7.705 -1.2573  3.3193  0.5191
   63SAPC   C23 5029  -0.156   6.947   7.609 -0.9024  0.6464 -0.2203
   63SAPC   H3R 5030  -0.060   6.892   7.600 -1.3517 -0.4683  1.4207
   63SAPC   H3S 5031  -0.119   7.051   7.625 -0.2147  0.7355 -2.1364
   63SAPC   C24 5032  -0.241   6.930   7.485 -0.5092 -0.1901  0.0017
   63SAPC   H4R 5033  -0.345   6.963   7.503 -0.8057 -0.6289 -0.8935
   63SAPC   H4S 5034  -0.261   6.823   7.464 -1.3629 -0.1855  0.7314
   63SAPC   C25 5035  -0.188   6.991   7.358  0.2638 -0.2633  0.9166
   63SAPC   H5R 5036  -0.209   7.099   7.355  0.2251 -0.2844  0.3272
   63SAPC   C26 5037  -0.134   6.942   7.247 -0.3991  0.1005  0.0246
   63SAPC   H6R 5038  -0.106   7.013   7.168 -1.1989  0.8172  0.3689
   63SAPC   C27 5039  -0.100   6.797   7.219  0.2340 -0.6571  0.4744
   63SAPC   H7R 5040  -0.114   6.731   7.308  1.4218  0.2487  1.3575
   63SAPC   H7S 5041   0.007   6.789   7.193  0.1620  0.0882 -0.0670
   63SAPC   C28 5042  -0.183   6.742   7.112  1.0190  0.3927  0.1482
   63SAPC   H8R 5043  -0.288   6.733   7.143  1.0177  2.3115  0.7978
   63SAPC   C29 5044  -0.152   6.713   6.986  0.1523  0.1785 -0.4690
   63SAPC   H9R 5045  -0.228   6.676   6.916 -0.0280  0.6475 -0.5269
   63SAPC  C210 5046  -0.019   6.721   6.917  0.4130 -0.7199  0.3077
   63SAPC  H10R 5047  -0.003   6.613   6.896 -2.2033 -0.8556 -1.3063
   63SAPC  H10S 5048   0.059   6.748   6.992 -0.7725  1.2216  0.9171
   63SAPC  C211 5049  -0.000   6.803   6.787 -0.2134  0.6031 -1.5652
   63SAPC  H11R 5050  -0.044   6.904   6.786  0.9976  1.1523 -0.9541
   63SAPC  C212 5051   0.064   6.759   6.674  0.2581  0.7741 -1.0348
   63SAPC  H12R 5052   0.059   6.817   6.581 -0.2899 -2.2649 -3.0384
   63SAPC  C213 5053   0.119   6.619   6.661 -0.1511  0.0460 -0.0798
   63SAPC  H13R 5054   0.063   6.566   6.581 -0.7389 -0.0347  0.3728
   63SAPC  H13S 5055   0.103   6.558   6.754 -2.2718  2.2463  1.1129
   63SAPC  C214 5056   0.266   6.621   6.621  0.4403  0.2834 -1.3421
   63SAPC  H14R 5057   0.336   6.652   6.700  0.0645 -2.8574  0.4003
   63SAPC  C215 5058   0.326   6.603   6.500 -0.5234 -0.3538  0.1376
   63SAPC  H15R 5059   0.435   6.622   6.504 -0.6942  1.3423 -1.8108
   63SAPC  C216 5060   0.273   6.573   6.368 -0.6367  0.3367  0.3815
   63SAPC  H16R 5061   0.169   6.533   6.371 -1.0244  1.1445 -1.2293
   63SAPC  H16S 5062   0.321   6.482   6.324 -0.3806  0.2960  0.7435
   63SAPC  C217 5063   0.274   6.695   6.279 -0.1922  0.3827 -0.0153
   63SAPC  H17R 5064   0.378   6.733   6.276  0.2032 -0.7319 -0.8929
   63SAPC  H17S 5065   0.207   6.776   6.317 -1.8409 -1.2197  0.6354
   63SAPC  C218 5066   0.251   6.659   6.135  0.1831 -0.0814  0.6907
   63SAPC  H18R 5067   0.188   6.569   6.123 -1.7521  1.2924  0.0010
   63SAPC  H18S 5068   0.354   6.630   6.106  0.7995  1.8013  0.8160
   63SAPC  C219 5069   0.211   6.776   6.041 -0.4407  0.1258  0.6756
   63SAPC  H19R 5070   0.224   6.736   5.938 -1.5426  1.4742 -0.0077
   63SAPC  H19S 5071   0.276   6.865   6.052 -1.6110  1.4490 -2.2428
   63SAPC  C220 5072   0.064   6.816   6.053 -0.8072  0.7499 -0.4490
   63SAPC  H20R 5073   0.004   6.723   6.042 -0.7737  0.3668  1.9968
   63SAPC  H20S 5074   0.034   6.896   5.982  0.3238  1.3960 -0.2377
   63SAPC  H20T 5075   0.040   6.851   6.156 -0.7892 -0.5476  0.0139
   63SAPC   C33 5076   0.307   6.725   7.595  0.7983  0.0753  0.2510
   63SAPC   H3X 5077   0.255   6.818   7.566  0.1681 -0.4541 -0.3453
   63SAPC   H3Y 5078   0.228   6.648   7.608  2.0146 -1.3090 -0.2133
   63SAPC   C34 5079   0.391   6.674   7.473  0.1491  0.2173 -0.6272
   63SAPC   H4X 5080   0.409   6.568   7.500  0.7833  0.5775  0.4174
   63SAPC   H4Y 5081   0.490   6.724   7.468  0.0167  0.5282 -0.1569
   63SAPC   C35 5082   0.311   6.701   7.345  0.3350  0.3799 -0.0988
   63SAPC   H5X 5083   0.309   6.811   7.330  1.4018  0.8186  2.3955
   63SAPC   H5Y 5084   0.210   6.656   7.357  1.4714 -2.4345 -0.3042
   63SAPC   C36 5085   0.382   6.629   7.231  0.4635 -0.4018 -0.7389
   63SAPC   H6X 5086   0.405   6.522   7.252  1.5610 -0.0450 -0.0603
   63SAPC   H6Y 5087   0.482   6.676   7.229 -0.4037  1.8804  2.1482
   63SAPC   C37 5088   0.309   6.650   7.104  0.7812 -0.1364 -0.0284
   63SAPC   H7X 5089   0.304   6.759   7.085  0.6345 -0.1525 -0.0863
   63SAPC   H7Y 5090   0.204   6.613   7.114  0.1689  1.1001 -1.4327
   63SAPC   C38 5091   0.362   6.596   6.974 -0.4139 -0.5095 -0.2317
   63SAPC   H8X 5092   0.312   6.652   6.891  2.1282  1.7077 -0.3964
   63SAPC   H8Y 5093   0.341   6.487   6.963 -0.1522 -0.4304 -1.8178
   63SAPC   C39 5094   0.511   6.618   6.959  0.0826  0.8912 -0.6897
   63SAPC   H9X 5095   0.543   6.576   6.861 -0.3006  2.2563 -1.4395
   63SAPC   H9Y 5096   0.565   6.557   7.034 -0.2469 -2.6716 -3.1101
   63SAPC  C310 5097   0.571   6.763   6.963 -0.2985  0.2066 -0.2638
   63SAPC  H10X 5098   0.558   6.811   7.062  0.2758 -0.7491  0.2881
   63SAPC  H10Y 5099   0.512   6.817   6.885 -1.5013  1.2401  1.2911
   63SAPC  C311 5100   0.719   6.777   6.913  0.0543 -0.1089  0.2565
   63SAPC  H11X 5101   0.723   6.724   6.815 -2.2456  0.1211 -0.0123
   63SAPC  H11Y 5102   0.789   6.729   6.985 -1.5583 -0.8664  1.3893
   63SAPC  C312 5103   0.780   6.915   6.907  0.0025 -0.4621  0.4518
   63SAPC  H12X 5104   0.710   6.991   6.949  0.2945 -1.1708  2.2957
   63SAPC  H12Y 5105   0.799   6.944   6.801  0.6642 -1.6423  0.2292
   63SAPC  C313 5106   0.918   6.930   6.978  0.0424  0.4594 -0.4487
   63SAPC  H13X 5107   0.961   7.020   6.928 -0.6380  0.0133 -1.8992
   63SAPC  H13Y 5108   0.979   6.844   6.945  1.0780 -0.3037  3.0493
   63SAPC  C314 5109   0.895   6.967   7.120  0.8624 -0.0710 -0.2462
   63SAPC  H14X 5110   0.825   7.053   7.126 -0.0739 -0.9092  2.1422
   63SAPC  H14Y 5111   0.994   6.999   7.160  0.4999  1.9074 -0.8184
   63SAPC  C315 5112   0.838   6.857   7.211 -0.4655 -0.4980  0.0692
   63SAPC  H15X 5113   0.902   6.770   7.234  0.9656  1.0693  2.3908
   63SAPC  H15Y 5114   0.738   6.822   7.176 -0.6306  0.7426 -0.7711
   63SAPC  C316 5115   0.813   6.934   7.343  0.5259  0.2789 -0.2816
   63SAPC  H16X 5116   0.766   7.032   7.319 -0.3085 -0.0682 -0.1096
   63SAPC  H16Y 5117   0.907   6.960   7.397 -0.0176 -0.2243  0.9386
   63SAPC  C317 5118   0.723   6.857   7.439 -0.6504  1.0283 -0.0894
   63SAPC  H17X 5119   0.631   6.823   7.385 -1.8725 -0.4560  2.7145
   63SAPC  H17Y 5120   0.674   6.924   7.513 -0.2338  0.3225  0.8381
   63SAPC  C318 5121   0.793   6.731   7.511 -0.0437  0.8940  0.1906
   63SAPC  H18X 5122   0.711   6.680   7.566  1.1040 -2.4880 -0.9571
   63SAPC  H18Y 5123   0.874   6.765   7.578 -1.8576  0.0555  2.9596
   63SAPC  H18Z 5124   0.834   6.664   7.432 -1.9960 -0.3853  0.1682
   64SAPC     N 5125   1.102   3.702   8.113 -0.1583 -0.5070  0.9123
   64SAPC   C12 5126   1.244   3.632   8.093  0.7248 -0.4813  0.5927
   64SAPC  H12A 5127   1.250   3.548   8.162  0.2782 -0.6130  0.4772
   64SAPC  H12B 5128   1.325   3.701   8.107 -1.3012  2.3447 -0.7261
   64SAPC   C13 5129   0.986   3.625   8.075 -0.2345  0.2239  0.5342
   64SAPC  H13A 5130   0.974   3.597   7.971 -3.0838  1.1811  0.5319
   64SAPC  H13B 5131   0.987   3.527   8.120 -2.0019 -0.1962 -0.2339
   64SAPC  H13C 5132   0.895   3.670   8.113 -0.0580  1.5953 -0.5946
   64SAPC   C14 5133   1.089   3.737   8.259  0.5529  0.2591  0.4599
   64SAPC  H14A 5134   0.989   3.773   8.276  0.4691 -0.3611  1.3632
   64SAPC  H14B 5135   1.098   3.648   8.320 -0.7365 -0.2001  0.0252
   64SAPC  H14C 5136   1.159   3.812   8.292 -0.4398  1.9626 -1.0931
   64SAPC   C15 5137   1.105   3.835   8.030  0.0131 -0.1504 -0.0367
   64SAPC  H15A 5138   1.180   3.911   8.046 -0.1444  0.2884 -1.2743
   64SAPC  H15B 5139   1.111   3.815   7.924 -0.9865  2.0512 -0.5557
   64SAPC  H15C 5140   1.009   3.882   8.044 -1.3026 -2.0371 -2.0907
   64SAPC   C11 5141   1.265   3.566   7.960 -0.1255 -0.3144 -0.1447
   64SAPC  H11A 5142   1.371   3.570   7.927 -0.1978  0.2182 -0.3124
   64SAPC  H11B 5143   1.212   3.634   7.890 -0.0504  0.2045  0.2982
   64SAPC     P 5144   1.272   3.312   8.023  0.2219 -0.3316  0.0432
   64SAPC   O13 5145   1.306   3.363   8.159  0.3326  0.8752 -0.0424
   64SAPC   O14 5146   1.191   3.187   8.007  0.1045 -0.5523  0.1822
   64SAPC   O12 5147   1.205   3.437   7.946 -0.2733  0.5735 -0.3146
   64SAPC   O11 5148   1.408   3.294   7.953 -0.2025  0.3150  0.0205
   64SAPC    C1 5149   1.424   3.244   7.824  1.1692  0.1776  0.0595
   64SAPC    HA 5150   1.477   3.147   7.825  0.6256 -0.1418 -0.6375
   64SAPC    HB 5151   1.324   3.228   7.777  0.7205 -1.1469  1.4114
   64SAPC    C2 5152   1.509   3.352   7.748 -0.7191 -0.1760 -0.8780
   64SAPC    HS 5153   1.444   3.443   7.741 -0.2819  0.1206 -1.1351
   64SAPC   O21 5154   1.547   3.302   7.623  0.1192 -0.9210  0.1394
   64SAPC   C21 5155   1.460   3.311   7.521  0.2010  0.5364  0.9087
   64SAPC   O22 5156   1.355   3.373   7.524 -0.4523 -0.2214  0.5795
   64SAPC   C22 5157   1.513   3.239   7.394  0.2140 -0.4474  0.1745
   64SAPC   H2R 5158   1.555   3.143   7.430 -1.7509 -1.4844 -0.1812
   64SAPC   H2S 5159   1.421   3.222   7.335 -0.1574  1.5597  0.0953
   64SAPC    C3 5160   1.630   3.405   7.838  0.3336 -0.4269  0.0946
   64SAPC    HX 5161   1.694   3.319   7.870  0.3235  0.5116  2.8045
   64SAPC    HY 5162   1.584   3.436   7.933 -1.7640 -2.6996 -0.0723
   64SAPC   O31 5163   1.718   3.499   7.769  0.3515  0.2657  0.1862
   64SAPC   C31 5164   1.659   3.617   7.736  0.1365  0.1961 -0.5494
   64SAPC   O32 5165   1.545   3.649   7.758  0.7136  0.1225 -0.2774
   64SAPC   C32 5166   1.763   3.690   7.644  0.0311  0.0541 -0.0399
   64SAPC   H2X 5167   1.838   3.612   7.620  0.8189  1.0955 -1.0559
   64SAPC   H2Y 5168   1.813   3.772   7.701  0.0097 -1.0862  1.7163
   64SAPC   C23 5169   1.616   3.330   7.322  0.7225 -0.7428 -0.0122
   64SAPC   H3R 5170   1.640   3.283   7.225 -1.1186 -0.3955 -0.6891
   64SAPC   H3S 5171   1.706   3.358   7.381  1.2337 -0.5722 -0.8677
   64SAPC   C24 5172   1.553   3.466   7.278 -0.1494  0.6113 -0.3031
   64SAPC   H4R 5173   1.628   3.508   7.208 -0.1902  2.2920  0.5818
   64SAPC   H4S 5174   1.542   3.542   7.359 -1.7302 -0.6626  0.7422
   64SAPC   C25 5175   1.431   3.444   7.195  0.4903  0.3562  0.2791
   64SAPC   H5R 5176   1.341   3.438   7.259  2.3642  0.3445  3.0651
   64SAPC   C26 5177   1.431   3.420   7.063  0.7759  0.4483 -0.5811
   64SAPC   H6R 5178   1.335   3.397   7.013  0.2684  0.8910  0.1803
   64SAPC   C27 5179   1.548   3.419   6.967  0.5023 -0.3590 -0.1486
   64SAPC   H7R 5180   1.647   3.446   7.010 -0.0906  3.5780 -0.9157
   64SAPC   H7S 5181   1.532   3.491   6.884 -1.4688 -0.2352  0.2783
   64SAPC   C28 5182   1.572   3.277   6.913 -0.1067  0.4085 -0.6859
   64SAPC   H8R 5183   1.644   3.221   6.975 -1.6482  2.7283  3.6634
   64SAPC   C29 5184   1.526   3.223   6.804  0.2462  0.8660 -0.6165
   64SAPC   H9R 5185   1.556   3.123   6.769 -1.1537  0.4787 -0.7864
   64SAPC  C210 5186   1.430   3.294   6.709  0.1396  0.1033  0.6448
   64SAPC  H10R 5187   1.426   3.405   6.716  2.7226  0.3173 -0.1927
   64SAPC  H10S 5188   1.336   3.237   6.726  0.0987  0.1737  0.6525
   64SAPC  C211 5189   1.466   3.288   6.562  0.5458  0.0788  0.3860
   64SAPC  H11R 5190   1.571   3.262   6.537  0.0865  0.1528 -1.8816
   64SAPC  C212 5191   1.399   3.304   6.447 -0.2092 -0.1848  0.1667
   64SAPC  H12R 5192   1.444   3.289   6.348 -1.4385 -1.2474 -0.2597
   64SAPC  C213 5193   1.258   3.355   6.443  0.1938 -0.1160  0.3935
   64SAPC  H13R 5194   1.242   3.453   6.394 -1.1456  0.1917  1.3863
   64SAPC  H13S 5195   1.215   3.373   6.544  1.1729  0.1362  0.7801
   64SAPC  C214 5196   1.167   3.255   6.380 -0.3030  0.0917  0.2479
   64SAPC  H14R 5197   1.152   3.160   6.434 -1.4287  0.6681  0.9883
   64SAPC  C215 5198   1.122   3.263   6.250 -0.0939 -0.8658  0.1010
   64SAPC  H15R 5199   1.039   3.197   6.220  1.1419 -2.5285  0.1696
   64SAPC  C216 5200   1.146   3.379   6.150  0.0740  0.7597  0.1402
   64SAPC  H16R 5201   1.240   3.428   6.183  2.1887 -1.4298 -2.1884
   64SAPC  H16S 5202   1.065   3.452   6.167  0.8533  1.2475  2.0526
   64SAPC  C217 5203   1.144   3.326   6.012 -0.3988  0.4614  0.6915
   64SAPC  H17R 5204   1.137   3.413   5.944  3.0714  1.6366  1.6837
   64SAPC  H17S 5205   1.051   3.266   5.995  0.4899 -0.7989  0.1093
   64SAPC  C218 5206   1.273   3.252   5.982 -0.1094  0.1801  0.2637
   64SAPC  H18R 5207   1.284   3.160   6.044  0.0250  0.6200  0.8965
   64SAPC  H18S 5208   1.358   3.314   6.018  0.0469 -0.9965  2.0506
   64SAPC  C219 5209   1.290   3.218   5.830 -0.3823  0.3612  0.0922
   64SAPC  H19R 5210   1.263   3.307   5.769 -0.1562 -0.0308 -0.5929
   64SAPC  H19S 5211   1.219   3.139   5.798 -3.3298  2.8923 -0.0928
   64SAPC  C220 5212   1.424   3.151   5.777 -0.4889 -0.2792  0.3171
   64SAPC  H20R 5213   1.439   3.055   5.830 -0.7154 -1.3812 -1.5160
   64SAPC  H20S 5214   1.494   3.234   5.802  1.4575  0.1785 -5.2665
   64SAPC  H20T 5215   1.411   3.123   5.670  1.1125  1.0008 -0.2679
   64SAPC   C33 5216   1.694   3.750   7.520  0.4238  0.6864  0.7599
   64SAPC   H3X 5217   1.609   3.816   7.547 -1.0120 -0.7820  0.0659
   64SAPC   H3Y 5218   1.660   3.673   7.447  1.8953  2.5087 -2.0344
   64SAPC   C34 5219   1.796   3.843   7.439  0.1845  0.3346 -0.7936
   64SAPC   H4X 5220   1.892   3.791   7.418  0.7782  0.8048  0.6369
   64SAPC   H4Y 5221   1.813   3.927   7.510  1.4809 -0.1855 -0.4598
   64SAPC   C35 5222   1.747   3.899   7.302 -0.2463 -0.4536 -0.2355
   64SAPC   H5X 5223   1.804   3.988   7.268 -0.0623 -0.4376  0.1180
   64SAPC   H5Y 5224   1.638   3.920   7.310  0.1132  1.2488  0.4425
   64SAPC   C36 5225   1.761   3.805   7.177  0.1462  0.0317  0.1874
   64SAPC   H6X 5226   1.738   3.704   7.217  0.5810 -0.3513 -0.5019
   64SAPC   H6Y 5227   1.869   3.800   7.152 -0.1736 -0.2443 -1.2323
   64SAPC   C37 5228   1.678   3.872   7.068  0.3103 -0.3081  0.3485
   64SAPC   H7X 5229   1.722   3.973   7.052  0.6689 -0.2853  1.3889
   64SAPC   H7Y 5230   1.568   3.873   7.082  0.5951  1.2492  3.0946
   64SAPC   C38 5231   1.695   3.801   6.927  0.2700 -0.5631  0.2055
   64SAPC   H8X 5232   1.661   3.696   6.938 -0.2076 -0.5365 -0.8601
   64SAPC   H8Y 5233   1.804   3.790   6.914  0.3979 -0.8214  1.3902
   64SAPC   C39 5234   1.626   3.867   6.809  0.4602  1.0816  0.2205
   64SAPC   H9X 5235   1.686   3.953   6.771  0.4845  0.8915 -0.1782
   64SAPC   H9Y 5236   1.529   3.914   6.837  0.2738  1.2223 -0.6076
   64SAPC  C310 5237   1.609   3.772   6.684  0.1912 -0.8987 -0.4368
   64SAPC  H10X 5238   1.561   3.676   6.715  0.8616 -1.5281 -1.3087
   64SAPC  H10Y 5239   1.710   3.750   6.644  0.3838 -0.3261 -0.2709
   64SAPC  C311 5240   1.526   3.834   6.572  0.1756 -0.4737 -0.3328
   64SAPC  H11X 5241   1.579   3.923   6.533  3.5118 -2.1676 -0.0316
   64SAPC  H11Y 5242   1.428   3.863   6.615 -0.0486 -1.6265 -0.0332
   64SAPC  C312 5243   1.492   3.728   6.466 -0.0564  0.2385 -0.7946
   64SAPC  H12X 5244   1.401   3.677   6.502  0.3754  0.3234  0.4731
   64SAPC  H12Y 5245   1.576   3.658   6.447  0.3967  0.3320  0.7249
   64SAPC  C313 5246   1.440   3.782   6.329 -0.7002  0.3344 -0.3168
   64SAPC  H13X 5247   1.507   3.857   6.282  0.9666 -0.0021  1.3969
   64SAPC  H13Y 5248   1.340   3.831   6.336 -1.7195 -1.4704 -1.5626
   64SAPC  C314 5249   1.432   3.671   6.225  0.3246  0.2353 -0.1048
   64SAPC  H14X 5250   1.390   3.581   6.275  0.2009  1.3847  2.0185
   64SAPC  H14Y 5251   1.534   3.642   6.193  0.2946  1.7971 -1.8083
   64SAPC  C315 5252   1.359   3.707   6.093 -0.2166 -0.6657  0.1329
   64SAPC  H15X 5253   1.255   3.733   6.123  0.4004  1.1201  0.8462
   64SAPC  H15Y 5254   1.357   3.616   6.028  1.8425 -1.7025  1.4091
   64SAPC  C316 5255   1.419   3.826   6.015 -0.1449  0.2129  0.1726
   64SAPC  H16X 5256   1.524   3.803   5.987 -0.9421 -2.7978 -0.6648
   64SAPC  H16Y 5257   1.435   3.914   6.082  0.2063  0.0034  0.3637
   64SAPC  C317 5258   1.352   3.877   5.890 -0.4207 -0.1214  0.1718
   64SAPC  H17X 5259   1.260   3.937   5.909 -0.9447 -1.2694  1.4281
   64SAPC  H17Y 5260   1.311   3.785   5.842 -0.9734  0.8429 -1.2923
   64SAPC  C318 5261   1.455   3.961   5.798 -0.4909  0.6958  0.0691
   64SAPC  H18X 5262   1.398   3.975   5.704 -0.0969 -0.4842 -0.3525
   64SAPC  H18Y 5263   1.545   3.901   5.776 -0.4205  0.9972 -0.4712
   64SAPC  H18Z 5264   1.484   4.059   5.843 -0.2096  1.6803 -2.1228
   65SAPC     N 5265   6.534   0.938   3.738 -0.0909  0.0374 -0.2570
   65SAPC   C12 5266   6.584   0.943   3.882 -0.0026  0.8925  0.1400
   65SAPC  H12A 5267   6.549   0.854   3.931  2.0065 -0.2388 -0.3546
   65SAPC  H12B 5268   6.540   1.030   3.927  1.6068  2.6545 -1.5022
   65SAPC   C13 5269   6.580   0.805   3.692 -0.5069 -0.2226  0.4632
   65SAPC  H13A 5270   6.527   0.727   3.743 -0.6148  0.3223  1.1910
   65SAPC  H13B 5271   6.554   0.792   3.588 -0.8381 -1.6817  0.7046
   65SAPC  H13C 5272   6.686   0.796   3.712 -0.3041 -0.1867 -0.5083
   65SAPC   C14 5273   6.387   0.937   3.741 -0.2223 -0.4218 -0.3155
   65SAPC  H14A 5274   6.348   0.883   3.656  2.2936 -0.4039 -1.5810
   65SAPC  H14B 5275   6.350   0.894   3.833  0.7265  1.3600  0.9616
   65SAPC  H14C 5276   6.354   1.040   3.740  0.1372 -0.2082  2.1962
   65SAPC   C15 5277   6.590   1.052   3.653 -0.1485 -0.7691  0.2016
   65SAPC  H15A 5278   6.698   1.056   3.651 -0.1940  1.9069 -1.1603
   65SAPC  H15B 5279   6.573   1.040   3.547  1.8991 -0.6955 -0.1823
   65SAPC  H15C 5280   6.567   1.151   3.689  3.8111 -0.6561  3.1571
   65SAPC   C11 5281   6.734   0.947   3.912 -0.6709  0.5403  0.6918
   65SAPC  H11A 5282   6.737   0.984   4.017 -0.4269 -0.9442  1.2251
   65SAPC  H11B 5283   6.788   1.012   3.839  0.6371 -2.3095 -1.0191
   65SAPC     P 5284   6.755   0.695   3.978 -0.0234 -0.1405  0.0325
   65SAPC   O13 5285   6.629   0.716   4.051 -0.3919 -0.0684 -0.1916
   65SAPC   O14 5286   6.757   0.590   3.873 -0.3068  0.4886  0.1991
   65SAPC   O12 5287   6.803   0.830   3.902 -0.1626  0.4174 -0.4197
   65SAPC   O11 5288   6.867   0.676   4.088  0.5760  0.2405 -0.2722
   65SAPC    C1 5289   6.993   0.631   4.051  0.0538 -0.3053 -0.2629
   65SAPC    HA 5290   6.997   0.557   3.968  1.4111  1.2385 -1.6395
   65SAPC    HB 5291   7.052   0.721   4.024 -2.1776  2.7564  4.0433
   65SAPC    C2 5292   7.050   0.555   4.176  0.3266  0.9785  0.1111
   65SAPC    HS 5293   6.978   0.473   4.196 -0.7256  1.5534 -1.1733
   65SAPC   O21 5294   7.056   0.644   4.286  0.4484  0.1106 -0.0301
   65SAPC   C21 5295   6.997   0.607   4.399  0.6287  0.4939 -0.3252
   65SAPC   O22 5296   6.934   0.503   4.408  0.2543  0.3584  0.2464
   65SAPC   C22 5297   7.026   0.695   4.517 -0.5875 -0.5527  0.6076
   65SAPC   H2R 5298   7.108   0.766   4.494  0.4980 -2.2403 -0.9569
   65SAPC   H2S 5299   6.932   0.742   4.554 -1.0765  0.6382 -1.9658
   65SAPC    C3 5300   7.189   0.495   4.154  0.1767  0.4284  0.1595
   65SAPC    HX 5301   7.257   0.580   4.131 -0.9768  2.0330  2.3264
   65SAPC    HY 5302   7.193   0.435   4.060 -0.2864 -0.3023  0.5956
   65SAPC   O31 5303   7.234   0.396   4.252  1.1126  0.2254 -0.3245
   65SAPC   C31 5304   7.359   0.414   4.289  0.3748  0.1332  0.8174
   65SAPC   O32 5305   7.438   0.487   4.232 -0.0584  0.6604 -0.0367
   65SAPC   C32 5306   7.397   0.352   4.425  0.0704  0.3386  0.4297
   65SAPC   H2X 5307   7.439   0.253   4.394  0.2892  0.2791  0.8985
   65SAPC   H2Y 5308   7.301   0.328   4.475 -0.2400  1.0838  0.1963
   65SAPC   C23 5309   7.064   0.606   4.635  0.3654  0.3857  0.5298
   65SAPC   H3R 5310   7.148   0.541   4.602  0.2196 -1.3031  3.2216
   65SAPC   H3S 5311   6.983   0.537   4.666  0.5436  0.2147  0.6126
   65SAPC   C24 5312   7.116   0.697   4.753 -0.6277 -0.6098 -0.4097
   65SAPC   H4R 5313   7.046   0.781   4.769  1.4449  1.2228 -0.5602
   65SAPC   H4S 5314   7.213   0.740   4.721 -1.3972  1.9808  0.5503
   65SAPC   C25 5315   7.132   0.617   4.881  0.9312  0.3225 -0.1697
   65SAPC   H5R 5316   7.071   0.526   4.894 -0.0834  1.0033 -0.0015
   65SAPC   C26 5317   7.214   0.640   4.987 -0.2715  0.2568 -0.0007
   65SAPC   H6R 5318   7.224   0.566   5.067  0.5315 -2.7661 -2.7071
   65SAPC   C27 5319   7.309   0.754   4.995  0.2521  0.4427 -0.1019
   65SAPC   H7R 5320   7.300   0.794   5.098 -2.7765 -2.3362  0.8756
   65SAPC   H7S 5321   7.272   0.833   4.926 -0.6163  0.2688  0.1480
   65SAPC   C28 5322   7.455   0.723   4.955 -0.3359 -0.7504  0.4763
   65SAPC   H8R 5323   7.479   0.661   4.867  2.2393  0.3901  0.3051
   65SAPC   C29 5324   7.558   0.732   5.036  0.3229  0.1283 -0.6019
   65SAPC   H9R 5325   7.656   0.715   4.989  0.0839 -0.0293 -1.0489
   65SAPC  C210 5326   7.569   0.802   5.175 -0.1817  0.4413  1.0824
   65SAPC  H10R 5327   7.468   0.795   5.222 -1.9226 -0.6619 -2.4105
   65SAPC  H10S 5328   7.581   0.909   5.149  0.3017  0.3111  0.7677
   65SAPC  C211 5329   7.690   0.748   5.249  0.4061  0.5622  0.4459
   65SAPC  H11R 5330   7.700   0.639   5.238 -0.3141  0.5563 -0.2820
   65SAPC  C212 5331   7.796   0.817   5.296 -0.3167 -0.4557  0.1561
   65SAPC  H12R 5332   7.868   0.753   5.348 -1.6569 -2.9098 -0.8182
   65SAPC  C213 5333   7.825   0.967   5.285  0.2258 -0.5736 -0.1269
   65SAPC  H13R 5334   7.737   1.011   5.233  0.8886  2.0050  0.7554
   65SAPC  H13S 5335   7.912   0.979   5.218  2.2455  1.5523  2.6774
   65SAPC  C214 5336   7.841   1.037   5.416 -0.1456  0.1523  0.5583
   65SAPC  H14R 5337   7.748   1.055   5.472  0.5862 -0.7800  2.1520
   65SAPC  C215 5338   7.954   1.080   5.470 -0.0005  0.0963  0.5130
   65SAPC  H15R 5339   7.951   1.151   5.554  1.2092 -0.4773  1.0646
   65SAPC  C216 5340   8.089   1.061   5.407 -0.1148 -0.8480 -0.0322
   65SAPC  H16R 5341   8.082   1.075   5.297  0.2516  2.6335  0.2667
   65SAPC  H16S 5342   8.133   0.961   5.425  1.5067 -0.2853 -0.6202
   65SAPC  C217 5343   8.185   1.160   5.471  0.0534  0.2924 -0.4328
   65SAPC  H17R 5344   8.288   1.130   5.441  0.2684 -0.4652  0.9753
   65SAPC  H17S 5345   8.182   1.158   5.582  0.4974  3.5922 -0.2787
   65SAPC  C218 5346   8.181   1.310   5.424  0.4806 -0.2576 -0.9645
   65SAPC  H18R 5347   8.084   1.357   5.451  0.4389 -0.2355 -1.1474
   65SAPC  H18S 5348   8.188   1.299   5.313 -3.2675 -1.1759 -1.2457
   65SAPC  C219 5349   8.301   1.395   5.478 -0.3620  0.5102  0.4614
   65SAPC  H19R 5350   8.346   1.453   5.395  0.9016 -0.6705  0.2890
   65SAPC  H19S 5351   8.373   1.322   5.518 -2.8339 -1.8073  0.9908
   65SAPC  C220 5352   8.261   1.480   5.599 -0.3173 -0.3510  1.0614
   65SAPC  H20R 5353   8.199   1.566   5.567  2.2635  0.5470 -2.0369
   65SAPC  H20S 5354   8.352   1.512   5.653 -1.3210 -0.0879  2.6595
   65SAPC  H20T 5355   8.207   1.407   5.663  0.2439 -0.6825  1.1685
   65SAPC   C33 5356   7.505   0.435   4.498 -0.2539  2.0623  0.2374
   65SAPC   H3X 5357   7.473   0.537   4.529  1.3268  2.1293  1.8193
   65SAPC   H3Y 5358   7.586   0.448   4.424 -1.3532 -0.1047 -1.4367
   65SAPC   C34 5359   7.558   0.353   4.621 -0.5349  0.1333  0.0762
   65SAPC   H4X 5360   7.650   0.401   4.660  0.4032 -2.6387  1.6075
   65SAPC   H4Y 5361   7.575   0.245   4.600  1.7901  0.6260 -0.8401
   65SAPC   C35 5362   7.474   0.352   4.747 -0.9660  0.6625 -0.3302
   65SAPC   H5X 5363   7.365   0.351   4.727 -0.8627  0.9698 -0.9568
   65SAPC   H5Y 5364   7.488   0.444   4.808  2.3865  1.1637 -1.6054
   65SAPC   C36 5365   7.507   0.225   4.826 -0.3113 -0.0512  0.5755
   65SAPC   H6X 5366   7.617   0.221   4.841 -0.3855 -1.7433  0.9065
   65SAPC   H6Y 5367   7.467   0.135   4.775  0.2951 -0.2202  0.3943
   65SAPC   C37 5368   7.442   0.221   4.966 -0.2469 -0.6054 -0.0922
   65SAPC   H7X 5369   7.487   0.130   5.011  1.1463 -0.4413 -1.0651
   65SAPC   H7Y 5370   7.332   0.212   4.959 -0.5869 -1.8692  4.0272
   65SAPC   C38 5371   7.465   0.355   5.050  0.0194 -0.1662 -0.2304
   65SAPC   H8X 5372   7.423   0.450   5.012 -1.4896 -1.0784 -0.9663
   65SAPC   H8Y 5373   7.572   0.377   5.073 -0.4933  1.8846  0.3860
   65SAPC   C39 5374   7.429   0.333   5.199  0.3239 -0.3635 -0.8906
   65SAPC   H9X 5375   7.491   0.245   5.224  0.9681 -0.0269 -1.2742
   65SAPC   H9Y 5376   7.327   0.290   5.210 -0.3366  1.2988 -0.0809
   65SAPC  C310 5377   7.449   0.448   5.298 -0.3897 -0.2786 -0.0475
   65SAPC  H10X 5378   7.398   0.537   5.256 -0.0362  0.1422  0.4041
   65SAPC  H10Y 5379   7.557   0.475   5.295 -0.9111  1.8658 -1.4701
   65SAPC  C311 5380   7.404   0.414   5.438  0.2645 -0.0706  0.3006
   65SAPC  H11X 5381   7.305   0.364   5.438 -0.5999  1.5674  0.4829
   65SAPC  H11Y 5382   7.383   0.504   5.500 -0.4766 -0.3453  0.4610
   65SAPC  C312 5383   7.499   0.329   5.521 -0.1039  0.4969 -0.4056
   65SAPC  H12X 5384   7.590   0.387   5.546 -0.4041  0.7091  0.2184
   65SAPC  H12Y 5385   7.524   0.239   5.460 -1.2718  0.1154 -0.3418
   65SAPC  C313 5386   7.420   0.291   5.652 -0.4824 -0.1345  0.0610
   65SAPC  H13X 5387   7.478   0.210   5.702  0.6100  0.6482  0.0948
   65SAPC  H13Y 5388   7.327   0.235   5.627  0.3056 -0.1048 -3.3460
   65SAPC  C314 5389   7.401   0.410   5.733  0.5572  0.3149  0.6657
   65SAPC  H14X 5390   7.292   0.431   5.739  0.5067  0.6592 -1.0974
   65SAPC  H14Y 5391   7.445   0.496   5.679 -3.2408  0.9347 -1.8160
   65SAPC  C315 5392   7.442   0.400   5.879 -1.0310 -0.3440 -0.2467
   65SAPC  H15X 5393   7.547   0.364   5.875 -0.4739  1.1783 -0.2190
   65SAPC  H15Y 5394   7.380   0.319   5.923  1.1397 -0.2031  3.5175
   65SAPC  C316 5395   7.420   0.535   5.953 -0.0513  0.3660 -0.5765
   65SAPC  H16X 5396   7.414   0.516   6.063 -1.2933 -2.7221 -1.0799
   65SAPC  H16Y 5397   7.316   0.561   5.924 -0.1473  0.3773 -0.2245
   65SAPC  C317 5398   7.514   0.635   5.907 -0.0045  0.1006  0.5531
   65SAPC  H17X 5399   7.544   0.618   5.802 -1.4764 -0.1668  0.1522
   65SAPC  H17Y 5400   7.611   0.630   5.961  0.8984  1.3884 -0.8702
   65SAPC  C318 5401   7.464   0.782   5.910  0.2203 -0.1704 -0.4401
   65SAPC  H18X 5402   7.519   0.848   5.840 -0.3818  0.3760 -0.4024
   65SAPC  H18Y 5403   7.489   0.835   6.005 -0.8491  0.0811 -0.2792
   65SAPC  H18Z 5404   7.356   0.795   5.885 -0.0816 -2.8004 -0.7732
   66SAPC     N 5405   5.609   1.851   4.063 -0.2406 -0.4936 -0.2455
   66SAPC   C12 5406   5.663   1.852   4.204  0.1912 -0.0955  0.3332
   66SAPC  H12A 5407   5.655   1.754   4.248 -1.5018 -0.1663 -0.0732
   66SAPC  H12B 5408   5.607   1.915   4.271  2.6635  0.4740  1.9620
   66SAPC   C13 5409   5.621   1.990   4.004 -0.0963  0.5035  0.2616
   66SAPC  H13A 5410   5.579   1.994   3.904 -1.3179 -1.2556  0.6484
   66SAPC  H13B 5411   5.554   2.062   4.049 -0.7325 -0.2055  0.4825
   66SAPC  H13C 5412   5.721   2.026   4.018 -0.1497  0.2727  1.2576
   66SAPC   C14 5413   5.675   1.755   3.963 -0.0174  0.2079  0.4699
   66SAPC  H14A 5414   5.613   1.727   3.879 -0.0159 -1.4504  0.9832
   66SAPC  H14B 5415   5.766   1.798   3.925 -0.6704  1.5222  0.3304
   66SAPC  H14C 5416   5.696   1.658   4.007  1.5974  0.1010 -0.4680
   66SAPC   C15 5417   5.460   1.827   4.070  0.3022 -0.1985  0.5018
   66SAPC  H15A 5418   5.447   1.726   4.105  0.5442 -0.8312 -1.1543
   66SAPC  H15B 5419   5.411   1.898   4.135  0.8867  1.4492 -0.7832
   66SAPC  H15C 5420   5.404   1.836   3.978  1.8773  2.1025 -0.3320
   66SAPC   C11 5421   5.811   1.906   4.233 -0.0477 -0.4604 -0.1617
   66SAPC  H11A 5422   5.884   1.872   4.157  1.6582  1.2733  0.6056
   66SAPC  H11B 5423   5.851   1.869   4.330  2.3602  0.6814 -0.6530
   66SAPC     P 5424   5.741   2.133   4.353 -0.0343  0.2414 -0.0932
   66SAPC   O13 5425   5.725   2.275   4.313 -0.2486  0.3975  0.1599
   66SAPC   O14 5426   5.620   2.060   4.391 -0.2460 -0.3413 -0.1373
   66SAPC   O12 5427   5.809   2.056   4.236 -0.3975  0.2788 -0.0733
   66SAPC   O11 5428   5.841   2.112   4.471  0.4746  0.5913  0.2058
   66SAPC    C1 5429   5.797   2.160   4.602  0.2347  0.0894 -0.3648
   66SAPC    HA 5430   5.689   2.148   4.626  0.9106 -1.4472  2.3135
   66SAPC    HB 5431   5.836   2.099   4.686 -0.0254  0.9307  0.3898
   66SAPC    C2 5432   5.835   2.309   4.635  0.0625 -0.2498 -0.2154
   66SAPC    HS 5433   5.796   2.363   4.546 -0.4913  1.6253  1.1134
   66SAPC   O21 5434   5.980   2.313   4.629  0.6524 -0.2040  0.1741
   66SAPC   C21 5435   6.051   2.269   4.731 -0.5852 -0.7485 -0.9551
   66SAPC   O22 5436   6.014   2.220   4.839 -0.0161  0.1810  0.3066
   66SAPC   C22 5437   6.196   2.287   4.689 -0.2519  0.1640 -0.2911
   66SAPC   H2R 5438   6.202   2.231   4.593  0.9779 -0.8363  0.3361
   66SAPC   H2S 5439   6.210   2.393   4.659  1.9754 -0.2499 -0.8921
   66SAPC    C3 5440   5.765   2.361   4.759  0.4492  0.5866  0.6489
   66SAPC    HX 5441   5.792   2.463   4.793 -1.2009  0.7149  1.7148
   66SAPC    HY 5442   5.780   2.293   4.846 -0.1591  1.9118  1.8188
   66SAPC   O31 5443   5.626   2.365   4.730 -0.3213  0.0110 -0.3322
   66SAPC   C31 5444   5.581   2.472   4.663  0.2957  1.3471  0.0300
   66SAPC   O32 5445   5.656   2.559   4.623  0.5814  0.2019  0.0006
   66SAPC   C32 5446   5.437   2.455   4.613 -0.0309  0.3544 -0.9753
   66SAPC   H2X 5447   5.378   2.387   4.679  1.7549 -1.3567 -1.0315
   66SAPC   H2Y 5448   5.435   2.423   4.507 -2.6750 -0.6106 -0.7244
   66SAPC   C23 5449   6.295   2.239   4.803  0.3168  0.3960  0.0016
   66SAPC   H3R 5450   6.305   2.129   4.807  2.9993  0.6002  3.0793
   66SAPC   H3S 5451   6.245   2.264   4.899  2.2484  0.0603  1.1415
   66SAPC   C24 5452   6.431   2.305   4.816 -0.2307  0.0877 -0.2934
   66SAPC   H4R 5453   6.489   2.299   4.721 -1.1876  0.7824 -0.9413
   66SAPC   H4S 5454   6.486   2.238   4.885  1.8922  1.0950 -0.9248
   66SAPC   C25 5455   6.442   2.450   4.856  0.4535 -0.3971  0.0284
   66SAPC   H5R 5456   6.397   2.514   4.779  1.6078 -0.4124 -0.6806
   66SAPC   C26 5457   6.505   2.504   4.967  0.7856  0.0565 -0.3796
   66SAPC   H6R 5458   6.477   2.608   4.988 -0.6302 -0.6203  1.3135
   66SAPC   C27 5459   6.585   2.434   5.078  0.1285  0.0844  0.7277
   66SAPC   H7R 5460   6.660   2.491   5.137  1.7754  0.3100 -1.4787
   66SAPC   H7S 5461   6.633   2.343   5.037 -1.7567 -0.6185 -0.0543
   66SAPC   C28 5462   6.485   2.379   5.178 -0.0780  0.9941  0.4532
   66SAPC   H8R 5463   6.480   2.270   5.191 -1.1789  1.1533  1.4959
   66SAPC   C29 5464   6.391   2.447   5.249  0.7515 -0.1932  0.1279
   66SAPC   H9R 5465   6.323   2.392   5.315  1.7096 -0.0058  1.3114
   66SAPC  C210 5466   6.377   2.603   5.240  0.2611 -0.0486  0.1356
   66SAPC  H10R 5467   6.446   2.643   5.163 -0.7723  0.2615 -0.6442
   66SAPC  H10S 5468   6.408   2.651   5.335 -0.8091 -1.1928  1.1069
   66SAPC  C211 5469   6.231   2.641   5.200  0.1007  0.4801 -0.1204
   66SAPC  H11R 5470   6.168   2.561   5.157  0.2578 -0.3236  1.0964
   66SAPC  C212 5471   6.180   2.767   5.203 -0.2582 -0.0181 -0.2498
   66SAPC  H12R 5472   6.080   2.779   5.159 -0.5260  1.2756  0.6535
   66SAPC  C213 5473   6.256   2.899   5.237 -0.4763  0.9359 -0.7120
   66SAPC  H13R 5474   6.366   2.886   5.236 -0.4293  0.8928  1.0201
   66SAPC  H13S 5475   6.243   2.938   5.341  1.1314  2.3514 -1.0131
   66SAPC  C214 5476   6.218   3.011   5.158  0.2005 -0.3487  0.4630
   66SAPC  H14R 5477   6.136   3.073   5.198 -0.9328  0.0362 -2.2186
   66SAPC  C215 5478   6.278   3.050   5.043  0.4212  0.4782 -0.1708
   66SAPC  H15R 5479   6.230   3.132   4.986  0.7848  0.6785 -0.1870
   66SAPC  C216 5480   6.398   2.986   4.984 -0.9547 -0.7805 -0.5148
   66SAPC  H16R 5481   6.450   2.936   5.068 -2.3319 -0.1683  0.7473
   66SAPC  H16S 5482   6.473   3.063   4.957  0.4006 -2.2181 -1.0051
   66SAPC  C217 5483   6.383   2.895   4.860  0.2591 -0.1813  0.7009
   66SAPC  H17R 5484   6.332   2.957   4.783  1.4841 -1.8285 -1.5473
   66SAPC  H17S 5485   6.310   2.815   4.885 -1.9512  1.8862  1.2271
   66SAPC  C218 5486   6.523   2.848   4.822  0.0967  0.3128  0.1430
   66SAPC  H18R 5487   6.562   2.787   4.907  0.7772 -0.1019 -0.4554
   66SAPC  H18S 5488   6.588   2.937   4.808 -0.5829  0.9813  1.1449
   66SAPC  C219 5489   6.526   2.767   4.692 -0.1116  0.3832 -0.0280
   66SAPC  H19R 5490   6.484   2.836   4.615  0.4701  1.3626  0.5159
   66SAPC  H19S 5491   6.462   2.677   4.682 -1.0411  1.2238 -2.3972
   66SAPC  C220 5492   6.665   2.734   4.641 -0.5802 -0.3413  0.0396
   66SAPC  H20R 5493   6.731   2.823   4.639 -1.6304  0.4443 -0.1605
   66SAPC  H20S 5494   6.659   2.693   4.538 -0.2957  0.5568 -0.3423
   66SAPC  H20T 5495   6.707   2.657   4.710 -0.2741 -2.0558 -1.9600
   66SAPC   C33 5496   5.365   2.593   4.625  0.5221 -0.0026 -0.1610
   66SAPC   H3X 5497   5.258   2.578   4.600  0.5922  1.5905 -1.6458
   66SAPC   H3Y 5498   5.388   2.671   4.549 -1.5210  0.3106 -0.5225
   66SAPC   C34 5499   5.356   2.650   4.774  0.1677 -0.1632 -0.1052
   66SAPC   H4X 5500   5.299   2.745   4.760 -0.0724 -0.5088 -1.7207
   66SAPC   H4Y 5501   5.457   2.673   4.815  0.0488  0.1997 -0.0067
   66SAPC   C35 5502   5.280   2.556   4.868 -0.2637  0.0737 -0.2019
   66SAPC   H5X 5503   5.339   2.463   4.879 -0.3481  0.0182 -0.2133
   66SAPC   H5Y 5504   5.185   2.545   4.811 -0.5490 -0.3288  0.3340
   66SAPC   C36 5505   5.244   2.617   5.008  0.0395  0.3495 -0.2698
   66SAPC   H6X 5506   5.149   2.571   5.042 -0.3519  1.4987  0.2308
   66SAPC   H6Y 5507   5.235   2.728   5.003 -0.1391  0.2987 -2.9772
   66SAPC   C37 5508   5.354   2.604   5.111 -0.6951  0.1755 -0.3248
   66SAPC   H7X 5509   5.448   2.661   5.095 -0.2885 -0.5496 -0.5756
   66SAPC   H7Y 5510   5.387   2.500   5.132  1.6363  1.0511  0.7178
   66SAPC   C38 5511   5.306   2.657   5.253 -0.9693  0.6372  0.0644
   66SAPC   H8X 5512   5.244   2.576   5.297 -1.3734  0.1448 -1.3524
   66SAPC   H8Y 5513   5.248   2.747   5.221  0.7278  1.4891 -0.7285
   66SAPC   C39 5514   5.422   2.698   5.343 -0.1059  0.1054 -0.7125
   66SAPC   H9X 5515   5.509   2.736   5.286  0.2905 -1.4467 -1.1850
   66SAPC   H9Y 5516   5.461   2.606   5.391  0.8037  1.2463  0.7894
   66SAPC  C310 5517   5.388   2.784   5.462  0.5796  0.2508  0.0977
   66SAPC  H10X 5518   5.360   2.885   5.425 -1.1943  0.2199  1.2222
   66SAPC  H10Y 5519   5.482   2.794   5.520  2.5506  0.6122 -2.9671
   66SAPC  C311 5520   5.263   2.728   5.529 -0.7465 -1.5395  0.4561
   66SAPC  H11X 5521   5.277   2.619   5.544 -0.1370 -1.0874  4.1292
   66SAPC  H11Y 5522   5.167   2.746   5.475 -0.1860  2.3512  0.4581
   66SAPC  C312 5523   5.227   2.781   5.664  0.2005 -0.0802 -0.3793
   66SAPC  H12X 5524   5.120   2.755   5.674  0.1547  0.5361  1.1222
   66SAPC  H12Y 5525   5.231   2.892   5.658 -1.9501  0.1056  0.8887
   66SAPC  C313 5526   5.306   2.715   5.771 -0.1038 -0.3516 -0.4531
   66SAPC  H13X 5527   5.336   2.617   5.728 -2.7390 -0.5641 -1.9646
   66SAPC  H13Y 5528   5.243   2.693   5.859  1.0605 -0.7317  0.3151
   66SAPC  C314 5529   5.436   2.786   5.816  0.0493  0.1355  0.7168
   66SAPC  H14X 5530   5.522   2.802   5.748  0.4681  1.2272  1.4732
   66SAPC  H14Y 5531   5.486   2.721   5.892  0.9462 -1.7589 -1.3913
   66SAPC  C315 5532   5.419   2.928   5.866 -0.2206  0.0799  0.2865
   66SAPC  H15X 5533   5.338   2.938   5.942  0.0330 -1.7156  0.8392
   66SAPC  H15Y 5534   5.385   3.005   5.793 -0.1219 -0.7050 -0.6018
   66SAPC  C316 5535   5.555   2.982   5.931 -0.2197 -0.1331 -0.0797
   66SAPC  H16X 5536   5.644   2.979   5.865 -0.7632  2.9917 -1.1125
   66SAPC  H16Y 5537   5.581   2.913   6.014  0.9808  1.9455  1.3634
   66SAPC  C317 5538   5.546   3.127   5.966  0.3435 -0.4679 -0.3627
   66SAPC  H17X 5539   5.451   3.132   6.023 -0.1106 -0.7830 -1.0805
   66SAPC  H17Y 5540   5.543   3.194   5.877 -0.7359  2.4536  1.7303
   66SAPC  C318 5541   5.671   3.158   6.046  0.3807 -0.0345  0.2402
   66SAPC  H18X 5542   5.655   3.250   6.107 -2.0838 -2.4094  3.5389
   66SAPC  H18Y 5543   5.761   3.181   5.985 -0.5055  1.2771 -0.6245
   66SAPC  H18Z 5544   5.703   3.087   6.125  2.2388  0.6616  0.1637
   67SAPC     N 5545   0.114   2.500   3.878  0.1463  0.3177 -0.4584
   67SAPC   C12 5546   0.081   2.479   4.030 -0.1867 -0.0843 -0.7548
   67SAPC  H12A 5547   0.161   2.427   4.082 -0.6126  1.0785  1.1355
   67SAPC  H12B 5548   0.004   2.403   4.028  1.9390 -2.3679 -1.7366
   67SAPC   C13 5549   0.216   2.602   3.867 -0.5428 -0.0662 -0.5265
   67SAPC  H13A 5550   0.260   2.608   3.768 -0.3935 -0.3765 -0.4796
   67SAPC  H13B 5551   0.174   2.695   3.901 -1.6804 -0.1546 -1.5917
   67SAPC  H13C 5552   0.297   2.592   3.938 -0.9625  1.0886  0.1363
   67SAPC   C14 5553   0.177   2.370   3.829 -0.2530  0.3661  0.3073
   67SAPC  H14A 5554   0.268   2.358   3.886 -1.2272  0.8681  2.0509
   67SAPC  H14B 5555   0.114   2.282   3.831  3.1910 -2.6520 -4.1629
   67SAPC  H14C 5556   0.212   2.374   3.727 -0.4424  1.7651  0.2776
   67SAPC   C15 5557  -0.002   2.538   3.792 -0.1585  0.6682  0.2539
   67SAPC  H15A 5558  -0.059   2.448   3.775  1.9700 -0.7365  0.1143
   67SAPC  H15B 5559  -0.062   2.614   3.840 -2.2857 -0.0427 -1.1261
   67SAPC  H15C 5560   0.028   2.584   3.699 -0.2136  0.5194  0.1617
   67SAPC   C11 5561   0.047   2.603   4.118 -0.7895 -0.3537 -0.0910
   67SAPC  H11A 5562   0.143   2.657   4.131 -1.6597  1.1967  0.2848
   67SAPC  H11B 5563   0.016   2.565   4.217 -0.9545 -0.0358 -0.0167
   67SAPC     P 5564  -0.203   2.677   4.053 -0.1697 -0.3996 -0.1681
   67SAPC   O13 5565  -0.267   2.783   3.970  0.9759 -0.2478 -0.2454
   67SAPC   O14 5566  -0.241   2.538   4.020 -0.2567  0.7238 -0.4412
   67SAPC   O12 5567  -0.042   2.691   4.050  0.2859  0.4328 -0.0027
   67SAPC   O11 5568  -0.239   2.698   4.201 -0.0574 -0.1871 -0.0655
   67SAPC    C1 5569  -0.249   2.834   4.252 -0.0341  0.3874 -0.1129
   67SAPC    HA 5570  -0.317   2.896   4.188 -1.5280  0.4991  1.5028
   67SAPC    HB 5571  -0.294   2.820   4.353  0.0473 -2.7248 -0.4103
   67SAPC    C2 5572  -0.114   2.911   4.262 -0.3036  0.8839 -0.0605
   67SAPC    HS 5573  -0.066   2.888   4.164 -0.1058 -1.2310  0.4713
   67SAPC   O21 5574  -0.051   2.860   4.382  0.2445 -0.6602  0.5832
   67SAPC   C21 5575   0.079   2.874   4.375  0.2611  0.1407  0.3711
   67SAPC   O22 5576   0.141   2.913   4.275 -0.1199  0.0651  0.0489
   67SAPC   C22 5577   0.142   2.831   4.503 -0.6784  0.6312 -0.0873
   67SAPC   H2R 5578   0.123   2.905   4.584 -0.9459  0.1905  0.2544
   67SAPC   H2S 5579   0.089   2.741   4.539 -0.6056  1.0727  1.1816
   67SAPC    C3 5580  -0.134   3.069   4.273 -0.5670 -0.0855 -0.4397
   67SAPC    HX 5581  -0.188   3.105   4.183 -2.7358 -3.2965 -0.5589
   67SAPC    HY 5582  -0.032   3.113   4.271 -0.8536  0.5840 -0.5723
   67SAPC   O31 5583  -0.189   3.121   4.398 -0.1167 -0.0781 -0.5675
   67SAPC   C31 5584  -0.321   3.140   4.397  0.3388 -0.2073  0.2343
   67SAPC   O32 5585  -0.397   3.095   4.304 -0.1201 -0.7886 -0.7727
   67SAPC   C32 5586  -0.375   3.218   4.516  0.0450 -0.2155  0.2708
   67SAPC   H2X 5587  -0.473   3.176   4.546  0.2987 -0.9433  0.0971
   67SAPC   H2Y 5588  -0.384   3.323   4.481 -0.2919 -0.5014 -0.5323
   67SAPC   C23 5589   0.294   2.806   4.492 -0.8647  0.5357 -0.2468
   67SAPC   H3R 5590   0.334   2.818   4.594  1.4565  0.0357 -1.0462
   67SAPC   H3S 5591   0.344   2.890   4.439  0.8807  0.2631  0.9116
   67SAPC   C24 5592   0.334   2.670   4.436 -0.2407  0.2021 -0.3632
   67SAPC   H4R 5593   0.281   2.652   4.340  2.4767 -2.6879 -1.4822
   67SAPC   H4S 5594   0.295   2.599   4.512  0.5347  1.6568  1.4686
   67SAPC   C25 5595   0.484   2.660   4.408  0.3231 -0.0236  0.1908
   67SAPC   H5R 5596   0.509   2.724   4.322  1.7649  1.5184  1.6693
   67SAPC   C26 5597   0.568   2.597   4.494  0.2556 -0.4432 -0.2575
   67SAPC   H6R 5598   0.670   2.604   4.453 -0.6720  0.8261 -2.5776
   67SAPC   C27 5599   0.537   2.521   4.618  0.6028 -0.6258 -0.1200
   67SAPC   H7R 5600   0.433   2.485   4.610  0.5116 -0.4532  0.2321
   67SAPC   H7S 5601   0.538   2.590   4.706 -0.0231 -0.6996 -0.0538
   67SAPC   C28 5602   0.645   2.411   4.638  0.0179  0.1367  0.7338
   67SAPC   H8R 5603   0.740   2.428   4.584  0.4322  2.2781  2.0187
   67SAPC   C29 5604   0.637   2.314   4.730 -0.0463  0.1004 -0.8190
   67SAPC   H9R 5605   0.718   2.242   4.751 -0.5729 -0.5705 -1.0346
   67SAPC  C210 5606   0.520   2.299   4.827 -0.0588  0.3167 -0.0949
   67SAPC  H10R 5607   0.432   2.357   4.791 -0.1251 -0.4506 -1.2172
   67SAPC  H10S 5608   0.551   2.342   4.924  0.1288 -1.4087  0.6354
   67SAPC  C211 5609   0.478   2.153   4.843 -0.2717 -0.2712  0.4264
   67SAPC  H11R 5610   0.452   2.096   4.753  2.9919 -0.7596 -0.3133
   67SAPC  C212 5611   0.466   2.088   4.958 -0.1208  0.2124 -0.6822
   67SAPC  H12R 5612   0.444   1.981   4.944 -2.9290  0.4593  1.1596
   67SAPC  C213 5613   0.488   2.144   5.096 -0.3439  0.3376  0.2646
   67SAPC  H13R 5614   0.449   2.248   5.100 -2.3774 -0.3904  0.4948
   67SAPC  H13S 5615   0.594   2.135   5.130 -0.6927  1.6748  1.8644
   67SAPC  C214 5616   0.397   2.067   5.195 -0.2277 -0.2138 -0.4872
   67SAPC  H14R 5617   0.330   1.993   5.148 -0.7213  1.5665 -2.8145
   67SAPC  C215 5618   0.407   2.074   5.329  0.4946  0.4338 -0.0067
   67SAPC  H15R 5619   0.332   2.023   5.391  0.5716 -1.0011 -1.0430
   67SAPC  C216 5620   0.494   2.168   5.410 -0.2677 -0.0007  0.0311
   67SAPC  H16R 5621   0.441   2.216   5.495 -1.7381 -2.1625  0.4120
   67SAPC  H16S 5622   0.529   2.256   5.352  2.5588  0.4289  2.1806
   67SAPC  C217 5623   0.624   2.121   5.469  0.3663  0.0460 -0.2333
   67SAPC  H17R 5624   0.666   2.211   5.519 -0.0995  0.1924 -0.0989
   67SAPC  H17S 5625   0.684   2.076   5.387 -0.3169  0.7505 -1.1352
   67SAPC  C218 5626   0.603   2.012   5.586  0.4073 -0.0494  0.0573
   67SAPC  H18R 5627   0.572   1.920   5.531  0.3638  1.7233 -3.1110
   67SAPC  H18S 5628   0.516   2.054   5.640 -0.0611  1.5130 -1.7891
   67SAPC  C219 5629   0.728   1.997   5.675  0.4613 -0.0113 -0.5221
   67SAPC  H19R 5630   0.768   2.091   5.719  2.3601 -1.8492  1.9018
   67SAPC  H19S 5631   0.807   1.955   5.609  3.0780 -0.3696  2.5821
   67SAPC  C220 5632   0.717   1.899   5.789  0.1216 -0.2578 -0.2346
   67SAPC  H20R 5633   0.662   1.806   5.764  0.6038 -0.3532 -0.9987
   67SAPC  H20S 5634   0.666   1.942   5.877 -0.6854 -1.9236  0.1468
   67SAPC  H20T 5635   0.818   1.861   5.815 -0.6999 -1.5943  1.1328
   67SAPC   C33 5636  -0.277   3.229   4.635  0.0400 -0.1288  0.1087
   67SAPC   H3X 5637  -0.178   3.261   4.596 -0.2305 -1.2911 -1.6381
   67SAPC   H3Y 5638  -0.258   3.124   4.667  0.4877 -0.4193 -1.0508
   67SAPC   C34 5639  -0.325   3.326   4.743 -0.4871 -0.0664  0.3971
   67SAPC   H4X 5640  -0.418   3.283   4.783 -0.4590  0.4097  0.9889
   67SAPC   H4Y 5641  -0.348   3.425   4.697  0.4969  0.0742  0.1680
   67SAPC   C35 5642  -0.225   3.356   4.855 -0.2082  0.6027 -0.5990
   67SAPC   H5X 5643  -0.131   3.372   4.799  0.2667  1.1451  0.3240
   67SAPC   H5Y 5644  -0.223   3.266   4.921 -1.8156  0.9134 -0.0733
   67SAPC   C36 5645  -0.248   3.486   4.937 -0.1472 -0.0732  0.0887
   67SAPC   H6X 5646  -0.348   3.468   4.983 -0.2053 -0.0432 -0.0266
   67SAPC   H6Y 5647  -0.258   3.577   4.873 -0.6977  1.1241  1.7945
   67SAPC   C37 5648  -0.147   3.510   5.046 -0.4821  0.0602 -0.5801
   67SAPC   H7X 5649  -0.043   3.519   5.008  0.1322 -0.0698  1.0043
   67SAPC   H7Y 5650  -0.145   3.415   5.104  1.2525 -0.1571 -0.9444
   67SAPC   C38 5651  -0.178   3.618   5.147  0.0925 -0.5724 -0.2394
   67SAPC   H8X 5652  -0.270   3.589   5.202  0.7139 -0.2190  1.0393
   67SAPC   H8Y 5653  -0.190   3.713   5.091 -2.3875 -0.6607  0.0270
   67SAPC   C39 5654  -0.065   3.640   5.242  0.1607  0.7217  0.5924
   67SAPC   H9X 5655   0.002   3.714   5.196  1.4666 -0.2892  0.8150
   67SAPC   H9Y 5656  -0.020   3.540   5.261 -1.9168  0.0985  2.7741
   67SAPC  C310 5657  -0.105   3.698   5.372  0.1948 -0.1254 -0.3394
   67SAPC  H10X 5658  -0.107   3.809   5.372 -0.4872 -0.1156  1.1352
   67SAPC  H10Y 5659  -0.017   3.673   5.434  0.5163 -0.9999 -1.1260
   67SAPC  C311 5660  -0.235   3.643   5.436 -0.5451  0.0441  1.4976
   67SAPC  H11X 5661  -0.230   3.532   5.432  0.3506  0.1120  0.3405
   67SAPC  H11Y 5662  -0.327   3.673   5.382 -0.1090 -0.9587  0.1284
   67SAPC  C312 5663  -0.251   3.673   5.582  0.2895 -0.5976 -0.7666
   67SAPC  H12X 5664  -0.245   3.783   5.602 -1.0080 -0.8735  1.4734
   67SAPC  H12Y 5665  -0.161   3.644   5.640  0.4680  2.8991  1.0063
   67SAPC  C313 5666  -0.379   3.625   5.642  0.6494  0.0149 -0.3262
   67SAPC  H13X 5667  -0.361   3.516   5.637 -1.2488 -0.3539  0.1167
   67SAPC  H13Y 5668  -0.467   3.662   5.585  1.0703 -1.1408 -1.7929
   67SAPC  C314 5669  -0.389   3.674   5.788  0.4474  0.0968 -0.5323
   67SAPC  H14X 5670  -0.289   3.655   5.833  0.1392  1.5167  0.8211
   67SAPC  H14Y 5671  -0.464   3.611   5.839 -0.2680  2.0292  0.9211
   67SAPC  C315 5672  -0.435   3.816   5.808  0.0972 -0.5620 -0.6398
   67SAPC  H15X 5673  -0.532   3.835   5.757  0.1197  3.0721  0.4162
   67SAPC  H15Y 5674  -0.363   3.888   5.765 -0.0844  1.4934  2.2236
   67SAPC  C316 5675  -0.478   3.866   5.948  0.2432 -0.6620 -0.1812
   67SAPC  H16X 5676  -0.498   3.974   5.933 -0.8935 -0.2934  3.2078
   67SAPC  H16Y 5677  -0.386   3.868   6.011  0.9517 -0.5956 -1.1902
   67SAPC  C317 5678  -0.603   3.790   6.008 -0.0415 -0.5440  0.0555
   67SAPC  H17X 5679  -0.563   3.686   6.004  1.1382 -0.0815 -2.6258
   67SAPC  H17Y 5680  -0.686   3.799   5.935  1.3324 -0.4913 -1.5631
   67SAPC  C318 5681  -0.642   3.831   6.152  0.1718  0.6160  0.1814
   67SAPC  H18X 5682  -0.648   3.940   6.132  1.0330  0.4843 -0.8265
   67SAPC  H18Y 5683  -0.585   3.809   6.245 -2.0452 -1.9580  1.0884
   67SAPC  H18Z 5684  -0.747   3.800   6.170  0.4578 -0.7911 -0.4567
   68SAPC     N 5685   0.975   2.542   3.726  0.0318 -0.1282 -0.0156
   68SAPC   C12 5686   0.911   2.676   3.751  0.0651 -0.6106 -0.1242
   68SAPC  H12A 5687   0.816   2.665   3.801 -0.9021 -0.5374 -1.8541
   68SAPC  H12B 5688   0.887   2.729   3.659  0.4375  3.4518  1.9071
   68SAPC   C13 5689   0.876   2.453   3.658 -0.0930 -0.0174 -0.1946
   68SAPC  H13A 5690   0.775   2.460   3.697  0.2796 -2.4340  1.4329
   68SAPC  H13B 5691   0.888   2.483   3.555  1.4753 -0.9302 -0.3195
   68SAPC  H13C 5692   0.904   2.348   3.658  3.7116  0.8094 -2.6281
   68SAPC   C14 5693   1.092   2.562   3.639 -0.7030 -0.0685 -0.3246
   68SAPC  H14A 5694   1.062   2.601   3.543 -0.7834  1.1870  0.1903
   68SAPC  H14B 5695   1.170   2.626   3.679  0.8090 -0.4107 -2.5100
   68SAPC  H14C 5696   1.141   2.467   3.620  1.4549  0.8823  0.0877
   68SAPC   C15 5697   1.021   2.476   3.852 -0.1886 -0.0269  0.4272
   68SAPC  H15A 5698   0.945   2.429   3.913 -1.8161  0.4244 -1.1592
   68SAPC  H15B 5699   1.092   2.395   3.840  1.3445  1.3254  0.1612
   68SAPC  H15C 5700   1.083   2.546   3.906  0.4612 -0.3621  0.1277
   68SAPC   C11 5701   0.976   2.793   3.827 -0.0951 -0.0673  0.7119
   68SAPC  H11A 5702   0.998   2.760   3.931 -0.6721 -0.3511  0.7486
   68SAPC  H11B 5703   0.901   2.874   3.841 -0.5089  0.4671 -3.2997
   68SAPC     P 5704   1.109   2.944   3.659 -0.1912 -0.3326 -0.2547
   68SAPC   O13 5705   1.236   2.921   3.588  0.2017  0.2282 -0.0012
   68SAPC   O14 5706   0.993   2.944   3.573  0.0337 -0.0061 -0.4292
   68SAPC   O12 5707   1.098   2.833   3.770  0.1440  0.2076 -0.6709
   68SAPC   O11 5708   1.116   3.080   3.738 -0.5858 -0.4481 -0.3289
   68SAPC    C1 5709   1.230   3.135   3.804  0.5916  0.1617 -0.3540
   68SAPC    HA 5710   1.323   3.121   3.745  1.3109  0.2983  0.7073
   68SAPC    HB 5711   1.211   3.244   3.810 -1.9171 -0.2890  1.2443
   68SAPC    C2 5712   1.260   3.085   3.944  0.0367  0.5591  0.1725
   68SAPC    HS 5713   1.289   2.980   3.923  0.3469  0.2270  2.0904
   68SAPC   O21 5714   1.147   3.104   4.028  0.1883 -0.0164  0.1346
   68SAPC   C21 5715   1.107   2.992   4.084 -0.4331 -0.3525  0.2579
   68SAPC   O22 5716   1.170   2.887   4.095  0.2248  0.0059  0.0890
   68SAPC   C22 5717   0.965   3.017   4.113  0.7460  0.2706 -0.2027
   68SAPC   H2R 5718   0.956   3.119   4.157  1.8609 -0.3085  1.5034
   68SAPC   H2S 5719   0.901   2.997   4.025  0.3822  1.0680 -0.1247
   68SAPC    C3 5720   1.387   3.161   3.999  0.0762  0.4704  0.8259
   68SAPC    HX 5721   1.370   3.270   4.002  0.7794  0.8584 -3.2305
   68SAPC    HY 5722   1.471   3.158   3.926  0.3210  0.7124  1.0940
   68SAPC   O31 5723   1.427   3.117   4.126 -0.3977  1.3273 -0.3151
   68SAPC   C31 5724   1.489   2.997   4.127 -0.5948 -0.7507  0.0752
   68SAPC   O32 5725   1.536   2.943   4.029  0.4815 -0.2158  0.7104
   68SAPC   C32 5726   1.510   2.964   4.268 -0.2330  0.3564  0.7562
   68SAPC   H2X 5727   1.560   3.046   4.324  1.1087  1.3646 -1.7790
   68SAPC   H2Y 5728   1.561   2.866   4.282 -1.8220 -0.4667  1.0440
   68SAPC   C23 5729   0.915   2.922   4.221  1.1721 -0.1412  0.0181
   68SAPC   H3R 5730   0.975   2.942   4.313  1.9885 -2.5737  0.0947
   68SAPC   H3S 5731   0.938   2.823   4.176 -3.8162 -1.8422  0.5379
   68SAPC   C24 5732   0.770   2.940   4.266  0.0635 -0.0031 -0.4559
   68SAPC   H4R 5733   0.738   2.862   4.338 -1.7010  2.2296  1.3319
   68SAPC   H4S 5734   0.712   2.917   4.175 -0.2423 -3.2102  0.4279
   68SAPC   C25 5735   0.721   3.065   4.326  0.0707  0.4430  0.1692
   68SAPC   H5R 5736   0.728   3.154   4.262  0.9631  0.9184  0.9001
   68SAPC   C26 5737   0.678   3.078   4.448 -0.2650 -0.4329 -0.7877
   68SAPC   H6R 5738   0.650   3.182   4.471  0.9021 -0.0173 -1.1873
   68SAPC   C27 5739   0.652   2.971   4.549 -0.5850  0.1649 -0.9901
   68SAPC   H7R 5740   0.590   2.894   4.498 -0.6535 -0.2837 -0.2521
   68SAPC   H7S 5741   0.584   3.012   4.627  0.5824 -0.4671  0.3956
   68SAPC   C28 5742   0.764   2.901   4.625 -0.1288 -0.3878 -0.1941
   68SAPC   H8R 5743   0.850   2.870   4.564  0.1905 -1.4190  0.7635
   68SAPC   C29 5744   0.772   2.871   4.756  0.5281 -0.2470 -0.4581
   68SAPC   H9R 5745   0.858   2.822   4.804 -0.9053 -1.6002  0.8504
   68SAPC  C210 5746   0.663   2.906   4.857  0.1780  0.0653 -0.7490
   68SAPC  H10R 5747   0.615   3.000   4.825  0.6656  1.0293  1.1786
   68SAPC  H10S 5748   0.711   2.940   4.952 -1.0121  1.3421 -0.5661
   68SAPC  C211 5749   0.550   2.817   4.902  1.1767 -0.6336  0.3977
   68SAPC  H11R 5750   0.463   2.823   4.835  1.0248 -1.0949  0.5456
   68SAPC  C212 5751   0.540   2.746   5.017 -0.0523  0.2335  0.7085
   68SAPC  H12R 5752   0.453   2.683   5.037 -1.1358  1.4389 -0.0530
   68SAPC  C213 5753   0.645   2.746   5.130  0.4484  0.2536 -0.4675
   68SAPC  H13R 5754   0.596   2.723   5.227  0.6205 -0.9027 -0.6393
   68SAPC  H13S 5755   0.685   2.846   5.157 -1.0954  0.3861  1.4808
   68SAPC  C214 5756   0.767   2.647   5.112  0.1983 -0.0862  0.1395
   68SAPC  H14R 5757   0.768   2.603   5.011 -0.2578 -0.2221  0.1887
   68SAPC  C215 5758   0.856   2.612   5.200  0.7791 -0.6884 -0.1488
   68SAPC  H15R 5759   0.930   2.538   5.168  0.3802 -1.2335  0.1719
   68SAPC  C216 5760   0.872   2.670   5.341  0.0427 -0.2916 -0.5173
   68SAPC  H16R 5761   0.832   2.774   5.347 -0.5767 -0.4323 -1.8298
   68SAPC  H16S 5762   0.977   2.689   5.371  0.2319  1.5062 -2.1733
   68SAPC  C217 5763   0.787   2.583   5.446 -0.3090  0.1863  0.0250
   68SAPC  H17R 5764   0.685   2.576   5.403 -0.0142 -0.6161 -0.5788
   68SAPC  H17S 5765   0.786   2.648   5.535  0.7430  0.6544 -0.2912
   68SAPC  C218 5766   0.833   2.435   5.475 -0.6171 -0.9519 -0.6398
   68SAPC  H18R 5767   0.827   2.378   5.380 -2.2077  0.1352 -1.2346
   68SAPC  H18S 5768   0.755   2.404   5.548  0.3913  2.2089  2.0684
   68SAPC  C219 5769   0.965   2.422   5.549 -0.1984  0.3018 -0.0212
   68SAPC  H19R 5770   0.956   2.485   5.640  2.2012 -1.7603  1.8077
   68SAPC  H19S 5771   1.049   2.465   5.491  0.2616  2.7056  2.2115
   68SAPC  C220 5772   0.990   2.277   5.598  0.1327 -0.1648 -0.1019
   68SAPC  H20R 5773   1.097   2.262   5.623 -0.3838 -0.7730  1.9271
   68SAPC  H20S 5774   0.968   2.202   5.519  0.9505 -0.2442 -0.2621
   68SAPC  H20T 5775   0.930   2.259   5.690  1.0810  1.2561  0.8318
   68SAPC   C33 5776   1.369   2.936   4.344 -0.8002  0.3013  0.8047
   68SAPC   H3X 5777   1.341   2.835   4.308  0.1931 -0.1074  1.1543
   68SAPC   H3Y 5778   1.299   3.014   4.307 -0.7886  0.2548  0.6850
   68SAPC   C34 5779   1.374   2.937   4.495 -0.0822  0.1306  0.1836
   68SAPC   H4X 5780   1.429   3.030   4.520 -0.5239  0.7274 -1.0103
   68SAPC   H4Y 5781   1.436   2.852   4.532  2.6599  2.1077  0.3918
   68SAPC   C35 5782   1.243   2.935   4.577  0.3595  0.3427  0.3692
   68SAPC   H5X 5783   1.202   2.833   4.564 -0.9087  1.0611 -1.8426
   68SAPC   H5Y 5784   1.167   2.990   4.516 -1.2347 -1.8942  0.2160
   68SAPC   C36 5785   1.243   2.992   4.721  0.4821  0.1981 -0.0217
   68SAPC   H6X 5786   1.309   3.081   4.720  3.1681 -1.6470  1.3385
   68SAPC   H6Y 5787   1.309   2.927   4.781  1.8235  2.3741  0.9810
   68SAPC   C37 5788   1.111   3.024   4.787 -0.1129 -0.3687  1.0434
   68SAPC   H7X 5789   1.050   2.931   4.780 -1.3630  0.5499 -0.9756
   68SAPC   H7Y 5790   1.065   3.102   4.723  2.3321  0.2693 -0.0559
   68SAPC   C38 5791   1.120   3.088   4.929 -0.0080  0.1612 -0.3742
   68SAPC   H8X 5792   1.089   3.194   4.921 -0.1912  0.2557  1.2135
   68SAPC   H8Y 5793   1.229   3.076   4.946  0.1904  1.6721 -0.4778
   68SAPC   C39 5794   1.035   3.023   5.043 -0.0540  0.8359  0.2068
   68SAPC   H9X 5795   1.014   2.914   5.031 -0.5255  1.0216 -0.7594
   68SAPC   H9Y 5796   0.934   3.068   5.045  1.3731  4.3357 -0.4619
   68SAPC  C310 5797   1.104   3.051   5.172 -0.0467 -0.8384 -0.6940
   68SAPC  H10X 5798   1.122   3.161   5.180  1.0837 -1.1166  1.1035
   68SAPC  H10Y 5799   1.202   3.000   5.167 -0.2089 -1.1808 -0.3805
   68SAPC  C311 5800   1.019   2.993   5.286  0.5859  0.1640  0.9951
   68SAPC  H11X 5801   1.010   2.884   5.269  1.9290  0.3237 -1.0635
   68SAPC  H11Y 5802   0.922   3.047   5.280  0.1531 -0.6183  0.8476
   68SAPC  C312 5803   1.085   3.010   5.422  0.1490 -0.0208  0.3705
   68SAPC  H12X 5804   1.096   3.119   5.442  0.0661  0.0379  0.1070
   68SAPC  H12Y 5805   1.181   2.955   5.413 -0.4163 -0.9655  0.0089
   68SAPC  C313 5806   0.994   2.956   5.538 -0.4631  0.6944 -1.3915
   68SAPC  H13X 5807   0.994   2.846   5.521  1.2825  0.6196 -1.0758
   68SAPC  H13Y 5808   0.894   2.997   5.513 -0.6515 -1.0789 -4.0562
   68SAPC  C314 5809   1.046   2.983   5.682  0.0769  0.3394 -0.6487
   68SAPC  H14X 5810   1.041   3.089   5.717 -1.0523 -0.2313  1.0595
   68SAPC  H14Y 5811   1.154   2.959   5.689 -0.2456 -1.1023 -0.2522
   68SAPC  C315 5812   0.987   2.888   5.787  0.3937 -0.3925 -0.5212
   68SAPC  H15X 5813   1.018   2.785   5.759  0.0204 -0.9319  0.9479
   68SAPC  H15Y 5814   0.878   2.872   5.771  0.6924 -1.2419 -1.7659
   68SAPC  C316 5815   1.018   2.906   5.936 -0.3877  0.3958 -0.6241
   68SAPC  H16X 5816   0.941   2.847   5.989 -2.4643  1.9788 -1.7072
   68SAPC  H16Y 5817   0.983   3.009   5.956 -1.2406  0.3494 -1.7745
   68SAPC  C317 5818   1.163   2.888   5.972 -0.6579  0.3923  0.2815
   68SAPC  H17X 5819   1.224   2.968   5.923 -0.4064 -1.2469 -2.2498
   68SAPC  H17Y 5820   1.196   2.790   5.931  0.7044  1.0464 -0.2482
   68SAPC  C318 5821   1.186   2.878   6.122 -0.1188 -0.1973 -0.0830
   68SAPC  H18X 5822   1.289   2.838   6.137 -1.0057 -2.1983  1.0154
   68SAPC  H18Y 5823   1.115   2.810   6.174 -0.0820  0.2202  0.5168
   68SAPC  H18Z 5824   1.188   2.978   6.170  3.3466  0.5002 -1.3961
   69SAPC     N 5825   1.678   6.374   3.842  0.2241  0.4882  0.3023
   69SAPC   C12 5826   1.651   6.236   3.897 -0.0390 -0.4703 -0.4574
   69SAPC  H12A 5827   1.565   6.242   3.962  1.9527 -1.2048  2.4141
   69SAPC  H12B 5828   1.729   6.209   3.967  1.9076 -1.8761 -2.9703
   69SAPC   C13 5829   1.558   6.419   3.770  0.7448  0.1343  0.3302
   69SAPC  H13A 5830   1.508   6.327   3.743  0.6978  0.4479 -0.6618
   69SAPC  H13B 5831   1.489   6.464   3.840 -1.2751 -0.8879 -0.8858
   69SAPC  H13C 5832   1.575   6.480   3.683 -0.4126 -1.2964 -0.9710
   69SAPC   C14 5833   1.701   6.476   3.948  0.6016  0.2116 -0.2877
   69SAPC  H14A 5834   1.799   6.477   3.992 -0.7100  2.2029  2.9844
   69SAPC  H14B 5835   1.690   6.576   3.909 -2.2762  0.7745  1.5833
   69SAPC  H14C 5836   1.641   6.468   4.038  1.3179  0.5305  0.2225
   69SAPC   C15 5837   1.792   6.370   3.749 -0.0475  0.8878 -0.7897
   69SAPC  H15A 5838   1.809   6.463   3.696  0.4672  0.1543 -1.9395
   69SAPC  H15B 5839   1.886   6.346   3.796  0.6797  0.5567 -2.3654
   69SAPC  H15C 5840   1.772   6.299   3.670 -3.0991 -0.2554  0.8259
   69SAPC   C11 5841   1.625   6.119   3.796 -0.0406  0.4333 -0.1037
   69SAPC  H11A 5842   1.631   6.026   3.857 -0.2201  0.8765  0.6100
   69SAPC  H11B 5843   1.709   6.108   3.725  2.6230  1.2079  2.6816
   69SAPC     P 5844   1.360   6.105   3.788  0.2075 -0.4715 -0.1147
   69SAPC   O13 5845   1.256   6.210   3.765  0.6620  0.2071 -0.0226
   69SAPC   O14 5846   1.320   5.969   3.743 -0.5283 -0.3892  0.2813
   69SAPC   O12 5847   1.500   6.135   3.727 -0.5184 -0.0883  0.3700
   69SAPC   O11 5848   1.397   6.088   3.947  0.4330 -0.5403 -0.2929
   69SAPC    C1 5849   1.284   6.079   4.040  0.6852 -1.4356  0.2041
   69SAPC    HA 5850   1.275   6.165   4.110 -0.0968  0.0961 -1.6827
   69SAPC    HB 5851   1.188   6.084   3.984  1.9039  0.3703 -1.8481
   69SAPC    C2 5852   1.271   5.953   4.125 -0.4595  0.2103  0.7880
   69SAPC    HS 5853   1.243   5.865   4.063  1.7986 -1.3686  1.8815
   69SAPC   O21 5854   1.174   5.983   4.229  0.0972  0.3756  0.4567
   69SAPC   C21 5855   1.080   5.892   4.242  0.2217 -1.0285 -0.4165
   69SAPC   O22 5856   1.055   5.792   4.181 -0.4610  0.2444  0.0203
   69SAPC   C22 5857   0.984   5.947   4.354 -0.4345  0.8011 -0.0498
   69SAPC   H2R 5858   1.049   5.952   4.444  0.7126 -0.3166 -0.7839
   69SAPC   H2S 5859   0.941   6.046   4.330 -2.9065  0.1633  1.3776
   69SAPC    C3 5860   1.411   5.904   4.188  0.1277  0.1262 -0.2507
   69SAPC    HX 5861   1.469   5.991   4.225 -0.5491 -0.4878  2.4427
   69SAPC    HY 5862   1.459   5.858   4.099 -1.8262  3.1866 -3.1160
   69SAPC   O31 5863   1.400   5.820   4.302  0.6704  0.4261  0.4019
   69SAPC   C31 5864   1.380   5.688   4.280 -0.0963 -0.6858  0.0805
   69SAPC   O32 5865   1.385   5.633   4.174 -0.3378 -0.2947  0.3573
   69SAPC   C32 5866   1.350   5.616   4.417 -0.4469  0.2475 -0.8224
   69SAPC   H2X 5867   1.258   5.664   4.456  1.3137  2.5105  0.8733
   69SAPC   H2Y 5868   1.428   5.638   4.492 -0.5297  1.5181 -1.0814
   69SAPC   C23 5869   0.848   5.875   4.381 -0.0715 -0.3102 -1.0378
   69SAPC   H3R 5870   0.790   5.861   4.287 -2.0895  0.5992 -0.0085
   69SAPC   H3S 5871   0.794   5.933   4.460 -0.2255 -1.5488 -0.1950
   69SAPC   C24 5872   0.869   5.739   4.436  0.2890 -0.0909 -0.5096
   69SAPC   H4R 5873   0.944   5.742   4.518  2.1929  1.2684 -2.1734
   69SAPC   H4S 5874   0.911   5.670   4.359  0.6731 -0.2828 -0.1337
   69SAPC   C25 5875   0.736   5.678   4.478  0.4989  0.2588  0.1376
   69SAPC   H5R 5876   0.685   5.638   4.389 -1.3493  1.3823  0.6486
   69SAPC   C26 5877   0.690   5.663   4.606  0.1666  1.4457 -0.0697
   69SAPC   H6R 5878   0.588   5.626   4.621  0.4623 -0.4540 -2.2291
   69SAPC   C27 5879   0.764   5.719   4.726  0.0409 -0.3317 -0.2402
   69SAPC   H7R 5880   0.695   5.751   4.807  1.0130  0.5403  0.2586
   69SAPC   H7S 5881   0.813   5.817   4.708  2.2106 -1.3322 -0.0984
   69SAPC   C28 5882   0.876   5.638   4.782  0.4013  0.7302  0.5841
   69SAPC   H8R 5883   0.938   5.592   4.704  0.5945  1.5373  0.2493
   69SAPC   C29 5884   0.903   5.616   4.911 -0.1380 -0.1653  0.0492
   69SAPC   H9R 5885   0.983   5.545   4.935 -1.1200 -1.6192 -0.8211
   69SAPC  C210 5886   0.840   5.673   5.035 -0.8081 -0.4114  0.1511
   69SAPC  H10R 5887   0.746   5.620   5.063 -2.2970  2.7885  1.6627
   69SAPC  H10S 5888   0.821   5.780   5.016 -0.0195  0.0542  1.8080
   69SAPC  C211 5889   0.940   5.658   5.153  0.4898 -0.4542  0.4857
   69SAPC  H11R 5890   1.014   5.739   5.163  0.7012 -0.6726  0.6855
   69SAPC  C212 5891   0.968   5.565   5.248 -0.8387  0.5102 -0.1732
   69SAPC  H12R 5892   1.058   5.579   5.309 -1.4858 -1.9015  1.4544
   69SAPC  C213 5893   0.892   5.439   5.263  0.1735 -0.0347  0.6260
   69SAPC  H13R 5894   0.971   5.374   5.308  0.4739  0.4858  0.8639
   69SAPC  H13S 5895   0.858   5.413   5.161  0.9939  2.9894 -0.5154
   69SAPC  C214 5896   0.769   5.458   5.348 -0.3765 -0.7664 -0.0434
   69SAPC  H14R 5897   0.672   5.465   5.296 -0.9011 -2.6488  0.6031
   69SAPC  C215 5898   0.771   5.477   5.479  0.1970 -0.1026 -0.4397
   69SAPC  H15R 5899   0.677   5.501   5.530 -1.4131 -2.3591 -2.1433
   69SAPC  C216 5900   0.885   5.480   5.577 -0.6624  0.7428  0.5866
   69SAPC  H16R 5901   0.973   5.543   5.549 -0.5822  0.7160  0.7753
   69SAPC  H16S 5902   0.929   5.378   5.582 -1.6085  0.3870  2.2767
   69SAPC  C217 5903   0.831   5.517   5.710  0.0736  0.2942 -0.2593
   69SAPC  H17R 5904   0.749   5.451   5.746  2.1855 -2.6137 -0.3651
   69SAPC  H17S 5905   0.782   5.616   5.709 -2.1250 -0.7438 -0.6411
   69SAPC  C218 5906   0.937   5.539   5.814  0.2035  0.2820  0.2018
   69SAPC  H18R 5907   1.008   5.619   5.785  1.3601 -0.9182 -0.3784
   69SAPC  H18S 5908   0.998   5.446   5.822 -0.3558  0.0774  3.2800
   69SAPC  C219 5909   0.877   5.582   5.942  0.4374 -0.2788 -0.1632
   69SAPC  H19R 5910   0.945   5.561   6.027  0.8463  0.3423 -0.3275
   69SAPC  H19S 5911   0.775   5.550   5.971  0.8336 -0.6048  0.9173
   69SAPC  C220 5912   0.860   5.736   5.945  0.2185 -0.5790 -0.1478
   69SAPC  H20R 5913   0.962   5.778   5.949  0.0349 -0.1859  2.0695
   69SAPC  H20S 5914   0.814   5.777   6.038  1.4260 -0.7070  0.5292
   69SAPC  H20T 5915   0.809   5.781   5.857 -2.4428  0.7241  1.8949
   69SAPC   C33 5916   1.347   5.464   4.418  0.4550 -0.3090  0.3155
   69SAPC   H3X 5917   1.446   5.415   4.401  0.4284 -0.2336 -0.0754
   69SAPC   H3Y 5918   1.296   5.433   4.324 -0.6177  1.0985  0.4065
   69SAPC   C34 5919   1.279   5.396   4.533 -0.2579  0.9688  0.5318
   69SAPC   H4X 5920   1.289   5.287   4.514 -1.5290  1.1680 -1.6613
   69SAPC   H4Y 5921   1.169   5.409   4.531 -0.5783 -1.0672  1.9910
   69SAPC   C35 5922   1.336   5.428   4.670 -0.4349  0.2192 -0.4728
   69SAPC   H5X 5923   1.332   5.538   4.678 -1.3400  0.1396  0.2502
   69SAPC   H5Y 5924   1.443   5.399   4.678 -0.5118 -0.0490 -0.4088
   69SAPC   C36 5925   1.255   5.364   4.782 -0.3314  0.2072 -0.2798
   69SAPC   H6X 5926   1.239   5.256   4.764 -2.0977  0.2994  0.5318
   69SAPC   H6Y 5927   1.159   5.420   4.791 -0.2537  0.1728  1.0539
   69SAPC   C37 5928   1.327   5.387   4.915 -0.5842  0.2525 -0.5734
   69SAPC   H7X 5929   1.374   5.487   4.919 -0.5899  0.4649 -3.6226
   69SAPC   H7Y 5930   1.414   5.319   4.931 -0.1059  1.3038  1.8020
   69SAPC   C38 5931   1.230   5.382   5.032 -0.5630  0.0208 -0.3017
   69SAPC   H8X 5932   1.153   5.308   5.002 -1.4058  1.6783 -2.4745
   69SAPC   H8Y 5933   1.183   5.483   5.039  0.3069  0.4780 -0.8722
   69SAPC   C39 5934   1.314   5.344   5.155 -0.1433 -0.4709  0.4292
   69SAPC   H9X 5935   1.384   5.429   5.170 -0.9683  0.5517 -1.2161
   69SAPC   H9Y 5936   1.347   5.238   5.147 -1.7408 -0.9095 -0.9512
   69SAPC  C310 5937   1.243   5.340   5.298 -0.3111  0.1682  0.6461
   69SAPC  H10X 5938   1.165   5.262   5.307  0.5248 -0.6143  1.2743
   69SAPC  H10Y 5939   1.196   5.438   5.320  1.0881  1.1275 -0.4493
   69SAPC  C311 5940   1.333   5.319   5.416  0.1167  0.6334  0.7543
   69SAPC  H11X 5941   1.399   5.409   5.420  2.9772 -1.0654 -2.6974
   69SAPC  H11Y 5942   1.381   5.221   5.397 -1.0621  0.2924 -0.6019
   69SAPC  C312 5943   1.257   5.319   5.547 -0.5895 -0.4146  0.0260
   69SAPC  H12X 5944   1.169   5.253   5.529 -0.5071 -0.2665 -0.9314
   69SAPC  H12Y 5945   1.230   5.425   5.568  1.7656  0.1401  0.5005
   69SAPC  C313 5946   1.344   5.259   5.663  0.2464  0.3221  0.1796
   69SAPC  H13X 5947   1.436   5.321   5.673  0.7313 -0.3675  0.1168
   69SAPC  H13Y 5948   1.381   5.158   5.635 -0.2367 -0.4807  2.2824
   69SAPC  C314 5949   1.280   5.247   5.804  0.1087  0.1859 -0.5462
   69SAPC  H14X 5950   1.194   5.177   5.791  1.8093 -1.9498 -0.7921
   69SAPC  H14Y 5951   1.230   5.345   5.823  1.3090  0.9288 -1.0967
   69SAPC  C315 5952   1.368   5.191   5.923  0.4845 -0.1523  0.0164
   69SAPC  H15X 5953   1.436   5.270   5.959  0.0438 -0.3778  1.4483
   69SAPC  H15Y 5954   1.438   5.119   5.876  0.9790  0.7294 -0.5960
   69SAPC  C316 5955   1.287   5.130   6.043  0.7954 -0.7355  0.7367
   69SAPC  H16X 5956   1.236   5.039   6.002 -0.2646 -0.5543  1.5963
   69SAPC  H16Y 5957   1.211   5.203   6.079  0.5289 -0.6559  0.0459
   69SAPC  C317 5958   1.377   5.080   6.153 -0.1828  0.1743  0.4634
   69SAPC  H17X 5959   1.352   5.133   6.248 -3.2942  0.3728 -0.3673
   69SAPC  H17Y 5960   1.484   5.100   6.129 -0.1003 -0.5329  0.2133
   69SAPC  C318 5961   1.374   4.926   6.164  0.1128  0.5074 -0.2193
   69SAPC  H18X 5962   1.439   4.891   6.247  0.9986  1.2033 -0.6000
   69SAPC  H18Y 5963   1.397   4.883   6.065 -2.1285 -0.3296 -0.4292
   69SAPC  H18Z 5964   1.267   4.905   6.185  0.3973 -0.8042  0.0040
   70SAPC     N 5965   5.698   3.970   3.709 -0.0843  0.4133 -0.1182
   70SAPC   C12 5966   5.832   3.907   3.673  0.5728 -0.4911  0.2337
   70SAPC  H12A 5967   5.862   3.917   3.569 -0.3907 -0.4467 -0.0445
   70SAPC  H12B 5968   5.828   3.800   3.686  0.6338 -0.4836  0.3167
   70SAPC   C13 5969   5.591   3.891   3.637  0.5434 -0.4512  1.0322
   70SAPC  H13A 5970   5.590   3.916   3.532 -1.2852 -0.3586  1.0420
   70SAPC  H13B 5971   5.596   3.784   3.645 -1.1496 -0.5475  1.2939
   70SAPC  H13C 5972   5.491   3.931   3.650  0.1673 -0.8766 -0.3703
   70SAPC   C14 5973   5.661   3.949   3.864  0.3020 -0.2124  0.1448
   70SAPC  H14A 5974   5.705   4.020   3.932 -0.2762  0.9023 -0.6240
   70SAPC  H14B 5975   5.557   3.977   3.878  0.9151  1.9814  0.6144
   70SAPC  H14C 5976   5.681   3.851   3.906 -0.1282  0.1283  1.1704
   70SAPC   C15 5977   5.695   4.112   3.669 -0.0955 -0.6975 -0.0984
   70SAPC  H15A 5978   5.676   4.130   3.564 -0.8765 -1.2210 -0.0581
   70SAPC  H15B 5979   5.622   4.165   3.727  0.8111  1.9627 -1.2454
   70SAPC  H15C 5980   5.787   4.166   3.688 -0.5726  1.6551 -3.5855
   70SAPC   C11 5981   5.947   3.954   3.764 -0.1973 -0.1737 -0.2663
   70SAPC  H11A 5982   6.037   3.897   3.732  1.6485  2.3944  0.0952
   70SAPC  H11B 5983   5.943   3.927   3.872 -0.0807  0.6167 -0.0585
   70SAPC     P 5984   6.060   4.160   3.650 -0.3516  0.1065 -0.4337
   70SAPC   O13 5985   6.045   4.094   3.521 -0.1075  0.1133  0.2047
   70SAPC   O14 5986   6.025   4.304   3.650  0.2368 -0.3801  0.2682
   70SAPC   O12 5987   5.975   4.090   3.760 -0.3444  0.3779 -0.5968
   70SAPC   O11 5988   6.202   4.135   3.705  0.1578 -0.2350 -0.5542
   70SAPC    C1 5989   6.252   4.182   3.828 -0.9383 -0.3381 -0.4890
   70SAPC    HA 5990   6.356   4.218   3.813 -0.9705 -0.0805 -0.0988
   70SAPC    HB 5991   6.191   4.267   3.865  0.6342  0.5406  0.1585
   70SAPC    C2 5992   6.251   4.074   3.941 -0.4395 -0.0397  0.1382
   70SAPC    HS 5993   6.145   4.041   3.956 -0.8952  0.9347 -0.8831
   70SAPC   O21 5994   6.297   4.139   4.068 -0.2629  0.2899 -0.0893
   70SAPC   C21 5995   6.253   4.081   4.180  0.2173 -0.2140  0.8302
   70SAPC   O22 5996   6.204   3.969   4.187 -0.1347 -0.3768 -0.0225
   70SAPC   C22 5997   6.278   4.173   4.297  0.4513  0.4770 -0.0307
   70SAPC   H2R 5998   6.383   4.210   4.299  1.0092 -1.0652  1.0701
   70SAPC   H2S 5999   6.215   4.263   4.278 -0.1250  0.2206  0.6111
   70SAPC    C3 6000   6.332   3.949   3.899 -0.4805  0.0909  0.0295
   70SAPC    HX 6001   6.302   3.920   3.796 -0.0495  1.7135 -0.5785
   70SAPC    HY 6002   6.317   3.866   3.971 -1.4266 -0.5888 -0.9157
   70SAPC   O31 6003   6.475   3.987   3.889  0.1256 -0.4834 -0.3095
   70SAPC   C31 6004   6.534   4.000   4.003  0.5574  0.1468 -0.7584
   70SAPC   O32 6005   6.512   3.939   4.103 -0.6405  0.7238  0.2728
   70SAPC   C32 6006   6.659   4.091   3.991  0.0552 -0.6297 -0.3428
   70SAPC   H2X 6007   6.661   4.163   3.906 -0.9424 -0.8030 -0.5210
   70SAPC   H2Y 6008   6.755   4.035   3.984  2.0892  2.1411  2.4590
   70SAPC   C23 6009   6.233   4.093   4.427 -0.0443 -0.7468  0.5835
   70SAPC   H3R 6010   6.143   4.030   4.412 -0.7897  0.5180 -0.4659
   70SAPC   H3S 6011   6.214   4.177   4.498  1.4922  2.8060 -2.8641
   70SAPC   C24 6012   6.349   3.997   4.458 -0.1597  0.1036  0.1633
   70SAPC   H4R 6013   6.362   3.925   4.374  0.2248  0.2042  0.1365
   70SAPC   H4S 6014   6.313   3.934   4.542  1.9488  1.1037  1.9006
   70SAPC   C25 6015   6.479   4.053   4.481 -0.4219  0.0373 -0.1532
   70SAPC   H5R 6016   6.557   4.037   4.405  0.2260 -2.9185  0.9981
   70SAPC   C26 6017   6.518   4.105   4.594  0.1357  0.4087 -0.4354
   70SAPC   H6R 6018   6.617   4.153   4.597  1.7821 -2.6464 -1.8397
   70SAPC   C27 6019   6.437   4.120   4.723 -0.6519 -0.1403  0.4564
   70SAPC   H7R 6020   6.418   4.020   4.769  2.8850 -1.2483 -0.1653
   70SAPC   H7S 6021   6.338   4.168   4.710 -0.5041  0.1670  0.4668
   70SAPC   C28 6022   6.503   4.213   4.818  1.4846 -0.3979 -0.0761
   70SAPC   H8R 6023   6.468   4.317   4.831  0.4808 -0.4408 -2.0620
   70SAPC   C29 6024   6.615   4.193   4.892  0.2394 -0.6856  0.5480
   70SAPC   H9R 6025   6.660   4.272   4.955 -1.4070  2.6365 -2.0858
   70SAPC  C210 6026   6.690   4.068   4.894 -0.6045 -0.0938  0.4454
   70SAPC  H10R 6027   6.793   4.079   4.854  0.1935 -1.0255  2.0890
   70SAPC  H10S 6028   6.649   3.993   4.823 -1.1313  0.1711  0.4642
   70SAPC  C211 6029   6.691   4.018   5.035 -0.4677  0.3031 -0.6085
   70SAPC  H11R 6030   6.783   4.039   5.092  0.2337 -0.2730 -1.4851
   70SAPC  C212 6031   6.592   3.964   5.110 -0.0509 -0.7983 -0.1270
   70SAPC  H12R 6032   6.626   3.937   5.211 -0.1543  0.3428  0.2301
   70SAPC  C213 6033   6.445   3.937   5.079 -0.3364 -0.1508  0.6435
   70SAPC  H13R 6034   6.434   3.920   4.970  1.6359  2.0315  0.0453
   70SAPC  H13S 6035   6.379   4.023   5.103 -0.7339 -0.7201  1.7042
   70SAPC  C214 6036   6.399   3.811   5.155  0.2733  0.1377  0.3618
   70SAPC  H14R 6037   6.413   3.720   5.095  5.8038  1.2499 -0.5029
   70SAPC  C215 6038   6.343   3.802   5.278  0.0276 -0.3285 -0.2167
   70SAPC  H15R 6039   6.331   3.703   5.325  0.6152 -0.1653  0.2918
   70SAPC  C216 6040   6.326   3.911   5.375 -0.1196  0.7121  0.6693
   70SAPC  H16R 6041   6.357   4.011   5.337 -0.3089  0.2662 -0.6775
   70SAPC  H16S 6042   6.400   3.879   5.452 -0.9004 -3.0995 -0.0016
   70SAPC  C217 6043   6.185   3.910   5.434  0.2253 -0.6884  0.4889
   70SAPC  H17R 6044   6.161   3.970   5.524 -1.9516  1.1142 -1.1826
   70SAPC  H17S 6045   6.139   3.811   5.456 -1.9394  0.3678  0.8793
   70SAPC  C218 6046   6.083   3.962   5.324  0.8471  0.2932 -0.1639
   70SAPC  H18R 6047   6.078   3.882   5.247  0.0089 -0.4780  0.6831
   70SAPC  H18S 6048   6.127   4.054   5.279  0.0480  0.6459 -0.2377
   70SAPC  C219 6049   5.945   4.011   5.379 -0.2504  0.7555  0.0982
   70SAPC  H19R 6050   5.971   4.088   5.454  0.3033 -0.1552  0.8609
   70SAPC  H19S 6051   5.891   3.922   5.419  1.6799 -1.6993 -2.3795
   70SAPC  C220 6052   5.862   4.070   5.268  0.0836 -0.4158  0.2053
   70SAPC  H20R 6053   5.771   4.117   5.312  1.3757  2.3937  0.1310
   70SAPC  H20S 6054   5.848   3.990   5.193 -1.2416  1.0477 -1.1646
   70SAPC  H20T 6055   5.920   4.155   5.226 -0.7823 -0.8510 -1.9835
   70SAPC   C33 6056   6.666   4.180   4.118 -0.2648  0.0411  0.1937
   70SAPC   H3X 6057   6.662   4.115   4.208 -1.1437  0.0218  0.1461
   70SAPC   H3Y 6058   6.572   4.239   4.111 -0.6303 -0.5935 -0.3589
   70SAPC   C34 6059   6.780   4.285   4.129  0.0045  0.4604  0.2711
   70SAPC   H4X 6060   6.730   4.382   4.147 -1.9656 -0.8390  2.3798
   70SAPC   H4Y 6061   6.831   4.287   4.030  1.7212  0.3763  1.1158
   70SAPC   C35 6062   6.884   4.254   4.240  0.5256 -0.0614 -0.0983
   70SAPC   H5X 6063   6.980   4.302   4.212  0.6132 -0.7261 -0.9860
   70SAPC   H5Y 6064   6.901   4.144   4.233 -0.0129 -0.3520  2.3222
   70SAPC   C36 6065   6.845   4.295   4.381 -1.0225  0.4427  0.1265
   70SAPC   H6X 6066   6.743   4.263   4.409 -0.5707 -2.5388 -1.2469
   70SAPC   H6Y 6067   6.843   4.406   4.386 -3.2883  0.5026 -0.8579
   70SAPC   C37 6068   6.951   4.236   4.464  0.0436  0.3917  0.4193
   70SAPC   H7X 6069   6.947   4.125   4.462  1.9677  0.2670  1.3968
   70SAPC   H7Y 6070   7.051   4.268   4.430  1.2179 -0.7197  2.5775
   70SAPC   C38 6071   6.936   4.273   4.624 -0.2168 -0.3070  0.0319
   70SAPC   H8X 6072   6.836   4.254   4.667 -0.9837 -0.9546 -1.9359
   70SAPC   H8Y 6073   6.952   4.383   4.630  0.8291 -0.5318  2.4470
   70SAPC   C39 6074   7.036   4.202   4.709 -0.2976  1.0634 -1.3597
   70SAPC   H9X 6075   7.137   4.200   4.664  0.1628  2.8921 -0.5017
   70SAPC   H9Y 6076   7.008   4.096   4.722 -3.4123  1.7821 -1.4787
   70SAPC  C310 6077   7.055   4.256   4.853  0.6024  0.0135 -0.2500
   70SAPC  H10X 6078   6.959   4.258   4.908 -0.5320  0.5847 -2.1400
   70SAPC  H10Y 6079   7.099   4.358   4.849 -2.5643  1.5132  0.0277
   70SAPC  C311 6080   7.146   4.177   4.942 -0.5249  0.3238 -0.4830
   70SAPC  H11X 6081   7.242   4.146   4.895  0.8426  2.4575  0.7238
   70SAPC  H11Y 6082   7.104   4.081   4.979 -0.7952  0.6437  0.0499
   70SAPC  C312 6083   7.190   4.256   5.071 -0.1573  0.1571  0.0390
   70SAPC  H12X 6084   7.251   4.344   5.044  0.9644 -0.7154 -0.3449
   70SAPC  H12Y 6085   7.257   4.186   5.126  0.7541 -1.6953 -3.1749
   70SAPC  C313 6086   7.078   4.297   5.172 -0.2036 -1.1009  0.3766
   70SAPC  H13X 6087   7.008   4.356   5.109  1.4768  0.7518  0.1569
   70SAPC  H13Y 6088   7.125   4.369   5.241  1.1353  0.7500 -2.2683
   70SAPC  C314 6089   6.997   4.179   5.235  0.1414 -0.3554  0.1551
   70SAPC  H14X 6090   7.058   4.125   5.311 -0.3396 -1.1235  0.0090
   70SAPC  H14Y 6091   6.975   4.107   5.153  0.3762  1.7543 -1.8611
   70SAPC  C315 6092   6.865   4.233   5.302  0.5471 -0.4737  0.2610
   70SAPC  H15X 6093   6.780   4.231   5.230  0.6441  1.5901  0.0260
   70SAPC  H15Y 6094   6.885   4.327   5.358 -0.5816  1.0262 -1.7317
   70SAPC  C316 6095   6.815   4.133   5.408  0.9727 -0.7964  0.3751
   70SAPC  H16X 6096   6.905   4.105   5.467  0.1695 -1.6442  1.2370
   70SAPC  H16Y 6097   6.780   4.042   5.354  2.2601 -2.0027  1.4982
   70SAPC  C317 6098   6.706   4.193   5.497 -0.1081 -0.0796  0.9121
   70SAPC  H17X 6099   6.627   4.235   5.432  2.0582  0.2401 -1.6949
   70SAPC  H17Y 6100   6.746   4.275   5.560 -1.2885 -0.3022  1.9967
   70SAPC  C318 6101   6.650   4.083   5.583  0.6223  0.7741  0.1600
   70SAPC  H18X 6102   6.599   4.004   5.524 -1.5629 -0.6347  3.6056
   70SAPC  H18Y 6103   6.562   4.121   5.640 -0.2600 -1.5391  0.4174
   70SAPC  H18Z 6104   6.724   4.027   5.643  0.7198 -1.7862 -2.1729
   71SAPC     N 6105   1.964   1.475   3.530  0.5212  0.4309 -0.3004
   71SAPC   C12 6106   2.077   1.405   3.608 -0.2144 -0.0943  0.3852
   71SAPC  H12A 6107   2.111   1.466   3.691  1.1481  1.2553 -1.1102
   71SAPC  H12B 6108   2.157   1.394   3.537 -2.7650  1.7787 -3.1115
   71SAPC   C13 6109   1.837   1.467   3.608  0.0696 -0.2668  0.5406
   71SAPC  H13A 6110   1.743   1.498   3.565 -0.3789 -1.0745  0.9195
   71SAPC  H13B 6111   1.818   1.367   3.642 -2.3141  0.4689  1.5509
   71SAPC  H13C 6112   1.843   1.529   3.696 -3.4770  0.0501  0.6956
   71SAPC   C14 6113   1.996   1.624   3.524 -0.0321 -0.0118 -0.3189
   71SAPC  H14A 6114   1.978   1.668   3.620  0.5140 -2.1420  0.8268
   71SAPC  H14B 6115   2.100   1.645   3.506  0.5244 -1.3328  1.1700
   71SAPC  H14C 6116   1.948   1.675   3.442 -1.3339 -0.0686  0.3755
   71SAPC   C15 6117   1.947   1.410   3.392  0.7382 -0.6647 -0.9598
   71SAPC  H15A 6118   2.030   1.430   3.326  0.8589  0.0116 -0.6088
   71SAPC  H15B 6119   1.944   1.303   3.404 -0.4936 -0.5895 -0.5259
   71SAPC  H15C 6120   1.856   1.449   3.349  0.0695  1.0655  1.7882
   71SAPC   C11 6121   2.044   1.258   3.647 -0.7173 -0.4713  0.7791
   71SAPC  H11A 6122   2.141   1.210   3.672 -0.8829 -1.1103  0.2207
   71SAPC  H11B 6123   1.998   1.211   3.557 -0.0743  1.8583 -0.8774
   71SAPC     P 6124   1.980   1.186   3.897 -0.2302 -0.4085 -0.3741
   71SAPC   O13 6125   1.851   1.187   3.975 -0.0292 -0.2770 -0.4710
   71SAPC   O14 6126   2.054   1.058   3.888  1.1540 -0.8314  0.0147
   71SAPC   O12 6127   1.954   1.249   3.755  0.4320  0.2052  0.0649
   71SAPC   O11 6128   2.071   1.299   3.962 -0.3198 -0.1322  0.1977
   71SAPC    C1 6129   2.032   1.439   3.960  0.1824 -0.0284 -0.5032
   71SAPC    HA 6130   2.106   1.482   3.889  0.5459  0.4635  0.1691
   71SAPC    HB 6131   1.942   1.458   3.897  0.4616  1.1628 -0.5570
   71SAPC    C2 6132   2.049   1.514   4.095 -0.6538  0.5360  0.7051
   71SAPC    HS 6133   2.159   1.520   4.114 -0.5647  1.6561 -0.0340
   71SAPC   O21 6134   1.974   1.450   4.200  0.2561 -0.2371 -0.0752
   71SAPC   C21 6135   2.040   1.454   4.324  0.4612  0.7777  0.3244
   71SAPC   O22 6136   2.154   1.491   4.340  0.0791 -0.0894  0.2911
   71SAPC   C22 6137   1.949   1.379   4.427 -0.2027  0.1447  0.4987
   71SAPC   H2R 6138   1.845   1.416   4.440 -1.6335 -3.7014  1.4251
   71SAPC   H2S 6139   1.951   1.277   4.384  2.7771  0.3933 -0.1679
   71SAPC    C3 6140   2.007   1.660   4.082  0.1852 -0.1372  0.5515
   71SAPC    HX 6141   1.900   1.654   4.052 -0.0810 -2.1232  1.7672
   71SAPC    HY 6142   2.066   1.705   3.999  0.3068  0.5161  0.9816
   71SAPC   O31 6143   2.035   1.736   4.202 -0.2761  0.3863 -0.3541
   71SAPC   C31 6144   2.032   1.865   4.188 -0.5938 -0.3917 -0.6036
   71SAPC   O32 6145   1.992   1.933   4.095  1.0768 -0.1340  0.3474
   71SAPC   C32 6146   2.087   1.931   4.311 -0.1236  0.1258 -0.0498
   71SAPC   H2X 6147   2.041   2.032   4.301  0.7326  0.4198 -1.2929
   71SAPC   H2Y 6148   2.198   1.934   4.303  0.0185 -0.2405  1.5835
   71SAPC   C23 6149   2.013   1.375   4.566  0.0016  0.0097  0.2632
   71SAPC   H3R 6150   2.014   1.481   4.600  1.1144 -0.3945  1.6001
   71SAPC   H3S 6151   2.121   1.351   4.564  0.4627  1.9057  0.2190
   71SAPC   C24 6152   1.928   1.300   4.670 -0.1124  0.0702 -0.3958
   71SAPC   H4R 6153   1.908   1.198   4.631  2.3556 -0.0033 -1.6706
   71SAPC   H4S 6154   1.827   1.345   4.676  0.4325  1.3207 -0.3471
   71SAPC   C25 6155   1.988   1.287   4.812  0.1335  0.0709 -0.3783
   71SAPC   H5R 6156   2.067   1.211   4.825 -0.0469 -0.0217  0.2473
   71SAPC   C26 6157   1.969   1.368   4.920 -0.3048  0.7177 -0.1817
   71SAPC   H6R 6158   2.005   1.336   5.019  0.4531 -3.8136 -1.6652
   71SAPC   C27 6159   1.867   1.483   4.920  0.6732  0.8250 -0.6917
   71SAPC   H7R 6160   1.843   1.515   4.816 -0.0107 -2.7107 -1.7748
   71SAPC   H7S 6161   1.915   1.576   4.957  1.6119 -0.2540  0.9394
   71SAPC   C28 6162   1.737   1.457   4.994  0.3182  0.2116 -0.4434
   71SAPC   H8R 6163   1.646   1.444   4.932  1.0751  0.3503 -1.6163
   71SAPC   C29 6164   1.723   1.460   5.126 -0.2500 -0.0941 -0.0943
   71SAPC   H9R 6165   1.623   1.446   5.169 -0.7016  0.7569 -0.8248
   71SAPC  C210 6166   1.832   1.487   5.233  0.6148  0.4831  0.5817
   71SAPC  H10R 6167   1.795   1.580   5.282  0.7017  0.3745  0.8552
   71SAPC  H10S 6168   1.930   1.518   5.193  1.0391 -3.3477 -1.8291
   71SAPC  C211 6169   1.851   1.371   5.331  0.2485  0.1442 -0.3169
   71SAPC  H11R 6170   1.766   1.301   5.337 -0.3918  0.5583 -3.2266
   71SAPC  C212 6171   1.953   1.356   5.417  0.6928 -1.1730  0.4130
   71SAPC  H12R 6172   1.935   1.273   5.487 -3.4662  0.0775  1.1078
   71SAPC  C213 6173   2.070   1.446   5.430 -0.2050 -0.2380 -0.3229
   71SAPC  H13R 6174   2.071   1.489   5.533  1.1706 -0.1606 -0.3484
   71SAPC  H13S 6175   2.069   1.539   5.370  1.7769  0.8077  1.1275
   71SAPC  C214 6176   2.184   1.356   5.403  0.2576  0.4588  0.9630
   71SAPC  H14R 6177   2.165   1.286   5.321 -0.8308 -1.3891  2.7173
   71SAPC  C215 6178   2.296   1.329   5.474  0.1522  0.3029 -0.0183
   71SAPC  H15R 6179   2.361   1.252   5.429 -1.0435  0.6969 -2.6393
   71SAPC  C216 6180   2.337   1.403   5.593 -0.2350 -0.1366 -0.3646
   71SAPC  H16R 6181   2.288   1.503   5.601  1.4389  0.7482 -0.6365
   71SAPC  H16S 6182   2.447   1.419   5.594 -0.3922  1.0114  0.2153
   71SAPC  C217 6183   2.332   1.321   5.729 -0.0051 -0.3308 -0.1759
   71SAPC  H17R 6184   2.381   1.387   5.803 -2.4748  0.5852  0.7462
   71SAPC  H17S 6185   2.398   1.232   5.718  0.8055  0.4574 -2.0211
   71SAPC  C218 6186   2.193   1.292   5.792 -0.2402 -0.1078  0.3415
   71SAPC  H18R 6187   2.170   1.206   5.725 -0.6932  1.0583 -1.0255
   71SAPC  H18S 6188   2.121   1.376   5.783 -0.5956 -0.3953  0.4398
   71SAPC  C219 6189   2.197   1.235   5.938  0.2795  0.3891 -0.0058
   71SAPC  H19R 6190   2.218   1.320   6.007 -1.3762  0.0115  1.0103
   71SAPC  H19S 6191   2.273   1.154   5.940 -1.8123 -1.7297 -1.7423
   71SAPC  C220 6192   2.062   1.171   5.987 -0.0537 -0.7222 -0.2277
   71SAPC  H20R 6193   2.086   1.135   6.089  4.0520  1.6281 -0.1220
   71SAPC  H20S 6194   2.028   1.087   5.923 -0.7249  1.7686 -3.4461
   71SAPC  H20T 6195   1.987   1.252   6.003  1.8022  0.8286  1.1203
   71SAPC   C33 6196   2.061   1.864   4.444  0.1729 -0.1963  1.0920
   71SAPC   H3X 6197   2.111   1.766   4.457  1.7812  0.0354 -2.2411
   71SAPC   H3Y 6198   1.952   1.838   4.444  0.0574  0.0652 -1.4113
   71SAPC   C34 6199   2.105   1.958   4.560  0.1278  0.1871  1.3802
   71SAPC   H4X 6200   2.105   2.068   4.544  1.7076  0.4024  2.6514
   71SAPC   H4Y 6201   2.214   1.947   4.578  0.8968  4.1777  0.2231
   71SAPC   C35 6202   2.023   1.925   4.685  0.8134  0.5699  0.0225
   71SAPC   H5X 6203   2.000   1.816   4.692  0.0268  0.8085  1.6164
   71SAPC   H5Y 6204   1.925   1.976   4.679  0.8325  0.7741  1.1805
   71SAPC   C36 6205   2.073   1.986   4.812  0.5146  0.3096  0.0826
   71SAPC   H6X 6206   2.090   2.095   4.796  1.6374 -0.1551 -2.3402
   71SAPC   H6Y 6207   2.168   1.945   4.852 -0.1028 -1.0006  0.2797
   71SAPC   C37 6208   1.972   1.967   4.929  0.3705 -0.0039  0.9304
   71SAPC   H7X 6209   1.937   1.862   4.933 -1.4647  0.5599  0.6189
   71SAPC   H7Y 6210   1.880   2.025   4.904  1.1260  0.4100 -1.0464
   71SAPC   C38 6211   2.033   2.018   5.058  0.4449  0.2510 -0.4147
   71SAPC   H8X 6212   2.049   2.128   5.047 -0.6001  0.5202  0.5219
   71SAPC   H8Y 6213   2.129   1.964   5.071  0.6301  0.3653 -1.2353
   71SAPC   C39 6214   1.938   1.989   5.173  0.8381  0.1193  1.2132
   71SAPC   H9X 6215   1.876   1.898   5.157 -0.1047  0.9606 -0.1728
   71SAPC   H9Y 6216   1.876   2.080   5.189  0.1980 -0.3858  1.6690
   71SAPC  C310 6217   2.013   1.965   5.299  0.2165  0.5643 -0.6946
   71SAPC  H10X 6218   2.060   2.059   5.335  0.4999 -0.3027  1.3231
   71SAPC  H10Y 6219   2.097   1.894   5.281  1.0751  1.5188 -0.5147
   71SAPC  C311 6220   1.906   1.916   5.406  0.0352  0.1536 -0.0910
   71SAPC  H11X 6221   1.862   1.825   5.358  0.3367  0.8879 -1.8657
   71SAPC  H11Y 6222   1.824   1.989   5.418 -0.3584 -0.3383  0.2425
   71SAPC  C312 6223   1.974   1.882   5.547 -0.2637 -0.5762  0.4623
   71SAPC  H12X 6224   1.987   1.984   5.589 -0.4463 -0.4100  0.1180
   71SAPC  H12Y 6225   2.066   1.828   5.518  0.2300  0.7937 -0.6222
   71SAPC  C313 6226   1.885   1.791   5.643 -0.0950 -0.1284  0.8308
   71SAPC  H13X 6227   1.851   1.699   5.590 -0.6787  1.4666 -1.7345
   71SAPC  H13Y 6228   1.790   1.834   5.680  0.8951  2.8347  0.1650
   71SAPC  C314 6229   1.967   1.753   5.766 -0.7815  0.1985  0.1546
   71SAPC  H14X 6230   1.999   1.842   5.826  2.3103 -1.4858  1.2370
   71SAPC  H14Y 6231   2.055   1.692   5.736 -0.8435 -1.2777  2.6968
   71SAPC  C315 6232   1.884   1.661   5.857  0.3765  0.1728  0.2973
   71SAPC  H15X 6233   1.851   1.572   5.798  2.8009 -0.5560 -0.0754
   71SAPC  H15Y 6234   1.791   1.715   5.884 -0.2253 -0.0654 -1.1816
   71SAPC  C316 6235   1.961   1.602   5.977 -0.3591  0.0082 -0.2279
   71SAPC  H16X 6236   2.061   1.574   5.937 -0.7504  0.2445 -1.4142
   71SAPC  H16Y 6237   1.904   1.513   6.010  1.7963 -1.6518 -0.7841
   71SAPC  C317 6238   1.980   1.701   6.090 -0.1512  0.4005  0.1429
   71SAPC  H17X 6239   1.889   1.740   6.142 -1.0529 -0.1604 -0.9534
   71SAPC  H17Y 6240   2.044   1.783   6.051  0.3200 -0.1339 -0.2220
   71SAPC  C318 6241   2.073   1.637   6.200 -0.0843  0.1583  0.3713
   71SAPC  H18X 6242   2.091   1.712   6.280 -0.6709  0.5256  0.1630
   71SAPC  H18Y 6243   2.171   1.606   6.156 -0.0433  2.7719 -1.6378
   71SAPC  H18Z 6244   2.012   1.561   6.252 -2.4556  1.0642 -0.9285
   72SAPC     N 6245   1.859   0.279   3.516  0.2314  0.1383 -0.0514
   72SAPC   C12 6246   1.800   0.266   3.660  0.7907  0.7224  0.5389
   72SAPC  H12A 6247   1.844   0.182   3.711 -4.2960 -2.8570 -0.1835
   72SAPC  H12B 6248   1.695   0.239   3.657  0.8442  0.6033 -1.5995
   72SAPC   C13 6249   2.005   0.297   3.536  0.1166 -0.1951  0.0727
   72SAPC  H13A 6250   2.056   0.214   3.582  0.7395  1.1144  1.9008
   72SAPC  H13B 6251   2.054   0.311   3.441  1.3385  3.3074  1.0246
   72SAPC  H13C 6252   2.021   0.382   3.601  1.2137  1.2807 -2.0146
   72SAPC   C14 6253   1.830   0.160   3.435 -0.6509 -0.6634 -0.3151
   72SAPC  H14A 6254   1.850   0.073   3.496  0.0396 -0.5571 -0.3805
   72SAPC  H14B 6255   1.725   0.165   3.412 -0.2948 -0.1053 -1.9513
   72SAPC  H14C 6256   1.894   0.156   3.349  0.6508  5.3722 -0.0610
   72SAPC   C15 6257   1.806   0.400   3.445  0.3337  0.5294  0.3359
   72SAPC  H15A 6258   1.855   0.491   3.475  1.1884  0.8877 -1.9651
   72SAPC  H15B 6259   1.825   0.398   3.339 -0.2239 -1.6503  0.2134
   72SAPC  H15C 6260   1.705   0.425   3.472 -0.8387 -2.1627 -1.1297
   72SAPC   C11 6261   1.804   0.392   3.755 -0.0958 -0.6099  0.8825
   72SAPC  H11A 6262   1.908   0.433   3.754  0.5769 -2.2064 -1.7209
   72SAPC  H11B 6263   1.786   0.365   3.862  1.6394  0.6191  1.5440
   72SAPC     P 6264   1.584   0.528   3.772  0.1160 -0.0806  0.1326
   72SAPC   O13 6265   1.535   0.663   3.731  0.6192  0.1504 -0.3316
   72SAPC   O14 6266   1.488   0.418   3.746 -0.0998  0.1828  0.2412
   72SAPC   O12 6267   1.718   0.491   3.706  0.1795  0.0860 -0.0757
   72SAPC   O11 6268   1.615   0.539   3.921 -0.4529  0.0632 -0.4712
   72SAPC    C1 6269   1.712   0.635   3.965 -0.0350 -0.7724 -0.0606
   72SAPC    HA 6270   1.816   0.618   3.929  0.9476  0.6043  1.9834
   72SAPC    HB 6271   1.683   0.736   3.929  1.2562 -0.7513 -1.1113
   72SAPC    C2 6272   1.712   0.637   4.119  1.0316  1.1150  0.1959
   72SAPC    HS 6273   1.608   0.649   4.156  1.0086  0.0358  0.5062
   72SAPC   O21 6274   1.792   0.741   4.172  0.0375 -0.3381 -0.1111
   72SAPC   C21 6275   1.731   0.859   4.168  0.2271  0.9925 -0.7657
   72SAPC   O22 6276   1.617   0.873   4.128 -0.2552 -0.1171  0.1255
   72SAPC   C22 6277   1.810   0.956   4.250 -0.7723 -0.2379 -0.2941
   72SAPC   H2R 6278   1.908   0.969   4.200  0.7409 -3.7400  1.3802
   72SAPC   H2S 6279   1.758   1.053   4.235  1.5041  0.9849 -0.7252
   72SAPC    C3 6280   1.754   0.500   4.168  0.2080 -0.0402  0.0011
   72SAPC    HX 6281   1.863   0.492   4.147  0.1660  0.6933 -0.5194
   72SAPC    HY 6282   1.702   0.421   4.109  1.9303 -0.9124 -0.4298
   72SAPC   O31 6283   1.725   0.495   4.309  0.3121 -0.3404  0.7301
   72SAPC   C31 6284   1.733   0.376   4.369 -0.3979  0.0263 -0.5875
   72SAPC   O32 6285   1.778   0.275   4.325 -0.0200 -0.6543  0.3947
   72SAPC   C32 6286   1.691   0.393   4.514  0.0845  0.7145 -0.8533
   72SAPC   H2X 6287   1.588   0.433   4.511 -0.1232  0.5639  1.6113
   72SAPC   H2Y 6288   1.755   0.474   4.556  0.9261  0.5661 -1.8106
   72SAPC   C23 6289   1.809   0.927   4.398 -0.1210  0.2834  1.1213
   72SAPC   H3R 6290   1.872   1.008   4.440  1.3475  0.2239 -0.8122
   72SAPC   H3S 6291   1.865   0.835   4.424  1.3469  0.8115 -0.0053
   72SAPC   C24 6292   1.674   0.925   4.467 -0.4387  0.0186  0.3760
   72SAPC   H4R 6293   1.626   0.829   4.436  1.0062 -0.3303 -0.8379
   72SAPC   H4S 6294   1.621   1.013   4.426 -1.6185 -0.7799  0.1315
   72SAPC   C25 6295   1.703   0.946   4.617  0.4410  0.1950  0.4295
   72SAPC   H5R 6296   1.761   1.036   4.640  0.6515 -0.2589  1.7473
   72SAPC   C26 6297   1.660   0.871   4.717 -0.4512 -0.7302 -0.0259
   72SAPC   H6R 6298   1.675   0.908   4.820  0.0720  0.3933 -0.4888
   72SAPC   C27 6299   1.581   0.744   4.709  0.1260  0.2319  0.1003
   72SAPC   H7R 6300   1.594   0.697   4.609 -1.6891  0.1359 -0.1315
   72SAPC   H7S 6301   1.476   0.778   4.722  0.0069 -0.5479  1.2939
   72SAPC   C28 6302   1.622   0.648   4.814 -1.0538 -0.1412  0.0119
   72SAPC   H8R 6303   1.691   0.569   4.779 -1.0901  0.7241 -2.1596
   72SAPC   C29 6304   1.570   0.638   4.938 -0.0321  0.3722  0.2012
   72SAPC   H9R 6305   1.599   0.549   4.997  0.1912 -0.5350 -1.2213
   72SAPC  C210 6306   1.475   0.739   5.000  0.3963 -0.7176 -0.2566
   72SAPC  H10R 6307   1.436   0.821   4.936 -0.0843 -0.4627  0.3451
   72SAPC  H10S 6308   1.541   0.791   5.072 -0.3255  0.8194 -0.6651
   72SAPC  C211 6309   1.352   0.688   5.072 -0.4797  0.0875 -0.0364
   72SAPC  H11R 6310   1.256   0.677   5.019 -0.7680  0.1934  0.4641
   72SAPC  C212 6311   1.326   0.697   5.205 -0.3437  0.0344  0.3254
   72SAPC  H12R 6312   1.226   0.668   5.243 -0.3050  1.9206  1.9901
   72SAPC  C213 6313   1.426   0.730   5.312 -0.0471  0.0965  0.0052
   72SAPC  H13R 6314   1.359   0.765   5.394 -4.0088  1.9018 -3.5953
   72SAPC  H13S 6315   1.495   0.810   5.280  0.5997  0.1213  1.3741
   72SAPC  C214 6316   1.506   0.616   5.368  0.0058  0.3725 -0.5471
   72SAPC  H14R 6317   1.480   0.519   5.322  0.3356 -0.2866  0.6120
   72SAPC  C215 6318   1.590   0.628   5.473  0.1565  0.0254  0.3828
   72SAPC  H15R 6319   1.626   0.535   5.519 -1.2734 -0.4747  0.5495
   72SAPC  C216 6320   1.610   0.753   5.554  0.4865 -0.8755 -0.2634
   72SAPC  H16R 6321   1.521   0.818   5.567  0.2323 -1.5246  1.4963
   72SAPC  H16S 6322   1.686   0.819   5.506 -0.0521 -1.2300 -1.6651
   72SAPC  C217 6323   1.671   0.744   5.695  0.1731  1.3331 -0.3624
   72SAPC  H17R 6324   1.770   0.695   5.686  0.1867  0.6310  2.5567
   72SAPC  H17S 6325   1.607   0.667   5.742  2.6354 -0.9178 -0.4873
   72SAPC  C218 6326   1.685   0.873   5.785  0.2175  0.1331 -0.2389
   72SAPC  H18R 6327   1.739   0.856   5.881  1.9897 -0.7757 -1.3446
   72SAPC  H18S 6328   1.580   0.899   5.812  0.1252 -0.6508  0.1939
   72SAPC  C219 6329   1.740   0.995   5.715  0.1592  0.8724 -0.1698
   72SAPC  H19R 6330   1.726   1.080   5.784  1.8217  0.6927  0.4113
   72SAPC  H19S 6331   1.678   1.019   5.625  1.1571  2.8676 -0.3840
   72SAPC  C220 6332   1.892   0.989   5.686 -0.1181  0.5379  0.1487
   72SAPC  H20R 6333   1.902   0.922   5.598  1.0035 -0.0251  0.6896
   72SAPC  H20S 6334   1.949   0.940   5.768  2.7699  1.1594 -1.3359
   72SAPC  H20T 6335   1.927   1.087   5.647  2.3890 -0.2277  0.2879
   72SAPC   C33 6336   1.684   0.266   4.603  0.3790  0.3211 -0.6221
   72SAPC   H3X 6337   1.783   0.216   4.610  1.1302  1.6425 -1.4855
   72SAPC   H3Y 6338   1.610   0.198   4.555  0.8682 -1.2728  0.8072
   72SAPC   C34 6339   1.618   0.299   4.741 -0.1511 -0.0197  0.1297
   72SAPC   H4X 6340   1.539   0.376   4.731  0.3087  0.4302 -0.0730
   72SAPC   H4Y 6341   1.700   0.352   4.793  1.3314 -2.9074  0.9451
   72SAPC   C35 6342   1.574   0.161   4.805 -0.1506 -0.3869  0.8625
   72SAPC   H5X 6343   1.649   0.082   4.825 -1.3565 -2.1082 -0.9052
   72SAPC   H5Y 6344   1.504   0.108   4.736  1.3753 -1.5689  0.1669
   72SAPC   C36 6345   1.492   0.179   4.930  0.5406 -0.2733 -0.0716
   72SAPC   H6X 6346   1.400   0.240   4.915 -1.1965 -2.5949  0.6492
   72SAPC   H6Y 6347   1.555   0.245   4.993 -0.9305  0.7363  0.4137
   72SAPC   C37 6348   1.445   0.059   4.996  0.0866  0.2002 -0.7208
   72SAPC   H7X 6349   1.530  -0.011   4.996  1.9092  2.2953 -1.2519
   72SAPC   H7Y 6350   1.367   0.018   4.928 -0.0152  1.4689 -1.4075
   72SAPC   C38 6351   1.388   0.074   5.139 -0.3855  0.1275 -0.0523
   72SAPC   H8X 6352   1.282   0.106   5.137 -0.5418 -0.4147 -0.6629
   72SAPC   H8Y 6353   1.451   0.153   5.184 -1.4724  0.7123  0.4820
   72SAPC   C39 6354   1.411  -0.045   5.232 -0.5067 -0.2850 -0.2632
   72SAPC   H9X 6355   1.507  -0.087   5.195  0.8572  2.0010  0.4568
   72SAPC   H9Y 6356   1.337  -0.126   5.214  0.1317 -1.2025  1.0456
   72SAPC  C310 6357   1.405  -0.000   5.383  0.1155  0.2146  0.4006
   72SAPC  H10X 6358   1.411  -0.094   5.443  1.8235  0.2294  0.2902
   72SAPC  H10Y 6359   1.316   0.065   5.394  0.1364  0.6917 -1.8895
   72SAPC  C311 6360   1.535   0.068   5.427  0.0677 -0.0522  0.4500
   72SAPC  H11X 6361   1.557   0.167   5.382 -2.1333  1.6625  2.8300
   72SAPC  H11Y 6362   1.607  -0.012   5.402  0.5970  0.6625 -0.3802
   72SAPC  C312 6363   1.550   0.101   5.577  0.4748 -0.2306 -0.4341
   72SAPC  H12X 6364   1.653   0.140   5.588  0.0942  1.0092 -1.0217
   72SAPC  H12Y 6365   1.531   0.012   5.640  1.6391 -0.4894 -0.4285
   72SAPC  C313 6366   1.471   0.221   5.616  0.2320  1.0370 -0.1595
   72SAPC  H13X 6367   1.371   0.183   5.648  0.3153 -1.5307 -2.5353
   72SAPC  H13Y 6368   1.455   0.286   5.527  0.4429 -0.3303 -1.2253
   72SAPC  C314 6369   1.514   0.303   5.736  0.0606  0.7829 -0.7195
   72SAPC  H14X 6370   1.438   0.378   5.766  0.1521  0.9885 -0.9908
   72SAPC  H14Y 6371   1.610   0.345   5.698  0.3460 -0.3133 -1.2798
   72SAPC  C315 6372   1.559   0.210   5.855 -0.2266  0.1039 -0.1031
   72SAPC  H15X 6373   1.636   0.139   5.819 -0.5941 -0.0987 -0.5088
   72SAPC  H15Y 6374   1.470   0.159   5.897  0.0018  0.0477  0.3126
   72SAPC  C316 6375   1.616   0.296   5.967 -0.5154  0.9846 -0.3641
   72SAPC  H16X 6376   1.537   0.368   5.996 -0.4839  0.5286  0.9419
   72SAPC  H16Y 6377   1.709   0.344   5.929  1.1685 -1.7059  0.0458
   72SAPC  C317 6378   1.659   0.216   6.093 -0.8666  0.7750  0.5531
   72SAPC  H17X 6379   1.715   0.125   6.062 -0.2003  1.9310 -1.9213
   72SAPC  H17Y 6380   1.564   0.173   6.129 -1.1930 -0.8365 -1.9870
   72SAPC  C318 6381   1.716   0.302   6.203 -0.0064 -0.4285  0.0661
   72SAPC  H18X 6382   1.716   0.243   6.298  1.5521  2.7013  2.2159
   72SAPC  H18Y 6383   1.656   0.392   6.225  2.0072  0.5016  2.1887
   72SAPC  H18Z 6384   1.821   0.336   6.189  0.4059 -1.3259  0.8262
   73SLPC     N 6385   3.728   6.043   8.288 -0.2202 -0.5008  0.5104
   73SLPC   C13 6386   3.593   5.981   8.307 -0.3379  0.4678 -0.4203
   73SLPC  H13A 6387   3.553   5.945   8.213  0.9183 -1.4501 -0.2734
   73SLPC  H13B 6388   3.600   5.894   8.370  1.0803  0.3686 -0.6908
   73SLPC  H13C 6389   3.526   6.054   8.349 -3.6868 -3.2445  1.3109
   73SLPC   C14 6390   3.782   6.070   8.425  0.4572  0.0822 -0.7837
   73SLPC  H14A 6391   3.773   5.979   8.482 -3.1598  0.5545 -0.3705
   73SLPC  H14B 6392   3.884   6.101   8.411  0.3473 -0.3151 -2.6312
   73SLPC  H14C 6393   3.721   6.147   8.470 -1.0771 -2.5372  1.9553
   73SLPC   C15 6394   3.713   6.172   8.213 -0.8899  1.0972  0.2991
   73SLPC  H15A 6395   3.807   6.226   8.216 -1.3985  1.9934  0.5706
   73SLPC  H15B 6396   3.691   6.161   8.107  0.4847  4.9539 -0.5672
   73SLPC  H15C 6397   3.640   6.240   8.253 -0.9779  0.4023  1.3492
   73SLPC   C12 6398   3.823   5.952   8.215 -0.7546  0.0666  0.2523
   73SLPC  H12A 6399   3.831   5.868   8.282  1.4929  2.0387  2.6894
   73SLPC  H12B 6400   3.917   6.005   8.210 -0.2332 -0.7813  0.8640
   73SLPC   C11 6401   3.792   5.901   8.077  0.0229 -0.4464  0.3429
   73SLPC  H11A 6402   3.886   5.849   8.049 -0.9160 -1.2816 -1.4462
   73SLPC  H11B 6403   3.771   5.977   7.999 -0.1487 -0.6986  0.1433
   73SLPC     P 6404   3.709   5.664   8.156  0.1787 -0.2534  0.0052
   73SLPC   O13 6405   3.760   5.669   8.290 -0.0608  0.1417 -0.4716
   73SLPC   O14 6406   3.594   5.578   8.135 -0.2565  0.1033  0.0249
   73SLPC   O12 6407   3.687   5.807   8.082  0.4490  0.3139  0.3229
   73SLPC   O11 6408   3.823   5.609   8.067  0.1533 -0.2050  0.1302
   73SLPC    C1 6409   3.794   5.587   7.929  0.0120 -0.1629  0.1826
   73SLPC    HA 6410   3.771   5.479   7.919  1.2094 -0.4314  0.2253
   73SLPC    HB 6411   3.706   5.644   7.891 -0.0257  1.4151  2.4261
   73SLPC    C2 6412   3.914   5.616   7.847 -0.9053 -0.3069  0.1461
   73SLPC    HS 6413   3.941   5.721   7.873  0.0605 -0.7963  1.2425
   73SLPC   O21 6414   3.878   5.598   7.711 -0.7562  0.1996  0.6798
   73SLPC   C21 6415   3.970   5.649   7.622  0.0376 -0.1578  0.4850
   73SLPC   O22 6416   4.059   5.727   7.647 -0.1049 -0.9562 -0.9272
   73SLPC   C22 6417   3.946   5.589   7.478  0.0543 -0.1965  0.2393
   73SLPC   H2R 6418   3.963   5.479   7.480  0.4742 -0.1990 -1.5803
   73SLPC   H2S 6419   3.851   5.618   7.429  0.2621 -1.7750 -1.2144
   73SLPC    C3 6420   4.044   5.537   7.884 -0.3230 -0.1084 -0.3206
   73SLPC    HX 6421   4.057   5.543   7.994  0.0529 -1.7667 -0.2526
   73SLPC    HY 6422   4.134   5.576   7.831 -0.3072 -1.6793 -1.5216
   73SLPC   O31 6423   4.026   5.395   7.861 -0.3750 -0.0803  0.3902
   73SLPC   C31 6424   4.093   5.347   7.756 -0.1331  0.3866 -0.5044
   73SLPC   O32 6425   4.149   5.417   7.678  0.1441 -0.4301  0.4982
   73SLPC   C32 6426   4.086   5.193   7.748 -0.3556 -0.5474  0.5375
   73SLPC   H2X 6427   3.976   5.176   7.752 -0.4937  0.3180  0.6178
   73SLPC   H2Y 6428   4.137   5.151   7.837  1.8427 -1.6630 -1.1416
   73SLPC   C23 6429   4.050   5.653   7.377  0.4463  0.5629  0.4707
   73SLPC   H3R 6430   4.153   5.631   7.411  1.6647 -1.5496 -3.8753
   73SLPC   H3S 6431   4.029   5.762   7.374 -0.5218  0.4173  1.4811
   73SLPC   C24 6432   4.039   5.597   7.234 -0.0855 -0.0631  0.5184
   73SLPC   H4R 6433   3.946   5.635   7.187  0.7629  1.4548 -0.0347
   73SLPC   H4S 6434   4.040   5.486   7.236  3.3855 -0.1441  0.6002
   73SLPC   C25 6435   4.154   5.642   7.144 -0.4810 -0.7008  0.5878
   73SLPC   H5R 6436   4.258   5.639   7.183  0.5204 -1.4296 -1.9465
   73SLPC   H5S 6437   4.146   5.750   7.117 -0.3713 -0.0536  2.9206
   73SLPC   C26 6438   4.173   5.555   7.020  0.3084 -0.1777  0.1574
   73SLPC   H6R 6439   4.083   5.565   6.956 -0.0619  0.5170  0.7772
   73SLPC   H6S 6440   4.180   5.446   7.042 -1.1762 -0.3088  0.1069
   73SLPC   C27 6441   4.297   5.592   6.940  0.4583  0.1952 -0.2912
   73SLPC   H7R 6442   4.395   5.594   6.992  0.8688  2.6227 -1.0026
   73SLPC   H7S 6443   4.289   5.701   6.921 -0.0088  0.1247 -0.5197
   73SLPC   C28 6444   4.303   5.527   6.802  0.3298  0.0394  0.5589
   73SLPC   H8R 6445   4.221   5.564   6.737  1.3211  0.6886 -0.3359
   73SLPC   H8S 6446   4.298   5.417   6.816  1.8460  0.0893  1.7300
   73SLPC   C29 6447   4.428   5.548   6.727 -0.0761 -0.2309  0.1535
   73SLPC   H9R 6448   4.513   5.488   6.764  0.1063  0.4094  0.7941
   73SLPC  C210 6449   4.445   5.631   6.614  0.1649  0.5268  0.6204
   73SLPC  H10R 6450   4.540   5.647   6.561 -0.3096  0.5197 -0.2410
   73SLPC  C211 6451   4.334   5.711   6.550  0.2798  0.3569 -0.1128
   73SLPC  H11R 6452   4.380   5.804   6.511  1.9235 -1.5176 -3.0499
   73SLPC  H11S 6453   4.261   5.740   6.629 -0.0678 -0.1605 -0.2382
   73SLPC  C212 6454   4.263   5.633   6.441 -0.7648  0.0882  0.1060
   73SLPC  H12R 6455   4.259   5.523   6.440 -1.0812  0.0748  1.6116
   73SLPC  C213 6456   4.176   5.692   6.356  0.1302 -0.7451 -0.4462
   73SLPC  H13R 6457   4.153   5.633   6.266  0.5367 -0.2228 -0.9011
   73SLPC  C214 6458   4.136   5.835   6.344  0.3487 -0.0141 -0.2298
   73SLPC  H14R 6459   4.206   5.894   6.407 -0.2840  1.6880 -1.0679
   73SLPC  H14S 6460   4.036   5.853   6.390  2.0558  1.8904  3.1414
   73SLPC  C215 6461   4.132   5.892   6.202 -0.1922 -0.3642 -0.4143
   73SLPC  H15R 6462   4.045   5.856   6.144 -0.1174  0.7312 -1.2381
   73SLPC  H15S 6463   4.220   5.852   6.147  0.9537  0.9163  0.4377
   73SLPC  C216 6464   4.119   6.046   6.217  0.3645 -0.2203  0.0045
   73SLPC  H16R 6465   4.212   6.096   6.250 -0.4467  1.9494 -0.7953
   73SLPC  H16S 6466   4.044   6.076   6.294 -0.2955  0.8395 -1.0124
   73SLPC  C217 6467   4.092   6.121   6.087 -0.9769 -0.9340  0.4594
   73SLPC  H17R 6468   4.085   6.228   6.115  1.1678 -0.7296  0.3734
   73SLPC  H17S 6469   3.997   6.087   6.039 -2.2220  1.7381  0.8335
   73SLPC  C218 6470   4.212   6.112   5.988  0.2538  0.0734  0.5493
   73SLPC  H18R 6471   4.241   6.006   5.976  3.7208  0.8338  1.1637
   73SLPC  H18S 6472   4.295   6.177   6.021 -0.3655  1.5013 -0.5592
   73SLPC  H18T 6473   4.177   6.155   5.891 -1.1903 -1.2956  0.4164
   73SLPC   C33 6474   4.149   5.134   7.620 -0.4468 -0.0634  0.5307
   73SLPC   H3X 6475   4.161   5.027   7.647 -0.4881 -0.3106 -0.3787
   73SLPC   H3Y 6476   4.253   5.166   7.596  0.2669 -1.5210  1.5336
   73SLPC   C34 6477   4.064   5.157   7.494 -0.5717 -0.3088 -0.9811
   73SLPC   H4X 6478   4.052   5.266   7.474 -0.8698 -0.1433  0.0385
   73SLPC   H4Y 6479   3.967   5.104   7.509  0.6497 -2.1095  1.2810
   73SLPC   C35 6480   4.137   5.113   7.364  0.4449 -0.1248 -0.8210
   73SLPC   H5X 6481   4.168   5.007   7.366  0.0341 -0.2454  1.6261
   73SLPC   H5Y 6482   4.230   5.174   7.358  0.6963 -0.6142 -2.2387
   73SLPC   C36 6483   4.051   5.143   7.240 -0.4035 -0.3296  0.3957
   73SLPC   H6X 6484   4.050   5.247   7.202  0.0609 -0.7172 -0.6986
   73SLPC   H6Y 6485   3.949   5.103   7.260 -1.4017  1.4850 -0.8348
   73SLPC   C37 6486   4.115   5.074   7.123 -0.3560  0.2030 -0.2456
   73SLPC   H7X 6487   4.129   4.967   7.153 -1.2745  0.5737  1.6871
   73SLPC   H7Y 6488   4.209   5.129   7.102  0.9316 -1.8710 -0.1816
   73SLPC   C38 6489   4.033   5.089   6.998  0.0503 -0.3363 -0.0342
   73SLPC   H8X 6490   4.041   5.194   6.964  2.4633 -0.6548 -0.6218
   73SLPC   H8Y 6491   3.933   5.054   7.029  0.3222 -2.3603 -1.2562
   73SLPC   C39 6492   4.091   4.997   6.890  0.8156  0.2428  0.0831
   73SLPC   H9X 6493   4.084   4.898   6.939  1.7853  0.3027  0.3785
   73SLPC   H9Y 6494   4.197   5.027   6.872  0.9931 -0.9516 -1.0273
   73SLPC  C310 6495   4.009   4.987   6.756  0.5453 -0.5972 -0.1539
   73SLPC  H10X 6496   3.915   4.929   6.774  0.5482 -0.1531  1.4605
   73SLPC  H10Y 6497   4.071   4.927   6.685  1.2258 -0.2649  0.1560
   73SLPC  C311 6498   3.976   5.126   6.692  1.0433  0.9483  0.0287
   73SLPC  H11X 6499   4.069   5.171   6.652  1.8760 -1.7559 -1.2990
   73SLPC  H11Y 6500   3.922   5.191   6.764 -2.0889 -2.4355  1.0245
   73SLPC  C312 6501   3.883   5.113   6.569  0.5906  0.4074  0.2888
   73SLPC  H12X 6502   3.786   5.072   6.606  1.0950 -1.4329 -0.3148
   73SLPC  H12Y 6503   3.928   5.041   6.496 -1.5849 -0.7169 -0.0515
   73SLPC  C313 6504   3.828   5.237   6.493 -0.1321  0.1995  0.4006
   73SLPC  H13X 6505   3.765   5.302   6.558 -1.1792  0.9996 -1.3382
   73SLPC  H13Y 6506   3.754   5.200   6.419  0.3769  1.2788 -0.6700
   73SLPC  C314 6507   3.931   5.317   6.418 -0.1572  0.1832  0.0382
   73SLPC  H14X 6508   3.990   5.268   6.337  1.9040  0.5403  1.2606
   73SLPC  H14Y 6509   4.018   5.340   6.483  1.5624 -1.2459 -1.6493
   73SLPC  C315 6510   3.885   5.450   6.354 -0.2950  0.9070  0.3286
   73SLPC  H15X 6511   3.961   5.479   6.279  0.6823 -1.5447  0.2669
   73SLPC  H15Y 6512   3.867   5.525   6.434 -1.7623  0.6504  0.2669
   73SLPC  C316 6513   3.756   5.443   6.276 -0.3500  0.7635  1.1077
   73SLPC  H16X 6514   3.675   5.404   6.342  0.0936  0.5354  1.5239
   73SLPC  H16Y 6515   3.768   5.374   6.190 -2.3716  1.4016  0.2419
   73SLPC  C317 6516   3.712   5.571   6.197 -0.5107 -0.1920  0.2968
   73SLPC  H17X 6517   3.776   5.583   6.107  0.2502  0.6313  0.9251
   73SLPC  H17Y 6518   3.725   5.663   6.259  0.3145 -0.9724  1.3401
   73SLPC  C318 6519   3.574   5.569   6.152 -0.4304  1.0620  0.2840
   73SLPC  H18X 6520   3.508   5.567   6.241 -0.1336  1.4633  0.5085
   73SLPC  H18Y 6521   3.558   5.483   6.083  2.3689  0.7061 -0.0506
   73SLPC  H18Z 6522   3.550   5.667   6.105 -0.9798  0.2960 -1.1120
   74SLPC     N 6523   1.808   4.892   8.188  0.0902  0.6964 -0.2538
   74SLPC   C13 6524   1.852   5.028   8.238 -0.8476 -0.4012 -0.5081
   74SLPC  H13A 6525   1.954   5.026   8.272 -0.4682  1.2364 -1.4586
   74SLPC  H13B 6526   1.838   5.107   8.165 -1.4888 -0.2129 -0.1869
   74SLPC  H13C 6527   1.787   5.065   8.315  0.0398  1.4209 -0.5958
   74SLPC   C14 6528   1.669   4.908   8.146  0.4390  0.0503  0.2436
   74SLPC  H14A 6529   1.625   4.812   8.125  1.2642 -0.2535 -0.1397
   74SLPC  H14B 6530   1.611   4.935   8.233 -1.8285 -0.8370 -0.9255
   74SLPC  H14C 6531   1.644   4.976   8.065 -2.1529 -0.6152  0.3969
   74SLPC   C15 6532   1.814   4.794   8.301 -0.0531  0.4313 -0.0210
   74SLPC  H15A 6533   1.757   4.703   8.287  0.8387 -0.4474  1.8391
   74SLPC  H15B 6534   1.917   4.773   8.322 -0.8956 -1.6804  2.4574
   74SLPC  H15C 6535   1.775   4.844   8.388  1.6451  0.3233  0.8292
   74SLPC   C12 6536   1.886   4.843   8.068  0.6773  0.4119 -0.0585
   74SLPC  H12A 6537   1.885   4.917   7.989  0.1973  1.7180  1.1194
   74SLPC  H12B 6538   1.828   4.757   8.039  0.4549  0.1737  1.0599
   74SLPC   C11 6539   2.032   4.795   8.093 -0.1155 -0.0356  0.3364
   74SLPC  H11A 6540   2.077   4.745   8.004 -1.1885  2.3862 -1.6801
   74SLPC  H11B 6541   2.024   4.717   8.172  0.2046  1.0369  1.4657
   74SLPC     P 6542   2.265   4.862   8.198  0.2726  0.2557  0.3256
   74SLPC   O13 6543   2.311   4.972   8.284  0.1369 -0.4313 -0.2301
   74SLPC   O14 6544   2.259   4.722   8.252 -0.0555 -0.1594  0.0358
   74SLPC   O12 6545   2.123   4.899   8.137  0.2535 -0.0756 -0.3966
   74SLPC   O11 6546   2.370   4.864   8.077  0.6448  0.2223  0.2707
   74SLPC    C1 6547   2.363   4.970   7.984 -0.3949 -0.1950 -0.0894
   74SLPC    HA 6548   2.332   5.065   8.031 -1.6670 -1.1468  1.1051
   74SLPC    HB 6549   2.465   4.998   7.951  0.4968 -1.4597  1.4645
   74SLPC    C2 6550   2.302   4.930   7.849 -0.5610  0.0093  0.4622
   74SLPC    HS 6551   2.192   4.940   7.856 -0.7471  2.2232 -3.2534
   74SLPC   O21 6552   2.355   4.795   7.812  0.4718  0.3491  0.2083
   74SLPC   C21 6553   2.263   4.713   7.768 -0.3775 -0.4338  0.3737
   74SLPC   O22 6554   2.145   4.736   7.749 -0.5339 -0.9236  0.1013
   74SLPC   C22 6555   2.336   4.584   7.728 -0.0687  0.3043 -0.3984
   74SLPC   H2R 6556   2.407   4.562   7.811 -0.7590  0.4978  0.2547
   74SLPC   H2S 6557   2.268   4.496   7.719 -1.7577  1.3016  1.6326
   74SLPC    C3 6558   2.333   5.035   7.739  0.1280  0.2800  0.3261
   74SLPC    HX 6559   2.444   5.033   7.741  0.1217  0.4536  1.3484
   74SLPC    HY 6560   2.293   5.128   7.786  2.9952  0.7964  2.0281
   74SLPC   O31 6561   2.282   5.008   7.605  0.5590  0.8792  0.0409
   74SLPC   C31 6562   2.153   5.046   7.585  0.5414 -0.4299 -0.1750
   74SLPC   O32 6563   2.077   5.084   7.668  0.6574  0.0905 -0.4681
   74SLPC   C32 6564   2.109   5.036   7.436  0.2491  0.4490 -0.2887
   74SLPC   H2X 6565   2.000   5.058   7.439 -0.0523 -1.0341  0.3356
   74SLPC   H2Y 6566   2.123   4.930   7.409  0.6195 -0.2207  2.2323
   74SLPC   C23 6567   2.413   4.593   7.603 -0.0892  0.1961 -0.1371
   74SLPC   H3R 6568   2.487   4.510   7.604 -1.0471 -0.6872 -0.8367
   74SLPC   H3S 6569   2.468   4.689   7.590  0.2060  0.1333  0.6033
   74SLPC   C24 6570   2.321   4.562   7.481  0.7177 -0.0427 -0.0285
   74SLPC   H4R 6571   2.247   4.642   7.460  0.9183  0.9586  2.6953
   74SLPC   H4S 6572   2.270   4.465   7.502  0.8372  0.1648  1.3346
   74SLPC   C25 6573   2.387   4.551   7.346 -0.4511  0.3581 -0.2740
   74SLPC   H5R 6574   2.331   4.483   7.277  0.1278  0.8792 -1.2795
   74SLPC   H5S 6575   2.479   4.492   7.362 -0.8648 -0.8649 -2.0815
   74SLPC   C26 6576   2.414   4.687   7.276  0.4446  0.0176  0.0796
   74SLPC   H6R 6577   2.446   4.763   7.351  0.7529  0.8148 -0.8409
   74SLPC   H6S 6578   2.317   4.711   7.226  1.3252  1.2216 -1.1314
   74SLPC   C27 6579   2.506   4.685   7.159  0.6321 -0.3589  0.2288
   74SLPC   H7R 6580   2.476   4.602   7.092  0.4701  0.5521 -0.8703
   74SLPC   H7S 6581   2.600   4.650   7.206  0.9558  0.2094  0.0236
   74SLPC   C28 6582   2.528   4.821   7.095 -0.1930  0.2551  0.0724
   74SLPC   H8R 6583   2.607   4.792   7.023  0.6052  2.7776 -0.1868
   74SLPC   H8S 6584   2.568   4.888   7.174 -0.0339 -1.3223  1.3815
   74SLPC   C29 6585   2.411   4.883   7.017  0.2640  0.3943 -0.0317
   74SLPC   H9R 6586   2.323   4.878   7.082  2.0830  0.8908  2.6554
   74SLPC  C210 6587   2.407   4.937   6.898  0.0647 -0.2521 -0.1720
   74SLPC  H10R 6588   2.308   4.951   6.851  0.0584 -3.5184 -1.3402
   74SLPC  C211 6589   2.511   4.971   6.801 -0.1754  0.1168 -0.4819
   74SLPC  H11R 6590   2.611   4.987   6.846  0.6701 -4.1251 -0.3631
   74SLPC  H11S 6591   2.481   5.070   6.762 -1.8024 -0.5166 -0.9000
   74SLPC  C212 6592   2.521   4.867   6.685 -0.4664  0.4172  0.2663
   74SLPC  H12R 6593   2.553   4.769   6.724  0.3909  0.6831  0.2449
   74SLPC  C213 6594   2.505   4.870   6.552  0.2243 -0.5598  0.4416
   74SLPC  H13R 6595   2.525   4.785   6.485  0.5218  0.0392 -0.2397
   74SLPC  C214 6596   2.480   4.989   6.466  0.4396 -0.3791 -0.4480
   74SLPC  H14R 6597   2.552   4.982   6.382 -2.2245  1.9491 -3.1749
   74SLPC  H14S 6598   2.497   5.086   6.518  2.3418 -0.3062 -1.1148
   74SLPC  C215 6599   2.334   4.975   6.401  0.0327 -0.5546  0.6984
   74SLPC  H15R 6600   2.309   5.069   6.349 -1.3787 -0.4290  1.5445
   74SLPC  H15S 6601   2.254   4.968   6.479  0.5578  0.7074  1.3778
   74SLPC  C216 6602   2.334   4.855   6.299  0.3000  0.1492  0.1989
   74SLPC  H16R 6603   2.343   4.758   6.351 -0.1441  0.5273  0.9955
   74SLPC  H16S 6604   2.423   4.873   6.235  0.3020 -0.2195  0.0977
   74SLPC  C217 6605   2.201   4.850   6.211 -0.9270  0.2758 -1.1572
   74SLPC  H17R 6606   2.175   4.955   6.185 -1.1822  0.0496 -1.8537
   74SLPC  H17S 6607   2.116   4.820   6.274  0.4656 -2.3773 -0.4188
   74SLPC  C218 6608   2.190   4.748   6.101  0.0565  0.2233 -0.1111
   74SLPC  H18R 6609   2.265   4.767   6.021  1.7888 -0.4900  1.2505
   74SLPC  H18S 6610   2.086   4.740   6.065 -1.0098  2.6116  2.1633
   74SLPC  H18T 6611   2.225   4.650   6.142 -1.0733  0.3412  1.1828
   74SLPC   C33 6612   2.201   5.126   7.351  0.0600 -0.0547  0.5849
   74SLPC   H3X 6613   2.309   5.104   7.364  0.5184  0.2573 -2.0771
   74SLPC   H3Y 6614   2.183   5.234   7.372 -0.3546 -0.2360  1.1869
   74SLPC   C34 6615   2.167   5.106   7.204 -0.4210 -0.1988  0.3975
   74SLPC   H4X 6616   2.059   5.091   7.184  0.0416 -0.2288 -2.5888
   74SLPC   H4Y 6617   2.201   5.008   7.165  1.2308  0.5818 -0.2349
   74SLPC   C35 6618   2.217   5.219   7.121  0.8318  0.2770 -0.9302
   74SLPC   H5X 6619   2.328   5.220   7.125  0.8868  1.7134 -2.3273
   74SLPC   H5Y 6620   2.192   5.315   7.170  5.0094  1.8740 -1.4978
   74SLPC   C36 6621   2.176   5.219   6.980  0.2673  0.3171  0.3734
   74SLPC   H6X 6622   2.065   5.222   6.977  0.2278 -0.9150 -1.2094
   74SLPC   H6Y 6623   2.208   5.124   6.931 -0.6024 -0.2409  0.8615
   74SLPC   C37 6624   2.243   5.336   6.905  0.0622 -0.1475 -0.2109
   74SLPC   H7X 6625   2.353   5.322   6.902  0.1495  0.6443 -1.4200
   74SLPC   H7Y 6626   2.220   5.435   6.951  0.8510  0.6448 -1.4657
   74SLPC   C38 6627   2.184   5.348   6.765  0.0067 -0.6490  0.2859
   74SLPC   H8X 6628   2.229   5.436   6.715  0.6019 -0.7907  0.5660
   74SLPC   H8Y 6629   2.074   5.362   6.774 -0.0176 -0.2830 -0.5410
   74SLPC   C39 6630   2.205   5.226   6.672  0.4619 -0.5378  0.3458
   74SLPC   H9X 6631   2.173   5.140   6.734  0.6064  0.0039  1.1916
   74SLPC   H9Y 6632   2.310   5.214   6.636 -0.0201 -3.4787 -0.3695
   74SLPC  C310 6633   2.115   5.240   6.538  0.3127 -0.1228 -0.3998
   74SLPC  H10X 6634   2.008   5.258   6.560 -0.2450 -0.1594 -2.7805
   74SLPC  H10Y 6635   2.105   5.149   6.474 -2.0857 -0.4717  0.3845
   74SLPC  C311 6636   2.162   5.341   6.437  0.0478 -0.1884  0.0260
   74SLPC  H11X 6637   2.259   5.300   6.402  0.3126  0.1671  0.3302
   74SLPC  H11Y 6638   2.197   5.433   6.490  0.7391  1.7265 -3.4896
   74SLPC  C312 6639   2.059   5.366   6.323  0.3050 -0.4366  0.2558
   74SLPC  H12X 6640   2.085   5.466   6.281 -0.6628 -0.2994 -0.0472
   74SLPC  H12Y 6641   1.959   5.364   6.372 -0.9428  0.7918 -2.0613
   74SLPC  C313 6642   2.057   5.264   6.208 -0.3556 -0.3796 -1.0544
   74SLPC  H13X 6643   1.975   5.283   6.135 -0.5781 -0.4195 -0.8145
   74SLPC  H13Y 6644   2.043   5.162   6.249  1.4870  0.1057  0.9785
   74SLPC  C314 6645   2.199   5.270   6.144 -0.5462  0.1448  0.6389
   74SLPC  H14X 6646   2.281   5.233   6.208  0.8017  1.7967 -0.0322
   74SLPC  H14Y 6647   2.216   5.379   6.131  3.2147 -0.4246 -0.2467
   74SLPC  C315 6648   2.202   5.211   6.000 -0.8332  0.0241 -0.6077
   74SLPC  H15X 6649   2.148   5.283   5.934 -1.0881  0.0334 -0.3910
   74SLPC  H15Y 6650   2.151   5.112   5.993 -0.1055 -0.3057 -1.5907
   74SLPC  C316 6651   2.350   5.182   5.963  0.2842 -0.0548  0.7542
   74SLPC  H16X 6652   2.392   5.128   6.051 -0.4561 -1.6484  0.1649
   74SLPC  H16Y 6653   2.408   5.276   5.967  0.1430  0.0145  1.3334
   74SLPC  C317 6654   2.356   5.111   5.825  1.1452  0.0822 -0.1863
   74SLPC  H17X 6655   2.294   5.169   5.754  1.0365  1.5880  1.0737
   74SLPC  H17Y 6656   2.307   5.011   5.826  0.3048  0.4862  0.2326
   74SLPC  C318 6657   2.494   5.097   5.764 -0.2502  0.3332  0.2030
   74SLPC  H18X 6658   2.553   5.190   5.746  1.4877 -1.0866 -1.9307
   74SLPC  H18Y 6659   2.482   5.038   5.671  0.2675  0.9672 -0.2797
   74SLPC  H18Z 6660   2.547   5.028   5.833 -0.2022 -1.3984 -1.4825
   75SLPC     N 6661   6.586   6.439   8.541 -0.0073 -0.7921  0.3560
   75SLPC   C13 6662   6.509   6.336   8.614  0.6125 -0.1612  0.5426
   75SLPC  H13A 6663   6.562   6.242   8.616  0.1702 -0.6046 -2.5714
   75SLPC  H13B 6664   6.480   6.358   8.715 -0.9126 -0.1008  0.1073
   75SLPC  H13C 6665   6.421   6.317   8.555  1.3279 -0.6271 -0.4115
   75SLPC   C14 6666   6.719   6.442   8.614 -0.2644 -0.5812  0.0678
   75SLPC  H14A 6667   6.694   6.444   8.719  0.4627  0.8357  0.2475
   75SLPC  H14B 6668   6.776   6.356   8.582  2.0621  0.2371  1.6750
   75SLPC  H14C 6669   6.779   6.527   8.586 -1.0690 -0.3020 -0.8465
   75SLPC   C15 6670   6.523   6.575   8.560  0.5111  1.1447 -0.3621
   75SLPC  H15A 6671   6.415   6.571   8.551  0.1733  2.4843  1.9602
   75SLPC  H15B 6672   6.545   6.627   8.652  0.6084 -0.0393  0.3064
   75SLPC  H15C 6673   6.557   6.640   8.481  0.0166 -0.1365 -1.6750
   75SLPC   C12 6674   6.607   6.420   8.390  0.0887  0.3318 -0.4089
   75SLPC  H12A 6675   6.649   6.324   8.362  0.0131  0.5102 -1.1629
   75SLPC  H12B 6676   6.679   6.491   8.353  0.2060  0.3066 -0.2241
   75SLPC   C11 6677   6.482   6.434   8.296  0.2866 -0.0399 -0.0101
   75SLPC  H11A 6678   6.533   6.431   8.198  3.8972 -0.1941  1.7358
   75SLPC  H11B 6679   6.428   6.531   8.304 -0.1601 -0.2975  0.1408
   75SLPC     P 6680   6.395   6.180   8.271 -0.1662 -0.2319 -0.4637
   75SLPC   O13 6681   6.534   6.133   8.286  0.5496 -0.3538  0.7121
   75SLPC   O14 6682   6.298   6.095   8.348  0.1982 -0.1173 -0.4644
   75SLPC   O12 6683   6.381   6.336   8.305  0.3097 -0.0701 -0.2118
   75SLPC   O11 6684   6.363   6.185   8.115 -0.7167  0.0474 -0.3441
   75SLPC    C1 6685   6.245   6.248   8.072 -0.0686  0.5299 -0.4122
   75SLPC    HA 6686   6.165   6.174   8.051  1.0816 -0.7219 -0.5378
   75SLPC    HB 6687   6.213   6.325   8.145  0.7591  0.8755 -0.4025
   75SLPC    C2 6688   6.276   6.323   7.938 -0.5259 -0.6571 -0.3769
   75SLPC    HS 6689   6.188   6.389   7.922 -0.8354 -0.8606  0.4354
   75SLPC   O21 6690   6.301   6.241   7.825  0.9123  0.2336 -0.1340
   75SLPC   C21 6691   6.202   6.168   7.776  0.6062 -0.3452 -0.2756
   75SLPC   O22 6692   6.094   6.148   7.832 -0.1156 -0.1409  0.1592
   75SLPC   C22 6693   6.245   6.121   7.636  0.2599 -0.0551  0.0107
   75SLPC   H2R 6694   6.318   6.190   7.587 -1.7461  1.6293 -0.8025
   75SLPC   H2S 6695   6.299   6.025   7.638 -0.2365 -0.3203  1.2692
   75SLPC    C3 6696   6.394   6.423   7.948  0.4246  0.3282  0.0749
   75SLPC    HX 6697   6.487   6.365   7.971  0.2885  0.8009  1.9433
   75SLPC    HY 6698   6.382   6.489   8.037 -0.9854  1.9376 -1.2547
   75SLPC   O31 6699   6.405   6.504   7.828  0.1798  0.6710  0.6867
   75SLPC   C31 6700   6.510   6.482   7.758  0.4328  0.7701  0.1406
   75SLPC   O32 6701   6.608   6.413   7.793 -0.0956 -0.3058 -0.0242
   75SLPC   C32 6702   6.491   6.544   7.623 -0.3521 -0.2372  0.3779
   75SLPC   H2X 6703   6.583   6.598   7.591 -0.1767  0.1351  1.4681
   75SLPC   H2Y 6704   6.414   6.624   7.621 -0.9324 -0.7857  0.5981
   75SLPC   C23 6705   6.122   6.107   7.551 -0.7755  0.3351  0.0431
   75SLPC   H3R 6706   6.043   6.049   7.604  0.4464 -0.7391  0.7565
   75SLPC   H3S 6707   6.151   6.053   7.459 -0.6152  1.1935 -0.4207
   75SLPC   C24 6708   6.059   6.242   7.504  0.0660  0.4067 -0.7046
   75SLPC   H4R 6709   6.145   6.304   7.471  1.1820 -2.1618 -3.0420
   75SLPC   H4S 6710   5.994   6.293   7.579 -0.6616 -0.4142 -0.7670
   75SLPC   C25 6711   5.969   6.223   7.377  1.1770 -0.7448 -0.2427
   75SLPC   H5R 6712   5.907   6.315   7.369  1.9794 -0.0551  1.1635
   75SLPC   H5S 6713   5.907   6.135   7.402  1.2444 -0.4173  1.1386
   75SLPC   C26 6714   6.033   6.191   7.246 -0.3453 -0.1980 -0.3176
   75SLPC   H6R 6715   6.090   6.098   7.266  0.7868 -0.3790 -3.7996
   75SLPC   H6S 6716   6.108   6.269   7.221 -1.3992  0.6058 -1.0699
   75SLPC   C27 6717   5.931   6.170   7.133  0.9881 -0.3895  0.9228
   75SLPC   H7R 6718   5.872   6.260   7.107  2.5607  0.1411 -1.0623
   75SLPC   H7S 6719   5.866   6.082   7.150  1.6522 -1.4857 -1.6711
   75SLPC   C28 6720   6.006   6.137   7.005 -0.0839 -0.6318  0.0293
   75SLPC   H8R 6721   5.933   6.082   6.941  0.0565 -3.2853  1.9550
   75SLPC   H8S 6722   6.087   6.066   7.032  0.2655 -0.4369 -0.4921
   75SLPC   C29 6723   6.068   6.252   6.929 -0.2327  0.4362  0.4150
   75SLPC   H9R 6724   6.131   6.329   6.975 -0.2041  0.5688  0.1546
   75SLPC  C210 6725   6.052   6.265   6.796  0.2575  0.6479 -0.1089
   75SLPC  H10R 6726   6.089   6.360   6.756  0.9527  0.7670  0.8004
   75SLPC  C211 6727   5.980   6.182   6.695  0.1450 -0.6012 -0.1145
   75SLPC  H11R 6728   5.890   6.239   6.663 -1.3691 -1.8345  1.7231
   75SLPC  H11S 6729   5.935   6.089   6.736 -0.5413 -0.3275 -0.2294
   75SLPC  C212 6730   6.082   6.149   6.583  0.9446 -0.1005  0.2813
   75SLPC  H12R 6731   6.128   6.049   6.590  2.5481  0.6588  1.2802
   75SLPC  C213 6732   6.101   6.220   6.468  0.8401  0.3207 -0.6811
   75SLPC  H13R 6733   6.155   6.168   6.387 -0.1404 -0.0903 -1.0868
   75SLPC  C214 6734   6.063   6.366   6.446 -0.4130 -0.3254  0.4551
   75SLPC  H14R 6735   6.039   6.432   6.532  0.1607  1.1400 -0.4809
   75SLPC  H14S 6736   5.970   6.368   6.384  0.5099  0.3844 -0.9552
   75SLPC  C215 6737   6.174   6.445   6.379 -0.6400 -1.1863 -0.2034
   75SLPC  H15R 6738   6.263   6.455   6.445  0.2565  1.3394 -1.6577
   75SLPC  H15S 6739   6.132   6.548   6.372 -0.6927 -1.1211  0.8084
   75SLPC  C216 6740   6.210   6.402   6.227 -0.2324  0.5173 -0.3584
   75SLPC  H16R 6741   6.119   6.380   6.167 -0.9125 -4.6205  1.9673
   75SLPC  H16S 6742   6.262   6.304   6.223 -2.1999 -0.5906 -0.2867
   75SLPC  C217 6743   6.285   6.513   6.152 -0.8027  0.2975  0.0962
   75SLPC  H17R 6744   6.367   6.544   6.220 -2.5398  2.1781  1.4695
   75SLPC  H17S 6745   6.212   6.595   6.135 -1.4310 -0.3408 -0.3625
   75SLPC  C218 6746   6.343   6.476   6.017  0.6126 -0.0386  0.7219
   75SLPC  H18R 6747   6.261   6.442   5.949  0.1324  0.8342  0.8485
   75SLPC  H18S 6748   6.402   6.382   6.019  1.3556  0.3741 -0.4505
   75SLPC  H18T 6749   6.414   6.552   5.979  1.5268 -1.0359  0.4006
   75SLPC   C33 6750   6.449   6.434   7.511 -0.4338  0.2063 -0.9984
   75SLPC   H3X 6751   6.351   6.388   7.538 -1.1384  1.1662 -1.8518
   75SLPC   H3Y 6752   6.531   6.359   7.516 -0.6569  0.0368  2.0508
   75SLPC   C34 6753   6.438   6.489   7.372  0.6726 -0.2691  0.2765
   75SLPC   H4X 6754   6.530   6.548   7.349 -0.0159  0.7817  0.1555
   75SLPC   H4Y 6755   6.353   6.561   7.368  1.7647  1.0088 -0.9890
   75SLPC   C35 6756   6.417   6.374   7.271  0.3541 -0.4884  0.3747
   75SLPC   H5X 6757   6.332   6.310   7.303  1.0008 -2.3254 -1.3704
   75SLPC   H5Y 6758   6.504   6.306   7.260 -0.0522 -1.0064  0.2840
   75SLPC   C36 6759   6.389   6.435   7.128  0.0001  0.0945 -0.6225
   75SLPC   H6X 6760   6.455   6.524   7.122  1.5258 -0.7000  2.2657
   75SLPC   H6Y 6761   6.281   6.460   7.117 -0.8301 -1.8664  1.9733
   75SLPC   C37 6762   6.423   6.342   7.017 -0.0782 -0.4395  0.2899
   75SLPC   H7X 6763   6.368   6.246   7.027 -0.0978 -0.3704  0.8737
   75SLPC   H7Y 6764   6.532   6.326   7.032 -0.1901 -1.5451  0.0205
   75SLPC   C38 6765   6.403   6.421   6.887 -0.6217 -0.2241  0.1617
   75SLPC   H8X 6766   6.466   6.512   6.881 -0.9136 -0.0664 -0.7390
   75SLPC   H8Y 6767   6.295   6.450   6.886 -0.7343 -0.5805 -1.7447
   75SLPC   C39 6768   6.432   6.327   6.764 -0.0873  0.2755 -0.2036
   75SLPC   H9X 6769   6.365   6.239   6.771  1.0344 -0.5187  1.4474
   75SLPC   H9Y 6770   6.536   6.289   6.780 -1.2478 -2.2277  2.4731
   75SLPC  C310 6771   6.418   6.407   6.631  0.4370 -0.0054  1.0796
   75SLPC  H10X 6772   6.332   6.471   6.660 -0.0974 -0.4643  0.5412
   75SLPC  H10Y 6773   6.393   6.326   6.559 -1.1754  1.2181  0.2046
   75SLPC  C311 6774   6.547   6.485   6.602 -0.0491  0.1443  1.0236
   75SLPC  H11X 6775   6.639   6.422   6.611 -0.6688 -1.2002 -1.2014
   75SLPC  H11Y 6776   6.551   6.573   6.670  1.1502  0.2107  0.8966
   75SLPC  C312 6777   6.545   6.533   6.453  0.1966  0.6510 -0.4617
   75SLPC  H12X 6778   6.473   6.615   6.433  0.3919  1.5951  2.2972
   75SLPC  H12Y 6779   6.521   6.442   6.394 -1.7198 -0.8304  2.3832
   75SLPC  C313 6780   6.683   6.570   6.408  0.2319  0.2686  0.4638
   75SLPC  H13X 6781   6.759   6.489   6.411 -0.7850 -0.6986  0.6835
   75SLPC  H13Y 6782   6.723   6.643   6.482  2.0108 -2.1255  2.0141
   75SLPC  C314 6783   6.666   6.620   6.265  0.6147 -0.8466  0.0977
   75SLPC  H14X 6784   6.602   6.562   6.195  1.0369  1.0374 -1.9470
   75SLPC  H14Y 6785   6.764   6.623   6.214  1.4792 -0.1289  1.7124
   75SLPC  C315 6786   6.616   6.768   6.259 -0.5481 -0.6361  0.4509
   75SLPC  H15X 6787   6.706   6.831   6.274 -0.2182 -1.0628  0.2841
   75SLPC  H15Y 6788   6.564   6.781   6.357 -1.2228 -3.2190  0.5097
   75SLPC  C316 6789   6.546   6.826   6.138  0.5725 -0.1732  0.0900
   75SLPC  H16X 6790   6.440   6.790   6.139 -0.1190  1.7296  1.0692
   75SLPC  H16Y 6791   6.593   6.780   6.049  1.8242  0.4096  0.4294
   75SLPC  C317 6792   6.542   6.973   6.118 -0.2093 -0.2510 -0.2712
   75SLPC  H17X 6793   6.468   6.988   6.036  0.3001  0.5744 -0.5926
   75SLPC  H17Y 6794   6.640   6.999   6.074  0.7365 -0.4072  1.6452
   75SLPC  C318 6795   6.510   7.062   6.238  0.2334  0.2127  0.2223
   75SLPC  H18X 6796   6.416   7.024   6.283  0.0049  0.4721 -0.0347
   75SLPC  H18Y 6797   6.506   7.171   6.217 -0.0851  0.0048 -0.8546
   75SLPC  H18Z 6798   6.582   7.042   6.320 -0.0627  1.1892  0.7300
   76SLPC     N 6799   6.195   4.595   8.262 -0.0905 -0.0248  0.4600
   76SLPC   C13 6800   6.292   4.697   8.317 -0.2600 -0.2652 -0.1908
   76SLPC  H13A 6801   6.390   4.652   8.328  0.1246  0.5764 -0.1096
   76SLPC  H13B 6802   6.302   4.779   8.247  1.1739 -1.5307 -1.5749
   76SLPC  H13C 6803   6.273   4.734   8.416  2.7766  0.2155  0.3179
   76SLPC   C14 6804   6.220   4.460   8.322  0.0659 -0.6105  0.0033
   76SLPC  H14A 6805   6.325   4.440   8.307 -0.3010 -0.9308 -2.8216
   76SLPC  H14B 6806   6.200   4.463   8.428  1.7838 -0.8962  0.3586
   76SLPC  H14C 6807   6.156   4.388   8.274  0.3174  1.0356 -3.0873
   76SLPC   C15 6808   6.209   4.594   8.118 -0.3135 -0.0359 -0.2959
   76SLPC  H15A 6809   6.182   4.689   8.073 -0.8883 -0.4936 -0.9270
   76SLPC  H15B 6810   6.308   4.566   8.083 -0.0423 -0.3936  0.7132
   76SLPC  H15C 6811   6.129   4.533   8.079 -1.8495  0.8190  1.3621
   76SLPC   C12 6812   6.059   4.630   8.295 -0.8626 -0.4119 -0.4488
   76SLPC  H12A 6813   6.052   4.730   8.254  1.2196  0.6636  1.6048
   76SLPC  H12B 6814   6.042   4.640   8.401 -2.2758  0.4324 -0.7211
   76SLPC   C11 6815   5.948   4.543   8.235  0.5253 -0.1976 -0.2945
   76SLPC  H11A 6816   5.939   4.444   8.286 -1.1109  0.3167  0.4967
   76SLPC  H11B 6817   5.963   4.529   8.126 -0.3571  2.3703 -0.8029
   76SLPC     P 6818   5.756   4.694   8.155  0.4153 -0.0835 -0.3896
   76SLPC   O13 6819   5.623   4.737   8.208  0.3480  0.3051  0.4083
   76SLPC   O14 6820   5.853   4.801   8.107 -0.0390  0.6384  0.7618
   76SLPC   O12 6821   5.825   4.606   8.266 -0.9414  0.3111 -0.0939
   76SLPC   O11 6822   5.718   4.584   8.046  0.2185  0.5408 -0.1939
   76SLPC    C1 6823   5.616   4.613   7.944  0.1153 -0.2928 -0.0228
   76SLPC    HA 6824   5.575   4.513   7.919  0.4379 -0.1652 -1.1522
   76SLPC    HB 6825   5.531   4.672   7.984  0.0238 -0.1044 -0.4852
   76SLPC    C2 6826   5.684   4.696   7.832  0.6800  0.0640  0.1765
   76SLPC    HS 6827   5.687   4.797   7.879 -3.2754 -0.2471  1.5356
   76SLPC   O21 6828   5.594   4.707   7.720  0.2465  0.3942 -0.8073
   76SLPC   C21 6829   5.493   4.788   7.724 -0.0790  0.2353  0.3654
   76SLPC   O22 6830   5.481   4.876   7.809  0.4042  0.1774  0.1957
   76SLPC   C22 6831   5.411   4.790   7.596 -0.1868 -0.0938  0.0721
   76SLPC   H2R 6832   5.359   4.692   7.592 -0.3903  0.0329 -0.3812
   76SLPC   H2S 6833   5.335   4.871   7.602  1.5756  1.5420  3.5021
   76SLPC    C3 6834   5.821   4.636   7.786 -0.0767  0.0365  0.0539
   76SLPC    HX 6835   5.812   4.526   7.772 -1.1779  0.2470 -1.0799
   76SLPC    HY 6836   5.896   4.645   7.867 -3.1841 -1.1034  3.3400
   76SLPC   O31 6837   5.876   4.692   7.664 -0.5217 -0.4415 -0.4667
   76SLPC   C31 6838   5.890   4.826   7.666  0.1084 -1.2773  0.4896
   76SLPC   O32 6839   5.870   4.905   7.759  0.3386  0.3367  0.1622
   76SLPC   C32 6840   5.944   4.868   7.525 -0.4093 -0.0470 -0.1081
   76SLPC   H2X 6841   6.054   4.858   7.530 -0.4956 -1.6756 -0.6550
   76SLPC   H2Y 6842   5.913   4.974   7.516 -2.7900 -0.7630 -1.5163
   76SLPC   C23 6843   5.496   4.808   7.467 -0.0884  0.3074  0.2219
   76SLPC   H3R 6844   5.562   4.719   7.453  1.3813  1.3278  0.4144
   76SLPC   H3S 6845   5.558   4.899   7.481  0.7740 -0.2210 -0.1230
   76SLPC   C24 6846   5.397   4.823   7.345  0.4088  0.1825  0.6231
   76SLPC   H4R 6847   5.331   4.912   7.352  1.1452  0.7702  0.3578
   76SLPC   H4S 6848   5.346   4.728   7.321 -0.5180  1.1161 -1.3313
   76SLPC   C25 6849   5.488   4.869   7.222  1.1110  0.5898 -0.1512
   76SLPC   H5R 6850   5.587   4.821   7.206  0.5532 -0.2797 -1.1465
   76SLPC   H5S 6851   5.495   4.979   7.233 -4.2634  1.1401  0.5934
   76SLPC   C26 6852   5.395   4.844   7.104 -0.0508 -0.4065 -0.3936
   76SLPC   H6R 6853   5.294   4.889   7.105 -0.0603 -0.4212  0.5406
   76SLPC   H6S 6854   5.384   4.735   7.086  1.1882 -0.5749 -0.2100
   76SLPC   C27 6855   5.453   4.905   6.975  0.4657 -0.4670 -0.4598
   76SLPC   H7R 6856   5.544   4.856   6.935  0.1078 -2.2788  0.8654
   76SLPC   H7S 6857   5.482   5.010   6.998 -0.7698  0.5587 -3.1238
   76SLPC   C28 6858   5.343   4.922   6.864  0.8175  0.2977 -0.8174
   76SLPC   H8R 6859   5.382   4.992   6.786  0.2639  1.6040  0.0423
   76SLPC   H8S 6860   5.250   4.977   6.890  0.8497 -0.3073  0.6665
   76SLPC   C29 6861   5.313   4.789   6.797  0.2711  0.5599 -0.4194
   76SLPC   H9R 6862   5.267   4.712   6.860  0.8015 -0.2645 -1.0242
   76SLPC  C210 6863   5.343   4.750   6.678  0.1396 -0.4484  0.0454
   76SLPC  H10R 6864   5.309   4.649   6.651 -0.8481  0.0465 -0.6137
   76SLPC  C211 6865   5.429   4.823   6.571  0.4095  0.6326 -0.3557
   76SLPC  H11R 6866   5.474   4.913   6.618  0.1266  1.8764 -2.3155
   76SLPC  H11S 6867   5.368   4.881   6.499 -0.3901 -0.5668 -0.6732
   76SLPC  C212 6868   5.534   4.730   6.507  0.0949 -0.7713  0.8388
   76SLPC  H12R 6869   5.636   4.762   6.531 -0.3475  1.5258 -0.0355
   76SLPC  C213 6870   5.514   4.625   6.430 -0.0966  0.6057  0.6072
   76SLPC  H13R 6871   5.603   4.581   6.383 -0.7314 -0.0587  0.0110
   76SLPC  C214 6872   5.380   4.572   6.399  0.8114 -0.8148  0.5580
   76SLPC  H14R 6873   5.306   4.654   6.381 -1.1555 -2.7059 -0.4576
   76SLPC  H14S 6874   5.340   4.512   6.483 -1.9894  0.9525  0.6556
   76SLPC  C215 6875   5.377   4.480   6.275 -0.5829 -0.2972 -0.2800
   76SLPC  H15R 6876   5.271   4.450   6.263 -1.3339  2.1209 -0.1707
   76SLPC  H15S 6877   5.458   4.404   6.271 -0.7582 -0.5998  1.3805
   76SLPC  C216 6878   5.400   4.552   6.146  0.0870 -0.8329 -0.0827
   76SLPC  H16R 6879   5.508   4.577   6.147 -0.4120  1.5909  0.9329
   76SLPC  H16S 6880   5.353   4.653   6.141  1.0782 -0.2763  1.3379
   76SLPC  C217 6881   5.368   4.471   6.017  0.3003 -0.3179 -0.0901
   76SLPC  H17R 6882   5.258   4.454   6.017  0.3190 -0.4615  1.0539
   76SLPC  H17S 6883   5.405   4.370   6.042 -1.1198 -1.2201 -1.4343
   76SLPC  C218 6884   5.416   4.523   5.881 -0.6225  0.3382 -0.1403
   76SLPC  H18R 6885   5.395   4.630   5.861  0.3352  0.3244 -1.3933
   76SLPC  H18S 6886   5.381   4.452   5.802  1.4585  1.2535 -1.9928
   76SLPC  H18T 6887   5.527   4.512   5.881 -0.7849 -1.7144 -0.2426
   76SLPC   C33 6888   5.894   4.782   7.410  0.6642  0.5135  0.2988
   76SLPC   H3X 6889   5.783   4.773   7.410  0.6135  0.8167 -1.1785
   76SLPC   H3Y 6890   5.938   4.682   7.427 -0.2995 -0.0053 -0.1922
   76SLPC   C34 6891   5.940   4.836   7.270 -0.1687 -0.1754 -0.1857
   76SLPC   H4X 6892   6.050   4.833   7.276 -0.1962  0.1256  0.6176
   76SLPC   H4Y 6893   5.891   4.934   7.255 -0.2665  0.0757  1.5318
   76SLPC   C35 6894   5.915   4.726   7.164 -0.5637 -0.7701  0.4097
   76SLPC   H5X 6895   5.805   4.714   7.163 -0.6766 -0.0385  1.9206
   76SLPC   H5Y 6896   5.960   4.628   7.192  0.4549 -0.6393 -0.6997
   76SLPC   C36 6897   5.976   4.751   7.029  0.1604 -0.1540 -0.5796
   76SLPC   H6X 6898   6.077   4.708   7.013 -0.0065 -0.9873  0.5145
   76SLPC   H6Y 6899   5.987   4.860   7.010 -0.1860 -0.2231 -1.1881
   76SLPC   C37 6900   5.896   4.699   6.918 -0.2546 -0.0593  0.0716
   76SLPC   H7X 6901   5.805   4.763   6.909 -1.3191 -1.6352 -0.8379
   76SLPC   H7Y 6902   5.860   4.598   6.945 -0.1511 -0.0747  0.1527
   76SLPC   C38 6903   5.978   4.686   6.790  0.2644  0.2058  0.9128
   76SLPC   H8X 6904   6.047   4.601   6.808  2.6690  1.6015 -0.9979
   76SLPC   H8Y 6905   6.044   4.774   6.775  1.0468 -0.5037  0.0575
   76SLPC   C39 6906   5.887   4.657   6.670 -0.1288  0.6803  0.3694
   76SLPC   H9X 6907   5.832   4.746   6.634 -0.9316  0.3801  0.8310
   76SLPC   H9Y 6908   5.816   4.573   6.687  1.8383 -1.4451 -1.2302
   76SLPC  C310 6909   5.972   4.605   6.549 -0.2691 -0.4778  0.1405
   76SLPC  H10X 6910   6.014   4.504   6.567 -3.1863 -1.5694  1.5962
   76SLPC  H10Y 6911   6.049   4.683   6.531  0.8639 -1.8127 -0.9996
   76SLPC  C311 6912   5.897   4.601   6.415 -0.7853 -0.2653  0.9523
   76SLPC  H11X 6913   5.837   4.693   6.400  1.0095  0.7143 -0.7340
   76SLPC  H11Y 6914   5.828   4.515   6.426 -2.4447  0.5422 -2.0346
   76SLPC  C312 6915   5.983   4.581   6.293 -0.1722 -0.4333  0.2056
   76SLPC  H12X 6916   6.045   4.489   6.293 -0.5835 -0.7124  0.3129
   76SLPC  H12Y 6917   6.063   4.658   6.295  0.8876 -1.5133  0.7169
   76SLPC  C313 6918   5.899   4.590   6.166  0.0813 -0.2912  0.2577
   76SLPC  H13X 6919   5.837   4.682   6.155 -0.8453 -0.9551 -0.2667
   76SLPC  H13Y 6920   5.820   4.513   6.177  0.9463 -1.4013 -0.9981
   76SLPC  C314 6921   5.977   4.585   6.037 -0.4676  0.5347 -0.3728
   76SLPC  H14X 6922   6.018   4.482   6.025 -2.4397 -0.3858  0.3892
   76SLPC  H14Y 6923   6.062   4.656   6.047  1.3273 -1.5174 -0.3332
   76SLPC  C315 6924   5.890   4.613   5.909 -0.1973 -0.2886  0.1262
   76SLPC  H15X 6925   5.857   4.719   5.917 -0.5397 -0.0416 -3.1457
   76SLPC  H15Y 6926   5.798   4.550   5.910 -0.1843 -0.3040  1.3489
   76SLPC  C316 6927   5.960   4.608   5.775  0.0929 -0.4707  0.5088
   76SLPC  H16X 6928   6.018   4.513   5.769 -0.3560 -0.6750 -2.3339
   76SLPC  H16Y 6929   6.031   4.694   5.769  0.0354 -0.4822 -0.5429
   76SLPC  C317 6930   5.868   4.620   5.646 -0.0583 -0.3814  0.4446
   76SLPC  H17X 6931   5.928   4.602   5.554  0.6291  0.3840  0.7317
   76SLPC  H17Y 6932   5.837   4.726   5.634  2.1805  0.2185 -0.3882
   76SLPC  C318 6933   5.754   4.530   5.652  0.1683  0.4662 -0.6981
   76SLPC  H18X 6934   5.780   4.441   5.713  2.4866  1.0528 -0.7631
   76SLPC  H18Y 6935   5.708   4.492   5.558 -1.5567  0.0812  0.2498
   76SLPC  H18Z 6936   5.663   4.584   5.686  0.2497  0.0783  0.1520
   77SLPC     N 6937   4.617   0.003   8.283 -0.3780  0.5150  0.0953
   77SLPC   C13 6938   4.597   0.105   8.390  0.0248  0.3202 -0.2448
   77SLPC  H13A 6939   4.660   0.191   8.369 -0.0416  0.0545 -1.6372
   77SLPC  H13B 6940   4.495   0.125   8.418  0.4281 -0.0030  1.5882
   77SLPC  H13C 6941   4.637   0.070   8.484 -3.2293  0.2477  1.2413
   77SLPC   C14 6942   4.766  -0.020   8.260  0.1090 -0.2239 -0.5249
   77SLPC  H14A 6943   4.816  -0.050   8.350 -1.2621 -0.9688  0.0275
   77SLPC  H14B 6944   4.788  -0.087   8.179  2.3764  2.1236 -2.0119
   77SLPC  H14C 6945   4.807   0.079   8.241 -0.6397  0.0977 -0.5049
   77SLPC   C15 6946   4.568   0.065   8.152 -0.5366 -0.0631  0.0647
   77SLPC  H15A 6947   4.463   0.091   8.144 -0.0347  1.6060 -1.7488
   77SLPC  H15B 6948   4.615   0.158   8.124 -1.1175  0.3389  0.3819
   77SLPC  H15C 6949   4.585  -0.012   8.079 -0.1644 -0.0366  0.1221
   77SLPC   C12 6950   4.542  -0.125   8.304 -0.0689  0.0249 -0.9512
   77SLPC  H12A 6951   4.435  -0.112   8.296 -0.2504 -1.4713 -1.2381
   77SLPC  H12B 6952   4.559  -0.173   8.399 -0.4187  0.5552 -0.6139
   77SLPC   C11 6953   4.582  -0.234   8.205  0.1353 -0.5341 -0.1858
   77SLPC  H11A 6954   4.551  -0.324   8.262  0.2739 -0.9564 -0.7636
   77SLPC  H11B 6955   4.691  -0.244   8.188  0.2177  2.1612 -1.6886
   77SLPC     P 6956   4.422  -0.321   8.018  0.1726  0.1687  0.1227
   77SLPC   O13 6957   4.443  -0.454   8.085  0.3624 -0.0030  0.0186
   77SLPC   O14 6958   4.291  -0.258   8.034 -0.1889 -0.2590  0.6191
   77SLPC   O12 6959   4.529  -0.219   8.074 -0.2009  0.1704 -0.2687
   77SLPC   O11 6960   4.460  -0.330   7.865 -0.2565 -0.6518 -0.4227
   77SLPC    C1 6961   4.542  -0.222   7.807  0.3858 -0.3270  0.3383
   77SLPC    HA 6962   4.510  -0.206   7.702 -3.2093 -1.0614  1.1992
   77SLPC    HB 6963   4.516  -0.121   7.844  1.9937  0.2262  0.0455
   77SLPC    C2 6964   4.692  -0.245   7.811  0.1708  1.0547 -0.0485
   77SLPC    HS 6965   4.726  -0.224   7.915 -1.3128 -2.4642  1.3131
   77SLPC   O21 6966   4.744  -0.159   7.707 -0.2847  0.7036 -0.3149
   77SLPC   C21 6967   4.875  -0.146   7.710  0.0174  0.1211 -0.5282
   77SLPC   O22 6968   4.941  -0.199   7.797  0.9959 -0.1350  0.1816
   77SLPC   C22 6969   4.928  -0.062   7.595  0.1090 -0.1932 -0.6204
   77SLPC   H2R 6970   4.896   0.045   7.598  1.9065  0.3646 -0.1123
   77SLPC   H2S 6971   5.038  -0.066   7.610 -0.1055 -3.6949  0.8838
   77SLPC    C3 6972   4.722  -0.395   7.777 -0.4622 -1.2387 -0.2697
   77SLPC    HX 6973   4.678  -0.454   7.860  1.3885 -1.5456  0.5354
   77SLPC    HY 6974   4.831  -0.411   7.791 -0.4566  0.8785  3.0267
   77SLPC   O31 6975   4.679  -0.428   7.646  0.3492  0.1333 -0.3676
   77SLPC   C31 6976   4.604  -0.539   7.639 -0.4018 -0.3167  0.0016
   77SLPC   O32 6977   4.585  -0.618   7.727  0.2765  0.3169  0.5064
   77SLPC   C32 6978   4.544  -0.556   7.501 -0.3287  0.2595 -0.1786
   77SLPC   H2X 6979   4.623  -0.613   7.447 -0.0694  0.5442 -0.1076
   77SLPC   H2Y 6980   4.545  -0.462   7.441 -0.0161 -0.0407 -0.6576
   77SLPC   C23 6981   4.875  -0.124   7.461 -0.8664 -0.9942  0.0068
   77SLPC   H3R 6982   4.913  -0.061   7.378 -1.8303 -0.9101 -0.3820
   77SLPC   H3S 6983   4.766  -0.104   7.452 -0.9180 -0.8722  0.8173
   77SLPC   C24 6984   4.930  -0.263   7.435 -0.0654  0.3163  0.4846
   77SLPC   H4R 6985   4.874  -0.340   7.492  0.0833  0.9687  1.5238
   77SLPC   H4S 6986   5.039  -0.275   7.447 -0.3112 -1.2786  1.3104
   77SLPC   C25 6987   4.895  -0.315   7.292 -0.2408 -0.1942  0.4218
   77SLPC   H5R 6988   4.945  -0.413   7.274  2.5087  0.5672  3.1356
   77SLPC   H5S 6989   4.933  -0.252   7.209  0.7223 -0.6197  0.5205
   77SLPC   C26 6990   4.745  -0.325   7.273  0.0539  0.4631  0.5159
   77SLPC   H6R 6991   4.701  -0.226   7.251 -1.7485 -0.4176 -0.0494
   77SLPC   H6S 6992   4.694  -0.356   7.367 -0.6388  0.5814  0.1865
   77SLPC   C27 6993   4.702  -0.433   7.174  0.4160  0.3776 -0.0684
   77SLPC   H7R 6994   4.725  -0.535   7.212  0.8469  0.5045  0.0218
   77SLPC   H7S 6995   4.765  -0.414   7.085 -1.3864  2.5770 -0.9637
   77SLPC   C28 6996   4.556  -0.414   7.136  0.2196  0.1457 -0.2310
   77SLPC   H8R 6997   4.542  -0.308   7.103 -0.9305  0.6799  1.7601
   77SLPC   H8S 6998   4.496  -0.426   7.229 -0.6137 -0.0551 -0.7857
   77SLPC   C29 6999   4.524  -0.523   7.030 -0.2520 -0.4467 -0.6586
   77SLPC   H9R 7000   4.539  -0.623   7.074  4.5199  0.3633  0.0785
   77SLPC  C210 7001   4.527  -0.505   6.897  0.1789  0.6004 -0.1095
   77SLPC  H10R 7002   4.512  -0.595   6.835 -0.2483 -0.0728  0.9497
   77SLPC  C211 7003   4.548  -0.380   6.815  0.0179 -0.0599 -0.5274
   77SLPC  H11R 7004   4.585  -0.302   6.884 -0.4697  0.4514 -0.8371
   77SLPC  H11S 7005   4.449  -0.351   6.775  0.8499  0.0845 -2.6262
   77SLPC  C212 7006   4.643  -0.405   6.701  0.3427 -0.3210  0.3774
   77SLPC  H12R 7007   4.707  -0.495   6.703  1.2597  0.2171 -1.5738
   77SLPC  C213 7008   4.651  -0.329   6.592  0.2880 -0.9639  0.2655
   77SLPC  H13R 7009   4.728  -0.351   6.517  2.9034 -0.0463  2.5423
   77SLPC  C214 7010   4.583  -0.197   6.572  0.1213  0.4386  0.6093
   77SLPC  H14R 7011   4.553  -0.148   6.667  3.5686  1.3375  1.3561
   77SLPC  H14S 7012   4.488  -0.204   6.514  0.4012  0.7229  0.1055
   77SLPC  C215 7013   4.683  -0.101   6.489  0.0534 -0.3258 -0.7770
   77SLPC  H15R 7014   4.778  -0.094   6.546 -0.2818  0.4115 -0.2970
   77SLPC  H15S 7015   4.635  -0.002   6.485 -0.5549 -0.6624 -3.2235
   77SLPC  C216 7016   4.715  -0.148   6.347  0.0037 -0.1139  0.4545
   77SLPC  H16R 7017   4.618  -0.167   6.295  0.1889 -1.0262  0.4257
   77SLPC  H16S 7018   4.773  -0.242   6.359  0.0512  0.0920  1.9919
   77SLPC  C217 7019   4.794  -0.042   6.279 -0.4221 -0.1373  0.2300
   77SLPC  H17R 7020   4.878  -0.010   6.345 -0.1180  0.3550 -0.3808
   77SLPC  H17S 7021   4.730   0.046   6.262 -2.2790 -1.6805 -1.1815
   77SLPC  C218 7022   4.850  -0.081   6.140 -0.0392  0.1949  0.9010
   77SLPC  H18R 7023   4.921  -0.004   6.104 -1.0242  1.9433  2.4902
   77SLPC  H18S 7024   4.769  -0.101   6.067  0.9289 -3.2598  0.6125
   77SLPC  H18T 7025   4.904  -0.178   6.148  0.8559  0.5728 -0.3404
   77SLPC   C33 7026   4.417  -0.631   7.504  0.0536  0.6392  0.0611
   77SLPC   H3X 7027   4.338  -0.583   7.564  0.0156 -0.5135  0.9755
   77SLPC   H3Y 7028   4.433  -0.732   7.547 -1.9093  0.2285 -0.1119
   77SLPC   C34 7029   4.358  -0.654   7.365  0.3832 -0.0108 -0.1614
   77SLPC   H4X 7030   4.426  -0.713   7.299  0.9121  1.6617 -1.1872
   77SLPC   H4Y 7031   4.351  -0.548   7.330  0.2268 -0.1528 -0.5632
   77SLPC   C35 7032   4.212  -0.717   7.364 -0.4574  0.5481 -0.1701
   77SLPC   H5X 7033   4.156  -0.655   7.436  1.3456  0.7708  1.0962
   77SLPC   H5Y 7034   4.219  -0.816   7.414  0.4035  1.2152  1.0746
   77SLPC   C36 7035   4.142  -0.726   7.222 -0.0872 -0.6982 -0.5150
   77SLPC   H6X 7036   4.163  -0.625   7.180  2.1442 -2.1274 -3.1761
   77SLPC   H6Y 7037   4.033  -0.742   7.225 -0.7817  2.2819 -3.5980
   77SLPC   C37 7038   4.218  -0.812   7.118  0.6061  0.0638 -0.1826
   77SLPC   H7X 7039   4.176  -0.914   7.131 -1.3421  0.8579  0.1307
   77SLPC   H7Y 7040   4.325  -0.819   7.146  0.7843  0.1403 -0.8190
   77SLPC   C38 7041   4.188  -0.761   6.976 -0.6142 -0.0188  0.5311
   77SLPC   H8X 7042   4.229  -0.658   6.983 -2.1155  0.6563 -0.1544
   77SLPC   H8Y 7043   4.079  -0.747   6.958 -0.5014  1.8691  1.1210
   77SLPC   C39 7044   4.242  -0.856   6.867 -0.1390 -0.6427  0.0649
   77SLPC   H9X 7045   4.212  -0.959   6.896  0.9675 -0.4161  2.2053
   77SLPC   H9Y 7046   4.351  -0.836   6.871  0.2460 -2.7407  2.3442
   77SLPC  C310 7047   4.193  -0.830   6.723 -0.6234  0.2927 -0.3442
   77SLPC  H10X 7048   4.085  -0.850   6.708 -0.8542 -0.3860  1.8320
   77SLPC  H10Y 7049   4.253  -0.898   6.659 -0.6692  1.3882 -1.5933
   77SLPC  C311 7050   4.202  -0.679   6.680 -0.4986 -0.0042 -0.0591
   77SLPC  H11X 7051   4.302  -0.657   6.725 -1.0157 -0.2338  1.2414
   77SLPC  H11Y 7052   4.132  -0.607   6.728  0.0189  1.7025 -1.7193
   77SLPC  C312 7053   4.184  -0.655   6.528 -0.1152  0.3091 -0.1537
   77SLPC  H12X 7054   4.080  -0.691   6.509  0.0314  0.9680 -2.4125
   77SLPC  H12Y 7055   4.259  -0.724   6.484  0.9823  1.0404  0.5123
   77SLPC  C313 7056   4.207  -0.511   6.493  0.2055  0.5815  0.6206
   77SLPC  H13X 7057   4.283  -0.471   6.563  2.7337 -0.4938 -1.3433
   77SLPC  H13Y 7058   4.115  -0.450   6.508 -1.1365 -1.7798  2.5386
   77SLPC  C314 7059   4.255  -0.483   6.351  0.1476 -0.6795 -0.2487
   77SLPC  H14X 7060   4.226  -0.378   6.330  2.1564  0.5421  2.4210
   77SLPC  H14Y 7061   4.214  -0.545   6.268 -1.1871 -1.1534  0.7316
   77SLPC  C315 7062   4.402  -0.493   6.332 -0.1808  0.0727 -0.7731
   77SLPC  H15X 7063   4.421  -0.602   6.343  1.2303  0.5486  2.8443
   77SLPC  H15Y 7064   4.452  -0.444   6.419 -2.6121 -0.4116  0.9940
   77SLPC  C316 7065   4.458  -0.449   6.202  0.0554 -0.7734 -0.0598
   77SLPC  H16X 7066   4.457  -0.339   6.189  4.5291 -0.6766 -1.1647
   77SLPC  H16Y 7067   4.395  -0.495   6.123  0.9644  0.2378 -1.4239
   77SLPC  C317 7068   4.603  -0.490   6.195  0.4995 -0.1410 -0.4177
   77SLPC  H17X 7069   4.614  -0.600   6.208  1.6058 -0.2219 -1.7788
   77SLPC  H17Y 7070   4.648  -0.449   6.288 -1.5590 -0.7510  0.9095
   77SLPC  C318 7071   4.678  -0.454   6.069  0.0035  0.0137 -0.0560
   77SLPC  H18X 7072   4.680  -0.344   6.053 -2.7301 -0.1235 -2.2382
   77SLPC  H18Y 7073   4.626  -0.504   5.984  0.6359  1.1465 -1.1347
   77SLPC  H18Z 7074   4.783  -0.491   6.070 -0.5011 -1.5097 -0.3225
   78SLPC     N 7075   4.508   2.437   8.473 -0.8518  0.3881  0.1560
   78SLPC   C13 7076   4.561   2.428   8.620  0.0409  0.4071  0.1138
   78SLPC  H13A 7077   4.562   2.321   8.638 -2.3566  0.3106 -0.0193
   78SLPC  H13B 7078   4.656   2.477   8.637 -1.7943  3.8695  1.4339
   78SLPC  H13C 7079   4.477   2.461   8.680 -1.3016 -2.1124 -0.2313
   78SLPC   C14 7080   4.374   2.370   8.462  0.4286 -0.0420  0.3320
   78SLPC  H14A 7081   4.302   2.398   8.539 -0.7761 -1.0935 -0.3707
   78SLPC  H14B 7082   4.319   2.383   8.370  1.0533 -1.9016 -0.3474
   78SLPC  H14C 7083   4.399   2.266   8.474  1.3347  0.0366 -0.7781
   78SLPC   C15 7084   4.603   2.347   8.396  0.7100  0.1090 -0.0796
   78SLPC  H15A 7085   4.575   2.333   8.293 -4.3284 -2.1226  1.2724
   78SLPC  H15B 7086   4.705   2.382   8.400  0.6728  0.1740  0.4290
   78SLPC  H15C 7087   4.599   2.246   8.435  1.4429  0.4299  0.8750
   78SLPC   C12 7088   4.508   2.579   8.438 -0.2665  0.2769  0.7629
   78SLPC  H12A 7089   4.610   2.613   8.445 -0.3912  0.6688  0.7227
   78SLPC  H12B 7090   4.462   2.644   8.511  0.3645  0.9990  0.5405
   78SLPC   C11 7091   4.457   2.619   8.300  0.6888 -0.0938  0.5249
   78SLPC  H11A 7092   4.513   2.557   8.227  0.6486  1.5782 -0.9838
   78SLPC  H11B 7093   4.492   2.722   8.277 -0.0479 -0.4037 -2.4937
   78SLPC     P 7094   4.207   2.672   8.351 -0.0670 -0.1656 -0.2195
   78SLPC   O13 7095   4.081   2.594   8.370  0.0271 -0.3647  0.1682
   78SLPC   O14 7096   4.264   2.746   8.465  0.4546  0.1313 -0.2294
   78SLPC   O12 7097   4.321   2.593   8.276  0.4715  0.4395 -0.6222
   78SLPC   O11 7098   4.179   2.777   8.248  0.1546  0.4342 -0.0379
   78SLPC    C1 7099   4.079   2.772   8.147 -0.5397 -0.0187  0.1808
   78SLPC    HA 7100   3.976   2.774   8.190 -1.2400 -0.6241 -1.3950
   78SLPC    HB 7101   4.086   2.867   8.089 -0.8294  1.5273  2.5355
   78SLPC    C2 7102   4.091   2.651   8.055 -0.7885 -0.3082  0.0756
   78SLPC    HS 7103   4.090   2.556   8.113  1.1395  0.2337  1.0954
   78SLPC   O21 7104   4.213   2.667   7.985  0.6462 -0.1864  0.4079
   78SLPC   C21 7105   4.273   2.555   7.946 -0.2025  0.4114 -0.2940
   78SLPC   O22 7106   4.235   2.438   7.974  0.0692 -0.1773 -0.2406
   78SLPC   C22 7107   4.403   2.582   7.869  0.9306 -0.8173  0.3740
   78SLPC   H2R 7108   4.398   2.691   7.847  2.9074 -0.8878 -0.6701
   78SLPC   H2S 7109   4.490   2.559   7.934  2.1256  0.2215 -0.7926
   78SLPC    C3 7110   3.981   2.658   7.952 -0.0541  0.1618 -0.1261
   78SLPC    HX 7111   3.977   2.756   7.899  1.4599 -0.0814 -0.7559
   78SLPC    HY 7112   3.886   2.658   8.010 -0.8542  2.8451 -1.2640
   78SLPC   O31 7113   3.990   2.548   7.855 -0.4213  0.5152  0.4441
   78SLPC   C31 7114   3.913   2.438   7.870 -0.0031  0.4642 -0.2546
   78SLPC   O32 7115   3.816   2.433   7.943  0.1351  0.1321 -0.2487
   78SLPC   C32 7116   3.965   2.327   7.784 -0.3591 -0.1569 -0.2227
   78SLPC   H2X 7117   3.920   2.230   7.813  0.3385 -1.0016 -1.8032
   78SLPC   H2Y 7118   4.076   2.316   7.783 -0.1177  0.3014 -4.8957
   78SLPC   C23 7119   4.414   2.500   7.735 -0.5419 -0.0039 -0.9270
   78SLPC   H3R 7120   4.313   2.490   7.690 -0.4315 -0.5287 -1.0664
   78SLPC   H3S 7121   4.456   2.397   7.741 -0.0329  0.1303 -1.9934
   78SLPC   C24 7122   4.502   2.576   7.642 -0.1575  0.2055 -0.8885
   78SLPC   H4R 7123   4.468   2.681   7.644 -2.0819 -0.4080 -0.0237
   78SLPC   H4S 7124   4.491   2.533   7.540 -1.9097  0.7237 -0.9465
   78SLPC   C25 7125   4.646   2.563   7.686 -0.4804  0.2057  0.2613
   78SLPC   H5R 7126   4.674   2.455   7.693  1.0036  0.5331 -0.1332
   78SLPC   H5S 7127   4.669   2.607   7.785 -1.7426  1.5708 -0.0331
   78SLPC   C26 7128   4.743   2.608   7.570  0.3455 -0.4837 -0.5860
   78SLPC   H6R 7129   4.753   2.719   7.576  1.4654 -0.4709 -2.1100
   78SLPC   H6S 7130   4.697   2.574   7.475  0.1722  2.0358 -1.4807
   78SLPC   C27 7131   4.880   2.536   7.578  0.1935  0.4150  0.7398
   78SLPC   H7R 7132   4.862   2.431   7.545  1.8357  1.2634 -3.5148
   78SLPC   H7S 7133   4.926   2.536   7.680  0.8362 -1.5730  0.5072
   78SLPC   C28 7134   4.985   2.579   7.476 -0.0255  0.3540  0.1844
   78SLPC   H8R 7135   4.982   2.690   7.483 -0.3453  0.3429  0.2657
   78SLPC   H8S 7136   4.939   2.575   7.374 -2.9016  3.8949  1.1156
   78SLPC   C29 7137   5.127   2.523   7.509  0.4313 -1.3782  0.4197
   78SLPC   H9R 7138   5.164   2.533   7.612  1.1303 -2.3475  0.2742
   78SLPC  C210 7139   5.210   2.472   7.418 -0.7118 -0.3947  0.1664
   78SLPC  H10R 7140   5.309   2.440   7.453  0.3844  0.3259 -2.0394
   78SLPC  C211 7141   5.190   2.464   7.269 -0.1479  0.0550 -0.2923
   78SLPC  H11R 7142   5.182   2.568   7.231  1.1918  0.3646  0.1879
   78SLPC  H11S 7143   5.102   2.411   7.228  0.2977 -1.6197  0.8334
   78SLPC  C212 7144   5.307   2.401   7.197  0.1423 -0.0075  0.5683
   78SLPC  H12R 7145   5.342   2.309   7.246  0.7953 -0.7646 -1.2410
   78SLPC  C213 7146   5.345   2.437   7.073  0.2993  0.5801  0.2703
   78SLPC  H13R 7147   5.426   2.389   7.015 -0.6737 -0.9005  0.0964
   78SLPC  C214 7148   5.288   2.551   6.995  0.6732  0.8472 -0.0375
   78SLPC  H14R 7149   5.373   2.622   6.981  1.2102 -0.1178 -1.9450
   78SLPC  H14S 7150   5.201   2.609   7.032 -0.2282 -0.4595 -0.0538
   78SLPC  C215 7151   5.256   2.504   6.846  0.1352  0.8170  0.1047
   78SLPC  H15R 7152   5.171   2.563   6.805 -3.6047 -4.3219 -0.5173
   78SLPC  H15S 7153   5.210   2.404   6.850  0.9883  0.3352 -1.2684
   78SLPC  C216 7154   5.369   2.519   6.742  0.4560  0.2562 -0.6283
   78SLPC  H16R 7155   5.459   2.475   6.790 -0.1532 -0.3228 -0.0026
   78SLPC  H16S 7156   5.392   2.625   6.719  1.0757  0.2416 -0.0912
   78SLPC  C217 7157   5.348   2.461   6.603  0.1151 -1.2257  0.1502
   78SLPC  H17R 7158   5.267   2.523   6.559  0.2465  0.2213  1.8530
   78SLPC  H17S 7159   5.319   2.354   6.611  1.7563 -1.6108  1.3643
   78SLPC  C218 7160   5.474   2.476   6.521 -1.3075  0.1964  0.6199
   78SLPC  H18R 7161   5.462   2.445   6.415  2.6535  0.2366  0.0112
   78SLPC  H18S 7162   5.551   2.409   6.567 -1.2469 -0.0765  0.1232
   78SLPC  H18T 7163   5.513   2.579   6.512  0.6653 -0.6661 -2.0325
   78SLPC   C33 7164   3.947   2.341   7.624 -0.2362  0.5861  0.2952
   78SLPC   H3X 7165   3.845   2.325   7.583  0.4562 -2.2944 -0.5307
   78SLPC   H3Y 7166   4.003   2.253   7.588 -1.9464 -0.6200  0.4493
   78SLPC   C34 7167   4.011   2.469   7.568 -0.4113  0.0093  0.6177
   78SLPC   H4X 7168   4.110   2.498   7.609 -0.1251  0.8047 -0.5661
   78SLPC   H4Y 7169   3.943   2.554   7.591  0.3148  0.7948 -0.0860
   78SLPC   C35 7170   4.026   2.458   7.415  0.2861  0.3794  0.3875
   78SLPC   H5X 7171   4.030   2.552   7.356 -2.2364 -0.1230 -0.7038
   78SLPC   H5Y 7172   3.942   2.393   7.384 -1.7782  2.4731  1.3111
   78SLPC   C36 7173   4.163   2.389   7.372  0.8952 -0.3816 -0.6181
   78SLPC   H6X 7174   4.186   2.303   7.438  0.5980 -1.2687 -1.6307
   78SLPC   H6Y 7175   4.240   2.468   7.384  0.4417 -0.0494  0.1284
   78SLPC   C37 7176   4.166   2.339   7.225  0.0343  0.2621  0.3693
   78SLPC   H7X 7177   4.102   2.248   7.215  1.6058 -0.8171 -0.4614
   78SLPC   H7Y 7178   4.274   2.316   7.210  0.2569 -0.3120  2.5070
   78SLPC   C38 7179   4.105   2.434   7.116 -0.3355 -0.4313  0.1598
   78SLPC   H8X 7180   3.999   2.458   7.139  0.1737  1.3332  0.8069
   78SLPC   H8Y 7181   4.112   2.377   7.021  2.4701 -0.6492  0.4139
   78SLPC   C39 7182   4.181   2.564   7.103 -0.4463  0.4873 -0.5914
   78SLPC   H9X 7183   4.289   2.539   7.112 -0.7755 -1.0985 -0.7187
   78SLPC   H9Y 7184   4.155   2.629   7.190 -0.1438 -0.8783  0.5643
   78SLPC  C310 7185   4.155   2.627   6.968 -0.2844 -0.0797  0.4773
   78SLPC  H10X 7186   4.049   2.615   6.941 -0.3968  0.6743  0.5482
   78SLPC  H10Y 7187   4.202   2.578   6.880  0.5521  0.8358  0.3936
   78SLPC  C311 7188   4.183   2.773   6.956  0.2883  0.4288  0.1921
   78SLPC  H11X 7189   4.120   2.826   7.031 -1.4952 -1.0382 -0.1794
   78SLPC  H11Y 7190   4.152   2.795   6.852 -0.4014 -0.9030  0.0889
   78SLPC  C312 7191   4.334   2.806   6.969  0.0430 -0.2158 -0.4299
   78SLPC  H12X 7192   4.396   2.744   6.901 -0.8128 -1.6820  0.0916
   78SLPC  H12Y 7193   4.352   2.769   7.072  0.6013 -1.6224 -1.0145
   78SLPC  C313 7194   4.360   2.951   6.954 -0.1649 -0.6621  0.0186
   78SLPC  H13X 7195   4.334   3.003   7.048 -1.5960 -1.3049  0.0052
   78SLPC  H13Y 7196   4.315   2.995   6.862 -0.0821 -1.0866 -0.2278
   78SLPC  C314 7197   4.510   2.986   6.939 -0.6032  0.4231 -0.3322
   78SLPC  H14X 7198   4.566   2.933   7.019  0.0081  2.1676  0.4523
   78SLPC  H14Y 7199   4.533   3.094   6.950 -0.9186  0.5054 -0.4771
   78SLPC  C315 7200   4.563   2.927   6.796  0.3495  0.4250 -0.2421
   78SLPC  H15X 7201   4.490   2.967   6.722 -3.4034 -2.5027  1.5307
   78SLPC  H15Y 7202   4.543   2.817   6.798  0.2411  0.4622  0.9146
   78SLPC  C316 7203   4.709   2.968   6.760  0.3012 -0.3687  0.8955
   78SLPC  H16X 7204   4.772   2.920   6.838 -0.0786 -1.0111  0.8194
   78SLPC  H16Y 7205   4.725   3.078   6.762 -0.2142 -0.2006 -1.3330
   78SLPC  C317 7206   4.751   2.915   6.618  0.0579 -0.1538  0.3645
   78SLPC  H17X 7207   4.688   2.976   6.550  0.0063  0.8803  1.3184
   78SLPC  H17Y 7208   4.725   2.809   6.597 -1.1741  0.4658 -1.4601
   78SLPC  C318 7209   4.901   2.921   6.596  0.2282 -1.1369 -0.6255
   78SLPC  H18X 7210   4.952   3.020   6.597 -0.9834 -0.4477  2.1786
   78SLPC  H18Y 7211   4.919   2.893   6.490  0.5583  1.8162 -1.4594
   78SLPC  H18Z 7212   4.959   2.861   6.669 -1.9784 -2.4275  0.1241
   79SLPC     N 7213   5.550   5.108   8.147  0.2065  0.5936 -0.5929
   79SLPC   C13 7214   5.463   5.009   8.227  0.2042 -0.3121 -0.2826
   79SLPC  H13A 7215   5.466   5.028   8.333  1.3939  0.0746 -0.3595
   79SLPC  H13B 7216   5.361   5.007   8.194  0.2244 -2.1465 -0.3411
   79SLPC  H13C 7217   5.497   4.906   8.221  3.0031  0.5221 -0.2268
   79SLPC   C14 7218   5.528   5.239   8.204 -0.5776 -0.7695 -0.0652
   79SLPC  H14A 7219   5.579   5.317   8.148 -0.8809  0.3144  1.1383
   79SLPC  H14B 7220   5.423   5.262   8.208 -0.4248 -0.1973  0.9414
   79SLPC  H14C 7221   5.571   5.249   8.302  1.1532  0.3258 -0.8829
   79SLPC   C15 7222   5.518   5.095   8.002 -0.0518  0.0005  0.1256
   79SLPC  H15A 7223   5.415   5.107   7.971  0.3103 -0.8674 -1.5490
   79SLPC  H15B 7224   5.574   5.165   7.942 -1.9950  0.8182 -0.8408
   79SLPC  H15C 7225   5.539   4.994   7.969 -2.9856 -0.1738 -1.5407
   79SLPC   C12 7226   5.700   5.073   8.166 -0.3105  0.3876  0.4948
   79SLPC  H12A 7227   5.711   4.966   8.151 -0.0096  0.4959 -0.0748
   79SLPC  H12B 7228   5.730   5.096   8.267 -0.7987  2.6243  0.1714
   79SLPC   C11 7229   5.802   5.132   8.064  0.0112 -0.0557 -0.1440
   79SLPC  H11A 7230   5.767   5.070   7.979 -2.4988 -0.7456  1.2959
   79SLPC  H11B 7231   5.909   5.106   8.081  0.1829  1.4239  1.2811
   79SLPC     P 7232   5.898   5.369   8.110  0.5825 -0.2037  0.2974
   79SLPC   O13 7233   5.835   5.502   8.119  0.3120 -0.2769 -0.4282
   79SLPC   O14 7234   5.948   5.305   8.236  0.8744 -0.3653 -0.5924
   79SLPC   O12 7235   5.795   5.267   8.037 -0.0631  0.1247  0.0765
   79SLPC   O11 7236   6.027   5.373   8.008 -0.2148  0.1746  0.4113
   79SLPC    C1 7237   6.123   5.267   8.020 -0.1808 -0.1023  0.0944
   79SLPC    HA 7238   6.183   5.270   8.114  2.0284  0.5175 -1.2452
   79SLPC    HB 7239   6.073   5.168   8.024  0.0226 -0.2342 -0.5344
   79SLPC    C2 7240   6.220   5.256   7.901  0.6856 -0.0251 -0.4660
   79SLPC    HS 7241   6.294   5.176   7.924 -0.6799 -0.7510  1.7836
   79SLPC   O21 7242   6.282   5.388   7.882 -0.0069 -0.1701 -0.0955
   79SLPC   C21 7243   6.388   5.389   7.804  0.5608 -0.2839 -0.5149
   79SLPC   O22 7244   6.449   5.287   7.771 -0.3377  0.2880 -0.1228
   79SLPC   C22 7245   6.430   5.534   7.790 -0.6409 -0.0499 -0.3104
   79SLPC   H2R 7246   6.342   5.602   7.792  0.2305  1.1437 -0.9806
   79SLPC   H2S 7247   6.488   5.565   7.880 -1.5548 -1.0735  0.6657
   79SLPC    C3 7248   6.130   5.217   7.779 -0.0579  0.0646  0.7386
   79SLPC    HX 7249   6.069   5.310   7.775  0.6522  0.7256  3.2048
   79SLPC    HY 7250   6.060   5.132   7.794 -0.6949  0.2471 -1.0457
   79SLPC   O31 7251   6.201   5.202   7.653 -0.3096 -0.1230  0.0327
   79SLPC   C31 7252   6.271   5.094   7.651 -0.6053  0.0304 -0.6800
   79SLPC   O32 7253   6.267   5.001   7.733 -0.4024 -0.1084 -0.2684
   79SLPC   C32 7254   6.356   5.092   7.527 -1.1265  0.1559  0.5879
   79SLPC   H2X 7255   6.461   5.067   7.555 -0.7615  1.0023  0.0404
   79SLPC   H2Y 7256   6.372   5.194   7.485  1.2250 -0.7688 -1.0319
   79SLPC   C23 7257   6.521   5.574   7.673  1.2192 -0.2683  0.1232
   79SLPC   H3R 7258   6.624   5.533   7.674  0.0640 -3.4302  1.5768
   79SLPC   H3S 7259   6.531   5.684   7.662  1.4537 -0.5658 -4.7201
   79SLPC   C24 7260   6.454   5.518   7.540 -0.0917 -0.8212 -0.2868
   79SLPC   H4R 7261   6.357   5.571   7.532  1.5147  2.3207 -0.9028
   79SLPC   H4S 7262   6.446   5.408   7.544  0.2265 -0.8164  2.8927
   79SLPC   C25 7263   6.538   5.551   7.411 -0.3777  0.3877  0.4121
   79SLPC   H5R 7264   6.639   5.507   7.424 -0.2170  0.8153  0.6280
   79SLPC   H5S 7265   6.549   5.661   7.395 -0.4234  0.0871 -2.2352
   79SLPC   C26 7266   6.475   5.506   7.281 -0.9810  0.1780  0.5589
   79SLPC   H6R 7267   6.386   5.571   7.268 -0.8537  0.4812  1.1550
   79SLPC   H6S 7268   6.444   5.400   7.283 -1.4761  0.3263  2.4139
   79SLPC   C27 7269   6.569   5.532   7.161 -0.0934 -0.0618  0.3098
   79SLPC   H7R 7270   6.652   5.459   7.167 -0.2075 -0.1707  0.5747
   79SLPC   H7S 7271   6.608   5.636   7.156 -1.3398  0.4965  1.5279
   79SLPC   C28 7272   6.504   5.515   7.023 -0.2618  0.6561  0.6209
   79SLPC   H8R 7273   6.581   5.565   6.961 -0.9749  1.9983  0.7843
   79SLPC   H8S 7274   6.406   5.565   7.006 -0.3009 -0.0109 -1.3258
   79SLPC   C29 7275   6.491   5.369   6.978 -0.0291  0.0271  0.4128
   79SLPC   H9R 7276   6.465   5.294   7.054  1.1000 -0.3412  0.4594
   79SLPC  C210 7277   6.519   5.333   6.852  0.4874  1.2207 -0.0066
   79SLPC  H10R 7278   6.515   5.224   6.837  0.8064  1.0200  1.2019
   79SLPC  C211 7279   6.557   5.417   6.733  0.2720 -0.0376  0.4081
   79SLPC  H11R 7280   6.630   5.368   6.666 -0.9143 -0.1805 -0.8409
   79SLPC  H11S 7281   6.617   5.504   6.767 -2.4329  1.2922  2.1884
   79SLPC  C212 7282   6.432   5.460   6.662  0.4469  0.2513 -0.0339
   79SLPC  H12R 7283   6.384   5.548   6.708  0.1768 -0.4192  0.9903
   79SLPC  C213 7284   6.360   5.397   6.564  0.3513 -0.1254  0.3069
   79SLPC  H13R 7285   6.265   5.445   6.534  1.9003  2.4946 -0.7983
   79SLPC  C214 7286   6.396   5.274   6.476 -0.0531 -0.9708 -0.5847
   79SLPC  H14R 7287   6.306   5.218   6.443 -0.3175 -0.0519 -1.4562
   79SLPC  H14S 7288   6.458   5.220   6.551  0.2956  0.4832  0.2027
   79SLPC  C215 7289   6.481   5.324   6.354 -0.4480 -0.1226 -0.1158
   79SLPC  H15R 7290   6.578   5.352   6.399 -1.4392  0.7198  1.5822
   79SLPC  H15S 7291   6.433   5.418   6.320  1.4476  0.6731 -0.7179
   79SLPC  C216 7292   6.481   5.230   6.231  0.6740 -0.1945 -0.0743
   79SLPC  H16R 7293   6.374   5.222   6.202  0.7850 -1.6176 -0.1818
   79SLPC  H16S 7294   6.514   5.130   6.266 -0.7639 -0.4736  0.5605
   79SLPC  C217 7295   6.560   5.282   6.109 -0.0358  0.0391  0.3519
   79SLPC  H17R 7296   6.559   5.393   6.106 -3.0777  0.0993 -0.7538
   79SLPC  H17S 7297   6.520   5.246   6.011  1.0365 -0.7173  0.1722
   79SLPC  C218 7298   6.707   5.227   6.122  0.0358 -0.7576  0.2305
   79SLPC  H18R 7299   6.743   5.274   6.216 -0.4173  0.6621 -0.2848
   79SLPC  H18S 7300   6.776   5.258   6.041 -0.3258 -3.1004 -1.0835
   79SLPC  H18T 7301   6.696   5.117   6.131 -3.0993 -0.4934  0.8137
   79SLPC   C33 7302   6.292   5.011   7.411 -0.6836  0.0420 -0.2475
   79SLPC   H3X 7303   6.186   5.041   7.399 -0.5851  1.3644  1.7251
   79SLPC   H3Y 7304   6.289   4.902   7.431  0.8145  0.3877  2.2415
   79SLPC   C34 7305   6.366   5.028   7.277 -0.1519  0.4570  1.1171
   79SLPC   H4X 7306   6.475   5.011   7.287 -0.4705 -1.5062  1.7201
   79SLPC   H4Y 7307   6.336   5.129   7.242 -0.0368 -0.5062 -2.0198
   79SLPC   C35 7308   6.324   4.928   7.157  0.3291 -0.1506 -0.4597
   79SLPC   H5X 7309   6.218   4.936   7.125  1.0364  0.5611 -2.8282
   79SLPC   H5Y 7310   6.346   4.823   7.186  0.2258 -0.4779 -1.5497
   79SLPC   C36 7311   6.401   4.958   7.026  0.3171  0.0522  0.1511
   79SLPC   H6X 7312   6.512   4.966   7.027  0.4294 -0.5735 -1.7695
   79SLPC   H6Y 7313   6.371   5.063   7.006 -1.9246  0.0561  2.9265
   79SLPC   C37 7314   6.354   4.863   6.915 -0.0540 -0.3949 -0.6192
   79SLPC   H7X 7315   6.243   4.860   6.909  0.0153 -1.6861 -1.6456
   79SLPC   H7Y 7316   6.384   4.758   6.934  0.4353 -0.2151 -0.3934
   79SLPC   C38 7317   6.398   4.904   6.773 -0.3651  0.9781  0.0450
   79SLPC   H8X 7318   6.509   4.911   6.769 -0.1934 -1.5741 -1.8493
   79SLPC   H8Y 7319   6.351   5.001   6.747 -1.9315  0.0614 -0.6833
   79SLPC   C39 7320   6.337   4.822   6.661 -0.1010 -0.2738  0.6471
   79SLPC   H9X 7321   6.229   4.844   6.651  0.0753  0.5085  0.3800
   79SLPC   H9Y 7322   6.341   4.715   6.690  1.3233 -0.3655  0.2112
   79SLPC  C310 7323   6.399   4.840   6.517  0.1871 -0.5735  0.3490
   79SLPC  H10X 7324   6.502   4.804   6.538  0.0629 -0.2491  1.6130
   79SLPC  H10Y 7325   6.404   4.949   6.498 -0.7439 -0.4523  0.7273
   79SLPC  C311 7326   6.325   4.761   6.410 -0.4576 -0.6112  0.0961
   79SLPC  H11X 7327   6.217   4.787   6.404 -0.4975 -0.7844  0.0648
   79SLPC  H11Y 7328   6.334   4.654   6.439 -0.4043 -0.4404  0.7304
   79SLPC  C312 7329   6.398   4.773   6.276  0.0892  0.0982  0.1406
   79SLPC  H12X 7330   6.494   4.719   6.283  0.5909  1.0266  0.5485
   79SLPC  H12Y 7331   6.406   4.883   6.267 -1.6351  0.3198  0.9341
   79SLPC  C313 7332   6.329   4.719   6.148  0.5628  0.0097 -0.0584
   79SLPC  H13X 7333   6.239   4.775   6.115  1.5159 -0.3158 -3.5898
   79SLPC  H13Y 7334   6.289   4.620   6.176 -1.5200  0.4257 -1.2909
   79SLPC  C314 7335   6.421   4.724   6.029  0.6021  0.0011  0.8540
   79SLPC  H14X 7336   6.525   4.698   6.058  1.3815  0.6561 -1.1918
   79SLPC  H14Y 7337   6.428   4.828   5.991  0.7091 -0.5305 -0.6681
   79SLPC  C315 7338   6.365   4.636   5.909 -0.0863 -0.2495  0.2504
   79SLPC  H15X 7339   6.293   4.706   5.861 -0.4535 -0.2985  0.7246
   79SLPC  H15Y 7340   6.303   4.557   5.956 -0.4682  1.0072  1.9513
   79SLPC  C316 7341   6.479   4.577   5.838 -0.1717  0.4174  0.4223
   79SLPC  H16X 7342   6.565   4.640   5.808 -0.1618 -0.8869 -2.6447
   79SLPC  H16Y 7343   6.425   4.531   5.752 -2.2452 -0.7078  2.2051
   79SLPC  C317 7344   6.541   4.454   5.909  0.6997 -0.6005 -0.2144
   79SLPC  H17X 7345   6.463   4.394   5.960 -0.6832  0.5608 -0.9090
   79SLPC  H17Y 7346   6.602   4.488   5.996 -0.5065 -2.3398  1.3719
   79SLPC  C318 7347   6.628   4.371   5.824 -0.4548  0.2473  0.1252
   79SLPC  H18X 7348   6.720   4.429   5.800  1.5799 -2.4114  0.9967
   79SLPC  H18Y 7349   6.581   4.349   5.726 -0.5216  0.4024  0.1224
   79SLPC  H18Z 7350   6.658   4.277   5.874 -0.6700 -0.9569 -1.9325
   80SLPC     N 7351   5.595   2.092   8.011  0.8585  0.5611  0.1259
   80SLPC   C13 7352   5.633   1.954   8.054 -0.2628 -0.3796  0.4189
   80SLPC  H13A 7353   5.697   1.900   7.987 -1.0394  1.9768 -2.4138
   80SLPC  H13B 7354   5.682   1.966   8.150 -0.5502 -3.8676  1.1260
   80SLPC  H13C 7355   5.545   1.895   8.074 -1.4667  1.3562  0.4859
   80SLPC   C14 7356   5.529   2.157   8.133 -0.4593 -0.1850  0.0828
   80SLPC  H14A 7357   5.474   2.245   8.103  0.1286  0.8827  1.9788
   80SLPC  H14B 7358   5.452   2.095   8.179 -0.2723  0.1439  0.8557
   80SLPC  H14C 7359   5.600   2.175   8.212 -0.0140 -3.1520  0.4787
   80SLPC   C15 7360   5.494   2.085   7.906 -0.1601  0.0298 -0.3437
   80SLPC  H15A 7361   5.485   2.181   7.857  1.8010  0.5189  0.1787
   80SLPC  H15B 7362   5.526   2.024   7.823 -2.7120 -0.1747 -1.2719
   80SLPC  H15C 7363   5.396   2.061   7.945  0.3659  0.1744  1.1441
   80SLPC   C12 7364   5.718   2.160   7.954 -0.2136 -0.3626 -0.2080
   80SLPC  H12A 7365   5.789   2.170   8.035  0.2635  1.1956 -0.7972
   80SLPC  H12B 7366   5.690   2.262   7.933 -0.6715 -0.1600  1.2666
   80SLPC   C11 7367   5.800   2.100   7.835 -0.7528  0.1384 -0.4961
   80SLPC  H11A 7368   5.860   2.177   7.782  0.8801 -0.0010  1.0360
   80SLPC  H11B 7369   5.729   2.070   7.756 -0.0942  0.0923 -1.0853
   80SLPC     P 7370   6.039   1.999   7.904 -0.2945  0.1364 -0.3633
   80SLPC   O13 7371   6.064   2.134   7.965 -0.6653  0.3652  0.8654
   80SLPC   O14 7372   6.086   1.882   7.987  0.5520 -0.1685  0.6304
   80SLPC   O12 7373   5.883   1.984   7.867 -0.4472 -0.2103 -0.4698
   80SLPC   O11 7374   6.121   1.992   7.760  0.1049  0.1108  0.6512
   80SLPC    C1 7375   6.051   1.906   7.665  0.3357 -0.3844 -0.6616
   80SLPC    HA 7376   6.143   1.863   7.620  0.6033 -0.2860 -0.2147
   80SLPC    HB 7377   5.992   1.825   7.714 -0.7889  1.2668  0.8688
   80SLPC    C2 7378   5.970   1.979   7.557 -0.4111 -0.1802 -0.2774
   80SLPC    HS 7379   5.876   2.001   7.612 -0.3908  2.6783 -1.2187
   80SLPC   O21 7380   5.958   1.902   7.435 -0.1103  0.5547  0.2491
   80SLPC   C21 7381   5.892   1.786   7.450  0.2261 -0.1095  0.4035
   80SLPC   O22 7382   5.818   1.753   7.544 -0.3373 -0.2975 -0.1831
   80SLPC   C22 7383   5.901   1.710   7.316 -0.0347 -0.1198  0.5902
   80SLPC   H2R 7384   5.979   1.756   7.252 -1.6829  1.9808 -0.0281
   80SLPC   H2S 7385   5.907   1.600   7.326 -1.4088 -0.2646 -0.0731
   80SLPC    C3 7386   6.028   2.118   7.525  0.3169 -0.2514  0.8574
   80SLPC    HX 7387   6.137   2.105   7.510  0.1201 -2.1614  0.8637
   80SLPC    HY 7388   6.015   2.189   7.609 -0.0810  1.8748 -0.9063
   80SLPC   O31 7389   5.973   2.172   7.404 -0.7244 -0.1051 -0.0162
   80SLPC   C31 7390   5.866   2.243   7.409 -0.8165 -0.1310  0.6319
   80SLPC   O32 7391   5.798   2.268   7.503  0.1066 -0.8587  0.2826
   80SLPC   C32 7392   5.832   2.312   7.274  0.0997 -0.3670  0.2016
   80SLPC   H2X 7393   5.915   2.300   7.201  1.0238  2.7247  0.5926
   80SLPC   H2Y 7394   5.833   2.422   7.291 -0.0862 -0.5320  1.3999
   80SLPC   C23 7395   5.779   1.727   7.227 -0.0549  0.6435 -0.5797
   80SLPC   H3R 7396   5.763   1.837   7.218 -0.7254  0.4338 -2.3623
   80SLPC   H3S 7397   5.685   1.680   7.263 -0.8750  2.7405  0.1553
   80SLPC   C24 7398   5.811   1.655   7.097  0.0601 -0.1362  0.2836
   80SLPC   H4R 7399   5.810   1.547   7.124 -0.4206 -0.1384  0.2623
   80SLPC   H4S 7400   5.914   1.681   7.064  0.1783  0.3658  1.0409
   80SLPC   C25 7401   5.704   1.676   6.983 -0.5412  0.7082 -0.1282
   80SLPC   H5R 7402   5.668   1.781   6.987 -0.8233  0.5954  3.5395
   80SLPC   H5S 7403   5.626   1.604   7.013  1.0663 -0.7175  0.8376
   80SLPC   C26 7404   5.758   1.648   6.837 -0.4823 -0.2615  0.0685
   80SLPC   H6R 7405   5.781   1.541   6.820  2.3368  0.4334 -0.9361
   80SLPC   H6S 7406   5.848   1.707   6.810 -0.9582  0.0147 -0.9851
   80SLPC   C27 7407   5.644   1.676   6.739 -0.2436  0.0559 -0.1567
   80SLPC   H7R 7408   5.592   1.772   6.762  0.3802 -0.0492  1.9146
   80SLPC   H7S 7409   5.565   1.602   6.766  1.2336 -1.1979  0.8948
   80SLPC   C28 7410   5.688   1.652   6.596 -0.3828  0.3886  0.1161
   80SLPC   H8R 7411   5.729   1.549   6.596 -1.0413  0.1177 -1.1680
   80SLPC   H8S 7412   5.754   1.736   6.566 -0.2996  0.4471  0.4569
   80SLPC   C29 7413   5.573   1.655   6.502  0.3941  0.4397  0.1800
   80SLPC   H9R 7414   5.496   1.733   6.498 -0.8083 -0.7600 -3.0197
   80SLPC  C210 7415   5.558   1.555   6.411 -0.5309 -0.3939  0.2133
   80SLPC  H10R 7416   5.478   1.562   6.335 -0.0118  0.1485 -0.2868
   80SLPC  C211 7417   5.641   1.441   6.378 -0.1756 -0.1673 -0.4159
   80SLPC  H11R 7418   5.606   1.356   6.440 -1.1950  2.0074  2.1849
   80SLPC  H11S 7419   5.745   1.456   6.416  0.3058 -2.5237 -0.6408
   80SLPC  C212 7420   5.658   1.407   6.230  0.7168  0.0487 -1.1518
   80SLPC  H12R 7421   5.732   1.475   6.185  1.4819 -0.1321 -0.1958
   80SLPC  C213 7422   5.587   1.317   6.157 -0.2898  0.1958 -0.1734
   80SLPC  H13R 7423   5.618   1.311   6.051 -0.2750 -1.3479 -0.1027
   80SLPC  C214 7424   5.477   1.214   6.198  0.6064 -0.6597 -0.0651
   80SLPC  H14R 7425   5.442   1.222   6.303  0.3292  2.1775 -0.3087
   80SLPC  H14S 7426   5.524   1.115   6.180  0.3298 -1.2737  2.3473
   80SLPC  C215 7427   5.354   1.217   6.109  0.2425  0.5272  0.0918
   80SLPC  H15R 7428   5.304   1.315   6.120  0.2225  0.3747  1.5870
   80SLPC  H15S 7429   5.284   1.137   6.141  0.7973  0.6909  1.8229
   80SLPC  C216 7430   5.369   1.218   5.957  0.0804  0.0447 -0.4938
   80SLPC  H16R 7431   5.437   1.296   5.916 -0.3655  0.0697 -1.2084
   80SLPC  H16S 7432   5.270   1.235   5.910  1.3580  2.2338 -2.6014
   80SLPC  C217 7433   5.424   1.075   5.903  0.4201 -0.7607  0.1134
   80SLPC  H17R 7434   5.345   1.004   5.934 -0.7961 -0.2923 -1.7737
   80SLPC  H17S 7435   5.508   1.056   5.973  0.0645  2.7026  1.6952
   80SLPC  C218 7436   5.449   1.055   5.755  0.0632 -0.1371  1.2906
   80SLPC  H18R 7437   5.505   0.961   5.736  1.5825  0.8417  0.7667
   80SLPC  H18S 7438   5.507   1.137   5.708  2.8341 -3.5422 -1.7964
   80SLPC  H18T 7439   5.361   1.042   5.689  2.1460 -0.6575 -1.5698
   80SLPC   C33 7440   5.689   2.279   7.227  0.2188  0.4730 -0.2552
   80SLPC   H3X 7441   5.656   2.347   7.147  3.0105 -0.5395 -2.4412
   80SLPC   H3Y 7442   5.616   2.310   7.305 -2.7927 -1.9864 -1.8601
   80SLPC   C34 7443   5.676   2.131   7.193  0.1036  0.2379  0.9469
   80SLPC   H4X 7444   5.573   2.104   7.160  0.3991 -1.7272  1.5222
   80SLPC   H4Y 7445   5.701   2.068   7.281  0.7217 -0.3012  0.3902
   80SLPC   C35 7446   5.757   2.089   7.063 -0.2329  0.2154 -0.4684
   80SLPC   H5X 7447   5.755   1.979   7.049  0.8658 -0.1493  1.6942
   80SLPC   H5Y 7448   5.863   2.106   7.091 -0.3282  1.2541 -0.7069
   80SLPC   C36 7449   5.729   2.177   6.941  0.0090  0.0847 -0.0297
   80SLPC   H6X 7450   5.813   2.155   6.871  1.2839 -0.7181  1.7020
   80SLPC   H6Y 7451   5.725   2.284   6.970 -0.3578 -0.0060  0.2708
   80SLPC   C37 7452   5.608   2.118   6.857  0.3804  1.1357  0.0218
   80SLPC   H7X 7453   5.608   2.008   6.871 -3.1700  0.6690 -2.3194
   80SLPC   H7Y 7454   5.630   2.130   6.749 -2.3361 -0.5204 -0.8174
   80SLPC   C38 7455   5.464   2.167   6.875 -0.5406 -0.0225 -0.7220
   80SLPC   H8X 7456   5.455   2.264   6.822 -3.6135  1.2587  1.7915
   80SLPC   H8Y 7457   5.439   2.182   6.983  0.9257 -0.3588 -0.3154
   80SLPC   C39 7458   5.367   2.066   6.809  0.0089  0.0803 -0.2134
   80SLPC   H9X 7459   5.268   2.088   6.853  0.1520  1.1830 -0.4256
   80SLPC   H9Y 7460   5.398   1.967   6.849  1.6521 -0.3815 -2.4016
   80SLPC  C310 7461   5.347   2.065   6.655 -0.0801 -0.2153  0.4313
   80SLPC  H10X 7462   5.442   2.053   6.599 -0.3326 -0.3360  0.0207
   80SLPC  H10Y 7463   5.330   2.172   6.631  3.7097  0.5240  0.4291
   80SLPC  C311 7464   5.234   1.981   6.596 -0.1247 -0.2465 -0.0185
   80SLPC  H11X 7465   5.137   2.021   6.632  0.6034  0.3202  1.3689
   80SLPC  H11Y 7466   5.253   1.875   6.622 -0.8585 -0.8592 -1.7793
   80SLPC  C312 7467   5.234   1.989   6.437  0.3716  0.0020 -0.2066
   80SLPC  H12X 7468   5.148   1.933   6.395  0.8077 -1.1677  0.4079
   80SLPC  H12Y 7469   5.322   1.940   6.390  0.8491  1.4900 -0.9033
   80SLPC  C313 7470   5.226   2.132   6.373  0.4486 -0.3089  0.1523
   80SLPC  H13X 7471   5.307   2.192   6.420 -0.7092  0.8943  0.7000
   80SLPC  H13Y 7472   5.127   2.172   6.405 -0.3485 -1.8594 -0.2669
   80SLPC  C314 7473   5.249   2.135   6.230 -0.3982  0.5523  0.1400
   80SLPC  H14X 7474   5.165   2.086   6.176  0.6147 -0.6745 -0.3811
   80SLPC  H14Y 7475   5.335   2.073   6.197  1.3991  2.5296  0.8785
   80SLPC  C315 7476   5.263   2.277   6.171  0.0680  0.6441  0.4993
   80SLPC  H15X 7477   5.353   2.322   6.218  0.9881 -0.9338  0.3295
   80SLPC  H15Y 7478   5.173   2.334   6.203  0.0610  0.1123  1.4578
   80SLPC  C316 7479   5.272   2.294   6.021 -0.3988 -0.7645 -1.0477
   80SLPC  H16X 7480   5.301   2.198   5.972  0.2481 -0.9012 -0.4235
   80SLPC  H16Y 7481   5.353   2.366   5.998 -1.4590  0.6127 -0.6297
   80SLPC  C317 7482   5.136   2.335   5.955 -0.5057 -0.1726 -0.3450
   80SLPC  H17X 7483   5.109   2.442   5.967  2.0327  0.5396 -0.5584
   80SLPC  H17Y 7484   5.056   2.264   5.987  0.2592 -0.9271 -0.0905
   80SLPC  C318 7485   5.145   2.324   5.804  0.0431  0.5578 -0.1275
   80SLPC  H18X 7486   5.230   2.387   5.772 -0.7426  1.0203 -1.3952
   80SLPC  H18Y 7487   5.063   2.372   5.745 -0.4857 -0.0197  0.1310
   80SLPC  H18Z 7488   5.155   2.220   5.766 -0.2761  0.7014 -0.6180
   81SLPC     N 7489   6.303   4.953   3.467 -0.4386  0.1620 -0.3196
   81SLPC   C13 7490   6.267   4.958   3.324 -0.0135  0.2683  0.1637
   81SLPC  H13A 7491   6.184   5.027   3.319 -0.1373  0.0371 -1.2713
   81SLPC  H13B 7492   6.352   4.991   3.267 -1.6444  2.5524 -1.0828
   81SLPC  H13C 7493   6.230   4.860   3.296 -2.3883  0.2936  2.7504
   81SLPC   C14 7494   6.179   4.927   3.540  0.1610 -0.3616 -0.4523
   81SLPC  H14A 7495   6.194   4.921   3.647 -0.3283 -0.7668 -0.4017
   81SLPC  H14B 7496   6.102   4.999   3.520 -0.3707 -0.6887  0.3850
   81SLPC  H14C 7497   6.136   4.831   3.514 -1.4419  0.6875 -1.8611
   81SLPC   C15 7498   6.365   5.084   3.510 -0.4667  0.6230  0.2530
   81SLPC  H15A 7499   6.455   5.105   3.454  0.2114 -1.8733  0.2612
   81SLPC  H15B 7500   6.297   5.163   3.483  1.3539  1.6660 -1.5452
   81SLPC  H15C 7501   6.397   5.087   3.613 -1.8839 -0.2032  0.7624
   81SLPC   C12 7502   6.401   4.839   3.483 -0.0166 -0.0969 -0.5489
   81SLPC  H12A 7503   6.489   4.859   3.424 -0.1825 -1.3757 -1.2760
   81SLPC  H12B 7504   6.349   4.754   3.441 -0.8425  0.9628 -1.7528
   81SLPC   C11 7505   6.443   4.799   3.624 -0.0351  0.2309 -0.9839
   81SLPC  H11A 7506   6.356   4.780   3.690 -0.4161  0.4909 -1.4049
   81SLPC  H11B 7507   6.496   4.886   3.667  0.0959 -0.1673 -0.3253
   81SLPC     P 7508   6.489   4.535   3.607  0.1415 -0.0502  0.1034
   81SLPC   O13 7509   6.383   4.527   3.506  0.7361  0.0166  0.1437
   81SLPC   O14 7510   6.607   4.450   3.588 -0.0749 -0.3012  0.2493
   81SLPC   O12 7511   6.535   4.682   3.625  0.0456  0.3875  0.7741
   81SLPC   O11 7512   6.424   4.506   3.744  0.2760 -0.1345 -0.3196
   81SLPC    C1 7513   6.477   4.503   3.878  0.1045  0.5227  0.9944
   81SLPC    HA 7514   6.466   4.402   3.922  0.3247  0.6238  1.2837
   81SLPC    HB 7515   6.581   4.540   3.884  0.8244 -0.1641 -3.6404
   81SLPC    C2 7516   6.391   4.580   3.971  0.4697  0.4214  0.0983
   81SLPC    HS 7517   6.399   4.690   3.957 -3.2434  0.5644 -2.1405
   81SLPC   O21 7518   6.419   4.543   4.110  0.2805 -0.2969 -0.1116
   81SLPC   C21 7519   6.522   4.615   4.154 -0.1233  0.0292  0.3540
   81SLPC   O22 7520   6.596   4.682   4.086 -0.4165 -0.2452  0.0675
   81SLPC   C22 7521   6.522   4.605   4.307  0.1649  0.0235 -0.3931
   81SLPC   H2R 7522   6.446   4.674   4.350  0.7899  0.4997 -0.0575
   81SLPC   H2S 7523   6.496   4.498   4.327 -1.1215  0.2864 -0.5198
   81SLPC    C3 7524   6.234   4.554   3.933 -0.1951  0.3126  0.0595
   81SLPC    HX 7525   6.207   4.446   3.944 -0.9778 -0.0945 -4.1916
   81SLPC    HY 7526   6.219   4.581   3.827 -1.1464 -0.0846  0.0813
   81SLPC   O31 7527   6.145   4.638   4.019 -0.3538  1.0121 -0.0284
   81SLPC   C31 7528   6.154   4.770   3.994  0.2533  0.1363  0.2406
   81SLPC   O32 7529   6.205   4.822   3.895  0.0437 -0.3920  0.3741
   81SLPC   C32 7530   6.089   4.843   4.104  0.5457  0.2042 -0.4533
   81SLPC   H2X 7531   6.055   4.774   4.185  1.0936  1.3326  0.7785
   81SLPC   H2Y 7532   5.995   4.859   4.047 -0.6026 -2.4959  0.4872
   81SLPC   C23 7533   6.659   4.643   4.364  0.2164  0.3588  0.4110
   81SLPC   H3R 7534   6.681   4.744   4.325  0.6526  0.7538  1.6446
   81SLPC   H3S 7535   6.743   4.576   4.335  0.4341  0.0605  1.6707
   81SLPC   C24 7536   6.657   4.651   4.516 -0.4242 -0.3906 -0.0442
   81SLPC   H4R 7537   6.633   4.757   4.537 -0.5743 -0.1841 -1.1849
   81SLPC   H4S 7538   6.758   4.629   4.556 -0.8231 -0.4983  0.9207
   81SLPC   C25 7539   6.563   4.555   4.579 -0.1329  0.7736 -0.5864
   81SLPC   H5R 7540   6.595   4.453   4.551  0.7617 -0.0047  2.7794
   81SLPC   H5S 7541   6.459   4.586   4.554  0.4942  2.0777 -1.7579
   81SLPC   C26 7542   6.578   4.557   4.735 -0.4824  0.2588 -0.0144
   81SLPC   H6R 7543   6.654   4.484   4.769 -0.1552  0.3545 -0.5149
   81SLPC   H6S 7544   6.484   4.509   4.768  1.0014 -3.2426 -0.4963
   81SLPC   C27 7545   6.596   4.693   4.806 -0.3007 -0.0601 -0.2072
   81SLPC   H7R 7546   6.520   4.772   4.785  2.3240  2.6972 -0.0252
   81SLPC   H7S 7547   6.698   4.729   4.783 -0.0396 -0.6583  0.0004
   81SLPC   C28 7548   6.580   4.679   4.960 -0.2291  0.2442 -0.3187
   81SLPC   H8R 7549   6.471   4.674   4.981  0.0223 -0.7361  0.9021
   81SLPC   H8S 7550   6.611   4.777   5.004 -1.6849  0.5507  0.0726
   81SLPC   C29 7551   6.659   4.565   5.022 -0.2581 -0.0707 -0.2089
   81SLPC   H9R 7552   6.763   4.554   4.986  0.4170  1.4898  1.1415
   81SLPC  C210 7553   6.610   4.471   5.114 -0.2572  0.2237  0.2866
   81SLPC  H10R 7554   6.678   4.403   5.168 -0.6268 -1.0700 -0.8337
   81SLPC  C211 7555   6.473   4.456   5.180  0.4062 -0.8248  0.0560
   81SLPC  H11R 7556   6.393   4.510   5.125  0.8304  0.1076  0.3331
   81SLPC  H11S 7557   6.480   4.499   5.283  0.7728 -0.8039  0.0227
   81SLPC  C212 7558   6.412   4.320   5.185 -0.0073  0.3964  0.3141
   81SLPC  H12R 7559   6.440   4.253   5.101  0.1137  1.4440 -0.5059
   81SLPC  C213 7560   6.329   4.274   5.274  0.4843  0.4042 -0.5269
   81SLPC  H13R 7561   6.287   4.172   5.268  0.7998 -0.2865  4.4859
   81SLPC  C214 7562   6.281   4.351   5.404  0.1351  0.5759 -0.0152
   81SLPC  H14R 7563   6.173   4.370   5.387  0.4604  1.5734 -1.0857
   81SLPC  H14S 7564   6.328   4.451   5.412  0.6363  0.4396 -1.0306
   81SLPC  C215 7565   6.303   4.272   5.540  0.1219  0.0860  0.1657
   81SLPC  H15R 7566   6.410   4.261   5.569  0.7868  2.6067 -0.9972
   81SLPC  H15S 7567   6.271   4.169   5.516  0.1525  0.4506 -1.5824
   81SLPC  C216 7568   6.210   4.329   5.646 -0.0037 -0.3544 -0.1726
   81SLPC  H16R 7569   6.104   4.332   5.612 -0.4108 -0.9143  0.9846
   81SLPC  H16S 7570   6.255   4.426   5.676 -1.2672 -0.0717  0.9226
   81SLPC  C217 7571   6.215   4.252   5.779  0.3839  0.0987  0.8353
   81SLPC  H17R 7572   6.223   4.323   5.864  4.3417 -0.9615  1.5252
   81SLPC  H17S 7573   6.321   4.220   5.781  0.4303  0.2476  0.7903
   81SLPC  C218 7574   6.109   4.146   5.804 -0.6728 -0.5520  0.1101
   81SLPC  H18R 7575   6.119   4.099   5.904 -2.4444 -1.1787  0.0348
   81SLPC  H18S 7576   6.119   4.067   5.726  0.5236  0.7495 -1.0983
   81SLPC  H18T 7577   6.005   4.185   5.800 -0.8301 -0.6981  1.8611
   81SLPC   C33 7578   6.142   4.976   4.153 -0.2948 -0.0781  0.3188
   81SLPC   H3X 7579   6.060   5.028   4.208 -0.4026 -2.3026  2.4494
   81SLPC   H3Y 7580   6.174   5.041   4.069 -0.5212  1.5552  1.4341
   81SLPC   C34 7581   6.260   4.968   4.257 -0.6522  0.2064  0.3103
   81SLPC   H4X 7582   6.341   5.042   4.239 -1.3434  0.5118 -1.9001
   81SLPC   H4Y 7583   6.323   4.877   4.240  1.7864  1.9549 -0.6081
   81SLPC   C35 7584   6.209   4.973   4.406 -0.2362 -0.7189 -0.4353
   81SLPC   H5X 7585   6.101   4.948   4.418 -0.5753  0.5768 -0.6794
   81SLPC   H5Y 7586   6.233   5.077   4.436  2.1032 -0.9238 -1.3740
   81SLPC   C36 7587   6.284   4.881   4.502  0.0077 -0.4743 -0.1102
   81SLPC   H6X 7588   6.389   4.916   4.513  0.0975 -0.6114 -0.5090
   81SLPC   H6Y 7589   6.284   4.776   4.467  1.1768 -0.7330  0.6109
   81SLPC   C37 7590   6.242   4.878   4.653  0.0777 -0.2273 -0.2992
   81SLPC   H7X 7591   6.306   4.810   4.713 -0.9147 -0.3777  0.6216
   81SLPC   H7Y 7592   6.137   4.843   4.659 -0.1358  0.5117  0.4549
   81SLPC   C38 7593   6.249   5.010   4.731  0.3311  0.3435 -0.4555
   81SLPC   H8X 7594   6.181   5.080   4.678 -0.6967 -2.3210 -2.9483
   81SLPC   H8Y 7595   6.352   5.053   4.732  0.2334  0.5807 -0.4882
   81SLPC   C39 7596   6.203   4.997   4.876 -0.0936  0.4194  0.2020
   81SLPC   H9X 7597   6.107   4.942   4.867 -0.0597  0.2978  0.5451
   81SLPC   H9Y 7598   6.180   5.100   4.911  0.2797  1.4589 -2.3989
   81SLPC  C310 7599   6.297   4.924   4.971  0.1716 -0.4394 -0.5646
   81SLPC  H10X 7600   6.397   4.973   4.971  0.0761 -0.2417  0.0348
   81SLPC  H10Y 7601   6.315   4.816   4.950  0.2229 -0.7698  1.0671
   81SLPC  C311 7602   6.240   4.937   5.119 -0.1194 -0.2443 -0.4529
   81SLPC  H11X 7603   6.148   4.875   5.124 -0.7971  0.7679 -0.0826
   81SLPC  H11Y 7604   6.204   5.040   5.138  0.5177  0.3667 -2.3284
   81SLPC  C312 7605   6.334   4.892   5.229 -0.6313  0.1052 -0.1788
   81SLPC  H12X 7606   6.434   4.936   5.209 -0.8389  0.7379  0.1616
   81SLPC  H12Y 7607   6.350   4.782   5.217  0.0656 -0.0452  1.7081
   81SLPC  C313 7608   6.290   4.935   5.368  0.0712  0.3815  0.0686
   81SLPC  H13X 7609   6.201   4.877   5.399  1.2191 -0.7914  1.2856
   81SLPC  H13Y 7610   6.265   5.044   5.370 -0.6032  0.2374 -0.2747
   81SLPC  C314 7611   6.406   4.903   5.470  0.4769 -0.0595  0.2736
   81SLPC  H14X 7612   6.494   4.964   5.439 -0.7770  1.9276  0.3820
   81SLPC  H14Y 7613   6.438   4.797   5.467  2.3294  0.4446  0.6266
   81SLPC  C315 7614   6.368   4.944   5.617  0.4772  0.0857  0.3053
   81SLPC  H15X 7615   6.441   4.897   5.687 -1.6410 -0.2102  2.4169
   81SLPC  H15Y 7616   6.272   4.907   5.657  0.9855  0.3748  1.8820
   81SLPC  C316 7617   6.369   5.096   5.635  0.1039  0.1743 -0.4708
   81SLPC  H16X 7618   6.282   5.136   5.577 -2.2483 -1.2250  1.8932
   81SLPC  H16Y 7619   6.463   5.132   5.588  1.4423 -1.7192  0.6465
   81SLPC  C317 7620   6.357   5.146   5.775  0.4440 -0.0143  0.5106
   81SLPC  H17X 7621   6.388   5.252   5.776  2.1450 -0.4186 -1.4284
   81SLPC  H17Y 7622   6.426   5.081   5.833 -1.2260 -0.9140  1.5403
   81SLPC  C318 7623   6.219   5.134   5.837 -0.1688  0.2614 -0.1558
   81SLPC  H18X 7624   6.220   5.162   5.945  2.2716 -2.3896  0.6435
   81SLPC  H18Y 7625   6.190   5.028   5.828 -0.2115  0.1887  0.7616
   81SLPC  H18Z 7626   6.142   5.200   5.792 -1.6270 -1.0696  0.3087
   82SLPC     N 7627   0.152   5.403   3.549  0.0270  0.1487 -0.5840
   82SLPC   C13 7628   0.111   5.545   3.566 -0.4320 -0.0236 -0.5063
   82SLPC  H13A 7629   0.014   5.543   3.615 -1.1877 -0.1657 -1.9459
   82SLPC  H13B 7630   0.170   5.599   3.638  0.4707  1.2271 -2.1143
   82SLPC  H13C 7631   0.096   5.602   3.475  0.5303  1.2829  0.1293
   82SLPC   C14 7632   0.293   5.400   3.490 -0.4051 -0.4531  0.4169
   82SLPC  H14A 7633   0.363   5.459   3.548  1.1485 -0.0710 -1.7431
   82SLPC  H14B 7634   0.332   5.299   3.489 -3.0519 -1.5605 -0.6551
   82SLPC  H14C 7635   0.289   5.431   3.387 -0.1796 -0.1807  0.4914
   82SLPC   C15 7636   0.062   5.322   3.462 -0.0958  0.4481  0.4460
   82SLPC  H15A 7637   0.104   5.223   3.455  0.6416  0.6678  1.4733
   82SLPC  H15B 7638  -0.036   5.307   3.505 -0.0691  2.3236  1.2634
   82SLPC  H15C 7639   0.052   5.366   3.364 -0.0738  0.0553  0.2706
   82SLPC   C12 7640   0.160   5.336   3.688 -0.3112  0.3981  0.1090
   82SLPC  H12A 7641   0.229   5.393   3.749  0.0806  1.3211 -1.1522
   82SLPC  H12B 7642   0.208   5.239   3.682 -1.0661 -0.0641  1.2363
   82SLPC   C11 7643   0.021   5.303   3.760  0.3817 -0.6530 -0.0470
   82SLPC  H11A 7644   0.046   5.244   3.851  1.1483 -0.0351  0.1582
   82SLPC  H11B 7645  -0.042   5.245   3.690 -1.8512  1.5034  0.0826
   82SLPC     P 7646  -0.004   5.514   3.927 -0.3322 -0.5232 -0.1761
   82SLPC   O13 7647   0.131   5.470   3.965  0.2169  0.1545 -0.4913
   82SLPC   O14 7648  -0.012   5.654   3.889  0.4037 -0.1735 -0.1836
   82SLPC   O12 7649  -0.049   5.423   3.801 -0.2028 -0.3896 -0.1649
   82SLPC   O11 7650  -0.113   5.493   4.033 -0.5622 -0.3448 -0.3969
   82SLPC    C1 7651  -0.243   5.534   4.024  0.0417  0.0936  0.0978
   82SLPC    HA 7652  -0.263   5.558   3.917  2.4057 -1.5384 -0.8197
   82SLPC    HB 7653  -0.308   5.446   4.045  1.4984 -1.4164 -1.3149
   82SLPC    C2 7654  -0.269   5.648   4.119  0.6698 -0.1834  0.0243
   82SLPC    HS 7655  -0.204   5.736   4.098  0.3259  0.3030  0.9384
   82SLPC   O21 7656  -0.254   5.591   4.252  0.3182 -0.8779  0.4787
   82SLPC   C21 7657  -0.219   5.682   4.345 -0.3395 -0.1216 -0.2995
   82SLPC   O22 7658  -0.181   5.795   4.339  0.2362  0.0071  0.0287
   82SLPC   C22 7659  -0.210   5.592   4.479  0.3786  0.0055  0.5286
   82SLPC   H2R 7660  -0.303   5.532   4.493  2.4490 -3.2032  1.4819
   82SLPC   H2S 7661  -0.119   5.530   4.469  1.2689  1.2561  0.6081
   82SLPC    C3 7662  -0.417   5.700   4.105 -0.3342  0.1686  0.4430
   82SLPC    HX 7663  -0.476   5.606   4.097  0.6295 -0.3639 -0.7475
   82SLPC    HY 7664  -0.415   5.766   4.016 -0.9982  3.0501  2.3931
   82SLPC   O31 7665  -0.454   5.786   4.215  0.1358  0.4892  0.3252
   82SLPC   C31 7666  -0.575   5.841   4.202  0.2275  0.5987 -0.0839
   82SLPC   O32 7667  -0.648   5.827   4.102  0.1757 -0.2921 -0.0689
   82SLPC   C32 7668  -0.612   5.912   4.338  0.6215  0.2094  0.4346
   82SLPC   H2X 7669  -0.722   5.924   4.340  0.7187  1.4960 -0.6257
   82SLPC   H2Y 7670  -0.565   6.013   4.340  0.1114  0.4418  0.9901
   82SLPC   C23 7671  -0.204   5.678   4.610  0.9927  0.0232  0.1679
   82SLPC   H3R 7672  -0.298   5.732   4.634 -0.6159 -1.5758 -2.1477
   82SLPC   H3S 7673  -0.138   5.766   4.593 -0.8314  1.2333 -0.9643
   82SLPC   C24 7674  -0.152   5.598   4.734 -0.0864 -0.2944 -0.3697
   82SLPC   H4R 7675  -0.051   5.557   4.712  0.8945  0.8458  1.7601
   82SLPC   H4S 7676  -0.211   5.510   4.767  1.9507 -1.4889  0.2367
   82SLPC   C25 7677  -0.149   5.694   4.854 -0.0729  0.8395 -0.4828
   82SLPC   H5R 7678  -0.252   5.727   4.878 -0.5404  0.1702 -1.4649
   82SLPC   H5S 7679  -0.087   5.784   4.834 -1.2574  1.8158  0.0877
   82SLPC   C26 7680  -0.107   5.628   4.983 -0.4107  0.3806  0.0270
   82SLPC   H6R 7681  -0.000   5.599   4.971 -0.5766  0.2842 -1.3868
   82SLPC   H6S 7682  -0.157   5.530   4.992  0.7915 -0.0854  2.4290
   82SLPC   C27 7683  -0.127   5.703   5.116  0.4030 -0.3619  0.6332
   82SLPC   H7R 7684  -0.236   5.717   5.130  0.0963 -1.4374 -0.5197
   82SLPC   H7S 7685  -0.072   5.800   5.120  1.9345 -1.2187  1.6161
   82SLPC   C28 7686  -0.094   5.622   5.247  0.0144  0.1189 -0.1418
   82SLPC   H8R 7687  -0.122   5.517   5.223  0.7742 -0.2389  0.5056
   82SLPC   H8S 7688  -0.153   5.655   5.335  0.3364  2.2901 -0.6773
   82SLPC   C29 7689   0.049   5.615   5.279 -0.3862  0.1412 -1.0307
   82SLPC   H9R 7690   0.117   5.641   5.196  0.6879  1.6401  0.2463
   82SLPC  C210 7691   0.109   5.595   5.406  0.5339  0.2032  0.0116
   82SLPC  H10R 7692   0.219   5.595   5.405  0.5746  1.7717  1.1436
   82SLPC  C211 7693   0.033   5.564   5.532  0.4550  0.5425 -0.5831
   82SLPC  H11R 7694   0.062   5.458   5.549 -0.8373 -0.6279 -4.4683
   82SLPC  H11S 7695  -0.077   5.563   5.515  0.0967  0.0318  1.5029
   82SLPC  C212 7696   0.053   5.671   5.637 -0.1417 -0.4498  0.4174
   82SLPC  H12R 7697   0.029   5.774   5.608 -0.3512 -0.5098  0.3695
   82SLPC  C213 7698   0.068   5.647   5.768  0.7853  0.0774  0.1811
   82SLPC  H13R 7699   0.078   5.730   5.839 -0.2648  0.1859  0.2128
   82SLPC  C214 7700   0.101   5.514   5.824  0.2678  0.3056  0.7817
   82SLPC  H14R 7701   0.149   5.451   5.746  0.3469 -1.1574  1.9798
   82SLPC  H14S 7702   0.021   5.468   5.885  0.4507  0.3235  1.0386
   82SLPC  C215 7703   0.206   5.525   5.942  0.1888  0.1179  0.3462
   82SLPC  H15R 7704   0.154   5.592   6.014 -4.5891 -0.7929 -1.8458
   82SLPC  H15S 7705   0.305   5.558   5.904  0.4648 -2.3947 -1.3136
   82SLPC  C216 7706   0.233   5.387   6.005 -0.4555  0.0279  0.2362
   82SLPC  H16R 7707   0.298   5.322   5.942  1.3993  2.5408 -0.6021
   82SLPC  H16S 7708   0.139   5.333   6.029  0.1822 -0.7353  1.1201
   82SLPC  C217 7709   0.309   5.396   6.139  0.8815 -0.6939  0.7956
   82SLPC  H17R 7710   0.246   5.447   6.214  0.6225 -0.8029  0.6534
   82SLPC  H17S 7711   0.392   5.469   6.131 -1.1906  1.7421  0.2022
   82SLPC  C218 7712   0.353   5.267   6.197  0.3192 -0.3191 -0.5024
   82SLPC  H18R 7713   0.404   5.203   6.122 -0.7691  2.4997 -3.9011
   82SLPC  H18S 7714   0.261   5.216   6.235 -1.8415  1.7246 -2.6774
   82SLPC  H18T 7715   0.407   5.291   6.291 -0.0812 -0.2407 -0.2869
   82SLPC   C33 7716  -0.573   5.832   4.464  0.0294 -0.4442 -1.1385
   82SLPC   H3X 7717  -0.463   5.818   4.460 -0.0262 -1.2281 -0.3274
   82SLPC   H3Y 7718  -0.629   5.737   4.481  0.2528 -0.1515  1.7725
   82SLPC   C34 7719  -0.610   5.907   4.597 -0.4417 -0.4793 -0.2027
   82SLPC   H4X 7720  -0.719   5.892   4.613 -0.3943 -0.2511  0.3575
   82SLPC   H4Y 7721  -0.579   6.013   4.587  1.2674 -0.6565  2.3356
   82SLPC   C35 7722  -0.539   5.867   4.717  0.9232 -0.4529  0.6547
   82SLPC   H5X 7723  -0.428   5.868   4.715  0.9772  2.7054  1.2272
   82SLPC   H5Y 7724  -0.570   5.762   4.738 -0.5337 -0.3542 -0.8262
   82SLPC   C36 7725  -0.582   5.950   4.836 -0.5099 -0.6455  0.0705
   82SLPC   H6X 7726  -0.689   5.943   4.866 -0.9523 -1.1044 -1.5523
   82SLPC   H6Y 7727  -0.559   6.058   4.826 -1.0987 -0.3713  1.4578
   82SLPC   C37 7728  -0.499   5.902   4.963  0.7565 -0.4480  0.3242
   82SLPC   H7X 7729  -0.389   5.909   4.953  0.6229  2.6923 -0.0727
   82SLPC   H7Y 7730  -0.529   5.795   4.965 -1.3044  0.0952  1.2325
   82SLPC   C38 7731  -0.537   5.979   5.094 -0.0445 -0.2516 -0.1440
   82SLPC   H8X 7732  -0.644   5.955   5.112 -0.2482  0.4119 -0.4170
   82SLPC   H8Y 7733  -0.518   6.089   5.091  0.2537 -0.3233 -2.2339
   82SLPC   C39 7734  -0.464   5.940   5.229 -0.0280 -0.4108  0.8549
   82SLPC   H9X 7735  -0.453   5.830   5.233  0.3245 -0.4485 -0.7475
   82SLPC   H9Y 7736  -0.530   5.971   5.314 -1.5583  1.2293 -0.8396
   82SLPC  C310 7737  -0.339   6.016   5.248  0.6331  0.0833 -0.6546
   82SLPC  H10X 7738  -0.366   6.123   5.232 -0.8219 -0.0212  0.8188
   82SLPC  H10Y 7739  -0.263   5.990   5.172  1.5442 -0.4517  0.4144
   82SLPC  C311 7740  -0.276   5.996   5.386  0.0389  0.1596 -0.3855
   82SLPC  H11X 7741  -0.287   5.890   5.417  1.0207  0.4190  0.9227
   82SLPC  H11Y 7742  -0.346   6.050   5.453  1.0759 -0.3811  1.1944
   82SLPC  C312 7743  -0.129   6.037   5.403  0.6211  0.0754 -0.0512
   82SLPC  H12X 7744  -0.126   6.143   5.370 -0.6457  0.4298  0.8772
   82SLPC  H12Y 7745  -0.052   5.974   5.354  1.7836  2.0777 -0.9101
   82SLPC  C313 7746  -0.086   6.060   5.553  0.6000  0.1906 -0.3515
   82SLPC  H13X 7747  -0.075   5.959   5.598 -0.4748  0.9302  1.6946
   82SLPC  H13Y 7748  -0.181   6.107   5.586 -0.8289 -0.4385 -3.2384
   82SLPC  C314 7749   0.036   6.138   5.591  0.7111  0.7696 -0.5476
   82SLPC  H14X 7750   0.029   6.236   5.539  0.5537  1.6953  1.1502
   82SLPC  H14Y 7751   0.117   6.080   5.542 -0.8409 -1.1567 -0.9322
   82SLPC  C315 7752   0.047   6.139   5.749 -0.0920  0.1395  0.0647
   82SLPC  H15X 7753   0.063   6.032   5.774 -0.3092 -0.3525 -1.7118
   82SLPC  H15Y 7754  -0.039   6.169   5.812  0.8419  1.1815  0.8861
   82SLPC  C316 7755   0.164   6.223   5.800  0.0871  0.1602  0.0219
   82SLPC  H16X 7756   0.189   6.313   5.739  0.7379  0.9385  1.3811
   82SLPC  H16Y 7757   0.255   6.162   5.781  2.0554  2.4871  1.3826
   82SLPC  C317 7758   0.170   6.247   5.947 -0.0387 -0.4201  0.4601
   82SLPC  H17X 7759   0.135   6.152   5.994  2.4586 -1.7576 -0.1612
   82SLPC  H17Y 7760   0.094   6.320   5.980 -2.6927 -1.7287 -2.2052
   82SLPC  C318 7761   0.313   6.261   6.013  0.9154  0.3387  0.1921
   82SLPC  H18X 7762   0.389   6.192   5.972  0.2700 -0.5809  0.5040
   82SLPC  H18Y 7763   0.304   6.271   6.123  1.7186  0.1732  0.2738
   82SLPC  H18Z 7764   0.356   6.358   5.981  0.3291 -0.3124 -2.8569
   83SLPC     N 7765   1.765   5.303   3.520  0.3724  0.3191 -0.1973
   83SLPC   C13 7766   1.820   5.222   3.409  0.6067 -0.2767 -0.2401
   83SLPC  H13A 7767   1.920   5.253   3.381 -0.3524  4.2355  0.5620
   83SLPC  H13B 7768   1.810   5.118   3.437  0.9076 -0.6459 -1.4641
   83SLPC  H13C 7769   1.764   5.232   3.317  1.1507  0.6863 -0.4862
   83SLPC   C14 7770   1.648   5.223   3.562 -0.1448 -0.3345  0.1564
   83SLPC  H14A 7771   1.628   5.260   3.661  2.1653  0.6492  0.3112
   83SLPC  H14B 7772   1.561   5.239   3.499  0.1245 -2.7846 -0.9622
   83SLPC  H14C 7773   1.675   5.119   3.577  2.1128  0.2329  0.3330
   83SLPC   C15 7774   1.719   5.439   3.480  0.7522 -0.4690  0.7021
   83SLPC  H15A 7775   1.798   5.513   3.476  0.6855 -0.4388 -0.3394
   83SLPC  H15B 7776   1.678   5.435   3.381 -0.0459 -0.6862  1.0349
   83SLPC  H15C 7777   1.631   5.470   3.533  0.3206 -0.2409 -0.1409
   83SLPC   C12 7778   1.867   5.319   3.642  0.5013  0.1720  0.5817
   83SLPC  H12A 7779   1.962   5.357   3.607 -0.5078  5.1169  2.4019
   83SLPC  H12B 7780   1.884   5.222   3.685 -0.1372 -0.0907  0.2632
   83SLPC   C11 7781   1.819   5.410   3.756 -0.3252 -0.5864  0.0099
   83SLPC  H11A 7782   1.800   5.511   3.713  0.6833  0.2259  1.3895
   83SLPC  H11B 7783   1.903   5.422   3.828 -0.8474 -3.3953  1.2290
   83SLPC     P 7784   1.693   5.245   3.923  0.0904 -0.4512 -0.1656
   83SLPC   O13 7785   1.559   5.201   3.947 -0.3123  0.0324 -0.3792
   83SLPC   O14 7786   1.785   5.144   3.875 -0.3083  1.1563 -0.1161
   83SLPC   O12 7787   1.694   5.371   3.826 -0.4848  0.2709  0.7823
   83SLPC   O11 7788   1.755   5.299   4.052  0.4952  0.3850 -0.3488
   83SLPC    C1 7789   1.698   5.404   4.131 -0.3327  0.2311  0.6178
   83SLPC    HA 7790   1.613   5.458   4.083  0.4063  0.7433 -0.1359
   83SLPC    HB 7791   1.641   5.358   4.215 -1.1365  0.7166  0.3496
   83SLPC    C2 7792   1.800   5.515   4.170 -0.4630  0.3742 -0.5160
   83SLPC    HS 7793   1.833   5.554   4.071  1.0275  0.6763  0.0615
   83SLPC   O21 7794   1.914   5.451   4.240 -0.3805 -0.1381 -0.3198
   83SLPC   C21 7795   2.036   5.502   4.211  0.3902 -0.6967 -0.0147
   83SLPC   O22 7796   2.052   5.594   4.130  0.5777 -0.2825 -0.1084
   83SLPC   C22 7797   2.146   5.434   4.305 -0.0959 -0.1335  0.3012
   83SLPC   H2R 7798   2.107   5.330   4.315  0.5478 -0.4399 -0.3336
   83SLPC   H2S 7799   2.243   5.435   4.252 -0.0450 -2.6442  0.2019
   83SLPC    C3 7800   1.739   5.636   4.245 -0.2036  0.0549  0.4780
   83SLPC    HX 7801   1.655   5.673   4.183 -0.5094 -0.8467  0.3408
   83SLPC    HY 7802   1.805   5.725   4.248  1.8701 -1.3473 -0.9333
   83SLPC   O31 7803   1.685   5.603   4.373 -0.5544 -0.1590 -0.4631
   83SLPC   C31 7804   1.771   5.623   4.474  0.0020 -0.5067 -0.6026
   83SLPC   O32 7805   1.888   5.657   4.463  0.5683  0.0244  0.2453
   83SLPC   C32 7806   1.701   5.604   4.606 -0.4229  0.0046  0.1006
   83SLPC   H2X 7807   1.606   5.549   4.587 -1.1157  1.7948 -2.0179
   83SLPC   H2Y 7808   1.671   5.705   4.641  2.7077  0.1403  2.8840
   83SLPC   C23 7809   2.164   5.504   4.438  0.3721  0.2714  1.0172
   83SLPC   H3R 7810   2.068   5.517   4.492 -0.4228  1.5995 -0.6242
   83SLPC   H3S 7811   2.204   5.604   4.411 -1.7828  1.2650  1.3593
   83SLPC   C24 7812   2.260   5.424   4.526  0.2105  0.0792  0.3498
   83SLPC   H4R 7813   2.354   5.401   4.472 -0.5342 -0.1073 -0.9080
   83SLPC   H4S 7814   2.205   5.332   4.556 -1.9173  0.7622 -1.1657
   83SLPC   C25 7815   2.285   5.515   4.651  0.0936 -0.1649  0.7771
   83SLPC   H5R 7816   2.188   5.551   4.693  0.2405 -0.9836  1.8642
   83SLPC   H5S 7817   2.344   5.602   4.616  1.4786 -0.5578  2.0139
   83SLPC   C26 7818   2.355   5.441   4.764  0.3006 -0.3345 -0.3332
   83SLPC   H6R 7819   2.400   5.513   4.835 -1.1029 -1.0270  1.3197
   83SLPC   H6S 7820   2.446   5.396   4.719  2.5196  2.8018  0.6731
   83SLPC   C27 7821   2.270   5.337   4.837  0.0148  0.1977 -0.2523
   83SLPC   H7R 7822   2.231   5.263   4.764 -0.3437  1.4344 -1.3433
   83SLPC   H7S 7823   2.177   5.385   4.875 -0.2968 -1.1428  0.7567
   83SLPC   C28 7824   2.342   5.270   4.953  0.2418 -0.5129  0.4535
   83SLPC   H8R 7825   2.367   5.344   5.031  3.2136  1.5345 -2.1592
   83SLPC   H8S 7826   2.444   5.252   4.913 -1.2446 -0.2224 -4.1096
   83SLPC   C29 7827   2.268   5.141   4.993 -0.4044  0.5457 -0.3880
   83SLPC   H9R 7828   2.304   5.065   4.922  0.2363  0.4215  0.0636
   83SLPC  C210 7829   2.190   5.112   5.101  0.1929 -0.7472  0.0167
   83SLPC  H10R 7830   2.156   5.009   5.119 -3.1216  0.6806  3.0802
   83SLPC  C211 7831   2.135   5.221   5.191  0.0526  0.1686 -0.3725
   83SLPC  H11R 7832   2.026   5.211   5.211  0.0186  1.9816  0.5597
   83SLPC  H11S 7833   2.140   5.315   5.132  2.4378  0.4634  0.2076
   83SLPC  C212 7834   2.212   5.225   5.321 -0.4900 -0.5832  0.4815
   83SLPC  H12R 7835   2.305   5.283   5.308 -1.9707  1.7321 -0.1792
   83SLPC  C213 7836   2.187   5.151   5.434 -0.1593  0.1337  0.0292
   83SLPC  H13R 7837   2.258   5.167   5.517  0.8794  2.9187 -1.2524
   83SLPC  C214 7838   2.087   5.045   5.459 -0.0073  0.5879  0.2209
   83SLPC  H14R 7839   2.046   5.010   5.361  2.0244 -0.6896 -0.2162
   83SLPC  H14S 7840   1.992   5.088   5.498 -0.9909 -0.0443 -1.3697
   83SLPC  C215 7841   2.129   4.933   5.556 -0.4698  0.5666  0.1624
   83SLPC  H15R 7842   2.171   4.984   5.645 -0.8210  0.4955  0.3723
   83SLPC  H15S 7843   2.199   4.867   5.500  0.9987  1.3686  1.0104
   83SLPC  C216 7844   2.013   4.842   5.598  0.3227  0.2133  0.5597
   83SLPC  H16R 7845   1.962   4.806   5.506  0.0979  1.6531  0.0907
   83SLPC  H16S 7846   1.937   4.899   5.656 -0.1372  0.0891  0.0874
   83SLPC  C217 7847   2.061   4.719   5.676  0.5706  0.7229  0.4432
   83SLPC  H17R 7848   2.117   4.740   5.769  1.2765 -2.7044  0.9031
   83SLPC  H17S 7849   2.131   4.670   5.604 -0.9716 -0.6480 -0.1708
   83SLPC  C218 7850   1.954   4.621   5.717 -0.4745 -0.2510  0.1862
   83SLPC  H18R 7851   1.893   4.597   5.627 -2.2492 -0.6807  1.4425
   83SLPC  H18S 7852   1.883   4.665   5.790 -1.5395 -1.2425 -0.2069
   83SLPC  H18T 7853   1.995   4.534   5.772  0.6293  1.7213  2.6736
   83SLPC   C33 7854   1.784   5.532   4.709 -0.1981 -0.0269  0.3174
   83SLPC   H3X 7855   1.876   5.593   4.716  0.2195 -0.6721  0.5214
   83SLPC   H3Y 7856   1.802   5.430   4.667 -0.8557  0.0006 -0.0500
   83SLPC   C34 7857   1.711   5.525   4.842  0.4659 -0.2920 -0.0866
   83SLPC   H4X 7858   1.618   5.467   4.821  0.6357  0.4085 -3.3274
   83SLPC   H4Y 7859   1.673   5.627   4.863 -1.0849 -0.9383  0.4066
   83SLPC   C35 7860   1.790   5.466   4.952  0.2958  0.8608  0.2910
   83SLPC   H5X 7861   1.888   5.517   4.944  0.7010 -0.1517 -1.9041
   83SLPC   H5Y 7862   1.811   5.358   4.939  0.3716  0.9897 -0.6765
   83SLPC   C36 7863   1.725   5.477   5.089  0.5914  0.3488  0.0585
   83SLPC   H6X 7864   1.620   5.440   5.092  1.0391 -0.9741  0.0552
   83SLPC   H6Y 7865   1.725   5.584   5.118 -3.3758  0.0775  1.7043
   83SLPC   C37 7866   1.807   5.418   5.202 -0.7897 -0.1707 -0.0175
   83SLPC   H7X 7867   1.909   5.459   5.187 -1.0562 -0.1917 -2.2879
   83SLPC   H7Y 7868   1.809   5.307   5.195 -4.1778 -0.2460 -4.0188
   83SLPC   C38 7869   1.765   5.465   5.348  0.5654  1.4972  0.3335
   83SLPC   H8X 7870   1.663   5.428   5.368  0.2482  1.9940 -0.3280
   83SLPC   H8Y 7871   1.770   5.575   5.362  1.2502  1.3705  1.2097
   83SLPC   C39 7872   1.849   5.396   5.458 -0.0215 -0.6995 -0.1275
   83SLPC   H9X 7873   1.942   5.456   5.455 -0.7844  0.6937  1.8052
   83SLPC   H9Y 7874   1.874   5.293   5.424 -0.9213 -0.4693 -1.5635
   83SLPC  C310 7875   1.783   5.402   5.600  0.1835  0.2877  0.7756
   83SLPC  H10X 7876   1.682   5.354   5.600  0.5650 -0.5366  1.2787
   83SLPC  H10Y 7877   1.754   5.504   5.635 -0.1349 -0.6822  3.6396
   83SLPC  C311 7878   1.855   5.324   5.708  0.1974 -0.2367  0.0797
   83SLPC  H11X 7879   1.877   5.394   5.791  0.6053  1.5367 -1.4450
   83SLPC  H11Y 7880   1.963   5.306   5.687  0.3377  1.4649 -0.8915
   83SLPC  C312 7881   1.781   5.201   5.758  0.0239 -0.4183 -0.5044
   83SLPC  H12X 7882   1.751   5.151   5.663 -0.0179 -0.3217 -0.5425
   83SLPC  H12Y 7883   1.680   5.230   5.795 -0.3935 -1.7001 -0.6048
   83SLPC  C313 7884   1.870   5.120   5.845 -0.1474  0.4987 -0.0006
   83SLPC  H13X 7885   1.902   5.178   5.934 -1.1144 -0.2093  0.8354
   83SLPC  H13Y 7886   1.961   5.085   5.793 -0.3785  0.8693 -0.6572
   83SLPC  C314 7887   1.790   5.008   5.899  0.2868  0.6636  0.0082
   83SLPC  H14X 7888   1.772   4.937   5.816  0.6894 -0.8482  1.1690
   83SLPC  H14Y 7889   1.694   5.053   5.931 -0.2656 -1.9010  2.4014
   83SLPC  C315 7890   1.859   4.930   6.020  0.0605 -0.0966 -0.0331
   83SLPC  H15X 7891   1.899   5.009   6.087  0.7665 -0.7137  0.2863
   83SLPC  H15Y 7892   1.952   4.875   5.991 -1.3168 -2.6499  0.0830
   83SLPC  C316 7893   1.772   4.844   6.105 -0.7547 -0.6162  0.4397
   83SLPC  H16X 7894   1.735   4.756   6.049 -0.6636  0.6508 -1.7420
   83SLPC  H16Y 7895   1.685   4.912   6.122 -0.3770  0.5795 -1.9171
   83SLPC  C317 7896   1.842   4.811   6.236  0.1535  0.1146 -0.2412
   83SLPC  H17X 7897   1.888   4.899   6.285 -2.9719  2.0415 -0.5354
   83SLPC  H17Y 7898   1.926   4.738   6.225  2.3022  1.9205  2.7007
   83SLPC  C318 7899   1.753   4.750   6.341 -0.6167 -0.3511 -0.3715
   83SLPC  H18X 7900   1.700   4.665   6.293 -0.3437 -0.3285 -0.7160
   83SLPC  H18Y 7901   1.675   4.822   6.375  2.5700  2.0911  2.5176
   83SLPC  H18Z 7902   1.813   4.710   6.425 -0.4451 -1.5280 -1.0422
   84SLPC     N 7903   1.812   3.835   3.482  0.1000  0.4100  0.2887
   84SLPC   C13 7904   1.847   3.974   3.416  0.2938 -0.0052 -0.3197
   84SLPC  H13A 7905   1.823   3.976   3.310  0.2736 -1.8302 -0.3743
   84SLPC  H13B 7906   1.792   4.054   3.464 -1.5719 -0.0718 -2.1528
   84SLPC  H13C 7907   1.953   3.991   3.419  0.6315 -1.6033 -1.5498
   84SLPC   C14 7908   1.880   3.723   3.400 -0.8596  0.0841 -0.0903
   84SLPC  H14A 7909   1.987   3.731   3.389 -0.7167 -2.2955 -0.8022
   84SLPC  H14B 7910   1.860   3.623   3.435  1.9723 -0.4221  0.3059
   84SLPC  H14C 7911   1.839   3.722   3.300  3.1818 -1.2241 -1.9627
   84SLPC   C15 7912   1.664   3.817   3.466  0.2995  0.3112  0.0398
   84SLPC  H15A 7913   1.626   3.828   3.365  1.4716 -1.0063 -0.5683
   84SLPC  H15B 7914   1.628   3.725   3.510 -0.2813 -0.2005 -1.4283
   84SLPC  H15C 7915   1.614   3.889   3.530 -0.7393 -1.5789  1.4540
   84SLPC   C12 7916   1.835   3.836   3.630 -0.6344 -0.3205  0.4024
   84SLPC  H12A 7917   1.799   3.743   3.670  0.9105 -0.0398  2.6970
   84SLPC  H12B 7918   1.784   3.919   3.678  1.2228  2.2272 -1.7168
   84SLPC   C11 7919   1.986   3.843   3.675  0.7854 -0.2890  0.3578
   84SLPC  H11A 7920   1.981   3.856   3.785 -3.8339 -0.0170  0.2933
   84SLPC  H11B 7921   2.033   3.935   3.632  2.0592 -0.1386  1.9741
   84SLPC     P 7922   2.066   3.602   3.727  0.0599  0.1750  0.1369
   84SLPC   O13 7923   1.926   3.547   3.737  0.3311  0.2486  0.7858
   84SLPC   O14 7924   2.169   3.509   3.669  0.2053 -0.0069  0.0297
   84SLPC   O12 7925   2.060   3.730   3.644  0.0780  0.1021 -0.1484
   84SLPC   O11 7926   2.115   3.650   3.865  0.1137  0.0808  0.1113
   84SLPC    C1 7927   2.044   3.623   3.989 -0.7601  0.1787  0.3300
   84SLPC    HA 7928   1.982   3.531   3.985  1.8244 -1.6752  0.4065
   84SLPC    HB 7929   2.124   3.600   4.062 -0.5390  1.9829  0.7124
   84SLPC    C2 7930   1.973   3.749   4.044  0.1523 -0.2774  0.3364
   84SLPC    HS 7931   1.890   3.765   3.971 -0.5828 -3.5621  0.2757
   84SLPC   O21 7932   2.065   3.857   4.055 -0.9248  0.6329 -0.2083
   84SLPC   C21 7933   2.010   3.972   4.049  0.2618 -0.3695  0.3036
   84SLPC   O22 7934   1.890   4.001   4.036  0.3745 -0.0931 -0.3062
   84SLPC   C22 7935   2.121   4.066   4.063 -0.3446  0.9589  0.5640
   84SLPC   H2R 7936   2.192   4.020   4.135 -0.8125 -0.7364  0.0048
   84SLPC   H2S 7937   2.165   4.063   3.961 -0.6195  1.3461  0.4308
   84SLPC    C3 7938   1.908   3.731   4.179  0.8464 -0.1776  0.8908
   84SLPC    HX 7939   1.832   3.812   4.185 -3.4587 -3.8370  0.8449
   84SLPC    HY 7940   1.971   3.742   4.270  1.0190 -3.4175  1.2551
   84SLPC   O31 7941   1.834   3.604   4.194 -0.5893  0.1562  0.3129
   84SLPC   C31 7942   1.714   3.599   4.146 -0.5715  0.1308 -0.5903
   84SLPC   O32 7943   1.652   3.697   4.109 -0.3267 -0.2410  0.6071
   84SLPC   C32 7944   1.662   3.457   4.149 -0.2307  0.3653 -0.3230
   84SLPC   H2X 7945   1.746   3.384   4.153 -0.2313  0.3700 -0.2040
   84SLPC   H2Y 7946   1.603   3.435   4.057  0.9117 -1.0415 -0.7527
   84SLPC   C23 7947   2.078   4.216   4.096 -0.5608  0.6309  0.2761
   84SLPC   H3R 7948   2.007   4.245   4.015  0.2533 -2.2541 -1.5968
   84SLPC   H3S 7949   2.167   4.282   4.099 -1.2210  1.8171 -2.5255
   84SLPC   C24 7950   2.001   4.235   4.226  0.1008 -0.3607 -0.1631
   84SLPC   H4R 7951   2.077   4.227   4.306 -1.0630  0.1793  1.0311
   84SLPC   H4S 7952   1.913   4.167   4.235 -0.7226  0.2773 -2.6487
   84SLPC   C25 7953   1.941   4.376   4.246  0.0674 -0.5357 -0.3818
   84SLPC   H5R 7954   1.864   4.397   4.169  1.1961  2.0928 -0.8852
   84SLPC   H5S 7955   2.025   4.446   4.228 -1.3006  0.9139 -1.4234
   84SLPC   C26 7956   1.886   4.390   4.385 -0.3327 -0.2848  0.3952
   84SLPC   H6R 7957   1.952   4.350   4.465  0.0036  1.8151  1.2254
   84SLPC   H6S 7958   1.804   4.316   4.394  0.5323 -1.4117 -0.7109
   84SLPC   C27 7959   1.832   4.523   4.418 -0.7723 -0.8820  0.0435
   84SLPC   H7R 7960   1.745   4.540   4.351  0.6615  1.0025 -1.4815
   84SLPC   H7S 7961   1.910   4.601   4.402 -0.0858 -1.1672  1.7856
   84SLPC   C28 7962   1.790   4.529   4.568 -0.5786  0.3532  0.6499
   84SLPC   H8R 7963   1.708   4.456   4.585  0.1010 -0.3833  0.8165
   84SLPC   H8S 7964   1.758   4.634   4.581 -1.8807 -0.1710  1.8985
   84SLPC   C29 7965   1.903   4.504   4.662  0.3387 -0.0784 -0.2604
   84SLPC   H9R 7966   2.004   4.517   4.619  0.1082 -0.1963 -0.8438
   84SLPC  C210 7967   1.894   4.439   4.785  0.3591  0.5357  0.2305
   84SLPC  H10R 7968   1.980   4.431   4.854 -0.8943  0.8866  1.8909
   84SLPC  C211 7969   1.770   4.393   4.857  0.3667 -0.1997  0.4980
   84SLPC  H11R 7970   1.689   4.395   4.782  2.7527  0.2241 -2.2692
   84SLPC  H11S 7971   1.743   4.472   4.930  0.3895  1.2271 -0.9703
   84SLPC  C212 7972   1.785   4.258   4.925  0.7533  0.1060  0.7072
   84SLPC  H12R 7973   1.813   4.179   4.854  0.6692  0.1706  0.6026
   84SLPC  C213 7974   1.754   4.229   5.050  0.4971  0.3451 -0.1843
   84SLPC  H13R 7975   1.768   4.129   5.094  0.5031  0.6745  0.5768
   84SLPC  C214 7976   1.707   4.324   5.158  0.1207 -0.4935  0.0352
   84SLPC  H14R 7977   1.614   4.375   5.124 -0.7303 -1.6287  0.5863
   84SLPC  H14S 7978   1.776   4.406   5.186 -0.4000 -0.5163  1.4443
   84SLPC  C215 7979   1.665   4.238   5.283  0.4745 -0.4333  0.3346
   84SLPC  H15R 7980   1.753   4.180   5.321  2.7381  1.8466 -1.0923
   84SLPC  H15S 7981   1.580   4.176   5.247 -0.2823 -0.1567  1.6054
   84SLPC  C216 7982   1.605   4.323   5.395 -0.5887  0.6177  0.1779
   84SLPC  H16R 7983   1.512   4.376   5.362 -1.0680 -0.8422 -0.9726
   84SLPC  H16S 7984   1.685   4.391   5.429  0.0789 -0.5741  1.0685
   84SLPC  C217 7985   1.571   4.238   5.521  0.0608 -0.1923  0.2567
   84SLPC  H17R 7986   1.639   4.156   5.551  0.0986 -0.2149  0.1078
   84SLPC  H17S 7987   1.464   4.207   5.517 -0.1345  0.5373 -0.5792
   84SLPC  C218 7988   1.572   4.338   5.639 -0.1564 -0.5618 -0.1335
   84SLPC  H18R 7989   1.560   4.290   5.738 -2.4333  0.9023  0.3943
   84SLPC  H18S 7990   1.498   4.421   5.627  1.0478  0.7049  0.8647
   84SLPC  H18T 7991   1.672   4.386   5.640 -0.1107 -0.4658 -2.4502
   84SLPC   C33 7992   1.572   3.429   4.282 -0.5377 -0.5318 -0.1988
   84SLPC   H3X 7993   1.550   3.320   4.279  0.5851 -0.7670 -0.1637
   84SLPC   H3Y 7994   1.476   3.483   4.267 -0.3752 -0.6293 -1.6357
   84SLPC   C34 7995   1.648   3.463   4.416  0.8792  0.6230 -0.3961
   84SLPC   H4X 7996   1.650   3.573   4.434  2.4397  0.4064  0.9632
   84SLPC   H4Y 7997   1.753   3.428   4.408  0.4657 -0.8377  0.1929
   84SLPC   C35 7998   1.578   3.391   4.535  0.3914  0.2637  0.0975
   84SLPC   H5X 7999   1.551   3.284   4.527  0.7094  0.1647  0.3362
   84SLPC   H5Y 8000   1.484   3.449   4.546  1.2159  1.7434 -0.3784
   84SLPC   C36 8001   1.656   3.410   4.669 -0.2166 -0.0182  0.2375
   84SLPC   H6X 8002   1.696   3.513   4.674 -0.3691  0.0238  0.6405
   84SLPC   H6Y 8003   1.746   3.345   4.661 -0.3362  0.0136 -1.5503
   84SLPC   C37 8004   1.579   3.374   4.794  0.1775  0.1243 -0.4352
   84SLPC   H7X 8005   1.487   3.435   4.804  1.1247  1.5418  0.1395
   84SLPC   H7Y 8006   1.655   3.396   4.873 -0.4559  2.2844 -0.3622
   84SLPC   C38 8007   1.545   3.223   4.819  0.8713 -0.9855 -0.5038
   84SLPC   H8X 8008   1.639   3.166   4.832 -0.4896 -3.0421  0.8614
   84SLPC   H8Y 8009   1.487   3.194   4.729 -0.2718 -0.5184  0.0598
   84SLPC   C39 8010   1.473   3.206   4.955 -0.0786  0.2082  0.5492
   84SLPC   H9X 8011   1.457   3.100   4.985  0.7862 -0.7496 -2.0667
   84SLPC   H9Y 8012   1.370   3.248   4.954  0.0731  0.8364  3.2836
   84SLPC  C310 8013   1.534   3.273   5.079  0.2341 -0.0767 -0.7376
   84SLPC  H10X 8014   1.527   3.382   5.060  2.0016 -0.1736 -2.2708
   84SLPC  H10Y 8015   1.638   3.233   5.079  0.0209 -0.6680 -1.5920
   84SLPC  C311 8016   1.455   3.242   5.202 -0.2340  0.1175  0.2184
   84SLPC  H11X 8017   1.462   3.132   5.215  2.6496  0.1633 -0.3403
   84SLPC  H11Y 8018   1.347   3.271   5.200 -0.1580  0.3685 -1.2402
   84SLPC  C312 8019   1.508   3.307   5.329 -0.0419  0.3186  0.1238
   84SLPC  H12X 8020   1.608   3.261   5.338  0.9114  1.7756 -2.0865
   84SLPC  H12Y 8021   1.448   3.282   5.419 -1.2881 -0.7547 -0.9633
   84SLPC  C313 8022   1.511   3.459   5.312 -0.6038  0.2864  0.3783
   84SLPC  H13X 8023   1.406   3.487   5.290 -0.7003 -0.3701  0.0032
   84SLPC  H13Y 8024   1.575   3.492   5.227  0.9091 -1.0326  0.9603
   84SLPC  C314 8025   1.553   3.540   5.431  0.2412  0.8609  0.2186
   84SLPC  H14X 8026   1.643   3.489   5.471 -0.0276 -0.8463 -1.1900
   84SLPC  H14Y 8027   1.474   3.524   5.508  1.1531  1.2950  1.2685
   84SLPC  C315 8028   1.577   3.690   5.406 -0.4560  0.0978  0.1154
   84SLPC  H15X 8029   1.483   3.741   5.376 -0.7408 -1.9297 -2.8929
   84SLPC  H15Y 8030   1.655   3.687   5.327  1.1420  2.2998  1.4715
   84SLPC  C316 8031   1.623   3.767   5.535 -0.8461  0.2968  0.4544
   84SLPC  H16X 8032   1.604   3.706   5.626 -1.1720 -0.7706 -0.3168
   84SLPC  H16Y 8033   1.569   3.862   5.554  0.9084  1.1882  1.2184
   84SLPC  C317 8034   1.772   3.789   5.542  0.2672 -0.5979 -0.6320
   84SLPC  H17X 8035   1.803   3.849   5.454  0.8692  0.4343  0.2563
   84SLPC  H17Y 8036   1.840   3.701   5.552  2.7744  1.4651  2.1417
   84SLPC  C318 8037   1.807   3.885   5.659 -0.7842  0.2318 -0.5345
   84SLPC  H18X 8038   1.738   3.973   5.660 -0.9592  0.1112  1.4236
   84SLPC  H18Y 8039   1.914   3.911   5.652 -0.9631  0.8840 -0.9029
   84SLPC  H18Z 8040   1.784   3.828   5.752 -1.4215 -0.2947 -1.0077
   85SLPC     N 8041   4.883   4.313   3.501 -1.2457  0.4539 -0.0239
   85SLPC   C13 8042   4.819   4.366   3.378  0.3095 -0.0514 -0.5306
   85SLPC  H13A 8043   4.858   4.460   3.343  1.6042 -1.2145 -2.4287
   85SLPC  H13B 8044   4.816   4.294   3.297 -0.9150  0.2586 -0.7772
   85SLPC  H13C 8045   4.717   4.384   3.407  0.9575  0.3811  1.6055
   85SLPC   C14 8046   5.025   4.286   3.469  0.0508 -0.3993  0.4432
   85SLPC  H14A 8047   5.040   4.216   3.388 -2.2726  0.1739 -0.5667
   85SLPC  H14B 8048   5.073   4.373   3.427 -0.6165 -1.3074 -2.4463
   85SLPC  H14C 8049   5.079   4.254   3.556  2.5416 -1.0467 -1.2192
   85SLPC   C15 8050   4.823   4.179   3.541  0.3726  0.1181  0.0458
   85SLPC  H15A 8051   4.873   4.135   3.626  1.9509 -1.0347 -1.4045
   85SLPC  H15B 8052   4.722   4.194   3.575  0.1374  0.3523 -0.7194
   85SLPC  H15C 8053   4.829   4.107   3.461 -3.1023 -0.4452  0.1686
   85SLPC   C12 8054   4.867   4.412   3.610 -0.6556 -0.0727 -0.0552
   85SLPC  H12A 8055   4.763   4.442   3.619 -0.3807  1.0344 -0.3778
   85SLPC  H12B 8056   4.932   4.496   3.589 -2.6945  2.2503  2.2690
   85SLPC   C11 8057   4.916   4.369   3.754 -0.3904  0.5255 -0.4337
   85SLPC  H11A 8058   4.843   4.300   3.800 -0.0395 -0.4742 -1.3279
   85SLPC  H11B 8059   4.914   4.456   3.823 -0.1537 -0.0144  0.2718
   85SLPC     P 8060   5.168   4.410   3.788 -0.2832  0.3612  0.1180
   85SLPC   O13 8061   5.295   4.342   3.759 -0.1837  0.0740  0.0906
   85SLPC   O14 8062   5.147   4.529   3.708  0.3369  0.4979  0.4639
   85SLPC   O12 8063   5.043   4.313   3.765  0.5037  0.9025  0.0707
   85SLPC   O11 8064   5.146   4.444   3.939 -0.1931 -0.0533  0.7485
   85SLPC    C1 8065   5.099   4.335   4.028 -0.0645 -0.5388  0.3161
   85SLPC    HA 8066   4.990   4.343   4.048 -0.3152  0.5745 -1.3124
   85SLPC    HB 8067   5.121   4.232   3.992 -2.7059 -1.1523  0.2474
   85SLPC    C2 8068   5.177   4.353   4.162 -0.1001  0.2559  0.2248
   85SLPC    HS 8069   5.164   4.264   4.227  2.0995 -2.4419 -2.7351
   85SLPC   O21 8070   5.147   4.478   4.224 -0.0974 -0.0961 -0.2772
   85SLPC   C21 8071   5.029   4.466   4.295  0.5802  0.0803  0.7317
   85SLPC   O22 8072   4.965   4.368   4.303  0.0463  0.2392 -0.3950
   85SLPC   C22 8073   4.990   4.599   4.357 -0.6954  0.1878  0.3032
   85SLPC   H2R 8074   5.089   4.634   4.394 -2.2970  1.3764  3.8975
   85SLPC   H2S 8075   4.964   4.674   4.279 -0.7714  1.8447  1.8736
   85SLPC    C3 8076   5.332   4.366   4.133  0.2585  0.9430 -0.1525
   85SLPC    HX 8077   5.348   4.448   4.060 -1.1677 -0.2889 -1.9414
   85SLPC    HY 8078   5.354   4.270   4.081  1.3765  1.4042 -0.5651
   85SLPC   O31 8079   5.401   4.386   4.254  0.3078  0.3007  0.2999
   85SLPC   C31 8080   5.442   4.276   4.311  0.2211 -0.4961  0.1120
   85SLPC   O32 8081   5.418   4.161   4.277 -0.4780 -0.1512  0.1494
   85SLPC   C32 8082   5.523   4.316   4.438 -0.1729 -0.2073  0.3845
   85SLPC   H2X 8083   5.608   4.377   4.400 -0.6882  1.0897  1.2570
   85SLPC   H2Y 8084   5.561   4.220   4.480  0.1191  0.8486  2.6832
   85SLPC   C23 8085   4.873   4.592   4.457 -0.2719 -0.1988  0.2812
   85SLPC   H3R 8086   4.883   4.529   4.548 -0.3659  0.8894  1.0698
   85SLPC   H3S 8087   4.787   4.551   4.399 -0.0779 -1.0962  0.6180
   85SLPC   C24 8088   4.831   4.732   4.506  0.1327  0.1680 -0.3180
   85SLPC   H4R 8089   4.733   4.728   4.557  0.8344 -1.9372  0.9745
   85SLPC   H4S 8090   4.828   4.802   4.419 -2.9672 -0.9213 -1.2217
   85SLPC   C25 8091   4.933   4.786   4.611 -0.8077  0.3043 -0.2657
   85SLPC   H5R 8092   4.936   4.715   4.697  3.1784  0.0347 -0.4211
   85SLPC   H5S 8093   5.032   4.779   4.560 -0.1471 -4.1297  1.1616
   85SLPC   C26 8094   4.903   4.932   4.629  0.2829 -0.1640 -0.1428
   85SLPC   H6R 8095   4.797   4.944   4.658  0.3328 -0.7857  0.3108
   85SLPC   H6S 8096   4.928   4.989   4.537 -1.6205 -1.6089 -1.6405
   85SLPC   C27 8097   4.992   4.995   4.741  0.1592  0.3190  0.3557
   85SLPC   H7R 8098   4.963   5.099   4.767  2.0723  0.7318  0.9824
   85SLPC   H7S 8099   5.094   4.992   4.696 -0.4255 -0.7380 -0.9910
   85SLPC   C28 8100   4.997   4.927   4.875  0.2401 -0.0441 -0.1303
   85SLPC   H8R 8101   5.042   4.826   4.875 -1.6971 -0.9732 -1.4023
   85SLPC   H8S 8102   4.892   4.904   4.902  0.5332 -1.0327  0.1910
   85SLPC   C29 8103   5.045   5.010   4.990 -0.5514 -0.5800 -0.2410
   85SLPC   H9R 8104   4.972   5.083   5.026 -0.1567 -0.4600  0.3275
   85SLPC  C210 8105   5.166   4.989   5.047  0.9401  0.5451 -0.1822
   85SLPC  H10R 8106   5.205   5.060   5.122  0.8401 -0.2612  0.6425
   85SLPC  C211 8107   5.280   4.889   4.993 -0.3828  0.0107  0.7560
   85SLPC  H11R 8108   5.278   4.866   4.884 -0.9261  1.1875  0.5019
   85SLPC  H11S 8109   5.260   4.787   5.033 -0.4305 -0.9752 -1.6219
   85SLPC  C212 8110   5.421   4.926   5.033 -0.0364  0.1494  0.3412
   85SLPC  H12R 8111   5.461   5.020   4.993 -0.7210 -0.1704 -1.1298
   85SLPC  C213 8112   5.508   4.875   5.127 -0.1985  0.3427  0.0486
   85SLPC  H13R 8113   5.610   4.917   5.133 -0.6745  1.5584 -0.1759
   85SLPC  C214 8114   5.494   4.746   5.201  0.9638  0.4468  0.5001
   85SLPC  H14R 8115   5.584   4.685   5.178  0.8620  1.4535 -3.2865
   85SLPC  H14S 8116   5.412   4.682   5.160 -0.0166  2.8666 -1.6300
   85SLPC  C215 8117   5.475   4.771   5.355 -0.1877 -0.2315  0.8815
   85SLPC  H15R 8118   5.554   4.838   5.396  0.4302  0.5266 -1.3923
   85SLPC  H15S 8119   5.499   4.673   5.402  2.1180 -1.1425 -1.8963
   85SLPC  C216 8120   5.344   4.829   5.389  1.0457 -0.2902  0.0201
   85SLPC  H16R 8121   5.273   4.776   5.323  0.6570  1.0718 -0.6966
   85SLPC  H16S 8122   5.336   4.938   5.369  0.2047 -0.6106 -1.4582
   85SLPC  C217 8123   5.296   4.809   5.538  0.3174 -0.0214 -0.1509
   85SLPC  H17R 8124   5.319   4.706   5.573  1.4279 -0.2599 -1.4943
   85SLPC  H17S 8125   5.185   4.810   5.540  0.3149  0.4231 -0.3206
   85SLPC  C218 8126   5.367   4.908   5.626  0.5003 -0.7753  0.2691
   85SLPC  H18R 8127   5.477   4.899   5.610  1.0363  2.3335  1.5247
   85SLPC  H18S 8128   5.340   4.875   5.729  1.0342 -1.7063  0.1225
   85SLPC  H18T 8129   5.336   5.013   5.611  1.6410 -0.4125  0.3268
   85SLPC   C33 8130   5.442   4.400   4.536  0.0832  0.5149  0.0542
   85SLPC   H3X 8131   5.385   4.487   4.496 -1.8115  0.4556  2.3947
   85SLPC   H3Y 8132   5.513   4.450   4.605 -0.2258  1.8252 -0.5463
   85SLPC   C34 8133   5.352   4.317   4.629 -0.1313  0.8106  0.0489
   85SLPC   H4X 8134   5.339   4.368   4.726 -2.1830  1.6900 -0.6358
   85SLPC   H4Y 8135   5.402   4.217   4.640  1.8052  1.4241 -2.2362
   85SLPC   C35 8136   5.205   4.295   4.590  0.1675 -0.6728 -0.3471
   85SLPC   H5X 8137   5.183   4.233   4.500 -0.6201  0.3858 -0.9180
   85SLPC   H5Y 8138   5.174   4.396   4.558  1.6540  0.4134  1.4696
   85SLPC   C36 8139   5.109   4.245   4.702  0.7522  0.5085 -0.2717
   85SLPC   H6X 8140   5.127   4.138   4.724 -0.5939  0.0840 -1.1457
   85SLPC   H6Y 8141   5.006   4.246   4.662  0.1666  0.0486  1.1671
   85SLPC   C37 8142   5.118   4.317   4.843 -0.0428  0.0681  0.0061
   85SLPC   H7X 8143   5.215   4.294   4.892 -0.2981 -0.7022  0.1510
   85SLPC   H7Y 8144   5.043   4.263   4.904 -0.1873  0.9894  0.6606
   85SLPC   C38 8145   5.071   4.463   4.842  0.2815  0.1091 -0.6032
   85SLPC   H8X 8146   4.966   4.466   4.807  0.4669  0.4270 -1.1468
   85SLPC   H8Y 8147   5.132   4.526   4.773  2.3353 -1.4923 -0.3368
   85SLPC   C39 8148   5.080   4.530   4.982  0.0976  0.2124 -0.0315
   85SLPC   H9X 8149   5.016   4.621   4.986 -3.7162 -2.2389  1.3954
   85SLPC   H9Y 8150   5.185   4.558   5.005  0.0831 -0.1269  0.4838
   85SLPC  C310 8151   5.037   4.443   5.102 -0.2414  0.7572  0.6681
   85SLPC  H10X 8152   5.098   4.351   5.109  1.5701  1.6455 -1.8731
   85SLPC  H10Y 8153   4.929   4.417   5.103  0.1910 -1.1582  1.6792
   85SLPC  C311 8154   5.060   4.523   5.229  0.3217  0.1863 -0.5456
   85SLPC  H11X 8155   5.009   4.620   5.216  3.2251  1.8036 -0.7419
   85SLPC  H11Y 8156   5.169   4.545   5.228  0.4629 -0.4738 -1.4442
   85SLPC  C312 8157   5.020   4.452   5.368  0.6893  0.1602 -0.0753
   85SLPC  H12X 8158   5.043   4.344   5.370 -3.4090 -0.8912 -1.3075
   85SLPC  H12Y 8159   4.910   4.462   5.374  0.7030 -0.4684  2.9902
   85SLPC  C313 8160   5.076   4.519   5.491 -0.3889  0.3888 -0.1881
   85SLPC  H13X 8161   5.052   4.627   5.481  0.3661  0.7547  1.6550
   85SLPC  H13Y 8162   5.185   4.506   5.506 -0.7139 -1.0494  1.2806
   85SLPC  C314 8163   5.000   4.479   5.625 -0.0453  0.2863  0.1644
   85SLPC  H14X 8164   5.038   4.379   5.657  0.0876  0.6417  1.1409
   85SLPC  H14Y 8165   4.890   4.475   5.613  0.2066 -0.0706 -2.5357
   85SLPC  C315 8166   5.062   4.572   5.734 -0.5678  0.1319  0.2435
   85SLPC  H15X 8167   5.047   4.680   5.712  1.1278  0.6030  1.1676
   85SLPC  H15Y 8168   5.172   4.555   5.728 -0.5895 -0.3745  1.1259
   85SLPC  C316 8169   5.021   4.544   5.879 -0.4589 -0.0317 -0.7170
   85SLPC  H16X 8170   5.061   4.445   5.912  1.9588  0.8846 -0.6616
   85SLPC  H16Y 8171   4.910   4.546   5.873 -0.4247  1.7903 -1.2892
   85SLPC  C317 8172   5.059   4.644   5.986  0.5906 -0.0694  0.3607
   85SLPC  H17X 8173   5.020   4.747   5.969  2.7721  0.3727 -2.8542
   85SLPC  H17Y 8174   5.170   4.646   5.992  0.7394  0.3552 -1.9303
   85SLPC  C318 8175   5.010   4.615   6.135 -0.5839 -0.8998 -0.3980
   85SLPC  H18X 8176   5.055   4.697   6.195  1.1562 -3.4040  1.9791
   85SLPC  H18Y 8177   5.050   4.521   6.178  0.2598 -0.2531  0.2688
   85SLPC  H18Z 8178   4.899   4.610   6.132 -0.5515 -1.0745 -1.8715
   86SLPC     N 8179   5.728   2.692   3.860 -0.3219  0.0766 -0.0609
   86SLPC   C13 8180   5.647   2.727   3.737  0.3374 -0.8643  0.6150
   86SLPC  H13A 8181   5.591   2.817   3.759 -0.1985 -0.2958 -2.5333
   86SLPC  H13B 8182   5.701   2.749   3.646 -0.1966 -1.8792  0.0429
   86SLPC  H13C 8183   5.584   2.640   3.727 -0.4013 -0.6625  2.8600
   86SLPC   C14 8184   5.823   2.587   3.816  0.5160 -0.1487  0.1854
   86SLPC  H14A 8185   5.772   2.494   3.792  0.9882  0.0607 -1.8252
   86SLPC  H14B 8186   5.875   2.612   3.725  0.0075 -2.3945 -0.7846
   86SLPC  H14C 8187   5.894   2.561   3.894 -1.8737 -5.0695  1.1010
   86SLPC   C15 8188   5.636   2.631   3.959 -1.0776 -0.4469 -0.2895
   86SLPC  H15A 8189   5.680   2.577   4.041  0.1403  0.1152 -0.5560
   86SLPC  H15B 8190   5.571   2.705   4.004 -0.9109 -1.1209  1.1057
   86SLPC  H15C 8191   5.577   2.556   3.908 -2.6044  0.5502 -0.0690
   86SLPC   C12 8192   5.800   2.812   3.914 -1.1797  0.1774  0.5477
   86SLPC  H12A 8193   5.733   2.891   3.943  0.1055  0.8444  1.8821
   86SLPC  H12B 8194   5.868   2.845   3.836 -0.6496  0.1004  0.9674
   86SLPC   C11 8195   5.896   2.791   4.041 -0.0150  0.8861  0.6613
   86SLPC  H11A 8196   5.832   2.754   4.123 -0.7547  0.4318 -0.1118
   86SLPC  H11B 8197   5.934   2.895   4.057 -0.5163  1.7735 -2.9509
   86SLPC     P 8198   6.120   2.743   3.921 -0.2948 -0.1402  0.1591
   86SLPC   O13 8199   6.194   2.617   3.897  0.3588  0.1632  0.4995
   86SLPC   O14 8200   6.072   2.811   3.801  0.4830  0.1886 -0.2134
   86SLPC   O12 8201   6.004   2.701   4.015  0.4855 -0.2880  0.1675
   86SLPC   O11 8202   6.208   2.843   4.009 -0.0490  0.5807 -0.3840
   86SLPC    C1 8203   6.276   2.813   4.133  0.2608  0.3482 -0.5212
   86SLPC    HA 8204   6.307   2.708   4.148  0.8715  0.4688 -0.9380
   86SLPC    HB 8205   6.365   2.880   4.140  0.1283  0.4828 -0.0300
   86SLPC    C2 8206   6.186   2.848   4.257 -0.2606  0.5739  0.2265
   86SLPC    HS 8207   6.111   2.766   4.258  0.0463  0.2824 -0.2055
   86SLPC   O21 8208   6.139   2.983   4.240 -0.3280 -0.9241 -0.6941
   86SLPC   C21 8209   6.023   2.997   4.303 -0.4713  0.1514 -0.0713
   86SLPC   O22 8210   5.956   2.907   4.356 -0.1131  0.5200  0.1119
   86SLPC   C22 8211   5.992   3.147   4.320 -0.0939  0.0240 -0.0114
   86SLPC   H2R 8212   6.075   3.199   4.268  0.7848 -0.7388  0.5911
   86SLPC   H2S 8213   5.895   3.168   4.271 -0.5075 -2.0458 -0.2041
   86SLPC    C3 8214   6.273   2.842   4.395  0.6037 -0.5729  0.0673
   86SLPC    HX 8215   6.346   2.925   4.381 -0.9628  0.7950 -0.2785
   86SLPC    HY 8216   6.328   2.746   4.407  1.6133  0.2106  2.3953
   86SLPC   O31 8217   6.193   2.878   4.510 -0.2078 -0.2829 -0.0113
   86SLPC   C31 8218   6.126   2.772   4.548 -0.7227 -0.0685 -0.2332
   86SLPC   O32 8219   6.136   2.656   4.502  0.0742  0.2555 -0.1025
   86SLPC   C32 8220   6.037   2.797   4.669 -0.2389  0.5397  0.5531
   86SLPC   H2X 8221   5.958   2.873   4.649  1.4476  2.2810  0.2417
   86SLPC   H2Y 8222   6.101   2.854   4.739  1.9088  1.7925 -2.2402
   86SLPC   C23 8223   5.974   3.185   4.463 -0.6956  0.1403  0.0053
   86SLPC   H3R 8224   5.910   3.113   4.518 -0.1178 -0.0547  0.4381
   86SLPC   H3S 8225   5.944   3.291   4.459  0.4770  0.4940  0.0115
   86SLPC   C24 8226   6.106   3.182   4.541  0.1049 -0.0826  0.3493
   86SLPC   H4R 8227   6.157   3.280   4.534 -1.6105  0.7495 -2.6117
   86SLPC   H4S 8228   6.177   3.110   4.493 -0.9455 -1.5747  0.9501
   86SLPC   C25 8229   6.090   3.143   4.685 -0.4426  0.5998  0.4631
   86SLPC   H5R 8230   6.174   3.092   4.737  0.4149 -0.7605 -2.1229
   86SLPC   H5S 8231   6.007   3.072   4.704 -0.0579  0.8510  3.7840
   86SLPC   C26 8232   6.052   3.262   4.768 -0.1628 -0.2678 -0.4928
   86SLPC   H6R 8233   5.981   3.322   4.708  1.1089  1.4809 -0.3456
   86SLPC   H6S 8234   6.141   3.326   4.790  0.7474 -1.0193 -1.8650
   86SLPC   C27 8235   5.971   3.218   4.892  0.0838 -0.4053 -0.4876
   86SLPC   H7R 8236   6.022   3.136   4.947  0.3974  0.1871  0.1064
   86SLPC   H7S 8237   5.874   3.184   4.848 -0.2548 -0.3606  0.2209
   86SLPC   C28 8238   5.935   3.338   4.991 -0.2483  0.6140  0.3126
   86SLPC   H8R 8239   5.873   3.400   4.923  1.1470  1.8572  0.1256
   86SLPC   H8S 8240   6.028   3.398   4.998 -0.7704  2.0574 -3.0406
   86SLPC   C29 8241   5.872   3.295   5.122 -0.2493 -0.3814  0.1203
   86SLPC   H9R 8242   5.822   3.196   5.124  3.1272 -2.2332  0.3784
   86SLPC  C210 8243   5.872   3.371   5.233 -0.0017  0.3144  0.1375
   86SLPC  H10R 8244   5.826   3.328   5.323 -1.5291 -0.0578 -0.7977
   86SLPC  C211 8245   5.933   3.505   5.261 -0.1327 -0.1370  0.0870
   86SLPC  H11R 8246   5.952   3.568   5.172  2.0139  2.1912  2.0573
   86SLPC  H11S 8247   6.035   3.472   5.290 -0.1854  0.8014  1.4294
   86SLPC  C212 8248   5.868   3.590   5.376  0.1268  0.7353  0.0300
   86SLPC  H12R 8249   5.769   3.625   5.344 -0.5472  0.5379  1.8254
   86SLPC  C213 8250   5.914   3.615   5.499 -0.8750 -0.5547 -0.2367
   86SLPC  H13R 8251   5.849   3.664   5.573 -0.9231  0.9260 -1.2243
   86SLPC  C214 8252   6.053   3.575   5.544  0.3063  0.3261 -0.1748
   86SLPC  H14R 8253   6.091   3.643   5.622 -0.3993 -0.0657  0.5338
   86SLPC  H14S 8254   6.131   3.586   5.466 -0.3438  0.2696 -0.8540
   86SLPC  C215 8255   6.051   3.431   5.605 -0.1678  0.4120  0.0372
   86SLPC  H15R 8256   6.058   3.357   5.522 -1.0387 -0.2303  0.5236
   86SLPC  H15S 8257   5.963   3.418   5.672  0.3205  1.2690  0.8608
   86SLPC  C216 8258   6.178   3.392   5.685 -0.3580  0.6719 -0.3713
   86SLPC  H16R 8259   6.179   3.457   5.775  0.5328  0.2994 -0.0981
   86SLPC  H16S 8260   6.272   3.406   5.628  0.0829 -0.2126  0.1103
   86SLPC  C217 8261   6.183   3.250   5.741  0.0330  0.0754 -0.3610
   86SLPC  H17R 8262   6.090   3.239   5.802 -0.1627 -0.9436 -0.8250
   86SLPC  H17S 8263   6.269   3.231   5.808 -1.6901  0.5404  2.1448
   86SLPC  C218 8264   6.196   3.135   5.644  0.3282  0.0962 -1.1278
   86SLPC  H18R 8265   6.121   3.147   5.563 -2.3946  3.7100  1.5622
   86SLPC  H18S 8266   6.156   3.041   5.688 -1.8573  0.9705 -1.1075
   86SLPC  H18T 8267   6.296   3.126   5.596  1.4223  1.4482  0.7765
   86SLPC   C33 8268   5.982   2.673   4.748 -0.2419 -0.0781  0.5490
   86SLPC   H3X 8269   6.065   2.603   4.771  0.1183 -1.3541 -3.6827
   86SLPC   H3Y 8270   5.916   2.614   4.681 -0.0164 -1.4234  1.4741
   86SLPC   C34 8271   5.930   2.702   4.887 -0.3021 -0.1231  0.2586
   86SLPC   H4X 8272   6.001   2.774   4.934 -0.0493  0.5487 -1.0981
   86SLPC   H4Y 8273   5.928   2.614   4.955  1.2644 -0.4009 -0.0166
   86SLPC   C35 8274   5.788   2.769   4.901  0.4126  0.1057 -0.6141
   86SLPC   H5X 8275   5.713   2.717   4.838 -0.3305 -1.2437  1.2917
   86SLPC   H5Y 8276   5.790   2.873   4.862  2.7783  0.1671 -0.4662
   86SLPC   C36 8277   5.747   2.783   5.046  0.4727 -0.0200 -0.7683
   86SLPC   H6X 8278   5.775   2.684   5.089 -2.5193 -0.8584 -0.5096
   86SLPC   H6Y 8279   5.637   2.783   5.058  0.6082 -0.8940  0.6197
   86SLPC   C37 8280   5.814   2.886   5.137 -0.0775 -0.0367  0.0090
   86SLPC   H7X 8281   5.770   2.984   5.109 -0.7589 -1.2633 -3.7876
   86SLPC   H7Y 8282   5.917   2.888   5.097  0.1245 -1.4496  0.3921
   86SLPC   C38 8283   5.779   2.868   5.282  0.3102 -0.2168 -0.3831
   86SLPC   H8X 8284   5.794   2.764   5.318 -0.3486 -0.0517  0.4076
   86SLPC   H8Y 8285   5.670   2.884   5.295  0.4819  1.2078 -0.6161
   86SLPC   C39 8286   5.854   2.959   5.382  0.1203 -0.4089  0.3879
   86SLPC   H9X 8287   5.802   3.057   5.387  0.8047 -0.1092  2.1600
   86SLPC   H9Y 8288   5.956   2.972   5.340  0.9711  0.4187  2.5670
   86SLPC  C310 8289   5.866   2.885   5.515  0.2532  0.7651  0.0316
   86SLPC  H10X 8290   5.772   2.828   5.533  0.1320 -0.1850 -3.1421
   86SLPC  H10Y 8291   5.880   2.965   5.591  0.6943 -1.6644  2.7043
   86SLPC  C311 8292   5.988   2.795   5.528 -0.6805  0.9835  0.1675
   86SLPC  H11X 8293   6.079   2.859   5.535  1.7571 -2.4244  3.0247
   86SLPC  H11Y 8294   5.997   2.726   5.442 -0.8099  1.8968 -0.5991
   86SLPC  C312 8295   5.997   2.705   5.659  0.7298 -0.4423  0.1169
   86SLPC  H12X 8296   5.895   2.664   5.672  0.5615 -0.4901 -1.1986
   86SLPC  H12Y 8297   6.001   2.764   5.753 -1.4010 -1.0465  0.6511
   86SLPC  C313 8298   6.121   2.604   5.669 -0.1465  0.3584  0.0799
   86SLPC  H13X 8299   6.120   2.557   5.770  1.2045  3.9335  1.9591
   86SLPC  H13Y 8300   6.218   2.659   5.667 -0.1432  0.4067 -3.2069
   86SLPC  C314 8301   6.142   2.495   5.562 -0.2585  0.4120 -0.6234
   86SLPC  H14X 8302   6.241   2.446   5.572 -0.8101 -0.4347  0.8877
   86SLPC  H14Y 8303   6.141   2.539   5.459 -0.2757 -1.0023 -1.2467
   86SLPC  C315 8304   6.036   2.387   5.559 -0.2154 -0.8293  0.1944
   86SLPC  H15X 8305   5.930   2.421   5.562 -1.0331 -3.0470 -0.7506
   86SLPC  H15Y 8306   6.046   2.334   5.656 -1.5298  1.1466  1.4697
   86SLPC  C316 8307   6.045   2.289   5.442 -0.6326  0.0729 -0.3033
   86SLPC  H16X 8308   5.991   2.199   5.479  1.7927 -1.5435 -0.4257
   86SLPC  H16Y 8309   6.147   2.247   5.431 -0.0774  1.2535  0.1869
   86SLPC  C317 8310   5.990   2.332   5.306  0.1767 -0.0724  0.0332
   86SLPC  H17X 8311   6.001   2.442   5.317  0.4384 -0.2636  1.9463
   86SLPC  H17Y 8312   5.880   2.316   5.294  0.2210 -0.3667  0.0042
   86SLPC  C318 8313   6.066   2.266   5.191  0.0693  0.1080 -0.2610
   86SLPC  H18X 8314   6.026   2.299   5.093 -1.3664  0.9772  0.5870
   86SLPC  H18Y 8315   6.056   2.155   5.199  1.5008 -0.0807 -0.7382
   86SLPC  H18Z 8316   6.176   2.281   5.197  0.1095 -0.0458 -0.5443
   87SLPC     N 8317   3.453   2.472   3.627  0.4957 -0.5744  0.1145
   87SLPC   C13 8318   3.374   2.571   3.543 -0.1434 -0.2161  0.5167
   87SLPC  H13A 8319   3.441   2.645   3.503 -1.0096  1.3578  1.8690
   87SLPC  H13B 8320   3.317   2.517   3.469 -1.1141  2.1832 -0.5949
   87SLPC  H13C 8321   3.305   2.610   3.616  1.0461 -0.6386  1.9220
   87SLPC   C14 8322   3.514   2.547   3.746 -0.7989  0.1144 -0.2324
   87SLPC  H14A 8323   3.545   2.484   3.828  1.6775 -0.4854 -1.5200
   87SLPC  H14B 8324   3.607   2.591   3.715  0.2246 -1.4949  0.4207
   87SLPC  H14C 8325   3.457   2.633   3.778  1.2492  0.7160  2.0803
   87SLPC   C15 8326   3.566   2.408   3.542  0.3442  0.1791 -1.3438
   87SLPC  H15A 8327   3.625   2.339   3.601  0.8564  1.0080 -0.8494
   87SLPC  H15B 8328   3.533   2.346   3.460 -0.1973  0.1762 -1.1229
   87SLPC  H15C 8329   3.626   2.486   3.497 -1.7292  2.0828 -0.9695
   87SLPC   C12 8330   3.350   2.370   3.678  0.2318 -0.3653  0.2036
   87SLPC  H12A 8331   3.403   2.282   3.709 -2.1990 -1.8605  0.3845
   87SLPC  H12B 8332   3.285   2.334   3.600  1.5560 -2.3304 -0.0355
   87SLPC   C11 8333   3.260   2.401   3.795  0.3533 -0.3881 -0.4148
   87SLPC  H11A 8334   3.320   2.435   3.882  0.1203 -0.1696 -0.3396
   87SLPC  H11B 8335   3.207   2.306   3.816 -0.4462 -0.2240 -1.6019
   87SLPC     P 8336   3.083   2.593   3.850 -0.3616 -0.3143 -0.1694
   87SLPC   O13 8337   3.031   2.705   3.768  1.0276 -0.3468 -0.3758
   87SLPC   O14 8338   2.982   2.513   3.921  0.3564 -0.0318  0.4361
   87SLPC   O12 8339   3.165   2.501   3.754  0.1820  0.2078  0.0074
   87SLPC   O11 8340   3.195   2.642   3.946 -0.2903  0.1087 -0.3050
   87SLPC    C1 8341   3.165   2.682   4.083  0.3439  1.3633 -0.5943
   87SLPC    HA 8342   3.179   2.790   4.104  1.1559  0.8708  1.6799
   87SLPC    HB 8343   3.060   2.654   4.103  1.6699 -3.5405  1.0552
   87SLPC    C2 8344   3.259   2.606   4.183 -0.1364 -0.2806  0.4147
   87SLPC    HS 8345   3.242   2.497   4.175 -0.9378 -0.2426  1.4417
   87SLPC   O21 8346   3.213   2.641   4.313 -0.1149 -0.5088  0.3035
   87SLPC   C21 8347   3.231   2.538   4.396  0.2918 -0.3800  0.2269
   87SLPC   O22 8348   3.278   2.431   4.365  0.0134 -0.5501 -0.1216
   87SLPC   C22 8349   3.214   2.581   4.545  0.2876 -0.8646 -0.1624
   87SLPC   H2R 8350   3.119   2.638   4.547  1.6933  1.6329  0.0207
   87SLPC   H2S 8351   3.210   2.491   4.609  1.7242 -1.1628 -0.4540
   87SLPC    C3 8352   3.408   2.639   4.171  0.2478  0.0160  0.3282
   87SLPC    HX 8353   3.413   2.749   4.165  1.1137 -0.0569 -0.4977
   87SLPC    HY 8354   3.452   2.609   4.074 -0.2606 -2.0220  0.6718
   87SLPC   O31 8355   3.488   2.595   4.282  0.6434  0.2463 -0.1347
   87SLPC   C31 8356   3.609   2.648   4.305  0.6802  0.6520  1.0476
   87SLPC   O32 8357   3.658   2.726   4.227  0.5499  0.1851  0.2397
   87SLPC   C32 8358   3.670   2.583   4.429 -0.4994  0.6835 -0.0757
   87SLPC   H2X 8359   3.757   2.526   4.392 -1.1569  0.4577 -1.3067
   87SLPC   H2Y 8360   3.594   2.525   4.487  0.7451 -1.1152 -0.1604
   87SLPC   C23 8361   3.324   2.681   4.601 -0.3546 -0.1974 -0.7103
   87SLPC   H3R 8362   3.354   2.770   4.540 -0.1571  1.5028  1.7389
   87SLPC   H3S 8363   3.419   2.626   4.617 -0.8579 -0.9983 -0.4349
   87SLPC   C24 8364   3.279   2.731   4.741  0.2860 -0.5546 -0.2513
   87SLPC   H4R 8365   3.243   2.650   4.808 -1.3242  1.3836  1.3739
   87SLPC   H4S 8366   3.187   2.792   4.726  0.0879 -0.6639  0.5094
   87SLPC   C25 8367   3.387   2.817   4.814  0.7359  0.7521 -0.4506
   87SLPC   H5R 8368   3.388   2.916   4.763  3.0160  1.5580  1.0150
   87SLPC   H5S 8369   3.481   2.759   4.820  1.4720  2.0070  1.2081
   87SLPC   C26 8370   3.352   2.839   4.964 -0.5026  0.7605 -0.2953
   87SLPC   H6R 8371   3.318   2.736   4.991 -1.2064  0.5233 -1.9728
   87SLPC   H6S 8372   3.264   2.905   4.978 -0.2777  0.8095  1.0427
   87SLPC   C27 8373   3.468   2.883   5.063  0.5106 -0.1248  0.4722
   87SLPC   H7R 8374   3.522   2.966   5.014  0.2772  0.0722  0.5480
   87SLPC   H7S 8375   3.527   2.790   5.078 -1.9013 -1.7437  0.5294
   87SLPC   C28 8376   3.408   2.925   5.197  0.2508  0.2231 -0.2163
   87SLPC   H8R 8377   3.339   2.850   5.241  0.1491  1.3854  1.7410
   87SLPC   H8S 8378   3.349   3.014   5.166  1.0276  0.6511 -0.5082
   87SLPC   C29 8379   3.514   2.949   5.301  0.2663 -0.3234  0.4033
   87SLPC   H9R 8380   3.574   2.857   5.309 -0.0801 -0.5164  0.8457
   87SLPC  C210 8381   3.554   3.068   5.365 -0.7381  0.9022 -0.1554
   87SLPC  H10R 8382   3.630   3.048   5.443 -0.9519 -0.6306 -0.2943
   87SLPC  C211 8383   3.494   3.202   5.363  0.3285 -0.2755 -0.4066
   87SLPC  H11R 8384   3.437   3.209   5.457  1.2955 -0.6216  0.2242
   87SLPC  H11S 8385   3.409   3.212   5.293 -0.3996 -1.4372  0.2774
   87SLPC  C212 8386   3.612   3.300   5.344  0.4504 -0.2683 -0.0950
   87SLPC  H12R 8387   3.638   3.318   5.239 -0.3669  0.4756 -0.1777
   87SLPC  C213 8388   3.675   3.374   5.440  0.1451 -0.1648 -0.0911
   87SLPC  H13R 8389   3.758   3.441   5.414  2.0224 -1.6772  1.5875
   87SLPC  C214 8390   3.632   3.373   5.588 -0.6053  1.1340 -0.6482
   87SLPC  H14R 8391   3.533   3.324   5.594  0.0215 -0.3023 -1.4578
   87SLPC  H14S 8392   3.629   3.476   5.629 -0.0743  0.5868  0.8459
   87SLPC  C215 8393   3.742   3.308   5.674  0.3640 -0.1075  0.1807
   87SLPC  H15R 8394   3.831   3.374   5.675 -0.0997  0.5906 -1.4830
   87SLPC  H15S 8395   3.777   3.212   5.630 -3.3344 -1.4170 -0.2804
   87SLPC  C216 8396   3.692   3.266   5.810  0.1543 -0.6660  0.8487
   87SLPC  H16R 8397   3.622   3.181   5.797  0.5124 -0.8814  0.3400
   87SLPC  H16S 8398   3.643   3.355   5.855  1.8729  0.0664  1.3695
   87SLPC  C217 8399   3.803   3.219   5.905 -0.2184  0.4842  0.6863
   87SLPC  H17R 8400   3.884   3.294   5.893 -0.5183  0.3745 -2.9784
   87SLPC  H17S 8401   3.859   3.130   5.868  2.0107  2.1913 -0.2525
   87SLPC  C218 8402   3.770   3.200   6.053 -0.0783 -0.5062  0.0363
   87SLPC  H18R 8403   3.691   3.122   6.068 -0.9701  0.6643  1.8010
   87SLPC  H18S 8404   3.733   3.293   6.101 -1.7065 -1.7073  1.2353
   87SLPC  H18T 8405   3.852   3.159   6.116 -1.0093 -2.2312  0.1987
   87SLPC   C33 8406   3.731   2.690   4.515 -0.3431  0.2872 -0.2355
   87SLPC   H3X 8407   3.661   2.775   4.525 -0.1440  0.7088 -2.0284
   87SLPC   H3Y 8408   3.817   2.735   4.461  0.1925 -0.2936  0.1247
   87SLPC   C34 8409   3.790   2.639   4.646  0.5108 -0.3569 -0.2115
   87SLPC   H4X 8410   3.892   2.610   4.612  0.4692  1.1456 -1.7388
   87SLPC   H4Y 8411   3.732   2.561   4.701 -2.2850  1.8910  0.2597
   87SLPC   C35 8412   3.799   2.759   4.742 -0.0225  0.3009  0.4393
   87SLPC   H5X 8413   3.696   2.792   4.770  0.3262  0.7037  1.2675
   87SLPC   H5Y 8414   3.843   2.847   4.691 -1.9363 -0.4244 -2.7693
   87SLPC   C36 8415   3.867   2.726   4.870 -0.4324 -0.2832  0.2288
   87SLPC   H6X 8416   3.957   2.791   4.877 -2.5638  2.9250  0.0479
   87SLPC   H6Y 8417   3.902   2.620   4.870  2.0900  0.4635  0.4740
   87SLPC   C37 8418   3.786   2.755   4.994  0.1744  0.6302 -0.4417
   87SLPC   H7X 8419   3.697   2.688   4.992  1.7168 -1.5065 -0.4977
   87SLPC   H7Y 8420   3.746   2.858   4.982  0.2546  0.9164  1.5147
   87SLPC   C38 8421   3.862   2.745   5.123  0.1730  0.5003 -0.5617
   87SLPC   H8X 8422   3.794   2.791   5.199  1.5111  1.5008  0.0637
   87SLPC   H8Y 8423   3.954   2.807   5.128 -0.1002  1.0598 -2.2119
   87SLPC   C39 8424   3.881   2.601   5.172  0.4547 -0.5162  0.2637
   87SLPC   H9X 8425   3.959   2.547   5.115  0.2956 -1.3512  0.8224
   87SLPC   H9Y 8426   3.788   2.550   5.141  0.6887  0.1977 -1.7255
   87SLPC  C310 8427   3.893   2.583   5.325 -0.1091 -0.2987  0.2418
   87SLPC  H10X 8428   3.835   2.652   5.389  0.2682 -1.0317  1.4060
   87SLPC  H10Y 8429   4.000   2.609   5.343  0.7774 -0.8752 -3.2808
   87SLPC  C311 8430   3.878   2.441   5.375  0.3569  0.4877 -0.8490
   87SLPC  H11X 8431   3.968   2.382   5.348  0.8779  0.9051 -0.0956
   87SLPC  H11Y 8432   3.802   2.395   5.309  2.0908 -1.0517 -1.8500
   87SLPC  C312 8433   3.850   2.436   5.523  0.2685  0.8174  0.7062
   87SLPC  H12X 8434   3.754   2.485   5.549 -1.0653  0.6194 -3.1760
   87SLPC  H12Y 8435   3.929   2.501   5.566  1.9407  1.1950 -2.6466
   87SLPC  C313 8436   3.831   2.289   5.574 -0.5614  0.2691  0.0507
   87SLPC  H13X 8437   3.919   2.230   5.540  0.6581  1.8647  0.3650
   87SLPC  H13Y 8438   3.735   2.241   5.543 -0.9633  1.0464  0.0727
   87SLPC  C314 8439   3.824   2.286   5.727 -0.3818  0.1817 -0.1476
   87SLPC  H14X 8440   3.912   2.340   5.770 -0.9722  0.3464  0.8740
   87SLPC  H14Y 8441   3.836   2.180   5.758  1.2570  0.5471  0.6119
   87SLPC  C315 8442   3.694   2.344   5.777 -0.1908 -0.3984 -0.4545
   87SLPC  H15X 8443   3.613   2.286   5.728  0.1529  0.8517 -2.6586
   87SLPC  H15Y 8444   3.673   2.446   5.739  2.7914  0.0735 -1.1263
   87SLPC  C316 8445   3.691   2.366   5.931  1.1071  0.3215  0.4078
   87SLPC  H16X 8446   3.600   2.423   5.959 -0.4046 -1.0946 -1.3881
   87SLPC  H16Y 8447   3.774   2.437   5.950 -0.1330  2.2499 -0.9951
   87SLPC  C317 8448   3.697   2.241   6.012  0.6807 -1.1546 -0.8595
   87SLPC  H17X 8449   3.707   2.277   6.116  1.1092 -2.7705 -0.3077
   87SLPC  H17Y 8450   3.791   2.188   5.986  1.9793  0.2375  0.7911
   87SLPC  C318 8451   3.573   2.156   6.011 -0.2302 -0.3898  0.5706
   87SLPC  H18X 8452   3.489   2.227   6.025 -0.9128 -1.2878  1.1632
   87SLPC  H18Y 8453   3.561   2.074   6.086 -1.2994 -0.6084  0.1670
   87SLPC  H18Z 8454   3.565   2.113   5.909 -0.3292  0.5919  0.1577
   88SLPC     N 8455   4.322   1.518   3.990 -0.2030 -0.7000 -0.6642
   88SLPC   C13 8456   4.215   1.426   4.036  0.0842 -0.1895  0.3268
   88SLPC  H13A 8457   4.173   1.466   4.127 -0.4435  1.1123 -0.4662
   88SLPC  H13B 8458   4.127   1.437   3.974  0.4368 -2.7125 -0.7333
   88SLPC  H13C 8459   4.246   1.324   4.056 -1.0632 -0.8158 -0.9631
   88SLPC   C14 8460   4.425   1.514   4.095  0.0683  0.0383 -0.7235
   88SLPC  H14A 8461   4.466   1.415   4.101 -0.3259 -0.1875 -1.6270
   88SLPC  H14B 8462   4.510   1.580   4.082 -0.1673  0.3378 -0.7594
   88SLPC  H14C 8463   4.381   1.535   4.192 -1.8719  1.7084 -1.8618
   88SLPC   C15 8464   4.277   1.658   3.982  0.3667  0.3903 -0.7143
   88SLPC  H15A 8465   4.350   1.715   3.926  0.0680 -0.4769 -2.0381
   88SLPC  H15B 8466   4.186   1.663   3.923 -0.4736 -1.5574  0.3387
   88SLPC  H15C 8467   4.275   1.703   4.080  2.2618 -0.1097 -0.4088
   88SLPC   C12 8468   4.375   1.467   3.858 -0.2884  0.4012 -0.0237
   88SLPC  H12A 8469   4.450   1.535   3.820  0.5587 -1.1915 -1.3302
   88SLPC  H12B 8470   4.300   1.482   3.781 -3.1967 -0.1225  2.5241
   88SLPC   C11 8471   4.438   1.322   3.863  0.6242  0.3018  0.6868
   88SLPC  H11A 8472   4.526   1.321   3.931  0.7713 -1.2849  0.5186
   88SLPC  H11B 8473   4.480   1.308   3.761  1.9671  0.1084  1.2508
   88SLPC     P 8474   4.396   1.070   3.933 -0.3051 -0.1161  0.0550
   88SLPC   O13 8475   4.295   1.016   4.026  0.9265  0.3605 -0.2955
   88SLPC   O14 8476   4.414   0.990   3.807 -0.1717 -0.1800  0.3427
   88SLPC   O12 8477   4.348   1.216   3.888  0.0169 -0.0736  0.4314
   88SLPC   O11 8478   4.525   1.085   4.008 -0.2746 -0.3918 -1.0399
   88SLPC    C1 8479   4.654   1.054   3.950  0.6076 -0.3745  0.0447
   88SLPC    HA 8480   4.634   0.994   3.858 -2.3628 -3.4846  2.4247
   88SLPC    HB 8481   4.706   1.148   3.923  1.7029 -1.4729 -1.9174
   88SLPC    C2 8482   4.746   0.972   4.037 -0.0081 -0.3561 -0.1882
   88SLPC    HS 8483   4.780   0.884   3.978 -0.7209 -0.0203 -1.1412
   88SLPC   O21 8484   4.686   0.924   4.160 -0.1951 -0.7401 -0.5609
   88SLPC   C21 8485   4.602   0.817   4.152 -0.1509  0.2889  0.0238
   88SLPC   O22 8486   4.576   0.763   4.045  0.0617  0.0558 -0.6840
   88SLPC   C22 8487   4.540   0.790   4.289  0.3984 -0.2845  0.4890
   88SLPC   H2R 8488   4.629   0.800   4.355  1.0635 -0.4186 -0.3694
   88SLPC   H2S 8489   4.468   0.874   4.301 -1.7170 -1.4984 -2.6141
   88SLPC    C3 8490   4.884   1.053   4.057 -0.6948  0.3631 -0.1000
   88SLPC    HX 8491   4.847   1.138   4.118 -2.1378 -0.0033 -0.4377
   88SLPC    HY 8492   4.921   1.086   3.958  1.2395 -0.9819  0.1274
   88SLPC   O31 8493   4.982   0.968   4.123  0.3275  0.3370 -0.0404
   88SLPC   C31 8494   5.088   1.032   4.156  0.1291 -0.1182  0.1711
   88SLPC   O32 8495   5.117   1.147   4.118  0.4450  0.8897 -0.2778
   88SLPC   C32 8496   5.180   0.936   4.229 -0.2517 -0.4995 -0.5317
   88SLPC   H2X 8497   5.241   0.886   4.151  0.1375  0.5253 -0.9028
   88SLPC   H2Y 8498   5.113   0.862   4.278 -2.7365  1.7223 -0.3313
   88SLPC   C23 8499   4.486   0.652   4.311  0.0193  0.0895  0.5014
   88SLPC   H3R 8500   4.568   0.579   4.297  3.2596  3.2789  1.2985
   88SLPC   H3S 8501   4.401   0.642   4.240  0.1693 -1.3516  0.4872
   88SLPC   C24 8502   4.427   0.632   4.457  0.1062 -0.1626 -0.5340
   88SLPC   H4R 8503   4.387   0.528   4.463  1.6730 -0.7375  0.7000
   88SLPC   H4S 8504   4.351   0.710   4.475  2.1779  1.7906  0.2348
   88SLPC   C25 8505   4.522   0.647   4.571 -0.1599  0.2703 -0.9273
   88SLPC   H5R 8506   4.557   0.752   4.567  0.8129 -0.0370 -0.8306
   88SLPC   H5S 8507   4.609   0.577   4.573 -0.6096 -0.3887 -2.5843
   88SLPC   C26 8508   4.446   0.639   4.706  0.0511  0.5897 -0.0499
   88SLPC   H6R 8509   4.415   0.534   4.725  0.3550  0.7040  1.1611
   88SLPC   H6S 8510   4.351   0.695   4.688  0.8683  1.8363 -0.6673
   88SLPC   C27 8511   4.521   0.688   4.831  0.1919  0.2179  0.1256
   88SLPC   H7R 8512   4.530   0.799   4.836 -1.3922  0.6324 -3.3933
   88SLPC   H7S 8513   4.628   0.660   4.822 -0.1139 -1.1913  0.5844
   88SLPC   C28 8514   4.464   0.620   4.959 -0.5218  0.7769 -0.2906
   88SLPC   H8R 8515   4.472   0.510   4.950  0.2265  0.8097 -0.1038
   88SLPC   H8S 8516   4.355   0.636   4.965 -0.8727 -1.1554 -0.8238
   88SLPC   C29 8517   4.534   0.661   5.090 -0.5439 -1.5736  0.5403
   88SLPC   H9R 8518   4.643   0.678   5.081 -0.5166 -1.2068  1.4829
   88SLPC  C210 8519   4.476   0.690   5.206  0.8307 -0.3844  0.2532
   88SLPC  H10R 8520   4.541   0.729   5.287  2.7200 -0.7778 -0.9980
   88SLPC  C211 8521   4.337   0.680   5.244  0.7057 -0.1461  0.4398
   88SLPC  H11R 8522   4.277   0.721   5.159  2.1338  0.2024 -0.4418
   88SLPC  H11S 8523   4.325   0.748   5.331 -1.3985 -4.4120  3.9096
   88SLPC  C212 8524   4.281   0.547   5.287 -0.4115 -0.1700  1.4971
   88SLPC  H12R 8525   4.215   0.510   5.207 -0.3960  2.1587  0.3140
   88SLPC  C213 8526   4.316   0.482   5.397  0.0357 -0.2367  0.1754
   88SLPC  H13R 8527   4.260   0.394   5.431 -2.2076  0.7505 -0.8210
   88SLPC  C214 8528   4.409   0.527   5.500 -0.2723  0.7355 -0.3639
   88SLPC  H14R 8529   4.461   0.616   5.458 -0.3545  0.1106 -1.8257
   88SLPC  H14S 8530   4.480   0.444   5.518  0.2932  1.7097  2.4495
   88SLPC  C215 8531   4.345   0.574   5.629 -0.5861  0.1096  1.3485
   88SLPC  H15R 8532   4.280   0.661   5.608 -2.0236 -1.0151  0.9120
   88SLPC  H15S 8533   4.426   0.611   5.695 -0.3769  0.8156  0.7118
   88SLPC  C216 8534   4.252   0.473   5.701  0.1097  0.2762  0.5931
   88SLPC  H16R 8535   4.264   0.366   5.670 -0.0741  0.2102  0.7520
   88SLPC  H16S 8536   4.149   0.478   5.661 -0.2937 -1.1736  1.3683
   88SLPC  C217 8537   4.259   0.490   5.853  0.4437 -0.2397  0.2464
   88SLPC  H17R 8538   4.221   0.592   5.879 -1.7838 -0.8182 -0.5296
   88SLPC  H17S 8539   4.368   0.487   5.874  0.4782  0.1057  0.1336
   88SLPC  C218 8540   4.183   0.375   5.914 -0.2924 -0.6197 -0.0779
   88SLPC  H18R 8541   4.202   0.278   5.864  2.7613  0.8802 -2.1058
   88SLPC  H18S 8542   4.077   0.408   5.915  0.3590  1.6823 -0.6325
   88SLPC  H18T 8543   4.209   0.363   6.021 -0.4217 -0.0984  0.0140
   88SLPC   C33 8544   5.274   1.010   4.318  0.1909 -0.0690 -0.4307
   88SLPC   H3X 8545   5.342   1.071   4.255 -1.8116  4.6750  1.5342
   88SLPC   H3Y 8546   5.323   0.926   4.371 -2.1689 -0.7645  0.8125
   88SLPC   C34 8547   5.211   1.089   4.436 -0.6588  0.1168  0.1942
   88SLPC   H4X 8548   5.128   1.027   4.477  0.4344 -1.1988  0.5338
   88SLPC   H4Y 8549   5.174   1.189   4.406 -0.0873  0.5980  1.0501
   88SLPC   C35 8550   5.320   1.122   4.552  0.4436  0.1022  0.5598
   88SLPC   H5X 8551   5.271   1.193   4.622  0.9758  2.4492 -1.3075
   88SLPC   H5Y 8552   5.397   1.184   4.501 -0.3387  0.1814 -0.5687
   88SLPC   C36 8553   5.387   0.998   4.607  0.4643 -0.7112  1.5965
   88SLPC   H6X 8554   5.481   0.977   4.551  0.2617  1.0520  0.5347
   88SLPC   H6Y 8555   5.324   0.906   4.603 -1.7767  0.7899  0.4055
   88SLPC   C37 8556   5.428   1.002   4.757  0.0875 -0.2220  0.1722
   88SLPC   H7X 8557   5.456   1.107   4.783 -0.1601 -0.2350  0.4938
   88SLPC   H7Y 8558   5.517   0.937   4.773  1.1590  1.7738  3.4350
   88SLPC   C38 8559   5.319   0.964   4.854  0.3802 -0.0182  0.4182
   88SLPC   H8X 8560   5.315   0.853   4.850  0.7129 -0.0210  0.1012
   88SLPC   H8Y 8561   5.224   1.005   4.814 -0.2110 -1.8139 -0.1286
   88SLPC   C39 8562   5.355   1.019   4.988  0.5516 -0.7014  0.0805
   88SLPC   H9X 8563   5.331   1.128   4.986  2.3010 -0.2780  0.4783
   88SLPC   H9Y 8564   5.459   0.996   5.019  0.6241  1.2454  1.4824
   88SLPC  C310 8565   5.268   0.960   5.100 -0.2109  0.2116  0.3034
   88SLPC  H10X 8566   5.275   0.849   5.096  2.6595  0.1257  2.9104
   88SLPC  H10Y 8567   5.165   0.998   5.085 -0.4578 -0.4629  0.2396
   88SLPC  C311 8568   5.327   0.996   5.241  0.0204 -0.3746  0.4622
   88SLPC  H11X 8569   5.417   0.932   5.249 -0.9983 -2.0020 -0.4808
   88SLPC  H11Y 8570   5.250   0.960   5.313 -1.4008  1.4817 -0.0474
   88SLPC  C312 8571   5.373   1.136   5.259  0.0738 -0.0864 -0.2756
   88SLPC  H12X 8572   5.315   1.205   5.194 -1.8413 -0.2522  1.1816
   88SLPC  H12Y 8573   5.481   1.145   5.235 -0.3317  0.7807 -1.9208
   88SLPC  C313 8574   5.349   1.181   5.410  0.1086 -0.9101  0.2091
   88SLPC  H13X 8575   5.429   1.257   5.421  0.0698 -0.2477 -3.0159
   88SLPC  H13Y 8576   5.371   1.101   5.482  0.9222 -0.8730  0.0074
   88SLPC  C314 8577   5.209   1.238   5.439  0.5279 -0.5363  0.7056
   88SLPC  H14X 8578   5.143   1.180   5.371  0.3230 -0.3041  0.7056
   88SLPC  H14Y 8579   5.201   1.341   5.398 -1.5527 -0.9474 -0.0263
   88SLPC  C315 8580   5.170   1.235   5.584  0.0676  0.3095 -0.6392
   88SLPC  H15X 8581   5.257   1.266   5.645 -0.1333 -1.7807  0.8338
   88SLPC  H15Y 8582   5.160   1.125   5.601  1.4596  0.2033 -0.4464
   88SLPC  C316 8583   5.055   1.322   5.623 -0.5735 -0.2646  0.0269
   88SLPC  H16X 8584   4.957   1.284   5.589 -0.9431  1.1186 -0.5386
   88SLPC  H16Y 8585   5.064   1.425   5.582 -2.0962 -0.0784  0.1255
   88SLPC  C317 8586   5.043   1.330   5.775 -0.6652 -0.5126  0.3054
   88SLPC  H17X 8587   5.120   1.395   5.823  0.0502 -1.2148  0.1347
   88SLPC  H17Y 8588   5.055   1.223   5.805 -0.1508 -0.6239 -0.2876
   88SLPC  C318 8589   4.910   1.395   5.813  0.0735 -0.4446  0.3998
   88SLPC  H18X 8590   4.911   1.434   5.917  0.0601 -0.8851  0.5681
   88SLPC  H18Y 8591   4.830   1.319   5.803 -0.1406 -0.1277 -0.3651
   88SLPC  H18Z 8592   4.888   1.482   5.747 -3.1207 -0.4867  1.2580
   89SAPE     N 8593   2.568   5.494   8.388 -0.7595  0.2468  0.2606
   89SAPE   HN1 8594   2.527   5.504   8.483  1.7312  1.9385  1.2653
   89SAPE   HN2 8595   2.504   5.435   8.331  1.4854 -2.5995  0.5152
   89SAPE   HN3 8596   2.663   5.454   8.395 -0.5252  0.7309 -0.0080
   89SAPE   C12 8597   2.572   5.636   8.337  0.6020  0.4848  0.1466
   89SAPE  H12A 8598   2.580   5.706   8.424 -2.1177  0.5522  0.4197
   89SAPE  H12B 8599   2.469   5.643   8.297  1.1878 -1.7557 -2.0090
   89SAPE   C11 8600   2.682   5.645   8.236 -0.2758  0.3528  0.4502
   89SAPE  H11A 8601   2.658   5.589   8.144 -0.9202  2.4668 -0.7339
   89SAPE  H11B 8602   2.769   5.601   8.290 -0.7915  0.6183  1.5327
   89SAPE     P 8603   2.610   5.867   8.113 -0.0475 -0.2018  0.6314
   89SAPE   O13 8604   2.472   5.856   8.151 -0.3631  0.1134 -0.2678
   89SAPE   O14 8605   2.665   6.002   8.096 -0.0761 -0.0086  0.2029
   89SAPE   O12 8606   2.704   5.787   8.205  0.4499 -0.0980 -0.0153
   89SAPE   O11 8607   2.619   5.803   7.972 -0.1171  0.0351 -0.0027
   89SAPE    C1 8608   2.742   5.781   7.902 -0.2959  0.2337  0.7650
   89SAPE    HA 8609   2.830   5.802   7.967 -0.5274 -1.0932  1.5500
   89SAPE    HB 8610   2.751   5.670   7.891  1.4420  0.3700  0.5012
   89SAPE    C2 8611   2.761   5.843   7.760 -0.3400 -0.5252  0.6379
   89SAPE    HS 8612   2.673   5.812   7.698 -0.5180 -0.6387  0.9463
   89SAPE   O21 8613   2.885   5.814   7.700 -0.1418  0.7091 -0.3689
   89SAPE   C21 8614   2.898   5.697   7.647 -0.1023 -0.2215  0.0139
   89SAPE   O22 8615   2.824   5.603   7.651 -0.4353  0.5331  0.3708
   89SAPE   C22 8616   3.032   5.706   7.575 -0.4970 -0.0922 -0.3091
   89SAPE   H2R 8617   3.106   5.753   7.642 -2.1901 -0.5893  2.0259
   89SAPE   H2S 8618   3.077   5.605   7.569 -0.0747 -0.0477  1.5305
   89SAPE    C3 8619   2.748   6.004   7.766 -0.2534  0.9771 -0.1634
   89SAPE    HX 8620   2.825   6.038   7.838 -0.0908  0.7876 -0.2440
   89SAPE    HY 8621   2.653   6.027   7.818 -0.6120  0.5531 -0.6189
   89SAPE   O31 8622   2.751   6.072   7.634 -0.0076 -0.4399  0.3606
   89SAPE   C31 8623   2.640   6.060   7.565  0.3932 -0.0432 -0.1302
   89SAPE   O32 8624   2.547   5.993   7.594 -0.1412 -0.0028  0.4356
   89SAPE   C32 8625   2.664   6.125   7.432 -0.2666  0.8174  1.1024
   89SAPE   H2X 8626   2.750   6.069   7.389 -1.0686 -0.3255  0.9307
   89SAPE   H2Y 8627   2.696   6.229   7.456 -1.1665  1.5147 -0.5100
   89SAPE   C23 8628   3.029   5.773   7.433 -0.1288 -0.1980 -0.5126
   89SAPE   H3R 8629   2.975   5.869   7.449  1.0608  0.0557  2.7999
   89SAPE   H3S 8630   2.973   5.715   7.358 -1.2861 -0.4278  0.5047
   89SAPE   C24 8631   3.168   5.801   7.384  0.4454 -0.1046  0.1641
   89SAPE   H4R 8632   3.220   5.846   7.471  0.0566 -0.5048  0.6099
   89SAPE   H4S 8633   3.160   5.881   7.307  0.4507  0.9658  1.2559
   89SAPE   C25 8634   3.239   5.680   7.335 -0.5997 -0.1335 -0.6416
   89SAPE   H5R 8635   3.265   5.612   7.418  0.1356 -0.3994 -1.0744
   89SAPE   C26 8636   3.278   5.647   7.215  0.2383  0.2537  0.3138
   89SAPE   H6R 8637   3.324   5.549   7.196 -0.8197 -0.1610 -0.1807
   89SAPE   C27 8638   3.271   5.735   7.091 -0.0886  0.0211  0.8623
   89SAPE   H7R 8639   3.191   5.810   7.109 -0.8588 -0.8289  1.1197
   89SAPE   H7S 8640   3.239   5.666   7.010 -1.1884 -0.7776  1.9225
   89SAPE   C28 8641   3.392   5.811   7.047  0.1681  1.1707 -0.2882
   89SAPE   H8R 8642   3.459   5.837   7.130 -0.6059  3.4440 -0.2969
   89SAPE   C29 8643   3.426   5.849   6.919  0.6613  0.4516 -0.4107
   89SAPE   H9R 8644   3.510   5.919   6.917 -0.0898  1.3650 -1.7138
   89SAPE  C210 8645   3.340   5.836   6.798  1.0390 -0.3021  0.6199
   89SAPE  H10R 8646   3.368   5.928   6.742 -0.2966  1.1775  2.2474
   89SAPE  H10S 8647   3.231   5.842   6.820  0.4567 -0.5221 -1.9390
   89SAPE  C211 8648   3.359   5.715   6.711 -0.1055  0.0082 -0.1138
   89SAPE  H11R 8649   3.465   5.692   6.692 -0.4977 -0.5156 -1.8948
   89SAPE  C212 8650   3.254   5.649   6.658 -1.1166 -0.1678  0.7620
   89SAPE  H12R 8651   3.280   5.569   6.587  0.9128  0.5099  0.6764
   89SAPE  C213 8652   3.103   5.677   6.673 -0.3770  0.2711  0.6601
   89SAPE  H13R 8653   3.093   5.699   6.781 -1.7174 -1.2878  0.8783
   89SAPE  H13S 8654   3.028   5.596   6.665 -1.1845  0.8054  2.5367
   89SAPE  C214 8655   3.048   5.795   6.606 -0.5239 -0.4666  1.1687
   89SAPE  H14R 8656   3.119   5.831   6.530 -0.8557  0.1423  1.1385
   89SAPE  C215 8657   2.946   5.873   6.653  0.0355 -0.3126  0.3025
   89SAPE  H15R 8658   2.938   5.969   6.599  2.0008 -1.9481 -3.2115
   89SAPE  C216 8659   2.850   5.839   6.761 -0.0183  0.0615  0.3590
   89SAPE  H16R 8660   2.834   5.729   6.769 -0.2740  0.1552  1.2734
   89SAPE  H16S 8661   2.746   5.862   6.729 -0.1115  0.3693  0.8710
   89SAPE  C217 8662   2.871   5.888   6.910 -0.5604  0.6016  0.7782
   89SAPE  H17R 8663   2.860   5.998   6.918 -0.2860  0.7821 -0.9019
   89SAPE  H17S 8664   2.971   5.852   6.941 -0.4589 -0.4557 -0.6828
   89SAPE  C218 8665   2.769   5.830   7.011 -0.3837 -0.0474  0.1658
   89SAPE  H18R 8666   2.753   5.720   6.999 -0.8096  0.1760 -1.5922
   89SAPE  H18S 8667   2.668   5.875   6.999 -0.7667 -0.4952  1.5987
   89SAPE  C219 8668   2.816   5.845   7.163  0.6486  0.9004  0.3885
   89SAPE  H19R 8669   2.823   5.951   7.194  1.0205  1.0029 -0.0313
   89SAPE  H19S 8670   2.916   5.797   7.153  0.4212  0.3021  0.8920
   89SAPE  C220 8671   2.718   5.771   7.256  0.4020 -1.0558 -0.4314
   89SAPE  H20R 8672   2.677   5.682   7.204  0.2940  0.1030 -2.4445
   89SAPE  H20S 8673   2.633   5.839   7.278  0.3179 -1.3936  0.3178
   89SAPE  H20T 8674   2.762   5.735   7.351 -2.3698 -1.3575  0.8431
   89SAPE   C33 8675   2.544   6.125   7.333  0.4318  0.1462  0.4592
   89SAPE   H3X 8676   2.467   6.198   7.365 -0.4337  0.4843 -2.1520
   89SAPE   H3Y 8677   2.488   6.029   7.343  1.0783 -0.5180 -1.6609
   89SAPE   C34 8678   2.578   6.150   7.185  0.1735 -0.3936  0.1599
   89SAPE   H4X 8679   2.677   6.109   7.158 -0.9799 -2.3633 -1.3286
   89SAPE   H4Y 8680   2.584   6.261   7.175  1.2977 -0.6167 -2.3129
   89SAPE   C35 8681   2.466   6.097   7.093 -0.4923 -0.2110  0.4485
   89SAPE   H5X 8682   2.368   6.134   7.129 -0.9526  0.2121 -1.1676
   89SAPE   H5Y 8683   2.461   5.986   7.093  1.6724 -0.3792  1.6043
   89SAPE   C36 8684   2.469   6.160   6.957 -0.9030 -0.3660  0.2549
   89SAPE   H6X 8685   2.461   6.270   6.969 -0.2049  0.0328 -2.2740
   89SAPE   H6Y 8686   2.386   6.127   6.891 -0.0324 -0.4104 -0.8669
   89SAPE   C37 8687   2.606   6.122   6.885  0.8147 -0.9716  0.0190
   89SAPE   H7X 8688   2.606   6.013   6.864  3.0379 -1.0921  0.4330
   89SAPE   H7Y 8689   2.693   6.144   6.950  1.0639  0.3700 -0.7030
   89SAPE   C38 8690   2.625   6.197   6.752 -0.2836  0.1272  0.9366
   89SAPE   H8X 8691   2.651   6.304   6.768  1.7740 -0.0214 -0.7920
   89SAPE   H8Y 8692   2.524   6.204   6.706  0.4379  0.6323 -0.6335
   89SAPE   C39 8693   2.715   6.132   6.636 -0.4489  0.4543 -0.4273
   89SAPE   H9X 8694   2.699   6.023   6.626  1.3520  0.2123 -1.0497
   89SAPE   H9Y 8695   2.820   6.151   6.667 -0.7307  1.1153  0.1429
   89SAPE  C310 8696   2.689   6.202   6.506  0.0303  0.2593  0.3111
   89SAPE  H10X 8697   2.731   6.304   6.521  1.3816  0.0196 -1.4963
   89SAPE  H10Y 8698   2.580   6.207   6.483  0.4026  0.9558 -1.4621
   89SAPE  C311 8699   2.743   6.128   6.385 -0.0718 -0.2321  0.3385
   89SAPE  H11X 8700   2.704   6.024   6.381  2.4129 -1.2089 -0.5760
   89SAPE  H11Y 8701   2.849   6.105   6.410  0.4085  0.5669 -0.8821
   89SAPE  C312 8702   2.733   6.197   6.254  0.5205 -0.2997  0.1451
   89SAPE  H12X 8703   2.631   6.170   6.219  0.8305 -1.2544 -0.0570
   89SAPE  H12Y 8704   2.808   6.153   6.185 -0.1371 -0.1877 -0.6578
   89SAPE  C313 8705   2.750   6.349   6.252  0.2207  0.1511  0.2384
   89SAPE  H13X 8706   2.849   6.369   6.300  0.7514 -1.4189 -0.1463
   89SAPE  H13Y 8707   2.676   6.400   6.318 -1.1493 -0.4309 -0.8034
   89SAPE  C314 8708   2.764   6.415   6.114 -0.3805  0.1423 -0.4227
   89SAPE  H14X 8709   2.666   6.414   6.061  0.7573 -0.6839 -2.6379
   89SAPE  H14Y 8710   2.827   6.341   6.059  0.5475  0.3009  0.4067
   89SAPE  C315 8711   2.829   6.552   6.103 -0.2632  0.8812  0.0550
   89SAPE  H15X 8712   2.860   6.577   6.000 -1.0940 -1.7187 -0.9290
   89SAPE  H15Y 8713   2.929   6.552   6.152  1.0092 -1.3597 -2.3083
   89SAPE  C316 8714   2.744   6.665   6.155  0.3163 -0.8265  0.1017
   89SAPE  H16X 8715   2.801   6.760   6.159  0.1333 -0.7147  0.0913
   89SAPE  H16Y 8716   2.719   6.652   6.262 -0.5064 -0.3067 -0.0165
   89SAPE  C317 8717   2.606   6.686   6.083 -0.3649  0.6152 -0.8896
   89SAPE  H17X 8718   2.553   6.591   6.103  0.0461  0.9882  2.6831
   89SAPE  H17Y 8719   2.624   6.686   5.973  0.2478 -0.5058 -0.8084
   89SAPE  C318 8720   2.512   6.801   6.125  0.0018 -0.2126  0.6202
   89SAPE  H18X 8721   2.564   6.895   6.096 -0.7386 -0.5584 -2.1078
   89SAPE  H18Y 8722   2.501   6.796   6.235 -1.3970  2.5858  0.6809
   89SAPE  H18Z 8723   2.415   6.797   6.070 -0.5104 -0.5948  1.5279
   90SAPE     N 8724   4.624   4.831   8.482  0.3370  0.5445 -0.2671
   90SAPE   HN1 8725   4.545   4.764   8.475 -0.2634  0.6008  3.4951
   90SAPE   HN2 8726   4.671   4.824   8.390 -0.4913 -2.3518 -0.5477
   90SAPE   HN3 8727   4.691   4.799   8.555 -1.0296  1.7264  1.6064
   90SAPE   C12 8728   4.564   4.967   8.511 -0.4705  0.3018  0.2944
   90SAPE  H12A 8729   4.648   5.041   8.515 -0.6826  0.4842  3.3208
   90SAPE  H12B 8730   4.542   4.958   8.619 -0.2643  0.4227  0.3486
   90SAPE   C11 8731   4.453   5.001   8.419  0.5678 -0.1387  0.4619
   90SAPE  H11A 8732   4.409   5.101   8.437 -1.0017 -0.9511  1.2944
   90SAPE  H11B 8733   4.373   4.925   8.416 -2.1971  2.6041 -0.1262
   90SAPE     P 8734   4.579   5.135   8.218 -0.0774  0.2369 -0.4968
   90SAPE   O13 8735   4.505   5.250   8.279  0.0372  0.2478  0.3815
   90SAPE   O14 8736   4.724   5.128   8.237 -0.0070 -0.1055 -0.4007
   90SAPE   O12 8737   4.517   5.002   8.288 -0.6405 -0.1843 -0.0433
   90SAPE   O11 8738   4.537   5.133   8.065 -1.0386  0.3165 -0.3645
   90SAPE    C1 8739   4.451   5.032   8.013 -0.6973 -0.5461 -0.3116
   90SAPE    HA 8740   4.363   5.016   8.078  0.3046  0.9697  1.5002
   90SAPE    HB 8741   4.428   5.058   7.908 -2.1451  2.7497  0.7052
   90SAPE    C2 8742   4.534   4.906   7.997 -0.3136  0.4985 -0.3945
   90SAPE    HS 8743   4.563   4.871   8.099 -1.6366 -0.4314 -0.3074
   90SAPE   O21 8744   4.653   4.935   7.915 -0.4056 -0.4150 -0.1855
   90SAPE   C21 8745   4.741   4.844   7.923 -0.5033 -0.0952 -0.1096
   90SAPE   O22 8746   4.731   4.741   7.988  0.2086  0.2543  1.1358
   90SAPE   C22 8747   4.851   4.880   7.821 -0.0465  0.4833 -0.4945
   90SAPE   H2R 8748   4.804   4.917   7.728 -2.3684 -2.0717 -0.4740
   90SAPE   H2S 8749   4.928   4.949   7.862  0.8052 -0.4623 -0.4829
   90SAPE    C3 8750   4.450   4.793   7.924 -0.3228  0.0052 -0.2234
   90SAPE    HX 8751   4.350   4.781   7.969 -1.1596  1.2745 -1.6503
   90SAPE    HY 8752   4.507   4.697   7.921 -0.1174  0.1418 -1.7171
   90SAPE   O31 8753   4.420   4.840   7.788 -0.0411 -0.4654  0.7192
   90SAPE   C31 8754   4.454   4.760   7.689  0.9921  0.1445 -0.0877
   90SAPE   O32 8755   4.499   4.646   7.697  0.0964 -0.0198 -0.4786
   90SAPE   C32 8756   4.422   4.834   7.559 -0.3533  0.3159 -0.3224
   90SAPE   H2X 8757   4.450   4.942   7.568 -1.0218  0.5826 -1.3101
   90SAPE   H2Y 8758   4.312   4.843   7.548 -0.5025  1.2410  1.5551
   90SAPE   C23 8759   4.929   4.761   7.763 -0.0589 -0.1657 -0.6073
   90SAPE   H3R 8760   4.851   4.692   7.724 -0.8566 -0.2354  1.0079
   90SAPE   H3S 8761   4.990   4.715   7.843  0.9827  0.4259 -1.0291
   90SAPE   C24 8762   5.030   4.808   7.660 -0.5319  0.1815 -1.0161
   90SAPE   H4R 8763   5.116   4.857   7.710 -0.7103 -0.8350  0.3738
   90SAPE   H4S 8764   4.981   4.884   7.596 -0.4776  0.4698 -0.7167
   90SAPE   C25 8765   5.085   4.697   7.571  0.0872  0.2324  0.2717
   90SAPE   H5R 8766   5.147   4.621   7.622  1.7051  0.5962 -1.0521
   90SAPE   C26 8767   5.053   4.680   7.442 -0.1793  0.2935 -0.0624
   90SAPE   H6R 8768   5.121   4.617   7.382  2.3482  1.6023  1.2872
   90SAPE   C27 8769   4.961   4.754   7.355 -0.0501 -0.4833  0.2460
   90SAPE   H7R 8770   5.008   4.830   7.290 -1.0510 -0.5178 -0.5539
   90SAPE   H7S 8771   4.891   4.814   7.416 -2.5018 -1.3944 -1.4902
   90SAPE   C28 8772   4.866   4.671   7.270  0.0711  0.3067 -0.0220
   90SAPE   H8R 8773   4.793   4.621   7.335 -0.3255  1.3579  0.3685
   90SAPE   C29 8774   4.861   4.656   7.142  0.4608 -0.2810  0.0431
   90SAPE   H9R 8775   4.781   4.595   7.097 -0.5899 -0.3879  1.9878
   90SAPE  C210 8776   4.964   4.710   7.043 -0.1973  0.5548 -0.0576
   90SAPE  H10R 8777   4.991   4.618   6.987 -0.9231 -0.9680  1.9714
   90SAPE  H10S 8778   5.055   4.745   7.096 -1.5249  1.4210  1.7801
   90SAPE  C211 8779   4.921   4.817   6.948  0.3840 -0.2455  0.2642
   90SAPE  H11R 8780   4.908   4.914   6.999 -1.0869  0.1114 -0.7119
   90SAPE  C212 8781   4.921   4.811   6.819 -0.0247  0.3383 -0.6004
   90SAPE  H12R 8782   4.889   4.898   6.761 -0.1623  0.6542 -0.0633
   90SAPE  C213 8783   4.935   4.680   6.741  0.4406 -0.7145  0.4076
   90SAPE  H13R 8784   4.840   4.623   6.729 -0.8807  1.7150 -1.5634
   90SAPE  H13S 8785   5.013   4.609   6.775 -0.5033 -1.3754  1.2649
   90SAPE  C214 8786   4.974   4.719   6.596 -0.3108  0.1327  0.0054
   90SAPE  H14R 8787   5.077   4.706   6.558 -0.9776  1.2678 -2.3745
   90SAPE  C215 8788   4.890   4.743   6.491 -0.6267  0.8621 -0.7323
   90SAPE  H15R 8789   4.935   4.762   6.393 -1.9142 -0.7743 -1.6873
   90SAPE  C216 8790   4.741   4.764   6.497 -0.4028 -0.1982 -0.4425
   90SAPE  H16R 8791   4.716   4.872   6.491  0.1068 -0.1662 -2.5907
   90SAPE  H16S 8792   4.706   4.732   6.598  2.2017 -1.3497  0.1760
   90SAPE  C217 8793   4.659   4.669   6.403 -0.3583 -0.1164 -0.1292
   90SAPE  H17R 8794   4.715   4.578   6.374  1.2549 -0.1321  2.6626
   90SAPE  H17S 8795   4.644   4.715   6.303 -0.1503 -0.8529 -0.5021
   90SAPE  C218 8796   4.520   4.634   6.463  1.0495  0.3284  0.2237
   90SAPE  H18R 8797   4.462   4.728   6.472 -1.0820 -1.0438  2.3153
   90SAPE  H18S 8798   4.532   4.595   6.567  0.4611 -0.5599 -0.0313
   90SAPE  C219 8799   4.446   4.522   6.382 -0.3195 -0.1273 -0.2349
   90SAPE  H19R 8800   4.500   4.425   6.370  0.4396  0.1583  0.7088
   90SAPE  H19S 8801   4.431   4.565   6.281  0.0024 -2.0731 -1.1542
   90SAPE  C220 8802   4.310   4.488   6.448  0.4280 -0.5541 -0.0886
   90SAPE  H20R 8803   4.279   4.580   6.501  3.1934  1.3768 -1.5870
   90SAPE  H20S 8804   4.331   4.400   6.514  0.0989 -1.8854 -1.6810
   90SAPE  H20T 8805   4.231   4.461   6.375  0.3104 -0.0057 -0.1622
   90SAPE   C33 8806   4.486   4.772   7.435  0.3336  0.3707  1.0501
   90SAPE   H3X 8807   4.461   4.664   7.427 -0.2891  0.6491 -1.4166
   90SAPE   H3Y 8808   4.597   4.773   7.430  0.2805  1.5873 -1.6003
   90SAPE   C34 8809   4.451   4.846   7.304 -0.0284 -0.3079 -0.5965
   90SAPE   H4X 8810   4.492   4.949   7.314 -1.9550  0.5259 -0.9170
   90SAPE   H4Y 8811   4.340   4.851   7.302 -0.0059  1.8161  0.5782
   90SAPE   C35 8812   4.501   4.774   7.177 -0.8005  0.9115  0.2993
   90SAPE   H5X 8813   4.461   4.672   7.159  0.1672  0.4539  0.6992
   90SAPE   H5Y 8814   4.612   4.775   7.174 -0.7469 -0.5961  1.1485
   90SAPE   C36 8815   4.436   4.858   7.062 -0.0867 -0.0093  0.3040
   90SAPE   H6X 8816   4.464   4.965   7.074 -0.7239  0.0196  1.7468
   90SAPE   H6Y 8817   4.326   4.853   7.050  0.2372 -0.7763 -3.5125
   90SAPE   C37 8818   4.495   4.814   6.923 -0.2313 -0.8645 -0.3925
   90SAPE   H7X 8819   4.474   4.706   6.906 -0.6584 -0.7166 -0.8503
   90SAPE   H7Y 8820   4.606   4.816   6.933  0.0194 -0.2388 -2.6421
   90SAPE   C38 8821   4.448   4.903   6.806  0.3709  0.3972  0.1447
   90SAPE   H8X 8822   4.339   4.893   6.787  0.3918  0.4751 -0.0193
   90SAPE   H8Y 8823   4.482   4.858   6.711  2.1008  0.1280  0.8567
   90SAPE   C39 8824   4.485   5.048   6.827 -0.6037 -0.7884 -0.2128
   90SAPE   H9X 8825   4.594   5.061   6.845 -0.7563 -1.9447  1.8921
   90SAPE   H9Y 8826   4.437   5.092   6.917  0.7476 -0.6708  0.4771
   90SAPE  C310 8827   4.439   5.131   6.700 -0.4970  0.8032  0.1006
   90SAPE  H10X 8828   4.408   5.233   6.729 -1.7050  0.6817 -0.6894
   90SAPE  H10Y 8829   4.349   5.079   6.660 -0.1235  0.3003 -0.1009
   90SAPE  C311 8830   4.553   5.129   6.600  0.4620  0.0257  0.2396
   90SAPE  H11X 8831   4.591   5.027   6.576  2.3664  1.2075 -2.2299
   90SAPE  H11Y 8832   4.631   5.193   6.647  0.8230 -1.5807  1.9601
   90SAPE  C312 8833   4.527   5.202   6.462  0.0149 -0.3912 -0.0152
   90SAPE  H12X 8834   4.616   5.196   6.394 -0.4513  0.4003 -0.7202
   90SAPE  H12Y 8835   4.508   5.306   6.494  0.3607 -1.2575  3.3232
   90SAPE  C313 8836   4.416   5.147   6.381 -0.3102 -0.3712 -0.2726
   90SAPE  H13X 8837   4.383   5.217   6.301  0.1420 -0.7918 -0.8327
   90SAPE  H13Y 8838   4.322   5.135   6.440  0.6340 -2.2734  0.9443
   90SAPE  C314 8839   4.439   5.004   6.324  0.2782 -0.1533  0.1603
   90SAPE  H14X 8840   4.465   4.936   6.409  3.3845 -1.2518 -1.5000
   90SAPE  H14Y 8841   4.533   5.014   6.266 -0.0290 -0.7446 -0.4457
   90SAPE  C315 8842   4.331   4.962   6.231 -0.9566  0.4012  0.4206
   90SAPE  H15X 8843   4.298   5.061   6.192  0.9729  0.6039 -0.8526
   90SAPE  H15Y 8844   4.247   4.924   6.292  0.4327 -2.1045  0.9152
   90SAPE  C316 8845   4.372   4.868   6.114  0.3019  0.2149  0.0338
   90SAPE  H16X 8846   4.448   4.800   6.156  0.8574  0.8586  0.0866
   90SAPE  H16Y 8847   4.422   4.923   6.031  0.6898 -0.5207 -0.2269
   90SAPE  C317 8848   4.253   4.782   6.059 -0.4971 -0.2100 -0.0856
   90SAPE  H17X 8849   4.177   4.863   6.049 -0.8375 -0.5628 -0.4184
   90SAPE  H17Y 8850   4.220   4.706   6.133  1.3267 -0.7894  0.1814
   90SAPE  C318 8851   4.278   4.724   5.922 -0.9631 -0.2045  0.2651
   90SAPE  H18X 8852   4.192   4.667   5.882 -0.6132 -1.5452  1.3440
   90SAPE  H18Y 8853   4.356   4.647   5.933 -1.7891 -1.0858  0.0721
   90SAPE  H18Z 8854   4.322   4.803   5.858  1.5438 -0.3702  1.6348
   91SAPE     N 8855   0.938   6.087   8.167 -0.5598  0.3103  0.5970
   91SAPE   HN1 8856   0.836   6.065   8.177  0.1085 -2.1245  3.7597
   91SAPE   HN2 8857   0.950   6.172   8.109 -1.4332 -0.1898 -0.3538
   91SAPE   HN3 8858   0.989   6.004   8.132 -0.8318  0.5731 -0.4450
   91SAPE   C12 8859   0.980   6.132   8.304  1.1804 -0.5132  0.7095
   91SAPE  H12A 8860   0.933   6.069   8.382 -0.8858  2.1535  1.7811
   91SAPE  H12B 8861   0.948   6.238   8.311 -0.9356 -1.0563 -0.0736
   91SAPE   C11 8862   1.129   6.116   8.326 -1.0215  0.0559 -0.4300
   91SAPE  H11A 8863   1.165   6.132   8.430 -0.1934 -0.9364 -0.5510
   91SAPE  H11B 8864   1.195   6.188   8.271  0.8707 -0.7535  0.6622
   91SAPE     P 8865   1.300   5.941   8.213  0.3443  0.2233  0.2776
   91SAPE   O13 8866   1.414   6.023   8.260 -0.2808 -0.0152 -0.0610
   91SAPE   O14 8867   1.320   5.789   8.226  0.5284 -0.3382  0.0474
   91SAPE   O12 8868   1.163   5.973   8.298 -0.6923 -0.3204 -0.3696
   91SAPE   O11 8869   1.250   5.978   8.071  0.1273  1.0014 -0.4003
   91SAPE    C1 8870   1.332   6.036   7.979 -0.5679  0.3568  0.1732
   91SAPE    HA 8871   1.301   6.142   7.966  3.0451  1.9726  3.0548
   91SAPE    HB 8872   1.438   6.052   8.010 -0.5522  3.8897 -1.1400
   91SAPE    C2 8873   1.322   5.962   7.841  0.4944  0.2157  0.2046
   91SAPE    HS 8874   1.367   6.039   7.775  1.6899  0.0728  0.8115
   91SAPE   O21 8875   1.191   5.921   7.811 -0.1674 -0.4741 -0.2807
   91SAPE   C21 8876   1.142   5.967   7.696  0.1099 -0.0901  0.4362
   91SAPE   O22 8877   1.201   6.051   7.626  0.4544  0.2012  0.3429
   91SAPE   C22 8878   1.010   5.893   7.665 -0.0673 -1.0225 -0.0089
   91SAPE   H2R 8879   0.973   5.856   7.763 -0.1359  0.9404  0.7505
   91SAPE   H2S 8880   0.935   5.973   7.648 -0.1841 -1.1139  0.0729
   91SAPE    C3 8881   1.414   5.832   7.844 -0.1629  0.1283 -0.2168
   91SAPE    HX 8882   1.370   5.776   7.929  1.5875  1.4706  1.6780
   91SAPE    HY 8883   1.520   5.859   7.866 -0.3825  2.3891 -1.6720
   91SAPE   O31 8884   1.417   5.764   7.719 -0.0731  0.7043 -0.2774
   91SAPE   C31 8885   1.450   5.632   7.723 -0.2439 -0.1157  0.1056
   91SAPE   O32 8886   1.491   5.575   7.820  0.1201 -0.0509 -0.8958
   91SAPE   C32 8887   1.412   5.567   7.589 -0.4435 -0.1097  0.2265
   91SAPE   H2X 8888   1.303   5.585   7.582 -0.8996 -2.2927  0.7754
   91SAPE   H2Y 8889   1.420   5.456   7.601 -0.3007 -0.2685 -1.1731
   91SAPE   C23 8890   1.014   5.787   7.553  0.4020 -0.5362 -0.5524
   91SAPE   H3R 8891   0.914   5.740   7.551  0.2633 -0.3974  1.1665
   91SAPE   H3S 8892   1.075   5.702   7.591  0.6854 -0.2150 -0.2801
   91SAPE   C24 8893   1.071   5.841   7.423 -0.1282 -0.0574 -0.2207
   91SAPE   H4R 8894   1.182   5.846   7.428 -0.2382  2.2690  2.6651
   91SAPE   H4S 8895   1.036   5.946   7.408  1.2580  0.1475 -2.5745
   91SAPE   C25 8896   1.027   5.755   7.301  0.2517 -0.3570 -1.0763
   91SAPE   H5R 8897   0.932   5.700   7.309  0.3398 -0.2868  1.6310
   91SAPE   C26 8898   1.098   5.759   7.188  0.2283 -0.0709 -0.4147
   91SAPE   H6R 8899   1.052   5.694   7.113 -0.7218 -2.4047  2.0407
   91SAPE   C27 8900   1.223   5.844   7.158 -0.8848  0.5032  0.2412
   91SAPE   H7R 8901   1.271   5.791   7.073 -0.4547  1.1499  0.0799
   91SAPE   H7S 8902   1.298   5.830   7.240  0.1670 -2.0073 -1.0209
   91SAPE   C28 8903   1.212   5.993   7.141  0.0417  0.0729  0.2554
   91SAPE   H8R 8904   1.218   6.042   7.240 -3.1361  0.2261  0.4631
   91SAPE   C29 8905   1.215   6.060   7.029  0.4210  0.2352  0.8504
   91SAPE   H9R 8906   1.205   6.170   7.030  1.7412  0.4157  3.7197
   91SAPE  C210 8907   1.217   6.006   6.886 -0.2614 -0.3637  0.3803
   91SAPE  H10R 8908   1.182   5.900   6.891  2.2368 -1.3217 -1.0216
   91SAPE  H10S 8909   1.317   6.006   6.838 -0.1547 -1.9104  0.5548
   91SAPE  C211 8910   1.120   6.083   6.796 -0.0871 -1.4519 -0.0465
   91SAPE  H11R 8911   1.085   6.179   6.837 -1.7803 -0.4364 -3.4624
   91SAPE  C212 8912   1.077   6.057   6.674  0.1631 -0.4746 -0.3790
   91SAPE  H12R 8913   1.021   6.136   6.622  1.1503  0.9457  0.6512
   91SAPE  C213 8914   1.118   5.935   6.589  0.6628 -0.3477  0.2981
   91SAPE  H13R 8915   1.028   5.879   6.557  0.5720  0.1353 -0.3000
   91SAPE  H13S 8916   1.173   5.870   6.660 -1.0916  0.7267  2.8082
   91SAPE  C214 8917   1.196   5.988   6.475 -0.0089  0.4989  0.2265
   91SAPE  H14R 8918   1.301   6.002   6.505  0.2354 -2.8031  1.2992
   91SAPE  C215 8919   1.147   5.989   6.349 -0.7580  1.3306  0.5036
   91SAPE  H15R 8920   1.217   6.036   6.279 -0.3307  0.2783  0.2093
   91SAPE  C216 8921   1.007   5.951   6.291 -0.5757 -0.6806 -0.7755
   91SAPE  H16R 8922   0.938   5.944   6.377 -0.1753 -0.0317 -0.3947
   91SAPE  H16S 8923   1.012   5.858   6.229 -1.8109  0.5140 -2.7982
   91SAPE  C217 8924   0.942   6.052   6.197  0.2330 -0.1888  0.2522
   91SAPE  H17R 8925   0.853   5.999   6.157  0.0973 -0.1971  0.5555
   91SAPE  H17S 8926   1.011   6.060   6.111  0.5244  0.8276  0.5604
   91SAPE  C218 8927   0.902   6.189   6.262 -0.0832 -0.0798  0.2626
   91SAPE  H18R 8928   0.986   6.254   6.294 -1.1179 -0.1233  3.4233
   91SAPE  H18S 8929   0.846   6.160   6.353  1.1257 -1.3242  0.6468
   91SAPE  C219 8930   0.818   6.283   6.175  0.2287 -0.6493  0.0287
   91SAPE  H19R 8931   0.872   6.300   6.079 -0.1275  1.5397  0.1581
   91SAPE  H19S 8932   0.826   6.386   6.217 -0.6953 -0.8481  0.7242
   91SAPE  C220 8933   0.670   6.243   6.155  0.0259  0.5828 -0.9097
   91SAPE  H20R 8934   0.616   6.228   6.251 -0.4657  0.6248 -1.1775
   91SAPE  H20S 8935   0.665   6.151   6.094  0.0970  0.0143 -0.0787
   91SAPE  H20T 8936   0.622   6.326   6.098 -3.9848 -0.5680  0.4617
   91SAPE   C33 8937   1.493   5.623   7.468  0.9560  0.5812 -0.5999
   91SAPE   H3X 8938   1.601   5.608   7.490  0.0398 -1.3257  3.5265
   91SAPE   H3Y 8939   1.477   5.733   7.461  0.0850  0.4089 -1.4073
   91SAPE   C34 8940   1.451   5.555   7.331 -0.1311  0.3580 -0.2527
   91SAPE   H4X 8941   1.342   5.572   7.316 -0.2182  0.6337  0.5981
   91SAPE   H4Y 8942   1.472   5.446   7.344 -5.0591 -0.6522  1.6768
   91SAPE   C35 8943   1.539   5.613   7.215 -1.0124 -0.2423  0.2327
   91SAPE   H5X 8944   1.640   5.599   7.258 -0.0900  1.8232 -1.1066
   91SAPE   H5Y 8945   1.535   5.724   7.212  0.0678 -0.0802  2.6314
   91SAPE   C36 8946   1.512   5.549   7.075 -0.2460  1.2622  0.7878
   91SAPE   H6X 8947   1.404   5.572   7.059 -0.2389  0.4641 -0.6269
   91SAPE   H6Y 8948   1.519   5.438   7.081  1.0261  1.3678  1.5564
   91SAPE   C37 8949   1.588   5.610   6.957 -0.0140 -0.7381 -0.2917
   91SAPE   H7X 8950   1.696   5.584   6.961 -0.3131 -1.9836  0.2364
   91SAPE   H7Y 8951   1.582   5.721   6.955 -2.2570 -0.8165 -0.9884
   91SAPE   C38 8952   1.536   5.564   6.823  0.2823 -0.0940 -0.8376
   91SAPE   H8X 8953   1.425   5.564   6.812  0.2144 -3.2214 -1.1311
   91SAPE   H8Y 8954   1.558   5.455   6.816 -2.5031 -0.7821  0.0803
   91SAPE   C39 8955   1.595   5.639   6.701  0.3023 -0.1361 -1.6160
   91SAPE   H9X 8956   1.704   5.636   6.720  0.1623 -2.7416 -0.8282
   91SAPE   H9Y 8957   1.549   5.737   6.727 -1.3806 -1.6514  1.7660
   91SAPE  C310 8958   1.544   5.602   6.563  0.4398  0.6065 -0.0530
   91SAPE  H10X 8959   1.433   5.604   6.577  0.5214 -0.2666  0.8525
   91SAPE  H10Y 8960   1.578   5.502   6.529 -2.8710 -1.9180  3.2780
   91SAPE  C311 8961   1.602   5.703   6.457  0.1866 -0.1962  0.2117
   91SAPE  H11X 8962   1.610   5.654   6.358 -2.4454 -2.1434  0.8475
   91SAPE  H11Y 8963   1.709   5.720   6.482  0.3453 -1.9360  0.8003
   91SAPE  C312 8964   1.532   5.840   6.451  0.0647  0.2334  0.2966
   91SAPE  H12X 8965   1.566   5.890   6.545 -2.0391  2.5195 -0.0764
   91SAPE  H12Y 8966   1.423   5.829   6.469 -0.1702  2.8254  0.8226
   91SAPE  C313 8967   1.560   5.917   6.320 -0.4062 -0.4845 -0.6981
   91SAPE  H13X 8968   1.509   6.016   6.324 -2.0437 -1.3139  0.0523
   91SAPE  H13Y 8969   1.533   5.861   6.228  0.4480 -2.1237  0.0081
   91SAPE  C314 8970   1.711   5.941   6.305 -0.6122  0.1628 -0.0232
   91SAPE  H14X 8971   1.755   5.845   6.270  1.0111  1.0771 -0.6373
   91SAPE  H14Y 8972   1.768   5.954   6.400  1.9919 -0.6463 -1.3633
   91SAPE  C315 8973   1.755   6.027   6.190  0.4438  0.0362 -0.4595
   91SAPE  H15X 8974   1.723   6.129   6.222  3.2990  1.2245 -1.1318
   91SAPE  H15Y 8975   1.708   6.001   6.093 -1.4145  2.2112 -0.2458
   91SAPE  C316 8976   1.905   6.030   6.162  0.4556  0.4456 -0.2195
   91SAPE  H16X 8977   1.950   5.942   6.110  0.4361  1.5126 -2.1274
   91SAPE  H16Y 8978   1.970   6.043   6.252 -0.4282  2.8159  0.1404
   91SAPE  C317 8979   1.934   6.142   6.060  0.4607  0.0633  0.3438
   91SAPE  H17X 8980   1.903   6.240   6.104  0.3550  1.5531 -2.7992
   91SAPE  H17Y 8981   1.868   6.133   5.971  0.7687 -0.2058  0.1404
   91SAPE  C318 8982   2.084   6.135   6.024  0.1485  0.9688 -0.1145
   91SAPE  H18X 8983   2.093   6.036   5.974 -0.9805  0.1364  1.2487
   91SAPE  H18Y 8984   2.149   6.157   6.111 -2.1912  1.9561  1.4972
   91SAPE  H18Z 8985   2.107   6.219   5.956 -1.0261  3.8097  2.7075
   92SAPE     N 8986   1.543   5.651   8.276 -0.4352  0.2316  0.4759
   92SAPE   HN1 8987   1.537   5.560   8.325 -0.4858  0.4533  0.8814
   92SAPE   HN2 8988   1.623   5.699   8.322  0.2789 -1.4180  1.0274
   92SAPE   HN3 8989   1.452   5.701   8.280 -1.4648 -1.3611 -1.3170
   92SAPE   C12 8990   1.575   5.615   8.135  0.6183 -0.1898 -0.7182
   92SAPE  H12A 8991   1.516   5.690   8.079  1.1750  0.1851 -0.8073
   92SAPE  H12B 8992   1.532   5.514   8.117  0.2258 -0.2097  0.2887
   92SAPE   C11 8993   1.716   5.643   8.096  0.6237 -0.3830  0.0638
   92SAPE  H11A 8994   1.725   5.625   7.987  3.6478 -3.2948  0.6368
   92SAPE  H11B 8995   1.795   5.584   8.146 -0.3089 -0.2770  1.7350
   92SAPE     P 8996   1.873   5.862   8.103  0.2556 -0.1131  0.4889
   92SAPE   O13 8997   1.846   6.009   8.130 -0.0834 -0.1752  0.3835
   92SAPE   O14 8998   1.976   5.794   8.177 -0.2545  0.2095 -0.6104
   92SAPE   O12 8999   1.734   5.783   8.123 -0.0656 -0.1086  0.1713
   92SAPE   O11 9000   1.907   5.843   7.955  0.5424 -0.0476  0.2560
   92SAPE    C1 9001   1.826   5.898   7.850 -0.0065  1.2979  0.5476
   92SAPE    HA 9002   1.859   5.840   7.761  2.2357 -0.6323  2.4777
   92SAPE    HB 9003   1.718   5.872   7.850  0.4543 -1.5031 -3.1655
   92SAPE    C2 9004   1.875   6.041   7.812  0.2650  0.2216  0.1765
   92SAPE    HS 9005   1.972   6.058   7.863  0.9917  0.4690 -1.2611
   92SAPE   O21 9006   1.780   6.140   7.834  0.0465 -0.1681 -0.1894
   92SAPE   C21 9007   1.830   6.263   7.835 -0.3732 -0.4199 -0.1344
   92SAPE   O22 9008   1.943   6.297   7.859 -0.5171  0.0303  0.1409
   92SAPE   C22 9009   1.714   6.361   7.844 -1.0705 -0.1544 -0.8799
   92SAPE   H2R 9010   1.619   6.312   7.813 -2.5712  2.3418 -0.5338
   92SAPE   H2S 9011   1.699   6.391   7.950 -0.3752 -3.3855  0.2575
   92SAPE    C3 9012   1.926   6.046   7.663 -0.4880  0.2867  0.1707
   92SAPE    HX 9013   2.017   5.982   7.659 -1.2935 -0.9157  0.5459
   92SAPE    HY 9014   1.959   6.149   7.638 -2.3290  1.4242  2.1348
   92SAPE   O31 9015   1.831   5.980   7.567  0.5080  0.2369  0.4554
   92SAPE   C31 9016   1.743   6.060   7.514  0.3782  0.0322 -0.1944
   92SAPE   O32 9017   1.740   6.181   7.535 -0.0922 -0.7845  0.0103
   92SAPE   C32 9018   1.636   5.982   7.433  0.4424  0.1043 -0.5202
   92SAPE   H2X 9019   1.542   5.963   7.489  0.4731 -1.0508 -0.8299
   92SAPE   H2Y 9020   1.688   5.889   7.400  1.3540  0.6211 -0.5711
   92SAPE   C23 9021   1.742   6.480   7.753 -0.3685  0.3874  0.0015
   92SAPE   H3R 9022   1.775   6.443   7.653  1.3611  2.3465 -0.2253
   92SAPE   H3S 9023   1.830   6.540   7.786 -0.4740  0.7523 -0.3696
   92SAPE   C24 9024   1.626   6.577   7.731  0.4124  0.8019  0.3079
   92SAPE   H4R 9025   1.535   6.517   7.709 -1.2328  2.1922  2.7495
   92SAPE   H4S 9026   1.644   6.643   7.644  0.0301 -2.2438 -2.2644
   92SAPE   C25 9027   1.590   6.654   7.851  0.1092  0.4126 -0.1284
   92SAPE   H5R 9028   1.583   6.606   7.950  0.3983  4.1252  1.9127
   92SAPE   C26 9029   1.565   6.789   7.847  0.2958 -0.2013  0.2068
   92SAPE   H6R 9030   1.567   6.850   7.939  3.3475  2.5813 -1.4829
   92SAPE   C27 9031   1.565   6.877   7.721  0.2237 -0.0717 -0.0934
   92SAPE   H7R 9032   1.495   6.964   7.727 -1.1177 -1.1951  1.8070
   92SAPE   H7S 9033   1.517   6.823   7.636 -3.0718  2.2490  0.0885
   92SAPE   C28 9034   1.709   6.921   7.694 -0.2586  0.8491  0.1088
   92SAPE   H8R 9035   1.766   6.958   7.780  1.3051 -2.1395  0.4868
   92SAPE   C29 9036   1.765   6.931   7.573 -0.3801 -0.5564  0.2271
   92SAPE   H9R 9037   1.873   6.950   7.569 -0.3611 -0.4677  1.0497
   92SAPE  C210 9038   1.700   6.883   7.442 -0.1898  0.4138 -0.4254
   92SAPE  H10R 9039   1.674   6.971   7.378 -1.7036  0.5704  0.3626
   92SAPE  H10S 9040   1.603   6.831   7.451 -0.7612  1.5808  0.4042
   92SAPE  C211 9041   1.796   6.782   7.391  0.0167 -0.5980 -0.6790
   92SAPE  H11R 9042   1.792   6.687   7.446  1.3783  1.1175  2.6618
   92SAPE  C212 9043   1.867   6.795   7.275  0.9415 -0.1476  0.1139
   92SAPE  H12R 9044   1.932   6.714   7.237  1.2533  0.6645 -1.1704
   92SAPE  C213 9045   1.873   6.925   7.190  0.2724 -0.4724 -0.3232
   92SAPE  H13R 9046   1.908   7.006   7.257 -2.7623 -0.2812  1.1998
   92SAPE  H13S 9047   1.769   6.943   7.155 -0.6272 -1.6053  1.5967
   92SAPE  C214 9048   1.957   6.929   7.064  0.3413 -0.4351  0.1928
   92SAPE  H14R 9049   2.044   6.861   7.063  1.7013  1.1872  0.9120
   92SAPE  C215 9050   1.941   7.010   6.964  0.9849 -0.6135  0.0957
   92SAPE  H15R 9051   2.010   7.011   6.878  2.3561  0.6856  1.1791
   92SAPE  C216 9052   1.837   7.109   6.955 -0.6401  0.6344  0.2535
   92SAPE  H16R 9053   1.813   7.157   7.052 -0.8229 -0.5183  0.7936
   92SAPE  H16S 9054   1.740   7.057   6.938 -0.3371  0.3264 -0.6147
   92SAPE  C217 9055   1.860   7.222   6.857  1.0827 -0.0269 -0.1397
   92SAPE  H17R 9056   1.950   7.281   6.886  0.8832 -0.0543  0.5482
   92SAPE  H17S 9057   1.772   7.289   6.866  0.8631 -0.4359  0.9534
   92SAPE  C218 9058   1.882   7.193   6.710 -0.2623 -0.0954 -0.2669
   92SAPE  H18R 9059   1.784   7.146   6.686 -0.4049 -0.9423  1.7060
   92SAPE  H18S 9060   1.966   7.123   6.690  2.0010  2.6213 -0.8320
   92SAPE  C219 9061   1.893   7.318   6.621 -0.3033  0.2423  0.1166
   92SAPE  H19R 9062   1.803   7.377   6.649 -0.7116 -0.2201 -0.1996
   92SAPE  H19S 9063   1.885   7.295   6.513 -0.4828 -2.0518  0.5773
   92SAPE  C220 9064   2.014   7.404   6.635 -0.0447 -0.3407  0.4035
   92SAPE  H20R 9065   2.026   7.449   6.736 -1.1483 -0.8460  0.7718
   92SAPE  H20S 9066   2.000   7.487   6.563  0.5559 -0.6236 -0.0517
   92SAPE  H20T 9067   2.101   7.346   6.598  0.2159  1.1250 -1.4096
   92SAPE   C33 9068   1.601   6.056   7.300 -0.0167  0.2628 -0.1688
   92SAPE   H3X 9069   1.586   6.163   7.326  1.4737  0.2052  1.0371
   92SAPE   H3Y 9070   1.506   6.013   7.260 -0.1634  0.7700 -0.3782
   92SAPE   C34 9071   1.701   6.020   7.188  0.5084 -0.4351  0.0449
   92SAPE   H4X 9072   1.711   5.909   7.188  0.2698 -0.4597  0.9014
   92SAPE   H4Y 9073   1.794   6.073   7.217 -0.4899  2.1636 -1.1705
   92SAPE   C35 9074   1.649   6.064   7.050 -0.2608 -1.1624  0.3164
   92SAPE   H5X 9075   1.652   6.173   7.029 -2.5904 -1.2033 -0.5600
   92SAPE   H5Y 9076   1.546   6.030   7.027 -1.1276  0.2907  1.8140
   92SAPE   C36 9077   1.733   6.001   6.934 -0.3428 -0.6498  0.0044
   92SAPE   H6X 9078   1.737   5.892   6.955  2.2807 -0.4135  1.0380
   92SAPE   H6Y 9079   1.840   6.026   6.950 -0.3170 -0.2436 -0.7477
   92SAPE   C37 9080   1.675   6.028   6.793  0.8034  0.2886  0.5290
   92SAPE   H7X 9081   1.564   6.025   6.799  0.6481  1.5010 -1.1400
   92SAPE   H7Y 9082   1.702   5.943   6.727  1.5054 -0.0592  1.2465
   92SAPE   C38 9083   1.723   6.162   6.729  0.8632  0.1539 -0.5881
   92SAPE   H8X 9084   1.832   6.169   6.709  1.0286 -0.8883 -0.0685
   92SAPE   H8Y 9085   1.702   6.243   6.802  0.6188  0.6012 -1.1450
   92SAPE   C39 9086   1.651   6.188   6.598 -0.0451 -0.7330  0.6534
   92SAPE   H9X 9087   1.543   6.167   6.612 -0.1009 -0.4744  0.6242
   92SAPE   H9Y 9088   1.683   6.106   6.530 -0.6908 -1.7388  1.5250
   92SAPE  C310 9089   1.654   6.334   6.541 -0.0918  0.0481  0.5844
   92SAPE  H10X 9090   1.584   6.392   6.605 -0.0004 -1.0482  1.7346
   92SAPE  H10Y 9091   1.592   6.327   6.449  1.4001 -1.2297 -0.3765
   92SAPE  C311 9092   1.788   6.406   6.517  0.3691  0.9298 -0.6643
   92SAPE  H11X 9093   1.867   6.340   6.557  1.1004  1.8718 -0.5232
   92SAPE  H11Y 9094   1.793   6.501   6.575 -1.6895  0.4262  0.4404
   92SAPE  C312 9095   1.817   6.426   6.369 -0.2951 -0.1119  1.0110
   92SAPE  H12X 9096   1.784   6.345   6.302 -2.2172  0.8184  0.7762
   92SAPE  H12Y 9097   1.927   6.437   6.357 -0.4334 -1.0165 -1.6419
   92SAPE  C313 9098   1.752   6.552   6.308  0.9713 -0.0353 -0.0626
   92SAPE  H13X 9099   1.812   6.642   6.334  0.5033  1.2996 -3.0803
   92SAPE  H13Y 9100   1.649   6.558   6.348  0.6089  3.4272 -1.1891
   92SAPE  C314 9101   1.745   6.551   6.152  0.5032 -0.5951  0.0023
   92SAPE  H14X 9102   1.704   6.457   6.111 -0.3150  0.1423 -0.9432
   92SAPE  H14Y 9103   1.850   6.553   6.113  0.1106  4.0902 -1.5314
   92SAPE  C315 9104   1.667   6.676   6.089 -0.0664  0.3982  0.1460
   92SAPE  H15X 9105   1.699   6.774   6.129 -2.3059 -0.0864  3.5779
   92SAPE  H15Y 9106   1.563   6.671   6.127  0.6452  0.5340  2.2971
   92SAPE  C316 9107   1.678   6.700   5.941  0.4649 -0.5638 -0.8139
   92SAPE  H16X 9108   1.783   6.699   5.906 -0.0466  0.6771 -2.5297
   92SAPE  H16Y 9109   1.622   6.791   5.910  0.3216 -0.9800 -1.8095
   92SAPE  C317 9110   1.624   6.585   5.851 -0.0466 -0.3302 -0.7312
   92SAPE  H17X 9111   1.675   6.493   5.887 -0.0115  0.3875  1.1673
   92SAPE  H17Y 9112   1.661   6.604   5.748  1.3324  2.9466  0.2499
   92SAPE  C318 9113   1.470   6.566   5.849 -0.5314  0.2613  0.2413
   92SAPE  H18X 9114   1.435   6.529   5.948  0.6275 -0.0737  0.5422
   92SAPE  H18Y 9115   1.434   6.500   5.766  0.8848  1.2677 -1.2260
   92SAPE  H18Z 9116   1.424   6.666   5.840  0.1829  0.3890 -4.3499
   93SAPE     N 9117   0.640   4.355   8.723  0.6999  0.2958  0.2578
   93SAPE   HN1 9118   0.727   4.392   8.766  0.0349  1.1712  0.9032
   93SAPE   HN2 9119   0.651   4.300   8.636  2.1988 -1.8387  1.6904
   93SAPE   HN3 9120   0.583   4.438   8.695 -0.6724 -0.8604 -0.4512
   93SAPE   C12 9121   0.553   4.281   8.824  0.4965  0.0322 -0.3314
   93SAPE  H12A 9122   0.564   4.322   8.926 -1.0380 -1.5245  0.5005
   93SAPE  H12B 9123   0.586   4.175   8.824 -1.0449 -0.5565 -3.2350
   93SAPE   C11 9124   0.401   4.273   8.795 -0.1186 -0.3775  0.1083
   93SAPE  H11A 9125   0.343   4.364   8.825 -0.3554  0.1838 -1.9376
   93SAPE  H11B 9126   0.354   4.188   8.849  0.6744  0.3698  2.1108
   93SAPE     P 9127   0.254   4.331   8.586  0.0647 -0.5207  0.0311
   93SAPE   O13 9128   0.131   4.252   8.624  0.1684  0.0589  0.0085
   93SAPE   O14 9129   0.256   4.464   8.639 -0.2983 -0.5937 -0.6989
   93SAPE   O12 9130   0.386   4.267   8.652  0.4505 -0.1370 -0.4196
   93SAPE   O11 9131   0.275   4.336   8.430  0.4790 -0.1230  0.6664
   93SAPE    C1 9132   0.384   4.416   8.381 -0.1024  0.2493 -0.2952
   93SAPE    HA 9133   0.470   4.428   8.450  1.1135 -0.3161 -1.6420
   93SAPE    HB 9134   0.425   4.385   8.282  1.8117  1.1048  0.1910
   93SAPE    C2 9135   0.336   4.567   8.355  0.3633 -0.2038  0.0358
   93SAPE    HS 9136   0.294   4.604   8.451 -2.9996 -1.9851 -0.5883
   93SAPE   O21 9137   0.228   4.575   8.255 -0.1132 -0.9596 -0.5024
   93SAPE   C21 9138   0.153   4.695   8.255 -0.2004 -0.2733  0.4465
   93SAPE   O22 9139   0.150   4.777   8.343  0.6876 -0.7013  0.1958
   93SAPE   C22 9140   0.055   4.693   8.140  0.0558 -0.3683  0.3427
   93SAPE   H2R 9141  -0.046   4.664   8.176 -0.1152 -1.2927 -0.8376
   93SAPE   H2S 9142   0.046   4.797   8.105 -1.6988  0.0720  1.9501
   93SAPE    C3 9143   0.454   4.661   8.313 -0.2467  0.5739 -0.0720
   93SAPE    HX 9144   0.508   4.664   8.410  2.7333 -2.4681 -1.4044
   93SAPE    HY 9145   0.420   4.764   8.293 -1.0487  0.7759  2.0716
   93SAPE   O31 9146   0.543   4.599   8.213  0.3370 -0.6386 -0.1514
   93SAPE   C31 9147   0.500   4.625   8.088 -0.5306  0.1847  0.0803
   93SAPE   O32 9148   0.420   4.710   8.058  0.4047 -0.0672 -0.4551
   93SAPE   C32 9149   0.587   4.544   7.993  0.5076  0.5697  0.3320
   93SAPE   H2X 9150   0.618   4.450   8.043  1.3611  0.5139 -0.2622
   93SAPE   H2Y 9151   0.684   4.596   7.974  0.0640  2.4010  2.7244
   93SAPE   C23 9152   0.088   4.606   8.010  0.6072  0.0298 -0.1141
   93SAPE   H3R 9153   0.069   4.497   8.026  2.0130  0.0696  2.0916
   93SAPE   H3S 9154   0.194   4.621   7.981  0.9355 -1.2826  0.3031
   93SAPE   C24 9155  -0.009   4.653   7.891 -0.7295 -0.3781  0.6796
   93SAPE   H4R 9156  -0.117   4.645   7.919 -1.1123  2.2585  0.2498
   93SAPE   H4S 9157  -0.003   4.579   7.808  1.7103 -0.9243  1.2654
   93SAPE   C25 9158   0.017   4.792   7.835  0.0180 -0.9309  0.2625
   93SAPE   H5R 9159  -0.058   4.865   7.870 -2.2265 -3.2912  0.7549
   93SAPE   C26 9160   0.112   4.834   7.753  0.2096 -0.5877  0.4170
   93SAPE   H6R 9161   0.092   4.936   7.716 -0.5479 -0.7510  0.3615
   93SAPE   C27 9162   0.222   4.751   7.699  0.6437  0.0134 -0.2151
   93SAPE   H7R 9163   0.191   4.715   7.598  1.3409  2.3694 -1.3519
   93SAPE   H7S 9164   0.235   4.665   7.768 -1.7625 -2.1724 -2.2731
   93SAPE   C28 9165   0.352   4.830   7.708  0.6037 -0.2470  0.4687
   93SAPE   H8R 9166   0.398   4.857   7.804  2.7357  1.2709 -0.8823
   93SAPE   C29 9167   0.411   4.873   7.598 -0.2428 -0.4776 -0.4907
   93SAPE   H9R 9168   0.500   4.938   7.609 -2.4588  2.8662 -0.7173
   93SAPE  C210 9169   0.371   4.851   7.450  0.6966  0.2891 -0.8649
   93SAPE  H10R 9170   0.352   4.954   7.412  0.1858  0.7294  0.5226
   93SAPE  H10S 9171   0.275   4.796   7.439 -0.4634  2.2421 -1.1008
   93SAPE  C211 9172   0.475   4.791   7.360  0.9111  0.2449  0.2558
   93SAPE  H11R 9173   0.569   4.760   7.408  1.1900 -0.4560 -0.7278
   93SAPE  C212 9174   0.457   4.755   7.233  0.2780  0.3295 -0.4774
   93SAPE  H12R 9175   0.537   4.714   7.169  0.5331 -1.0743  0.7081
   93SAPE  C213 9176   0.335   4.768   7.150 -0.1333  0.2177 -0.3216
   93SAPE  H13R 9177   0.259   4.826   7.207 -1.1836  0.0050 -1.4544
   93SAPE  H13S 9178   0.283   4.672   7.130 -0.6928  0.8519 -2.1275
   93SAPE  C214 9179   0.355   4.845   7.021  0.1018  0.3063 -0.5469
   93SAPE  H14R 9180   0.339   4.954   7.025 -0.2021  0.2310  0.6380
   93SAPE  C215 9181   0.406   4.798   6.907  0.2908 -0.1159  0.3250
   93SAPE  H15R 9182   0.415   4.876   6.830 -1.3925  0.2424  0.4502
   93SAPE  C216 9183   0.442   4.653   6.875  0.2479  0.7206 -0.1283
   93SAPE  H16R 9184   0.397   4.580   6.945  1.8142 -0.4064 -0.2432
   93SAPE  H16S 9185   0.551   4.635   6.868  0.2959 -0.6164  2.5463
   93SAPE  C217 9186   0.372   4.625   6.741 -0.2969  0.2340  0.0353
   93SAPE  H17R 9187   0.267   4.660   6.732 -0.0902  1.0007  0.5453
   93SAPE  H17S 9188   0.368   4.518   6.713  3.2341 -0.1501  0.4933
   93SAPE  C218 9189   0.453   4.692   6.623  0.1175 -0.9170 -0.1720
   93SAPE  H18R 9190   0.555   4.648   6.622  0.7695  0.3676  2.0270
   93SAPE  H18S 9191   0.469   4.800   6.641 -3.6354 -0.2329 -0.0730
   93SAPE  C219 9192   0.379   4.673   6.492  0.2530  0.0846  0.0606
   93SAPE  H19R 9193   0.280   4.723   6.503 -0.1400 -0.5922 -0.2965
   93SAPE  H19S 9194   0.345   4.568   6.477 -1.6901  0.7218 -0.3395
   93SAPE  C220 9195   0.467   4.718   6.373 -0.3458  0.3285 -0.2821
   93SAPE  H20R 9196   0.408   4.734   6.281  1.0295 -0.4040 -1.3225
   93SAPE  H20S 9197   0.552   4.646   6.364  0.7041  1.2741  1.3982
   93SAPE  H20T 9198   0.501   4.820   6.400  0.0539  0.0766  0.2035
   93SAPE   C33 9199   0.514   4.509   7.862  0.5536  0.6165  0.0909
   93SAPE   H3X 9200   0.490   4.604   7.810 -1.9767  0.4660  0.8299
   93SAPE   H3Y 9201   0.420   4.453   7.881  0.5356  0.7750  0.4886
   93SAPE   C34 9202   0.603   4.432   7.758 -0.1359  0.7457 -0.0574
   93SAPE   H4X 9203   0.571   4.327   7.771  1.4172 -0.0190 -2.0009
   93SAPE   H4Y 9204   0.713   4.438   7.770  0.3744 -1.9876 -2.4195
   93SAPE   C35 9205   0.580   4.473   7.615  0.5134 -0.0786 -1.0106
   93SAPE   H5X 9206   0.608   4.580   7.610  0.1536  0.1155  0.6293
   93SAPE   H5Y 9207   0.473   4.464   7.587  0.7973 -1.9979 -1.6107
   93SAPE   C36 9208   0.681   4.397   7.523 -0.2616 -0.9173 -0.2086
   93SAPE   H6X 9209   0.685   4.294   7.564  2.2963 -0.4958  0.7904
   93SAPE   H6Y 9210   0.772   4.459   7.532 -1.0528  0.4865 -1.3627
   93SAPE   C37 9211   0.635   4.392   7.376 -0.0374 -0.1801  0.1739
   93SAPE   H7X 9212   0.576   4.484   7.355 -3.5778 -2.6528 -1.5655
   93SAPE   H7Y 9213   0.565   4.307   7.372 -0.0255 -0.1406 -2.1815
   93SAPE   C38 9214   0.748   4.384   7.271 -0.3396  0.7742 -0.1104
   93SAPE   H8X 9215   0.800   4.287   7.279 -0.9468  0.3890 -0.7418
   93SAPE   H8Y 9216   0.821   4.466   7.290 -0.2366  0.4680  0.8914
   93SAPE   C39 9217   0.691   4.392   7.128  0.2625 -0.1337  0.4221
   93SAPE   H9X 9218   0.771   4.422   7.057  0.2468 -3.7629 -1.3273
   93SAPE   H9Y 9219   0.606   4.464   7.126  0.9935  0.7770  0.9996
   93SAPE  C310 9220   0.654   4.250   7.074 -0.5599  0.7173  0.3891
   93SAPE  H10X 9221   0.588   4.219   7.158 -0.9344 -0.5724 -0.3546
   93SAPE  H10Y 9222   0.746   4.189   7.061 -1.2032 -0.7352  2.2245
   93SAPE  C311 9223   0.563   4.243   6.945  0.1742  0.0872 -1.1262
   93SAPE  H11X 9224   0.476   4.305   6.976 -1.1118 -1.8801 -0.5999
   93SAPE  H11Y 9225   0.533   4.137   6.939  1.8644 -0.4941 -0.0723
   93SAPE  C312 9226   0.645   4.280   6.824  0.2727  0.3057 -0.9617
   93SAPE  H12X 9227   0.727   4.206   6.831 -0.4813 -0.5012 -0.3576
   93SAPE  H12Y 9228   0.686   4.383   6.837 -0.4466  0.3256  1.9872
   93SAPE  C313 9229   0.571   4.279   6.688 -0.0899 -0.0472 -0.6029
   93SAPE  H13X 9230   0.472   4.324   6.709  0.1085 -0.1782  0.6754
   93SAPE  H13Y 9231   0.556   4.169   6.677  1.4446 -0.0984 -2.7667
   93SAPE  C314 9232   0.654   4.326   6.562 -0.5500  0.0940 -0.6668
   93SAPE  H14X 9233   0.748   4.268   6.552  0.4193  1.3110  0.8863
   93SAPE  H14Y 9234   0.680   4.431   6.591  0.3139 -0.7533  1.9125
   93SAPE  C315 9235   0.574   4.317   6.429 -0.4113  0.1025 -1.0008
   93SAPE  H15X 9236   0.493   4.391   6.444 -1.0036 -0.6803 -0.2611
   93SAPE  H15Y 9237   0.529   4.216   6.414 -0.7051 -0.0270  0.5981
   93SAPE  C316 9238   0.650   4.355   6.301 -0.4557 -0.2195  0.5182
   93SAPE  H16X 9239   0.715   4.272   6.266  1.8273  2.0401 -0.9448
   93SAPE  H16Y 9240   0.718   4.442   6.315 -0.1251  0.1881 -2.7009
   93SAPE  C317 9241   0.553   4.375   6.182  0.0617 -0.9797 -0.6690
   93SAPE  H17X 9242   0.613   4.424   6.103  1.8876 -0.7711  0.7699
   93SAPE  H17Y 9243   0.469   4.442   6.211 -1.2172 -3.3712  1.6127
   93SAPE  C318 9244   0.495   4.250   6.122 -0.4666  0.1292  0.2554
   93SAPE  H18X 9245   0.458   4.276   6.020 -0.4668 -1.9751 -0.3157
   93SAPE  H18Y 9246   0.407   4.208   6.175 -0.9578  0.0799 -0.5840
   93SAPE  H18Z 9247   0.575   4.173   6.117  0.0442  0.6866 -0.4652
   94SAPE     N 9248   5.790   6.055   8.382  0.0033 -0.8269 -0.4049
   94SAPE   HN1 9249   5.893   6.064   8.386 -0.0736  0.9342 -1.4202
   94SAPE   HN2 9250   5.752   5.971   8.431 -0.3765  0.1162  0.9649
   94SAPE   HN3 9251   5.751   6.056   8.285  0.0232 -0.6722 -0.4122
   94SAPE   C12 9252   5.723   6.163   8.464 -0.4465  1.1111 -0.1438
   94SAPE  H12A 9253   5.792   6.193   8.545 -2.2423  1.5690  1.2986
   94SAPE  H12B 9254   5.630   6.126   8.513 -0.9292  2.8401  0.2940
   94SAPE   C11 9255   5.705   6.294   8.385 -0.4427  0.1177  0.0677
   94SAPE  H11A 9256   5.801   6.345   8.359  0.1086 -1.3331 -0.8922
   94SAPE  H11B 9257   5.657   6.361   8.459  1.4092  1.4760  0.1287
   94SAPE     P 9258   5.481   6.321   8.262 -0.2660  0.1485  0.0955
   94SAPE   O13 9259   5.406   6.266   8.375  0.2648  0.4814  0.2429
   94SAPE   O14 9260   5.477   6.465   8.232  0.2110  0.0349 -0.6761
   94SAPE   O12 9261   5.630   6.267   8.269  0.0950 -0.5304  0.3507
   94SAPE   O11 9262   5.437   6.236   8.136 -0.0843  0.0249  0.0183
   94SAPE    C1 9263   5.429   6.280   8.006  0.8203  0.3781 -0.0675
   94SAPE    HA 9264   5.508   6.354   7.982  1.1884  0.5842  1.6638
   94SAPE    HB 9265   5.442   6.192   7.939  2.6516  0.9344 -0.4990
   94SAPE    C2 9266   5.280   6.317   7.972  0.1195 -0.0804 -0.2165
   94SAPE    HS 9267   5.253   6.407   8.031 -0.7902  0.5101 -1.4763
   94SAPE   O21 9268   5.197   6.207   8.002  1.0622 -0.3290  0.2017
   94SAPE   C21 9269   5.061   6.233   8.024  0.1817 -0.2807 -0.4905
   94SAPE   O22 9270   5.014   6.342   8.024  0.6219 -0.0714 -0.2259
   94SAPE   C22 9271   5.002   6.091   8.028 -0.0658  0.1606  0.7537
   94SAPE   H2R 9272   5.076   6.009   8.018 -1.5846 -1.3241  1.3135
   94SAPE   H2S 9273   4.974   6.069   8.133  1.4433 -1.7100  0.8185
   94SAPE    C3 9274   5.261   6.373   7.829  0.5389  0.4232  0.4495
   94SAPE    HX 9275   5.161   6.420   7.827 -0.4843 -1.5983  0.7959
   94SAPE    HY 9276   5.261   6.281   7.765 -1.4602 -0.3439  1.4611
   94SAPE   O31 9277   5.370   6.454   7.784 -0.0250 -0.5155 -0.0907
   94SAPE   C31 9278   5.375   6.579   7.810 -0.1095 -0.6315  0.1795
   94SAPE   O32 9279   5.296   6.640   7.879  0.6934  0.1586 -0.5686
   94SAPE   C32 9280   5.492   6.636   7.732 -0.1317 -0.0301  0.2351
   94SAPE   H2X 9281   5.562   6.555   7.703 -0.6473 -0.3316 -0.1973
   94SAPE   H2Y 9282   5.551   6.697   7.804  0.5678 -1.2348  0.7088
   94SAPE   C23 9283   4.877   6.066   7.939 -0.7860 -0.7213 -0.2926
   94SAPE   H3R 9284   4.806   6.139   7.982 -0.6926  0.4044 -1.9378
   94SAPE   H3S 9285   4.837   5.964   7.956  0.3263 -1.0144  0.6799
   94SAPE   C24 9286   4.896   6.101   7.789  0.3077 -0.0796 -0.5993
   94SAPE   H4R 9287   4.910   6.212   7.785  2.0412 -0.0227  2.7860
   94SAPE   H4S 9288   4.801   6.080   7.735  0.4757  0.3459 -1.0710
   94SAPE   C25 9289   5.008   6.026   7.723 -0.6790  0.0391  0.0307
   94SAPE   H5R 9290   5.039   5.929   7.765 -0.0730 -0.0840 -0.6773
   94SAPE   C26 9291   5.087   6.074   7.620 -0.2071 -0.5176  0.6200
   94SAPE   H6R 9292   5.167   6.009   7.584 -0.7363  1.0041 -3.9712
   94SAPE   C27 9293   5.065   6.194   7.539  0.0219  0.0919  0.4027
   94SAPE   H7R 9294   5.076   6.285   7.602 -0.3962  0.9125 -0.6774
   94SAPE   H7S 9295   4.958   6.194   7.508  0.6985  1.4629 -2.2298
   94SAPE   C28 9296   5.157   6.219   7.418 -0.1308 -0.2678 -0.5604
   94SAPE   H8R 9297   5.260   6.247   7.445 -0.3063  1.3293 -1.4371
   94SAPE   C29 9298   5.135   6.207   7.289  0.0334  0.1704  0.1177
   94SAPE   H9R 9299   5.213   6.228   7.215  0.4516 -0.4644  0.3624
   94SAPE  C210 9300   5.006   6.156   7.245  0.3494 -1.1222  1.0195
   94SAPE  H10R 9301   4.953   6.252   7.224  2.5832  0.2259  1.2009
   94SAPE  H10S 9302   4.951   6.087   7.313 -0.2930 -0.2243  1.4299
   94SAPE  C211 9303   5.033   6.073   7.116 -0.7599  0.0856  0.2201
   94SAPE  H11R 9304   5.064   5.969   7.135  0.9654  0.0679 -2.1925
   94SAPE  C212 9305   5.024   6.118   6.993  0.3574  1.0442 -0.3634
   94SAPE  H12R 9306   5.057   6.050   6.913  1.2319  1.5678 -0.4686
   94SAPE  C213 9307   4.979   6.253   6.937 -0.0635  0.2007 -0.2231
   94SAPE  H13R 9308   4.958   6.322   7.022 -0.7991 -2.2205  1.6689
   94SAPE  H13S 9309   4.884   6.236   6.883  0.5064 -0.9320 -0.8991
   94SAPE  C214 9310   5.073   6.331   6.847  0.7434  0.6257  0.0280
   94SAPE  H14R 9311   5.103   6.429   6.888  1.1398  0.3397  0.4324
   94SAPE  C215 9312   5.147   6.296   6.740 -0.5066  0.5632  0.3095
   94SAPE  H15R 9313   5.203   6.375   6.689  0.3415 -0.3680 -0.2385
   94SAPE  C216 9314   5.136   6.172   6.657 -0.0132  0.1968 -0.6990
   94SAPE  H16R 9315   5.032   6.151   6.624 -0.8369 -0.9917  2.2751
   94SAPE  H16S 9316   5.151   6.082   6.721  1.5692  0.4727 -0.6626
   94SAPE  C217 9317   5.232   6.181   6.541  0.2930  0.3179 -0.2472
   94SAPE  H17R 9318   5.243   6.073   6.516  3.6531  0.6998 -0.9329
   94SAPE  H17S 9319   5.335   6.208   6.575  0.5866  0.2255 -1.0316
   94SAPE  C218 9320   5.189   6.275   6.424  0.3076  0.1892 -1.2439
   94SAPE  H18R 9321   5.262   6.248   6.345 -0.0356 -1.4221 -1.0418
   94SAPE  H18S 9322   5.200   6.381   6.454 -0.1696  0.0955 -0.7160
   94SAPE  C219 9323   5.046   6.271   6.368 -0.9294 -0.0768 -0.0319
   94SAPE  H19R 9324   5.018   6.164   6.358 -3.1649  0.4695 -0.1665
   94SAPE  H19S 9325   5.047   6.321   6.269  0.7996 -1.2532 -0.6567
   94SAPE  C220 9326   4.932   6.333   6.449 -0.5907  0.0922 -0.5442
   94SAPE  H20R 9327   4.844   6.333   6.381  0.6841 -1.4305 -2.2792
   94SAPE  H20S 9328   4.969   6.431   6.486  0.2395 -0.4316  0.0452
   94SAPE  H20T 9329   4.905   6.271   6.537  0.2442 -0.0068 -0.3489
   94SAPE   C33 9330   5.450   6.727   7.618 -0.2705  0.3546  0.0118
   94SAPE   H3X 9331   5.542   6.785   7.598  1.2684 -2.0132 -0.1003
   94SAPE   H3Y 9332   5.364   6.794   7.641 -1.5270 -0.3280 -2.3206
   94SAPE   C34 9333   5.417   6.655   7.489 -0.1951 -0.3810  0.2812
   94SAPE   H4X 9334   5.353   6.566   7.508 -1.8351  0.8958  0.9978
   94SAPE   H4Y 9335   5.513   6.613   7.452 -1.2149 -1.5022 -1.2138
   94SAPE   C35 9336   5.355   6.752   7.388  0.0364  0.8226  0.0170
   94SAPE   H5X 9337   5.430   6.827   7.356  3.3536 -0.9321  2.9542
   94SAPE   H5Y 9338   5.263   6.794   7.436 -0.7866 -0.8614 -0.0102
   94SAPE   C36 9339   5.294   6.680   7.265 -0.3029  0.1329 -0.0382
   94SAPE   H6X 9340   5.231   6.760   7.221 -0.5650 -0.1055 -0.0980
   94SAPE   H6Y 9341   5.219   6.601   7.286  1.0686 -1.1652  0.1069
   94SAPE   C37 9342   5.396   6.632   7.158 -0.1938  0.1500 -0.4060
   94SAPE   H7X 9343   5.452   6.544   7.197  0.9282  0.9860 -0.0743
   94SAPE   H7Y 9344   5.473   6.712   7.144  0.6012  0.1552  3.1555
   94SAPE   C38 9345   5.340   6.587   7.016  0.1127  0.2380 -0.3586
   94SAPE   H8X 9346   5.267   6.661   6.977  1.2707  0.6891 -1.7853
   94SAPE   H8Y 9347   5.282   6.493   7.029  3.1085 -1.6056  0.7908
   94SAPE   C39 9348   5.456   6.578   6.925 -0.8237  0.6265 -0.1436
   94SAPE   H9X 9349   5.531   6.509   6.970 -2.2389  0.1565  1.6008
   94SAPE   H9Y 9350   5.498   6.682   6.920  0.4140  0.1481 -0.1500
   94SAPE  C310 9351   5.428   6.542   6.778  0.0637  0.5901 -0.3405
   94SAPE  H10X 9352   5.361   6.611   6.723  0.2417  0.4310 -0.7645
   94SAPE  H10Y 9353   5.374   6.446   6.765 -0.3034  0.9278 -1.4150
   94SAPE  C311 9354   5.559   6.536   6.705 -0.4736 -0.2446 -0.1316
   94SAPE  H11X 9355   5.625   6.467   6.762 -0.4474 -0.6862 -0.6928
   94SAPE  H11Y 9356   5.602   6.639   6.705 -0.8830 -0.0683  0.2634
   94SAPE  C312 9357   5.546   6.491   6.557 -0.3329 -0.6002  0.2478
   94SAPE  H12X 9358   5.451   6.526   6.512 -1.4519 -1.4548  1.8539
   94SAPE  H12Y 9359   5.541   6.380   6.558 -0.4252 -0.6057 -0.2760
   94SAPE  C313 9360   5.656   6.538   6.469 -0.4875  0.4114 -0.3559
   94SAPE  H13X 9361   5.756   6.510   6.508  0.0915  0.5871 -1.6485
   94SAPE  H13Y 9362   5.641   6.648   6.463 -1.4192  0.3791  0.9628
   94SAPE  C314 9363   5.652   6.478   6.333  0.2039 -0.1706  0.4155
   94SAPE  H14X 9364   5.543   6.482   6.312  0.2454 -1.7354 -0.2579
   94SAPE  H14Y 9365   5.696   6.376   6.347  1.0271  0.0913 -0.1900
   94SAPE  C315 9366   5.735   6.554   6.225  0.7299  0.5300  0.4281
   94SAPE  H15X 9367   5.760   6.478   6.148 -2.6751 -0.0607 -0.2340
   94SAPE  H15Y 9368   5.824   6.608   6.263 -1.1856  1.3054  4.2629
   94SAPE  C316 9369   5.660   6.674   6.163 -0.0014 -0.2029  0.1066
   94SAPE  H16X 9370   5.654   6.748   6.246  0.3797 -1.1361  0.9825
   94SAPE  H16Y 9371   5.556   6.641   6.142 -0.3907 -0.9662  2.8394
   94SAPE  C317 9372   5.732   6.753   6.048 -0.4652 -0.3509 -0.0957
   94SAPE  H17X 9373   5.720   6.705   5.949  1.0415  1.8432 -1.4001
   94SAPE  H17Y 9374   5.837   6.763   6.082 -1.0632  1.7306  1.2920
   94SAPE  C318 9375   5.684   6.895   6.030  0.3459  0.4511 -0.4826
   94SAPE  H18X 9376   5.617   6.913   5.943 -1.3140  1.3247  0.9339
   94SAPE  H18Y 9377   5.774   6.960   6.029 -0.4091  1.5180 -0.7384
   94SAPE  H18Z 9378   5.631   6.936   6.118  1.1074  1.0152 -0.2695
   95SAPE     N 9379   0.436   3.434   8.495 -0.3009 -0.3035  0.1627
   95SAPE   HN1 9380   0.506   3.405   8.424  1.4228 -2.4404  2.5411
   95SAPE   HN2 9381   0.440   3.360   8.568  0.9805 -1.9152 -1.4531
   95SAPE   HN3 9382   0.344   3.441   8.448  0.6915  2.8970 -1.5850
   95SAPE   C12 9383   0.489   3.565   8.552 -0.4632  0.4558  0.0848
   95SAPE  H12A 9384   0.571   3.540   8.622  0.6397 -0.3866 -1.4276
   95SAPE  H12B 9385   0.401   3.599   8.610 -1.8130 -1.6383 -0.6408
   95SAPE   C11 9386   0.536   3.677   8.447 -0.1948 -0.4844 -0.0439
   95SAPE  H11A 9387   0.542   3.775   8.499  1.4430  0.6294 -2.1967
   95SAPE  H11B 9388   0.461   3.673   8.365  0.0282 -0.9273 -0.2291
   95SAPE     P 9389   0.797   3.685   8.460 -0.3695  0.5156  0.2455
   95SAPE   O13 9390   0.778   3.725   8.604 -0.1566  0.3620  0.2438
   95SAPE   O14 9391   0.904   3.583   8.435  0.6382  0.7334 -0.3312
   95SAPE   O12 9392   0.658   3.643   8.395  0.1470 -0.6315  0.0001
   95SAPE   O11 9393   0.838   3.813   8.374 -0.2293 -0.3257 -0.1063
   95SAPE    C1 9394   0.735   3.894   8.314 -0.5450 -0.6744  0.0423
   95SAPE    HA 9395   0.657   3.836   8.261 -0.2772 -0.9849 -0.0191
   95SAPE    HB 9396   0.690   3.958   8.393 -0.1557  3.1060 -2.5359
   95SAPE    C2 9397   0.779   3.995   8.207 -0.3753  0.3230  0.1961
   95SAPE    HS 9398   0.696   4.068   8.201  1.0014  2.0832  1.5278
   95SAPE   O21 9399   0.800   3.929   8.081 -0.3197  0.7283 -0.1329
   95SAPE   C21 9400   0.769   4.007   7.982 -0.3092  1.3598  0.7175
   95SAPE   O22 9401   0.724   4.118   7.987 -0.0071  0.5274 -0.0934
   95SAPE   C22 9402   0.807   3.939   7.844  0.9551 -0.2337 -0.4001
   95SAPE   H2R 9403   0.915   3.916   7.836  1.3997  1.5127  0.3126
   95SAPE   H2S 9404   0.750   3.844   7.830 -0.6594  0.6812 -0.3108
   95SAPE    C3 9405   0.902   4.060   8.257 -0.7292  0.7740 -0.2000
   95SAPE    HX 9406   0.968   3.988   8.309 -1.5084  0.4674  0.3847
   95SAPE    HY 9407   0.864   4.129   8.335 -0.5211  0.3807  0.2514
   95SAPE   O31 9408   0.984   4.125   8.157  0.3541 -0.1640 -0.2013
   95SAPE   C31 9409   1.048   4.231   8.198 -0.0453  0.3709  1.1014
   95SAPE   O32 9410   1.044   4.280   8.307  0.2025 -0.0678 -0.3841
   95SAPE   C32 9411   1.140   4.273   8.077  0.1262  0.3895 -0.1731
   95SAPE   H2X 9412   1.231   4.209   8.080 -0.0021  0.2045 -0.1905
   95SAPE   H2Y 9413   1.158   4.380   8.098 -0.8229  0.7383 -1.0285
   95SAPE   C23 9414   0.786   4.037   7.729  0.0622 -0.1010 -0.3032
   95SAPE   H3R 9415   0.843   4.129   7.752 -2.6253  1.3419  1.0435
   95SAPE   H3S 9416   0.679   4.063   7.710  0.9273  2.5938 -2.0375
   95SAPE   C24 9417   0.838   3.981   7.594 -0.4512  0.3916 -0.1336
   95SAPE   H4R 9418   0.942   3.944   7.609 -0.0765  1.7278  0.6670
   95SAPE   H4S 9419   0.840   4.068   7.525  2.8491 -0.0688 -0.7800
   95SAPE   C25 9420   0.741   3.873   7.539  0.3910  0.6976 -0.1369
   95SAPE   H5R 9421   0.735   3.782   7.601  0.5508  1.2489  0.6954
   95SAPE   C26 9422   0.682   3.868   7.419 -0.0314  0.1913 -0.1110
   95SAPE   H6R 9423   0.629   3.774   7.396  1.2972 -0.3083 -1.2616
   95SAPE   C27 9424   0.686   3.964   7.298 -0.0920  0.0226 -0.0226
   95SAPE   H7R 9425   0.787   3.964   7.252 -0.2088 -0.1172 -0.2810
   95SAPE   H7S 9426   0.662   4.061   7.347 -0.8648 -0.4821  0.6218
   95SAPE   C28 9427   0.581   3.940   7.193  0.7564 -0.2894  0.1972
   95SAPE   H8R 9428   0.484   3.965   7.240  1.1067 -1.0231  1.3545
   95SAPE   C29 9429   0.589   3.893   7.065 -0.1264  0.1843 -0.1095
   95SAPE   H9R 9430   0.496   3.892   7.007 -1.3644  1.0810  1.7589
   95SAPE  C210 9431   0.721   3.857   6.999  0.2152  0.0740 -0.3157
   95SAPE  H10R 9432   0.715   3.748   6.976  3.2350 -0.4353  0.9273
   95SAPE  H10S 9433   0.806   3.861   7.070 -0.1747 -0.7395  0.2086
   95SAPE  C211 9434   0.753   3.934   6.870 -0.2841 -0.1514  0.2244
   95SAPE  H11R 9435   0.828   4.013   6.885 -0.1579 -0.5005  1.4912
   95SAPE  C212 9436   0.703   3.912   6.743  1.1018 -0.8163 -0.5273
   95SAPE  H12R 9437   0.744   3.967   6.656 -0.5349  1.4022  0.0186
   95SAPE  C213 9438   0.590   3.815   6.713  0.2268 -0.7383 -0.3726
   95SAPE  H13R 9439   0.561   3.755   6.802  0.7864 -0.9584 -0.3326
   95SAPE  H13S 9440   0.621   3.740   6.637  0.2916 -0.8751 -0.2129
   95SAPE  C214 9441   0.472   3.909   6.671  0.2460  0.7847  0.3033
   95SAPE  H14R 9442   0.404   3.945   6.750 -1.9227 -0.6876 -0.7864
   95SAPE  C215 9443   0.449   3.937   6.540  0.6181  0.1893  0.0195
   95SAPE  H15R 9444   0.379   4.014   6.505 -0.4685 -1.6989 -2.2467
   95SAPE  C216 9445   0.522   3.877   6.427  0.3073 -0.0396  0.2321
   95SAPE  H16R 9446   0.621   3.834   6.455 -0.3016  0.4167  3.4388
   95SAPE  H16S 9447   0.552   3.957   6.356  1.5114  1.4348  2.3132
   95SAPE  C217 9448   0.436   3.770   6.362  0.1405  0.2231  0.0384
   95SAPE  H17R 9449   0.336   3.815   6.342  1.3515  3.4208  0.5710
   95SAPE  H17S 9450   0.428   3.679   6.425  1.2227  0.0092 -0.1182
   95SAPE  C218 9451   0.496   3.724   6.227 -0.0808  0.3567 -0.8594
   95SAPE  H18R 9452   0.597   3.681   6.244 -0.1323  0.1661 -1.0310
   95SAPE  H18S 9453   0.512   3.808   6.157 -1.0625  2.5877  1.4494
   95SAPE  C219 9454   0.392   3.622   6.168 -0.9593 -0.0940 -0.0530
   95SAPE  H19R 9455   0.288   3.645   6.202 -0.6257 -0.8231  1.5815
   95SAPE  H19S 9456   0.407   3.519   6.208 -0.3945  0.4916  1.3122
   95SAPE  C220 9457   0.392   3.624   6.022  0.1830 -0.6343 -0.3443
   95SAPE  H20R 9458   0.393   3.729   5.985  0.5656 -0.9859 -1.3409
   95SAPE  H20S 9459   0.300   3.573   5.987  0.4278 -1.1811 -0.2037
   95SAPE  H20T 9460   0.478   3.571   5.976  0.0589 -1.1236 -0.0156
   95SAPE   C33 9461   1.070   4.260   7.942 -0.1086 -1.0044  0.0466
   95SAPE   H3X 9462   0.967   4.301   7.949  0.5846  0.6295  1.4108
   95SAPE   H3Y 9463   1.060   4.156   7.904 -0.9174 -1.7685  2.2119
   95SAPE   C34 9464   1.137   4.342   7.832  0.8065  0.8071  0.1536
   95SAPE   H4X 9465   1.240   4.306   7.817 -0.0449 -1.3380 -0.9317
   95SAPE   H4Y 9466   1.132   4.447   7.869 -3.7276  1.3124 -1.1574
   95SAPE   C35 9467   1.057   4.343   7.700  0.1298 -0.2747 -0.1414
   95SAPE   H5X 9468   0.951   4.365   7.723 -0.2233 -1.4151 -0.6164
   95SAPE   H5Y 9469   1.061   4.249   7.642  1.2441 -0.3050 -0.0409
   95SAPE   C36 9470   1.110   4.451   7.602 -0.1837  0.5690  0.1566
   95SAPE   H6X 9471   1.167   4.534   7.650 -0.4393  1.0494 -0.3574
   95SAPE   H6Y 9472   1.025   4.506   7.556  0.8095  1.5340 -0.6001
   95SAPE   C37 9473   1.201   4.394   7.486 -0.6304  0.6371 -0.5101
   95SAPE   H7X 9474   1.285   4.330   7.518  1.7691  2.6778 -2.3514
   95SAPE   H7Y 9475   1.244   4.477   7.425  4.0715 -1.1691 -0.0715
   95SAPE   C38 9476   1.120   4.301   7.390  0.8383  0.6667  0.2655
   95SAPE   H8X 9477   1.035   4.360   7.349  0.7548 -1.3000 -2.7132
   95SAPE   H8Y 9478   1.077   4.220   7.452 -0.3528  0.8638 -0.2725
   95SAPE   C39 9479   1.198   4.244   7.266  0.0089 -0.3490 -0.1009
   95SAPE   H9X 9480   1.258   4.155   7.293 -0.3239 -1.2132 -2.0335
   95SAPE   H9Y 9481   1.258   4.329   7.228  0.2928  0.1240  1.3417
   95SAPE  C310 9482   1.107   4.198   7.150 -0.3374 -0.6552  0.6042
   95SAPE  H10X 9483   1.032   4.278   7.137  0.9699  0.3721 -1.0603
   95SAPE  H10Y 9484   1.062   4.098   7.170 -2.9103  0.2231 -0.4302
   95SAPE  C311 9485   1.181   4.195   7.011 -0.0134 -0.0206  0.6586
   95SAPE  H11X 9486   1.282   4.152   7.023  0.7409  0.8206 -2.0266
   95SAPE  H11Y 9487   1.199   4.301   6.983  2.2284 -0.7748 -1.0556
   95SAPE  C312 9488   1.103   4.111   6.910 -0.6288 -0.5370  0.3302
   95SAPE  H12X 9489   1.006   4.154   6.877 -1.1937 -0.9651  1.4038
   95SAPE  H12Y 9490   1.083   4.008   6.947 -0.8004 -1.2106 -1.5243
   95SAPE  C313 9491   1.192   4.096   6.786 -0.2764 -0.4906  0.6706
   95SAPE  H13X 9492   1.285   4.044   6.820  0.7932 -0.1810 -1.6379
   95SAPE  H13Y 9493   1.228   4.194   6.751  3.0541 -1.4222  1.0917
   95SAPE  C314 9494   1.120   4.018   6.682 -0.1381 -0.4221  0.3423
   95SAPE  H14X 9495   1.039   3.958   6.729  0.2773 -0.1615  1.4206
   95SAPE  H14Y 9496   1.180   3.942   6.627 -1.9370 -2.2613  0.7785
   95SAPE  C315 9497   1.062   4.109   6.567  0.1267  0.3267 -0.3970
   95SAPE  H15X 9498   1.138   4.188   6.547 -0.2180  0.7175 -0.1747
   95SAPE  H15Y 9499   0.980   4.168   6.614  0.2314 -0.7151  1.1491
   95SAPE  C316 9500   1.023   4.046   6.436  0.2207 -0.2874  0.1564
   95SAPE  H16X 9501   0.934   3.981   6.452 -0.7879  1.2088  0.7892
   95SAPE  H16Y 9502   1.107   3.992   6.386  1.2632  0.6039  0.8983
   95SAPE  C317 9503   0.987   4.161   6.334 -0.3231  0.1207 -0.8256
   95SAPE  H17X 9504   1.083   4.215   6.317 -1.2203  2.1572  0.3035
   95SAPE  H17Y 9505   0.913   4.233   6.375  0.7388  0.5895  0.3045
   95SAPE  C318 9506   0.931   4.090   6.210 -0.2608  0.2708 -0.1372
   95SAPE  H18X 9507   0.903   4.172   6.140 -1.7032  0.5203  0.6982
   95SAPE  H18Y 9508   0.840   4.032   6.234 -0.0623  0.8427  2.3033
   95SAPE  H18Z 9509   1.013   4.025   6.171  0.8847 -1.2006  4.1799
   96SAPE     N 9510   2.921   6.392   8.203  0.1291 -0.5858  0.3110
   96SAPE   HN1 9511   2.913   6.402   8.306 -5.0749  3.0973 -0.0777
   96SAPE   HN2 9512   2.836   6.431   8.158 -0.6854  0.1256  2.3789
   96SAPE   HN3 9513   2.899   6.296   8.172 -1.5298  0.7437 -3.1491
   96SAPE   C12 9514   3.056   6.431   8.150 -0.8017  0.4096 -0.6435
   96SAPE  H12A 9515   3.081   6.380   8.055  2.8925  2.8538 -1.1912
   96SAPE  H12B 9516   3.120   6.390   8.231 -1.1308 -1.2197 -1.1800
   96SAPE   C11 9517   3.077   6.583   8.155 -0.2133 -0.0360  0.1342
   96SAPE  H11A 9518   3.040   6.627   8.060  0.2953 -2.6409 -1.3847
   96SAPE  H11B 9519   3.188   6.597   8.152 -0.4575  2.2763  0.4198
   96SAPE     P 9520   3.050   6.785   8.327  0.3807  0.3570  0.1766
   96SAPE   O13 9521   2.940   6.835   8.413 -0.1731 -0.0453 -0.0694
   96SAPE   O14 9522   3.190   6.787   8.373  0.2032  0.3970  0.0603
   96SAPE   O12 9523   3.009   6.645   8.266  0.7151  0.4152  0.1790
   96SAPE   O11 9524   3.049   6.859   8.194  0.6025  0.3825 -0.0041
   96SAPE    C1 9525   3.091   6.996   8.194 -0.2910  0.9572 -0.7386
   96SAPE    HA 9526   3.002   7.057   8.219 -1.5897 -0.3591 -1.9480
   96SAPE    HB 9527   3.179   7.015   8.259  0.1414  0.4356 -1.1630
   96SAPE    C2 9528   3.150   7.023   8.049  0.5703 -0.1327  0.5616
   96SAPE    HS 9529   3.207   7.118   8.045 -3.4516  2.6017  1.5938
   96SAPE   O21 9530   3.043   7.032   7.957 -0.3247 -0.4075  0.2028
   96SAPE   C21 9531   2.979   7.153   7.959 -0.7537 -0.7577  0.2473
   96SAPE   O22 9532   3.021   7.245   8.024 -0.0349  0.3346  0.4464
   96SAPE   C22 9533   2.868   7.150   7.862 -0.6284  0.5372  0.1725
   96SAPE   H2R 9534   2.856   7.243   7.803 -0.2527 -0.2102 -1.1064
   96SAPE   H2S 9535   2.891   7.077   7.782 -2.7512 -0.1834  0.1529
   96SAPE    C3 9536   3.248   6.913   8.007  0.6019 -0.0120  0.5198
   96SAPE    HX 9537   3.188   6.821   7.988  0.5963  0.1222 -0.1264
   96SAPE    HY 9538   3.324   6.896   8.085 -0.4953 -0.9367  1.4331
   96SAPE   O31 9539   3.311   6.949   7.883  0.4754 -0.5368 -0.1172
   96SAPE   C31 9540   3.258   6.925   7.770 -0.1678 -0.0442 -0.1372
   96SAPE   O32 9541   3.154   6.863   7.750 -0.1901 -0.3328 -0.2073
   96SAPE   C32 9542   3.339   6.983   7.654  0.6657 -0.0318 -0.8216
   96SAPE   H2X 9543   3.305   6.933   7.561  1.7711 -0.4665 -0.9972
   96SAPE   H2Y 9544   3.443   6.951   7.677  0.0162 -0.5192  1.8504
   96SAPE   C23 9545   2.734   7.109   7.934 -0.2465 -0.5255 -0.3143
   96SAPE   H3R 9546   2.716   7.181   8.017  1.3416 -2.4941  1.8973
   96SAPE   H3S 9547   2.740   7.004   7.970 -1.2569 -1.2854 -2.2147
   96SAPE   C24 9548   2.615   7.120   7.840  0.7989  0.7050  0.9680
   96SAPE   H4R 9549   2.614   7.218   7.789  1.5097 -0.7880 -2.1834
   96SAPE   H4S 9550   2.520   7.107   7.896  1.1750  0.6520  1.5937
   96SAPE   C25 9551   2.628   7.012   7.733  0.0444 -0.4627  0.1108
   96SAPE   H5R 9552   2.615   6.906   7.760  0.1770 -0.4266  0.3143
   96SAPE   C26 9553   2.665   7.031   7.601 -0.5678  0.3015 -0.4248
   96SAPE   H6R 9554   2.704   6.938   7.558  0.1321  0.3094  0.1909
   96SAPE   C27 9555   2.702   7.166   7.533  0.6195  0.1218 -0.5889
   96SAPE   H7R 9556   2.810   7.153   7.510  0.2850 -0.5252 -1.8242
   96SAPE   H7S 9557   2.691   7.254   7.600 -1.2972  1.0855 -2.0615
   96SAPE   C28 9558   2.627   7.177   7.406  0.0412  0.0083 -0.0880
   96SAPE   H8R 9559   2.521   7.149   7.414  0.2415 -0.6807  0.2931
   96SAPE   C29 9560   2.683   7.201   7.286 -0.1564 -0.5309 -0.7339
   96SAPE   H9R 9561   2.605   7.210   7.209 -1.4314 -0.5785  0.4842
   96SAPE  C210 9562   2.820   7.230   7.236  0.5110  0.0522 -0.8754
   96SAPE  H10R 9563   2.855   7.145   7.174  2.9512 -0.4810  1.0830
   96SAPE  H10S 9564   2.891   7.224   7.321  0.3700  2.0334 -0.5675
   96SAPE  C211 9565   2.829   7.365   7.167 -0.3172 -0.5025 -0.3660
   96SAPE  H11R 9566   2.867   7.443   7.235 -0.5786 -0.6612 -0.0389
   96SAPE  C212 9567   2.801   7.404   7.038  0.2920  0.0825  0.2739
   96SAPE  H12R 9568   2.810   7.510   7.009 -2.2321 -0.3037 -2.3462
   96SAPE  C213 9569   2.734   7.318   6.932 -0.0675 -0.2500  1.0525
   96SAPE  H13R 9570   2.639   7.370   6.904 -0.3602 -0.2495  2.0245
   96SAPE  H13S 9571   2.693   7.225   6.976  1.2119 -0.9670  0.7639
   96SAPE  C214 9572   2.838   7.285   6.818 -0.3552 -0.5696  0.9915
   96SAPE  H14R 9573   2.901   7.197   6.839  0.2958 -1.1258 -2.6326
   96SAPE  C215 9574   2.852   7.347   6.698  0.2704 -0.6215 -0.0037
   96SAPE  H15R 9575   2.927   7.304   6.630  0.7878  1.9696 -1.1893
   96SAPE  C216 9576   2.764   7.452   6.641  0.0739 -0.4665 -0.2338
   96SAPE  H16R 9577   2.825   7.545   6.650 -1.4655  0.4587  1.1610
   96SAPE  H16S 9578   2.673   7.454   6.705 -0.5549  0.5022 -1.1232
   96SAPE  C217 9579   2.728   7.423   6.496  0.0036 -0.2263 -0.1395
   96SAPE  H17R 9580   2.819   7.391   6.441  1.1130 -1.2101  2.1530
   96SAPE  H17S 9581   2.683   7.514   6.451 -0.1117 -0.2051  0.0161
   96SAPE  C218 9582   2.612   7.315   6.492  0.2828  0.2969 -0.4114
   96SAPE  H18R 9583   2.549   7.337   6.581  1.7520 -1.3640  1.1397
   96SAPE  H18S 9584   2.642   7.208   6.498 -0.7050 -0.1248 -2.1069
   96SAPE  C219 9585   2.542   7.297   6.355 -0.1811 -0.8120  0.0029
   96SAPE  H19R 9586   2.495   7.197   6.343 -3.2875  0.3361  1.5186
   96SAPE  H19S 9587   2.615   7.313   6.273  0.6160 -0.9471  0.6651
   96SAPE  C220 9588   2.431   7.408   6.350 -0.2280  0.0559  0.5752
   96SAPE  H20R 9589   2.366   7.397   6.261  0.3256 -0.5072  0.2313
   96SAPE  H20S 9590   2.473   7.511   6.359 -1.8038  0.7023  0.8274
   96SAPE  H20T 9591   2.365   7.407   6.440  0.1212  1.4688  0.8720
   96SAPE   C33 9592   3.337   7.143   7.644 -0.4808 -0.0650 -0.3183
   96SAPE   H3X 9593   3.389   7.198   7.726  0.0872  1.5788 -1.7216
   96SAPE   H3Y 9594   3.231   7.178   7.643 -1.1550 -1.9950 -0.9188
   96SAPE   C34 9595   3.407   7.191   7.523 -0.1730 -0.1484 -0.0814
   96SAPE   H4X 9596   3.512   7.161   7.538 -0.5112 -1.8836 -0.8546
   96SAPE   H4Y 9597   3.386   7.298   7.500 -1.1853 -0.3943 -0.3932
   96SAPE   C35 9598   3.368   7.122   7.394 -0.2517  0.0689 -0.2800
   96SAPE   H5X 9599   3.385   7.012   7.390  0.6681  0.1338  1.1224
   96SAPE   H5Y 9600   3.433   7.163   7.313 -0.5160  0.6849 -0.1852
   96SAPE   C36 9601   3.221   7.147   7.360 -0.3580 -0.4952 -0.0543
   96SAPE   H6X 9602   3.188   7.253   7.367  0.0391 -0.4115  0.7229
   96SAPE   H6Y 9603   3.161   7.093   7.436 -2.0371  0.9218 -0.3273
   96SAPE   C37 9604   3.181   7.099   7.221  0.1289  0.7697 -0.3629
   96SAPE   H7X 9605   3.072   7.077   7.214  0.2143 -0.0570  0.7041
   96SAPE   H7Y 9606   3.219   6.996   7.205 -0.9744  0.3361 -0.3281
   96SAPE   C38 9607   3.213   7.191   7.109  0.1533 -0.6453  0.0905
   96SAPE   H8X 9608   3.320   7.220   7.096 -0.0271 -0.5371 -1.2720
   96SAPE   H8Y 9609   3.149   7.280   7.127 -0.3602 -0.6514 -1.5531
   96SAPE   C39 9610   3.174   7.138   6.976  0.0529  0.1954 -0.2654
   96SAPE   H9X 9611   3.069   7.103   6.979  0.2339 -0.3077  0.3702
   96SAPE   H9Y 9612   3.238   7.051   6.949 -0.1087 -1.2470  3.4655
   96SAPE  C310 9613   3.212   7.247   6.879  0.7256  0.2273 -0.7993
   96SAPE  H10X 9614   3.319   7.276   6.887  0.3562  2.1653 -2.2995
   96SAPE  H10Y 9615   3.165   7.344   6.908  1.6847  0.2069  0.9930
   96SAPE  C311 9616   3.193   7.204   6.732 -0.2073  0.2867 -0.2197
   96SAPE  H11X 9617   3.087   7.189   6.703  0.1197 -0.7924 -0.9271
   96SAPE  H11Y 9618   3.247   7.107   6.721  0.8363  0.9815 -1.4331
   96SAPE  C312 9619   3.260   7.306   6.635  1.0343 -0.0369 -0.3644
   96SAPE  H12X 9620   3.366   7.296   6.664  0.2247 -0.1096  3.0130
   96SAPE  H12Y 9621   3.231   7.413   6.652 -1.3087 -0.4961 -1.0331
   96SAPE  C313 9622   3.249   7.271   6.489 -0.4479 -0.2781  0.1911
   96SAPE  H13X 9623   3.145   7.259   6.453 -1.4008  1.6179  2.1067
   96SAPE  H13Y 9624   3.283   7.166   6.474 -0.6266 -0.7876  2.8773
   96SAPE  C314 9625   3.293   7.389   6.394 -0.4163  0.3261 -0.5244
   96SAPE  H14X 9626   3.400   7.414   6.409  0.0947 -1.3687 -1.1186
   96SAPE  H14Y 9627   3.236   7.480   6.424  1.3889  0.9645  1.1572
   96SAPE  C315 9628   3.261   7.363   6.253  0.6745 -0.1830  0.4211
   96SAPE  H15X 9629   3.151   7.343   6.256  0.7991 -0.9720 -0.0614
   96SAPE  H15Y 9630   3.308   7.265   6.228 -1.6769 -1.1440 -0.6101
   96SAPE  C316 9631   3.290   7.468   6.148 -0.0832 -0.1336  0.1269
   96SAPE  H16X 9632   3.392   7.463   6.102 -0.1424 -1.3590  0.1040
   96SAPE  H16Y 9633   3.276   7.570   6.189  3.9475  0.6885 -0.0759
   96SAPE  C317 9634   3.196   7.443   6.026  0.2150  0.3624  0.4261
   96SAPE  H17X 9635   3.093   7.447   6.067  0.1887 -0.8459  0.5056
   96SAPE  H17Y 9636   3.211   7.339   5.991 -0.5048  0.7294 -1.0752
   96SAPE  C318 9637   3.223   7.546   5.915 -0.2378  0.1179  0.1728
   96SAPE  H18X 9638   3.142   7.528   5.840 -1.0755  1.3622  0.7426
   96SAPE  H18Y 9639   3.326   7.530   5.877 -0.1681  0.1111  0.3647
   96SAPE  H18Z 9640   3.218   7.650   5.955 -1.3147 -0.1865  0.8823
   97SAPE     N 9641   4.607   1.266   8.474 -0.0666  0.0731  0.0950
   97SAPE   HN1 9642   4.513   1.255   8.516 -0.6787  3.2058 -0.1713
   97SAPE   HN2 9643   4.642   1.364   8.466 -0.0428  0.1607  1.0567
   97SAPE   HN3 9644   4.606   1.216   8.384 -0.3868  2.2944 -1.2061
   97SAPE   C12 9645   4.697   1.195   8.568  0.5670 -0.5215  0.2031
   97SAPE  H12A 9646   4.650   1.207   8.668 -2.2710 -0.1211 -1.0861
   97SAPE  H12B 9647   4.794   1.247   8.556  0.1265 -0.3682 -6.0170
   97SAPE   C11 9648   4.712   1.042   8.546  0.4997 -0.6674 -0.4702
   97SAPE  H11A 9649   4.611   0.994   8.550  0.7757 -1.1966  1.9799
   97SAPE  H11B 9650   4.781   1.005   8.625 -0.1927  0.3937  0.6775
   97SAPE     P 9651   4.853   0.913   8.370  0.3260  0.4546 -0.1454
   97SAPE   O13 9652   4.998   0.939   8.399  0.2199  0.3174  0.4994
   97SAPE   O14 9653   4.804   0.785   8.426 -0.1816  0.0947 -0.2885
   97SAPE   O12 9654   4.771   1.028   8.419  0.6279 -0.0934  0.1125
   97SAPE   O11 9655   4.821   0.908   8.218 -0.5449 -0.3639 -0.3132
   97SAPE    C1 9656   4.901   1.005   8.140 -0.6323 -0.2664 -0.1773
   97SAPE    HA 9657   4.873   1.110   8.166 -1.9223 -0.8203  0.7719
   97SAPE    HB 9658   5.009   0.984   8.147 -0.3516  1.3780  1.1676
   97SAPE    C2 9659   4.878   1.000   7.984 -0.4049  0.8897  0.0266
   97SAPE    HS 9660   4.960   1.054   7.932  0.2562 -0.9292 -0.9135
   97SAPE   O21 9661   4.751   1.055   7.950 -0.0313  0.3981 -0.0383
   97SAPE   C21 9662   4.738   1.100   7.824 -0.2461  0.7229  0.1897
   97SAPE   O22 9663   4.819   1.083   7.737 -0.5274  0.4255  0.2514
   97SAPE   C22 9664   4.611   1.182   7.816  0.7908 -0.2790  0.2949
   97SAPE   H2R 9665   4.623   1.282   7.863 -1.8130  0.8981 -1.2708
   97SAPE   H2S 9666   4.590   1.193   7.707 -0.9302 -0.1037  0.6250
   97SAPE    C3 9667   4.882   0.846   7.949  0.0825  0.1542 -0.5080
   97SAPE    HX 9668   4.783   0.815   7.989 -0.3545  0.9371 -0.9467
   97SAPE    HY 9669   4.955   0.789   8.009  0.9095  2.2979  0.6498
   97SAPE   O31 9670   4.893   0.817   7.811 -0.2710  0.1048 -0.2502
   97SAPE   C31 9671   5.012   0.854   7.753 -0.1908  0.0021  0.1003
   97SAPE   O32 9672   5.110   0.894   7.812  0.4062  0.3142  0.0903
   97SAPE   C32 9673   5.000   0.827   7.606  0.4633  0.2824 -0.2237
   97SAPE   H2X 9674   4.903   0.869   7.570 -0.3946 -0.7647  0.7682
   97SAPE   H2Y 9675   4.968   0.722   7.594 -2.5017  1.1369 -0.5559
   97SAPE   C23 9676   4.493   1.116   7.875  0.5561  0.1833 -0.1235
   97SAPE   H3R 9677   4.406   1.185   7.883 -1.9701 -2.9079  1.7054
   97SAPE   H3S 9678   4.502   1.076   7.978 -2.2243 -0.5259 -0.0771
   97SAPE   C24 9679   4.440   0.993   7.794  0.0331 -0.3313  0.0702
   97SAPE   H4R 9680   4.416   1.013   7.687 -0.9274 -2.7975 -0.2314
   97SAPE   H4S 9681   4.344   0.967   7.844 -0.1814 -1.3365 -0.8305
   97SAPE   C25 9682   4.527   0.875   7.803  0.6841 -0.2212 -0.7205
   97SAPE   H5R 9683   4.570   0.866   7.904 -0.9501 -0.4273 -0.0005
   97SAPE   C26 9684   4.564   0.783   7.719  0.3946  0.6081  0.0602
   97SAPE   H6R 9685   4.648   0.721   7.756  0.2132  1.4474  1.9723
   97SAPE   C27 9686   4.521   0.780   7.571 -0.2558 -0.3307 -0.3910
   97SAPE   H7R 9687   4.478   0.877   7.540  2.4489  1.3766  0.8392
   97SAPE   H7S 9688   4.438   0.707   7.556 -1.7873  1.0298  0.9895
   97SAPE   C28 9689   4.630   0.758   7.467  0.4681  0.1554 -0.2768
   97SAPE   H8R 9690   4.679   0.659   7.465  0.7604  0.2483  1.2216
   97SAPE   C29 9691   4.695   0.850   7.388  0.2611 -0.1173  0.9587
   97SAPE   H9R 9692   4.776   0.829   7.315  0.3390  2.6536  0.1570
   97SAPE  C210 9693   4.683   1.000   7.384 -0.2067 -0.0936 -0.2401
   97SAPE  H10R 9694   4.771   1.044   7.333 -1.6896  1.4204 -1.5999
   97SAPE  H10S 9695   4.689   1.034   7.490  0.4992  0.0428 -0.3176
   97SAPE  C211 9696   4.563   1.050   7.320 -0.2550  0.1988 -0.4675
   97SAPE  H11R 9697   4.510   0.972   7.262  0.8837 -0.9682  0.0117
   97SAPE  C212 9698   4.523   1.178   7.314 -0.2326  0.8003  0.9476
   97SAPE  H12R 9699   4.423   1.207   7.279  0.5864  0.6143 -1.7653
   97SAPE  C213 9700   4.596   1.290   7.388  0.2646  0.5356 -0.2516
   97SAPE  H13R 9701   4.654   1.350   7.315  0.5867  1.2131  0.5386
   97SAPE  H13S 9702   4.657   1.242   7.467  0.8024 -1.2593 -1.6988
   97SAPE  C214 9703   4.502   1.388   7.459 -0.3577  0.3032  0.1368
   97SAPE  H14R 9704   4.470   1.337   7.552  0.2299  2.2175  1.4544
   97SAPE  C215 9705   4.460   1.508   7.416  0.7518  0.5024  0.0082
   97SAPE  H15R 9706   4.410   1.576   7.486 -0.2784  1.9978 -2.0616
   97SAPE  C216 9707   4.505   1.575   7.292 -0.1049  0.3463  0.0888
   97SAPE  H16R 9708   4.412   1.617   7.247  0.5179  0.1349 -1.4360
   97SAPE  H16S 9709   4.534   1.501   7.215 -1.4627  1.1563 -1.2621
   97SAPE  C217 9710   4.608   1.685   7.309 -0.0628  0.1107 -0.2303
   97SAPE  H17R 9711   4.562   1.761   7.375 -1.6368 -1.3389  0.4374
   97SAPE  H17S 9712   4.613   1.740   7.212  2.9969  0.6822  0.1522
   97SAPE  C218 9713   4.743   1.637   7.359  0.9587 -0.4873  0.1399
   97SAPE  H18R 9714   4.789   1.557   7.297  0.4769 -1.2426  0.7423
   97SAPE  H18S 9715   4.731   1.602   7.464  0.1192  0.0580  0.2315
   97SAPE  C219 9716   4.843   1.762   7.360  0.1223  0.3357  0.1580
   97SAPE  H19R 9717   4.794   1.858   7.386  1.4466  1.0859 -0.0568
   97SAPE  H19S 9718   4.878   1.772   7.255 -1.6121 -1.6205 -0.7052
   97SAPE  C220 9719   4.959   1.731   7.450 -0.2312  0.3382 -0.3086
   97SAPE  H20R 9720   5.029   1.660   7.401 -1.8315 -2.0101  0.6188
   97SAPE  H20S 9721   4.933   1.690   7.550  1.6477  1.5437  0.7134
   97SAPE  H20T 9722   5.019   1.822   7.469 -1.0700  1.4796 -2.7584
   97SAPE   C33 9723   5.116   0.880   7.521  0.7330  0.5291  0.1562
   97SAPE   H3X 9724   5.203   0.813   7.539  0.0722 -1.1963 -2.5460
   97SAPE   H3Y 9725   5.145   0.984   7.549 -0.2472  0.7524  0.3787
   97SAPE   C34 9726   5.088   0.870   7.373  0.3389 -0.3337  0.3638
   97SAPE   H4X 9727   5.171   0.927   7.325  0.3671  0.2612  1.1030
   97SAPE   H4Y 9728   4.995   0.930   7.357  0.9745  0.4622 -0.5214
   97SAPE   C35 9729   5.071   0.731   7.317 -0.0199 -0.0399  1.1609
   97SAPE   H5X 9730   4.990   0.672   7.362  0.1273 -1.2884 -0.1398
   97SAPE   H5Y 9731   5.171   0.682   7.320 -0.7019 -1.8689 -1.6407
   97SAPE   C36 9732   5.027   0.729   7.162 -0.1673  0.3308 -0.0120
   97SAPE   H6X 9733   5.115   0.756   7.099 -0.6208 -1.1803 -1.3553
   97SAPE   H6Y 9734   4.941   0.799   7.156 -2.5706 -2.5434 -1.1723
   97SAPE   C37 9735   4.985   0.592   7.116  0.1729 -0.3258  0.3273
   97SAPE   H7X 9736   4.880   0.570   7.144  0.3602 -0.0685  1.2774
   97SAPE   H7Y 9737   5.047   0.511   7.158  1.0567  0.1778  0.0330
   97SAPE   C38 9738   4.991   0.581   6.961 -0.8898  0.2279 -0.4388
   97SAPE   H8X 9739   4.935   0.492   6.926  0.4783 -0.2400 -1.5244
   97SAPE   H8Y 9740   5.094   0.568   6.922 -0.0800  0.7679  1.4118
   97SAPE   C39 9741   4.933   0.699   6.885 -0.8421 -0.2324  0.0351
   97SAPE   H9X 9742   5.001   0.787   6.897  1.5619 -1.7565 -1.5414
   97SAPE   H9Y 9743   4.841   0.721   6.942  0.0241 -0.0007  1.4065
   97SAPE  C310 9744   4.918   0.682   6.732  0.4705  0.5600 -0.2675
   97SAPE  H10X 9745   4.852   0.596   6.709  2.5228 -1.1438 -0.0838
   97SAPE  H10Y 9746   5.010   0.671   6.672 -0.4403 -0.1657 -1.5869
   97SAPE  C311 9747   4.836   0.797   6.674 -0.2766 -0.0335 -0.3160
   97SAPE  H11X 9748   4.883   0.892   6.708  0.4924 -0.1207 -1.1151
   97SAPE  H11Y 9749   4.731   0.805   6.711 -0.1169  3.7522 -0.2426
   97SAPE  C312 9750   4.823   0.794   6.520 -0.8283 -0.5763  0.2981
   97SAPE  H12X 9751   4.762   0.703   6.501  0.3438 -1.5100  0.9105
   97SAPE  H12Y 9752   4.922   0.797   6.470 -0.4257  0.4032  1.1258
   97SAPE  C313 9753   4.745   0.919   6.466 -0.1016  0.3864 -0.8491
   97SAPE  H13X 9754   4.801   1.013   6.485  0.1727 -0.4451  3.4364
   97SAPE  H13Y 9755   4.650   0.925   6.524  0.4851 -0.8158  0.2922
   97SAPE  C314 9756   4.705   0.919   6.318 -0.4914  0.2405 -0.9353
   97SAPE  H14X 9757   4.617   0.852   6.324 -0.5234  0.3705  0.5018
   97SAPE  H14Y 9758   4.789   0.877   6.259  0.0648  1.4850 -1.0383
   97SAPE  C315 9759   4.672   1.060   6.266  0.6300  0.1376  0.0456
   97SAPE  H15X 9760   4.632   1.050   6.163  1.4928 -1.3316 -0.1781
   97SAPE  H15Y 9761   4.769   1.113   6.253  0.8531 -0.1761  0.4000
   97SAPE  C316 9762   4.565   1.130   6.356  0.8900 -1.3300  0.0518
   97SAPE  H16X 9763   4.606   1.148   6.457 -1.4030  1.5892  0.5813
   97SAPE  H16Y 9764   4.487   1.053   6.374 -2.1616  2.4140  5.3888
   97SAPE  C317 9765   4.481   1.233   6.290 -0.5909  0.1919  0.6971
   97SAPE  H17X 9766   4.418   1.174   6.220 -1.0905 -1.1007  2.1852
   97SAPE  H17Y 9767   4.546   1.303   6.233  1.2449 -1.0247  1.1941
   97SAPE  C318 9768   4.389   1.304   6.388 -0.4734 -0.1097  0.7342
   97SAPE  H18X 9769   4.317   1.372   6.337  0.8234  1.6516  1.1521
   97SAPE  H18Y 9770   4.446   1.362   6.464 -3.4468  1.4615  1.9183
   97SAPE  H18Z 9771   4.325   1.225   6.434 -3.6412  0.6881 -1.9203
   98SAPE     N 9772   2.993   2.890   8.067  0.8851 -0.1250  0.0167
   98SAPE   HN1 9773   3.002   2.832   7.981 -4.3857  1.5765 -2.0721
   98SAPE   HN2 9774   2.906   2.864   8.116  0.3458  0.9028 -0.3569
   98SAPE   HN3 9775   2.969   2.988   8.042 -0.4565 -0.5903 -0.6291
   98SAPE   C12 9776   3.105   2.899   8.169  0.6429  0.0939  0.0892
   98SAPE  H12A 9777   3.113   2.804   8.226 -1.4671  0.1611  0.5405
   98SAPE  H12B 9778   3.088   2.973   8.250 -2.2819 -0.5114  0.1411
   98SAPE   C11 9779   3.237   2.952   8.106 -0.0478  0.3342  0.9312
   98SAPE  H11A 9780   3.214   3.043   8.046 -1.7805 -1.1412 -0.7713
   98SAPE  H11B 9781   3.260   2.877   8.028  0.1628  2.0886 -0.7520
   98SAPE     P 9782   3.393   3.101   8.251 -0.4389  0.1480  0.1513
   98SAPE   O13 9783   3.276   3.188   8.241  0.8340 -0.1635 -0.2032
   98SAPE   O14 9784   3.453   3.084   8.385 -0.4413  0.1287 -0.0824
   98SAPE   O12 9785   3.349   2.961   8.196 -0.0607  0.2362 -0.2217
   98SAPE   O11 9786   3.511   3.162   8.159  0.5737 -0.2600  0.6801
   98SAPE    C1 9787   3.641   3.103   8.175  0.3509  0.2469  0.2126
   98SAPE    HA 9788   3.714   3.187   8.181  1.4274 -0.6364 -0.1107
   98SAPE    HB 9789   3.653   3.041   8.266 -1.4380  0.2656  0.4934
   98SAPE    C2 9790   3.689   3.013   8.054 -0.6924 -0.3481  0.4465
   98SAPE    HS 9791   3.792   2.978   8.077 -0.0366  0.8937 -0.4775
   98SAPE   O21 9792   3.685   3.097   7.938  0.1190 -0.2194  0.0133
   98SAPE   C21 9793   3.800   3.100   7.872 -0.0482 -0.6779 -0.4752
   98SAPE   O22 9794   3.904   3.052   7.902 -0.3948 -0.2918  0.1756
   98SAPE   C22 9795   3.779   3.182   7.741  0.0987 -0.5799  0.2822
   98SAPE   H2R 9796   3.699   3.131   7.684  0.2886 -1.1110  0.4729
   98SAPE   H2S 9797   3.726   3.274   7.773  0.1373 -0.4703  0.0307
   98SAPE    C3 9798   3.601   2.892   8.044 -0.3703 -0.0014  0.2706
   98SAPE    HX 9799   3.501   2.932   8.016 -0.8691  0.2428  2.2905
   98SAPE    HY 9800   3.585   2.839   8.140 -0.4680 -0.4269  0.0214
   98SAPE   O31 9801   3.666   2.803   7.940  0.2630 -0.4517  0.1851
   98SAPE   C31 9802   3.587   2.765   7.836  0.3214  0.1779 -0.0633
   98SAPE   O32 9803   3.471   2.801   7.821  0.2818  0.1832 -0.0715
   98SAPE   C32 9804   3.655   2.672   7.745 -0.4552  0.2479  0.5866
   98SAPE   H2X 9805   3.587   2.584   7.735  0.4087 -0.3270 -0.4312
   98SAPE   H2Y 9806   3.744   2.627   7.795 -0.3530 -0.5166 -0.2609
   98SAPE   C23 9807   3.902   3.221   7.667 -0.1571 -0.5009  0.8211
   98SAPE   H3R 9808   3.951   3.129   7.630 -1.1804 -0.4229 -0.7931
   98SAPE   H3S 9809   3.964   3.277   7.741  0.2876  0.2753 -0.1130
   98SAPE   C24 9810   3.859   3.317   7.546  0.5699  0.1833  0.2886
   98SAPE   H4R 9811   3.955   3.335   7.494  1.3430  0.2422  1.7244
   98SAPE   H4S 9812   3.818   3.415   7.579 -0.8119 -0.7393  1.4504
   98SAPE   C25 9813   3.760   3.246   7.452 -0.4549  0.5443 -0.0869
   98SAPE   H5R 9814   3.666   3.224   7.506 -0.7923  0.4280 -0.7078
   98SAPE   C26 9815   3.762   3.223   7.321  0.0830  0.0747  0.4878
   98SAPE   H6R 9816   3.681   3.170   7.268  1.0436 -0.4302 -0.5119
   98SAPE   C27 9817   3.880   3.259   7.233 -0.4890 -0.2961 -0.7038
   98SAPE   H7R 9818   3.915   3.160   7.197  1.1638 -0.2177  0.5823
   98SAPE   H7S 9819   3.960   3.297   7.299 -1.8545 -1.2927  1.6471
   98SAPE   C28 9820   3.857   3.352   7.115  0.7841 -0.2260  0.4338
   98SAPE   H8R 9821   3.861   3.461   7.129 -1.9345  0.7074 -3.9845
   98SAPE   C29 9822   3.828   3.314   6.987 -0.9726  0.0707  0.0569
   98SAPE   H9R 9823   3.812   3.392   6.911  0.3447  1.2398  0.9309
   98SAPE  C210 9824   3.813   3.176   6.932  0.2964  0.1474  0.7198
   98SAPE  H10R 9825   3.733   3.181   6.856 -0.3817  2.2574  1.5151
   98SAPE  H10S 9826   3.777   3.107   7.012  0.4279  0.1152  0.7517
   98SAPE  C211 9827   3.945   3.106   6.885 -0.2607 -0.0974 -0.2083
   98SAPE  H11R 9828   4.032   3.123   6.950 -1.7735 -0.3413  1.9861
   98SAPE  C212 9829   3.962   3.040   6.773  0.4813  0.1527  0.9187
   98SAPE  H12R 9830   4.061   2.998   6.749  0.8545  0.5851  1.6619
   98SAPE  C213 9831   3.863   3.016   6.659 -0.0953 -0.4572  0.1766
   98SAPE  H13R 9832   3.791   3.101   6.663  2.3488  1.8483 -1.3144
   98SAPE  H13S 9833   3.800   2.933   6.697 -1.1565  0.0542 -0.4146
   98SAPE  C214 9834   3.905   3.009   6.513 -0.5011 -0.1740 -0.3932
   98SAPE  H14R 9835   3.934   3.103   6.465  0.1671 -1.2292 -2.1260
   98SAPE  C215 9836   3.920   2.895   6.440  1.5453  0.2664  0.5949
   98SAPE  H15R 9837   3.948   2.894   6.334 -1.3156 -1.7512 -0.2671
   98SAPE  C216 9838   3.856   2.758   6.470 -0.6598  0.3890 -0.6510
   98SAPE  H16R 9839   3.762   2.752   6.410 -0.0411  3.4143 -2.1405
   98SAPE  H16S 9840   3.827   2.741   6.576 -3.6445  0.4811 -1.3692
   98SAPE  C217 9841   3.953   2.643   6.441  0.3261 -0.4880  0.1957
   98SAPE  H17R 9842   4.043   2.661   6.503  0.4654  0.2770 -0.2168
   98SAPE  H17S 9843   3.984   2.663   6.336  0.7506  0.8068  0.5566
   98SAPE  C218 9844   3.891   2.509   6.457 -0.6529 -0.3591  0.1813
   98SAPE  H18R 9845   3.788   2.508   6.416 -0.5165  0.0249 -0.1791
   98SAPE  H18S 9846   3.889   2.481   6.564 -0.1968 -0.0677  0.2697
   98SAPE  C219 9847   3.970   2.397   6.379  0.1683  0.3962 -0.1945
   98SAPE  H19R 9848   3.917   2.306   6.416 -0.1392  1.3284  1.7615
   98SAPE  H19S 9849   4.073   2.389   6.420 -0.5785 -2.6677  1.3919
   98SAPE  C220 9850   3.993   2.412   6.227  0.6683 -0.6989 -0.2925
   98SAPE  H20R 9851   4.063   2.331   6.198  0.6365 -0.5731 -0.7244
   98SAPE  H20S 9852   4.046   2.509   6.220  0.6328 -0.7262 -0.9879
   98SAPE  H20T 9853   3.895   2.426   6.176  1.0693  1.5671 -0.5581
   98SAPE   C33 9854   3.690   2.735   7.606  0.6987 -0.6403  0.0688
   98SAPE   H3X 9855   3.600   2.792   7.576  2.6996  2.0108 -1.4388
   98SAPE   H3Y 9856   3.699   2.671   7.516  0.4022 -0.9048  0.2292
   98SAPE   C34 9857   3.816   2.822   7.609 -0.3030  0.1196 -0.3607
   98SAPE   H4X 9858   3.898   2.751   7.632 -0.9124 -0.7520 -0.8241
   98SAPE   H4Y 9859   3.806   2.882   7.702  2.0239  0.2457 -0.1376
   98SAPE   C35 9860   3.829   2.902   7.476 -0.1656  0.2462  0.2303
   98SAPE   H5X 9861   3.915   2.971   7.487  0.6287 -0.7956  0.8488
   98SAPE   H5Y 9862   3.737   2.963   7.475 -0.0190  0.5034 -1.6296
   98SAPE   C36 9863   3.838   2.815   7.350 -0.0299 -0.2139  0.3834
   98SAPE   H6X 9864   3.754   2.743   7.345  1.0372 -1.4381 -0.8288
   98SAPE   H6Y 9865   3.934   2.762   7.369 -1.2280 -1.3894  4.2120
   98SAPE   C37 9866   3.858   2.902   7.226  0.4031 -0.4088 -0.0058
   98SAPE   H7X 9867   3.957   2.949   7.241  0.6346 -0.9564  0.2307
   98SAPE   H7Y 9868   3.777   2.978   7.228 -0.2537 -1.1084  1.3900
   98SAPE   C38 9869   3.865   2.814   7.102 -0.4564 -0.5562 -0.2158
   98SAPE   H8X 9870   3.938   2.734   7.128 -1.7432 -0.3017  5.2721
   98SAPE   H8Y 9871   3.908   2.865   7.013  0.9784  0.2460  0.8941
   98SAPE   C39 9872   3.736   2.748   7.049 -0.1359 -0.3140 -0.1104
   98SAPE   H9X 9873   3.673   2.831   7.011 -1.0902 -0.6737  0.6546
   98SAPE   H9Y 9874   3.658   2.721   7.123 -0.0752  1.8129  0.8023
   98SAPE  C310 9875   3.764   2.650   6.931 -0.1532  0.2557 -0.4941
   98SAPE  H10X 9876   3.830   2.570   6.969 -0.9376  0.1078  0.5953
   98SAPE  H10Y 9877   3.812   2.711   6.851 -0.5407 -0.8006 -1.5631
   98SAPE  C311 9878   3.635   2.589   6.875 -0.2048 -0.3714 -0.4556
   98SAPE  H11X 9879   3.578   2.669   6.822  0.2285  0.6109  0.5290
   98SAPE  H11Y 9880   3.585   2.545   6.963  1.3257 -0.1476  0.5542
   98SAPE  C312 9881   3.671   2.475   6.775 -0.1862 -0.0519  0.0027
   98SAPE  H12X 9882   3.745   2.414   6.832  0.0139  1.2315  1.1696
   98SAPE  H12Y 9883   3.722   2.524   6.689 -0.6824  0.0401 -0.2421
   98SAPE  C313 9884   3.549   2.384   6.743 -0.1293 -0.4102 -0.4121
   98SAPE  H13X 9885   3.478   2.438   6.676 -1.9858 -1.5478  0.5582
   98SAPE  H13Y 9886   3.494   2.366   6.838 -0.3025 -1.4042 -0.6963
   98SAPE  C314 9887   3.574   2.262   6.663  0.3313  0.3895  0.0094
   98SAPE  H14X 9888   3.476   2.213   6.643  0.1191  0.4076  0.9868
   98SAPE  H14Y 9889   3.616   2.175   6.718  0.0697  0.2573  0.0059
   98SAPE  C315 9890   3.646   2.287   6.531  0.5101  0.0160 -0.0176
   98SAPE  H15X 9891   3.756   2.284   6.546  0.4669 -1.7204  0.1088
   98SAPE  H15Y 9892   3.612   2.387   6.497 -1.2172 -1.0084 -1.4532
   98SAPE  C316 9893   3.585   2.200   6.419  0.0749 -0.5637 -0.3339
   98SAPE  H16X 9894   3.600   2.249   6.320 -1.4084  0.5824 -0.0373
   98SAPE  H16Y 9895   3.474   2.203   6.426  0.1367  0.3490  0.5479
   98SAPE  C317 9896   3.613   2.054   6.418 -0.4515  0.0815  0.0116
   98SAPE  H17X 9897   3.538   1.997   6.358 -0.6169 -0.7189  0.9600
   98SAPE  H17Y 9898   3.584   2.023   6.520  0.0861 -1.1985 -0.2045
   98SAPE  C318 9899   3.755   2.024   6.389 -0.2421  0.3782 -0.8093
   98SAPE  H18X 9900   3.780   2.034   6.281  0.1668 -1.2404 -0.8917
   98SAPE  H18Y 9901   3.777   1.922   6.427  0.3172 -0.4036 -3.0453
   98SAPE  H18Z 9902   3.825   2.088   6.446 -2.7716  0.5568  2.3722
   99SAPE     N 9903   5.241   3.089   8.447  0.1737 -0.0053 -0.4331
   99SAPE   HN1 9904   5.184   3.012   8.407 -2.2188  0.4777  1.8246
   99SAPE   HN2 9905   5.253   3.062   8.547  1.3358  1.1365 -0.2332
   99SAPE   HN3 9906   5.190   3.179   8.439 -1.0884 -0.7799 -1.4312
   99SAPE   C12 9907   5.380   3.104   8.388 -0.4150  0.1025  0.4974
   99SAPE  H12A 9908   5.441   3.157   8.464 -1.9095  0.2740  1.6091
   99SAPE  H12B 9909   5.371   3.171   8.299  3.2630 -0.1497 -0.2349
   99SAPE   C11 9910   5.437   2.974   8.343 -0.6107 -0.5144 -0.4251
   99SAPE  H11A 9911   5.465   2.910   8.429 -0.7175 -0.6131 -0.4635
   99SAPE  H11B 9912   5.537   2.994   8.299  0.8832 -3.6479  1.2027
   99SAPE     P 9913   5.358   2.758   8.219 -0.0012  0.1979 -0.3958
   99SAPE   O13 9914   5.500   2.721   8.212 -0.2620 -1.0881  0.1848
   99SAPE   O14 9915   5.271   2.689   8.310  0.2203 -0.0316  0.5589
   99SAPE   O12 9916   5.350   2.908   8.246  0.1712  0.1994 -0.2394
   99SAPE   O11 9917   5.301   2.749   8.076  0.2085 -0.1286  0.2110
   99SAPE    C1 9918   5.271   2.857   7.991  0.0671  0.0094 -0.7409
   99SAPE    HA 9919   5.355   2.929   7.999 -1.6235  1.8458  3.2791
   99SAPE    HB 9920   5.266   2.815   7.888 -0.6844 -2.8976  0.3843
   99SAPE    C2 9921   5.139   2.932   8.022  0.6843 -0.6803 -0.2526
   99SAPE    HS 9922   5.140   2.961   8.129  2.4516  1.2094 -0.7113
   99SAPE   O21 9923   5.036   2.845   7.988  1.2521 -0.3835 -0.5433
   99SAPE   C21 9924   4.915   2.868   8.053 -0.0572 -0.2510 -0.1633
   99SAPE   O22 9925   4.900   2.953   8.137  0.3658  0.3104 -0.3154
   99SAPE   C22 9926   4.808   2.778   7.993  0.4406 -0.6328  0.0012
   99SAPE   H2R 9927   4.863   2.722   7.914  1.0666  0.2904 -0.2395
   99SAPE   H2S 9928   4.790   2.712   8.080  0.8427 -1.5778 -0.6116
   99SAPE    C3 9929   5.135   3.062   7.944 -0.1282  0.2971  0.1981
   99SAPE    HX 9930   5.206   3.130   7.995  0.3485  0.1910 -0.3196
   99SAPE    HY 9931   5.039   3.113   7.968  0.2790  0.8807  0.6173
   99SAPE   O31 9932   5.170   3.047   7.802 -0.2446 -0.1106 -0.5821
   99SAPE   C31 9933   5.137   3.163   7.733 -0.0660 -0.2380 -0.1947
   99SAPE   O32 9934   5.110   3.266   7.789 -0.3103  0.3282  0.4591
   99SAPE   C32 9935   5.178   3.140   7.585  0.3946  0.0748 -0.3446
   99SAPE   H2X 9936   5.194   3.031   7.573 -0.2838 -0.1691  0.8502
   99SAPE   H2Y 9937   5.274   3.189   7.556  0.6477  0.7672  1.5402
   99SAPE   C23 9938   4.699   2.868   7.939 -0.3661  0.0808 -0.0194
   99SAPE   H3R 9939   4.659   2.925   8.026 -1.2339 -2.0482  1.0627
   99SAPE   H3S 9940   4.612   2.809   7.906 -0.0320 -2.5286  3.1924
   99SAPE   C24 9941   4.742   2.952   7.822  0.5196 -0.3057 -0.0038
   99SAPE   H4R 9942   4.754   2.886   7.734  0.0379 -0.9444  0.4032
   99SAPE   H4S 9943   4.837   3.002   7.853 -0.4953  0.5879  1.8062
   99SAPE   C25 9944   4.634   3.053   7.790  0.1246 -0.5180  0.1556
   99SAPE   H5R 9945   4.537   3.003   7.778 -0.2456  0.4675 -1.2007
   99SAPE   C26 9946   4.648   3.189   7.783  0.4225  0.3151  0.4191
   99SAPE   H6R 9947   4.553   3.245   7.785 -0.5982 -1.3526  2.5078
   99SAPE   C27 9948   4.767   3.274   7.804  0.0593 -0.0905 -0.2572
   99SAPE   H7R 9949   4.846   3.247   7.730 -1.8506  0.5158 -2.6206
   99SAPE   H7S 9950   4.799   3.238   7.905 -1.8136 -0.7291  0.1547
   99SAPE   C28 9951   4.749   3.424   7.819  0.1739 -0.4714  0.4249
   99SAPE   H8R 9952   4.743   3.459   7.923 -1.7698 -1.0835  0.5547
   99SAPE   C29 9953   4.720   3.510   7.711 -0.3312  0.2938  0.1785
   99SAPE   H9R 9954   4.700   3.616   7.731  1.5775  0.6961  0.0928
   99SAPE  C210 9955   4.697   3.466   7.561  0.1773  0.5159 -0.3441
   99SAPE  H10R 9956   4.669   3.359   7.569 -0.0648  0.5570 -0.5870
   99SAPE  H10S 9957   4.793   3.450   7.507  1.7746  1.7641  1.9959
   99SAPE  C211 9958   4.585   3.540   7.493  0.2757  0.0770  0.1089
   99SAPE  H11R 9959   4.490   3.557   7.546  0.1944 -0.3933  0.1247
   99SAPE  C212 9960   4.592   3.556   7.354 -0.4148 -0.8271 -0.6363
   99SAPE  H12R 9961   4.513   3.618   7.309  0.4418 -0.1909 -1.2995
   99SAPE  C213 9962   4.714   3.536   7.266  0.1949  0.0031  0.0959
   99SAPE  H13R 9963   4.805   3.547   7.329 -0.6989 -0.6204  1.5602
   99SAPE  H13S 9964   4.718   3.619   7.192 -0.8814 -0.6220 -0.6884
   99SAPE  C214 9965   4.716   3.397   7.217  0.3905  0.0069 -0.2013
   99SAPE  H14R 9966   4.731   3.316   7.290  2.0179  1.5374  1.2455
   99SAPE  C215 9967   4.719   3.358   7.089  0.4336 -0.9151 -0.0823
   99SAPE  H15R 9968   4.726   3.251   7.064  0.5347 -0.4408 -2.3080
   99SAPE  C216 9969   4.715   3.440   6.961  0.0093 -0.0428 -0.0174
   99SAPE  H16R 9970   4.811   3.493   6.945  0.8912 -0.6639  2.6512
   99SAPE  H16S 9971   4.637   3.519   6.959 -0.0553 -0.1236 -1.1141
   99SAPE  C217 9972   4.692   3.348   6.844  0.1334  0.5110 -0.2637
   99SAPE  H17R 9973   4.593   3.299   6.849 -0.1288  0.8769 -1.7130
   99SAPE  H17S 9974   4.770   3.269   6.855  0.4771  0.9624  0.7671
   99SAPE  C218 9975   4.719   3.399   6.700 -0.0732 -0.0961  0.2182
   99SAPE  H18R 9976   4.739   3.311   6.636  3.0493  0.2164  0.6007
   99SAPE  H18S 9977   4.812   3.460   6.711  0.1985 -0.8442  2.6853
   99SAPE  C219 9978   4.593   3.482   6.657  0.4555  0.8401 -0.8290
   99SAPE  H19R 9979   4.594   3.575   6.718 -2.2609  1.7814 -2.0514
   99SAPE  H19S 9980   4.492   3.439   6.674  0.7357  0.5792  0.2944
   99SAPE  C220 9981   4.587   3.520   6.514 -0.2512 -0.3115 -0.4637
   99SAPE  H20R 9982   4.644   3.610   6.483 -0.2561 -0.6143 -1.3609
   99SAPE  H20S 9983   4.482   3.532   6.481 -0.0744 -0.7455 -1.2037
   99SAPE  H20T 9984   4.622   3.434   6.453  0.7033  1.4229 -2.4852
   99SAPE   C33 9985   5.069   3.181   7.489  0.4733  0.6060  0.4378
   99SAPE   H3X 9986   4.974   3.150   7.537 -0.3188 -1.4582 -2.2289
   99SAPE   H3Y 9987   5.068   3.120   7.396  2.1050  0.6800  0.3509
   99SAPE   C34 9988   5.062   3.333   7.444 -0.5150 -0.1897  0.0747
   99SAPE   H4X 9989   5.079   3.399   7.532  0.0530  0.9973 -0.8977
   99SAPE   H4Y 9990   4.960   3.351   7.402  0.2003  0.6473 -1.3948
   99SAPE   C35 9991   5.160   3.367   7.328 -0.0568  0.2367  0.3645
   99SAPE   H5X 9992   5.260   3.333   7.362  1.4252  4.0379  0.2606
   99SAPE   H5Y 9993   5.159   3.477   7.317 -1.3442  0.0608 -2.1116
   99SAPE   C36 9994   5.117   3.318   7.193 -0.3714 -0.1079  0.0646
   99SAPE   H6X 9995   5.013   3.352   7.174 -1.1523 -1.5108  1.5782
   99SAPE   H6Y 9996   5.104   3.208   7.195 -1.2983 -0.0044  0.1660
   99SAPE   C37 9997   5.216   3.355   7.087  0.3853 -0.0745  0.1649
   99SAPE   H7X 9998   5.303   3.287   7.103  0.7696  0.4943  0.5580
   99SAPE   H7Y 9999   5.253   3.457   7.115 -0.1262 -0.3994  2.2215
   99SAPE   C3810000   5.165   3.343   6.944 -0.1373  0.2768 -0.0535
   99SAPE   H8X10001   5.071   3.401   6.931  1.3320  3.2753  1.5762
   99SAPE   H8Y10002   5.151   3.238   6.910  2.3051  0.1598 -0.9386
   99SAPE   C3910003   5.262   3.422   6.846 -0.8815 -0.0190  0.1255
   99SAPE   H9X10004   5.364   3.413   6.888 -0.4703 -0.2968 -0.8862
   99SAPE   H9Y10005   5.241   3.531   6.846 -0.7004  0.0260 -0.9129
   99SAPE  C31010006   5.264   3.362   6.704 -0.0836 -0.3602  0.3123
   99SAPE  H10X10007   5.284   3.253   6.701 -1.6459 -0.7205  1.7583
   99SAPE  H10Y10008   5.332   3.419   6.637 -1.3737  0.2070 -0.5751
   99SAPE  C31110009   5.123   3.349   6.634 -0.5133 -0.0724 -0.9256
   99SAPE  H11X10010   5.082   3.451   6.648  1.2375  0.6583 -0.8852
   99SAPE  H11Y10011   5.062   3.269   6.680  1.7657 -0.9808  0.7349
   99SAPE  C31210012   5.134   3.324   6.484  0.1275  0.7813  0.6580
   99SAPE  H12X10013   5.185   3.227   6.468  0.3588  1.0162 -0.0371
   99SAPE  H12Y10014   5.182   3.409   6.432 -4.1630  2.0215 -1.7627
   99SAPE  C31310015   4.989   3.297   6.425 -0.2254 -0.4577  0.1558
   99SAPE  H13X10016   4.934   3.394   6.431  1.6276  0.5458  1.9831
   99SAPE  H13Y10017   4.936   3.224   6.490 -2.1086  0.9416  0.2911
   99SAPE  C31410018   4.989   3.246   6.281 -0.1546  0.4885  0.5501
   99SAPE  H14X10019   5.014   3.139   6.265 -2.8348 -0.4598  1.9454
   99SAPE  H14Y10020   5.053   3.315   6.223  0.0445  1.9170  2.3611
   99SAPE  C31510021   4.859   3.277   6.223 -0.3190 -0.2217  1.1641
   99SAPE  H15X10022   4.874   3.270   6.113  1.3427  2.4204  1.1286
   99SAPE  H15Y10023   4.832   3.384   6.238 -1.0231  0.5387 -3.7894
   99SAPE  C31610024   4.741   3.182   6.242 -0.0154 -0.3817 -0.4104
   99SAPE  H16X10025   4.658   3.228   6.183  0.5405  0.7718 -0.3327
   99SAPE  H16Y10026   4.716   3.185   6.350  1.2623  0.8575 -0.1110
   99SAPE  C31710027   4.765   3.042   6.193 -0.3039 -0.1382 -0.2292
   99SAPE  H17X10028   4.861   3.008   6.236  0.0922  0.1515 -0.8634
   99SAPE  H17Y10029   4.775   3.034   6.083  0.2269  0.2511 -0.2113
   99SAPE  C31810030   4.651   2.945   6.224 -0.0939 -0.3834 -0.4358
   99SAPE  H18X10031   4.619   2.940   6.330  2.5940  0.9245  0.5416
   99SAPE  H18Y10032   4.683   2.842   6.197  0.1580 -0.5855  0.5948
   99SAPE  H18Z10033   4.556   2.971   6.173  0.2429  3.0577  0.4078
  100SAPE     N10034   0.928   0.455   8.653 -0.2351 -0.0661 -0.0968
  100SAPE   HN110035   0.982   0.529   8.701  0.2246  2.6010 -4.1848
  100SAPE   HN210036   0.848   0.507   8.612  0.2131  0.2232 -0.6172
  100SAPE   HN310037   0.898   0.380   8.718  2.0565 -0.1802  0.9266
  100SAPE   C1210038   1.026   0.415   8.553 -0.6183  0.3253  0.5495
  100SAPE  H12A10039   0.985   0.326   8.499 -3.1575 -0.8787  4.0657
  100SAPE  H12B10040   1.122   0.393   8.604  0.6896  2.0186 -1.0514
  100SAPE   C1110041   1.070   0.544   8.472 -0.6272  0.1422  0.7843
  100SAPE  H11A10042   1.143   0.526   8.390 -3.6064  0.7617 -2.2502
  100SAPE  H11B10043   1.112   0.609   8.551 -1.1523  1.0422  0.3394
  100SAPE     P10044   0.944   0.773   8.419  0.5006 -0.2768  0.2898
  100SAPE   O1310045   0.813   0.814   8.363 -0.0473 -0.0076  0.1842
  100SAPE   O1410046   0.975   0.831   8.553  0.0771  0.4110  0.0354
  100SAPE   O1210047   0.952   0.611   8.416  0.3208 -0.0940 -0.3139
  100SAPE   O1110048   1.053   0.804   8.317 -0.4456  0.5301  0.7232
  100SAPE    C110049   1.072   0.940   8.270 -0.0599 -0.4922  0.1644
  100SAPE    HA10050   1.005   1.017   8.314 -1.4021 -1.5035 -0.0591
  100SAPE    HB10051   1.177   0.975   8.277 -0.3182  0.3098  0.0749
  100SAPE    C210052   1.020   0.946   8.123 -0.2758  0.2767  0.2508
  100SAPE    HS10053   0.912   0.921   8.135 -0.0750 -0.5176  0.4264
  100SAPE   O2110054   1.097   0.848   8.052  0.7507  0.4691  0.1513
  100SAPE   C2110055   1.027   0.784   7.957  0.2456  0.6069 -0.2578
  100SAPE   O2210056   0.904   0.788   7.943  0.2367 -0.0284  0.2225
  100SAPE   C2210057   1.119   0.707   7.869 -0.4726  0.1640  0.5049
  100SAPE   H2R10058   1.201   0.669   7.933  1.8556  0.6399 -1.9840
  100SAPE   H2S10059   1.068   0.620   7.821 -0.7953 -1.2837  3.2844
  100SAPE    C310060   1.037   1.085   8.051 -0.7522  0.3398 -0.3277
  100SAPE    HX10061   1.147   1.098   8.036 -0.9910  1.9527 -0.9297
  100SAPE    HY10062   1.016   1.164   8.125 -0.1320  0.5202 -0.3397
  100SAPE   O3110063   0.961   1.098   7.929 -0.3166  0.3837 -0.1282
  100SAPE   C3110064   0.992   1.212   7.868 -0.4589  0.0705 -0.2579
  100SAPE   O3210065   1.084   1.286   7.902 -0.4218 -0.1512  0.4734
  100SAPE   C3210066   0.897   1.240   7.755 -0.1028  0.6285 -0.3599
  100SAPE   H2X10067   0.833   1.326   7.786 -0.8470  0.4607 -1.3339
  100SAPE   H2Y10068   0.821   1.158   7.750  0.4684 -0.0330  1.1820
  100SAPE   C2310069   1.179   0.790   7.758 -0.6479 -0.0941  0.0240
  100SAPE   H3R10070   1.206   0.887   7.804 -0.7864 -0.4642  0.9088
  100SAPE   H3S10071   1.109   0.815   7.676  0.1016 -2.4622 -1.4452
  100SAPE   C2410072   1.311   0.736   7.709  0.2303  0.1023 -0.4172
  100SAPE   H4R10073   1.381   0.724   7.795 -0.4187 -1.8794 -0.1077
  100SAPE   H4S10074   1.361   0.805   7.638  0.8859 -0.4311 -0.4891
  100SAPE   C2510075   1.278   0.606   7.641  0.0375  0.0380 -0.5731
  100SAPE   H5R10076   1.272   0.520   7.709  2.1684  0.1789 -0.1181
  100SAPE   C2610077   1.293   0.571   7.509 -0.0504 -0.2831 -0.0885
  100SAPE   H6R10078   1.277   0.467   7.478  0.8098 -0.4045 -0.1474
  100SAPE   C2710079   1.339   0.659   7.389 -0.0958  0.5226 -0.4606
  100SAPE   H7R10080   1.310   0.764   7.406  0.5140  0.8767 -1.5180
  100SAPE   H7S10081   1.276   0.638   7.300  1.5756  0.8366 -1.7694
  100SAPE   C2810082   1.490   0.648   7.352 -1.2641 -0.3137 -0.3874
  100SAPE   H8R10083   1.547   0.602   7.434 -1.4023  1.5552  0.8272
  100SAPE   C2910084   1.539   0.663   7.227  0.6288  0.2285  0.0094
  100SAPE   H9R10085   1.647   0.670   7.206  0.4120  2.1195 -0.5969
  100SAPE  C21010086   1.449   0.721   7.111 -0.1171 -0.1184  0.0348
  100SAPE  H10R10087   1.513   0.792   7.055 -1.3125  4.5795  3.9514
  100SAPE  H10S10088   1.382   0.793   7.162  0.6004 -1.3053  2.8696
  100SAPE  C21110089   1.382   0.617   7.024 -0.6986 -0.5747  0.2299
  100SAPE  H11R10090   1.294   0.567   7.067 -2.2709  2.6760  1.1286
  100SAPE  C21210091   1.418   0.584   6.900  0.5313  0.2117  0.2324
  100SAPE  H12R10092   1.372   0.492   6.860  0.4106  0.2809  0.2120
  100SAPE  C21310093   1.521   0.637   6.809 -0.3843  0.0102 -0.2475
  100SAPE  H13R10094   1.546   0.560   6.732  1.8885 -0.1101  0.5195
  100SAPE  H13S10095   1.617   0.661   6.858  1.0310 -2.5766 -1.5090
  100SAPE  C21410096   1.483   0.770   6.748  0.1000  0.5053  0.3434
  100SAPE  H14R10097   1.415   0.836   6.804 -0.8627 -0.4861  0.3711
  100SAPE  C21510098   1.521   0.803   6.621 -0.3389  0.0811  0.3650
  100SAPE  H15R10099   1.478   0.896   6.581  1.1041  1.8225  2.5626
  100SAPE  C21610100   1.613   0.722   6.534 -0.2221  0.5847 -0.6084
  100SAPE  H16R10101   1.550   0.661   6.465 -1.0595  0.9829 -0.2062
  100SAPE  H16S10102   1.685   0.662   6.594  0.7919  2.4472  0.1241
  100SAPE  C21710103   1.710   0.805   6.454 -0.0850  0.3376 -0.8272
  100SAPE  H17R10104   1.784   0.739   6.404  1.1900  0.2898  0.9998
  100SAPE  H17S10105   1.762   0.862   6.534 -0.8179 -1.1999  0.8060
  100SAPE  C21810106   1.653   0.901   6.346 -0.0194 -0.1925  0.0010
  100SAPE  H18R10107   1.563   0.948   6.393 -0.3718 -1.8380  1.0468
  100SAPE  H18S10108   1.606   0.837   6.269 -2.0312  1.5667 -0.3238
  100SAPE  C21910109   1.763   0.992   6.288 -0.9367  0.8957  0.0833
  100SAPE  H19R10110   1.855   0.932   6.269 -0.8345  0.6776  1.1838
  100SAPE  H19S10111   1.794   1.070   6.361 -1.2104 -0.2746  1.4860
  100SAPE  C22010112   1.720   1.057   6.159 -0.0953  0.4094  0.2501
  100SAPE  H20R10113   1.711   0.981   6.078  0.6650  0.1835  0.3744
  100SAPE  H20S10114   1.800   1.122   6.121 -0.9214  0.8006 -0.8663
  100SAPE  H20T10115   1.628   1.120   6.166  0.2721  1.0164 -0.3512
  100SAPE   C3310116   0.965   1.257   7.624 -0.4836 -0.3526  0.2079
  100SAPE   H3X10117   1.046   1.332   7.630 -0.7475  0.0204 -0.8170
  100SAPE   H3Y10118   0.891   1.304   7.556  0.9512  2.6992  0.6152
  100SAPE   C3410119   1.019   1.121   7.576  0.7475 -0.1709  0.5917
  100SAPE   H4X10120   0.968   1.030   7.613 -2.3262 -0.1144 -2.9683
  100SAPE   H4Y10121   1.126   1.122   7.605  1.2307 -2.7796 -0.7867
  100SAPE   C3510122   1.010   1.119   7.422  0.3784  0.0915  0.0574
  100SAPE   H5X10123   1.064   1.213   7.394  0.2837  0.2348  0.3539
  100SAPE   H5Y10124   0.902   1.129   7.400  0.1623 -1.4546  0.3105
  100SAPE   C3610125   1.071   0.993   7.357  1.1989 -0.2778 -0.5777
  100SAPE   H6X10126   1.013   0.904   7.386  0.6956  0.4609  0.8091
  100SAPE   H6Y10127   1.171   0.971   7.401  0.2169  0.3459  2.2235
  100SAPE   C3710128   1.074   1.011   7.210  0.1535  0.4456 -0.5721
  100SAPE   H7X10129   0.971   1.038   7.177  0.0921  0.3783 -0.4335
  100SAPE   H7Y10130   1.094   0.914   7.161 -0.4758  0.4331 -0.8238
  100SAPE   C3810131   1.179   1.108   7.150  0.2613  0.3070 -0.0073
  100SAPE   H8X10132   1.281   1.067   7.165  0.9301  1.4709 -1.1419
  100SAPE   H8Y10133   1.177   1.210   7.193  0.1356  0.9117 -1.4045
  100SAPE   C3910134   1.159   1.102   6.997  0.0495  0.4991 -0.4117
  100SAPE   H9X10135   1.077   1.170   6.966  0.0099  0.2192 -0.9393
  100SAPE   H9Y10136   1.145   0.993   6.978 -0.1313 -0.6085  4.7034
  100SAPE  C31010137   1.280   1.144   6.909  0.8658 -0.8597 -0.3680
  100SAPE  H10X10138   1.351   1.061   6.932  1.7846 -0.4149 -1.5274
  100SAPE  H10Y10139   1.324   1.243   6.933 -1.1457  0.3481 -1.4095
  100SAPE  C31110140   1.252   1.141   6.754 -0.3210 -0.1286  0.4427
  100SAPE  H11X10141   1.154   1.188   6.731 -0.7105 -0.6544  0.9861
  100SAPE  H11Y10142   1.234   1.035   6.728 -2.0666  0.4226 -0.7425
  100SAPE  C31210143   1.367   1.197   6.661 -0.4966 -0.0563 -0.0030
  100SAPE  H12X10144   1.471   1.177   6.697 -0.2855 -2.0764 -1.5525
  100SAPE  H12Y10145   1.367   1.308   6.665 -0.7174  0.1870 -3.7200
  100SAPE  C31310146   1.362   1.154   6.513  0.0294 -0.0434  0.0160
  100SAPE  H13X10147   1.399   1.049   6.509 -0.5086 -0.2285 -0.1282
  100SAPE  H13Y10148   1.427   1.227   6.460 -0.2287 -1.3590 -2.2361
  100SAPE  C31410149   1.224   1.184   6.447 -0.7046  0.1091  0.7880
  100SAPE  H14X10150   1.203   1.293   6.438 -1.3848 -0.0711 -0.0081
  100SAPE  H14Y10151   1.154   1.127   6.511 -0.9671  1.5636  1.8528
  100SAPE  C31510152   1.224   1.115   6.303  0.5116 -0.3152 -0.2306
  100SAPE  H15X10153   1.122   1.112   6.258  0.9497  0.1277 -1.3067
  100SAPE  H15Y10154   1.234   1.006   6.322 -1.0622 -0.5689 -0.7246
  100SAPE  C31610155   1.314   1.168   6.199 -0.7795 -0.4107 -0.0112
  100SAPE  H16X10156   1.418   1.155   6.236 -1.4747 -0.4965  2.0251
  100SAPE  H16Y10157   1.308   1.279   6.200 -0.0175 -0.3249 -1.3973
  100SAPE  C31710158   1.290   1.127   6.053 -0.6101  0.8585  0.3164
  100SAPE  H17X10159   1.179   1.131   6.042 -0.7155  0.7017  1.2394
  100SAPE  H17Y10160   1.316   1.020   6.035 -0.7809  0.9605 -0.5959
  100SAPE  C31810161   1.353   1.220   5.950 -0.2025 -0.4728  0.1437
  100SAPE  H18X10162   1.445   1.178   5.903 -0.3876  0.3179 -0.9949
  100SAPE  H18Y10163   1.379   1.316   5.999  1.1158 -0.6202 -0.2224
  100SAPE  H18Z10164   1.286   1.239   5.864 -1.1685 -0.7776  0.8189
  101SAPE     N10165   1.458   3.366   8.374  0.8449 -0.3115 -0.3233
  101SAPE   HN110166   1.395   3.378   8.456  0.6733 -1.5248 -0.2507
  101SAPE   HN210167   1.519   3.449   8.362  1.0635 -0.2818  0.8525
  101SAPE   HN310168   1.401   3.364   8.287  2.8430 -1.5891 -1.6774
  101SAPE   C1210169   1.543   3.246   8.402  0.5124  0.2989  0.2255
  101SAPE  H12A10170   1.474   3.160   8.413 -2.9267  2.9587  1.0720
  101SAPE  H12B10171   1.592   3.264   8.500  0.7949 -1.0861  0.3661
  101SAPE   C1110172   1.650   3.228   8.297 -1.1561 -1.2213 -0.6431
  101SAPE  H11A10173   1.704   3.324   8.279 -1.3685 -0.1628  3.3804
  101SAPE  H11B10174   1.598   3.218   8.199  2.2760  2.2181 -3.1236
  101SAPE     P10175   1.891   3.111   8.312 -0.2351  0.3856  0.6218
  101SAPE   O1310176   1.939   3.246   8.328 -0.2566  0.2020 -0.0839
  101SAPE   O1410177   1.937   3.019   8.415  0.2324  0.2821 -0.2297
  101SAPE   O1210178   1.730   3.115   8.309 -0.6467 -0.6398 -0.0711
  101SAPE   O1110179   1.937   3.063   8.166 -0.4643 -0.2009 -0.1405
  101SAPE    C110180   1.848   2.968   8.089 -1.3428 -0.3648  0.2323
  101SAPE    HA10181   1.904   2.874   8.071  1.4074  1.4767 -1.5953
  101SAPE    HB10182   1.757   2.935   8.143 -0.2754 -2.6051  0.7904
  101SAPE    C210183   1.829   3.022   7.945  0.1019 -0.5303 -0.1436
  101SAPE    HS10184   1.774   3.118   7.951  0.3420 -0.4310  0.6360
  101SAPE   O2110185   1.748   2.933   7.864 -0.3274 -0.2409  0.3490
  101SAPE   C2110186   1.624   2.912   7.897 -0.0567 -0.1401  0.0058
  101SAPE   O2210187   1.559   2.969   7.988 -0.5358 -0.2862  0.8145
  101SAPE   C2210188   1.557   2.818   7.800  0.0698 -0.5989  0.2464
  101SAPE   H2R10189   1.616   2.797   7.709 -1.5428 -1.3589 -0.6768
  101SAPE   H2S10190   1.533   2.722   7.853 -2.2920 -0.8818 -1.1651
  101SAPE    C310191   1.968   3.051   7.872 -0.0467 -0.1288  0.1097
  101SAPE    HX10192   2.032   2.960   7.875  0.2509  0.0733 -0.0239
  101SAPE    HY10193   2.035   3.124   7.923  0.3399 -1.3339  1.3737
  101SAPE   O3110194   1.955   3.084   7.735  0.4582 -0.0374 -0.2556
  101SAPE   C3110195   1.966   3.219   7.694  0.5446 -0.0935 -0.0240
  101SAPE   O3210196   2.005   3.308   7.768  0.1054 -0.4365 -0.1671
  101SAPE   C3210197   1.929   3.230   7.549  0.1082 -0.3155  0.0516
  101SAPE   H2X10198   1.918   3.340   7.534  0.3227 -0.1595  0.9975
  101SAPE   H2Y10199   1.833   3.176   7.532 -1.0734  1.7781 -0.2736
  101SAPE   C2310200   1.419   2.874   7.748  0.2173  0.8470  0.3265
  101SAPE   H3R10201   1.375   2.935   7.829 -2.0474 -0.5181  0.2360
  101SAPE   H3S10202   1.363   2.777   7.747  0.8195  0.4982 -0.2883
  101SAPE   C2410203   1.424   2.951   7.613  0.1647  0.3573 -0.0610
  101SAPE   H4R10204   1.461   2.879   7.536 -0.2249  1.6757 -1.5204
  101SAPE   H4S10205   1.497   3.034   7.609 -0.4470  0.8456 -2.1687
  101SAPE   C2510206   1.292   3.010   7.574  0.2620  0.7415  0.4667
  101SAPE   H5R10207   1.258   3.094   7.637  1.0620  1.9688 -0.6834
  101SAPE   C2610208   1.216   2.975   7.467  0.1538 -0.4246 -0.3974
  101SAPE   H6R10209   1.117   3.022   7.454 -1.1055 -2.2691  1.7389
  101SAPE   C2710210   1.244   2.871   7.363 -0.7595 -0.2059 -0.1633
  101SAPE   H7R10211   1.150   2.819   7.337  0.4499 -2.1600 -0.8358
  101SAPE   H7S10212   1.310   2.792   7.405  0.5372 -0.5604 -2.6876
  101SAPE   C2810213   1.308   2.920   7.237  0.1366 -0.1027 -0.0344
  101SAPE   H8R10214   1.418   2.910   7.239  0.4192  2.4388  0.8630
  101SAPE   C2910215   1.249   2.943   7.116 -0.0720 -0.5856 -0.5403
  101SAPE   H9R10216   1.310   2.973   7.030  2.7061  0.8768  1.7860
  101SAPE  C21010217   1.104   2.943   7.083 -0.5000 -0.4544  0.2151
  101SAPE  H10R10218   1.049   2.934   7.180 -3.2607 -1.8971 -1.3549
  101SAPE  H10S10219   1.086   2.854   7.019  1.6223  0.2526 -1.4909
  101SAPE  C21110220   1.055   3.066   7.011  0.9773  0.0120  0.0272
  101SAPE  H11R10221   1.129   3.094   6.935  0.9744 -2.6655 -1.0783
  101SAPE  C21210222   0.933   3.122   7.012 -0.0065 -0.6010 -0.0992
  101SAPE  H12R10223   0.912   3.211   6.951  1.4387 -1.0715 -1.3516
  101SAPE  C21310224   0.817   3.071   7.096 -0.5441  0.1705  0.8277
  101SAPE  H13R10225   0.819   2.960   7.090  0.8087  0.2225 -0.0606
  101SAPE  H13S10226   0.720   3.098   7.049 -0.8615 -0.6793  0.9815
  101SAPE  C21410227   0.820   3.134   7.230  0.9975  0.0764 -0.3929
  101SAPE  H14R10228   0.833   3.243   7.217 -2.0473  0.4866 -0.8696
  101SAPE  C21510229   0.784   3.090   7.354 -0.3957 -0.2542 -0.0356
  101SAPE  H15R10230   0.810   3.165   7.430  0.7547 -1.6265  0.9852
  101SAPE  C21610231   0.736   2.948   7.388 -0.1805  0.7882 -0.8612
  101SAPE  H16R10232   0.773   2.882   7.307  2.0702 -2.1860  2.2761
  101SAPE  H16S10233   0.625   2.954   7.396 -0.0144  3.4935  0.8583
  101SAPE  C21710234   0.810   2.895   7.517  0.1758  0.2466  0.5003
  101SAPE  H17R10235   0.780   2.934   7.617  0.1797 -4.4234  2.5655
  101SAPE  H17S10236   0.919   2.918   7.507  0.7531 -0.8967  3.2400
  101SAPE  C21810237   0.800   2.742   7.536 -0.0292  0.4400  0.0338
  101SAPE  H18R10238   0.692   2.715   7.528 -0.0359  0.7185 -1.0534
  101SAPE  H18S10239   0.830   2.730   7.642  3.1332  3.7395 -0.2882
  101SAPE  C21910240   0.880   2.659   7.437 -0.5983  0.0772 -0.5391
  101SAPE  H19R10241   0.988   2.680   7.447  0.0711 -1.2906 -3.6037
  101SAPE  H19S10242   0.852   2.693   7.335 -1.2915  1.5374  0.1001
  101SAPE  C22010243   0.855   2.508   7.457  0.7093  0.3036 -0.3034
  101SAPE  H20R10244   0.746   2.494   7.449  0.7350 -0.5211  0.6609
  101SAPE  H20S10245   0.899   2.477   7.554  1.6855  1.3161 -0.4011
  101SAPE  H20T10246   0.897   2.459   7.367  0.4353 -0.3884 -0.0574
  101SAPE   C3310247   2.031   3.174   7.447 -0.2667 -0.0562  0.1933
  101SAPE   H3X10248   2.048   3.067   7.471 -1.9704 -0.5947 -0.7832
  101SAPE   H3Y10249   2.130   3.219   7.467  0.1344  0.1661 -2.0122
  101SAPE   C3410250   1.986   3.189   7.306  0.0989 -0.6973 -0.3683
  101SAPE   H4X10251   1.882   3.151   7.311  0.0078 -0.3264  0.8019
  101SAPE   H4Y10252   2.051   3.130   7.237 -1.2308 -0.1592 -2.1611
  101SAPE   C3510253   1.993   3.326   7.245  0.2435  0.4371 -0.8039
  101SAPE   H5X10254   2.099   3.358   7.243  0.8537 -1.4983 -1.9065
  101SAPE   H5Y10255   1.920   3.395   7.294 -0.0216  0.0726 -0.6866
  101SAPE   C3610256   1.950   3.330   7.100 -0.5467  0.1775  0.4349
  101SAPE   H6X10257   1.839   3.342   7.099 -0.5678 -0.0526 -0.5425
  101SAPE   H6Y10258   1.980   3.246   7.035  2.2444  0.4230  1.2896
  101SAPE   C3710259   2.013   3.461   7.034  0.1480  0.0134 -0.5283
  101SAPE   H7X10260   2.119   3.441   7.009  0.9729  2.0239  1.0662
  101SAPE   H7Y10261   2.005   3.547   7.104  2.7805  0.0694 -0.2180
  101SAPE   C3810262   1.933   3.510   6.911 -0.1914  0.5365 -0.4239
  101SAPE   H8X10263   1.839   3.555   6.950  1.0325  1.2486  1.8592
  101SAPE   H8Y10264   1.903   3.432   6.838 -0.6896 -1.4654  1.7968
  101SAPE   C3910265   2.018   3.612   6.843  0.3742  0.0370  0.3097
  101SAPE   H9X10266   2.127   3.589   6.840  0.2304 -1.0164  1.8458
  101SAPE   H9Y10267   2.010   3.704   6.905  0.8430 -0.5223  1.2342
  101SAPE  C31010268   1.957   3.643   6.705 -0.0067 -0.3537 -0.2667
  101SAPE  H10X10269   1.969   3.750   6.677 -1.9691  0.5094  1.9232
  101SAPE  H10Y10270   1.848   3.634   6.723  0.1942 -0.2407  1.0608
  101SAPE  C31110271   2.009   3.544   6.591 -0.3993  0.3971  0.1752
  101SAPE  H11X10272   2.023   3.448   6.645  1.4781  0.7853  0.4336
  101SAPE  H11Y10273   2.111   3.582   6.569 -0.5889  0.9524  0.2341
  101SAPE  C31210274   1.901   3.551   6.475 -0.3710  0.1517 -0.7504
  101SAPE  H12X10275   1.904   3.657   6.443  0.9035  0.9345  1.6401
  101SAPE  H12Y10276   1.801   3.519   6.512 -0.4406  1.1390 -0.0466
  101SAPE  C31310277   1.937   3.462   6.355 -1.1460 -0.7663  0.1405
  101SAPE  H13X10278   1.951   3.360   6.398  2.2713 -0.0298  1.1277
  101SAPE  H13Y10279   2.043   3.492   6.341 -0.6898 -1.9446  0.8693
  101SAPE  C31410280   1.850   3.480   6.231  0.3092 -0.3092  0.2867
  101SAPE  H14X10281   1.871   3.572   6.173 -2.6351  1.9488  2.4784
  101SAPE  H14Y10282   1.745   3.493   6.264  0.0854 -0.8111 -0.2027
  101SAPE  C31510283   1.854   3.357   6.135  0.5396 -0.4621 -0.2466
  101SAPE  H15X10284   1.956   3.333   6.101  0.2436  0.5676 -1.9940
  101SAPE  H15Y10285   1.791   3.384   6.047  0.0992  1.6853  0.6471
  101SAPE  C31610286   1.787   3.237   6.193  0.0925  0.0262 -0.9930
  101SAPE  H16X10287   1.677   3.245   6.188  0.1094 -0.1960 -1.7735
  101SAPE  H16Y10288   1.810   3.231   6.302  2.3708 -0.4169 -1.4513
  101SAPE  C31710289   1.818   3.098   6.124  0.0017 -1.2383 -0.4035
  101SAPE  H17X10290   1.798   3.019   6.199 -0.4606 -0.7659 -0.0257
  101SAPE  H17Y10291   1.928   3.093   6.109  0.5672  3.0567  1.0286
  101SAPE  C31810292   1.739   3.067   5.995  0.0045  0.1633  1.0201
  101SAPE  H18X10293   1.632   3.092   6.011  0.6216  2.4324  1.8883
  101SAPE  H18Y10294   1.757   2.958   5.982  0.6897  0.5374 -1.6310
  101SAPE  H18Z10295   1.769   3.126   5.906 -1.9555  0.2685  0.3824
  102SAPE     N10296   6.296   2.375   8.529  0.6421 -0.2474  0.5254
  102SAPE   HN110297   6.378   2.389   8.591  1.0058  1.3166 -0.2581
  102SAPE   HN210298   6.237   2.311   8.587  1.7796 -0.3460  1.6131
  102SAPE   HN310299   6.333   2.333   8.442  2.9473 -0.1858  1.3968
  102SAPE   C1210300   6.218   2.496   8.480 -0.2826  0.2436  0.0819
  102SAPE  H12A10301   6.195   2.561   8.567  0.5696  0.3950  0.2108
  102SAPE  H12B10302   6.128   2.465   8.424 -1.0191  1.4818  0.5524
  102SAPE   C1110303   6.304   2.581   8.387  0.7316  0.0901  0.4438
  102SAPE  H11A10304   6.250   2.678   8.391  0.6484  0.0142  1.3138
  102SAPE  H11B10305   6.281   2.547   8.284 -2.1741 -2.1176  1.6664
  102SAPE     P10306   6.528   2.698   8.363  0.1930  0.3901  0.2650
  102SAPE   O1310307   6.473   2.825   8.409  0.0686 -0.7601  0.4451
  102SAPE   O1410308   6.668   2.664   8.404 -0.1840  0.4670 -0.2110
  102SAPE   O1210309   6.441   2.581   8.420  0.2163  0.5108  0.3072
  102SAPE   O1110310   6.516   2.679   8.210  0.4313 -0.3650 -0.2133
  102SAPE    C110311   6.524   2.547   8.155 -0.1985  0.2169  0.5807
  102SAPE    HA10312   6.549   2.470   8.231 -0.0999  1.9608  2.4075
  102SAPE    HB10313   6.428   2.524   8.105 -1.1663  2.1837  1.4283
  102SAPE    C210314   6.636   2.534   8.052 -0.3688 -0.5891 -0.2189
  102SAPE    HS10315   6.718   2.574   8.115  1.6457 -2.4074 -1.5325
  102SAPE   O2110316   6.611   2.630   7.953 -0.5003  0.8753 -0.2250
  102SAPE   C2110317   6.716   2.683   7.896 -0.4278  0.4533  0.5259
  102SAPE   O2210318   6.833   2.669   7.933  0.6039  0.2772  0.2152
  102SAPE   C2210319   6.664   2.776   7.792  0.2187  0.5042 -0.0142
  102SAPE   H2R10320   6.582   2.720   7.742  1.2273 -0.8406 -0.2020
  102SAPE   H2S10321   6.610   2.851   7.854 -1.0112  0.5911 -1.1488
  102SAPE    C310322   6.662   2.394   7.997 -0.1436 -0.4871  0.2755
  102SAPE    HX10323   6.565   2.352   7.963  0.5238 -1.4640 -0.4829
  102SAPE    HY10324   6.704   2.324   8.072  0.4669 -1.8619 -1.2923
  102SAPE   O3110325   6.745   2.396   7.879  0.1256 -0.5359 -0.3349
  102SAPE   C3110326   6.874   2.389   7.907 -0.5807 -0.4495  0.2376
  102SAPE   O3210327   6.922   2.399   8.018 -0.5053 -0.1343 -0.3713
  102SAPE   C3210328   6.952   2.376   7.774  0.5014  0.1327 -0.5435
  102SAPE   H2X10329   6.886   2.405   7.689  2.4260 -1.6370 -2.7828
  102SAPE   H2Y10330   6.991   2.273   7.759  0.4603 -0.2381  1.6553
  102SAPE   C2310331   6.768   2.834   7.695 -0.4636  0.2044 -1.1369
  102SAPE   H3R10332   6.859   2.866   7.750 -0.9548 -0.1185 -0.1080
  102SAPE   H3S10333   6.725   2.924   7.645  1.7951 -0.2883 -4.3203
  102SAPE   C2410334   6.814   2.744   7.574 -0.1303  0.0325  0.4988
  102SAPE   H4R10335   6.856   2.651   7.617 -1.1938  0.6775  3.1206
  102SAPE   H4S10336   6.899   2.788   7.517  1.0396  0.7534  2.6755
  102SAPE   C2510337   6.696   2.720   7.483 -0.0408  0.1351 -0.2516
  102SAPE   H5R10338   6.600   2.740   7.534  0.7892  0.1556  1.3514
  102SAPE   C2610339   6.687   2.695   7.354  0.2573  0.3723 -0.0506
  102SAPE   H6R10340   6.590   2.686   7.303  0.3363  2.3402 -0.6155
  102SAPE   C2710341   6.803   2.682   7.264 -0.3498  0.2869 -0.2942
  102SAPE   H7R10342   6.861   2.776   7.278 -1.5225  1.1212 -0.9119
  102SAPE   H7S10343   6.771   2.676   7.158  1.1187 -0.3454 -0.7293
  102SAPE   C2810344   6.886   2.554   7.290  0.1866  1.1789  0.0783
  102SAPE   H8R10345   6.887   2.514   7.392 -0.5902 -0.2638 -0.4558
  102SAPE   C2910346   6.938   2.476   7.196 -0.1217 -0.0577  0.3230
  102SAPE   H9R10347   6.993   2.387   7.231  0.9747  0.2958 -0.4247
  102SAPE  C21010348   6.946   2.495   7.044 -0.4087 -0.2921 -0.4472
  102SAPE  H10R10349   7.011   2.583   7.025 -1.4941  0.4402 -0.8513
  102SAPE  H10S10350   6.842   2.514   7.010 -1.1472 -2.3678  0.4602
  102SAPE  C21110351   6.994   2.368   6.972 -0.1455 -0.4780 -0.6690
  102SAPE  H11R10352   6.976   2.274   7.026  3.4178 -0.6526  0.4716
  102SAPE  C21210353   7.077   2.359   6.872  0.3574  0.3744  0.1192
  102SAPE  H12R10354   7.095   2.261   6.825  1.3299 -0.4796  2.1639
  102SAPE  C21310355   7.136   2.474   6.794 -0.8917 -0.1870  0.0097
  102SAPE  H13R10356   7.239   2.457   6.755  1.1096  1.9602  3.7294
  102SAPE  H13S10357   7.168   2.551   6.867 -0.8567  1.8900 -2.0785
  102SAPE  C21410358   7.055   2.556   6.693  0.4449  0.7830  0.1426
  102SAPE  H14R10359   6.970   2.606   6.741  0.0685  1.2765 -1.0056
  102SAPE  C21510360   7.076   2.566   6.562 -0.2731 -0.2722  0.2007
  102SAPE  H15R10361   7.018   2.631   6.496  1.4420 -0.6138 -1.7407
  102SAPE  C21610362   7.191   2.500   6.482  0.6604 -0.6002 -0.3496
  102SAPE  H16R10363   7.156   2.463   6.384 -0.4224  1.1563 -0.6635
  102SAPE  H16S10364   7.231   2.415   6.542  1.5602 -2.5192 -3.4266
  102SAPE  C21710365   7.313   2.599   6.462 -0.4675 -0.9615 -0.3135
  102SAPE  H17R10366   7.401   2.542   6.428 -0.8445 -0.3353 -2.4854
  102SAPE  H17S10367   7.336   2.650   6.559  0.1173  0.5141 -1.1961
  102SAPE  C21810368   7.291   2.703   6.354 -0.2791 -0.0625  0.0913
  102SAPE  H18R10369   7.184   2.732   6.358 -0.9731 -2.5319  1.2607
  102SAPE  H18S10370   7.329   2.671   6.255 -2.7487  3.2347 -2.1526
  102SAPE  C21910371   7.350   2.841   6.382  0.5440  0.4030 -0.7246
  102SAPE  H19R10372   7.456   2.807   6.388  0.1757 -1.1409 -2.1816
  102SAPE  H19S10373   7.328   2.887   6.481  2.7439  1.3466 -0.5865
  102SAPE  C22010374   7.324   2.941   6.280 -0.0584  0.0948  0.5106
  102SAPE  H20R10375   7.217   2.972   6.277 -0.0624  0.0399 -0.7812
  102SAPE  H20S10376   7.353   2.907   6.178 -0.2392  1.3552  0.0214
  102SAPE  H20T10377   7.373   3.038   6.297  1.1467 -0.0528 -1.7710
  102SAPE   C3310378   7.068   2.469   7.787  0.0943  0.4645 -0.1502
  102SAPE   H3X10379   7.134   2.431   7.868 -0.0258 -1.8797 -1.0758
  102SAPE   H3Y10380   7.047   2.577   7.803  0.4181  0.5660 -0.4043
  102SAPE   C3410381   7.161   2.451   7.667  0.2008  0.2839 -0.0677
  102SAPE   H4X10382   7.158   2.347   7.631  1.4695 -0.7009  2.3840
  102SAPE   H4Y10383   7.267   2.451   7.702  0.0873  2.5667  0.4957
  102SAPE   C3510384   7.146   2.551   7.554 -1.1516  0.2485 -0.4856
  102SAPE   H5X10385   7.152   2.656   7.590  0.3211  0.3144 -0.8667
  102SAPE   H5Y10386   7.053   2.537   7.494 -0.2225 -0.5842 -1.7695
  102SAPE   C3610387   7.269   2.561   7.456 -0.4113  0.5979 -0.5094
  102SAPE   H6X10388   7.275   2.469   7.393  0.9313 -0.1195  0.5982
  102SAPE   H6Y10389   7.370   2.554   7.501  0.5178 -0.2296 -2.6224
  102SAPE   C3710390   7.280   2.694   7.379 -0.5797 -0.7930  0.2720
  102SAPE   H7X10391   7.285   2.782   7.447 -0.6608  1.7467 -2.7635
  102SAPE   H7Y10392   7.186   2.712   7.324  0.0522  0.0289 -0.5700
  102SAPE   C3810393   7.399   2.691   7.283 -0.2679 -0.2836 -0.1610
  102SAPE   H8X10394   7.489   2.657   7.340  0.4040  0.3119 -0.8343
  102SAPE   H8Y10395   7.419   2.798   7.257 -0.2321 -0.3550 -0.4281
  102SAPE   C3910396   7.367   2.630   7.145 -0.5400  0.2895 -0.4919
  102SAPE   H9X10397   7.301   2.700   7.090 -0.0175  1.2946  0.1285
  102SAPE   H9Y10398   7.324   2.528   7.150  0.8178 -0.3360 -0.9911
  102SAPE  C31010399   7.508   2.632   7.069 -0.0198  0.4915 -0.0921
  102SAPE  H10X10400   7.579   2.567   7.123 -0.7695 -0.9896 -0.8209
  102SAPE  H10Y10401   7.545   2.737   7.074 -0.3962  0.5824  0.9107
  102SAPE  C31110402   7.496   2.583   6.927  0.2571  0.6230  0.2042
  102SAPE  H11X10403   7.429   2.654   6.874  0.0303  0.7442  0.6516
  102SAPE  H11Y10404   7.470   2.475   6.924  0.9038  0.4850 -1.9036
  102SAPE  C31210405   7.635   2.593   6.851  0.2765 -0.1646  0.3712
  102SAPE  H12X10406   7.629   2.532   6.758  0.5555 -1.2235  1.0262
  102SAPE  H12Y10407   7.714   2.548   6.915 -1.9062  2.2684  5.2848
  102SAPE  C31310408   7.676   2.735   6.826 -0.0633 -0.5551 -0.4290
  102SAPE  H13X10409   7.775   2.733   6.777 -0.3368 -1.8376 -0.9726
  102SAPE  H13Y10410   7.683   2.791   6.922 -2.3999 -0.0858 -0.4689
  102SAPE  C31410411   7.601   2.827   6.733  0.0596  0.6584 -0.7565
  102SAPE  H14X10412   7.494   2.844   6.755  0.4826  2.6751 -0.0110
  102SAPE  H14Y10413   7.601   2.774   6.635 -0.4254  0.0785 -0.4444
  102SAPE  C31510414   7.663   2.967   6.717 -0.3251  0.9094 -0.8918
  102SAPE  H15X10415   7.661   3.025   6.811 -2.1011 -0.3117 -0.1272
  102SAPE  H15Y10416   7.590   3.024   6.655 -0.3745  0.4698 -1.2441
  102SAPE  C31610417   7.805   2.987   6.661  0.1168 -0.3973 -0.3766
  102SAPE  H16X10418   7.882   2.954   6.734 -1.2834  0.0247  1.3848
  102SAPE  H16Y10419   7.822   3.094   6.636  1.9924 -1.1802 -2.8530
  102SAPE  C31710420   7.827   2.917   6.520  0.5476  0.1339 -1.0846
  102SAPE  H17X10421   7.757   2.831   6.534 -1.3081  1.9343  1.7385
  102SAPE  H17Y10422   7.932   2.882   6.522  0.1438 -1.1119 -0.1261
  102SAPE  C31810423   7.791   3.008   6.399 -0.1518 -0.2293 -0.1860
  102SAPE  H18X10424   7.682   3.033   6.402 -0.0108  0.3726  0.0020
  102SAPE  H18Y10425   7.820   2.955   6.306  1.3954  0.9739 -0.4287
  102SAPE  H18Z10426   7.842   3.107   6.406 -1.4265  0.6861 -2.5754
  103SAPE     N10427   1.079   5.548   3.785 -0.0541 -0.3540 -0.3762
  103SAPE   HN110428   1.040   5.642   3.766  0.1571 -0.4463 -1.3476
  103SAPE   HN210429   1.019   5.492   3.849  0.7340 -1.2571 -0.3989
  103SAPE   HN310430   1.174   5.560   3.826 -0.1246 -0.2493 -0.2417
  103SAPE   C1210431   1.096   5.482   3.651  0.2594  0.0451 -0.1303
  103SAPE  H12A10432   1.129   5.377   3.665 -0.8701 -0.1629  1.1855
  103SAPE  H12B10433   1.171   5.546   3.600 -0.3156  0.4465 -0.4844
  103SAPE   C1110434   0.968   5.471   3.575  0.0889 -0.3058  0.0342
  103SAPE  H11A10435   0.994   5.436   3.473  0.4253 -2.5863  0.8463
  103SAPE  H11B10436   0.915   5.569   3.571 -2.0887 -1.1190  3.4905
  103SAPE     P10437   0.773   5.281   3.567 -0.3622 -0.2287  0.3285
  103SAPE   O1310438   0.640   5.297   3.629 -0.4332  0.0306  0.2228
  103SAPE   O1410439   0.773   5.294   3.419 -0.3200 -0.6936 -0.5059
  103SAPE   O1210440   0.875   5.384   3.642 -0.2543 -0.1100 -0.6241
  103SAPE   O1110441   0.839   5.142   3.599 -0.3179 -0.2796 -0.5417
  103SAPE    C110442   0.924   5.125   3.718 -0.6470 -0.1869 -0.1271
  103SAPE    HA10443   0.979   5.029   3.710  2.9251  1.4246  2.1982
  103SAPE    HB10444   1.013   5.191   3.724  0.9279 -2.0204 -1.7210
  103SAPE    C210445   0.846   5.121   3.857  1.0425 -0.0343 -0.1199
  103SAPE    HS10446   0.773   5.204   3.868 -0.8165 -1.8314  2.6621
  103SAPE   O2110447   0.936   5.129   3.965  0.2920  0.0307 -0.1635
  103SAPE   C2110448   0.994   5.241   3.995 -0.1985  0.0389 -0.2723
  103SAPE   O2210449   0.975   5.343   3.933 -0.3945 -0.1379 -0.0369
  103SAPE   C2210450   1.072   5.237   4.128  0.5613  0.1880 -0.2578
  103SAPE   H2R10451   1.104   5.133   4.150 -0.7026  0.5037  3.7956
  103SAPE   H2S10452   1.169   5.286   4.106  1.5761 -2.2193 -1.6004
  103SAPE    C310453   0.764   4.995   3.874  0.1164  0.1616  0.3349
  103SAPE    HX10454   0.840   4.917   3.851 -1.1826 -0.8382 -0.7171
  103SAPE    HY10455   0.687   5.003   3.794 -0.0405  1.0036  0.5574
  103SAPE   O3110456   0.693   4.979   4.001 -0.2846 -0.1043  0.5158
  103SAPE   C3110457   0.698   4.861   4.055  0.3521  0.0076 -0.2646
  103SAPE   O3210458   0.743   4.758   4.005  0.0861  0.1950 -0.0823
  103SAPE   C3210459   0.624   4.863   4.187  0.2694 -0.2444 -0.0686
  103SAPE   H2X10460   0.521   4.833   4.160 -0.3703  1.8752 -0.1381
  103SAPE   H2Y10461   0.622   4.968   4.225  0.3063  0.1128 -1.0439
  103SAPE   C2310462   1.015   5.301   4.259  0.3786 -0.5677  0.4537
  103SAPE   H3R10463   0.959   5.394   4.236  1.0302  0.3264  2.3111
  103SAPE   H3S10464   1.094   5.332   4.331  2.1960  1.2971 -2.1680
  103SAPE   C2410465   0.911   5.215   4.331 -0.1639  0.0845 -0.1415
  103SAPE   H4R10466   0.969   5.123   4.354  0.0857  0.0246 -0.9903
  103SAPE   H4S10467   0.836   5.194   4.251  2.3342 -0.2718 -2.5156
  103SAPE   C2510468   0.850   5.289   4.446  0.1506 -0.2936 -0.3275
  103SAPE   H5R10469   0.771   5.357   4.412  0.1584 -0.3872 -0.5373
  103SAPE   C2610470   0.873   5.287   4.581 -0.1267  0.0400 -0.2321
  103SAPE   H6R10471   0.814   5.355   4.644  0.5341  1.1954 -0.8190
  103SAPE   C2710472   0.959   5.187   4.662  0.0467  0.8957  0.3731
  103SAPE   H7R10473   1.008   5.246   4.743 -2.4270  2.2034  1.0168
  103SAPE   H7S10474   1.037   5.139   4.600 -3.4584 -3.9936 -0.8836
  103SAPE   C2810475   0.879   5.070   4.721  0.0416  0.2062  0.7259
  103SAPE   H8R10476   0.788   5.054   4.661  0.0295  1.6431  0.3298
  103SAPE   C2910477   0.892   5.007   4.844  0.8209 -0.7206  0.0440
  103SAPE   H9R10478   0.820   4.929   4.872 -1.0388  0.6718 -0.6375
  103SAPE  C21010479   0.991   5.031   4.955  0.0070  0.2953 -0.7884
  103SAPE  H10R10480   0.946   5.098   5.031  1.9180  0.6866  0.0600
  103SAPE  H10S10481   1.078   5.096   4.930  0.7786 -0.7131 -0.7678
  103SAPE  C21110482   1.035   4.903   5.028 -0.2411 -0.3801 -0.1291
  103SAPE  H11R10483   1.133   4.874   4.987 -0.3274  1.6278 -1.9021
  103SAPE  C21210484   0.993   4.843   5.139 -0.4317  0.0116 -0.2514
  103SAPE  H12R10485   1.045   4.756   5.181  1.9947  1.3069 -0.4109
  103SAPE  C21310486   0.870   4.892   5.220  0.0501 -0.5685  0.0478
  103SAPE  H13R10487   0.831   4.817   5.292  0.7034  1.5938  2.8319
  103SAPE  H13S10488   0.800   4.913   5.137 -1.7327 -0.0289  1.6076
  103SAPE  C21410489   0.899   5.021   5.305 -0.1091  0.3720  0.3930
  103SAPE  H14R10490   0.819   5.094   5.287 -1.4592 -1.2480 -0.4299
  103SAPE  C21510491   0.996   5.038   5.401 -0.0464 -0.0548  0.2495
  103SAPE  H15R10492   0.991   5.139   5.444  0.9961  0.5750 -1.0313
  103SAPE  C21610493   1.103   4.945   5.451  0.2236 -0.1655  0.4971
  103SAPE  H16R10494   1.192   4.978   5.393 -0.0911 -0.5095 -0.2006
  103SAPE  H16S10495   1.080   4.840   5.423 -1.9108  0.6920 -1.3785
  103SAPE  C21710496   1.116   4.951   5.602  0.1447  0.7858 -0.3055
  103SAPE  H17R10497   1.088   5.052   5.638 -1.8587 -0.5826  2.4114
  103SAPE  H17S10498   1.217   4.921   5.638 -1.0209 -2.0068  0.9780
  103SAPE  C21810499   1.015   4.870   5.682  0.0411  0.9288  0.4394
  103SAPE  H18R10500   1.016   4.760   5.665  1.5212  1.0743 -0.5798
  103SAPE  H18S10501   0.914   4.901   5.650  0.3406  0.1758 -1.3405
  103SAPE  C21910502   1.035   4.892   5.835  0.8865  0.4027 -0.2822
  103SAPE  H19R10503   1.015   4.998   5.862 -2.8247 -0.5487  1.3633
  103SAPE  H19S10504   1.129   4.850   5.877 -0.0830  0.4409  2.0846
  103SAPE  C22010505   0.920   4.818   5.903  0.2396 -0.5177 -0.0294
  103SAPE  H20R10506   0.921   4.715   5.861  1.9572 -0.2158 -0.8274
  103SAPE  H20S10507   0.825   4.871   5.882  1.2104  0.4220 -2.5158
  103SAPE  H20T10508   0.933   4.812   6.013 -2.1103  0.0120  0.3258
  103SAPE   C3310509   0.684   4.769   4.298  0.5153 -0.6219 -0.2842
  103SAPE   H3X10510   0.788   4.802   4.315 -0.1118  1.6884 -0.6053
  103SAPE   H3Y10511   0.680   4.664   4.263  2.8753  0.1556 -3.3140
  103SAPE   C3410512   0.615   4.776   4.439  0.1860  0.1939 -0.0523
  103SAPE   H4X10513   0.509   4.743   4.447  0.4281 -0.2838  1.6040
  103SAPE   H4Y10514   0.632   4.884   4.459  0.3821  0.1222  0.1670
  103SAPE   C3510515   0.690   4.700   4.543 -0.7269  0.3371 -0.2206
  103SAPE   H5X10516   0.795   4.737   4.542  0.1255 -1.8089  1.7333
  103SAPE   H5Y10517   0.690   4.594   4.509  0.9029  0.3889 -0.4488
  103SAPE   C3610518   0.622   4.712   4.681 -0.0031 -0.2935  0.5568
  103SAPE   H6X10519   0.528   4.655   4.669  1.0085 -1.5270 -2.6963
  103SAPE   H6Y10520   0.598   4.819   4.697 -1.5017 -0.0384 -2.6224
  103SAPE   C3710521   0.703   4.646   4.786  0.0452  0.1399 -0.3457
  103SAPE   H7X10522   0.803   4.694   4.781 -0.2256  0.5871 -1.9693
  103SAPE   H7Y10523   0.723   4.540   4.757 -0.9381 -0.3041  0.5504
  103SAPE   C3810524   0.650   4.652   4.927  0.5496  0.3535  0.5476
  103SAPE   H8X10525   0.546   4.615   4.942 -0.0186  1.0024 -1.3773
  103SAPE   H8Y10526   0.646   4.757   4.964 -0.7384  0.4369  0.2306
  103SAPE   C3910527   0.727   4.560   5.026  0.6947  0.3427 -0.5613
  103SAPE   H9X10528   0.831   4.597   5.038  0.7928 -0.5706  2.1520
  103SAPE   H9Y10529   0.714   4.462   4.975 -2.2857 -0.0532  0.7490
  103SAPE  C31010530   0.663   4.555   5.165 -0.2286  0.2699 -0.7431
  103SAPE  H10X10531   0.553   4.546   5.146  0.0440 -0.6046 -2.0142
  103SAPE  H10Y10532   0.685   4.651   5.216 -0.2972 -0.0913 -0.0185
  103SAPE  C31110533   0.702   4.432   5.247  0.7224 -0.7098 -0.4997
  103SAPE  H11X10534   0.808   4.415   5.276  0.0201 -0.1147  2.8124
  103SAPE  H11Y10535   0.664   4.345   5.188 -0.4218 -0.6019  0.0563
  103SAPE  C31210536   0.639   4.417   5.389 -0.1510 -0.5554 -0.8242
  103SAPE  H12X10537   0.674   4.502   5.452 -1.3938 -1.0054  0.5141
  103SAPE  H12Y10538   0.669   4.327   5.446 -0.6390  0.3789  1.0024
  103SAPE  C31310539   0.484   4.434   5.395 -0.0309  0.2115 -0.0031
  103SAPE  H13X10540   0.424   4.368   5.329 -2.7615  0.3617  2.1456
  103SAPE  H13Y10541   0.459   4.537   5.360  0.2364  0.4908  0.6072
  103SAPE  C31410542   0.420   4.418   5.533  0.7274  0.1535  0.0077
  103SAPE  H14X10543   0.468   4.333   5.585  0.5837  1.9797  3.4117
  103SAPE  H14Y10544   0.312   4.396   5.519  1.0921 -0.8180 -1.5072
  103SAPE  C31510545   0.429   4.543   5.623  0.1327  0.1833  0.1937
  103SAPE  H15X10546   0.404   4.635   5.565 -1.3076 -0.1149  0.3020
  103SAPE  H15Y10547   0.534   4.572   5.643  0.5018  0.3799 -1.8280
  103SAPE  C31610548   0.359   4.538   5.752  0.4092 -0.0127 -0.7692
  103SAPE  H16X10549   0.389   4.445   5.805  1.4176 -0.3563 -1.8954
  103SAPE  H16Y10550   0.252   4.511   5.737  0.7823 -0.2615 -3.5904
  103SAPE  C31710551   0.367   4.672   5.829 -0.2595 -0.7756  0.0712
  103SAPE  H17X10552   0.311   4.662   5.924  1.1631  3.7318  1.6448
  103SAPE  H17Y10553   0.309   4.745   5.768  0.3900  0.7617  1.2260
  103SAPE  C31810554   0.501   4.724   5.873  0.6175 -0.4545 -0.3105
  103SAPE  H18X10555   0.499   4.817   5.935 -1.9400 -1.6734  1.6399
  103SAPE  H18Y10556   0.561   4.749   5.783  0.1271 -1.4348 -0.9125
  103SAPE  H18Z10557   0.552   4.646   5.934  1.8525  1.5089  1.3138
  104SAPE     N10558   2.155   5.592   3.862  0.4961 -0.0314  0.3706
  104SAPE   HN110559   2.164   5.509   3.799  0.0780 -0.8127  1.3189
  104SAPE   HN210560   2.249   5.634   3.876  0.5744  0.5360 -1.5666
  104SAPE   HN310561   2.125   5.573   3.959  2.5589  0.0069  1.0580
  104SAPE   C1210562   2.076   5.711   3.803 -0.1552 -0.2369 -1.2713
  104SAPE  H12A10563   1.966   5.691   3.803  0.0232 -1.4368  0.4353
  104SAPE  H12B10564   2.109   5.721   3.698 -2.1411  2.3142 -1.7356
  104SAPE   C1110565   2.099   5.835   3.892 -0.5558  0.3560 -0.5827
  104SAPE  H11A10566   2.084   5.816   4.001  0.7842 -0.0368 -0.4503
  104SAPE  H11B10567   2.034   5.914   3.851 -0.5048  0.3937 -0.5910
  104SAPE     P10568   2.301   6.013   3.846  0.2001 -0.6493 -0.1133
  104SAPE   O1310569   2.418   5.997   3.760  0.4547 -0.3158 -0.0893
  104SAPE   O1410570   2.200   6.113   3.807  0.1431  0.3553 -0.0248
  104SAPE   O1210571   2.238   5.875   3.876 -0.1255  0.3524 -0.0661
  104SAPE   O1110572   2.358   6.059   3.988 -0.3961 -0.0460  0.3140
  104SAPE    C110573   2.276   6.104   4.094  0.5383  0.0376 -0.3101
  104SAPE    HA10574   2.275   6.214   4.085  0.1284 -0.1374 -3.8708
  104SAPE    HB10575   2.168   6.084   4.081  0.4854  0.8265 -1.1558
  104SAPE    C210576   2.332   6.071   4.238  0.0341 -0.7584 -0.3179
  104SAPE    HS10577   2.434   6.114   4.252  0.2049 -0.8891 -1.1158
  104SAPE   O2110578   2.335   5.926   4.257  0.1512  0.0413 -0.1529
  104SAPE   C2110579   2.441   5.859   4.202 -0.6089  0.3889 -0.5875
  104SAPE   O2210580   2.545   5.909   4.163  0.0906 -0.6006  0.1755
  104SAPE   C2210581   2.415   5.710   4.221 -0.4725  0.0635  0.3744
  104SAPE   H2R10582   2.331   5.701   4.292 -0.3476 -0.0160  0.5124
  104SAPE   H2S10583   2.372   5.673   4.125 -5.1864  0.1204  2.2206
  104SAPE    C310584   2.245   6.131   4.356  0.4753 -0.1063 -0.9060
  104SAPE    HX10585   2.140   6.106   4.331 -0.3745 -0.6552  2.6274
  104SAPE    HY10586   2.244   6.242   4.361  1.9628 -0.1204  2.2959
  104SAPE   O3110587   2.281   6.081   4.483  0.5142 -0.0402 -0.5396
  104SAPE   C3110588   2.194   6.033   4.574  0.5455  0.3620  0.2777
  104SAPE   O3210589   2.075   6.021   4.553  0.5293 -0.4469  0.4155
  104SAPE   C3210590   2.273   5.975   4.693  0.3018  0.2874  0.5508
  104SAPE   H2X10591   2.275   6.057   4.768  1.4312  1.0537 -0.2734
  104SAPE   H2Y10592   2.380   5.962   4.666  0.2110  2.3215 -1.0807
  104SAPE   C2310593   2.541   5.634   4.276 -0.2226 -0.9564  0.7582
  104SAPE   H3R10594   2.623   5.640   4.201 -1.0454  1.2126 -0.0592
  104SAPE   H3S10595   2.518   5.526   4.284  2.0244 -1.7136 -1.5638
  104SAPE   C2410596   2.603   5.685   4.407  0.7604  0.3407  0.3431
  104SAPE   H4R10597   2.522   5.683   4.482  0.1527 -0.7235 -0.3157
  104SAPE   H4S10598   2.626   5.794   4.397 -0.9443  0.6383 -0.6489
  104SAPE   C2510599   2.730   5.614   4.433 -0.1136 -0.2314  0.0368
  104SAPE   H5R10600   2.801   5.612   4.348  1.5625 -0.0731  1.3872
  104SAPE   C2610601   2.766   5.540   4.537 -0.0897  0.5821 -0.7715
  104SAPE   H6R10602   2.866   5.496   4.532 -0.4533 -0.2089 -1.3536
  104SAPE   C2710603   2.688   5.512   4.661 -0.3173  0.5026 -0.5443
  104SAPE   H7R10604   2.689   5.404   4.689 -0.2644  0.8700  0.8960
  104SAPE   H7S10605   2.579   5.532   4.651 -0.1458  0.8459 -2.0609
  104SAPE   C2810606   2.749   5.587   4.776 -0.0919 -0.2196 -0.5307
  104SAPE   H8R10607   2.799   5.683   4.755 -1.7216  1.3481  2.1250
  104SAPE   C2910608   2.754   5.549   4.903  0.8104 -0.2993 -0.3467
  104SAPE   H9R10609   2.809   5.620   4.967  2.5615 -0.2297 -1.8294
  104SAPE  C21010610   2.679   5.424   4.953  0.2150  0.5148 -0.3712
  104SAPE  H10R10611   2.633   5.364   4.871 -0.3012 -0.0123  0.2892
  104SAPE  H10S10612   2.609   5.448   5.036  0.6482  1.8025 -0.3572
  104SAPE  C21110613   2.796   5.337   5.002 -0.1504  0.1805  0.2964
  104SAPE  H11R10614   2.850   5.293   4.917 -0.9123  0.7259 -0.4911
  104SAPE  C21210615   2.852   5.335   5.128 -0.3005 -0.6599  0.2134
  104SAPE  H12R10616   2.942   5.275   5.143 -0.9354 -1.8780 -0.6297
  104SAPE  C21310617   2.804   5.414   5.255 -0.3588  0.3712  0.1310
  104SAPE  H13R10618   2.754   5.507   5.220  2.2843  0.6419 -3.5014
  104SAPE  H13S10619   2.895   5.442   5.313 -0.6862  2.1188 -0.1385
  104SAPE  C21410620   2.708   5.326   5.335 -0.2375  0.1489 -0.1069
  104SAPE  H14R10621   2.637   5.262   5.281 -1.9117 -0.5170  2.7004
  104SAPE  C21510622   2.713   5.296   5.466  0.6798 -0.5168  0.6143
  104SAPE  H15R10623   2.647   5.219   5.507 -2.1340  0.9241 -0.8875
  104SAPE  C21610624   2.803   5.373   5.558  1.1283  0.5496  0.0865
  104SAPE  H16R10625   2.746   5.389   5.651  0.4180  3.6961 -0.7715
  104SAPE  H16S10626   2.843   5.472   5.526  1.3187  0.4731  0.0810
  104SAPE  C21710627   2.923   5.293   5.616  0.4765 -0.7659  0.3541
  104SAPE  H17R10628   2.967   5.350   5.701 -0.9141  0.5243  0.2661
  104SAPE  H17S10629   2.997   5.280   5.534  0.2685 -0.1810  0.0693
  104SAPE  C21810630   2.888   5.155   5.674 -0.0610  0.1597  0.2287
  104SAPE  H18R10631   2.816   5.112   5.600  0.0621  0.1329  0.1246
  104SAPE  H18S10632   2.833   5.181   5.767 -1.1552  0.8194 -0.5647
  104SAPE  C21910633   3.016   5.073   5.706 -0.0171  0.0597 -0.3118
  104SAPE  H19R10634   3.065   5.108   5.800 -0.7862 -2.2339  1.0259
  104SAPE  H19S10635   3.078   5.076   5.614  0.6668 -0.0453  0.1360
  104SAPE  C22010636   2.980   4.922   5.722  0.6881 -0.7748 -0.2906
  104SAPE  H20R10637   3.067   4.859   5.749 -1.0027 -2.3890  1.7582
  104SAPE  H20S10638   2.931   4.898   5.625  0.5599  3.1123 -1.3654
  104SAPE  H20T10639   2.907   4.917   5.805  0.0349  1.3929 -0.6588
  104SAPE   C3310640   2.207   5.855   4.774 -0.2793  0.2112  0.8075
  104SAPE   H3X10641   2.176   5.774   4.704 -3.0560  2.9784 -1.4468
  104SAPE   H3Y10642   2.119   5.897   4.826  1.4319  1.1488  3.1374
  104SAPE   C3410643   2.287   5.809   4.902 -0.5651  0.2841  0.7969
  104SAPE   H4X10644   2.343   5.893   4.949 -1.1275  0.8906  0.3944
  104SAPE   H4Y10645   2.368   5.738   4.874 -1.8503 -1.0920  0.4714
  104SAPE   C3510646   2.205   5.740   5.011  0.5247  0.2796  0.2864
  104SAPE   H5X10647   2.116   5.699   4.958  0.2177  0.5798  0.5700
  104SAPE   H5Y10648   2.162   5.809   5.086 -0.1976  0.0575  0.0950
  104SAPE   C3610649   2.278   5.626   5.087 -0.7362  0.4257  0.0572
  104SAPE   H6X10650   2.387   5.649   5.089  0.0211 -2.5301  3.6102
  104SAPE   H6Y10651   2.271   5.526   5.041  2.7468 -0.3747  0.9864
  104SAPE   C3710652   2.239   5.614   5.233  0.5416 -0.5340  0.1416
  104SAPE   H7X10653   2.177   5.522   5.234 -0.1077 -0.2134 -2.6481
  104SAPE   H7Y10654   2.174   5.697   5.267  1.0003 -0.8422  1.8798
  104SAPE   C3810655   2.356   5.588   5.323  0.1462  0.0538 -0.0352
  104SAPE   H8X10656   2.422   5.677   5.315 -0.6556  0.5702 -1.0527
  104SAPE   H8Y10657   2.420   5.518   5.266  0.2249  1.1602 -1.3494
  104SAPE   C3910658   2.312   5.566   5.465 -0.3899 -0.4905 -0.7022
  104SAPE   H9X10659   2.237   5.484   5.462 -1.3644  0.3972 -1.2891
  104SAPE   H9Y10660   2.259   5.656   5.503 -0.5433 -1.4456  1.4634
  104SAPE  C31010661   2.426   5.540   5.561 -0.8485 -0.1685 -0.7344
  104SAPE  H10X10662   2.491   5.630   5.548  1.4827 -1.4938  0.9214
  104SAPE  H10Y10663   2.477   5.449   5.522  1.7722  0.6216  0.5854
  104SAPE  C31110664   2.386   5.515   5.706  0.2477 -0.0399 -0.6964
  104SAPE  H11X10665   2.318   5.428   5.709 -0.5073  0.5367  2.4377
  104SAPE  H11Y10666   2.334   5.600   5.755 -0.2928 -1.2674  0.9440
  104SAPE  C31210667   2.512   5.475   5.795  0.3160  0.1266  0.3878
  104SAPE  H12X10668   2.557   5.378   5.765  0.1271  0.1742 -0.0565
  104SAPE  H12Y10669   2.470   5.469   5.898 -0.1891 -2.6206  0.0861
  104SAPE  C31310670   2.625   5.583   5.796  0.3395  0.2434  0.4729
  104SAPE  H13X10671   2.581   5.685   5.804 -1.5754 -0.4809 -0.2992
  104SAPE  H13Y10672   2.670   5.582   5.694 -0.4684 -1.1542  0.1149
  104SAPE  C31410673   2.733   5.551   5.898  0.1432  0.0326 -0.3091
  104SAPE  H14X10674   2.768   5.447   5.880 -3.2692 -1.6803  1.8291
  104SAPE  H14Y10675   2.696   5.567   6.001  0.2313 -1.3372 -0.0542
  104SAPE  C31510676   2.849   5.642   5.876 -0.1719  0.0720  0.8457
  104SAPE  H15X10677   2.824   5.749   5.896  0.3360  0.0779  1.4799
  104SAPE  H15Y10678   2.877   5.635   5.769 -0.5962 -2.4412  0.8508
  104SAPE  C31610679   2.984   5.616   5.953 -0.0665  0.0378 -0.7933
  104SAPE  H16X10680   3.056   5.695   5.925 -1.5419  1.8989  0.3494
  104SAPE  H16Y10681   3.028   5.515   5.937 -0.4619 -0.4722  1.0734
  104SAPE  C31710682   2.983   5.642   6.106 -0.5180  0.8274  0.2601
  104SAPE  H17X10683   3.081   5.611   6.148 -0.1748  1.6205  0.0574
  104SAPE  H17Y10684   2.913   5.567   6.149 -0.8612 -1.0830 -3.2555
  104SAPE  C31810685   2.959   5.784   6.148 -0.4152 -0.0733  0.3869
  104SAPE  H18X10686   2.857   5.810   6.112 -0.4859  1.3559  1.5111
  104SAPE  H18Y10687   3.033   5.862   6.120  0.5604 -0.1009  2.6644
  104SAPE  H18Z10688   2.957   5.784   6.259 -0.5531  0.8740  0.3924
  105SAPE     N10689   2.954   4.161   3.597  0.1856  0.3470 -0.0652
  105SAPE   HN110690   3.014   4.227   3.544  1.8574 -1.5531 -0.6771
  105SAPE   HN210691   2.855   4.190   3.586  0.0093  1.0661  2.7186
  105SAPE   HN310692   2.997   4.159   3.691 -0.1575 -3.0574  0.1588
  105SAPE   C1210693   2.979   4.028   3.529 -0.5076  0.9200  0.2532
  105SAPE  H12A10694   2.974   4.047   3.419  1.1887 -1.5524 -0.3382
  105SAPE  H12B10695   2.889   3.966   3.548  2.5483 -3.2571  2.6868
  105SAPE   C1110696   3.100   3.948   3.581  0.0228  0.2073  0.2950
  105SAPE  H11A10697   3.099   3.851   3.526 -2.2395 -0.0551  0.7054
  105SAPE  H11B10698   3.083   3.923   3.688 -0.5189  0.2308  0.2166
  105SAPE     P10699   3.295   4.087   3.675  0.2613  0.0220 -0.1957
  105SAPE   O1310700   3.422   4.136   3.626  0.2766  0.6965 -0.0465
  105SAPE   O1410701   3.208   4.197   3.725  0.8302  0.4460 -0.8392
  105SAPE   O1210702   3.220   4.013   3.558 -0.4914 -0.2844  0.0563
  105SAPE   O1110703   3.309   3.968   3.782  0.7348 -0.2473 -0.1053
  105SAPE    C110704   3.371   3.843   3.770  0.5505 -0.4741  0.3574
  105SAPE    HA10705   3.297   3.762   3.788  2.7017 -2.0846  2.8125
  105SAPE    HB10706   3.418   3.826   3.671 -0.1459  0.7993 -0.2114
  105SAPE    C210707   3.486   3.828   3.875  0.4275 -0.0235  0.0959
  105SAPE    HS10708   3.560   3.753   3.841  1.0287 -0.0984  1.5005
  105SAPE   O2110709   3.437   3.801   4.010 -0.2128 -0.4545 -0.1729
  105SAPE   C2110710   3.408   3.673   4.038  0.1898 -0.3920 -0.4252
  105SAPE   O2210711   3.414   3.575   3.973 -0.5971  0.0971  0.0439
  105SAPE   C2210712   3.361   3.671   4.183 -0.3283  0.2469 -0.7283
  105SAPE   H2R10713   3.452   3.701   4.238  0.2529 -1.3553 -0.7626
  105SAPE   H2S10714   3.270   3.734   4.195 -0.4142  0.2692 -1.4383
  105SAPE    C310715   3.574   3.956   3.886  0.4260 -0.3444  0.5220
  105SAPE    HX10716   3.500   4.036   3.907 -3.1642 -3.1550 -0.3106
  105SAPE    HY10717   3.622   3.972   3.787 -0.3187 -1.1905  0.0063
  105SAPE   O3110718   3.664   3.943   3.990 -0.2351  0.3046 -0.0846
  105SAPE   C3110719   3.774   3.881   3.964  0.0074  0.6145  0.5863
  105SAPE   O3210720   3.804   3.831   3.857 -0.2660 -0.0629  0.0268
  105SAPE   C3210721   3.824   3.832   4.101  0.0215 -0.1943 -0.0214
  105SAPE   H2X10722   3.925   3.788   4.087  0.1168  0.1086 -0.2818
  105SAPE   H2Y10723   3.757   3.745   4.121 -1.0244  0.2624 -1.3695
  105SAPE   C2310724   3.313   3.531   4.237 -1.0423 -0.5929  0.4223
  105SAPE   H3R10725   3.406   3.471   4.228 -0.8138 -0.4765  1.8202
  105SAPE   H3S10726   3.241   3.483   4.168 -0.9935 -0.8414  0.5447
  105SAPE   C2410727   3.246   3.532   4.369  0.7949 -0.0050  0.1361
  105SAPE   H4R10728   3.194   3.435   4.360 -3.5753  2.2554 -2.9324
  105SAPE   H4S10729   3.162   3.605   4.368 -0.0679 -0.9833  0.1990
  105SAPE   C2510730   3.335   3.536   4.486 -0.6760  0.3823  0.4765
  105SAPE   H5R10731   3.417   3.463   4.478  1.1691  2.5065 -1.2022
  105SAPE   C2610732   3.320   3.619   4.590  0.4300  0.3322 -0.3767
  105SAPE   H6R10733   3.385   3.590   4.675  1.5798 -2.1403 -1.9839
  105SAPE   C2710734   3.202   3.709   4.617  0.2735 -0.5246 -0.2318
  105SAPE   H7R10735   3.203   3.727   4.727  0.1711 -0.1655 -0.2918
  105SAPE   H7S10736   3.109   3.658   4.585 -0.9081  0.7282  1.0700
  105SAPE   C2810737   3.218   3.839   4.535 -0.9041 -0.1948 -0.2428
  105SAPE   H8R10738   3.285   3.829   4.449  2.9301 -0.7857  2.5236
  105SAPE   C2910739   3.159   3.962   4.562 -0.0859  0.1670  0.0723
  105SAPE   H9R10740   3.173   4.051   4.500  2.1890 -0.1362  0.0402
  105SAPE  C21010741   3.077   3.991   4.679 -0.7971  0.1642 -0.1961
  105SAPE  H10R10742   3.132   3.964   4.772 -1.4431  0.4955  0.2830
  105SAPE  H10S10743   2.989   3.924   4.670  1.1437 -2.6652  0.3916
  105SAPE  C21110744   3.017   4.129   4.710 -0.2288  0.2905  0.2545
  105SAPE  H11R10745   3.011   4.192   4.620  0.7823 -0.0118 -0.0428
  105SAPE  C21210746   2.990   4.182   4.830  0.0335  1.0684 -0.1481
  105SAPE  H12R10747   2.957   4.286   4.840 -0.8178  0.7272  0.7184
  105SAPE  C21310748   3.000   4.101   4.961 -0.4554 -0.4441 -0.6232
  105SAPE  H13R10749   3.020   3.993   4.946  3.1173 -0.0070  0.1066
  105SAPE  H13S10750   2.908   4.111   5.022 -2.5412 -0.9164 -3.4858
  105SAPE  C21410751   3.111   4.150   5.046  0.1187  0.1348  0.2267
  105SAPE  H14R10752   3.188   4.209   4.994 -0.5078  1.5590  0.8729
  105SAPE  C21510753   3.132   4.125   5.173 -0.1321 -0.2659 -1.1742
  105SAPE  H15R10754   3.222   4.169   5.219  0.3151 -1.1267 -1.1994
  105SAPE  C21610755   3.046   4.037   5.259  0.2655 -0.2444  0.1271
  105SAPE  H16R10756   3.112   3.973   5.321 -0.4395 -1.2655 -0.1506
  105SAPE  H16S10757   2.995   3.964   5.193  0.6499 -1.3140  0.9833
  105SAPE  C21710758   2.940   4.096   5.350 -0.5524  0.5568 -0.6916
  105SAPE  H17R10759   2.875   4.171   5.299 -1.8447 -0.1847 -0.1614
  105SAPE  H17S10760   2.980   4.161   5.431 -2.1078 -0.6119  1.0794
  105SAPE  C21810761   2.848   3.985   5.403 -0.7580 -0.1815  0.4955
  105SAPE  H18R10762   2.906   3.909   5.460 -1.5263  0.4742  2.2394
  105SAPE  H18S10763   2.805   3.925   5.320 -1.4850 -1.8731  2.0257
  105SAPE  C21910764   2.728   4.030   5.494 -0.8674  0.0300  0.1491
  105SAPE  H19R10765   2.669   3.944   5.533  0.1009  0.8176  3.7650
  105SAPE  H19S10766   2.656   4.094   5.439 -0.7328  1.3295  1.4287
  105SAPE  C22010767   2.771   4.114   5.620 -0.1949  0.2045 -0.2437
  105SAPE  H20R10768   2.824   4.206   5.588  2.3814 -1.2128 -0.3718
  105SAPE  H20S10769   2.846   4.061   5.682  2.0283  2.7877 -0.5684
  105SAPE  H20T10770   2.676   4.150   5.664 -0.6385 -2.0669  0.7756
  105SAPE   C3310771   3.822   3.940   4.209  0.3802 -0.0431 -0.6648
  105SAPE   H3X10772   3.730   4.002   4.215  0.5241  0.1056  0.3934
  105SAPE   H3Y10773   3.906   4.013   4.203  0.7292 -0.3436  0.3629
  105SAPE   C3410774   3.815   3.878   4.349 -0.0886  0.5202  0.1910
  105SAPE   H4X10775   3.828   3.960   4.423  1.0993 -1.9557  2.9428
  105SAPE   H4Y10776   3.900   3.806   4.354 -1.3242 -0.9794  0.5039
  105SAPE   C3510777   3.694   3.799   4.376 -0.2486 -0.2305  0.9652
  105SAPE   H5X10778   3.661   3.732   4.294 -2.4624 -0.4241  1.9307
  105SAPE   H5Y10779   3.617   3.879   4.389  0.0326  0.0463  0.9202
  105SAPE   C3610780   3.720   3.721   4.507 -0.2991  0.3242 -0.0703
  105SAPE   H6X10781   3.813   3.662   4.499 -0.1168  0.5920  0.0462
  105SAPE   H6Y10782   3.636   3.652   4.531 -1.9016  2.5839  1.2992
  105SAPE   C3710783   3.744   3.805   4.640  0.2269 -1.0709  0.6138
  105SAPE   H7X10784   3.822   3.881   4.620  0.6420 -2.0677 -1.8946
  105SAPE   H7Y10785   3.777   3.726   4.711 -0.8198 -4.5823 -2.4951
  105SAPE   C3810786   3.611   3.863   4.678 -0.3168  0.2763  0.8842
  105SAPE   H8X10787   3.525   3.810   4.630  0.4912 -2.5049  2.2600
  105SAPE   H8Y10788   3.599   3.968   4.645 -0.2831 -0.9429 -3.8562
  105SAPE   C3910789   3.566   3.866   4.828 -0.2198 -0.1766  0.2449
  105SAPE   H9X10790   3.582   3.770   4.881 -0.1108 -0.1700  0.2231
  105SAPE   H9Y10791   3.455   3.875   4.826 -0.3436 -1.5966 -0.9054
  105SAPE  C31010792   3.624   3.987   4.909  0.0387 -0.4673  0.6864
  105SAPE  H10X10793   3.595   4.084   4.862 -0.9805  0.2956  2.7377
  105SAPE  H10Y10794   3.735   3.984   4.910  0.0347 -1.0602  2.8684
  105SAPE  C31110795   3.567   3.994   5.050 -0.1093  0.0135  0.6730
  105SAPE  H11X10796   3.584   3.895   5.099 -1.0679 -1.1737 -1.2639
  105SAPE  H11Y10797   3.459   4.020   5.042  0.1393  0.9378  0.3124
  105SAPE  C31210798   3.639   4.103   5.129  0.1522 -0.0797 -0.2638
  105SAPE  H12X10799   3.642   4.203   5.079 -1.6400 -0.0940 -0.4408
  105SAPE  H12Y10800   3.744   4.082   5.159  0.9705 -0.9290 -3.3397
  105SAPE  C31310801   3.575   4.124   5.269  0.6509  0.3462 -0.4305
  105SAPE  H13X10802   3.537   4.030   5.315 -1.5436  1.3960  0.0575
  105SAPE  H13Y10803   3.489   4.194   5.257  0.5953 -0.1661 -4.3047
  105SAPE  C31410804   3.667   4.189   5.368 -0.1614  0.4042 -0.5901
  105SAPE  H14X10805   3.761   4.130   5.369 -0.0470  0.5855 -0.6648
  105SAPE  H14Y10806   3.630   4.182   5.473  0.5483  2.0593 -0.2004
  105SAPE  C31510807   3.704   4.342   5.336 -0.0133  0.0579 -0.4309
  105SAPE  H15X10808   3.609   4.399   5.331  0.0666  0.3872  1.2402
  105SAPE  H15Y10809   3.744   4.339   5.232 -0.6454 -1.5460 -0.6536
  105SAPE  C31610810   3.790   4.413   5.437  0.2846 -0.2198  0.0966
  105SAPE  H16X10811   3.859   4.489   5.395 -0.7575  0.5064 -0.3372
  105SAPE  H16Y10812   3.857   4.341   5.489  0.9257  0.7250  0.6104
  105SAPE  C31710813   3.705   4.494   5.542  0.1646  0.4490  0.3963
  105SAPE  H17X10814   3.614   4.442   5.579 -0.2113 -1.1616 -2.5412
  105SAPE  H17Y10815   3.670   4.582   5.486 -0.7054  0.7392  1.3586
  105SAPE  C31810816   3.795   4.535   5.655  0.3570 -0.6682 -0.5778
  105SAPE  H18X10817   3.733   4.562   5.743  1.0980 -1.1647  0.1077
  105SAPE  H18Y10818   3.865   4.614   5.620 -0.6179  0.6894  0.4507
  105SAPE  H18Z10819   3.848   4.442   5.684 -2.3486 -1.9327  0.7249
  106SAPE     N10820   2.557   4.009   3.559 -0.0781  0.6802  0.3681
  106SAPE   HN110821   2.586   4.099   3.515  1.1924  0.6859  1.1426
  106SAPE   HN210822   2.480   4.038   3.622 -0.9316  1.7314 -1.1135
  106SAPE   HN310823   2.637   3.985   3.622 -1.5797 -2.2895  1.3388
  106SAPE   C1210824   2.535   3.896   3.459 -0.5492  0.6957 -0.2799
  106SAPE  H12A10825   2.633   3.869   3.413 -0.7618 -0.4854 -0.0635
  106SAPE  H12B10826   2.463   3.920   3.378 -0.9410 -0.6711 -0.3424
  106SAPE   C1110827   2.501   3.770   3.534  0.0133  0.3518  0.2853
  106SAPE  H11A10828   2.415   3.765   3.604  0.4787  0.6666  0.8857
  106SAPE  H11B10829   2.593   3.741   3.590 -0.7441 -3.0390  0.0186
  106SAPE     P10830   2.557   3.531   3.425 -0.2085 -0.3887 -0.1645
  106SAPE   O1310831   2.458   3.421   3.394 -0.4671 -0.3558  0.4171
  106SAPE   O1410832   2.676   3.549   3.340  0.6509  0.4124 -0.3340
  106SAPE   O1210833   2.478   3.671   3.427 -0.6105  0.0061 -0.4920
  106SAPE   O1110834   2.599   3.513   3.572 -0.5889  0.5798 -0.0149
  106SAPE    C110835   2.510   3.466   3.669 -0.0603 -0.4481  0.2659
  106SAPE    HA10836   2.411   3.511   3.647  1.3945  2.8785 -0.0086
  106SAPE    HB10837   2.508   3.357   3.690 -0.1999  0.0467  3.2220
  106SAPE    C210838   2.549   3.536   3.805 -0.1410 -0.3620  0.0701
  106SAPE    HS10839   2.545   3.647   3.796 -0.4211 -0.4215 -0.6006
  106SAPE   O2110840   2.684   3.496   3.827  0.0738  0.1475  0.4085
  106SAPE   C2110841   2.778   3.589   3.822 -0.0637 -0.2859 -0.7528
  106SAPE   O2210842   2.755   3.708   3.797  1.0566 -0.0902 -0.0612
  106SAPE   C2210843   2.907   3.520   3.864 -0.6097  0.0151 -0.0465
  106SAPE   H2R10844   2.889   3.480   3.966  1.0812 -1.1842 -0.1735
  106SAPE   H2S10845   2.918   3.434   3.795  1.8495  0.8177 -0.7604
  106SAPE    C310846   2.460   3.489   3.924 -0.8351  0.1160 -0.5750
  106SAPE    HX10847   2.462   3.378   3.921 -0.5494  0.0895  0.1871
  106SAPE    HY10848   2.355   3.523   3.909 -0.5054  1.9793  0.8937
  106SAPE   O3110849   2.519   3.533   4.055  0.1173 -0.4215  0.7581
  106SAPE   C3110850   2.479   3.655   4.091 -0.2635  0.0823  0.1472
  106SAPE   O3210851   2.441   3.745   4.019 -0.3204  0.9369 -0.2987
  106SAPE   C3210852   2.464   3.667   4.249 -0.3231  0.4325  0.2229
  106SAPE   H2X10853   2.565   3.669   4.295  0.2210 -1.6322 -0.7848
  106SAPE   H2Y10854   2.418   3.569   4.271  0.5571 -0.9338 -3.4073
  106SAPE   C2310855   3.036   3.605   3.861 -0.5117  0.2364  0.1716
  106SAPE   H3R10856   3.039   3.648   3.758 -1.0162 -1.1685 -0.4560
  106SAPE   H3S10857   3.121   3.538   3.883 -0.8243 -0.5056 -0.7857
  106SAPE   C2410858   3.036   3.720   3.972  0.0991  0.6234  0.8873
  106SAPE   H4R10859   2.953   3.789   3.945 -1.2523 -1.0200  0.7201
  106SAPE   H4S10860   3.138   3.764   3.960 -0.5796  2.1149  0.4130
  106SAPE   C2510861   3.010   3.669   4.111  0.3286  0.0997 -0.0041
  106SAPE   H5R10862   3.024   3.560   4.120  0.8810  0.1216 -0.5145
  106SAPE   C2610863   2.956   3.733   4.214  0.0899 -0.0850 -0.1253
  106SAPE   H6R10864   2.937   3.672   4.304  2.2275 -0.3093  0.2332
  106SAPE   C2710865   2.923   3.877   4.229  0.1111 -0.3021  0.2788
  106SAPE   H7R10866   2.986   3.949   4.172 -2.5472  2.0591  0.0890
  106SAPE   H7S10867   2.953   3.905   4.332  0.8337 -0.8101  0.2105
  106SAPE   C2810868   2.775   3.916   4.212  0.2056 -0.5035  0.1101
  106SAPE   H8R10869   2.706   3.844   4.164 -0.9108 -0.3530  1.4416
  106SAPE   C2910870   2.721   4.034   4.250  0.4458 -0.0610 -0.0450
  106SAPE   H9R10871   2.617   4.062   4.227  0.2589  2.5893  3.2777
  106SAPE  C21010872   2.794   4.141   4.323  0.0392 -0.3801  0.2765
  106SAPE  H10R10873   2.901   4.136   4.291  0.5031  0.4610  1.6261
  106SAPE  H10S10874   2.808   4.117   4.430 -1.5997 -0.2366  0.5363
  106SAPE  C21110875   2.728   4.276   4.309 -0.2226 -0.2337  0.1718
  106SAPE  H11R10876   2.689   4.310   4.211 -0.2691 -0.1645  0.2137
  106SAPE  C21210877   2.711   4.360   4.415 -0.8410  0.1533  0.3839
  106SAPE  H12R10878   2.662   4.457   4.400  1.8429  1.4232 -0.8620
  106SAPE  C21310879   2.753   4.331   4.562  0.0628  0.3585  0.9102
  106SAPE  H13R10880   2.780   4.430   4.604 -1.4871  1.8400 -1.3633
  106SAPE  H13S10881   2.843   4.266   4.558 -0.5516 -0.4280 -1.5872
  106SAPE  C21410882   2.646   4.277   4.651  0.7281  0.1021  0.0034
  106SAPE  H14R10883   2.617   4.172   4.635 -1.3139  0.7140 -0.4909
  106SAPE  C21510884   2.590   4.335   4.761 -0.1464  0.2329  1.2486
  106SAPE  H15R10885   2.506   4.288   4.814  0.0403 -1.5904  0.0098
  106SAPE  C21610886   2.627   4.470   4.815 -1.2502 -0.2438  0.2615
  106SAPE  H16R10887   2.532   4.526   4.829 -2.0579 -1.5384  0.1219
  106SAPE  H16S10888   2.672   4.530   4.733  0.1086 -1.5454  0.0187
  106SAPE  C21710889   2.709   4.462   4.942  0.1796  0.7028 -0.5721
  106SAPE  H17R10890   2.737   4.567   4.966 -2.1452  0.7640  2.4602
  106SAPE  H17S10891   2.798   4.396   4.927 -1.4552 -2.0251  0.8631
  106SAPE  C21810892   2.634   4.405   5.064 -0.4849 -0.6588  0.1463
  106SAPE  H18R10893   2.584   4.309   5.040 -4.7659  1.2876  0.3860
  106SAPE  H18S10894   2.557   4.481   5.089  0.1976  1.0853 -2.6244
  106SAPE  C21910895   2.745   4.394   5.176 -0.1838  0.3204  0.0437
  106SAPE  H19R10896   2.812   4.483   5.167  2.7087 -1.7179  0.0167
  106SAPE  H19S10897   2.806   4.303   5.156  0.1445  0.8732 -1.6735
  106SAPE  C22010898   2.695   4.384   5.313  0.4597  0.4719 -0.3214
  106SAPE  H20R10899   2.646   4.285   5.322  1.7168 -0.2719 -1.2647
  106SAPE  H20S10900   2.616   4.459   5.335 -1.0683 -1.8695  2.9770
  106SAPE  H20T10901   2.773   4.382   5.392  1.7675 -1.7931 -1.5670
  106SAPE   C3310902   2.378   3.778   4.303 -0.3039 -0.4855  0.3850
  106SAPE   H3X10903   2.274   3.745   4.282  0.2392 -2.5507  0.7793
  106SAPE   H3Y10904   2.398   3.879   4.259  1.1395 -0.3788  1.2608
  106SAPE   C3410905   2.386   3.779   4.453  0.0463  0.3874 -0.2370
  106SAPE   H4X10906   2.406   3.675   4.484  0.1470  1.2896  3.1320
  106SAPE   H4Y10907   2.296   3.815   4.508  0.0270 -0.5874  0.3900
  106SAPE   C3510908   2.500   3.865   4.503 -0.2586  0.4694 -0.2846
  106SAPE   H5X10909   2.461   3.949   4.564 -1.0853 -1.0809  1.4474
  106SAPE   H5Y10910   2.550   3.916   4.418  1.8528 -0.1460  0.5452
  106SAPE   C3610911   2.615   3.777   4.568 -0.3035  0.0975  0.6194
  106SAPE   H6X10912   2.670   3.709   4.500  0.0299  0.6353  0.3371
  106SAPE   H6Y10913   2.570   3.719   4.651  0.6258 -0.0703  1.0203
  106SAPE   C3710914   2.723   3.871   4.631  0.5169 -0.1183  0.3484
  106SAPE   H7X10915   2.746   3.944   4.551  1.6319 -0.9868 -0.1438
  106SAPE   H7Y10916   2.813   3.808   4.642  0.3288 -0.5182 -0.3639
  106SAPE   C3810917   2.682   3.937   4.758  0.2052  0.2359 -0.7003
  106SAPE   H8X10918   2.587   3.992   4.743  0.8039  1.6797  0.4730
  106SAPE   H8Y10919   2.758   4.009   4.797 -0.1678 -0.5966  1.7325
  106SAPE   C3910920   2.663   3.838   4.874 -0.7054 -0.3347  0.3537
  106SAPE   H9X10921   2.754   3.775   4.882  0.7247  1.6106  0.3404
  106SAPE   H9Y10922   2.578   3.769   4.858 -0.2342 -0.9470  0.4510
  106SAPE  C31010923   2.642   3.912   5.004 -0.0444  0.1589  0.1312
  106SAPE  H10X10924   2.721   3.989   5.017  1.3715 -1.4571  1.5696
  106SAPE  H10Y10925   2.636   3.839   5.088  0.4215 -1.4940 -1.1995
  106SAPE  C31110926   2.504   3.986   5.015 -0.0804 -0.4284  0.5919
  106SAPE  H11X10927   2.481   4.052   4.929  0.5764  0.8796  1.4000
  106SAPE  H11Y10928   2.503   4.041   5.111 -0.3851  1.9977 -0.7325
  106SAPE  C31210929   2.383   3.891   5.034  0.2970 -0.6676  1.3091
  106SAPE  H12X10930   2.412   3.790   5.071 -0.0136 -0.9221  0.8733
  106SAPE  H12Y10931   2.343   3.865   4.934  2.0617  0.7875  0.1592
  106SAPE  C31310932   2.266   3.954   5.114  0.3960 -0.4779 -0.0713
  106SAPE  H13X10933   2.239   4.047   5.058  1.8982  0.0152 -0.0193
  106SAPE  H13Y10934   2.290   3.977   5.220  0.4487 -1.8719  0.2280
  106SAPE  C31410935   2.136   3.873   5.115  0.0226 -0.2015 -0.0985
  106SAPE  H14X10936   2.147   3.798   5.197 -1.9248  1.5252  1.8418
  106SAPE  H14Y10937   2.109   3.823   5.019 -0.1222 -0.5957  0.1470
  106SAPE  C31510938   2.022   3.965   5.166 -0.2791  0.2892  0.9181
  106SAPE  H15X10939   1.998   4.049   5.097 -3.3585 -1.7459 -0.7511
  106SAPE  H15Y10940   2.045   3.995   5.270  2.0618 -0.1040  0.5788
  106SAPE  C31610941   1.889   3.888   5.169  0.2312  0.3435 -0.0438
  106SAPE  H16X10942   1.813   3.958   5.211 -2.2805 -1.7531 -0.8481
  106SAPE  H16Y10943   1.898   3.803   5.240  0.7954 -0.0094 -0.5304
  106SAPE  C31710944   1.831   3.837   5.034 -0.4330 -0.8032  0.0849
  106SAPE  H17X10945   1.890   3.758   4.984 -1.3543 -2.3370  1.3492
  106SAPE  H17Y10946   1.832   3.923   4.963  0.5834  1.3198  2.4919
  106SAPE  C31810947   1.689   3.801   5.056 -0.0219 -0.3724 -0.4968
  106SAPE  H18X10948   1.684   3.717   5.128  0.3452  0.3402  0.3767
  106SAPE  H18Y10949   1.626   3.772   4.969 -0.2554 -1.5527  0.0409
  106SAPE  H18Z10950   1.637   3.887   5.103 -0.5342 -0.8069 -0.2664
  107SAPE     N10951   6.401   2.452   3.946  0.5568 -0.4417  0.6580
  107SAPE   HN110952   6.336   2.526   3.913  1.0543 -0.9347 -1.5851
  107SAPE   HN210953   6.483   2.501   3.987 -0.5189  0.1405  2.2074
  107SAPE   HN310954   6.438   2.388   3.873  0.6227 -1.2026  1.3473
  107SAPE   C1210955   6.323   2.362   4.040 -0.4905  0.1748 -0.2943
  107SAPE  H12A10956   6.213   2.379   4.040 -0.7997 -1.5459 -0.7166
  107SAPE  H12B10957   6.348   2.387   4.145 -3.1255 -0.3721  0.5447
  107SAPE   C1110958   6.354   2.213   4.011  0.0744  0.6481  0.5395
  107SAPE  H11A10959   6.336   2.190   3.904  2.1967  1.9712 -0.1868
  107SAPE  H11B10960   6.286   2.153   4.074 -1.3046  1.4862 -0.1068
  107SAPE     P10961   6.556   2.043   4.038 -0.2674 -0.2434 -0.1072
  107SAPE   O1310962   6.472   1.958   3.958 -0.4648  0.8063 -0.1240
  107SAPE   O1410963   6.698   2.063   3.988 -0.3429 -0.4803 -0.4280
  107SAPE   O1210964   6.497   2.191   4.035 -0.1382  0.5388 -0.3194
  107SAPE   O1110965   6.566   2.003   4.195  0.3112  0.2025 -0.3014
  107SAPE    C110966   6.498   2.062   4.298  0.1559 -0.0937 -0.3702
  107SAPE    HA10967   6.485   2.169   4.274  3.3996  0.3255 -0.7365
  107SAPE    HB10968   6.397   2.016   4.292 -0.1652  0.6493 -0.7617
  107SAPE    C210969   6.578   2.032   4.431  0.7018  0.6186  0.0525
  107SAPE    HS10970   6.495   2.052   4.502 -0.6216 -0.2289 -1.2029
  107SAPE   O2110971   6.694   2.107   4.459  0.4194 -0.4036  0.2343
  107SAPE   C2110972   6.669   2.236   4.497 -0.0759 -0.3024  0.0292
  107SAPE   O2210973   6.567   2.298   4.493  0.7938  0.5561 -0.5773
  107SAPE   C2210974   6.802   2.301   4.531 -0.0226 -0.3185  0.3564
  107SAPE   H2R10975   6.882   2.224   4.540  0.8346  0.1755 -2.1886
  107SAPE   H2S10976   6.840   2.362   4.446 -1.8261  2.1550  1.1946
  107SAPE    C310977   6.600   1.876   4.429 -0.4742 -0.3560  0.2772
  107SAPE    HX10978   6.677   1.852   4.353  0.7502  1.3627  0.8939
  107SAPE    HY10979   6.512   1.824   4.386  0.2364 -1.2986 -0.0548
  107SAPE   O3110980   6.631   1.830   4.568 -0.8023 -0.1140  0.1717
  107SAPE   C3110981   6.533   1.838   4.652  0.4236 -0.4584 -0.6190
  107SAPE   O3210982   6.415   1.853   4.628  0.2556  0.1964  0.7053
  107SAPE   C3210983   6.585   1.801   4.791  0.0528 -0.8464 -0.4390
  107SAPE   H2X10984   6.663   1.722   4.797 -1.0213 -1.8518  0.9340
  107SAPE   H2Y10985   6.497   1.758   4.843 -0.9246 -1.9947 -2.9398
  107SAPE   C2310986   6.797   2.378   4.662 -0.8115  0.1756 -0.6147
  107SAPE   H3R10987   6.696   2.425   4.656 -1.3893 -1.0765 -1.1348
  107SAPE   H3S10988   6.876   2.455   4.665  2.5748 -3.0203 -0.6161
  107SAPE   C2410989   6.797   2.294   4.789 -0.1448 -0.2998  0.3270
  107SAPE   H4R10990   6.716   2.218   4.788 -2.5404  2.0387  1.3409
  107SAPE   H4S10991   6.774   2.355   4.879 -0.0849  1.5132 -0.8393
  107SAPE   C2510992   6.929   2.236   4.808  0.4641 -0.0893  0.5673
  107SAPE   H5R10993   6.938   2.134   4.766 -3.3566  0.3905 -1.9133
  107SAPE   C2610994   7.020   2.279   4.892 -0.5782  0.2922  0.1588
  107SAPE   H6R10995   7.109   2.215   4.900  2.0443  3.4944 -1.1830
  107SAPE   C2710996   7.014   2.413   4.959  0.0295 -0.9034 -0.2717
  107SAPE   H7R10997   7.083   2.410   5.046  2.2861  2.5574 -1.6988
  107SAPE   H7S10998   6.910   2.422   4.997 -0.1494 -0.6685 -0.8113
  107SAPE   C2810999   7.046   2.534   4.871 -0.9349 -0.2203  0.2367
  107SAPE   H8R11000   7.119   2.512   4.792 -1.6636  2.5965 -1.3401
  107SAPE   C2911001   6.998   2.658   4.882 -0.0800  0.4498  0.6885
  107SAPE   H9R11002   7.031   2.737   4.812  0.5915 -1.1248 -0.8371
  107SAPE  C21011003   6.893   2.704   4.973 -0.5947 -0.3756 -0.3167
  107SAPE  H10R11004   6.854   2.615   5.026  1.1145 -0.8123  0.2378
  107SAPE  H10S11005   6.800   2.739   4.923 -0.3598  3.5219  1.6051
  107SAPE  C21111006   6.938   2.811   5.079  0.0134 -0.3201 -0.3093
  107SAPE  H11R11007   7.047   2.821   5.081 -0.0977  1.0176  0.2411
  107SAPE  C21211008   6.855   2.892   5.153 -0.4669  0.2494  0.7303
  107SAPE  H12R11009   6.907   2.959   5.223  0.5395  3.0107 -2.4349
  107SAPE  C21311010   6.709   2.888   5.164 -0.1926 -0.3794 -0.7683
  107SAPE  H13R11011   6.658   2.809   5.106  0.3177 -0.2084 -1.4580
  107SAPE  H13S11012   6.667   2.988   5.136 -0.0487 -0.0904  0.0178
  107SAPE  C21411013   6.661   2.881   5.308  0.9891 -0.4470 -0.0928
  107SAPE  H14R11014   6.628   2.779   5.332  0.8527 -0.3088  0.3123
  107SAPE  C21511015   6.651   2.983   5.398  0.8078  0.0058  0.3550
  107SAPE  H15R11016   6.613   2.958   5.498  0.4262  0.5049  0.3339
  107SAPE  C21611017   6.701   3.126   5.385  0.5172  0.1101  0.8491
  107SAPE  H16R11018   6.750   3.144   5.286 -0.1392 -0.9036  0.3207
  107SAPE  H16S11019   6.781   3.134   5.461  2.2911  0.2449 -0.9289
  107SAPE  C21711020   6.595   3.226   5.411 -0.1923 -0.2304  0.7995
  107SAPE  H17R11021   6.644   3.323   5.389  1.0048 -1.1178 -0.5984
  107SAPE  H17S11022   6.551   3.217   5.513 -0.0583 -0.9602  0.8031
  107SAPE  C21811023   6.467   3.219   5.315 -0.4842  0.9814  0.5595
  107SAPE  H18R11024   6.398   3.135   5.337  0.4588  0.0386  0.0196
  107SAPE  H18S11025   6.503   3.201   5.212 -3.2794 -1.1615 -0.1638
  107SAPE  C21911026   6.373   3.345   5.326 -0.3782 -0.6745 -0.4718
  107SAPE  H19R11027   6.439   3.425   5.365  0.4060 -2.0515  1.1791
  107SAPE  H19S11028   6.303   3.334   5.412  1.7222 -0.6451  1.3398
  107SAPE  C22011029   6.307   3.399   5.202  0.1058 -0.1604  0.1789
  107SAPE  H20R11030   6.232   3.328   5.161  0.1023 -0.5374  0.8203
  107SAPE  H20S11031   6.383   3.423   5.124 -0.1554  0.3885  0.0895
  107SAPE  H20T11032   6.249   3.491   5.225  0.2162 -0.2794  0.9460
  107SAPE   C3311033   6.628   1.926   4.873 -0.1719 -0.2093 -0.0728
  107SAPE   H3X11034   6.543   1.987   4.910 -2.6519 -4.5808  2.2371
  107SAPE   H3Y11035   6.709   1.977   4.816 -0.3116 -0.5099 -0.5501
  107SAPE   C3411036   6.687   1.880   5.007 -0.3284 -0.4024 -0.4109
  107SAPE   H4X11037   6.779   1.818   4.992 -1.1015 -1.4589 -0.9234
  107SAPE   H4Y11038   6.607   1.821   5.056 -1.9924  0.9121 -1.4384
  107SAPE   C3511039   6.718   2.013   5.078 -0.2899  0.3276  0.4333
  107SAPE   H5X11040   6.623   2.070   5.090 -2.0940 -2.6709  1.3440
  107SAPE   H5Y11041   6.791   2.070   5.018  0.4324 -0.4774  0.5358
  107SAPE   C3611042   6.778   1.975   5.215  0.5757  0.7504 -0.2707
  107SAPE   H6X11043   6.879   1.931   5.208  0.7635  0.9994  0.7739
  107SAPE   H6Y11044   6.707   1.908   5.268 -0.5068  0.2098 -2.2920
  107SAPE   C3711045   6.782   2.097   5.309  0.0113 -0.6605 -0.1305
  107SAPE   H7X11046   6.820   2.070   5.409 -2.3115 -1.2114  0.6642
  107SAPE   H7Y11047   6.677   2.130   5.324 -0.0084 -0.1600 -1.2921
  107SAPE   C3811048   6.867   2.219   5.266 -0.9608  0.1247 -0.0367
  107SAPE   H8X11049   6.837   2.250   5.164 -0.0362  1.2540  0.0294
  107SAPE   H8Y11050   6.975   2.192   5.267 -0.3586  2.2381 -1.8657
  107SAPE   C3911051   6.847   2.340   5.356  0.3429  0.0386 -0.1737
  107SAPE   H9X11052   6.896   2.315   5.452  1.1645 -0.0732 -0.6142
  107SAPE   H9Y11053   6.739   2.357   5.376  0.0737  0.5891 -1.9061
  107SAPE  C31011054   6.903   2.473   5.301 -0.2790 -0.0592  0.2204
  107SAPE  H10X11055   6.815   2.523   5.256 -0.6864 -0.5826  0.4264
  107SAPE  H10Y11056   6.978   2.453   5.221 -0.1453 -0.6626  0.4939
  107SAPE  C31111057   6.966   2.555   5.421  0.3704  0.4539  0.0275
  107SAPE  H11X11058   6.915   2.546   5.519  3.3746 -1.4292  1.5489
  107SAPE  H11Y11059   6.966   2.661   5.390  0.7385  0.0351 -1.5099
  107SAPE  C31211060   7.108   2.515   5.447 -0.1141 -0.5106 -0.0162
  107SAPE  H12X11061   7.170   2.545   5.360 -0.2481  1.4755  0.5442
  107SAPE  H12Y11062   7.119   2.404   5.448  1.7755 -0.4254  3.7861
  107SAPE  C31311063   7.159   2.558   5.580 -0.5355  0.6259 -0.2508
  107SAPE  H13X11064   7.080   2.528   5.652  0.9917 -2.1839  0.4263
  107SAPE  H13Y11065   7.170   2.668   5.579 -0.1594  0.5862 -0.7766
  107SAPE  C31411066   7.295   2.497   5.617 -1.0377 -0.0109  0.6307
  107SAPE  H14X11067   7.366   2.529   5.538 -0.4902 -2.5050 -0.0033
  107SAPE  H14Y11068   7.294   2.387   5.598 -1.4966  0.5212 -3.2265
  107SAPE  C31511069   7.346   2.542   5.750 -0.3210  0.0590 -0.8022
  107SAPE  H15X11070   7.271   2.503   5.823 -2.1975  1.2269 -2.0399
  107SAPE  H15Y11071   7.357   2.652   5.739  0.5512  0.2989  1.7963
  107SAPE  C31611072   7.483   2.491   5.806 -0.6676  0.4608  0.1980
  107SAPE  H16X11073   7.565   2.538   5.748  0.0334  0.3549  1.0936
  107SAPE  H16Y11074   7.489   2.384   5.779  1.5544  0.5790  0.0407
  107SAPE  C31711075   7.508   2.519   5.952 -0.1065  0.2229 -0.7273
  107SAPE  H17X11076   7.596   2.462   5.988 -0.7693  0.2789  1.0671
  107SAPE  H17Y11077   7.415   2.496   6.009  0.9940  0.0931  1.0659
  107SAPE  C31811078   7.531   2.668   5.982 -0.5911 -0.0455  0.1557
  107SAPE  H18X11079   7.453   2.735   5.940 -0.9472 -0.3319  0.3561
  107SAPE  H18Y11080   7.630   2.703   5.945 -1.2281  2.3166  0.5243
  107SAPE  H18Z11081   7.529   2.689   6.091 -0.0970 -0.4637  0.2494
  108SAPE     N11082   4.152   2.274   3.764 -0.2538 -0.0963  1.1626
  108SAPE   HN111083   4.256   2.282   3.761 -0.3448  1.3262  0.8281
  108SAPE   HN211084   4.120   2.188   3.716  0.7988  1.7678 -3.3934
  108SAPE   HN311085   4.115   2.349   3.702  1.5031 -0.4824 -0.4317
  108SAPE   C1211086   4.094   2.269   3.899  0.4701 -0.4931  0.0782
  108SAPE  H12A11087   4.130   2.175   3.944  0.7564 -1.2225 -1.5883
  108SAPE  H12B11088   3.984   2.267   3.890  0.6383 -0.8279 -2.9320
  108SAPE   C1111089   4.145   2.394   3.974  0.1497  0.2903 -0.2108
  108SAPE  H11A11090   4.111   2.390   4.080  0.0223  1.4470 -0.1939
  108SAPE  H11B11091   4.080   2.478   3.939 -1.3065 -0.4539  0.5856
  108SAPE     P11092   4.386   2.344   4.059 -0.4098  0.3602  0.0678
  108SAPE   O1311093   4.376   2.204   4.023  0.5360  0.3710  0.0245
  108SAPE   O1411094   4.514   2.412   4.035 -0.0424  0.9052  0.0183
  108SAPE   O1211095   4.285   2.418   3.965 -0.2157 -0.3741 -0.3646
  108SAPE   O1111096   4.343   2.370   4.211 -0.0904  0.5981 -0.2550
  108SAPE    C111097   4.305   2.501   4.257 -0.3032  0.5476 -0.0427
  108SAPE    HA11098   4.229   2.552   4.195  1.3663  2.7488 -0.4184
  108SAPE    HB11099   4.255   2.486   4.355 -0.0443 -4.3004 -0.4237
  108SAPE    C211100   4.424   2.594   4.291  0.1929 -0.2988 -0.1885
  108SAPE    HS11101   4.453   2.629   4.189 -1.6585 -1.0868 -1.0233
  108SAPE   O2111102   4.537   2.533   4.358  0.3716  0.2734  0.0642
  108SAPE   C2111103   4.650   2.598   4.341  0.1057  0.5093 -0.2455
  108SAPE   O2211104   4.651   2.700   4.280 -0.0725 -0.0829 -0.2424
  108SAPE   C2211105   4.763   2.531   4.417 -0.0986  0.5415  0.6758
  108SAPE   H2R11106   4.739   2.444   4.482 -0.2495 -0.2347 -0.3803
  108SAPE   H2S11107   4.834   2.496   4.338 -1.7671  1.5509 -1.3672
  108SAPE    C311108   4.374   2.714   4.379 -0.1427 -0.3849  0.3673
  108SAPE    HX11109   4.310   2.779   4.316  1.6810 -0.1272 -1.3192
  108SAPE    HY11110   4.457   2.785   4.400  1.3186 -1.6788 -0.7538
  108SAPE   O3111111   4.319   2.665   4.499  0.5424  0.3304 -0.6237
  108SAPE   C3111112   4.194   2.669   4.523  0.2321  0.3988  0.7446
  108SAPE   O3211113   4.109   2.724   4.452  0.3987  0.5646 -0.0839
  108SAPE   C3211114   4.155   2.601   4.651 -0.0508  0.1459 -0.3097
  108SAPE   H2X11115   4.082   2.522   4.625  1.0922 -1.0987  0.1340
  108SAPE   H2Y11116   4.112   2.680   4.717 -0.1754  0.5833 -0.9060
  108SAPE   C2311117   4.830   2.635   4.515 -0.3807 -0.0715  0.7934
  108SAPE   H3R11118   4.877   2.717   4.457 -0.3950  0.1611  1.1074
  108SAPE   H3S11119   4.919   2.588   4.561  0.8772 -1.6085 -2.8585
  108SAPE   C2411120   4.736   2.704   4.609 -0.0538 -0.7650 -0.2803
  108SAPE   H4R11121   4.676   2.777   4.549  1.1990  0.3433 -0.2391
  108SAPE   H4S11122   4.797   2.771   4.673 -0.1269 -1.3853  0.4536
  108SAPE   C2511123   4.653   2.613   4.693 -0.1524  0.1426 -0.3172
  108SAPE   H5R11124   4.561   2.588   4.637 -0.2123 -0.7467  0.1600
  108SAPE   C2611125   4.675   2.548   4.806  0.3900  0.5128  0.4618
  108SAPE   H6R11126   4.597   2.484   4.851 -1.1081  1.3620 -0.8240
  108SAPE   C2711127   4.789   2.563   4.899  0.4767 -0.3513  0.0471
  108SAPE   H7R11128   4.836   2.663   4.897 -0.1868  0.0636  2.4300
  108SAPE   H7S11129   4.869   2.498   4.856  0.6166  1.7800 -3.2625
  108SAPE   C2811130   4.768   2.527   5.043 -0.0352  0.1554 -0.4474
  108SAPE   H8R11131   4.847   2.471   5.094 -0.5667 -0.6263 -0.4762
  108SAPE   C2911132   4.660   2.561   5.123 -0.7383 -0.4569  0.1207
  108SAPE   H9R11133   4.657   2.529   5.228  1.8423  0.5667  0.5881
  108SAPE  C21011134   4.544   2.639   5.071 -0.5743  0.1040 -0.4941
  108SAPE  H10R11135   4.483   2.574   5.004  0.6919 -2.0186  0.2998
  108SAPE  H10S11136   4.577   2.727   5.011  0.2082  0.4302  0.3866
  108SAPE  C21111137   4.457   2.680   5.184  0.4661 -0.0969 -0.0707
  108SAPE  H11R11138   4.383   2.603   5.211  1.2356 -0.6553  0.4941
  108SAPE  C21211139   4.433   2.801   5.237 -0.1428  0.0446  0.2444
  108SAPE  H12R11140   4.345   2.810   5.301 -0.6881 -0.5975 -0.4028
  108SAPE  C21311141   4.516   2.927   5.205 -0.5650  0.3048 -0.1430
  108SAPE  H13R11142   4.469   2.986   5.123  1.6016  0.2724 -1.4668
  108SAPE  H13S11143   4.611   2.903   5.154 -0.7669  0.2269 -0.4880
  108SAPE  C21411144   4.525   3.031   5.318 -0.1012  0.1998  0.2288
  108SAPE  H14R11145   4.459   3.007   5.403 -0.2743  1.5353  0.4972
  108SAPE  C21511146   4.582   3.152   5.311  0.4246 -0.0847 -0.0036
  108SAPE  H15R11147   4.568   3.220   5.396 -1.6356 -1.0391  0.4842
  108SAPE  C21611148   4.662   3.202   5.196 -0.5918 -0.1843 -0.5257
  108SAPE  H16R11149   4.672   3.126   5.116  1.0563 -0.3642 -0.1837
  108SAPE  H16S11150   4.766   3.227   5.226 -0.6622  0.7857 -1.0415
  108SAPE  C21711151   4.590   3.329   5.136 -0.2120 -0.3807 -0.2066
  108SAPE  H17R11152   4.612   3.413   5.205 -1.7764  2.1573 -2.5886
  108SAPE  H17S11153   4.484   3.335   5.167  0.2892 -1.1563  1.7938
  108SAPE  C21811154   4.618   3.366   4.987 -0.4478 -0.0959 -0.5237
  108SAPE  H18R11155   4.580   3.470   4.975  0.6899  0.5679  1.2396
  108SAPE  H18S11156   4.570   3.294   4.917 -1.2508 -1.3625  1.2574
  108SAPE  C21911157   4.767   3.370   4.945 -0.5066 -0.4640  0.3102
  108SAPE  H19R11158   4.812   3.277   4.986  1.1321 -0.0300 -0.4175
  108SAPE  H19S11159   4.815   3.459   4.992 -0.9503  0.6965 -1.3130
  108SAPE  C22011160   4.791   3.386   4.798  1.1861 -0.1995  0.2423
  108SAPE  H20R11161   4.898   3.406   4.776  0.8657  1.2622 -0.0622
  108SAPE  H20S11162   4.745   3.478   4.758 -0.4930 -1.2122 -0.2441
  108SAPE  H20T11163   4.758   3.294   4.745 -1.6525  0.8065  0.1010
  108SAPE   C3311164   4.276   2.535   4.729  0.1331  0.5945  0.1077
  108SAPE   H3X11165   4.346   2.614   4.762 -0.2126  0.7896  0.3801
  108SAPE   H3Y11166   4.334   2.471   4.659 -0.2034 -0.4757  0.7734
  108SAPE   C3411167   4.225   2.456   4.849  0.2120 -0.2452 -0.9410
  108SAPE   H4X11168   4.173   2.523   4.921  1.6521 -1.0879  0.9724
  108SAPE   H4Y11169   4.320   2.437   4.904  0.0399 -1.6184 -1.0786
  108SAPE   C3511170   4.128   2.338   4.825  0.1247  0.2055  0.4657
  108SAPE   H5X11171   4.035   2.379   4.780 -0.5971  2.3183  3.5749
  108SAPE   H5Y11172   4.181   2.275   4.750  0.6978  2.3137 -0.9725
  108SAPE   C3611173   4.104   2.266   4.958 -0.6270 -0.9336  0.6231
  108SAPE   H6X11174   4.076   2.340   5.036  1.2287  0.4270  0.0798
  108SAPE   H6Y11175   4.200   2.223   4.996  0.8389  0.5068 -1.2576
  108SAPE   C3711176   3.984   2.175   4.943 -0.2252  0.2152 -0.0038
  108SAPE   H7X11177   4.010   2.102   4.863 -0.4855 -0.2945  0.3699
  108SAPE   H7Y11178   3.895   2.234   4.913  0.0540  0.4274 -0.4211
  108SAPE   C3811179   3.963   2.098   5.074  0.4219  0.4885 -0.7312
  108SAPE   H8X11180   3.934   2.164   5.159  2.4772  2.1562 -1.2332
  108SAPE   H8Y11181   4.058   2.043   5.092 -0.9685 -1.3563  1.6689
  108SAPE   C3911182   3.849   1.995   5.070  0.0977  1.1624 -0.5196
  108SAPE   H9X11183   3.867   1.929   4.982 -1.4959 -0.5401  0.3432
  108SAPE   H9Y11184   3.752   2.049   5.068  0.5652  2.2071  1.6864
  108SAPE  C31011185   3.847   1.892   5.185  0.1476  0.2653  0.0785
  108SAPE  H10X11186   3.947   1.844   5.179 -1.3676 -3.4580  1.6043
  108SAPE  H10Y11187   3.773   1.810   5.167  2.4240 -2.0652  0.7360
  108SAPE  C31111188   3.826   1.952   5.323 -0.1006  0.7212  0.2010
  108SAPE  H11X11189   3.719   1.981   5.323 -1.0934 -2.5295  0.0855
  108SAPE  H11Y11190   3.890   2.040   5.343  0.0430  0.5261  0.5982
  108SAPE  C31211191   3.843   1.850   5.433  0.0427  0.8290  0.2203
  108SAPE  H12X11192   3.952   1.829   5.443 -0.1875  0.2432  1.8377
  108SAPE  H12Y11193   3.777   1.764   5.409 -0.3064  0.8110  1.1849
  108SAPE  C31311194   3.801   1.903   5.572 -0.3083  0.0027  0.4118
  108SAPE  H13X11195   3.690   1.912   5.569 -0.3322 -0.6395 -1.6603
  108SAPE  H13Y11196   3.843   2.003   5.596 -2.0875  0.9364 -0.2073
  108SAPE  C31411197   3.841   1.811   5.691  0.4036 -0.3061 -1.2691
  108SAPE  H14X11198   3.949   1.785   5.698 -0.1452 -2.3326  2.5354
  108SAPE  H14Y11199   3.791   1.712   5.683 -0.4280  0.0240 -0.4091
  108SAPE  C31511200   3.817   1.867   5.833  0.5080 -0.8856  0.6642
  108SAPE  H15X11201   3.708   1.883   5.847  0.5694  1.5725 -1.0005
  108SAPE  H15Y11202   3.867   1.965   5.850 -1.6368  0.7421 -1.6660
  108SAPE  C31611203   3.869   1.785   5.947  0.8648  0.5350  0.7798
  108SAPE  H16X11204   3.970   1.746   5.923  0.8736  1.2297 -0.3796
  108SAPE  H16Y11205   3.807   1.693   5.956 -2.7716  2.4932 -1.6899
  108SAPE  C31711206   3.865   1.853   6.082 -0.1496  0.2146  0.2061
  108SAPE  H17X11207   3.767   1.901   6.100 -0.0680  1.2260 -1.7706
  108SAPE  H17Y11208   3.945   1.930   6.076  0.6176 -0.6589 -1.5657
  108SAPE  C31811209   3.901   1.764   6.199  0.9137 -0.2128 -0.2975
  108SAPE  H18X11210   3.810   1.706   6.226  0.8329 -0.2740 -0.6982
  108SAPE  H18Y11211   3.922   1.829   6.287 -0.2338 -0.0341 -0.1424
  108SAPE  H18Z11212   3.978   1.689   6.174 -2.1899 -2.7556 -3.2872
  109SAPE     N11213   2.577   6.379   3.861  0.2553  0.2530 -0.0334
  109SAPE   HN111214   2.592   6.307   3.934 -0.6938 -2.6697 -2.5243
  109SAPE   HN211215   2.617   6.327   3.780 -1.5472 -1.1881 -0.0489
  109SAPE   HN311216   2.638   6.459   3.888  1.9964 -0.3692 -1.8783
  109SAPE   C1211217   2.430   6.408   3.843  0.0585  0.2844 -0.4949
  109SAPE  H12A11218   2.375   6.319   3.806 -0.7710  0.4310  0.3527
  109SAPE  H12B11219   2.413   6.482   3.761  0.1513 -1.2917 -1.9992
  109SAPE   C1111220   2.375   6.452   3.986  0.1214 -0.0479 -0.6602
  109SAPE  H11A11221   2.413   6.387   4.066 -0.3853  0.4805  0.0254
  109SAPE  H11B11222   2.264   6.445   3.998  0.1726  0.0576 -0.1179
  109SAPE     P11223   2.367   6.717   3.942  0.3761 -0.2404 -0.0703
  109SAPE   O1311224   2.493   6.767   3.886  0.4828 -0.2320  0.3684
  109SAPE   O1411225   2.257   6.684   3.845 -0.3942  0.1314 -0.1886
  109SAPE   O1211226   2.417   6.581   4.026  0.1229 -0.2236  0.2593
  109SAPE   O1111227   2.308   6.819   4.037  0.3383  0.3500 -0.3569
  109SAPE    C111228   2.390   6.889   4.130  0.0174 -0.0499  0.5848
  109SAPE    HA11229   2.474   6.943   4.082  0.5090 -0.1039  1.3661
  109SAPE    HB11230   2.333   6.973   4.173 -1.4776 -1.4359  1.4052
  109SAPE    C211231   2.447   6.800   4.242  0.8459 -0.7503 -0.5295
  109SAPE    HS11232   2.506   6.728   4.181 -0.8345 -1.1196 -1.8073
  109SAPE   O2111233   2.343   6.728   4.314  0.3523 -0.7713  0.3163
  109SAPE   C2111234   2.372   6.600   4.347 -0.5056  0.1888 -0.3472
  109SAPE   O2211235   2.469   6.542   4.306 -0.3652 -0.1041 -0.3286
  109SAPE   C2211236   2.263   6.545   4.439 -0.3696  0.5531 -0.0409
  109SAPE   H2R11237   2.159   6.569   4.410 -1.0786  0.1911  2.0383
  109SAPE   H2S11238   2.276   6.435   4.440 -1.1633  0.3431 -3.1882
  109SAPE    C311239   2.532   6.880   4.341 -0.2628  0.1988 -0.0999
  109SAPE    HX11240   2.621   6.925   4.291  0.6446 -1.6310 -0.2252
  109SAPE    HY11241   2.574   6.804   4.411  1.1443  2.4421  1.6432
  109SAPE   O3111242   2.452   6.966   4.424 -0.7717 -0.7498  0.0742
  109SAPE   C3111243   2.457   7.087   4.374 -0.3713  0.0255 -0.3245
  109SAPE   O3211244   2.535   7.125   4.289  0.0387  0.4958 -0.0953
  109SAPE   C3211245   2.339   7.164   4.430  0.3422 -0.0403 -0.0212
  109SAPE   H2X11246   2.338   7.273   4.412  0.7682 -0.1294 -0.5992
  109SAPE   H2Y11247   2.353   7.164   4.540 -0.4173 -0.5365  0.0816
  109SAPE   C2311248   2.304   6.611   4.574 -0.0365 -0.1917  0.3829
  109SAPE   H3R11249   2.205   6.641   4.615 -0.1314  1.2864 -0.8646
  109SAPE   H3S11250   2.353   6.709   4.557  0.7195 -1.1129 -3.6706
  109SAPE   C2411251   2.389   6.529   4.673  0.3250 -0.5143 -0.2169
  109SAPE   H4R11252   2.420   6.601   4.752  0.7024 -3.5106  2.5629
  109SAPE   H4S11253   2.482   6.492   4.626  1.7314 -1.1644  2.8159
  109SAPE   C2511254   2.315   6.411   4.730 -0.1657 -0.5956  0.1197
  109SAPE   H5R11255   2.287   6.332   4.659  0.8318 -1.1732  0.3494
  109SAPE   C2611256   2.272   6.403   4.855  0.1010 -0.0893  0.2765
  109SAPE   H6R11257   2.225   6.309   4.887  0.8644 -0.1719  1.2128
  109SAPE   C2711258   2.289   6.498   4.970  0.0730  0.7731 -0.3275
  109SAPE   H7R11259   2.196   6.560   4.968  1.2165  2.5472 -1.8963
  109SAPE   H7S11260   2.373   6.570   4.955  1.1201 -0.3017  0.2466
  109SAPE   C2811261   2.288   6.426   5.102 -0.0314  0.2358 -0.4052
  109SAPE   H8R11262   2.216   6.344   5.116  1.2179 -0.7529  0.4777
  109SAPE   C2911263   2.375   6.453   5.204 -0.3121  0.1098 -0.2482
  109SAPE   H9R11264   2.377   6.386   5.291  0.5286 -0.7972 -0.9489
  109SAPE  C21011265   2.488   6.543   5.189  0.0853  0.8102 -0.0632
  109SAPE  H10R11266   2.522   6.539   5.083 -0.4009 -0.0164 -0.2005
  109SAPE  H10S11267   2.570   6.500   5.250 -1.7262 -1.3018  1.0424
  109SAPE  C21111268   2.463   6.686   5.229 -0.5530 -0.0648  0.0597
  109SAPE  H11R11269   2.461   6.751   5.140 -1.5371 -0.5803 -0.3137
  109SAPE  C21211270   2.446   6.729   5.359  0.6518  0.4668  0.0421
  109SAPE  H12R11271   2.433   6.835   5.386 -0.7118  0.1685  0.6433
  109SAPE  C21311272   2.441   6.632   5.479  0.2089  0.4726 -0.0833
  109SAPE  H13R11273   2.522   6.560   5.457 -0.8994 -0.7598 -0.2119
  109SAPE  H13S11274   2.343   6.582   5.484  0.5224 -0.0159  2.2079
  109SAPE  C21411275   2.459   6.707   5.609 -0.7206  0.3244 -0.1736
  109SAPE  H14R11276   2.505   6.807   5.615  1.6359 -0.7613  4.0577
  109SAPE  C21511277   2.433   6.646   5.725 -0.2916 -0.7994  0.4590
  109SAPE  H15R11278   2.457   6.695   5.821 -0.2153 -2.6019  1.4171
  109SAPE  C21611279   2.366   6.510   5.736 -0.7344 -0.5095  0.5243
  109SAPE  H16R11280   2.429   6.456   5.810  0.0042  0.8507  0.9332
  109SAPE  H16S11281   2.356   6.465   5.634  2.7822  0.7922 -0.5596
  109SAPE  C21711282   2.224   6.505   5.794 -1.2746  0.0561 -0.5652
  109SAPE  H17R11283   2.218   6.567   5.887 -2.9244 -2.5507  1.2326
  109SAPE  H17S11284   2.199   6.403   5.833 -0.1636  0.3800  1.0910
  109SAPE  C21811285   2.108   6.551   5.708  0.4326 -0.5308  0.1633
  109SAPE  H18R11286   2.116   6.488   5.617  1.1223 -1.8720  1.1136
  109SAPE  H18S11287   2.122   6.657   5.679 -1.3313  0.0380  1.2354
  109SAPE  C21911288   1.969   6.530   5.770  0.0745  0.3660 -0.2122
  109SAPE  H19R11289   1.896   6.523   5.686 -0.6728 -1.0425  0.5194
  109SAPE  H19S11290   1.940   6.624   5.822 -0.8598 -0.9184  1.7165
  109SAPE  C22011291   1.955   6.404   5.860  0.2142  0.0573  0.0318
  109SAPE  H20R11292   1.847   6.390   5.885  0.3672 -1.0982  0.1004
  109SAPE  H20S11293   2.015   6.410   5.953  1.3189  1.9379 -0.7516
  109SAPE  H20T11294   1.989   6.317   5.800 -0.6596  0.3053 -0.8591
  109SAPE   C3311295   2.198   7.103   4.432 -0.1444  0.2399 -0.0000
  109SAPE   H3X11296   2.161   7.082   4.330 -0.4456  0.0266  0.1507
  109SAPE   H3Y11297   2.127   7.174   4.480 -0.7682  0.6331 -1.4617
  109SAPE   C3411298   2.185   6.972   4.513  0.3488 -0.1632  0.6827
  109SAPE   H4X11299   2.252   6.986   4.601  1.6442 -0.1725 -0.2771
  109SAPE   H4Y11300   2.226   6.898   4.441 -1.4654  0.0289 -0.6263
  109SAPE   C3511301   2.042   6.948   4.546  0.4509  0.5433  0.1978
  109SAPE   H5X11302   2.003   6.956   4.443  0.7500  0.7987  0.1025
  109SAPE   H5Y11303   1.999   7.028   4.610  0.6920  1.9373 -1.3160
  109SAPE   C3611304   1.992   6.810   4.603  0.2491  0.3000 -0.4781
  109SAPE   H6X11305   2.065   6.787   4.684 -0.0133 -2.1107 -0.8319
  109SAPE   H6Y11306   2.000   6.717   4.542  0.7594 -0.9353  1.3854
  109SAPE   C3711307   1.857   6.819   4.669 -0.5260 -0.2519  0.1428
  109SAPE   H7X11308   1.772   6.811   4.598 -0.6709  1.3415  0.1058
  109SAPE   H7Y11309   1.842   6.913   4.726 -1.3868  0.8875 -1.8594
  109SAPE   C3811310   1.818   6.710   4.777 -0.0266 -0.3691 -0.3418
  109SAPE   H8X11311   1.885   6.624   4.755 -0.5595 -0.9269  0.1949
  109SAPE   H8Y11312   1.709   6.690   4.767 -0.3307  1.5725 -1.4869
  109SAPE   C3911313   1.853   6.758   4.925  0.1760 -1.2539 -0.3356
  109SAPE   H9X11314   1.777   6.828   4.966  0.4613 -1.6177  0.8443
  109SAPE   H9Y11315   1.954   6.804   4.935  0.0371 -1.2201  1.0538
  109SAPE  C31011316   1.836   6.639   5.022  0.0655  0.0470  0.1991
  109SAPE  H10X11317   1.904   6.563   4.979  0.4360  0.6921 -0.3631
  109SAPE  H10Y11318   1.734   6.597   5.006 -1.6675  3.8657  0.1438
  109SAPE  C31111319   1.846   6.672   5.167  0.4711 -0.1428  0.7378
  109SAPE  H11X11320   1.837   6.582   5.231 -2.4871  0.6148  1.5416
  109SAPE  H11Y11321   1.744   6.708   5.191  0.3431  0.1211 -0.1592
  109SAPE  C31211322   1.962   6.759   5.205  0.1821 -1.4840 -0.3305
  109SAPE  H12X11323   1.965   6.857   5.153 -0.7567 -0.4065  1.5569
  109SAPE  H12Y11324   2.057   6.711   5.173  1.2548 -0.3273  1.0223
  109SAPE  C31311325   1.960   6.791   5.351  0.0220 -0.1141 -0.0886
  109SAPE  H13X11326   1.945   6.695   5.405  0.5200 -1.6651 -2.5942
  109SAPE  H13Y11327   1.863   6.841   5.371 -1.5868 -2.8007 -0.6910
  109SAPE  C31411328   2.083   6.865   5.412  0.0776  0.4854 -0.7200
  109SAPE  H14X11329   2.120   6.948   5.347  0.4075  0.1158 -1.0159
  109SAPE  H14Y11330   2.166   6.792   5.418 -1.0173 -0.6898  0.6017
  109SAPE  C31511331   2.048   6.926   5.553  0.2399  0.7085 -0.2888
  109SAPE  H15X11332   2.007   6.847   5.620  0.1610  0.9151 -0.0910
  109SAPE  H15Y11333   1.964   6.998   5.548  1.0696  1.6785 -0.6404
  109SAPE  C31611334   2.169   6.991   5.613  0.3239  0.1320 -0.2095
  109SAPE  H16X11335   2.216   7.068   5.548 -1.5250  2.5294  1.1259
  109SAPE  H16Y11336   2.244   6.909   5.610 -0.9182 -1.1523  1.4164
  109SAPE  C31711337   2.151   7.037   5.755  0.9144  0.4577  0.2201
  109SAPE  H17X11338   2.070   7.111   5.747  0.6537 -0.0359 -2.5321
  109SAPE  H17Y11339   2.241   7.089   5.795  0.9782 -0.8078  1.8400
  109SAPE  C31811340   2.098   6.933   5.856 -0.2575 -0.0015 -0.2911
  109SAPE  H18X11341   2.175   6.853   5.860  1.3444  1.4086 -1.6724
  109SAPE  H18Y11342   2.003   6.886   5.823  1.0636 -1.2582 -2.5100
  109SAPE  H18Z11343   2.084   6.986   5.953 -3.3971 -0.9389 -0.1098
  110SAPE     N11344   0.369   5.994   3.881  0.1851  0.4909  0.0132
  110SAPE   HN111345   0.282   5.946   3.852 -0.3756  1.6030 -0.1982
  110SAPE   HN211346   0.338   6.081   3.929 -2.3677 -0.5491  0.3586
  110SAPE   HN311347   0.416   6.029   3.795  0.1122  1.5537  0.3925
  110SAPE   C1211348   0.455   5.910   3.964  0.4816 -0.1091  0.1637
  110SAPE  H12A11349   0.482   5.818   3.909  1.6541 -0.8399  1.8617
  110SAPE  H12B11350   0.402   5.890   4.060  1.3133  0.2307  0.7041
  110SAPE   C1111351   0.587   5.983   3.980  0.0032 -0.4888  0.1896
  110SAPE  H11A11352   0.649   5.925   4.051  1.6940 -1.3532 -1.9122
  110SAPE  H11B11353   0.577   6.085   4.024 -0.1999 -0.3815 -0.1046
  110SAPE     P11354   0.804   6.055   3.853  0.0421 -0.2643  0.0233
  110SAPE   O1311355   0.907   5.959   3.907 -0.3469 -0.1091 -0.3854
  110SAPE   O1411356   0.831   6.107   3.718 -0.3320 -0.1951 -1.0982
  110SAPE   O1211357   0.659   5.984   3.854  0.0101 -0.1601 -0.2874
  110SAPE   O1111358   0.791   6.193   3.941 -0.3238  0.2873  0.2174
  110SAPE    C111359   0.825   6.209   4.081  0.0394  1.3783  0.2288
  110SAPE    HA11360   0.734   6.255   4.124 -0.1490  1.0958  0.1396
  110SAPE    HB11361   0.854   6.111   4.124 -1.1452  0.6424 -0.5920
  110SAPE    C211362   0.937   6.309   4.097  0.6227  1.0860  0.0566
  110SAPE    HS11363   1.007   6.267   4.022 -0.1963  1.8484 -1.1754
  110SAPE   O2111364   0.992   6.299   4.224  0.1295 -0.2773 -0.2937
  110SAPE   C2111365   1.104   6.361   4.243  0.1340 -0.2994  0.0854
  110SAPE   O2211366   1.171   6.404   4.153 -0.2208  0.2711  0.0818
  110SAPE   C2211367   1.139   6.362   4.389  1.0112 -0.2314 -0.8148
  110SAPE   H2R11368   1.174   6.465   4.410 -1.2701  0.4845 -0.1812
  110SAPE   H2S11369   1.041   6.360   4.442  0.7745 -0.4308 -1.2500
  110SAPE    C311370   0.899   6.455   4.046  0.3753  0.0213  0.1769
  110SAPE    HX11371   0.941   6.471   3.944 -1.0453  1.1743 -0.2529
  110SAPE    HY11372   0.789   6.446   4.034  0.1215  0.0014  2.1879
  110SAPE   O3111373   0.929   6.552   4.141 -0.3959  0.3755 -0.0671
  110SAPE   C3111374   0.834   6.625   4.199  0.0373 -0.4243 -0.3856
  110SAPE   O3211375   0.713   6.627   4.176  0.0335 -0.0295 -0.0242
  110SAPE   C3211376   0.898   6.707   4.306  0.5990  0.1407 -0.3731
  110SAPE   H2X11377   0.855   6.810   4.298  1.2422  0.6474  1.8968
  110SAPE   H2Y11378   1.008   6.708   4.290  1.0708 -2.5223  1.9868
  110SAPE   C2311379   1.233   6.246   4.436  0.5513 -0.3990  0.2093
  110SAPE   H3R11380   1.326   6.264   4.377 -0.8265  1.5967 -1.5047
  110SAPE   H3S11381   1.192   6.153   4.392 -1.6641  1.2207 -1.3763
  110SAPE   C2411382   1.252   6.246   4.586  1.1059  0.2566  0.6461
  110SAPE   H4R11383   1.165   6.212   4.645  0.5465  2.7498  1.4013
  110SAPE   H4S11384   1.260   6.343   4.640 -2.3307  0.1296  1.5930
  110SAPE   C2511385   1.376   6.164   4.613  0.0831  0.3192  0.2383
  110SAPE   H5R11386   1.469   6.220   4.628  1.4804 -1.6545 -0.5688
  110SAPE   C2611387   1.386   6.027   4.627  0.2526 -0.1278  0.1844
  110SAPE   H6R11388   1.481   5.978   4.652 -1.1479 -2.6688  0.8286
  110SAPE   C2711389   1.276   5.924   4.623 -0.0045 -0.6039  0.3612
  110SAPE   H7R11390   1.319   5.822   4.636  0.1130 -0.8894 -1.9220
  110SAPE   H7S11391   1.225   5.927   4.524  0.8149 -0.8856 -0.0744
  110SAPE   C2811392   1.164   5.955   4.722 -0.0872  0.7306 -0.2671
  110SAPE   H8R11393   1.073   5.986   4.669 -0.2196 -1.0891 -1.2127
  110SAPE   C2911394   1.183   5.932   4.863 -0.4985  0.2297  0.9481
  110SAPE   H9R11395   1.100   5.947   4.933 -0.2317  1.5095  1.0093
  110SAPE  C21011396   1.306   5.887   4.934 -0.0421  0.4424  0.3906
  110SAPE  H10R11397   1.345   5.975   4.990 -0.8980  1.3807 -0.4252
  110SAPE  H10S11398   1.391   5.862   4.867  0.2691 -0.0497  0.9589
  110SAPE  C21111399   1.296   5.763   5.019 -0.2076  0.4952  0.3653
  110SAPE  H11R11400   1.253   5.675   4.969 -0.1350 -0.0081  1.1718
  110SAPE  C21211401   1.336   5.738   5.145 -0.2034 -0.9020 -0.4155
  110SAPE  H12R11402   1.302   5.650   5.201  1.0128 -0.2378  1.4292
  110SAPE  C21311403   1.406   5.838   5.241  0.6574  0.2301  0.7128
  110SAPE  H13R11404   1.320   5.899   5.278 -1.7215 -0.9386 -2.4324
  110SAPE  H13S11405   1.464   5.911   5.181  0.2604  0.0300  0.0783
  110SAPE  C21411406   1.502   5.775   5.340 -0.3960  0.2122  0.2420
  110SAPE  H14R11407   1.557   5.686   5.306 -3.1377 -1.7874  0.6673
  110SAPE  C21511408   1.541   5.818   5.464  0.3851 -0.5639  0.3743
  110SAPE  H15R11409   1.600   5.752   5.529  1.3169 -1.0886 -0.9568
  110SAPE  C21611410   1.483   5.933   5.540  0.2045 -0.0033  0.5894
  110SAPE  H16R11411   1.413   5.893   5.617 -1.5575  0.9006 -0.4730
  110SAPE  H16S11412   1.421   5.991   5.469  1.0845  1.0566  0.6614
  110SAPE  C21711413   1.583   6.024   5.615 -0.5492  0.1072 -0.2427
  110SAPE  H17R11414   1.640   6.080   5.538 -0.2230 -1.3943 -1.1279
  110SAPE  H17S11415   1.670   5.978   5.666  0.1933 -0.8353 -2.2635
  110SAPE  C21811416   1.520   6.132   5.701  0.2485  0.0433  0.7226
  110SAPE  H18R11417   1.477   6.099   5.798 -0.6932  0.5385  0.4858
  110SAPE  H18S11418   1.434   6.173   5.643  1.3934  0.4801 -0.7476
  110SAPE  C21911419   1.611   6.243   5.741  0.1158  0.2005  0.2146
  110SAPE  H19R11420   1.681   6.219   5.824  2.1322 -0.8305 -1.6542
  110SAPE  H19S11421   1.538   6.313   5.786  1.8970  1.2247  1.6484
  110SAPE  C22011422   1.691   6.327   5.634 -0.2049  0.2237  0.0760
  110SAPE  H20R11423   1.749   6.408   5.684 -0.4480  0.6505 -0.3327
  110SAPE  H20S11424   1.616   6.361   5.560  0.9701 -0.8080 -1.6608
  110SAPE  H20T11425   1.772   6.270   5.583  0.2980  1.4291 -0.5145
  110SAPE   C3311426   0.865   6.643   4.439 -0.2839  0.0644 -0.7196
  110SAPE   H3X11427   0.911   6.542   4.439 -1.3546 -0.5136  1.6192
  110SAPE   H3Y11428   0.758   6.620   4.461  0.1868 -3.7994 -1.6691
  110SAPE   C3411429   0.926   6.729   4.559  0.0569 -0.5031  0.8424
  110SAPE   H4X11430   0.870   6.825   4.552  0.0270 -0.6555 -3.7720
  110SAPE   H4Y11431   1.035   6.742   4.542 -0.0315 -2.7938 -2.3953
  110SAPE   C3511432   0.900   6.670   4.697 -0.2578 -0.1159  0.2517
  110SAPE   H5X11433   0.968   6.584   4.716  1.9059  1.5984  0.7326
  110SAPE   H5Y11434   0.794   6.641   4.710  0.2422 -2.0071  0.3017
  110SAPE   C3611435   0.925   6.781   4.807 -0.3671 -0.1491  0.0597
  110SAPE   H6X11436   0.832   6.842   4.798 -0.6347 -0.9105 -3.7611
  110SAPE   H6Y11437   1.013   6.847   4.792 -0.1374 -0.7194 -1.1741
  110SAPE   C3711438   0.926   6.721   4.945 -0.6445  0.8019 -0.5019
  110SAPE   H7X11439   1.007   6.645   4.949 -0.6264  0.6058 -3.0105
  110SAPE   H7Y11440   0.832   6.664   4.962 -0.2322  0.0254 -0.7785
  110SAPE   C3811441   0.945   6.814   5.069  0.3550 -0.3602 -0.0983
  110SAPE   H8X11442   0.847   6.868   5.075  2.3675  3.8966 -1.5266
  110SAPE   H8Y11443   1.014   6.898   5.048  0.6885 -0.7421 -0.5355
  110SAPE   C3911444   0.970   6.755   5.211  0.1362  0.9828  0.6874
  110SAPE   H9X11445   1.073   6.714   5.207 -0.3763 -0.3783  0.7571
  110SAPE   H9Y11446   0.891   6.677   5.213  0.6934  0.3250 -0.9297
  110SAPE  C31011447   0.970   6.863   5.317 -0.1465  0.1644 -0.4154
  110SAPE  H10X11448   0.884   6.932   5.303  0.1660  1.1236  1.8660
  110SAPE  H10Y11449   1.058   6.929   5.302  1.8381 -1.8697  1.4102
  110SAPE  C31111450   0.960   6.804   5.453 -1.0086  0.1062 -0.1700
  110SAPE  H11X11451   1.052   6.743   5.462 -1.2857 -0.2030  0.6921
  110SAPE  H11Y11452   0.870   6.740   5.473  0.6566 -2.1311  0.6177
  110SAPE  C31211453   0.980   6.910   5.566 -0.1728  0.0330  0.6743
  110SAPE  H12X11454   0.880   6.957   5.572 -0.4866 -0.4686 -0.3974
  110SAPE  H12Y11455   1.044   6.983   5.511 -1.2260 -0.8488 -1.8813
  110SAPE  C31311456   1.040   6.855   5.686  0.0132 -0.6755 -0.3212
  110SAPE  H13X11457   1.130   6.799   5.655 -0.1886 -1.3384  0.2640
  110SAPE  H13Y11458   0.969   6.781   5.729 -1.2047 -0.2329 -1.4944
  110SAPE  C31411459   1.092   6.959   5.795 -0.6043 -0.1727 -0.5966
  110SAPE  H14X11460   1.007   7.005   5.850  0.8785  0.3110  1.3940
  110SAPE  H14Y11461   1.138   7.050   5.750 -1.4901  0.6216  0.0671
  110SAPE  C31511462   1.199   6.909   5.890  0.1808 -0.1492 -0.2114
  110SAPE  H15X11463   1.221   6.986   5.967 -0.3056 -0.2249  0.0105
  110SAPE  H15Y11464   1.295   6.881   5.842  1.3220  1.0370  1.2854
  110SAPE  C31611465   1.154   6.776   5.963 -0.6380  0.1106 -0.8446
  110SAPE  H16X11466   1.233   6.751   6.037 -0.1978 -0.8256 -1.6113
  110SAPE  H16Y11467   1.149   6.691   5.891  0.9170  0.1015 -0.9754
  110SAPE  C31711468   1.020   6.789   6.040  0.0246  0.7907  0.1423
  110SAPE  H17X11469   1.020   6.686   6.083  4.0704  0.8401  0.5814
  110SAPE  H17Y11470   0.939   6.800   5.964  0.7280 -1.6860 -1.0842
  110SAPE  C31811471   1.001   6.884   6.152  0.5328 -0.9744  0.0599
  110SAPE  H18X11472   0.913   6.858   6.214  0.6381  0.5790  0.9043
  110SAPE  H18Y11473   0.991   6.990   6.121  1.0185 -0.3281  1.9665
  110SAPE  H18Z11474   1.090   6.886   6.219  0.4318  0.4240  0.1862
  111SAPE     N11475   5.241   3.662   3.764  0.1209  0.1648 -0.2329
  111SAPE   HN111476   5.187   3.733   3.710  1.1113 -0.4195 -2.0543
  111SAPE   HN211477   5.290   3.607   3.691  0.2692  0.6252 -0.4840
  111SAPE   HN311478   5.164   3.603   3.801  1.5983 -1.8887 -0.2781
  111SAPE   C1211479   5.330   3.712   3.875 -0.1301  0.8556  0.1223
  111SAPE  H12A11480   5.280   3.799   3.923 -3.4635 -1.5002  1.3222
  111SAPE  H12B11481   5.424   3.738   3.822 -0.5526 -0.6701 -1.4822
  111SAPE   C1111482   5.362   3.593   3.973  0.7415 -0.6546 -0.6311
  111SAPE  H11A11483   5.275   3.579   4.041  0.0060 -0.1374 -1.4500
  111SAPE  H11B11484   5.436   3.622   4.052 -0.2891  0.8685 -0.1886
  111SAPE     P11485   5.474   3.351   3.952 -0.3884  0.5512 -0.0485
  111SAPE   O1311486   5.416   3.216   3.918  0.1009 -0.4675 -0.0854
  111SAPE   O1411487   5.610   3.388   3.904 -0.1806  0.2233  0.5409
  111SAPE   O1211488   5.384   3.470   3.907  1.2216  0.2561  0.1699
  111SAPE   O1111489   5.488   3.369   4.103  0.5762  0.1279 -0.6567
  111SAPE    C111490   5.398   3.313   4.201  0.2497  0.0658 -0.5977
  111SAPE    HA11491   5.303   3.369   4.191  1.6934  2.4776 -1.7211
  111SAPE    HB11492   5.389   3.204   4.184  0.2603 -0.1465  0.6173
  111SAPE    C211493   5.467   3.323   4.334  0.6071  0.6289 -0.3330
  111SAPE    HS11494   5.391   3.280   4.402  0.3814 -0.8561 -1.4670
  111SAPE   O2111495   5.494   3.459   4.363 -0.4682  0.1316 -1.2794
  111SAPE   C2111496   5.394   3.529   4.415  0.0192 -0.6164 -0.4281
  111SAPE   O2211497   5.285   3.490   4.442  0.2343  0.5917  0.1739
  111SAPE   C2211498   5.444   3.670   4.449  1.2838  0.1747  0.8835
  111SAPE   H2R11499   5.554   3.673   4.461  1.4968 -2.6995  0.3370
  111SAPE   H2S11500   5.424   3.734   4.361  0.2503  0.3391  1.2287
  111SAPE    C311501   5.603   3.237   4.340 -0.1150  0.4513 -0.1318
  111SAPE    HX11502   5.686   3.298   4.297  2.0623 -2.9190 -1.0922
  111SAPE    HY11503   5.582   3.152   4.272 -0.8665  1.0271 -0.6486
  111SAPE   O3111504   5.641   3.201   4.469 -0.1290  0.1475 -0.8013
  111SAPE   C3111505   5.588   3.100   4.524 -0.5534  0.4116 -0.5008
  111SAPE   O3211506   5.504   3.026   4.474 -0.2192  0.3026  0.3840
  111SAPE   C3211507   5.641   3.093   4.671  0.8951  0.2772  0.1137
  111SAPE   H2X11508   5.717   3.173   4.687  0.2014  0.4789  2.8387
  111SAPE   H2Y11509   5.696   2.997   4.685  0.7585  0.3734  1.3661
  111SAPE   C2311510   5.372   3.729   4.574 -0.0802 -0.2616 -0.0567
  111SAPE   H3R11511   5.384   3.661   4.661  2.0265 -1.4646 -1.2034
  111SAPE   H3S11512   5.266   3.737   4.543  0.6677  0.8352 -2.6024
  111SAPE   C2411513   5.420   3.866   4.617  0.3051  0.0972 -0.1702
  111SAPE   H4R11514   5.362   3.909   4.701  1.2405  0.3913  0.3385
  111SAPE   H4S11515   5.395   3.931   4.530 -0.9381  0.9754  0.7993
  111SAPE   C2511516   5.566   3.873   4.637  0.2817  0.2130 -0.8629
  111SAPE   H5R11517   5.625   3.862   4.544  0.5702 -0.6516 -0.5873
  111SAPE   C2611518   5.635   3.871   4.753  0.2309 -0.0948  0.5358
  111SAPE   H6R11519   5.743   3.889   4.751  0.0307  1.2117  0.7924
  111SAPE   C2711520   5.585   3.866   4.893  0.1947  0.3264 -0.0207
  111SAPE   H7R11521   5.474   3.870   4.892  0.1301 -0.0826 -3.0632
  111SAPE   H7S11522   5.611   3.950   4.961 -1.5163  0.8743  0.0173
  111SAPE   C2811523   5.643   3.749   4.961  0.5646 -0.1943 -0.5860
  111SAPE   H8R11524   5.748   3.757   4.992  0.3182 -2.9063  1.3803
  111SAPE   C2911525   5.580   3.633   4.988 -0.1484 -0.0929 -0.8176
  111SAPE   H9R11526   5.647   3.554   5.026  2.4245 -0.7358 -5.8050
  111SAPE  C21011527   5.438   3.589   4.972  0.7189 -0.0496 -0.1114
  111SAPE  H10R11528   5.373   3.678   4.956  0.4391 -0.0493  0.9178
  111SAPE  H10S11529   5.399   3.537   5.062  0.7567  3.3615  2.0926
  111SAPE  C21111530   5.420   3.487   4.861  0.2828 -0.8321 -0.5443
  111SAPE  H11R11531   5.519   3.470   4.815  0.4423  0.5403 -0.7423
  111SAPE  C21211532   5.304   3.425   4.816  0.2417  0.3951 -0.6343
  111SAPE  H12R11533   5.313   3.368   4.723 -0.2692 -0.9180  0.1029
  111SAPE  C21311534   5.167   3.448   4.878  0.1982  0.6912  0.0402
  111SAPE  H13R11535   5.081   3.441   4.808 -0.7099  0.5708  1.1569
  111SAPE  H13S11536   5.161   3.553   4.913 -2.0877  1.3774 -2.0984
  111SAPE  C21411537   5.142   3.357   4.988 -0.1968  0.7168 -0.3759
  111SAPE  H14R11538   5.165   3.253   4.962 -0.4334  0.5407  0.1152
  111SAPE  C21511539   5.102   3.375   5.116 -0.0711 -0.4403  0.5903
  111SAPE  H15R11540   5.083   3.295   5.188 -0.7797 -0.4332  0.4177
  111SAPE  C21611541   5.081   3.512   5.179  0.5221  0.3706 -0.5986
  111SAPE  H16R11542   4.986   3.560   5.149  0.7439  0.2909 -1.4457
  111SAPE  H16S11543   5.160   3.582   5.146  1.1225  0.5617  1.1047
  111SAPE  C21711544   5.080   3.499   5.333 -0.1225  0.0883  0.7640
  111SAPE  H17R11545   5.114   3.597   5.373 -2.4077  1.4307 -0.3961
  111SAPE  H17S11546   5.164   3.430   5.358 -0.6916 -1.0999 -0.4631
  111SAPE  C21811547   4.948   3.463   5.403  0.2112 -0.2945 -0.6538
  111SAPE  H18R11548   4.976   3.440   5.508 -0.4972  0.7374 -0.2259
  111SAPE  H18S11549   4.889   3.379   5.361 -1.5703 -1.0957  3.0508
  111SAPE  C21911550   4.839   3.578   5.405 -0.6805 -0.2710  0.7238
  111SAPE  H19R11551   4.752   3.545   5.465  0.0820 -0.8371  1.5515
  111SAPE  H19S11552   4.813   3.604   5.300  1.3061  0.7156  0.4257
  111SAPE  C22011553   4.896   3.714   5.466 -0.3732 -0.7224 -0.3824
  111SAPE  H20R11554   4.824   3.798   5.471 -0.7171 -1.0848  1.1131
  111SAPE  H20S11555   4.983   3.748   5.406  1.7992 -1.1676  2.3089
  111SAPE  H20T11556   4.930   3.693   5.569  0.3663  1.5773 -0.1224
  111SAPE   C3311557   5.525   3.117   4.770 -0.3075 -0.2846  0.5306
  111SAPE   H3X11558   5.435   3.064   4.731 -0.4901  1.2642 -1.2894
  111SAPE   H3Y11559   5.508   3.226   4.768 -0.9512 -0.3849  0.4571
  111SAPE   C3411560   5.555   3.070   4.915  0.4901  0.0851  0.1150
  111SAPE   H4X11561   5.632   3.133   4.963 -0.8772  1.6807  0.2954
  111SAPE   H4Y11562   5.596   2.966   4.919 -1.7901 -0.8476  2.3131
  111SAPE   C3511563   5.435   3.068   5.000 -0.0833 -1.4284 -0.4242
  111SAPE   H5X11564   5.358   3.001   4.957 -1.4178  0.1739 -0.6233
  111SAPE   H5Y11565   5.407   3.175   4.990  0.7634 -1.0858  0.6773
  111SAPE   C3611566   5.452   3.031   5.149 -0.7197 -0.0838 -0.2364
  111SAPE   H6X11567   5.494   2.929   5.141 -2.0625 -0.5840 -1.3825
  111SAPE   H6Y11568   5.349   3.018   5.189 -0.7919 -1.1375 -0.7397
  111SAPE   C3711569   5.530   3.135   5.233 -0.5274 -0.3148  0.2191
  111SAPE   H7X11570   5.607   3.186   5.171  1.3816 -1.0432  1.8664
  111SAPE   H7Y11571   5.588   3.087   5.315 -2.1947 -0.3059  1.4548
  111SAPE   C3811572   5.446   3.247   5.289 -0.1134 -0.0647 -0.3510
  111SAPE   H8X11573   5.372   3.196   5.355 -0.5133 -1.0878 -1.5634
  111SAPE   H8Y11574   5.398   3.307   5.209 -0.1370  2.4418  1.4099
  111SAPE   C3911575   5.528   3.333   5.388 -1.1150  0.2968  0.7544
  111SAPE   H9X11576   5.609   3.378   5.327  0.2837  0.0617  2.3483
  111SAPE   H9Y11577   5.573   3.266   5.464 -0.5554 -2.2259 -1.6518
  111SAPE  C31011578   5.447   3.441   5.465  0.1801  0.1731  0.1092
  111SAPE  H10X11579   5.384   3.503   5.397  1.8317  0.4783 -1.2204
  111SAPE  H10Y11580   5.515   3.516   5.511 -0.2396 -0.4757  1.8291
  111SAPE  C31111581   5.369   3.382   5.582  0.5942 -0.5776  0.3645
  111SAPE  H11X11582   5.425   3.306   5.640 -0.2743 -0.9617  0.7187
  111SAPE  H11Y11583   5.277   3.334   5.543  0.1326  1.5048 -1.3023
  111SAPE  C31211584   5.339   3.485   5.692 -0.7379  0.2032 -0.5063
  111SAPE  H12X11585   5.280   3.432   5.769  0.6348 -0.7527 -0.0689
  111SAPE  H12Y11586   5.273   3.557   5.640 -0.8179 -0.3909 -1.2345
  111SAPE  C31311587   5.462   3.553   5.763 -0.4935  0.1062 -0.0373
  111SAPE  H13X11588   5.532   3.596   5.689  0.9879 -2.4084 -0.2099
  111SAPE  H13Y11589   5.527   3.475   5.807 -0.5216  0.8352  1.3422
  111SAPE  C31411590   5.423   3.654   5.875 -0.1113 -0.7262 -0.2451
  111SAPE  H14X11591   5.360   3.734   5.831  0.2446 -0.3743 -0.1161
  111SAPE  H14Y11592   5.509   3.718   5.904 -1.2102  0.4643  0.4938
  111SAPE  C31511593   5.365   3.588   6.001  0.6680  0.4392 -0.8322
  111SAPE  H15X11594   5.262   3.555   5.976  0.3210  1.5936 -0.9792
  111SAPE  H15Y11595   5.347   3.663   6.082 -0.2433  0.5437 -1.1227
  111SAPE  C31611596   5.442   3.474   6.062  0.4115 -0.0899 -0.5625
  111SAPE  H16X11597   5.547   3.500   6.084 -0.3963  2.4098  0.6592
  111SAPE  H16Y11598   5.434   3.386   5.994 -0.0180  0.4473 -1.2148
  111SAPE  C31711599   5.370   3.437   6.196 -0.7212 -0.3264  0.3996
  111SAPE  H17X11600   5.274   3.385   6.172 -2.1591  1.8158  1.1947
  111SAPE  H17Y11601   5.330   3.523   6.254 -2.0350 -1.8452  1.8632
  111SAPE  C31811602   5.454   3.350   6.292  0.5145  0.3977 -0.2602
  111SAPE  H18X11603   5.563   3.371   6.287  0.8598 -1.2746 -0.3531
  111SAPE  H18Y11604   5.448   3.243   6.260  0.4206  0.2306  0.3043
  111SAPE  H18Z11605   5.417   3.359   6.396  1.0097  0.3809 -0.0789
  112SAPE     N11606   5.150   6.611   3.346 -0.3059  0.0732 -0.0763
  112SAPE   HN111607   5.088   6.580   3.423 -0.6959 -0.9924 -0.7938
  112SAPE   HN211608   5.098   6.573   3.264 -0.7318 -1.7180  0.9779
  112SAPE   HN311609   5.237   6.556   3.364  0.0079  1.2932  2.5476
  112SAPE   C1211610   5.162   6.762   3.326  0.3018 -0.7750 -1.1670
  112SAPE  H12A11611   5.108   6.794   3.235 -3.0641 -0.6625  0.7231
  112SAPE  H12B11612   5.270   6.787   3.328  0.0332  0.4165 -0.3667
  112SAPE   C1111613   5.109   6.845   3.448  0.1330 -0.3513 -0.0837
  112SAPE  H11A11614   5.152   6.947   3.446 -0.8135  0.0703  0.3890
  112SAPE  H11B11615   5.145   6.800   3.543  1.0888 -1.0461 -0.7512
  112SAPE     P11616   4.912   7.011   3.414 -0.1835 -0.1127 -0.2025
  112SAPE   O1311617   4.984   7.077   3.303 -0.3258  0.5022  0.1934
  112SAPE   O1411618   4.764   7.018   3.399 -0.3082  1.0367 -0.2198
  112SAPE   O1211619   4.961   6.859   3.441 -0.3600  0.3804  0.5624
  112SAPE   O1111620   4.954   7.087   3.544  0.7744 -0.4567 -0.1983
  112SAPE    C111621   4.858   7.090   3.653 -0.3561 -0.1480  0.4260
  112SAPE    HA11622   4.882   7.170   3.726  0.9143  0.7101 -0.8838
  112SAPE    HB11623   4.760   7.125   3.614 -0.0746  0.7917  0.5512
  112SAPE    C211624   4.842   6.956   3.735 -0.6187  0.0621  0.1203
  112SAPE    HS11625   4.827   6.872   3.664 -1.4034  1.4920 -1.4905
  112SAPE   O2111626   4.731   6.973   3.825  0.2113  0.0672  0.0995
  112SAPE   C2111627   4.684   6.865   3.883 -0.6589 -0.0135 -0.5966
  112SAPE   O2211628   4.697   6.751   3.841 -0.0101 -0.2979 -0.1402
  112SAPE   C2211629   4.585   6.896   4.003  0.3053  0.2296 -0.1567
  112SAPE   H2R11630   4.584   7.005   4.026 -0.6615  0.0741  0.6075
  112SAPE   H2S11631   4.481   6.874   3.969 -0.0126  1.2689  0.0898
  112SAPE    C311632   4.979   6.926   3.822  0.4040  0.2195  0.0997
  112SAPE    HX11633   5.006   7.023   3.869  1.4676 -0.8242  1.7559
  112SAPE    HY11634   5.060   6.910   3.747  0.6382  0.6429  0.2546
  112SAPE   O3111635   4.972   6.818   3.914  0.3551 -0.6562 -0.4476
  112SAPE   C3111636   5.012   6.703   3.870  0.7916 -0.2388 -0.2940
  112SAPE   O3211637   5.057   6.671   3.765 -0.2979  0.1191  0.6786
  112SAPE   C3211638   4.989   6.600   3.981  0.0882 -0.2930  0.1698
  112SAPE   H2X11639   4.887   6.556   3.975 -0.4274  0.6054  1.6784
  112SAPE   H2Y11640   5.002   6.643   4.083  0.3828 -1.3815  0.6194
  112SAPE   C2311641   4.616   6.813   4.129  0.1047  0.1281  0.2671
  112SAPE   H3R11642   4.622   6.709   4.089  0.1411 -0.3281  1.4025
  112SAPE   H3S11643   4.534   6.828   4.202 -0.1413  2.2545 -0.3897
  112SAPE   C2411644   4.754   6.831   4.199  0.3521 -0.1077  1.3655
  112SAPE   H4R11645   4.766   6.935   4.235  0.0763  1.0160 -1.5805
  112SAPE   H4S11646   4.830   6.827   4.118  1.2757  0.3667  2.1882
  112SAPE   C2511647   4.777   6.717   4.298 -0.4857 -0.0388  0.4538
  112SAPE   H5R11648   4.823   6.622   4.265 -1.5350 -0.6026  0.5847
  112SAPE   C2611649   4.752   6.735   4.425 -0.0465  0.6933  0.1822
  112SAPE   H6R11650   4.772   6.652   4.494  0.5178 -0.0875 -0.9095
  112SAPE   C2711651   4.699   6.863   4.494 -1.0333  0.1141  0.1127
  112SAPE   H7R11652   4.653   6.939   4.427  1.5630  2.5654  0.9116
  112SAPE   H7S11653   4.786   6.918   4.536  0.2981 -1.2136 -0.7942
  112SAPE   C2811654   4.592   6.828   4.594 -0.3333 -0.4874 -0.8723
  112SAPE   H8R11655   4.497   6.793   4.552 -1.8189  0.2923  1.6337
  112SAPE   C2911656   4.596   6.832   4.727  0.5671 -0.0284  0.3520
  112SAPE   H9R11657   4.507   6.791   4.777  0.1969 -1.5805 -1.4596
  112SAPE  C21011658   4.700   6.885   4.822  0.1097  0.6077  0.4067
  112SAPE  H10R11659   4.798   6.855   4.779  0.0954  0.1905  0.6563
  112SAPE  H10S11660   4.701   6.838   4.923  0.4542  2.5664  1.3577
  112SAPE  C21111661   4.695   7.036   4.829 -0.8060  0.7745 -0.1222
  112SAPE  H11R11662   4.719   7.088   4.736  1.2571  1.3130  0.6458
  112SAPE  C21211663   4.676   7.118   4.931 -0.2583  0.0069 -0.0569
  112SAPE  H12R11664   4.683   7.227   4.920  0.8849 -0.1973 -1.7719
  112SAPE  C21311665   4.644   7.069   5.071  1.1176  1.2432 -0.0250
  112SAPE  H13R11666   4.745   7.043   5.109  0.9411 -0.7366 -0.8109
  112SAPE  H13S11667   4.578   6.980   5.069 -0.1252  2.1361  0.0304
  112SAPE  C21411668   4.582   7.169   5.164 -0.7616  0.2680  0.0282
  112SAPE  H14R11669   4.486   7.214   5.134 -1.5057 -0.7530  0.8167
  112SAPE  C21511670   4.627   7.192   5.286  0.2071  0.4627 -0.9710
  112SAPE  H15R11671   4.564   7.262   5.342 -1.5654 -1.5898 -0.2721
  112SAPE  C21611672   4.737   7.125   5.366  0.0829 -0.3315  0.2616
  112SAPE  H16R11673   4.840   7.128   5.323  0.1663  0.4944  0.5035
  112SAPE  H16S11674   4.719   7.017   5.384  3.3872 -0.7105  1.9970
  112SAPE  C21711675   4.738   7.189   5.495  0.4373  0.4727 -0.2331
  112SAPE  H17R11676   4.643   7.175   5.550  0.3167  0.4939 -0.4363
  112SAPE  H17S11677   4.762   7.296   5.477  0.2854  0.0785 -3.3602
  112SAPE  C21811678   4.853   7.141   5.582 -0.3572  0.7271  0.4373
  112SAPE  H18R11679   4.953   7.155   5.536 -0.2275  0.2607  0.5673
  112SAPE  H18S11680   4.843   7.030   5.591 -2.7919  0.8361 -0.1760
  112SAPE  C21911681   4.845   7.204   5.714 -0.2682 -0.2656  0.0740
  112SAPE  H19R11682   4.742   7.187   5.752 -0.2321  1.9753  1.2918
  112SAPE  H19S11683   4.857   7.314   5.704 -2.1219  0.0713  1.2391
  112SAPE  C22011684   4.957   7.157   5.802  0.5780  0.1031  0.5021
  112SAPE  H20R11685   4.986   7.055   5.769 -1.3603 -0.0528 -0.9085
  112SAPE  H20S11686   4.928   7.170   5.909  1.2241  0.4053  0.6403
  112SAPE  H20T11687   5.045   7.224   5.792  0.0089  0.9232  0.9202
  112SAPE   C3311688   5.093   6.488   3.974 -0.2608 -0.1179 -0.2201
  112SAPE   H3X11689   5.187   6.534   4.011 -1.2959  1.3078  0.7501
  112SAPE   H3Y11690   5.119   6.454   3.871  2.5050 -0.0676  0.3910
  112SAPE   C3411691   5.052   6.366   4.065 -0.8618 -0.5796 -0.4231
  112SAPE   H4X11692   5.123   6.281   4.059  1.5785  1.0670  2.2178
  112SAPE   H4Y11693   4.964   6.320   4.016 -0.8473  1.1501 -2.2402
  112SAPE   C3511694   5.021   6.403   4.218  0.9274  0.2175  1.2469
  112SAPE   H5X11695   4.928   6.463   4.207  0.0187 -1.5119 -1.5054
  112SAPE   H5Y11696   5.101   6.469   4.256  0.1390  0.8563  1.8299
  112SAPE   C3611697   5.010   6.283   4.301 -0.0933  0.0570 -0.1479
  112SAPE   H6X11698   5.109   6.234   4.306 -0.2337 -0.1754  0.4230
  112SAPE   H6Y11699   4.942   6.214   4.247 -1.3867 -0.4260  1.9771
  112SAPE   C3711700   4.964   6.310   4.439  0.3647 -0.2663 -0.5813
  112SAPE   H7X11701   4.920   6.224   4.494  2.4558 -1.4385 -0.6415
  112SAPE   H7Y11702   4.877   6.379   4.431  0.4304 -0.1702 -0.4791
  112SAPE   C3811703   5.076   6.375   4.520 -0.2315  0.5062 -0.0568
  112SAPE   H8X11704   5.099   6.475   4.477 -1.1332  0.5088 -0.5450
  112SAPE   H8Y11705   5.165   6.309   4.517  1.4363  2.1087  4.6131
  112SAPE   C3911706   5.040   6.398   4.667 -0.8650 -0.4888 -1.2123
  112SAPE   H9X11707   5.128   6.442   4.717 -0.7076 -0.1953 -1.7419
  112SAPE   H9Y11708   5.017   6.304   4.721 -0.9765 -0.9066 -1.9638
  112SAPE  C31011709   4.918   6.490   4.691 -0.3167 -0.0964  0.3480
  112SAPE  H10X11710   4.842   6.444   4.624  0.8085  2.7345 -3.1476
  112SAPE  H10Y11711   4.930   6.594   4.656  2.0769 -0.5013 -0.2434
  112SAPE  C31111712   4.874   6.467   4.833 -0.0050  0.2704 -0.2043
  112SAPE  H11X11713   4.853   6.358   4.845 -1.1173  0.3319 -1.4069
  112SAPE  H11Y11714   4.775   6.515   4.846  0.0772 -0.1898  2.6736
  112SAPE  C31211715   4.966   6.528   4.941 -0.7297  0.4592 -0.1455
  112SAPE  H12X11716   5.010   6.624   4.905  0.9588 -0.3686 -0.4156
  112SAPE  H12Y11717   5.050   6.455   4.946 -0.4182  0.8484  0.4552
  112SAPE  C31311718   4.904   6.544   5.079 -0.4420  0.1064 -0.5030
  112SAPE  H13X11719   4.841   6.454   5.095 -1.1481  0.4794 -1.1314
  112SAPE  H13Y11720   4.834   6.630   5.085 -0.0567  0.3203  1.7834
  112SAPE  C31411721   5.010   6.548   5.193  0.2632 -0.1231  0.0962
  112SAPE  H14X11722   5.055   6.649   5.186 -3.6916  1.6666 -2.7864
  112SAPE  H14Y11723   5.084   6.466   5.181 -0.2540 -0.4558 -0.8901
  112SAPE  C31511724   4.959   6.526   5.337  0.3025  0.1898  0.0037
  112SAPE  H15X11725   5.042   6.484   5.397  1.0815 -0.2741 -1.3647
  112SAPE  H15Y11726   4.872   6.457   5.341  0.3825 -0.2159 -2.9656
  112SAPE  C31611727   4.917   6.665   5.386 -0.3879  0.6041  0.0590
  112SAPE  H16X11728   4.844   6.710   5.315  0.5686 -2.3732 -3.0278
  112SAPE  H16Y11729   5.007   6.731   5.384  0.4739 -0.1291  4.1945
  112SAPE  C31711730   4.872   6.666   5.537  0.1206 -0.0348 -0.5524
  112SAPE  H17X11731   4.769   6.628   5.548 -0.1205  1.0472  1.5440
  112SAPE  H17Y11732   4.876   6.771   5.575 -0.4971 -0.3767  0.4999
  112SAPE  C31811733   4.965   6.589   5.639  0.4130 -0.6863  0.0493
  112SAPE  H18X11734   4.913   6.575   5.736  1.2946 -2.9463  0.2440
  112SAPE  H18Y11735   5.055   6.650   5.662  0.2147 -0.4355  0.1530
  112SAPE  H18Z11736   4.991   6.490   5.594 -1.0571 -0.7541 -0.7021
  113SAPE     N11737   3.867   2.953   4.086 -0.8899 -0.5563 -0.0642
  113SAPE   HN111738   3.837   2.863   4.043  1.3373 -0.8081 -1.2593
  113SAPE   HN211739   3.795   3.020   4.118 -0.6183  0.3841 -1.3352
  113SAPE   HN311740   3.930   3.003   4.019  2.1356 -4.2326 -0.3114
  113SAPE   C1211741   3.974   2.917   4.186 -0.2009  0.7630  0.2479
  113SAPE  H12A11742   4.026   2.834   4.133 -0.9897  0.0858  0.5189
  113SAPE  H12B11743   3.930   2.867   4.276  0.3251  0.1480  0.1741
  113SAPE   C1111744   4.057   3.035   4.226 -0.9756 -1.0692  0.4959
  113SAPE  H11A11745   4.161   3.007   4.255  0.2175  1.0667 -1.3872
  113SAPE  H11B11746   4.001   3.074   4.314 -0.5586 -0.6896  0.6006
  113SAPE     P11747   4.184   3.241   4.098  0.0089  0.3431 -0.4018
  113SAPE   O1311748   4.306   3.174   4.058 -0.3140 -0.1604 -0.1474
  113SAPE   O1411749   4.125   3.342   4.010  0.1248  0.4587 -0.1805
  113SAPE   O1211750   4.069   3.127   4.117 -0.0864  0.3594  0.2188
  113SAPE   O1111751   4.197   3.290   4.248  0.6920 -0.2859  0.3780
  113SAPE    C111752   4.299   3.380   4.276 -0.5040  0.4411  0.3249
  113SAPE    HA11753   4.328   3.451   4.195 -1.0696  1.7749  1.2475
  113SAPE    HB11754   4.268   3.447   4.359  0.8332  0.8904  0.4997
  113SAPE    C211755   4.436   3.319   4.325  0.1973 -0.5230 -0.8618
  113SAPE    HS11756   4.469   3.262   4.235 -1.2446  0.8122 -2.2841
  113SAPE   O2111757   4.406   3.222   4.431 -0.4341  0.2829 -0.1796
  113SAPE   C2111758   4.509   3.163   4.473  0.1700  0.0525 -0.0941
  113SAPE   O2211759   4.622   3.158   4.422  0.2347  0.1521 -0.7899
  113SAPE   C2211760   4.469   3.104   4.612  0.5428  0.1296  0.7732
  113SAPE   H2R11761   4.443   3.195   4.670  0.1031  1.1729 -0.9904
  113SAPE   H2S11762   4.374   3.049   4.602  1.8574 -2.0060 -1.1178
  113SAPE    C311763   4.537   3.427   4.376 -0.5098 -0.8853  0.0804
  113SAPE    HX11764   4.539   3.509   4.301 -0.0975  0.0277  1.0668
  113SAPE    HY11765   4.637   3.378   4.374 -0.2257 -0.2966 -0.2494
  113SAPE   O3111766   4.506   3.474   4.513 -0.2503 -0.7109  0.2065
  113SAPE   C3111767   4.521   3.601   4.531  0.2462 -0.0056  1.0107
  113SAPE   O3211768   4.533   3.684   4.443  0.1135 -0.0172  0.0160
  113SAPE   C3211769   4.527   3.636   4.678  0.4391  0.5774 -0.8555
  113SAPE   H2X11770   4.631   3.660   4.709  0.8000 -0.0531 -1.5370
  113SAPE   H2Y11771   4.494   3.550   4.740  1.2240  1.1482  0.3910
  113SAPE   C2311772   4.576   3.014   4.676 -0.2380  0.9572  0.3466
  113SAPE   H3R11773   4.678   3.057   4.668  0.0871  0.0213 -0.9351
  113SAPE   H3S11774   4.578   2.916   4.624  1.8171  0.5076  1.1996
  113SAPE   C2411775   4.540   2.985   4.827 -0.6219  0.4543  0.1221
  113SAPE   H4R11776   4.525   3.083   4.878  1.8163  0.6397  0.6177
  113SAPE   H4S11777   4.633   2.939   4.866 -0.5626  0.1998 -0.3145
  113SAPE   C2511778   4.414   2.899   4.843  0.2867 -0.6379 -0.0096
  113SAPE   H5R11779   4.429   2.793   4.818 -0.3881 -0.4289 -1.3544
  113SAPE   C2611780   4.295   2.944   4.895  0.2061 -0.4534 -0.7326
  113SAPE   H6R11781   4.211   2.875   4.904 -0.0263 -0.0486  0.3101
  113SAPE   C2711782   4.258   3.089   4.934  0.5309 -0.1672  0.8412
  113SAPE   H7R11783   4.234   3.150   4.844 -0.4490 -3.0695 -1.0005
  113SAPE   H7S11784   4.345   3.141   4.980  0.4704  0.5826  0.1421
  113SAPE   C2811785   4.123   3.096   5.004  0.1620  0.1492 -0.1752
  113SAPE   H8R11786   4.038   3.080   4.937 -0.0037  1.1926 -0.2424
  113SAPE   C2911787   4.084   3.155   5.118 -0.3718  0.6911  0.1109
  113SAPE   H9R11788   3.976   3.161   5.137 -0.6858  2.2967 -1.8165
  113SAPE  C21011789   4.183   3.208   5.211  0.1252  0.3533  0.3643
  113SAPE  H10R11790   4.241   3.294   5.171  2.6305 -0.4548  2.0098
  113SAPE  H10S11791   4.267   3.140   5.236  0.1955  0.8044  1.4065
  113SAPE  C21111792   4.118   3.266   5.335  0.4290  0.1836 -0.0596
  113SAPE  H11R11793   4.138   3.374   5.336  1.3939  0.0138  1.2822
  113SAPE  C21211794   4.046   3.208   5.435 -0.2065 -0.0096 -0.2804
  113SAPE  H12R11795   4.009   3.266   5.522 -1.1208 -3.1729  1.5998
  113SAPE  C21311796   4.011   3.064   5.450  0.3552 -0.0630  0.4657
  113SAPE  H13R11797   4.013   3.008   5.353  0.9712 -1.2881  1.1555
  113SAPE  H13S11798   3.903   3.055   5.475  0.1579  0.4305 -0.1849
  113SAPE  C21411799   4.091   2.977   5.545  0.0101 -0.6425  0.2260
  113SAPE  H14R11800   4.200   2.991   5.535 -0.1061 -1.5071 -4.2510
  113SAPE  C21511801   4.048   2.885   5.634 -0.1410 -0.4192 -0.3638
  113SAPE  H15R11802   4.128   2.839   5.694 -0.9763  0.5948  1.6310
  113SAPE  C21611803   3.907   2.835   5.639  0.6004  0.4216 -0.4880
  113SAPE  H16R11804   3.891   2.787   5.540  0.9439  1.8619 -1.2653
  113SAPE  H16S11805   3.834   2.918   5.644  1.3071  1.0438  3.6503
  113SAPE  C21711806   3.877   2.733   5.753 -0.2121  0.6807 -0.0064
  113SAPE  H17R11807   3.942   2.643   5.745 -1.1273 -0.0064  0.0803
  113SAPE  H17S11808   3.771   2.700   5.741 -0.8177  2.7962 -0.7659
  113SAPE  C21811809   3.886   2.795   5.888  0.1835  0.1356  0.4077
  113SAPE  H18R11810   3.829   2.891   5.891  0.5856  0.5387 -2.3180
  113SAPE  H18S11811   3.990   2.818   5.920  0.6056 -0.3958 -0.5429
  113SAPE  C21911812   3.817   2.700   5.991  0.0549  0.0460 -0.2365
  113SAPE  H19R11813   3.866   2.601   6.004 -0.2049  0.2529  2.8175
  113SAPE  H19S11814   3.711   2.676   5.968  0.3389 -0.6914 -0.8499
  113SAPE  C22011815   3.826   2.763   6.132 -0.3112  0.2105 -0.2320
  113SAPE  H20R11816   3.791   2.868   6.136  3.2137  1.4670  1.9106
  113SAPE  H20S11817   3.933   2.763   6.162 -1.1157 -1.8288  3.1951
  113SAPE  H20T11818   3.762   2.711   6.207  1.6572  1.6517  2.6098
  113SAPE   C3311819   4.436   3.754   4.714  0.4661  0.7482  0.3717
  113SAPE   H3X11820   4.330   3.720   4.708 -0.2031  2.8696 -1.4327
  113SAPE   H3Y11821   4.455   3.829   4.634  1.3191 -1.5446 -1.6840
  113SAPE   C3411822   4.457   3.826   4.856 -0.0143 -0.4719 -1.0185
  113SAPE   H4X11823   4.389   3.914   4.861 -0.6874 -1.0109 -0.4720
  113SAPE   H4Y11824   4.560   3.868   4.858 -0.5745  1.0373 -2.0858
  113SAPE   C3511825   4.421   3.741   4.977 -0.1106 -0.1173  0.5877
  113SAPE   H5X11826   4.490   3.654   4.975  0.2388  0.1783 -0.9514
  113SAPE   H5Y11827   4.313   3.716   4.979 -0.2348  0.3868  0.3521
  113SAPE   C3611828   4.440   3.817   5.119 -0.0152  0.3699  0.4241
  113SAPE   H6X11829   4.388   3.914   5.104  1.7482  1.2200 -0.3806
  113SAPE   H6Y11830   4.549   3.834   5.124 -0.1440  0.8779  2.9298
  113SAPE   C3711831   4.395   3.752   5.247  0.2745 -0.1214  0.1648
  113SAPE   H7X11832   4.390   3.645   5.217 -1.4190  0.3399 -1.3465
  113SAPE   H7Y11833   4.291   3.785   5.268  1.3471  2.3430  2.0807
  113SAPE   C3811834   4.498   3.776   5.360 -0.4772  0.6688  0.0569
  113SAPE   H8X11835   4.597   3.730   5.335 -0.2127  0.5333  1.2731
  113SAPE   H8Y11836   4.518   3.885   5.364  2.0798  0.3683 -1.6567
  113SAPE   C3911837   4.456   3.726   5.504 -0.4400  0.3050  0.3327
  113SAPE   H9X11838   4.368   3.791   5.526 -1.8446 -0.4240 -2.7082
  113SAPE   H9Y11839   4.529   3.752   5.584  1.1404 -2.8995  0.0809
  113SAPE  C31011840   4.448   3.573   5.515  0.7493  0.1372 -0.4128
  113SAPE  H10X11841   4.550   3.534   5.496  1.6437  1.0237  2.1821
  113SAPE  H10Y11842   4.376   3.533   5.440  0.2173 -1.4000  0.8636
  113SAPE  C31111843   4.392   3.528   5.651  0.8799 -0.2989  0.0596
  113SAPE  H11X11844   4.346   3.429   5.631  0.4742  0.4607 -3.3526
  113SAPE  H11Y11845   4.307   3.587   5.691  0.1543 -0.9230 -0.5247
  113SAPE  C31211846   4.501   3.509   5.763  0.1895  0.0657 -0.1525
  113SAPE  H12X11847   4.548   3.608   5.785 -0.2070 -0.1255  1.7246
  113SAPE  H12Y11848   4.571   3.431   5.727  1.3063  0.3707  1.2638
  113SAPE  C31311849   4.442   3.453   5.895  0.1986 -0.0430  0.1110
  113SAPE  H13X11850   4.398   3.353   5.877 -0.6344  0.4015 -0.3520
  113SAPE  H13Y11851   4.362   3.521   5.932 -0.9253 -2.3803  2.2802
  113SAPE  C31411852   4.549   3.436   6.001  0.4473  0.2377 -0.5322
  113SAPE  H14X11853   4.618   3.524   6.003  1.6676 -0.6984  0.7347
  113SAPE  H14Y11854   4.599   3.339   5.981 -2.6105 -1.3114 -1.2303
  113SAPE  C31511855   4.479   3.433   6.139  0.2380 -1.2142 -0.2757
  113SAPE  H15X11856   4.419   3.524   6.156  1.7289 -0.3450  0.5637
  113SAPE  H15Y11857   4.558   3.435   6.217 -0.5272  0.8511  0.4906
  113SAPE  C31611858   4.384   3.316   6.162 -0.6533 -0.4842  0.6568
  113SAPE  H16X11859   4.432   3.228   6.115  0.1200 -0.5063  1.4649
  113SAPE  H16Y11860   4.287   3.341   6.114 -0.6405  0.1747  0.9614
  113SAPE  C31711861   4.367   3.290   6.312  0.1485 -0.1925 -0.0533
  113SAPE  H17X11862   4.313   3.381   6.346  1.3376  0.2295  0.7511
  113SAPE  H17Y11863   4.463   3.281   6.367 -0.0051 -2.7348 -0.0710
  113SAPE  C31811864   4.286   3.163   6.346  0.9006 -0.1033 -0.1336
  113SAPE  H18X11865   4.261   3.167   6.454 -0.1387 -0.6227 -0.3355
  113SAPE  H18Y11866   4.328   3.062   6.326 -2.3135 -1.9162  1.5309
  113SAPE  H18Z11867   4.196   3.156   6.281  0.7747 -2.4676  0.2020
  114SAPE     N11868   0.014   3.554   3.446  0.5669  0.1279 -0.0551
  114SAPE   HN111869   0.093   3.521   3.505  0.0009 -0.9588  0.1349
  114SAPE   HN211870   0.050   3.580   3.352 -1.0384  1.9214 -0.2384
  114SAPE   HN311871  -0.038   3.635   3.485 -0.7115 -0.4830 -0.4204
  114SAPE   C1211872  -0.097   3.455   3.450  0.7728  0.7440  0.3178
  114SAPE  H12A11873  -0.097   3.414   3.553  0.2727  3.2597  1.3829
  114SAPE  H12B11874  -0.067   3.369   3.386  1.0131 -0.9976  2.6258
  114SAPE   C1111875  -0.235   3.515   3.412  0.5079 -0.2627 -0.3304
  114SAPE  H11A11876  -0.309   3.433   3.395  1.3921 -1.6324  1.8836
  114SAPE  H11B11877  -0.231   3.566   3.314  1.1948  1.4991  0.5734
  114SAPE     P11878  -0.384   3.568   3.630  0.1593  0.2780  0.4154
  114SAPE   O1311879  -0.460   3.682   3.679  0.6925  0.7716  0.3258
  114SAPE   O1411880  -0.459   3.441   3.597 -0.2975  0.0210  0.8190
  114SAPE   O1211881  -0.289   3.609   3.507 -0.3947  0.0349 -0.5850
  114SAPE   O1111882  -0.269   3.523   3.735  0.5400 -0.5582  0.2162
  114SAPE    C111883  -0.273   3.593   3.868  0.3596  0.7133  0.8658
  114SAPE    HA11884  -0.172   3.594   3.914  1.6085 -3.3224 -1.2472
  114SAPE    HB11885  -0.325   3.691   3.866  0.0792  0.5919 -1.3345
  114SAPE    C211886  -0.363   3.514   3.965  0.1128  0.0746 -1.0361
  114SAPE    HS11887  -0.465   3.499   3.924 -1.2354 -0.8590  2.3893
  114SAPE   O2111888  -0.377   3.593   4.084  0.4180 -0.3447 -0.3745
  114SAPE   C2111889  -0.473   3.557   4.174 -0.1447 -0.0403 -0.8233
  114SAPE   O2211890  -0.523   3.447   4.182  0.2518 -0.2571  0.0411
  114SAPE   C2211891  -0.506   3.671   4.265  0.8911 -1.3823  0.3767
  114SAPE   H2R11892  -0.410   3.691   4.319  0.2713  0.7489  0.7855
  114SAPE   H2S11893  -0.525   3.764   4.207  0.3527 -1.1466  0.9158
  114SAPE    C311894  -0.287   3.382   4.005 -1.3568  0.4704  0.5186
  114SAPE    HX11895  -0.273   3.317   3.916 -0.6947 -0.5561  1.3590
  114SAPE    HY11896  -0.355   3.333   4.078  0.7031  1.0645  2.9779
  114SAPE   O3111897  -0.152   3.406   4.054 -0.5631 -0.3310  0.0337
  114SAPE   C3111898  -0.135   3.406   4.188 -0.0368  0.3379 -0.1441
  114SAPE   O3211899  -0.224   3.386   4.264 -0.1305  0.9759  0.1578
  114SAPE   C3211900   0.019   3.410   4.225 -0.1894  0.3408 -0.5701
  114SAPE   H2X11901   0.074   3.486   4.166 -0.1036  0.8335  0.1396
  114SAPE   H2Y11902   0.054   3.310   4.190 -0.8859  0.0727 -0.5243
  114SAPE   C2311903  -0.614   3.646   4.369 -0.1005  0.2569 -0.2176
  114SAPE   H3R11904  -0.696   3.592   4.316 -0.7929  2.3660 -1.4385
  114SAPE   H3S11905  -0.667   3.739   4.400  0.0117  0.0347  0.6733
  114SAPE   C2411906  -0.571   3.571   4.497  0.3094 -0.3502 -0.0062
  114SAPE   H4R11907  -0.510   3.483   4.468 -1.1970 -1.6566  0.6234
  114SAPE   H4S11908  -0.668   3.537   4.541  0.5873 -3.4910 -1.5058
  114SAPE   C2511909  -0.507   3.661   4.601 -0.1536  0.0441  0.2716
  114SAPE   H5R11910  -0.416   3.713   4.567  0.0002 -0.5857 -0.2962
  114SAPE   C2611911  -0.551   3.677   4.728 -0.0659 -0.1956  0.2938
  114SAPE   H6R11912  -0.502   3.751   4.793 -2.0360 -0.0177  1.6589
  114SAPE   C2711913  -0.667   3.607   4.788 -0.3372  0.4339 -0.2634
  114SAPE   H7R11914  -0.647   3.501   4.814 -2.3999 -0.0240 -0.3220
  114SAPE   H7S11915  -0.756   3.603   4.722 -2.3141 -0.8233  2.2684
  114SAPE   C2811916  -0.717   3.672   4.914  0.4427 -0.1439  0.4029
  114SAPE   H8R11917  -0.677   3.632   5.009  1.2421 -2.0402 -0.6692
  114SAPE   C2911918  -0.790   3.783   4.915  0.1392 -0.3913  0.4268
  114SAPE   H9R11919  -0.820   3.823   5.013 -0.1163  0.1130  0.1488
  114SAPE  C21011920  -0.839   3.864   4.803  0.8556  0.1147  0.1874
  114SAPE  H10R11921  -0.948   3.875   4.822  0.7203 -1.5607  0.4660
  114SAPE  H10S11922  -0.833   3.812   4.705 -0.7184  2.4473 -1.2429
  114SAPE  C21111923  -0.780   4.000   4.790 -0.3786  0.4426  0.1469
  114SAPE  H11R11924  -0.677   3.994   4.750  0.4310  0.7499  2.0583
  114SAPE  C21211925  -0.823   4.116   4.845 -0.0161  0.0885  0.1304
  114SAPE  H12R11926  -0.762   4.206   4.827 -0.0841 -0.0650 -0.9688
  114SAPE  C21311927  -0.955   4.141   4.920 -0.1181 -0.2988 -0.0463
  114SAPE  H13R11928  -0.921   4.197   5.010 -1.1999  0.1804  0.0785
  114SAPE  H13S11929  -0.997   4.048   4.965 -0.2512 -0.0415  0.3693
  114SAPE  C21411930  -1.059   4.206   4.829  0.0256  0.0623  0.4745
  114SAPE  H14R11931  -1.033   4.210   4.722 -2.0622  1.4354 -0.0497
  114SAPE  C21511932  -1.163   4.276   4.869 -0.0596  0.7220  0.2525
  114SAPE  H15R11933  -1.236   4.313   4.795  0.3612  2.6403  0.7443
  114SAPE  C21611934  -1.211   4.269   5.011 -0.4028  0.3851 -0.4407
  114SAPE  H16R11935  -1.169   4.347   5.079 -0.6148  1.0301 -1.0350
  114SAPE  H16S11936  -1.182   4.171   5.054  0.8978  0.9224 -0.0683
  114SAPE  C21711937  -1.372   4.262   5.029  0.0704  0.0981  0.8469
  114SAPE  H17R11938  -1.404   4.164   4.986 -0.7405 -0.1731  2.0174
  114SAPE  H17S11939  -1.421   4.352   4.986  1.6460  0.4209 -0.3557
  114SAPE  C21811940  -1.413   4.256   5.176 -0.3052  0.6184 -0.0919
  114SAPE  H18R11941  -1.342   4.179   5.213  1.7869  2.0769 -0.8729
  114SAPE  H18S11942  -1.516   4.216   5.181  0.8570 -2.7597 -0.7902
  114SAPE  C21911943  -1.399   4.382   5.261 -0.7002 -0.3909  0.9198
  114SAPE  H19R11944  -1.467   4.456   5.213  1.9848  1.5286 -0.1601
  114SAPE  H19S11945  -1.296   4.423   5.262 -0.5252 -0.8090  0.4912
  114SAPE  C22011946  -1.432   4.364   5.408 -0.7142  0.7956 -1.0261
  114SAPE  H20R11947  -1.536   4.329   5.426 -0.3756  0.2128 -0.1504
  114SAPE  H20S11948  -1.423   4.444   5.484 -1.2936 -1.1731  1.2207
  114SAPE  H20T11949  -1.365   4.286   5.449  1.2797  2.0032 -1.8483
  114SAPE   C3311950   0.049   3.403   4.385  0.6535  0.1066 -0.0539
  114SAPE   H3X11951  -0.018   3.327   4.432  0.0168  1.3711  1.1745
  114SAPE   H3Y11952   0.029   3.504   4.426  2.0830 -0.0112  0.9983
  114SAPE   C3411953   0.191   3.359   4.420 -0.2403  0.7688  0.1494
  114SAPE   H4X11954   0.261   3.442   4.396  0.5471  0.5263  1.5229
  114SAPE   H4Y11955   0.215   3.267   4.364 -1.1704 -1.2154  2.7925
  114SAPE   C3511956   0.221   3.325   4.571  0.2994  0.0434 -0.3816
  114SAPE   H5X11957   0.142   3.382   4.624 -0.9039 -0.4527 -1.5702
  114SAPE   H5Y11958   0.323   3.362   4.596  0.9012 -2.0390  0.4675
  114SAPE   C3611959   0.202   3.178   4.618 -0.7401 -0.1376 -1.0163
  114SAPE   H6X11960   0.270   3.110   4.563  1.8362  0.9945  0.5785
  114SAPE   H6Y11961   0.100   3.137   4.601 -0.4983 -2.3134  1.9894
  114SAPE   C3711962   0.239   3.147   4.760  0.0135 -1.0364 -0.7302
  114SAPE   H7X11963   0.347   3.168   4.775  0.7636 -4.1290 -1.1211
  114SAPE   H7Y11964   0.220   3.038   4.770 -0.4292 -0.8286  1.0587
  114SAPE   C3811965   0.160   3.229   4.864 -0.0348 -0.1109 -0.7026
  114SAPE   H8X11966   0.049   3.231   4.857 -0.1854 -1.8616  0.4612
  114SAPE   H8Y11967   0.206   3.330   4.871 -0.8413  0.1983  0.3372
  114SAPE   C3911968   0.195   3.183   5.008 -0.1297 -0.2079  0.6481
  114SAPE   H9X11969   0.304   3.199   5.023  0.0320 -1.3014  0.7311
  114SAPE   H9Y11970   0.176   3.073   5.014  0.6688 -0.5021 -1.3151
  114SAPE  C31011971   0.125   3.259   5.125 -0.5634 -0.1122  0.2978
  114SAPE  H10X11972   0.020   3.228   5.143 -0.7574  0.1005 -0.4172
  114SAPE  H10Y11973   0.116   3.366   5.097  0.6448 -0.4156 -1.4252
  114SAPE  C31111974   0.217   3.221   5.252  0.6985 -0.9509 -0.0075
  114SAPE  H11X11975   0.320   3.255   5.228 -0.4553  0.9764 -2.7137
  114SAPE  H11Y11976   0.203   3.113   5.273 -1.7361 -1.0154 -1.4766
  114SAPE  C31211977   0.182   3.288   5.382 -0.0656 -0.6680 -0.8241
  114SAPE  H12X11978   0.109   3.226   5.438  1.2172 -1.7894 -0.3448
  114SAPE  H12Y11979   0.153   3.393   5.361  1.3875  0.0003  0.2976
  114SAPE  C31311980   0.300   3.302   5.480 -0.1063 -0.1142  0.5718
  114SAPE  H13X11981   0.269   3.357   5.571 -5.1419 -0.8033 -0.4288
  114SAPE  H13Y11982   0.385   3.355   5.430  0.5569 -1.4084  0.2774
  114SAPE  C31411983   0.352   3.165   5.540  0.1778  0.2900  0.7234
  114SAPE  H14X11984   0.377   3.096   5.457  2.2267  3.4734 -1.5496
  114SAPE  H14Y11985   0.273   3.121   5.605  2.2384 -1.8334  1.9597
  114SAPE  C31511986   0.476   3.184   5.618  0.1062  0.7106  0.6423
  114SAPE  H15X11987   0.468   3.272   5.685  0.3221  1.3999 -0.2199
  114SAPE  H15Y11988   0.561   3.181   5.546 -2.5152 -0.5478 -2.7182
  114SAPE  C31611989   0.502   3.069   5.713 -0.8945  0.3298  0.0206
  114SAPE  H16X11990   0.433   3.062   5.799  0.3087 -4.1218  0.8691
  114SAPE  H16Y11991   0.606   3.073   5.752 -0.7686 -2.5827  0.1659
  114SAPE  C31711992   0.513   2.930   5.652  0.2963 -0.6513 -0.2603
  114SAPE  H17X11993   0.412   2.892   5.625  0.0381 -0.7879  0.8649
  114SAPE  H17Y11994   0.532   2.872   5.745 -2.4967 -0.4873  0.5119
  114SAPE  C31811995   0.614   2.912   5.537 -0.5636 -0.2693 -0.3218
  114SAPE  H18X11996   0.703   2.974   5.560 -2.1876  0.8632  3.7217
  114SAPE  H18Y11997   0.570   2.960   5.446 -1.3502  1.0298  0.7143
  114SAPE  H18Z11998   0.637   2.803   5.529 -1.3150 -0.6129  1.7573
  115SAPE     N11999   5.322   0.795   3.186 -0.1632  0.7271 -0.4250
  115SAPE   HN112000   5.284   0.879   3.138 -3.7373 -0.5648 -0.1637
  115SAPE   HN212001   5.404   0.758   3.133 -2.1000 -1.0650 -2.3787
  115SAPE   HN312002   5.244   0.730   3.166  0.7256 -0.5973  0.2353
  115SAPE   C1212003   5.347   0.806   3.340  0.1109 -0.4157 -0.3065
  115SAPE  H12A12004   5.248   0.785   3.387  0.1417  1.8074  0.8584
  115SAPE  H12B12005   5.371   0.913   3.358  0.2809 -0.7001  1.3295
  115SAPE   C1112006   5.464   0.709   3.378  0.6672 -0.4590 -0.8969
  115SAPE  H11A12007   5.501   0.752   3.474  0.1003  2.6665 -1.9641
  115SAPE  H11B12008   5.539   0.736   3.301  0.3928  0.3951 -0.8777
  115SAPE     P12009   5.383   0.491   3.518  0.0579  0.2363 -0.2552
  115SAPE   O1312010   5.252   0.433   3.479  0.5274  0.3037 -0.8854
  115SAPE   O1412011   5.481   0.386   3.550 -0.3579 -0.0785 -1.2196
  115SAPE   O1212012   5.433   0.571   3.389  0.5654  0.0285  0.1009
  115SAPE   O1112013   5.375   0.603   3.634 -0.4379  0.3973  0.1944
  115SAPE    C112014   5.500   0.622   3.709  0.6170 -0.2232  0.1547
  115SAPE    HA12015   5.591   0.613   3.646 -0.7034  0.5983 -1.9678
  115SAPE    HB12016   5.506   0.725   3.751  0.8438  0.1440 -0.7573
  115SAPE    C212017   5.518   0.536   3.838  0.1020  0.2472 -0.1400
  115SAPE    HS12018   5.623   0.550   3.870  0.0472  1.9733 -0.6468
  115SAPE   O2112019   5.468   0.406   3.813 -0.4697 -0.4670  0.2337
  115SAPE   C2112020   5.515   0.298   3.878 -0.0207  0.5190 -0.0497
  115SAPE   O2212021   5.604   0.300   3.959  0.6295  0.9659 -0.2426
  115SAPE   C2212022   5.439   0.175   3.828 -0.2811  0.6048  0.6774
  115SAPE   H2R12023   5.337   0.212   3.806  0.6661  3.2553  0.4119
  115SAPE   H2S12024   5.485   0.138   3.733  0.1586 -0.3051  1.2236
  115SAPE    C312025   5.443   0.594   3.960  0.1145  0.3407  0.3752
  115SAPE    HX12026   5.336   0.597   3.931  0.5964  0.1518 -1.5054
  115SAPE    HY12027   5.477   0.699   3.970  1.2616  0.1202 -1.0133
  115SAPE   O3112028   5.461   0.510   4.075 -0.3873 -0.1924  0.2338
  115SAPE   C3112029   5.583   0.516   4.136  0.6000  0.0161  0.2980
  115SAPE   O3212030   5.680   0.580   4.094 -0.1601  0.0111 -0.4293
  115SAPE   C3212031   5.575   0.429   4.257 -0.1841  0.1175 -0.4180
  115SAPE   H2X12032   5.652   0.462   4.329  0.7507 -3.3223  0.3679
  115SAPE   H2Y12033   5.619   0.333   4.220 -2.5897 -0.3161 -2.4953
  115SAPE   C2312034   5.445   0.049   3.919  0.2000  0.2781 -0.0043
  115SAPE   H3R12035   5.542   0.055   3.972  0.6375  0.1983 -0.7788
  115SAPE   H3S12036   5.437  -0.047   3.864 -2.3961 -0.0182  0.7609
  115SAPE   C2412037   5.316   0.056   4.008  0.2774 -0.3891 -1.0898
  115SAPE   H4R12038   5.222   0.054   3.949 -1.2750 -2.2307  1.2510
  115SAPE   H4S12039   5.322   0.160   4.047 -0.9455 -1.0079  0.9018
  115SAPE   C2512040   5.327  -0.057   4.111  0.6184 -0.6302  0.0295
  115SAPE   H5R12041   5.365  -0.145   4.058  0.0940  0.2959 -1.9839
  115SAPE   C2612042   5.290  -0.060   4.240 -0.3038  0.5231 -0.1736
  115SAPE   H6R12043   5.298  -0.154   4.297 -1.7494  0.6127  0.2164
  115SAPE   C2712044   5.240   0.050   4.324  0.9328 -0.0179  0.0635
  115SAPE   H7R12045   5.212   0.130   4.252  2.4321  0.1373 -0.3887
  115SAPE   H7S12046   5.314   0.082   4.401  1.4763 -1.2134  0.0688
  115SAPE   C2812047   5.115  -0.004   4.394 -0.0959  0.3837 -0.1615
  115SAPE   H8R12048   5.019  -0.021   4.341 -0.4143 -1.6633  0.9586
  115SAPE   C2912049   5.118  -0.062   4.516 -0.5728  0.4625 -0.1902
  115SAPE   H9R12050   5.020  -0.096   4.552 -1.2315  0.7891 -1.5819
  115SAPE  C21012051   5.245  -0.068   4.601  0.3140 -0.2180  0.1621
  115SAPE  H10R12052   5.292   0.029   4.629 -1.7159  1.9347 -3.1544
  115SAPE  H10S12053   5.322  -0.115   4.538 -0.3083 -0.6504 -0.2875
  115SAPE  C21112054   5.243  -0.155   4.730 -0.5513 -0.5001  0.4082
  115SAPE  H11R12055   5.269  -0.260   4.709  1.6926 -0.0451  0.6125
  115SAPE  C21212056   5.227  -0.109   4.856 -0.3208 -0.3439 -0.4745
  115SAPE  H12R12057   5.240  -0.192   4.927  0.2532 -0.3271 -0.5525
  115SAPE  C21312058   5.188   0.030   4.911 -0.1388 -0.3497 -0.3050
  115SAPE  H13R12059   5.090   0.019   4.962  1.2215 -1.1693  2.3269
  115SAPE  H13S12060   5.172   0.112   4.838  0.5097  0.2363  0.2011
  115SAPE  C21412061   5.298   0.087   4.996 -0.2239 -0.1128 -0.1612
  115SAPE  H14R12062   5.380   0.139   4.943 -0.7045  1.7087  0.7984
  115SAPE  C21512063   5.306   0.082   5.129 -0.3550 -0.0559 -0.2507
  115SAPE  H15R12064   5.387   0.134   5.182 -1.1417  0.3800  0.5388
  115SAPE  C21612065   5.208   0.015   5.223  0.5030 -0.1223  0.5701
  115SAPE  H16R12066   5.242  -0.081   5.267 -0.5219  0.3678  2.5922
  115SAPE  H16S12067   5.108  -0.004   5.178  0.9702 -0.9899 -0.1074
  115SAPE  C21712068   5.173   0.090   5.354 -0.0116  1.0035 -0.3100
  115SAPE  H17R12069   5.090   0.035   5.403 -2.2923  3.0412 -1.7122
  115SAPE  H17S12070   5.135   0.190   5.327  0.2838  1.6939  1.6703
  115SAPE  C21812071   5.286   0.106   5.454 -0.9853 -0.5472  0.2728
  115SAPE  H18R12072   5.369   0.158   5.403 -1.4704  0.1145  0.1496
  115SAPE  H18S12073   5.325   0.005   5.482 -1.8730 -0.5063  1.8275
  115SAPE  C21912074   5.252   0.174   5.584  0.4619 -0.3892 -0.4658
  115SAPE  H19R12075   5.150   0.137   5.609 -1.4251  3.2748 -1.9738
  115SAPE  H19S12076   5.258   0.284   5.573  0.0085 -0.5116 -2.1950
  115SAPE  C22012077   5.353   0.148   5.705 -0.0316  0.3277 -0.3621
  115SAPE  H20R12078   5.325   0.211   5.793  2.0732 -1.6416  1.8600
  115SAPE  H20S12079   5.460   0.163   5.681 -0.0932  1.8427  0.1597
  115SAPE  H20T12080   5.348   0.044   5.742  0.2945  0.9307  1.4923
  115SAPE   C3312081   5.439   0.401   4.317  0.2331  0.3269 -0.4176
  115SAPE   H3X12082   5.388   0.328   4.250  1.4462 -2.6972  1.7042
  115SAPE   H3Y12083   5.381   0.494   4.335 -0.4426 -0.1744  0.0450
  115SAPE   C3412084   5.447   0.343   4.460  0.0006  0.1608  0.2980
  115SAPE   H4X12085   5.526   0.265   4.465  0.5109  0.5791 -0.9788
  115SAPE   H4Y12086   5.347   0.307   4.492 -0.2957 -0.3310 -1.1297
  115SAPE   C3512087   5.503   0.449   4.557  0.5698 -0.2743 -0.6598
  115SAPE   H5X12088   5.434   0.536   4.558 -3.9920 -3.5018  2.2786
  115SAPE   H5Y12089   5.605   0.472   4.519  0.4931 -0.1763 -0.8096
  115SAPE   C3612090   5.522   0.387   4.700  0.2883  0.2460  0.1544
  115SAPE   H6X12091   5.579   0.292   4.693  0.1605  0.0956  0.9799
  115SAPE   H6Y12092   5.420   0.354   4.732  0.2190  0.2130 -0.1012
  115SAPE   C3712093   5.563   0.481   4.815 -0.3997  0.3610 -0.1957
  115SAPE   H7X12094   5.539   0.585   4.785 -1.8025  0.2880  0.5724
  115SAPE   H7Y12095   5.673   0.465   4.813 -0.4839 -0.2988  0.0247
  115SAPE   C3812096   5.507   0.453   4.957  0.1951 -0.3034  0.2029
  115SAPE   H8X12097   5.499   0.345   4.982  0.2085 -0.4608 -0.4698
  115SAPE   H8Y12098   5.405   0.498   4.960  0.8946  1.4508 -0.4697
  115SAPE   C3912099   5.587   0.532   5.061 -0.3502 -0.0885 -0.1260
  115SAPE   H9X12100   5.619   0.632   5.027  1.0508 -0.4653  0.0447
  115SAPE   H9Y12101   5.687   0.484   5.063  0.2589  1.1147 -1.1379
  115SAPE  C31012102   5.511   0.531   5.193 -1.3852  1.0320  0.2443
  115SAPE  H10X12103   5.455   0.435   5.207  1.2650 -0.3918  1.9101
  115SAPE  H10Y12104   5.430   0.603   5.169 -1.4277  0.1321 -2.7286
  115SAPE  C31112105   5.594   0.550   5.318 -0.4356 -0.8898  0.0562
  115SAPE  H11X12106   5.638   0.652   5.322 -1.6791 -0.3100 -0.2984
  115SAPE  H11Y12107   5.673   0.473   5.313 -0.8666 -1.2401 -2.2676
  115SAPE  C31212108   5.496   0.509   5.429  0.3010 -0.3939 -0.4458
  115SAPE  H12X12109   5.483   0.399   5.432  1.0155 -0.5598 -1.9771
  115SAPE  H12Y12110   5.397   0.558   5.417  0.6311  0.0024 -1.8314
  115SAPE  C31312111   5.545   0.562   5.570  0.0632  0.3551  0.0345
  115SAPE  H13X12112   5.454   0.586   5.630  0.5882  1.6915  0.3204
  115SAPE  H13Y12113   5.596   0.660   5.560 -0.1367  0.3932 -0.6513
  115SAPE  C31412114   5.627   0.463   5.645 -0.0274  0.7149 -0.1189
  115SAPE  H14X12115   5.723   0.447   5.592 -0.9375 -1.1938 -1.2981
  115SAPE  H14Y12116   5.582   0.361   5.640  1.9664 -0.1456 -2.6414
  115SAPE  C31512117   5.664   0.506   5.788 -0.9064 -0.1211  0.9898
  115SAPE  H15X12118   5.726   0.428   5.837  1.2858  0.9312  0.0238
  115SAPE  H15Y12119   5.570   0.504   5.848 -0.5113 -0.1975  1.6244
  115SAPE  C31612120   5.748   0.631   5.817 -0.5269  0.2786  0.2930
  115SAPE  H16X12121   5.709   0.720   5.763 -0.1134 -0.5393 -1.4129
  115SAPE  H16Y12122   5.855   0.614   5.793 -0.2801 -1.5736  2.3655
  115SAPE  C31712123   5.749   0.665   5.968  0.0078  0.6261  0.8929
  115SAPE  H17X12124   5.815   0.596   6.025  0.6107  2.2795  2.2841
  115SAPE  H17Y12125   5.650   0.648   6.014 -0.3137  2.1498  0.8386
  115SAPE  C31812126   5.801   0.811   5.991 -0.5949 -0.8281  0.2519
  115SAPE  H18X12127   5.714   0.880   5.987  0.0230 -0.0830 -0.7326
  115SAPE  H18Y12128   5.873   0.832   5.909  0.2818  0.5799  1.3452
  115SAPE  H18Z12129   5.842   0.831   6.092 -1.2623  1.6122  0.0910
  116SAPE     N12130   4.062   3.261   3.752 -0.1689 -0.2728  0.4856
  116SAPE   HN112131   4.049   3.309   3.843 -2.3367  2.5937 -1.1666
  116SAPE   HN212132   4.054   3.161   3.778 -2.9637 -0.1346  0.5383
  116SAPE   HN312133   4.156   3.277   3.711 -1.0115  0.3791 -1.3058
  116SAPE   C1212134   3.963   3.310   3.648  0.7319  0.4239 -0.3034
  116SAPE  H12A12135   3.951   3.226   3.576 -1.2233 -0.9142  1.4385
  116SAPE  H12B12136   3.995   3.410   3.612 -1.1254  0.9206 -0.7141
  116SAPE   C1112137   3.824   3.335   3.718  0.2493 -0.3111 -0.2626
  116SAPE  H11A12138   3.765   3.342   3.625  1.9606  1.0618 -1.3165
  116SAPE  H11B12139   3.831   3.433   3.771 -0.6894 -0.7655  0.7463
  116SAPE     P12140   3.648   3.195   3.860  0.2634  0.0970  0.0750
  116SAPE   O1312141   3.568   3.181   3.741 -0.4265  0.5061 -0.4194
  116SAPE   O1412142   3.651   3.074   3.953 -0.8541 -0.1083  0.0359
  116SAPE   O1212143   3.794   3.235   3.815 -0.0566 -0.1428  0.3500
  116SAPE   O1112144   3.615   3.324   3.949  0.1912  0.4386  0.1647
  116SAPE    C112145   3.710   3.386   4.039 -0.1900  0.2967  0.1440
  116SAPE    HA12146   3.801   3.427   3.991  0.6705 -1.4364  0.2057
  116SAPE    HB12147   3.657   3.474   4.082 -0.5211  0.3194 -0.3086
  116SAPE    C212148   3.768   3.307   4.157 -0.5852 -0.5757 -0.9945
  116SAPE    HS12149   3.824   3.215   4.128  0.7882 -0.4518  1.0622
  116SAPE   O2112150   3.652   3.267   4.236 -0.6965 -0.0261  0.1972
  116SAPE   C2112151   3.656   3.158   4.303  0.0209  0.1208 -0.5002
  116SAPE   O2212152   3.738   3.066   4.297  0.0421 -0.0673  0.6367
  116SAPE   C2212153   3.527   3.154   4.391  0.2958 -0.7087 -0.0693
  116SAPE   H2R12154   3.491   3.255   4.420 -0.6489 -1.1753  0.4282
  116SAPE   H2S12155   3.452   3.105   4.325 -0.8205  0.6841  0.0964
  116SAPE    C312156   3.866   3.394   4.243  0.2855  0.0911  0.4328
  116SAPE    HX12157   3.798   3.473   4.279 -0.1747 -0.5815  1.0662
  116SAPE    HY12158   3.949   3.421   4.174  0.2024 -0.8125 -0.0471
  116SAPE   O3112159   3.903   3.314   4.361  0.2409 -0.3462  0.3433
  116SAPE   C3112160   3.985   3.387   4.432  0.4077 -0.3319  0.3279
  116SAPE   O3212161   4.013   3.505   4.415 -0.1584 -0.5199 -0.6588
  116SAPE   C3212162   4.035   3.301   4.552  0.2725  0.4152  0.2179
  116SAPE   H2X12163   4.113   3.229   4.516 -1.4493  0.1929 -3.5696
  116SAPE   H2Y12164   3.944   3.259   4.598 -1.0198  0.6714 -1.9677
  116SAPE   C2312165   3.536   3.060   4.520 -0.2603 -0.0182  0.3474
  116SAPE   H3R12166   3.559   2.963   4.471  1.0539 -0.5564  1.9579
  116SAPE   H3S12167   3.440   3.050   4.573 -1.2319 -0.9474 -1.4764
  116SAPE   C2412168   3.634   3.116   4.620 -0.1660  1.1553 -0.1219
  116SAPE   H4R12169   3.736   3.095   4.583  0.1452  2.1221  0.1547
  116SAPE   H4S12170   3.626   3.055   4.712 -1.3680  1.0222 -0.2968
  116SAPE   C2512171   3.624   3.266   4.649  0.0000  0.1332 -0.2075
  116SAPE   H5R12172   3.666   3.324   4.565 -0.0721 -3.0336 -2.5972
  116SAPE   C2612173   3.591   3.321   4.770  0.3054  0.5863  0.6623
  116SAPE   H6R12174   3.580   3.430   4.757 -0.5882  0.2156 -2.1954
  116SAPE   C2712175   3.552   3.249   4.898  0.0086  0.0894  0.4142
  116SAPE   H7R12176   3.616   3.283   4.982 -2.1387  0.2080  2.1015
  116SAPE   H7S12177   3.569   3.140   4.893  1.9161  0.1639  2.9440
  116SAPE   C2812178   3.412   3.266   4.945  0.2536 -0.9013  0.7148
  116SAPE   H8R12179   3.345   3.184   4.915  1.8051 -0.6328 -4.2141
  116SAPE   C2912180   3.359   3.381   5.004  0.3335  0.5310  0.1940
  116SAPE   H9R12181   3.254   3.382   5.040  0.4908  0.6182  0.6610
  116SAPE  C21012182   3.440   3.505   5.049  0.9189  0.2463 -0.6802
  116SAPE  H10R12183   3.522   3.525   4.977  1.1410  0.0671 -0.4788
  116SAPE  H10S12184   3.493   3.457   5.135  0.3834 -2.7003 -1.8682
  116SAPE  C21112185   3.359   3.635   5.078  0.1366 -0.2343  0.5308
  116SAPE  H11R12186   3.319   3.692   4.993  0.5628  0.1704  0.5972
  116SAPE  C21212187   3.319   3.686   5.198  0.1325  0.2660 -0.2750
  116SAPE  H12R12188   3.261   3.779   5.191 -0.4991 -0.1722 -1.1473
  116SAPE  C21312189   3.334   3.624   5.338 -0.6409 -0.0077 -0.2623
  116SAPE  H13R12190   3.353   3.515   5.330  0.6520  0.0876  1.0914
  116SAPE  H13S12191   3.234   3.635   5.385  0.4959  2.3649  1.8462
  116SAPE  C21412192   3.434   3.695   5.430  0.3920 -0.4061  0.5084
  116SAPE  H14R12193   3.538   3.662   5.417  0.0654 -0.5429 -2.4433
  116SAPE  C21512194   3.410   3.784   5.533 -0.1775  0.3016  0.1315
  116SAPE  H15R12195   3.490   3.809   5.605 -1.2379  1.5401  0.9308
  116SAPE  C21612196   3.271   3.835   5.564  0.0251  0.2002  0.7146
  116SAPE  H16R12197   3.239   3.798   5.664 -1.7069 -0.8230 -0.1826
  116SAPE  H16S12198   3.189   3.796   5.499  2.5710 -1.2671 -1.8463
  116SAPE  C21712199   3.257   3.990   5.565  0.6233 -0.1408  0.4433
  116SAPE  H17R12200   3.148   4.007   5.579  0.6388  1.3955 -0.9528
  116SAPE  H17S12201   3.287   4.020   5.462  0.2436 -0.0113  0.3682
  116SAPE  C21812202   3.340   4.052   5.680 -0.0618 -0.1632 -0.3987
  116SAPE  H18R12203   3.446   4.022   5.665 -0.1219 -1.1680  0.9988
  116SAPE  H18S12204   3.296   4.013   5.774  0.8682  1.1424  0.6287
  116SAPE  C21912205   3.336   4.211   5.678 -0.0570 -0.2260  0.5281
  116SAPE  H19R12206   3.229   4.241   5.678 -0.2314 -0.7598 -1.0306
  116SAPE  H19S12207   3.390   4.231   5.583 -0.6925 -1.3806 -0.0933
  116SAPE  C22012208   3.411   4.283   5.785  0.3417 -0.3915 -0.5925
  116SAPE  H20R12209   3.519   4.260   5.781  0.5055  0.3245 -0.4081
  116SAPE  H20S12210   3.374   4.249   5.885 -0.2590  1.6838 -0.0502
  116SAPE  H20T12211   3.400   4.394   5.782 -0.3288 -0.4651 -1.1703
  116SAPE   C3312212   4.110   3.395   4.654 -0.5402  0.1628 -0.3300
  116SAPE   H3X12213   4.191   3.461   4.615  0.0567  0.4479  1.3008
  116SAPE   H3Y12214   4.160   3.330   4.730 -0.4448 -1.4251 -1.7075
  116SAPE   C3412215   4.006   3.476   4.743 -0.8410 -0.5045  0.6521
  116SAPE   H4X12216   3.930   3.412   4.792 -0.2457 -0.1972  2.0216
  116SAPE   H4Y12217   3.955   3.546   4.675 -1.5185 -2.0551 -0.5029
  116SAPE   C3512218   4.085   3.550   4.858 -0.2452 -0.6305 -0.2629
  116SAPE   H5X12219   4.178   3.593   4.814 -0.6713 -0.9806 -1.5722
  116SAPE   H5Y12220   4.118   3.471   4.928 -2.8191 -0.8739  0.7854
  116SAPE   C3612221   3.996   3.648   4.936  0.0034  0.2859  0.0123
  116SAPE   H6X12222   3.936   3.708   4.864 -0.6828  0.3005  0.5881
  116SAPE   H6Y12223   4.066   3.719   4.985  1.1982 -0.4138 -0.6528
  116SAPE   C3712224   3.892   3.580   5.027 -0.0823  0.2451  0.0587
  116SAPE   H7X12225   3.941   3.510   5.099  0.0169  0.4585  0.1988
  116SAPE   H7Y12226   3.842   3.519   4.949  0.0708  0.3713 -0.1379
  116SAPE   C3812227   3.792   3.674   5.104 -0.2214 -0.7015 -0.4866
  116SAPE   H8X12228   3.689   3.630   5.101 -0.5705  0.0501  0.0813
  116SAPE   H8Y12229   3.773   3.770   5.051 -0.4026  0.0730  0.9253
  116SAPE   C3912230   3.820   3.698   5.255  0.1679 -0.1593 -0.8086
  116SAPE   H9X12231   3.879   3.612   5.293  0.3915 -0.0931 -1.0033
  116SAPE   H9Y12232   3.716   3.711   5.293  0.8893  0.8204  0.9759
  116SAPE  C31012233   3.897   3.828   5.283 -0.2656  0.1947 -0.3446
  116SAPE  H10X12234   3.871   3.909   5.213  0.3360 -0.7339 -1.6803
  116SAPE  H10Y12235   4.007   3.816   5.292 -0.2530 -0.1898 -0.9835
  116SAPE  C31112236   3.879   3.888   5.426  0.2372  0.5986 -0.1298
  116SAPE  H11X12237   3.770   3.896   5.448  0.2268 -0.6942  0.3664
  116SAPE  H11Y12238   3.916   3.991   5.408  0.7173  0.4085 -0.2412
  116SAPE  C31212239   3.954   3.810   5.534 -1.0630 -0.0295 -0.4809
  116SAPE  H12X12240   4.053   3.778   5.494 -0.8310 -1.2850  1.0036
  116SAPE  H12Y12241   3.897   3.718   5.561 -0.7258  0.0031  0.3796
  116SAPE  C31312242   3.976   3.909   5.656 -0.0260 -0.1662  0.1735
  116SAPE  H13X12243   4.041   3.992   5.621 -0.4303  0.0723 -0.0152
  116SAPE  H13Y12244   4.026   3.862   5.743  0.2713  0.4390  0.3343
  116SAPE  C31412245   3.849   3.962   5.716  0.5371 -0.5597 -0.0901
  116SAPE  H14X12246   3.783   3.993   5.632  0.1906 -0.4566  0.2165
  116SAPE  H14Y12247   3.871   4.058   5.767  1.2485 -0.9577  0.3774
  116SAPE  C31512248   3.779   3.862   5.809 -0.1261  0.4792  0.1798
  116SAPE  H15X12249   3.848   3.811   5.880 -0.5715  0.0614  0.3281
  116SAPE  H15Y12250   3.730   3.790   5.740  2.5433  0.4197 -1.8007
  116SAPE  C31612251   3.659   3.918   5.882  0.0159 -0.2416 -0.9567
  116SAPE  H16X12252   3.602   3.971   5.802 -0.3214  1.0204  0.0778
  116SAPE  H16Y12253   3.678   3.984   5.970 -0.8339 -2.8217  1.2954
  116SAPE  C31712254   3.567   3.811   5.937  0.0081 -0.6386 -0.5015
  116SAPE  H17X12255   3.612   3.750   6.018  0.2693 -1.9318 -1.5942
  116SAPE  H17Y12256   3.536   3.743   5.856  0.4377  0.3052 -1.4951
  116SAPE  C31812257   3.432   3.857   5.993  0.0462 -0.4525  0.4005
  116SAPE  H18X12258   3.439   3.947   6.057  0.0548 -0.5285  0.5082
  116SAPE  H18Y12259   3.392   3.768   6.047  3.6144 -2.4564  0.0610
  116SAPE  H18Z12260   3.370   3.882   5.905  0.3689 -0.2617  0.2267
  117SOPE     N12261   2.784   6.633   8.526  0.3992 -0.0938 -0.1547
  117SOPE   HN112262   2.818   6.619   8.624  0.9920 -1.3483 -0.5241
  117SOPE   HN212263   2.802   6.546   8.472  0.1551  0.1229 -0.5913
  117SOPE   HN312264   2.824   6.714   8.474 -0.8751  0.3787 -0.4479
  117SOPE   C1212265   2.637   6.660   8.533 -0.2474 -0.4791  0.1932
  117SOPE  H12A12266   2.619   6.706   8.632  0.2797 -1.5632  0.8138
  117SOPE  H12B12267   2.594   6.557   8.531 -1.4589  0.0090  0.1388
  117SOPE   C1112268   2.582   6.736   8.408 -0.2273  0.3378 -0.5320
  117SOPE  H11A12269   2.605   6.845   8.417 -0.1273  0.5414 -2.7505
  117SOPE  H11B12270   2.474   6.711   8.413 -0.2373  0.5079  0.3388
  117SOPE     P12271   2.582   6.589   8.192  0.0766  0.1405 -0.0116
  117SOPE   O1312272   2.459   6.530   8.251 -0.0499 -0.1986  0.0756
  117SOPE   O1412273   2.689   6.500   8.143 -0.8552  0.1198 -0.1688
  117SOPE   O1212274   2.644   6.695   8.289 -0.6582 -0.0762 -0.1890
  117SOPE   O1112275   2.533   6.682   8.076 -0.0511  0.1148 -0.1816
  117SOPE    C112276   2.466   6.811   8.086  0.7402  0.1208 -0.0497
  117SOPE    HA12277   2.471   6.861   7.987  2.8135 -1.7630 -0.9676
  117SOPE    HB12278   2.509   6.876   8.166  0.7369  0.3866 -0.2599
  117SOPE    C212279   2.314   6.789   8.111 -0.2881  0.0042 -0.3737
  117SOPE    HS12280   2.314   6.720   8.198  0.2754 -0.8355 -1.0133
  117SOPE   O2112281   2.257   6.741   7.993 -0.3133  0.6148 -0.3211
  117SOPE   C2112282   2.151   6.664   8.022  0.2251  0.4569 -0.6686
  117SOPE   O2212283   2.108   6.650   8.137  0.1902 -0.1524 -0.3453
  117SOPE   C2212284   2.086   6.626   7.878  0.7255  0.3787  0.9416
  117SOPE   H2R12285   2.023   6.712   7.846  1.2227  0.7249  0.8945
  117SOPE   H2S12286   2.017   6.542   7.901  1.3398  0.2956  2.6013
  117SOPE    C312287   2.250   6.928   8.152  1.0691  0.8223  0.6370
  117SOPE    HX12288   2.310   6.961   8.239  1.3162  1.3632  0.2669
  117SOPE    HY12289   2.146   6.917   8.189  0.1089  0.3559 -1.9683
  117SOPE   O3112290   2.260   7.028   8.049 -0.2604  0.8134  0.0096
  117SOPE   C3112291   2.157   7.026   7.959  0.3752 -0.8231 -0.8900
  117SOPE   O3212292   2.043   6.990   7.988 -0.3414 -0.0498  0.0777
  117SOPE   C3212293   2.193   7.105   7.829 -0.2245 -0.3827 -0.0634
  117SOPE   H2X12294   2.302   7.102   7.812 -0.1375  1.5589 -0.0017
  117SOPE   H2Y12295   2.164   7.212   7.835  2.0398  0.2948 -0.4723
  117SOPE   C2312296   2.185   6.575   7.771  0.1957 -1.1078 -0.7271
  117SOPE   H3R12297   2.243   6.489   7.812 -1.0304 -0.9992  1.4011
  117SOPE   H3S12298   2.262   6.654   7.763 -1.5532  1.0430  1.7480
  117SOPE   C2412299   2.126   6.521   7.639 -0.5389  0.4499  0.6501
  117SOPE   H4R12300   2.094   6.418   7.666  2.2247 -1.0160 -1.1955
  117SOPE   H4S12301   2.041   6.581   7.600 -0.1992  0.6231  0.1759
  117SOPE   C2512302   2.227   6.515   7.519 -0.8005 -0.3614  0.4014
  117SOPE   H5R12303   2.261   6.619   7.499  1.6105 -0.8143  1.7914
  117SOPE   H5S12304   2.314   6.448   7.533  0.1651  0.7556 -0.0097
  117SOPE   C2612305   2.164   6.465   7.387  0.3344 -0.7374  0.0533
  117SOPE   H6R12306   2.093   6.547   7.364  1.6942  0.3912 -0.2706
  117SOPE   H6S12307   2.247   6.457   7.314  1.5711 -2.4166  1.5571
  117SOPE   C2712308   2.094   6.321   7.397 -0.1634 -0.6358 -0.6867
  117SOPE   H7R12309   2.172   6.255   7.441 -0.8172 -0.2469  1.1611
  117SOPE   H7S12310   2.014   6.317   7.474  1.0872  1.9395  0.9136
  117SOPE   C2812311   2.048   6.251   7.265  0.5528  0.4838 -0.0133
  117SOPE   H8R12312   2.136   6.261   7.198  0.2069  2.2852 -0.2476
  117SOPE   H8S12313   2.035   6.142   7.282 -0.2797  0.6469  0.4148
  117SOPE   C2912314   1.924   6.317   7.213 -0.0907 -0.0433 -0.2619
  117SOPE   H9112315   1.841   6.300   7.284 -2.2828 -1.7138 -2.9921
  117SOPE  C21012316   1.915   6.393   7.107 -0.2467 -0.5155  0.5595
  117SOPE  H10112317   1.817   6.431   7.078  0.4687  2.4019  1.6553
  117SOPE  C21112318   2.016   6.424   6.999  0.2597 -0.0765  0.1167
  117SOPE  H11R12319   2.114   6.448   7.045  1.2525 -0.3139 -1.7935
  117SOPE  H11S12320   1.974   6.520   6.964 -2.1870 -1.2610 -0.4529
  117SOPE  C21212321   2.033   6.322   6.883 -0.3093 -0.0093  0.3106
  117SOPE  H12R12322   1.938   6.326   6.825 -0.3590 -0.4301  0.3612
  117SOPE  H12S12323   2.036   6.218   6.920 -0.0004 -0.2269 -0.3220
  117SOPE  C21312324   2.151   6.352   6.785  0.1139  0.4944 -0.3188
  117SOPE  H13R12325   2.139   6.284   6.699 -1.4216  0.6370 -0.2343
  117SOPE  H13S12326   2.246   6.327   6.839 -1.4215  0.7243  2.6979
  117SOPE  C21412327   2.163   6.499   6.745 -0.1905  0.5794 -0.4899
  117SOPE  H14R12328   2.190   6.558   6.835  0.9656 -0.9548  0.2044
  117SOPE  H14S12329   2.066   6.532   6.700 -0.5163  0.7621  0.3222
  117SOPE  C21512330   2.268   6.535   6.646 -0.2125  0.3100  0.7931
  117SOPE  H15R12331   2.351   6.467   6.673 -1.8854 -2.2267 -0.0475
  117SOPE  H15S12332   2.294   6.643   6.650 -0.0197  0.4237 -1.8188
  117SOPE  C21612333   2.220   6.483   6.504 -0.1381  0.0900 -0.2645
  117SOPE  H16R12334   2.137   6.548   6.468  1.7276  2.1565 -1.1250
  117SOPE  H16S12335   2.178   6.381   6.516  0.7122 -0.1783  0.5563
  117SOPE  C21712336   2.337   6.476   6.409  0.2126  0.1867  0.3809
  117SOPE  H17R12337   2.420   6.424   6.460  0.5558  0.1804 -0.1747
  117SOPE  H17S12338   2.367   6.580   6.382  0.1308  0.2568  0.5659
  117SOPE  C21812339   2.295   6.413   6.275 -0.1562 -0.4426 -0.3115
  117SOPE  H18R12340   2.209   6.464   6.227 -0.0309  2.0830  1.9163
  117SOPE  H18S12341   2.277   6.305   6.297  0.8962 -0.5159  0.2518
  117SOPE  H18T12342   2.382   6.419   6.206 -0.8688  0.6360 -1.1499
  117SOPE   C3312343   2.121   7.038   7.708  0.1082  0.0821 -0.5680
  117SOPE   H3X12344   2.012   7.053   7.719  0.4982  1.4599  2.2968
  117SOPE   H3Y12345   2.130   6.928   7.720 -0.8209  0.0864  0.2368
  117SOPE   C3412346   2.179   7.088   7.576 -0.0347 -0.1216 -0.2380
  117SOPE   H4X12347   2.284   7.123   7.586 -0.0935  0.4317 -1.4061
  117SOPE   H4Y12348   2.112   7.171   7.545 -3.2205 -2.6679 -0.6880
  117SOPE   C3512349   2.163   6.981   7.471  1.1546  0.6191  0.1045
  117SOPE   H5X12350   2.069   6.994   7.415  1.0860  2.7762  0.6137
  117SOPE   H5Y12351   2.152   6.877   7.509 -1.3747  0.6678 -0.3482
  117SOPE   C3612352   2.279   6.980   7.375  0.1112  0.9614  0.8711
  117SOPE   H6X12353   2.383   6.977   7.416  0.7255 -2.1063 -0.5763
  117SOPE   H6Y12354   2.281   7.071   7.312  1.2011 -0.9219 -2.0351
  117SOPE   C3712355   2.272   6.859   7.289  0.8595  0.2844 -0.4916
  117SOPE   H7X12356   2.175   6.854   7.235  1.6303 -1.0533 -1.7972
  117SOPE   H7Y12357   2.274   6.770   7.355 -1.4037  0.2741 -0.3583
  117SOPE   C3812358   2.381   6.864   7.178 -0.4378  0.0880 -0.4000
  117SOPE   H8X12359   2.476   6.895   7.227 -0.1635 -3.2871  1.4622
  117SOPE   H8Y12360   2.353   6.944   7.106 -0.5698 -1.1675 -1.8052
  117SOPE   C3912361   2.393   6.731   7.098 -0.1968 -0.0219  0.1814
  117SOPE   H9X12362   2.288   6.707   7.070 -0.9965  1.5379  1.6213
  117SOPE   H9Y12363   2.439   6.654   7.162 -0.9420  0.8152  1.8011
  117SOPE  C31012364   2.491   6.753   6.985 -0.9106 -0.4236 -0.6901
  117SOPE  H10X12365   2.505   6.661   6.925 -1.8328  0.0372 -1.6474
  117SOPE  H10Y12366   2.595   6.779   7.016 -0.9422 -2.1244  1.0202
  117SOPE  C31112367   2.430   6.861   6.887 -0.0669 -0.1710 -1.2101
  117SOPE  H11X12368   2.437   6.966   6.923  0.3900 -1.1129  1.7068
  117SOPE  H11Y12369   2.323   6.831   6.893 -0.6897  2.1562  1.5073
  117SOPE  C31212370   2.480   6.859   6.741 -0.4642 -0.1458  0.1298
  117SOPE  H12X12371   2.401   6.911   6.683 -0.1891  0.6014  0.4016
  117SOPE  H12Y12372   2.462   6.753   6.712 -0.3127 -0.2083  0.2629
  117SOPE  C31312373   2.617   6.922   6.715  0.4761  0.4260  0.7940
  117SOPE  H13X12374   2.688   6.872   6.783  1.0018  1.6153  1.1372
  117SOPE  H13Y12375   2.614   7.032   6.725 -1.4818  0.2546  2.9931
  117SOPE  C31412376   2.672   6.885   6.575  0.2903  1.2130  0.1624
  117SOPE  H14X12377   2.593   6.895   6.498  1.9453 -3.0495 -2.3874
  117SOPE  H14Y12378   2.696   6.777   6.574  0.8262  1.3027  1.2838
  117SOPE  C31512379   2.792   6.962   6.531 -0.2354  0.5745 -0.9565
  117SOPE  H15X12380   2.885   6.933   6.586  0.8039  1.8308 -1.9888
  117SOPE  H15Y12381   2.787   7.067   6.566  3.1704  1.7973 -3.5687
  117SOPE  C31612382   2.810   6.961   6.382  0.1301 -0.3246 -0.0907
  117SOPE  H16X12383   2.713   6.980   6.330 -0.2659  1.5056  1.2081
  117SOPE  H16Y12384   2.847   6.861   6.352 -1.0903  0.2451 -4.1701
  117SOPE  C31712385   2.890   7.077   6.340  0.3432 -0.0171 -0.1745
  117SOPE  H17X12386   2.961   7.102   6.422  0.2781 -1.3054  0.2954
  117SOPE  H17Y12387   2.834   7.173   6.328  1.3302  0.4718 -1.0995
  117SOPE  C31812388   2.987   7.055   6.216 -0.0714 -0.3784 -0.6619
  117SOPE  H18X12389   2.932   6.993   6.141  1.6305 -0.9498 -1.4874
  117SOPE  H18Y12390   3.075   6.996   6.247  0.4871  0.5223 -0.5057
  117SOPE  H18Z12391   3.008   7.152   6.167 -0.3943 -1.1734 -2.4642
  118SOPE     N12392   5.256   1.280   8.317 -0.5633  0.2138  0.2620
  118SOPE   HN112393   5.347   1.237   8.344  1.7915  4.7432  0.4021
  118SOPE   HN212394   5.244   1.264   8.215  0.1337  1.1729  0.0194
  118SOPE   HN312395   5.247   1.380   8.342 -2.1670  0.4836 -1.1944
  118SOPE   C1212396   5.152   1.206   8.398 -0.0671 -0.1819 -0.0159
  118SOPE  H12A12397   5.205   1.127   8.455  1.0099  1.5316  1.4687
  118SOPE  H12B12398   5.076   1.166   8.328 -0.3605  0.0978  0.1420
  118SOPE   C1112399   5.085   1.296   8.498  0.2483 -0.5586 -0.3057
  118SOPE  H11A12400   5.163   1.335   8.567  0.0537 -2.4411  1.0669
  118SOPE  H11B12401   5.020   1.227   8.556  0.6387  1.8906  3.3916
  118SOPE     P12402   5.024   1.538   8.419  0.0178 -0.3761 -0.4874
  118SOPE   O1312403   5.157   1.559   8.356 -0.6894  0.2511  0.1997
  118SOPE   O1412404   5.018   1.599   8.556  0.0126  0.3240  0.4178
  118SOPE   O1212405   4.994   1.384   8.433 -0.8715  0.0994  0.4859
  118SOPE   O1112406   4.916   1.598   8.318  0.0655  0.0935 -0.7084
  118SOPE    C112407   4.847   1.511   8.227  0.1299  0.4065 -0.3811
  118SOPE    HA12408   4.759   1.573   8.198  1.4028  2.0776 -0.8753
  118SOPE    HB12409   4.817   1.412   8.267 -0.5419  0.3463 -1.0282
  118SOPE    C212410   4.932   1.490   8.097 -0.6185 -0.5120 -0.1450
  118SOPE    HS12411   5.008   1.410   8.111 -1.6038 -1.3679  0.4737
  118SOPE   O2112412   4.996   1.614   8.055  0.0298  0.2641 -0.0371
  118SOPE   C2112413   5.106   1.610   7.981  0.0625  0.4305  0.3765
  118SOPE   O2212414   5.183   1.519   7.978 -0.1680  1.1412 -0.5144
  118SOPE   C2212415   5.116   1.741   7.900  0.1779  0.4790  0.0744
  118SOPE   H2R12416   5.075   1.824   7.960 -0.1031  0.9653 -0.7686
  118SOPE   H2S12417   5.046   1.734   7.814  0.2398 -2.2556  0.1315
  118SOPE    C312418   4.836   1.441   7.983  0.1621 -0.2546 -0.3120
  118SOPE    HX12419   4.757   1.519   7.970  0.2664 -0.1170 -0.1203
  118SOPE    HY12420   4.787   1.349   8.022  1.7311 -0.8632  0.2826
  118SOPE   O3112421   4.910   1.403   7.867 -0.4455 -0.1960 -0.5819
  118SOPE   C3112422   4.869   1.456   7.750 -0.3824  0.1272 -0.2379
  118SOPE   O3212423   4.760   1.505   7.734  0.2387 -0.4508 -0.4742
  118SOPE   C3212424   4.983   1.434   7.644  0.2967 -0.8319 -0.4354
  118SOPE   H2X12425   5.056   1.371   7.700  0.7345 -0.6138 -0.7536
  118SOPE   H2Y12426   5.027   1.534   7.627 -0.5295 -0.5533 -0.9975
  118SOPE   C2312427   5.261   1.773   7.849 -0.3692 -0.2657  0.0089
  118SOPE   H3R12428   5.324   1.760   7.940 -0.5980 -0.2812  0.1675
  118SOPE   H3S12429   5.257   1.881   7.826  1.4829 -0.4621 -1.3628
  118SOPE   C2412430   5.316   1.697   7.732 -0.7005 -0.5433  0.6037
  118SOPE   H4R12431   5.422   1.665   7.743  0.0436  2.0311  1.6970
  118SOPE   H4S12432   5.261   1.601   7.733 -1.8789  0.0964 -0.2179
  118SOPE   C2512433   5.313   1.772   7.604 -0.3365 -0.4239  0.3242
  118SOPE   H5R12434   5.208   1.808   7.588  1.1032  3.3574 -2.1752
  118SOPE   H5S12435   5.386   1.856   7.606  0.0926 -0.8178  1.1210
  118SOPE   C2612436   5.333   1.692   7.472  0.0734 -0.5234  0.5275
  118SOPE   H6R12437   5.432   1.641   7.469 -0.8464 -2.3730 -1.2691
  118SOPE   H6S12438   5.269   1.601   7.467 -0.1540 -0.3050 -1.4069
  118SOPE   C2712439   5.328   1.782   7.345  0.2752  0.5900 -0.0932
  118SOPE   H7R12440   5.229   1.828   7.329 -0.2222 -0.7516 -1.1508
  118SOPE   H7S12441   5.400   1.865   7.360  1.7924 -1.0702  2.7920
  118SOPE   C2812442   5.370   1.701   7.217 -0.7122 -0.1008 -0.0237
  118SOPE   H8R12443   5.383   1.776   7.136  1.9348  0.7011  1.0118
  118SOPE   H8S12444   5.468   1.650   7.233 -0.4160  0.5268  0.1993
  118SOPE   C2912445   5.260   1.606   7.176  0.2137 -0.5283 -0.0002
  118SOPE   H9112446   5.229   1.528   7.246 -1.9124  0.9508  0.8117
  118SOPE  C21012447   5.183   1.613   7.066 -0.3476  0.4314  0.2313
  118SOPE  H10112448   5.099   1.542   7.059  1.5193 -1.8637 -0.3903
  118SOPE  C21112449   5.193   1.719   6.957  0.7474 -0.5454  0.1214
  118SOPE  H11R12450   5.299   1.738   6.930  1.4411 -1.3377  2.0720
  118SOPE  H11S12451   5.140   1.811   6.991 -0.2426 -1.3511  0.8425
  118SOPE  C21212452   5.120   1.656   6.831  0.2415 -0.3811 -0.2799
  118SOPE  H12R12453   5.135   1.744   6.764 -1.6329  1.2069  1.2620
  118SOPE  H12S12454   5.012   1.634   6.847 -0.2327  1.9382  0.0979
  118SOPE  C21312455   5.193   1.535   6.776  0.0049 -0.2918  0.2727
  118SOPE  H13R12456   5.174   1.448   6.844  0.6326  0.4041  1.3749
  118SOPE  H13S12457   5.302   1.554   6.776  0.4066 -2.1857 -2.0032
  118SOPE  C21412458   5.157   1.499   6.634  0.2866  0.9195  0.1232
  118SOPE  H14R12459   5.186   1.394   6.614 -2.3619  0.1944 -0.1604
  118SOPE  H14S12460   5.217   1.562   6.564  1.7519 -0.0766  0.4244
  118SOPE  C21512461   5.009   1.494   6.595  0.7505 -0.4657 -0.2521
  118SOPE  H15R12462   4.972   1.597   6.574 -0.0995 -0.3456  1.6255
  118SOPE  H15S12463   4.947   1.469   6.684 -0.7472  0.7329 -0.9081
  118SOPE  C21612464   4.966   1.393   6.478  0.4756 -0.8209  0.2812
  118SOPE  H16R12465   4.998   1.295   6.519  1.9696 -0.0843  0.9727
  118SOPE  H16S12466   5.028   1.404   6.386  0.5307 -0.6843  0.3339
  118SOPE  C21712467   4.814   1.389   6.444 -0.2760 -0.2308  0.3329
  118SOPE  H17R12468   4.747   1.400   6.532 -0.4065  2.7666 -0.0442
  118SOPE  H17S12469   4.790   1.287   6.407  1.3905 -0.8906  0.9404
  118SOPE  C21812470   4.768   1.500   6.350 -0.1695 -0.2787 -0.1425
  118SOPE  H18R12471   4.657   1.508   6.348 -0.1905 -0.5330 -0.0329
  118SOPE  H18S12472   4.813   1.482   6.251 -1.6965  2.1257 -1.3659
  118SOPE  H18T12473   4.802   1.596   6.394  1.8744 -0.7234 -0.6323
  118SOPE   C3312474   4.939   1.351   7.519  0.0426 -0.6488 -0.3384
  118SOPE   H3X12475   4.845   1.395   7.477 -0.8597 -0.0678  2.1249
  118SOPE   H3Y12476   4.908   1.252   7.558 -0.5111 -0.1641  0.4753
  118SOPE   C3412477   5.051   1.339   7.415 -0.2445 -1.1538 -1.0425
  118SOPE   H4X12478   5.143   1.310   7.469  0.4087  1.1993 -0.7559
  118SOPE   H4Y12479   5.074   1.440   7.373  0.7241 -0.0141  1.9360
  118SOPE   C3512480   5.027   1.253   7.295  0.1278 -0.2542 -0.4041
  118SOPE   H5X12481   4.945   1.303   7.240  0.8630  3.1088  1.2829
  118SOPE   H5Y12482   4.995   1.152   7.327  2.8343 -1.1401 -0.2628
  118SOPE   C3612483   5.147   1.234   7.204 -0.7200 -0.0428  0.1497
  118SOPE   H6X12484   5.227   1.188   7.266  0.5755  0.3083 -1.2129
  118SOPE   H6Y12485   5.192   1.328   7.165 -1.6296  0.9178  1.3394
  118SOPE   C3712486   5.110   1.149   7.086  0.4054  0.5873 -0.1688
  118SOPE   H7X12487   5.041   1.214   7.027  1.2655  0.4428 -1.3834
  118SOPE   H7Y12488   5.055   1.059   7.121 -0.5309  0.9828 -0.5878
  118SOPE   C3812489   5.222   1.102   6.992 -0.3862 -0.0630 -0.3879
  118SOPE   H8X12490   5.303   1.055   7.053 -1.3244 -0.4694  0.5741
  118SOPE   H8Y12491   5.268   1.195   6.952  0.7218 -0.3297  0.2011
  118SOPE   C3912492   5.180   1.002   6.886  0.7725  0.1387 -0.4276
  118SOPE   H9X12493   5.076   1.028   6.855  0.7588  1.5805  0.7158
  118SOPE   H9Y12494   5.176   0.900   6.931  1.7694  1.1343  2.1252
  118SOPE  C31012495   5.257   0.992   6.744  0.3657  0.5142  0.1218
  118SOPE  H10X12496   5.207   0.918   6.677  1.3037  0.1742 -0.2136
  118SOPE  H10Y12497   5.363   0.961   6.758  0.4133  0.2516 -0.7546
  118SOPE  C31112498   5.254   1.120   6.668 -0.4195  0.1669  0.0250
  118SOPE  H11X12499   5.304   1.197   6.731 -0.2331 -0.7035  0.9630
  118SOPE  H11Y12500   5.151   1.162   6.662  0.0081  1.0796 -1.7824
  118SOPE  C31212501   5.299   1.113   6.524 -0.3695  0.9426 -0.8300
  118SOPE  H12X12502   5.403   1.077   6.511 -0.5361 -1.4011  3.0468
  118SOPE  H12Y12503   5.293   1.220   6.493  0.4227  0.4278 -2.9408
  118SOPE  C31312504   5.209   1.027   6.422 -0.1511 -0.5625 -0.0591
  118SOPE  H13X12505   5.174   1.082   6.331 -0.5443 -1.2996 -0.3570
  118SOPE  H13Y12506   5.114   1.023   6.479 -0.8341  2.3154 -0.7962
  118SOPE  C31412507   5.265   0.885   6.382 -0.1570 -0.3219 -0.0786
  118SOPE  H14X12508   5.258   0.819   6.471  1.1684 -1.4952 -0.7917
  118SOPE  H14Y12509   5.370   0.903   6.350 -0.6899  2.1424 -0.6606
  118SOPE  C31512510   5.193   0.832   6.256 -0.6313 -0.5877  0.4171
  118SOPE  H15X12511   5.219   0.897   6.170 -0.2284  0.9506  1.6554
  118SOPE  H15Y12512   5.086   0.862   6.268 -0.7858 -1.2017  0.5958
  118SOPE  C31612513   5.200   0.679   6.232 -0.6766 -0.3709 -0.5956
  118SOPE  H16X12514   5.111   0.651   6.173 -1.1094  2.5110 -1.4409
  118SOPE  H16Y12515   5.204   0.628   6.331 -2.0071 -0.8527 -0.7731
  118SOPE  C31712516   5.330   0.640   6.155  0.7305 -0.5500 -0.4664
  118SOPE  H17X12517   5.425   0.687   6.190  1.6798 -1.2874 -1.9470
  118SOPE  H17Y12518   5.312   0.674   6.050 -0.8459 -2.7007 -0.9486
  118SOPE  C31812519   5.346   0.487   6.143 -0.7081  0.1578 -0.2730
  118SOPE  H18X12520   5.268   0.451   6.073 -1.8199  1.3786  0.3042
  118SOPE  H18Y12521   5.337   0.438   6.242  0.4413  0.7050  0.1209
  118SOPE  H18Z12522   5.447   0.467   6.101 -0.3425 -1.9977  1.4494
  119SOPE     N12523   5.760   0.782   8.572 -0.2043  0.0587 -0.0897
  119SOPE   HN112524   5.696   0.837   8.633 -0.8985  3.3083 -3.3586
  119SOPE   HN212525   5.804   0.717   8.639  0.7512 -0.0599 -0.8105
  119SOPE   HN312526   5.827   0.848   8.527  1.1171 -1.7863 -0.9735
  119SOPE   C1212527   5.671   0.706   8.469 -0.0380 -0.1055 -0.6252
  119SOPE  H12A12528   5.583   0.669   8.525  0.5498  3.2081  2.8152
  119SOPE  H12B12529   5.730   0.616   8.441 -1.2306 -1.2365  0.3495
  119SOPE   C1112530   5.628   0.803   8.356 -0.9001 -1.0840  0.1705
  119SOPE  H11A12531   5.555   0.759   8.285 -1.7210  1.5608 -0.7546
  119SOPE  H11B12532   5.719   0.832   8.300 -0.4721 -1.7095  0.5220
  119SOPE     P12533   5.600   1.058   8.417 -0.3325 -0.1712  0.4132
  119SOPE   O1312534   5.699   1.079   8.527  0.0659  0.1717  0.0918
  119SOPE   O1412535   5.490   1.153   8.413  0.7843 -0.1492 -0.1374
  119SOPE   O1212536   5.553   0.910   8.416 -0.5170  0.1208 -0.2602
  119SOPE   O1112537   5.681   1.073   8.285  0.4381  0.3561  0.2003
  119SOPE    C112538   5.601   1.081   8.159  0.2731 -0.2034  0.0965
  119SOPE    HA12539   5.571   1.186   8.140  0.3445 -0.2299 -0.1688
  119SOPE    HB12540   5.512   1.014   8.159  1.0614 -1.2941 -0.8830
  119SOPE    C212541   5.688   1.035   8.042  0.1573 -0.0418 -0.3150
  119SOPE    HS12542   5.658   1.074   7.942 -0.0257  0.0376 -0.2288
  119SOPE   O2112543   5.681   0.892   8.017  0.1882  0.2104 -0.2787
  119SOPE   C2112544   5.578   0.849   7.952  0.2949  0.1214  0.0352
  119SOPE   O2212545   5.488   0.914   7.903  0.8521  0.1149 -0.2753
  119SOPE   C2212546   5.593   0.699   7.950  0.9458 -0.1342 -0.5007
  119SOPE   H2R12547   5.537   0.665   8.040 -0.2079  1.8507 -0.4079
  119SOPE   H2S12548   5.701   0.675   7.956  0.9155 -0.2792 -0.5298
  119SOPE    C312549   5.835   1.095   8.061  0.3024 -0.1748  0.8266
  119SOPE    HX12550   5.889   1.060   8.152  0.7829  2.4186  1.6313
  119SOPE    HY12551   5.821   1.205   8.061 -0.8145 -0.2338  3.3960
  119SOPE   O3112552   5.907   1.064   7.946 -0.3403 -0.0491  0.1817
  119SOPE   C3112553   5.999   0.973   7.943  0.8734  0.4367 -0.0623
  119SOPE   O3212554   6.045   0.909   8.038 -0.4847 -0.4281  0.3938
  119SOPE   C3212555   6.037   0.936   7.796 -0.2114 -0.1778  0.1300
  119SOPE   H2X12556   6.118   0.860   7.807  1.2501  1.6266  3.1848
  119SOPE   H2Y12557   6.087   1.029   7.764 -1.5235  0.1847 -0.9127
  119SOPE   C2312558   5.524   0.627   7.829 -0.6191 -0.7875  0.3848
  119SOPE   H3R12559   5.418   0.661   7.822  0.3663  2.3722 -4.4940
  119SOPE   H3S12560   5.546   0.525   7.864  1.1547  0.8334  4.6455
  119SOPE   C2412561   5.594   0.664   7.690 -0.3413  0.5223  0.5158
  119SOPE   H4R12562   5.626   0.771   7.690  0.7319  0.2490 -1.4244
  119SOPE   H4S12563   5.681   0.602   7.660  0.6626  1.8850  0.4751
  119SOPE   C2512564   5.489   0.640   7.575 -0.4845 -0.2162 -0.5606
  119SOPE   H5R12565   5.440   0.542   7.592  0.6489 -0.8353 -0.7647
  119SOPE   H5S12566   5.417   0.725   7.576  0.5028  0.6501 -0.6927
  119SOPE   C2612567   5.549   0.644   7.430  0.1162  0.9375  0.2878
  119SOPE   H6R12568   5.595   0.744   7.422 -0.2598  1.1526  0.7459
  119SOPE   H6S12569   5.625   0.563   7.427 -0.9947 -0.1009 -0.4143
  119SOPE   C2712570   5.440   0.628   7.322  0.2653 -0.3003  0.5063
  119SOPE   H7R12571   5.401   0.524   7.319  0.8439 -0.7871  4.2483
  119SOPE   H7S12572   5.355   0.689   7.359 -2.2610 -2.8644 -0.6841
  119SOPE   C2812573   5.474   0.689   7.185 -0.3806  0.3357 -0.4673
  119SOPE   H8R12574   5.387   0.665   7.120 -1.0446 -1.1172  0.8877
  119SOPE   H8S12575   5.502   0.796   7.199 -0.4145  0.3031 -0.1527
  119SOPE   C2912576   5.603   0.640   7.120  0.4741  1.0497  0.0449
  119SOPE   H9112577   5.690   0.645   7.187  0.4587  4.0013 -0.0118
  119SOPE  C21012578   5.617   0.583   6.997 -0.5157 -0.7307  1.0876
  119SOPE  H10112579   5.711   0.531   6.970 -0.3864  0.1208 -0.1820
  119SOPE  C21112580   5.500   0.555   6.900  0.1402 -0.2605 -0.2047
  119SOPE  H11R12581   5.410   0.541   6.962 -0.8639  0.8238 -1.3486
  119SOPE  H11S12582   5.518   0.462   6.843 -0.5244 -0.0151 -0.8306
  119SOPE  C21212583   5.466   0.660   6.793  0.4804 -0.3451  0.3340
  119SOPE  H12R12584   5.549   0.653   6.720  0.7195  0.3466  0.5251
  119SOPE  H12S12585   5.459   0.761   6.840  0.5382  0.0097 -0.4041
  119SOPE  C21312586   5.339   0.619   6.714 -0.1863  0.3361  0.2545
  119SOPE  H13R12587   5.339   0.668   6.614 -2.6746 -0.2011 -0.0806
  119SOPE  H13S12588   5.251   0.650   6.774 -0.4828 -0.1308  0.0661
  119SOPE  C21412589   5.330   0.469   6.678 -0.1706  0.5502 -0.4671
  119SOPE  H14R12590   5.332   0.427   6.780  0.6082  1.2852 -0.1705
  119SOPE  H14S12591   5.422   0.442   6.621 -1.9543  0.5861 -3.6327
  119SOPE  C21512592   5.210   0.439   6.594 -0.5109  0.3629  0.1464
  119SOPE  H15R12593   5.196   0.521   6.521 -1.3374  0.3790  0.3185
  119SOPE  H15S12594   5.120   0.438   6.659 -1.7643 -1.4026 -1.5130
  119SOPE  C21612595   5.214   0.302   6.528  0.3094 -0.3150  0.3177
  119SOPE  H16R12596   5.234   0.221   6.601 -3.0640 -1.7825 -0.1913
  119SOPE  H16S12597   5.300   0.302   6.457  0.1727 -0.5668  0.1500
  119SOPE  C21712598   5.087   0.258   6.450  0.2935 -0.1645  0.1888
  119SOPE  H17R12599   5.110   0.164   6.394 -0.1164 -2.5241  3.6902
  119SOPE  H17S12600   5.052   0.328   6.371  0.3888  1.0369  1.1759
  119SOPE  C21812601   4.970   0.241   6.546 -0.2816  0.2478  0.1651
  119SOPE  H18R12602   4.995   0.159   6.616  0.5333  0.0592 -0.3396
  119SOPE  H18S12603   4.875   0.222   6.491 -1.3968 -0.7573  2.3132
  119SOPE  H18T12604   4.956   0.325   6.617 -2.2386 -0.4579  0.6754
  119SOPE   C3312605   5.914   0.882   7.724  0.0082  0.6421 -0.1318
  119SOPE   H3X12606   5.831   0.955   7.733 -0.5340  0.0730 -0.4523
  119SOPE   H3Y12607   5.884   0.785   7.770  1.2828 -1.1696 -2.8906
  119SOPE   C3412608   5.914   0.861   7.571  0.3314  0.2710  0.5730
  119SOPE   H4X12609   5.976   0.934   7.515 -0.3753  1.2394  1.0291
  119SOPE   H4Y12610   5.809   0.873   7.537 -0.5724  0.3116  3.1513
  119SOPE   C3512611   5.963   0.725   7.525 -0.1349  0.0986  0.6119
  119SOPE   H5X12612   5.905   0.648   7.580 -0.1864  0.1414  0.6179
  119SOPE   H5Y12613   6.070   0.717   7.555  0.3089  0.4934 -0.7766
  119SOPE   C3612614   5.948   0.693   7.377  0.5379 -0.3353 -0.0721
  119SOPE   H6X12615   5.842   0.686   7.344  0.5698 -1.0534 -0.0300
  119SOPE   H6Y12616   5.995   0.598   7.343 -1.3834 -0.5993 -2.2399
  119SOPE   C3712617   6.027   0.801   7.295 -0.5329 -0.3934  0.4418
  119SOPE   H7X12618   6.115   0.833   7.355 -0.6585  2.6511 -0.7884
  119SOPE   H7Y12619   5.968   0.895   7.287 -1.5648 -1.2116 -3.8422
  119SOPE   C3812620   6.068   0.764   7.153 -0.5310  0.4990 -0.0304
  119SOPE   H8X12621   5.977   0.749   7.090 -1.8114  2.0048  1.3533
  119SOPE   H8Y12622   6.128   0.671   7.153  2.0726  2.0938  0.4840
  119SOPE   C3912623   6.173   0.862   7.091 -0.1275  0.0762 -0.0385
  119SOPE   H9X12624   6.250   0.875   7.170 -1.2945 -0.1324  1.1767
  119SOPE   H9Y12625   6.127   0.958   7.060  1.9672  1.2554  0.3393
  119SOPE  C31012626   6.246   0.806   6.966  0.7244  0.1068 -0.4242
  119SOPE  H10X12627   6.168   0.767   6.897  0.4537 -1.7769  0.8728
  119SOPE  H10Y12628   6.295   0.712   6.996 -0.9448 -0.4705  0.6321
  119SOPE  C31112629   6.355   0.889   6.897  0.6104 -0.0848  0.0941
  119SOPE  H11X12630   6.456   0.870   6.940  0.4922 -0.4429  0.2156
  119SOPE  H11Y12631   6.338   0.995   6.923  0.8699 -0.4277  1.7742
  119SOPE  C31212632   6.377   0.874   6.745 -0.0134  0.2280 -0.5301
  119SOPE  H12X12633   6.406   0.975   6.709  0.7357  0.0299 -0.5106
  119SOPE  H12Y12634   6.279   0.838   6.709 -0.5062  1.7106 -0.7430
  119SOPE  C31312635   6.473   0.762   6.708  0.3732  0.5533 -0.5256
  119SOPE  H13X12636   6.438   0.669   6.758 -1.9819  0.3762 -2.3113
  119SOPE  H13Y12637   6.575   0.783   6.746 -0.2362  2.4264  0.1936
  119SOPE  C31412638   6.467   0.734   6.560 -0.8319 -0.0788 -0.6529
  119SOPE  H14X12639   6.480   0.829   6.503 -0.6110  0.9913  1.0728
  119SOPE  H14Y12640   6.364   0.698   6.545 -1.3941  0.1294  2.1264
  119SOPE  C31512641   6.582   0.643   6.529  0.3925  0.2202  0.0660
  119SOPE  H15X12642   6.683   0.685   6.548  1.3373 -0.8222 -2.2595
  119SOPE  H15Y12643   6.585   0.624   6.420  0.5462 -0.6180  0.2125
  119SOPE  C31612644   6.582   0.511   6.601  0.4085  0.9012 -0.2361
  119SOPE  H16X12645   6.483   0.461   6.611  1.4867 -2.1042 -2.7430
  119SOPE  H16Y12646   6.634   0.518   6.699  1.1725 -0.1544 -0.5473
  119SOPE  C31712647   6.668   0.409   6.514 -0.0020 -0.0920 -0.1076
  119SOPE  H17X12648   6.629   0.401   6.410  1.6848 -2.0457 -0.6536
  119SOPE  H17Y12649   6.644   0.308   6.554  1.3072 -0.4276 -0.1451
  119SOPE  C31812650   6.819   0.430   6.495  0.2134  0.0819 -0.0555
  119SOPE  H18X12651   6.859   0.427   6.599 -0.1652  1.5649  0.1436
  119SOPE  H18Y12652   6.835   0.525   6.440  2.5874  0.7606  1.6777
  119SOPE  H18Z12653   6.847   0.346   6.428 -0.0691  0.7502 -1.0256
  120SOPE     N12654   3.966   6.768   8.252  0.3962 -0.3947 -0.3178
  120SOPE   HN112655   4.062   6.806   8.266  0.8810 -1.3668 -0.8945
  120SOPE   HN212656   3.933   6.753   8.350 -0.1330  2.1274 -0.0281
  120SOPE   HN312657   3.975   6.676   8.203 -2.3916 -0.6059 -0.6109
  120SOPE   C1212658   3.881   6.866   8.167 -0.2832 -0.6145 -0.0110
  120SOPE  H12A12659   3.810   6.912   8.239 -1.4033 -3.4978  0.9014
  120SOPE  H12B12660   3.832   6.809   8.084  2.2730  1.6200 -3.3545
  120SOPE   C1112661   3.970   6.981   8.109  0.4736 -0.5088 -0.6187
  120SOPE  H11A12662   3.897   7.049   8.060  0.3314  1.3454  2.0098
  120SOPE  H11B12663   4.028   6.946   8.021  0.2988  0.9239 -1.3248
  120SOPE     P12664   4.055   7.194   8.250  0.0648 -0.0833 -0.0630
  120SOPE   O1312665   4.184   7.233   8.323 -0.4522 -0.3847  0.5421
  120SOPE   O1412666   3.922   7.219   8.318 -0.3536  0.4453  0.3224
  120SOPE   O1212667   4.055   7.037   8.206  0.0610 -0.6202 -0.4139
  120SOPE   O1112668   4.040   7.273   8.107  0.0165 -0.3536 -0.1631
  120SOPE    C112669   4.163   7.310   8.045 -0.1208  0.2236 -0.1024
  120SOPE    HA12670   4.248   7.245   8.074 -0.8382 -0.8930 -0.4547
  120SOPE    HB12671   4.193   7.409   8.086  0.6435  0.3997 -1.0470
  120SOPE    C212672   4.160   7.320   7.891  0.1123  0.1364 -0.0346
  120SOPE    HS12673   4.262   7.333   7.848  0.2890  0.3413  0.4369
  120SOPE   O2112674   4.080   7.429   7.842 -0.2398  1.0867 -0.4554
  120SOPE   C2112675   4.144   7.541   7.850  0.0359 -0.0048  0.0843
  120SOPE   O2212676   4.257   7.557   7.892  0.3788 -0.1555 -1.4851
  120SOPE   C2212677   4.041   7.645   7.815 -0.0298 -0.0150 -0.1743
  120SOPE   H2R12678   4.071   7.733   7.876 -0.2996  0.3504 -0.5685
  120SOPE   H2S12679   3.940   7.613   7.850 -0.2745 -1.3592 -1.9746
  120SOPE    C312680   4.108   7.184   7.821  0.2456  0.0244 -0.6552
  120SOPE    HX12681   4.000   7.167   7.844  0.7018 -2.0826  0.1468
  120SOPE    HY12682   4.168   7.111   7.879 -1.7933 -0.4973  0.9002
  120SOPE   O3112683   4.142   7.191   7.683  0.1167  0.2346  0.0162
  120SOPE   C3112684   4.044   7.158   7.585  0.3193 -1.2291 -0.2509
  120SOPE   O3212685   3.931   7.120   7.609  0.1964  0.4634  0.4915
  120SOPE   C3212686   4.119   7.173   7.454  0.1411 -0.6924  0.0885
  120SOPE   H2X12687   4.178   7.080   7.442  2.2795  0.8354 -2.1872
  120SOPE   H2Y12688   4.185   7.261   7.472 -0.8721 -0.2950  2.1812
  120SOPE   C2312689   4.036   7.668   7.660  0.1863 -0.0700  0.2176
  120SOPE   H3R12690   3.940   7.721   7.638 -1.1858 -1.6973  1.9774
  120SOPE   H3S12691   4.029   7.568   7.612  1.9831 -0.9410  1.6697
  120SOPE   C2412692   4.148   7.752   7.592 -0.5033 -0.7188  0.2648
  120SOPE   H4R12693   4.151   7.850   7.645  0.0493 -0.5984  0.0259
  120SOPE   H4S12694   4.248   7.710   7.617 -0.0673  1.1145  1.9125
  120SOPE   C2512695   4.146   7.760   7.440  0.5898  0.6134 -0.2193
  120SOPE   H5R12696   4.039   7.779   7.415  0.5297 -1.7193 -2.0707
  120SOPE   H5S12697   4.207   7.842   7.397 -1.1105  1.1264 -1.7850
  120SOPE   C2612698   4.181   7.632   7.364 -0.0314 -0.7744 -0.5229
  120SOPE   H6R12699   4.288   7.608   7.381  0.5131  1.5747 -0.2466
  120SOPE   H6S12700   4.116   7.551   7.404  0.6943 -0.5218  1.2457
  120SOPE   C2712701   4.171   7.638   7.210 -0.2349  0.6672 -0.1630
  120SOPE   H7R12702   4.207   7.536   7.183  1.2208  0.7485  1.2952
  120SOPE   H7S12703   4.067   7.670   7.186  0.1453  0.7845 -1.7585
  120SOPE   C2812704   4.270   7.736   7.137 -0.5357  0.1708  0.3742
  120SOPE   H8R12705   4.234   7.761   7.034  0.0460  0.9535  0.3541
  120SOPE   H8S12706   4.279   7.836   7.185 -0.6164  1.6409 -2.4417
  120SOPE   C2912707   4.410   7.686   7.096  0.0238 -0.0724 -0.9207
  120SOPE   H9112708   4.453   7.594   7.139  0.8368 -0.5359 -2.6348
  120SOPE  C21012709   4.490   7.735   6.996  0.2161  0.5145  0.4640
  120SOPE  H10112710   4.580   7.679   6.967  0.3987  1.0786 -0.0642
  120SOPE  C21112711   4.468   7.853   6.916 -0.1371  0.3198 -0.0627
  120SOPE  H11R12712   4.388   7.917   6.957 -0.2376 -0.4657  1.0068
  120SOPE  H11S12713   4.437   7.831   6.811 -0.2156  0.0379  0.0189
  120SOPE  C21212714   4.591   7.943   6.928 -0.3708  0.0221 -0.3885
  120SOPE  H12R12715   4.682   7.894   6.887  0.1315 -0.3647  1.1137
  120SOPE  H12S12716   4.613   7.961   7.036  0.3651 -0.9649 -0.3577
  120SOPE  C21312717   4.570   8.077   6.849 -0.2068  1.1331 -0.6457
  120SOPE  H13R12718   4.468   8.116   6.871 -0.7948 -0.7613  0.2447
  120SOPE  H13S12719   4.576   8.054   6.741 -0.9783 -1.4575 -0.2224
  120SOPE  C21412720   4.677   8.181   6.887  0.4801 -0.1698  0.7243
  120SOPE  H14R12721   4.769   8.146   6.836  0.7242  4.0316 -2.2806
  120SOPE  H14S12722   4.676   8.184   6.998  0.2590  2.5405  0.7062
  120SOPE  C21512723   4.647   8.316   6.829 -0.6425 -0.1989  0.3019
  120SOPE  H15R12724   4.539   8.344   6.837 -0.3195  1.4648 -0.5769
  120SOPE  H15S12725   4.663   8.316   6.719 -2.8894 -1.4493 -0.0874
  120SOPE  C21612726   4.716   8.432   6.910 -0.4182  0.8393 -0.4449
  120SOPE  H16R12727   4.824   8.407   6.917 -1.2061 -2.9488  0.4535
  120SOPE  H16S12728   4.681   8.429   7.015  2.4015  1.2490  0.5881
  120SOPE  C21712729   4.702   8.571   6.857 -0.4726 -0.1485  0.6485
  120SOPE  H17R12730   4.767   8.582   6.768  0.6335  0.3512  1.4985
  120SOPE  H17S12731   4.762   8.633   6.927  1.6498  0.2640 -1.4139
  120SOPE  C21812732   4.561   8.628   6.849 -0.4447 -0.1003  0.5875
  120SOPE  H18R12733   4.495   8.549   6.807 -2.7058  1.8925  0.1714
  120SOPE  H18S12734   4.561   8.718   6.783  1.0922 -0.6336 -0.1921
  120SOPE  H18T12735   4.525   8.662   6.949  0.7638  3.8911 -0.1529
  120SOPE   C3312736   4.043   7.171   7.325 -0.2657 -0.1843  0.6445
  120SOPE   H3X12737   3.973   7.256   7.337  0.2259  0.7253 -2.1368
  120SOPE   H3Y12738   3.984   7.078   7.310  0.4713 -0.2737 -2.1856
  120SOPE   C3412739   4.126   7.204   7.203 -0.1482 -0.0996  0.2800
  120SOPE   H4X12740   4.210   7.131   7.196  3.0938  3.0685  2.3860
  120SOPE   H4Y12741   4.177   7.302   7.218  2.0040 -1.2646  1.0593
  120SOPE   C3512742   4.046   7.206   7.070  0.1274 -0.3302  0.0912
  120SOPE   H5X12743   3.974   7.289   7.082 -0.3680 -0.8846  1.0604
  120SOPE   H5Y12744   3.998   7.105   7.068  1.2355 -0.8658 -1.6688
  120SOPE   C3612745   4.114   7.237   6.937 -0.2801 -0.4682  0.1780
  120SOPE   H6X12746   4.175   7.151   6.905  1.4229  1.1071 -1.0401
  120SOPE   H6Y12747   4.176   7.328   6.952  1.0731 -1.7557  3.2347
  120SOPE   C3712748   4.023   7.265   6.821  0.3492 -0.3688  0.7351
  120SOPE   H7X12749   3.964   7.356   6.847  0.0182 -0.5534  0.6420
  120SOPE   H7Y12750   3.949   7.184   6.805 -0.8135  0.5760  1.1785
  120SOPE   C3812751   4.098   7.276   6.683  0.1295 -0.1870  0.5284
  120SOPE   H8X12752   4.174   7.196   6.669  0.1979  0.2586 -2.1075
  120SOPE   H8Y12753   4.160   7.368   6.689 -0.8416  0.3709  4.2578
  120SOPE   C3912754   4.018   7.280   6.550 -0.2265  0.6691 -0.2791
  120SOPE   H9X12755   3.944   7.363   6.553  1.2393  2.0515  3.1055
  120SOPE   H9Y12756   3.961   7.185   6.543  2.6383 -1.4252  2.1893
  120SOPE  C31012757   4.098   7.301   6.428  0.4285  0.2700 -0.6083
  120SOPE  H10X12758   4.164   7.212   6.424 -2.2501 -1.8752 -0.1009
  120SOPE  H10Y12759   4.151   7.396   6.453 -2.2555  1.9116 -0.6987
  120SOPE  C31112760   4.009   7.327   6.298 -0.4924  0.7451 -0.0659
  120SOPE  H11X12761   3.953   7.236   6.268 -0.1957  0.8926 -1.1152
  120SOPE  H11Y12762   4.081   7.331   6.213  0.9964 -3.2310  0.7558
  120SOPE  C31212763   3.913   7.451   6.292 -0.1126  0.0392  0.4175
  120SOPE  H12X12764   3.979   7.539   6.274  1.1739 -1.0693 -0.4437
  120SOPE  H12Y12765   3.854   7.472   6.384 -0.4991  1.1585 -0.0707
  120SOPE  C31312766   3.818   7.440   6.170 -0.5144 -0.0808 -0.9980
  120SOPE  H13X12767   3.771   7.339   6.167  0.7574 -0.6715 -1.5193
  120SOPE  H13Y12768   3.874   7.448   6.075 -0.4886 -1.7870 -1.1540
  120SOPE  C31412769   3.713   7.550   6.163  0.5480 -0.7385  0.1272
  120SOPE  H14X12770   3.661   7.559   6.261 -3.1296  0.2864 -1.7218
  120SOPE  H14Y12771   3.629   7.529   6.093  2.0192 -0.3569 -1.8319
  120SOPE  C31512772   3.758   7.699   6.132 -0.3337  0.6011 -0.2465
  120SOPE  H15X12773   3.793   7.706   6.027  1.3658 -0.9302  0.1628
  120SOPE  H15Y12774   3.842   7.717   6.203  1.2244 -0.1735 -1.8313
  120SOPE  C31612775   3.655   7.811   6.175  0.0974 -0.7970  0.2232
  120SOPE  H16X12776   3.648   7.820   6.285  0.3049  2.0233  0.0830
  120SOPE  H16Y12777   3.554   7.789   6.134  0.7852 -2.0495 -0.8773
  120SOPE  C31712778   3.694   7.956   6.133 -0.3863  0.9732 -0.2395
  120SOPE  H17X12779   3.695   7.957   6.022  2.1890  0.9410 -0.2850
  120SOPE  H17Y12780   3.799   7.967   6.167 -0.3409 -1.0394  0.4233
  120SOPE  C31812781   3.607   8.070   6.187 -0.2459 -0.0774  0.5986
  120SOPE  H18X12782   3.641   8.162   6.134 -3.0328  0.7233  0.0121
  120SOPE  H18Y12783   3.608   8.079   6.298 -0.6558 -0.6306  0.6537
  120SOPE  H18Z12784   3.504   8.047   6.152 -0.1601 -0.5043  0.6202
  121SOPE     N12785   6.849   5.559   8.191 -0.9173  0.3545  0.1965
  121SOPE   HN112786   6.766   5.535   8.250 -1.4952  0.4073 -0.5879
  121SOPE   HN212787   6.828   5.660   8.176 -2.0246  0.0346 -0.5094
  121SOPE   HN312788   6.844   5.506   8.102 -0.9003  1.9234 -0.7816
  121SOPE   C1212789   6.963   5.511   8.278 -0.3351 -0.0039  0.2541
  121SOPE  H12A12790   6.959   5.401   8.298  2.7735 -0.3957 -0.7529
  121SOPE  H12B12791   6.964   5.577   8.367 -0.2586  2.5286 -1.5207
  121SOPE   C1112792   7.092   5.520   8.199  0.3866  0.1997  0.1250
  121SOPE  H11A12793   7.168   5.496   8.276  0.5117  1.3973  0.3897
  121SOPE  H11B12794   7.118   5.626   8.179 -0.6890  0.6601  1.0256
  121SOPE     P12795   7.194   5.451   7.971 -0.5147  0.5490  0.2492
  121SOPE   O1312796   7.146   5.379   7.848 -1.0897  0.7973 -0.1193
  121SOPE   O1412797   7.330   5.426   8.008 -0.8252  0.2336  0.0092
  121SOPE   O1212798   7.084   5.433   8.084 -0.1715 -0.4837 -0.1266
  121SOPE   O1112799   7.202   5.611   7.959 -1.2750 -0.1177  0.2798
  121SOPE    C112800   7.074   5.670   7.921  0.0563 -0.1929 -0.2645
  121SOPE    HA12801   7.058   5.765   7.976 -1.4826  0.2262 -1.3852
  121SOPE    HB12802   6.984   5.610   7.944  0.4706 -0.6103  0.3263
  121SOPE    C212803   7.073   5.687   7.764  0.0900  0.1008 -0.0699
  121SOPE    HS12804   7.053   5.586   7.721 -0.7720  1.4159 -3.0026
  121SOPE   O2112805   7.197   5.735   7.703 -0.6994 -0.0225  0.3169
  121SOPE   C2112806   7.254   5.842   7.746 -0.2916  0.2226  0.2152
  121SOPE   O2212807   7.217   5.915   7.838 -0.6416  0.4650 -0.3213
  121SOPE   C2212808   7.389   5.854   7.669 -0.3453 -0.2759  0.2279
  121SOPE   H2R12809   7.450   5.761   7.676  0.1125 -0.1839 -1.8644
  121SOPE   H2S12810   7.444   5.930   7.728 -0.5792  1.5226 -1.7391
  121SOPE    C312811   6.952   5.771   7.718 -0.0240 -0.3406 -0.2460
  121SOPE    HX12812   6.956   5.863   7.781  0.2837 -1.1262  0.9097
  121SOPE    HY12813   6.859   5.719   7.747  0.2774  0.3827  2.3134
  121SOPE   O3112814   6.964   5.803   7.583 -0.4957  0.0772  0.1818
  121SOPE   C3112815   6.933   5.696   7.500 -1.0384 -0.7288  0.0190
  121SOPE   O3212816   6.901   5.584   7.542  0.1390 -0.3810  0.5404
  121SOPE   C3212817   6.941   5.738   7.355  0.5828  0.4557  0.3049
  121SOPE   H2X12818   7.035   5.795   7.335  0.4209  0.5214 -0.2867
  121SOPE   H2Y12819   6.865   5.819   7.349 -1.9599 -1.8515 -0.1193
  121SOPE   C2312820   7.377   5.900   7.520 -0.3393  0.0677  0.1576
  121SOPE   H3R12821   7.480   5.936   7.496  0.1563  0.0422  2.0574
  121SOPE   H3S12822   7.313   5.989   7.504 -0.0835  0.2447  0.1075
  121SOPE   C2412823   7.348   5.776   7.430 -0.4638  0.3131 -0.4743
  121SOPE   H4R12824   7.436   5.708   7.442  1.4286  2.5578 -0.8487
  121SOPE   H4S12825   7.257   5.721   7.462  0.7566 -0.6759  1.5089
  121SOPE   C2512826   7.345   5.792   7.274  0.1665 -1.1105 -0.9529
  121SOPE   H5R12827   7.308   5.695   7.234  0.3418 -1.6959  0.2300
  121SOPE   H5S12828   7.271   5.873   7.261  2.5443  1.2572 -0.6867
  121SOPE   C2612829   7.477   5.851   7.215  0.0343 -0.1439 -0.2526
  121SOPE   H6R12830   7.509   5.948   7.259  0.8663 -0.7457  0.5225
  121SOPE   H6S12831   7.563   5.782   7.230 -0.8079 -0.6508  3.0774
  121SOPE   C2712832   7.458   5.873   7.069 -0.9495 -0.4454  0.3132
  121SOPE   H7R12833   7.408   5.789   7.016 -0.6825  0.6484 -1.8147
  121SOPE   H7S12834   7.390   5.961   7.073  0.0664  0.3301  1.3414
  121SOPE   C2812835   7.580   5.907   6.978 -0.4418 -0.0346 -0.4623
  121SOPE   H8R12836   7.634   5.811   6.957 -0.3958 -0.4788  1.5271
  121SOPE   H8S12837   7.536   5.935   6.880 -3.9585 -0.4416  0.8537
  121SOPE   C2912838   7.675   6.015   7.022 -0.1276 -0.4608  0.0134
  121SOPE   H9112839   7.763   5.987   7.081 -0.0424 -0.5554 -0.1592
  121SOPE  C21012840   7.655   6.150   7.017  0.9711  0.1094  0.0724
  121SOPE  H10112841   7.717   6.222   7.073 -1.2821  1.0160  1.5390
  121SOPE  C21112842   7.530   6.218   6.963 -0.0519 -0.0551  0.3152
  121SOPE  H11R12843   7.472   6.267   7.045 -3.8188 -0.5865 -1.7859
  121SOPE  H11S12844   7.448   6.160   6.916 -0.5314 -0.1789  1.2626
  121SOPE  C21212845   7.571   6.330   6.860  0.0738 -0.0414  0.6674
  121SOPE  H12R12846   7.636   6.409   6.904 -0.2898 -0.5861  2.2541
  121SOPE  H12S12847   7.481   6.379   6.816 -0.2532  1.1479  2.5156
  121SOPE  C21312848   7.649   6.275   6.744  0.0738 -0.2361 -0.1194
  121SOPE  H13R12849   7.623   6.168   6.731 -0.0717 -0.0547 -1.4585
  121SOPE  H13S12850   7.756   6.281   6.775 -0.5555  1.8663  1.9298
  121SOPE  C21412851   7.610   6.343   6.609  0.3559  0.0524 -0.5750
  121SOPE  H14R12852   7.505   6.316   6.586 -0.5814  1.5169  1.6608
  121SOPE  H14S12853   7.679   6.309   6.529  1.7875  0.3018  0.5029
  121SOPE  C21512854   7.642   6.492   6.619 -0.1194 -0.0712 -0.1980
  121SOPE  H15R12855   7.738   6.507   6.673  1.2893 -2.3645 -1.8527
  121SOPE  H15S12856   7.561   6.548   6.670  0.8127  1.2185 -0.0936
  121SOPE  C21612857   7.649   6.557   6.479 -0.0342  0.2972 -0.3006
  121SOPE  H16R12858   7.553   6.541   6.425  1.9705 -0.4506 -3.9096
  121SOPE  H16S12859   7.722   6.500   6.418  0.8748  1.4595 -0.3238
  121SOPE  C21712860   7.687   6.707   6.491  0.7418 -0.1183  0.5240
  121SOPE  H17R12861   7.755   6.730   6.406  0.3137 -0.1565  0.1677
  121SOPE  H17S12862   7.738   6.734   6.586 -1.1356  2.3428  0.9381
  121SOPE  C21812863   7.568   6.807   6.487  0.0040  0.3675 -0.4951
  121SOPE  H18R12864   7.509   6.771   6.400  2.6090  0.5362 -2.4712
  121SOPE  H18S12865   7.589   6.916   6.493 -1.1578  0.5453  0.9256
  121SOPE  H18T12866   7.502   6.775   6.570  0.4327 -0.6384 -0.5291
  121SOPE   C3312867   6.919   5.623   7.249  0.1856  0.2019 -0.4407
  121SOPE   H3X12868   6.813   5.591   7.248 -0.0793  1.0355 -1.1256
  121SOPE   H3Y12869   6.981   5.534   7.271 -1.7069 -0.6578  1.7497
  121SOPE   C3412870   6.960   5.668   7.110  0.1670  0.2886  0.0888
  121SOPE   H4X12871   7.070   5.681   7.105  0.1725  0.5155  0.6930
  121SOPE   H4Y12872   6.909   5.762   7.079 -0.6073 -0.3756 -0.6949
  121SOPE   C3512873   6.915   5.563   7.016  0.0310  0.0211  0.4223
  121SOPE   H5X12874   6.805   5.546   7.022  0.2371 -1.1032  1.2496
  121SOPE   H5Y12875   6.962   5.469   7.051  1.9508  0.8838  0.2677
  121SOPE   C3612876   6.970   5.589   6.874  0.1318  0.2664  0.1492
  121SOPE   H6X12877   7.069   5.634   6.900  0.3341  0.1666 -0.4348
  121SOPE   H6Y12878   6.915   5.668   6.820  0.2323 -0.5766 -1.2307
  121SOPE   C3712879   6.981   5.471   6.774 -0.0051  0.1863 -0.2621
  121SOPE   H7X12880   6.883   5.447   6.726 -0.6212  0.7143  0.6843
  121SOPE   H7Y12881   7.020   5.377   6.820  0.3252 -1.1799 -3.1226
  121SOPE   C3812882   7.076   5.497   6.660 -0.0281  0.9470  0.6977
  121SOPE   H8X12883   7.109   5.405   6.609 -1.3142  0.0203  1.4706
  121SOPE   H8Y12884   7.166   5.540   6.708  1.1451 -2.9218  2.3182
  121SOPE   C3912885   7.028   5.597   6.551  0.4992 -0.2677  0.3827
  121SOPE   H9X12886   7.111   5.659   6.512 -1.7248  1.7231 -1.4604
  121SOPE   H9Y12887   6.957   5.664   6.604  1.8098  1.3334  0.1791
  121SOPE  C31012888   6.944   5.535   6.439 -0.1369  0.1899  0.0788
  121SOPE  H10X12889   6.853   5.482   6.474 -1.3293  1.6671 -0.6540
  121SOPE  H10Y12890   6.993   5.453   6.383  0.3200  0.1475  0.5287
  121SOPE  C31112891   6.879   5.648   6.356  0.2557  0.0807  0.5236
  121SOPE  H11X12892   6.965   5.707   6.318  0.8056 -0.9020  0.1716
  121SOPE  H11Y12893   6.818   5.712   6.422 -0.6006  0.6721 -0.7890
  121SOPE  C31212894   6.789   5.595   6.242  0.2958 -0.1118  1.0923
  121SOPE  H12X12895   6.693   5.554   6.281 -0.3098 -0.6091 -0.8354
  121SOPE  H12Y12896   6.845   5.514   6.191 -0.4669  0.5022 -0.7732
  121SOPE  C31312897   6.755   5.703   6.136  0.0300 -0.6868 -0.3611
  121SOPE  H13X12898   6.843   5.726   6.072  0.1834 -0.4337 -0.0668
  121SOPE  H13Y12899   6.732   5.798   6.190 -1.7992 -2.1639  1.6308
  121SOPE  C31412900   6.633   5.683   6.047  0.0471 -0.4648  0.7215
  121SOPE  H14X12901   6.544   5.679   6.112  1.0674  0.7309  2.2532
  121SOPE  H14Y12902   6.648   5.579   6.011 -1.2479  0.3621 -2.5735
  121SOPE  C31512903   6.612   5.767   5.921 -0.3921  0.5129  0.0672
  121SOPE  H15X12904   6.525   5.727   5.864 -2.0683  0.1760  2.6798
  121SOPE  H15Y12905   6.703   5.762   5.858 -0.9643 -1.2012 -0.7099
  121SOPE  C31612906   6.580   5.913   5.950  0.1535 -0.7540  0.3885
  121SOPE  H16X12907   6.667   5.958   6.003 -0.4781 -2.2691  2.8769
  121SOPE  H16Y12908   6.491   5.909   6.016  0.0592  2.1227  0.5677
  121SOPE  C31712909   6.532   5.988   5.820 -0.2597  0.0249  0.6849
  121SOPE  H17X12910   6.432   5.946   5.800  0.5955 -1.5110 -0.5814
  121SOPE  H17Y12911   6.596   5.949   5.738  0.3686 -2.9950  2.4699
  121SOPE  C31812912   6.530   6.134   5.827  0.1542 -0.1831 -0.1347
  121SOPE  H18X12913   6.476   6.182   5.744 -1.8663 -2.0211  0.0352
  121SOPE  H18Y12914   6.636   6.165   5.814 -0.0504  1.1661  1.1578
  121SOPE  H18Z12915   6.499   6.166   5.929 -0.0375 -1.2847  0.1678
  122SOPE     N12916   5.168   0.366   8.498 -0.2687  0.0126  0.0236
  122SOPE   HN112917   5.079   0.398   8.454 -2.8585 -1.6353  3.6037
  122SOPE   HN212918   5.142   0.347   8.597 -0.6552  1.0639  0.1448
  122SOPE   HN312919   5.242   0.439   8.502 -1.1413  1.1332 -2.1293
  122SOPE   C1212920   5.222   0.237   8.443  0.0804 -0.1829 -1.2005
  122SOPE  H12A12921   5.262   0.175   8.525  1.7530  1.4131 -0.7408
  122SOPE  H12B12922   5.306   0.264   8.376  0.8786  0.4157  0.0011
  122SOPE   C1112923   5.117   0.164   8.370  0.7643 -0.0765  0.4794
  122SOPE  H11A12924   5.025   0.140   8.427  1.0697  0.4000  1.1794
  122SOPE  H11B12925   5.152   0.068   8.325 -0.9922 -0.4046 -0.2987
  122SOPE     P12926   4.949   0.289   8.200  0.0214  0.6229 -0.1734
  122SOPE   O1312927   4.974   0.422   8.143  0.1231 -0.2538 -0.6500
  122SOPE   O1412928   4.840   0.282   8.297 -0.0443 -0.1325 -0.4727
  122SOPE   O1212929   5.087   0.246   8.263 -0.1884  0.0793  0.2821
  122SOPE   O1112930   4.922   0.188   8.086 -0.3679 -0.0523  0.2904
  122SOPE    C112931   5.020   0.099   8.035  0.5166 -0.4341  0.3307
  122SOPE    HA12932   4.972   0.009   7.991  2.1079 -0.4986 -1.3753
  122SOPE    HB12933   5.088   0.065   8.116  1.5126  2.6094  0.9170
  122SOPE    C212934   5.113   0.162   7.930  0.7600  0.6736 -0.3284
  122SOPE    HS12935   5.183   0.241   7.965  0.8554  0.4710 -0.0585
  122SOPE   O2112936   5.027   0.213   7.825  0.4580  0.9658  0.0838
  122SOPE   C2112937   5.069   0.318   7.768  0.2227 -0.1619 -0.8509
  122SOPE   O2212938   5.171   0.377   7.796 -0.2021  0.3842  0.0062
  122SOPE   C2212939   4.986   0.362   7.657  0.2647 -0.1394 -0.5413
  122SOPE   H2R12940   4.954   0.462   7.694  1.0786 -0.6221  1.6253
  122SOPE   H2S12941   4.904   0.291   7.636 -1.5363  1.6439  0.0821
  122SOPE    C312942   5.206   0.054   7.869 -0.2374 -0.8794 -0.4406
  122SOPE    HX12943   5.147  -0.024   7.816 -1.6884 -0.6051  0.6946
  122SOPE    HY12944   5.258  -0.004   7.948 -1.6746 -0.1914  1.0869
  122SOPE   O3112945   5.302   0.105   7.774  0.3990 -0.3966  0.7178
  122SOPE   C3112946   5.408   0.177   7.820 -0.1916  0.8594 -0.0496
  122SOPE   O3212947   5.433   0.190   7.937  0.4831  0.6540 -0.5970
  122SOPE   C3212948   5.491   0.220   7.705 -0.2283  0.0412  0.5768
  122SOPE   H2X12949   5.472   0.329   7.692  1.1587  0.5007  2.0915
  122SOPE   H2Y12950   5.466   0.161   7.614 -1.9536  2.5948 -0.7374
  122SOPE   C2312951   5.084   0.385   7.540  0.2961  0.0766  0.0735
  122SOPE   H3R12952   5.151   0.470   7.568 -0.0674  0.8893 -1.4173
  122SOPE   H3S12953   5.021   0.432   7.461  1.3343  0.8434 -0.3155
  122SOPE   C2412954   5.144   0.255   7.484  0.3228  0.2364  0.0811
  122SOPE   H4R12955   5.214   0.199   7.550 -0.9485 -0.3015  1.0025
  122SOPE   H4S12956   5.062   0.180   7.488  2.7223 -2.6176 -0.7004
  122SOPE   C2512957   5.190   0.266   7.334  0.7593 -0.2517 -0.4384
  122SOPE   H5R12958   5.196   0.376   7.317 -3.4336  0.5172  1.6928
  122SOPE   H5S12959   5.286   0.212   7.318  1.2232  0.7903 -1.2928
  122SOPE   C2612960   5.094   0.203   7.239  0.2972  0.1226 -0.0402
  122SOPE   H6R12961   5.084   0.099   7.277  2.8697  0.4318  1.6799
  122SOPE   H6S12962   5.000   0.262   7.231  0.8292  0.7231 -3.5731
  122SOPE   C2712963   5.156   0.189   7.097 -0.8645  0.1129 -0.3185
  122SOPE   H7R12964   5.187   0.285   7.050 -0.6139 -1.0541 -2.6980
  122SOPE   H7S12965   5.249   0.128   7.102  0.5631  2.0356 -1.6396
  122SOPE   C2812966   5.069   0.115   6.993  0.8949  0.5550  0.6116
  122SOPE   H8R12967   4.973   0.169   6.988  0.5705  0.0039  0.7816
  122SOPE   H8S12968   5.108   0.120   6.889  1.5789 -0.9755  0.7712
  122SOPE   C2912969   5.038  -0.023   7.036 -0.4099  0.6782 -0.4420
  122SOPE   H9112970   5.061  -0.055   7.139 -1.6045  2.0842  0.3193
  122SOPE  C21012971   5.006  -0.124   6.952  0.3953 -0.6373 -0.2557
  122SOPE  H10112972   4.987  -0.222   6.999 -1.0979 -0.3151 -0.1293
  122SOPE  C21112973   4.964  -0.111   6.805 -0.2296 -0.2794 -0.3135
  122SOPE  H11R12974   4.918  -0.011   6.791 -2.3812 -1.1954 -0.2330
  122SOPE  H11S12975   4.890  -0.192   6.784  0.5096 -0.3490 -2.9838
  122SOPE  C21212976   5.086  -0.116   6.710  0.2133 -1.0737  0.2097
  122SOPE  H12R12977   5.163  -0.181   6.756 -1.2452 -2.0194  1.3778
  122SOPE  H12S12978   5.129  -0.014   6.699 -0.1644 -0.8995  0.3377
  122SOPE  C21312979   5.059  -0.155   6.566 -0.4763  0.0260 -0.4892
  122SOPE  H13R12980   4.998  -0.084   6.506  0.3489  0.0732 -1.2949
  122SOPE  H13S12981   5.006  -0.252   6.578 -3.1074  1.3733 -0.3595
  122SOPE  C21412982   5.195  -0.155   6.494  0.6844 -0.7201 -0.4617
  122SOPE  H14R12983   5.255  -0.247   6.508  2.7359  0.7407  0.8545
  122SOPE  H14S12984   5.253  -0.070   6.535  0.9049 -1.9031  1.8189
  122SOPE  C21512985   5.169  -0.115   6.350  0.0133  0.0561  1.1642
  122SOPE  H15R12986   5.120  -0.017   6.333 -0.5281 -0.6528 -2.0173
  122SOPE  H15S12987   5.095  -0.186   6.308  0.5290  1.6349 -2.8401
  122SOPE  C21612988   5.305  -0.113   6.267  0.4625  0.1741 -0.1812
  122SOPE  H16R12989   5.342  -0.218   6.275 -1.1727 -0.5006 -0.7626
  122SOPE  H16S12990   5.369  -0.039   6.318  0.8034  1.2901 -2.1426
  122SOPE  C21712991   5.287  -0.092   6.113 -0.0380 -1.2938  0.2973
  122SOPE  H17R12992   5.232  -0.184   6.085 -0.0585 -1.6436  1.4089
  122SOPE  H17S12993   5.381  -0.091   6.054  0.4633 -1.7064  1.0662
  122SOPE  C21812994   5.218   0.037   6.069  0.4456  0.0799 -0.3432
  122SOPE  H18R12995   5.209   0.035   5.959  1.3505 -0.4626 -0.4258
  122SOPE  H18S12996   5.270   0.129   6.102  0.1150 -0.5144  2.0800
  122SOPE  H18T12997   5.115   0.036   6.109  0.3569 -2.3673 -0.4575
  122SOPE   C3312998   5.640   0.182   7.728 -0.3308 -0.4666 -0.3908
  122SOPE   H3X12999   5.667   0.082   7.689 -3.2125 -1.6459  0.4402
  122SOPE   H3Y13000   5.654   0.185   7.838  1.5375 -1.1170 -0.5664
  122SOPE   C3413001   5.726   0.279   7.663 -0.0826 -0.0935  0.0096
  122SOPE   H4X13002   5.830   0.250   7.690 -0.5622  0.0420  2.2430
  122SOPE   H4Y13003   5.708   0.375   7.716 -0.2901 -1.3743  2.4328
  122SOPE   C3513004   5.709   0.299   7.510  0.5914 -1.0309 -0.3223
  122SOPE   H5X13005   5.771   0.382   7.471 -2.1334  1.2372 -0.2173
  122SOPE   H5Y13006   5.602   0.323   7.492  0.1744 -1.7729  0.9842
  122SOPE   C3613007   5.736   0.172   7.439 -0.1656 -0.5682 -0.0798
  122SOPE   H6X13008   5.665   0.090   7.462 -0.7711  0.0434  0.2685
  122SOPE   H6Y13009   5.837   0.142   7.475 -0.6233 -0.1956  1.5755
  122SOPE   C3713010   5.746   0.192   7.287  0.5145  0.7775  0.2758
  122SOPE   H7X13011   5.803   0.105   7.248  1.1105  0.8116  1.0557
  122SOPE   H7Y13012   5.801   0.286   7.262  2.0854 -0.4787 -1.2444
  122SOPE   C3813013   5.616   0.166   7.210 -0.3352  0.2764 -0.5605
  122SOPE   H8X13014   5.549   0.252   7.232 -0.0525 -0.0322  1.8216
  122SOPE   H8Y13015   5.569   0.070   7.241 -0.1213  0.2107 -0.4408
  122SOPE   C3913016   5.636   0.163   7.059  0.8891  0.4861 -0.1437
  122SOPE   H9X13017   5.723   0.102   7.027 -0.9084 -1.7314 -1.0692
  122SOPE   H9Y13018   5.683   0.259   7.030  2.0333  0.3080  1.0336
  122SOPE  C31013019   5.495   0.137   6.987 -0.3245  0.9000 -0.5169
  122SOPE  H10X13020   5.430   0.204   7.048  0.1143  0.1383  0.8325
  122SOPE  H10Y13021   5.476   0.030   7.009  0.3220  1.0677  1.0015
  122SOPE  C31113022   5.485   0.172   6.842  0.0358  0.1041  0.2024
  122SOPE  H11X13023   5.538   0.269   6.835 -0.6938  0.7755  2.9486
  122SOPE  H11Y13024   5.379   0.182   6.808  0.0071  0.3078  0.3523
  122SOPE  C31213025   5.555   0.068   6.747 -0.0086 -0.5139  0.4629
  122SOPE  H12X13026   5.505  -0.030   6.766 -1.6061  0.3534  0.8989
  122SOPE  H12Y13027   5.661   0.058   6.778 -0.0283  0.0608  0.7236
  122SOPE  C31313028   5.538   0.103   6.596 -0.8093  0.2044 -0.2538
  122SOPE  H13X13029   5.439   0.150   6.575 -1.6917 -0.1339  2.6677
  122SOPE  H13Y13030   5.534   0.006   6.542  0.4776  0.8485 -1.5600
  122SOPE  C31413031   5.660   0.193   6.551  0.8315 -0.5403  0.0391
  122SOPE  H14X13032   5.755   0.145   6.583  0.5355 -0.0322  1.7842
  122SOPE  H14Y13033   5.653   0.287   6.609 -0.9722 -0.9510  0.5292
  122SOPE  C31513034   5.660   0.239   6.405  0.8068 -0.2828  0.1647
  122SOPE  H15X13035   5.555   0.248   6.371 -0.0239 -2.1418  1.9807
  122SOPE  H15Y13036   5.700   0.152   6.348 -0.2297 -0.3202 -0.5361
  122SOPE  C31613037   5.725   0.375   6.384 -0.4736 -0.1981  0.8178
  122SOPE  H16X13038   5.730   0.384   6.274 -0.4674 -0.0963  0.8265
  122SOPE  H16Y13039   5.832   0.362   6.408 -0.1219 -2.1349 -1.4740
  122SOPE  C31713040   5.667   0.502   6.444 -0.0305  0.4747 -0.1484
  122SOPE  H17X13041   5.709   0.498   6.547 -0.7148 -4.0919  0.1616
  122SOPE  H17Y13042   5.557   0.502   6.458  0.0169  0.0158  0.2376
  122SOPE  C31813043   5.697   0.630   6.368 -0.5237  0.6797 -0.3043
  122SOPE  H18X13044   5.657   0.627   6.265  1.7762 -0.2143 -1.2357
  122SOPE  H18Y13045   5.804   0.652   6.344  0.1107 -0.5907  1.1568
  122SOPE  H18Z13046   5.658   0.719   6.422  0.9092 -0.0812  2.1422
  123SOPE     N13047   2.933   0.687   3.672  0.0558 -0.4636  0.5021
  123SOPE   HN113048   2.891   0.733   3.589  1.9294 -1.2797 -0.9689
  123SOPE   HN213049   3.024   0.644   3.648  0.2742 -0.6270  1.5777
  123SOPE   HN313050   2.871   0.606   3.695 -1.7108  0.4318 -0.8560
  123SOPE   C1213051   2.961   0.787   3.777 -0.2965  0.3504 -0.5865
  123SOPE  H12A13052   3.042   0.843   3.726 -0.0922 -0.4246 -1.1283
  123SOPE  H12B13053   3.025   0.733   3.850  1.3127  0.7665 -1.6611
  123SOPE   C1113054   2.850   0.874   3.828  0.5925  0.0472  0.2571
  123SOPE  H11A13055   2.790   0.926   3.751 -0.6886 -0.2024  1.0648
  123SOPE  H11B13056   2.903   0.957   3.879  0.7979 -0.6769  1.2542
  123SOPE     P13057   2.668   0.705   3.873  0.1780  0.7960  0.3588
  123SOPE   O1313058   2.701   0.563   3.893  0.3957 -0.0846 -0.6634
  123SOPE   O1413059   2.652   0.741   3.732  0.5997  0.3754  0.0634
  123SOPE   O1213060   2.772   0.803   3.926 -0.2323 -0.3268  0.8345
  123SOPE   O1113061   2.549   0.750   3.960 -0.4800  0.8367 -0.0838
  123SOPE    C113062   2.415   0.704   3.930  0.0788 -0.2603  0.3735
  123SOPE    HA13063   2.416   0.594   3.915  0.5840  0.0862 -2.5890
  123SOPE    HB13064   2.384   0.751   3.835  0.1846 -0.5642  0.1882
  123SOPE    C213065   2.318   0.744   4.045  0.2549  0.3113 -0.1260
  123SOPE    HS13066   2.214   0.715   4.021  0.3673 -0.1836 -0.0250
  123SOPE   O2113067   2.327   0.884   4.067  0.5240 -0.3842 -0.4898
  123SOPE   C2113068   2.232   0.932   4.137  0.9009  0.2592 -0.2921
  123SOPE   O2213069   2.130   0.874   4.176  0.1713 -0.1681  0.2822
  123SOPE   C2213070   2.263   1.076   4.169 -0.8769 -0.5908  0.0095
  123SOPE   H2R13071   2.211   1.138   4.093  0.8119 -0.3362 -0.9723
  123SOPE   H2S13072   2.368   1.109   4.159 -2.2969  4.0363 -2.5624
  123SOPE    C313073   2.375   0.659   4.165  0.6432 -0.1781 -0.2276
  123SOPE    HX13074   2.471   0.707   4.194 -0.4890  1.9187  0.2577
  123SOPE    HY13075   2.398   0.558   4.126  2.2030  1.0203 -2.6361
  123SOPE   O3113076   2.276   0.654   4.277  0.2425 -0.7002 -0.1695
  123SOPE   C3113077   2.183   0.571   4.255  0.6337  1.1706  0.1411
  123SOPE   O3213078   2.175   0.492   4.159  0.5244 -0.0379 -0.1590
  123SOPE   C3213079   2.082   0.575   4.376 -0.5043  0.1065 -0.6757
  123SOPE   H2X13080   2.062   0.475   4.418 -0.1909 -0.4055 -1.7113
  123SOPE   H2Y13081   1.984   0.612   4.339 -0.4156 -1.4142 -2.6148
  123SOPE   C2313082   2.205   1.121   4.305  0.2347  0.5430  0.8552
  123SOPE   H3R13083   2.097   1.100   4.313  0.1963 -0.0621 -0.8035
  123SOPE   H3S13084   2.231   1.228   4.320 -0.7953  1.3548 -2.3391
  123SOPE   C2413085   2.270   1.044   4.422 -0.5055  0.4711 -0.1000
  123SOPE   H4R13086   2.210   1.066   4.512 -0.2377  1.0984 -0.0683
  123SOPE   H4S13087   2.251   0.937   4.399  2.0384  0.2459 -1.6336
  123SOPE   C2513088   2.420   1.077   4.443 -0.0445  0.1547 -0.2622
  123SOPE   H5R13089   2.480   1.047   4.355  1.4451 -0.7509  0.9921
  123SOPE   H5S13090   2.422   1.187   4.458  2.2579  0.2847 -1.2362
  123SOPE   C2613091   2.474   0.982   4.557 -0.2160 -0.3470  0.5972
  123SOPE   H6R13092   2.436   0.879   4.542  1.7963 -0.8796 -1.2541
  123SOPE   H6S13093   2.585   0.979   4.560 -0.1589  1.0603  0.6786
  123SOPE   C2713094   2.435   1.038   4.692 -0.3118 -0.3580  0.0999
  123SOPE   H7R13095   2.467   1.145   4.687 -1.5489  0.1184  1.7118
  123SOPE   H7S13096   2.324   1.036   4.698 -0.2758 -1.0775  0.5625
  123SOPE   C2813097   2.508   0.970   4.808  1.1212 -0.3352  0.0646
  123SOPE   H8R13098   2.468   0.866   4.815  2.1797 -0.7677 -0.0651
  123SOPE   H8S13099   2.618   0.956   4.798  0.8945 -0.8064 -2.8678
  123SOPE   C2913100   2.474   1.048   4.929 -0.4764  0.4698 -0.4622
  123SOPE   H9113101   2.519   1.148   4.937  3.1918 -1.0556 -0.1384
  123SOPE  C21013102   2.397   1.008   5.031  0.0892 -0.4973 -0.4040
  123SOPE  H10113103   2.378   1.068   5.120 -0.9147 -0.0837 -0.8805
  123SOPE  C21113104   2.317   0.883   5.042 -0.0484 -0.1857  0.5933
  123SOPE  H11R13105   2.357   0.806   5.111 -2.4987 -0.8763  1.3260
  123SOPE  H11S13106   2.313   0.836   4.942  1.4915  1.5483 -0.3373
  123SOPE  C21213107   2.185   0.917   5.119  0.4072  0.0482  0.2204
  123SOPE  H12R13108   2.133   0.982   5.045 -0.6396 -2.0879 -1.0008
  123SOPE  H12S13109   2.215   0.975   5.209  1.0266 -0.5072  0.3744
  123SOPE  C21313110   2.107   0.792   5.153 -0.3487 -0.6206 -0.2824
  123SOPE  H13R13111   2.161   0.760   5.245  1.1889  0.0636 -0.8949
  123SOPE  H13S13112   2.117   0.711   5.078 -1.5710 -1.0440 -0.0114
  123SOPE  C21413113   1.956   0.827   5.169 -0.7092  0.5754  0.0093
  123SOPE  H14R13114   1.910   0.729   5.195 -0.9558  0.8864  0.7755
  123SOPE  H14S13115   1.941   0.879   5.073 -0.9387 -0.5039 -0.5575
  123SOPE  C21513116   1.931   0.926   5.283 -0.2368 -0.1737  0.2924
  123SOPE  H15R13117   1.994   1.016   5.263  1.4070 -1.3247  0.0779
  123SOPE  H15S13118   1.965   0.899   5.386 -0.3202  1.1214  0.6769
  123SOPE  C21613119   1.778   0.973   5.299 -0.2271  0.8775  0.2825
  123SOPE  H16R13120   1.758   1.018   5.399  0.0257 -1.3159  1.3837
  123SOPE  H16S13121   1.723   0.876   5.299 -0.6946  1.1381  0.9494
  123SOPE  C21713122   1.731   1.054   5.180  0.2494 -0.4651 -0.3391
  123SOPE  H17R13123   1.754   1.001   5.085  1.0333 -1.3706  0.3402
  123SOPE  H17S13124   1.798   1.142   5.179  0.2645 -0.4620  0.2849
  123SOPE  C21813125   1.583   1.100   5.196 -0.4633  0.6825  0.4168
  123SOPE  H18R13126   1.559   1.161   5.106 -0.8636 -1.2583 -0.8365
  123SOPE  H18S13127   1.569   1.173   5.278 -1.0903 -0.0581  0.9783
  123SOPE  H18T13128   1.514   1.014   5.210 -0.1686  0.7422  2.6801
  123SOPE   C3313129   2.129   0.657   4.498 -0.5231 -1.0246 -0.0709
  123SOPE   H3X13130   2.140   0.764   4.471  0.9280 -0.6951  1.6313
  123SOPE   H3Y13131   2.230   0.615   4.520  0.3176  0.3303 -1.1690
  123SOPE   C3413132   2.038   0.625   4.620 -1.0455 -0.5481  0.3145
  123SOPE   H4X13133   1.932   0.655   4.606 -0.7342  0.0645 -0.9071
  123SOPE   H4Y13134   2.075   0.681   4.708 -2.0818  0.2650  0.2516
  123SOPE   C3513135   2.046   0.476   4.671 -0.0222  0.0299 -0.5422
  123SOPE   H5X13136   2.154   0.450   4.681  0.3696  1.7386  0.0914
  123SOPE   H5Y13137   1.996   0.407   4.600  2.5779  0.2462 -2.7834
  123SOPE   C3613138   1.980   0.460   4.808  0.0372 -0.9260 -0.4162
  123SOPE   H6X13139   1.873   0.482   4.789 -0.3181 -1.8623  0.4321
  123SOPE   H6Y13140   2.021   0.537   4.878 -1.4144 -1.5989  1.2515
  123SOPE   C3713141   1.993   0.326   4.891 -0.6711 -0.1497  0.5779
  123SOPE   H7X13142   2.100   0.308   4.916 -0.3774 -0.4082 -0.8120
  123SOPE   H7Y13143   1.957   0.237   4.835 -1.6996 -1.0481  2.5291
  123SOPE   C3813144   1.905   0.326   5.021 -1.0184 -0.5095  0.1500
  123SOPE   H8X13145   1.898   0.221   5.055  0.9127 -0.5843  0.4401
  123SOPE   H8Y13146   1.804   0.363   4.993 -0.8347  0.9162  1.2029
  123SOPE   C3913147   1.961   0.414   5.137  0.0808  1.0890 -0.3473
  123SOPE   H9X13148   1.940   0.523   5.124  0.7560  1.0242 -2.3009
  123SOPE   H9Y13149   2.071   0.407   5.134  0.0339  0.1177  0.0051
  123SOPE  C31013150   1.921   0.365   5.275  0.3833  0.1208  0.4107
  123SOPE  H10X13151   1.958   0.261   5.285 -0.5111 -0.2784 -0.3026
  123SOPE  H10Y13152   1.811   0.372   5.287  0.5715 -0.0041  2.6771
  123SOPE  C31113153   1.974   0.469   5.383  0.3837  0.0659 -0.1567
  123SOPE  H11X13154   1.928   0.569   5.369 -2.2127 -0.4486  3.1602
  123SOPE  H11Y13155   2.083   0.474   5.365 -0.0030  1.5227 -2.4937
  123SOPE  C31213156   1.929   0.425   5.526 -0.0760 -0.0052  0.3833
  123SOPE  H12X13157   1.952   0.317   5.533 -1.8421 -0.5464 -1.2904
  123SOPE  H12Y13158   1.819   0.438   5.532  0.1622  2.1966  0.7702
  123SOPE  C31313159   1.993   0.508   5.634  1.0109  0.9169  0.6714
  123SOPE  H13X13160   1.961   0.610   5.604 -0.0913  1.3010  2.9522
  123SOPE  H13Y13161   2.103   0.510   5.616  0.9848  3.4021  0.3572
  123SOPE  C31413162   1.936   0.483   5.780 -0.3292  0.0668 -0.8253
  123SOPE  H14X13163   1.927   0.374   5.797  0.8935  0.2941  1.7473
  123SOPE  H14Y13164   1.829   0.513   5.774 -0.7560 -1.5261 -1.9934
  123SOPE  C31513165   2.025   0.551   5.887 -0.4063  0.5822 -0.2940
  123SOPE  H15X13166   2.034   0.657   5.854 -0.4097  0.6870  0.0379
  123SOPE  H15Y13167   2.125   0.505   5.885 -0.0365  1.1872  1.9339
  123SOPE  C31613168   1.992   0.531   6.032  0.4452 -0.5129  0.5026
  123SOPE  H16X13169   2.000   0.426   6.070 -0.6704 -0.6584  0.3704
  123SOPE  H16Y13170   1.882   0.541   6.045  0.2307 -2.0869  0.0983
  123SOPE  C31713171   2.075   0.623   6.130  0.0572  0.7336 -0.2924
  123SOPE  H17X13172   2.064   0.730   6.101 -2.0940  1.1621  1.7883
  123SOPE  H17Y13173   2.181   0.601   6.103 -0.0851  0.8925 -1.0171
  123SOPE  C31813174   2.047   0.612   6.283  0.2054 -0.2446 -0.3413
  123SOPE  H18X13175   1.951   0.665   6.302 -0.1060 -0.5986 -0.8966
  123SOPE  H18Y13176   2.133   0.653   6.340 -0.3471  0.7465 -0.1868
  123SOPE  H18Z13177   2.044   0.504   6.307 -0.8874  0.1654  1.5697
  124SOPE     N13178   4.427   5.027   3.765  0.2739  0.1071 -0.6308
  124SOPE   HN113179   4.514   5.018   3.822 -0.5266 -1.6420  0.3699
  124SOPE   HN213180   4.418   5.119   3.716  1.3330  0.6479  0.1593
  124SOPE   HN313181   4.353   5.025   3.838 -1.8203 -0.0070 -2.6302
  124SOPE   C1213182   4.408   4.908   3.671  0.2768 -0.2439  0.7110
  124SOPE  H12A13183   4.491   4.919   3.598  1.5547  1.3771  2.3313
  124SOPE  H12B13184   4.310   4.928   3.620 -1.0899  1.1374  3.6367
  124SOPE   C1113185   4.423   4.780   3.747 -0.7448  0.3630  0.5329
  124SOPE  H11A13186   4.399   4.693   3.682 -0.2364  0.6504 -0.0483
  124SOPE  H11B13187   4.348   4.764   3.827 -0.9012 -1.0897  0.1324
  124SOPE     P13188   4.664   4.661   3.780  0.3749  0.3902 -0.0915
  124SOPE   O1313189   4.793   4.720   3.738  0.7445  0.7425  0.5272
  124SOPE   O1413190   4.610   4.552   3.696 -0.4265 -0.0211  0.0688
  124SOPE   O1213191   4.557   4.771   3.813 -0.7182 -0.3313  0.1287
  124SOPE   O1113192   4.689   4.601   3.923 -0.1240 -0.0600  0.0549
  124SOPE    C113193   4.626   4.484   3.976  0.1773  0.3728 -0.4451
  124SOPE    HA13194   4.690   4.450   4.060 -0.6937  1.3248  0.6234
  124SOPE    HB13195   4.621   4.400   3.903  1.1514  0.7663 -0.9959
  124SOPE    C213196   4.487   4.509   4.036 -0.3629 -0.4911  0.0945
  124SOPE    HS13197   4.420   4.539   3.953 -2.2059  0.9322  1.9871
  124SOPE   O2113198   4.497   4.601   4.144 -0.2580  0.1846  0.0427
  124SOPE   C2113199   4.396   4.683   4.180  0.3791  0.2169  0.3273
  124SOPE   O2213200   4.284   4.684   4.133 -0.5806  0.0908 -0.5280
  124SOPE   C2213201   4.456   4.775   4.279  0.3568 -0.1796  0.3069
  124SOPE   H2R13202   4.445   4.873   4.228  0.0927  0.0975  0.8854
  124SOPE   H2S13203   4.565   4.764   4.294  1.0580  2.7957 -1.7249
  124SOPE    C313204   4.432   4.373   4.082 -0.6980 -0.1007 -0.6493
  124SOPE    HX13205   4.423   4.300   3.999 -0.3441 -0.2096 -0.5913
  124SOPE    HY13206   4.330   4.388   4.125 -0.7491  0.2630 -0.8925
  124SOPE   O3113207   4.517   4.303   4.178 -0.3157 -0.0476 -0.5476
  124SOPE   C3113208   4.478   4.302   4.298  0.1229  0.4700 -0.6871
  124SOPE   O3213209   4.369   4.335   4.346 -0.1421 -0.3022 -0.5206
  124SOPE   C3213210   4.578   4.219   4.379  0.1184 -0.0146 -0.5474
  124SOPE   H2X13211   4.664   4.198   4.312  0.9341 -0.1344  0.5230
  124SOPE   H2Y13212   4.524   4.125   4.401 -2.1427  1.6552  1.5856
  124SOPE   C2313213   4.389   4.778   4.421  0.0827 -0.1756  0.2805
  124SOPE   H3R13214   4.296   4.839   4.427 -0.1241 -0.4715  0.1230
  124SOPE   H3S13215   4.453   4.844   4.482 -0.5068  0.2285  0.4741
  124SOPE   C2413216   4.380   4.652   4.489  0.0495  0.7439 -0.2835
  124SOPE   H4R13217   4.305   4.593   4.433 -0.2044 -0.6301  1.3985
  124SOPE   H4S13218   4.470   4.587   4.499 -1.2686 -0.8874  2.4813
  124SOPE   C2513219   4.306   4.670   4.629  0.1190  0.6313 -0.3396
  124SOPE   H5R13220   4.210   4.726   4.632  1.6978  3.5164  1.5108
  124SOPE   H5S13221   4.275   4.569   4.662  0.5129  0.9862  1.2021
  124SOPE   C2613222   4.384   4.735   4.745 -0.2532  0.4020 -0.2181
  124SOPE   H6R13223   4.423   4.836   4.720  2.0317 -0.5163 -0.6102
  124SOPE   H6S13224   4.311   4.746   4.828  0.0933 -2.9814  0.6785
  124SOPE   C2713225   4.486   4.636   4.798  0.2926 -0.4466  0.8454
  124SOPE   H7R13226   4.441   4.546   4.845 -2.3142 -0.3049 -1.1194
  124SOPE   H7S13227   4.548   4.590   4.717 -1.2051 -1.1584  0.0550
  124SOPE   C2813228   4.588   4.714   4.877 -0.1458 -0.2662 -0.1384
  124SOPE   H8R13229   4.670   4.640   4.891  0.3531  0.1655 -0.7108
  124SOPE   H8S13230   4.625   4.790   4.805  2.3960 -1.1853  0.1102
  124SOPE   C2913231   4.534   4.781   4.999  0.3673  0.2220 -0.1349
  124SOPE   H9113232   4.457   4.855   4.974 -1.0517 -1.2670 -0.3537
  124SOPE  C21013233   4.564   4.753   5.129  0.0009 -0.2719 -0.4482
  124SOPE  H10113234   4.517   4.819   5.203 -0.6110 -0.7247 -0.4199
  124SOPE  C21113235   4.659   4.664   5.195 -0.6347  0.4159 -0.2950
  124SOPE  H11R13236   4.743   4.641   5.126 -1.2082  1.6372 -1.4422
  124SOPE  H11S13237   4.611   4.571   5.233  1.4023 -0.2527  0.8329
  124SOPE  C21213238   4.726   4.731   5.322  0.5478  0.5765 -0.6850
  124SOPE  H12R13239   4.771   4.831   5.302 -1.8633  2.0796  0.8565
  124SOPE  H12S13240   4.809   4.669   5.362  0.3198  1.5330  1.4371
  124SOPE  C21313241   4.620   4.744   5.432 -0.1245 -0.2588  0.0776
  124SOPE  H13R13242   4.565   4.649   5.447 -0.4420  0.0380  0.8713
  124SOPE  H13S13243   4.538   4.817   5.414 -0.2573 -0.5385 -0.4710
  124SOPE  C21413244   4.683   4.771   5.564 -0.9578  0.4767  0.7419
  124SOPE  H14R13245   4.700   4.880   5.570  1.2887  0.1214  1.4999
  124SOPE  H14S13246   4.779   4.718   5.579 -1.3918 -0.1405  1.4461
  124SOPE  C21513247   4.600   4.717   5.676 -0.1767  0.3141  0.8321
  124SOPE  H15R13248   4.581   4.609   5.660  0.3380  0.2679  0.5265
  124SOPE  H15S13249   4.497   4.759   5.667  0.6865  2.1385 -1.7599
  124SOPE  C21613250   4.659   4.751   5.818  0.2533  0.2123  0.5089
  124SOPE  H16R13251   4.766   4.722   5.819  0.2752  0.2317 -0.5445
  124SOPE  H16S13252   4.596   4.690   5.886 -1.7980  2.0042  0.3291
  124SOPE  C21713253   4.670   4.899   5.857 -0.1590 -0.8037 -0.7026
  124SOPE  H17R13254   4.571   4.946   5.877  1.1721  1.8919 -0.1243
  124SOPE  H17S13255   4.720   4.947   5.771  0.4476 -2.3566 -1.2510
  124SOPE  C21813256   4.760   4.927   5.984 -0.8924  0.5052  0.4711
  124SOPE  H18R13257   4.861   4.886   5.962 -1.1382 -0.7052  1.4190
  124SOPE  H18S13258   4.718   4.875   6.073 -2.5276  1.9490  0.5734
  124SOPE  H18T13259   4.777   5.035   6.003  0.0023  0.8965 -2.1459
  124SOPE   C3313260   4.616   4.289   4.505 -0.4176  0.3162 -0.4272
  124SOPE   H3X13261   4.536   4.353   4.549 -3.1877 -1.3136 -2.7081
  124SOPE   H3Y13262   4.690   4.369   4.485 -1.0192  0.6140 -1.5765
  124SOPE   C3413263   4.675   4.191   4.612  0.0623 -0.1849  0.8600
  124SOPE   H4X13264   4.781   4.166   4.590 -0.6479 -0.1670 -3.4492
  124SOPE   H4Y13265   4.621   4.094   4.614 -0.4061 -0.0462 -1.7445
  124SOPE   C3513266   4.669   4.252   4.750  0.8053  0.7629 -0.1283
  124SOPE   H5X13267   4.571   4.297   4.777  0.1871 -0.6617  0.1311
  124SOPE   H5Y13268   4.736   4.340   4.762 -1.4031  2.5604 -0.3312
  124SOPE   C3613269   4.722   4.157   4.856 -0.3124  0.7944  0.2324
  124SOPE   H6X13270   4.828   4.141   4.829 -0.2242  1.0265  0.4313
  124SOPE   H6Y13271   4.673   4.060   4.836 -1.8039  1.5157  0.2385
  124SOPE   C3713272   4.678   4.193   4.996 -0.1266 -0.3681 -0.0742
  124SOPE   H7X13273   4.568   4.185   4.996 -0.1058 -0.6458 -0.2317
  124SOPE   H7Y13274   4.696   4.301   5.018 -0.1664 -0.6383  1.3264
  124SOPE   C3813275   4.748   4.114   5.101 -0.3793 -0.0207  0.0146
  124SOPE   H8X13276   4.850   4.156   5.096 -1.6180  3.1505 -2.2019
  124SOPE   H8Y13277   4.743   4.005   5.078 -2.2407  0.2837 -1.2652
  124SOPE   C3913278   4.711   4.138   5.250 -0.3340 -0.2167 -0.1706
  124SOPE   H9X13279   4.611   4.091   5.265 -1.0970  1.3523 -0.1496
  124SOPE   H9Y13280   4.691   4.247   5.255 -1.3515 -0.3827 -0.3199
  124SOPE  C31013281   4.810   4.077   5.350  0.6436 -1.0471 -0.2878
  124SOPE  H10X13282   4.908   4.125   5.330  0.2753 -0.4850 -0.8152
  124SOPE  H10Y13283   4.816   3.969   5.324 -3.1442 -1.8623  1.4816
  124SOPE  C31113284   4.773   4.093   5.499  0.0285 -0.4298 -0.0506
  124SOPE  H11X13285   4.688   4.025   5.523 -0.1877  0.0219  0.4881
  124SOPE  H11Y13286   4.741   4.198   5.520 -0.7081 -0.9887  1.8184
  124SOPE  C31213287   4.886   4.056   5.593 -0.6848  0.6070  0.2112
  124SOPE  H12X13288   4.940   4.148   5.623 -0.3476  0.6898 -0.6194
  124SOPE  H12Y13289   4.959   3.994   5.537 -2.3681  0.3363 -1.8286
  124SOPE  C31313290   4.844   3.974   5.714 -0.2842 -0.6382  0.7674
  124SOPE  H13X13291   4.929   3.954   5.782 -0.1056 -1.0699  0.4303
  124SOPE  H13Y13292   4.807   3.878   5.671 -0.1812 -0.1802 -0.4027
  124SOPE  C31413293   4.729   4.037   5.802  0.0170 -0.1083  0.8115
  124SOPE  H14X13294   4.665   3.956   5.843 -0.1994 -0.4375 -0.1408
  124SOPE  H14Y13295   4.673   4.107   5.735  1.9163  0.0911 -0.6410
  124SOPE  C31513296   4.785   4.114   5.922 -0.3261  0.3139 -0.0933
  124SOPE  H15X13297   4.886   4.152   5.898  0.3612 -2.0855 -1.3662
  124SOPE  H15Y13298   4.805   4.041   6.004  1.4821  0.4810 -0.3465
  124SOPE  C31613299   4.688   4.224   5.954  0.7832  0.1948 -0.1135
  124SOPE  H16X13300   4.584   4.187   5.943  1.1803 -0.9359 -0.1928
  124SOPE  H16Y13301   4.711   4.295   5.871  0.0796 -1.2676 -1.6127
  124SOPE  C31713302   4.722   4.289   6.085 -0.5016 -0.1153 -0.1883
  124SOPE  H17X13303   4.815   4.346   6.064 -0.6713  0.6578  1.0837
  124SOPE  H17Y13304   4.737   4.207   6.157 -1.2010 -0.3626 -0.3123
  124SOPE  C31813305   4.609   4.385   6.129 -0.0577  0.0529 -0.5504
  124SOPE  H18X13306   4.585   4.455   6.046  1.9256  1.6948  0.1672
  124SOPE  H18Y13307   4.638   4.446   6.217  0.6787  0.5585 -1.1286
  124SOPE  H18Z13308   4.518   4.326   6.154  0.2761 -0.5780 -0.7988
  125SOPE     N13309   5.041   4.755   3.802  0.1680 -0.0228 -0.1552
  125SOPE   HN113310   4.941   4.738   3.781 -0.0320  0.7207  0.1697
  125SOPE   HN213311   5.095   4.681   3.752  3.3885  1.7533  0.3938
  125SOPE   HN313312   5.048   4.745   3.906  0.3867 -0.5103 -0.2113
  125SOPE   C1213313   5.094   4.886   3.769  0.3879  0.6227  0.3075
  125SOPE  H12A13314   5.035   4.908   3.678  2.1915 -0.7357 -1.2540
  125SOPE  H12B13315   5.200   4.868   3.741  0.5907 -0.2257  1.5406
  125SOPE   C1113316   5.073   4.982   3.888  0.5169 -0.2144 -0.2907
  125SOPE  H11A13317   5.141   4.976   3.976 -0.4044 -0.2064  0.4328
  125SOPE  H11B13318   4.972   4.960   3.929 -1.1468  3.6563 -1.7746
  125SOPE     P13319   4.948   5.193   3.781 -0.0938 -0.0316 -0.2044
  125SOPE   O1313320   4.869   5.102   3.696 -0.0842 -0.1989  0.5378
  125SOPE   O1413321   4.995   5.318   3.723  0.5919 -0.0564 -0.0001
  125SOPE   O1213322   5.083   5.112   3.838  0.1261  0.5087 -0.2640
  125SOPE   O1113323   4.858   5.226   3.913 -0.0883 -0.1121 -0.1112
  125SOPE    C113324   4.934   5.226   4.041  0.1815 -0.3027  0.4453
  125SOPE    HA13325   5.042   5.247   4.023  0.3285 -0.0472  1.5481
  125SOPE    HB13326   4.922   5.128   4.092 -0.3692 -0.4454  0.0479
  125SOPE    C213327   4.871   5.334   4.133  0.4573 -0.2099 -0.0253
  125SOPE    HS13328   4.943   5.342   4.218 -0.6467 -3.0136  1.2869
  125SOPE   O2113329   4.741   5.297   4.178 -0.2192 -0.4065 -0.2947
  125SOPE   C2113330   4.736   5.203   4.271 -0.2116  0.2614  0.0249
  125SOPE   O2213331   4.830   5.150   4.323  0.4210  0.6007 -0.0692
  125SOPE   C2213332   4.586   5.182   4.306  0.1175  0.3195 -0.0780
  125SOPE   H2R13333   4.539   5.122   4.225  2.2268 -0.4030 -0.8191
  125SOPE   H2S13334   4.539   5.283   4.306  0.4274  0.5068  2.0972
  125SOPE    C313335   4.867   5.469   4.059  0.3582 -0.5820  0.2517
  125SOPE    HX13336   4.810   5.444   3.967  0.7497 -4.4485  0.8599
  125SOPE    HY13337   4.964   5.510   4.023 -0.3962  0.9075 -0.1567
  125SOPE   O3113338   4.792   5.565   4.131  0.2340 -0.1830  0.5298
  125SOPE   C3113339   4.860   5.611   4.240  0.4485  0.1144 -0.0498
  125SOPE   O3213340   4.978   5.590   4.256  0.1350 -0.4010 -0.0512
  125SOPE   C3213341   4.760   5.679   4.335 -0.1702 -0.2112 -0.6158
  125SOPE   H2X13342   4.663   5.632   4.308  1.0744 -1.6627 -2.9444
  125SOPE   H2Y13343   4.751   5.787   4.308 -2.4450 -0.1166  0.3232
  125SOPE   C2313344   4.569   5.119   4.440 -0.1915 -0.3992 -0.5034
  125SOPE   H3R13345   4.623   5.022   4.437 -1.4288 -1.0770 -2.3420
  125SOPE   H3S13346   4.460   5.097   4.444 -0.8125  2.2837 -0.1522
  125SOPE   C2413347   4.612   5.203   4.566 -0.3784 -0.0040  0.3292
  125SOPE   H4R13348   4.722   5.198   4.570 -0.2680  0.9625 -0.9717
  125SOPE   H4S13349   4.581   5.308   4.549  0.8512  0.3399  0.1620
  125SOPE   C2513350   4.572   5.134   4.696  0.2277  0.4160  0.6178
  125SOPE   H5R13351   4.461   5.142   4.696  0.1146 -0.9143  0.9681
  125SOPE   H5S13352   4.606   5.028   4.704  0.3086  0.1885 -2.0569
  125SOPE   C2613353   4.609   5.205   4.820  0.0531  0.0632 -0.4960
  125SOPE   H6R13354   4.718   5.231   4.824  0.1966 -0.1995 -2.1443
  125SOPE   H6S13355   4.559   5.304   4.810  0.6189  0.8113  2.8033
  125SOPE   C2713356   4.575   5.129   4.955 -0.8151 -0.1094 -0.1107
  125SOPE   H7R13357   4.465   5.120   4.968 -0.6364  0.1973  1.8259
  125SOPE   H7S13358   4.616   5.026   4.948 -2.1874 -0.9594  2.9009
  125SOPE   C2813359   4.637   5.197   5.083 -0.6068 -0.2390  0.5883
  125SOPE   H8R13360   4.744   5.215   5.059 -1.1401  2.2627 -0.1913
  125SOPE   H8S13361   4.582   5.293   5.095 -0.5136 -0.3259  1.7668
  125SOPE   C2913362   4.633   5.109   5.209 -0.2368 -0.1050  0.2105
  125SOPE   H9113363   4.543   5.047   5.196 -0.2857  0.1912 -1.0132
  125SOPE  C21013364   4.724   5.110   5.311  0.0643 -0.1427 -0.3793
  125SOPE  H10113365   4.707   5.036   5.391 -2.3527  0.4194 -0.3028
  125SOPE  C21113366   4.843   5.202   5.313 -0.4556 -0.3329 -0.9517
  125SOPE  H11R13367   4.824   5.287   5.382  0.0959 -1.4933  0.6825
  125SOPE  H11S13368   4.859   5.247   5.213  0.7232  1.6463  0.0712
  125SOPE  C21213369   4.976   5.136   5.347 -0.2654 -0.1845 -0.2213
  125SOPE  H12R13370   5.065   5.202   5.355  1.0633 -1.9580  0.2032
  125SOPE  H12S13371   4.992   5.064   5.265  1.6981 -1.2815  1.0414
  125SOPE  C21313372   4.970   5.054   5.484  0.3987 -0.3557  0.2910
  125SOPE  H13R13373   5.077   5.026   5.491  0.3068 -1.1717 -1.0423
  125SOPE  H13S13374   4.915   4.961   5.461 -0.1954  0.0758 -0.0676
  125SOPE  C21413375   4.927   5.124   5.612  0.3102  0.4414  0.4615
  125SOPE  H14R13376   4.954   5.053   5.693  0.6800 -0.6495 -0.5958
  125SOPE  H14S13377   4.817   5.137   5.606  0.2870 -0.2819 -1.0490
  125SOPE  C21513378   4.994   5.260   5.642 -0.2922  0.3422 -0.0501
  125SOPE  H15R13379   4.928   5.310   5.716 -0.1731 -0.7750  0.8255
  125SOPE  H15S13380   4.992   5.326   5.552  0.8720  0.4816  0.0094
  125SOPE  C21613381   5.139   5.249   5.693  0.1472 -0.6969 -0.3477
  125SOPE  H16R13382   5.215   5.195   5.632  1.7198 -1.3206  2.0404
  125SOPE  H16S13383   5.125   5.188   5.785  1.1336 -0.6943 -0.1909
  125SOPE  C21713384   5.194   5.393   5.727 -0.2896  0.4731  0.3447
  125SOPE  H17R13385   5.125   5.432   5.805 -0.0504 -1.4441  1.5971
  125SOPE  H17S13386   5.176   5.455   5.636 -2.2641  0.5556  0.7395
  125SOPE  C21813387   5.341   5.389   5.761  0.4996 -0.2269 -0.5310
  125SOPE  H18R13388   5.351   5.311   5.840 -1.9462 -0.6134 -0.5298
  125SOPE  H18S13389   5.374   5.486   5.805  0.1553 -0.1839 -0.3594
  125SOPE  H18T13390   5.406   5.351   5.680  0.4572  0.6817 -1.0094
  125SOPE   C3313391   4.787   5.678   4.486 -0.3358 -0.3440  0.2201
  125SOPE   H3X13392   4.722   5.743   4.549 -0.7867 -0.5250 -0.0521
  125SOPE   H3Y13393   4.891   5.714   4.502 -0.2348  0.0655 -1.2579
  125SOPE   C3413394   4.775   5.539   4.537  0.1379 -1.0455  0.3567
  125SOPE   H4X13395   4.832   5.470   4.470  1.6486 -0.3785  0.9193
  125SOPE   H4Y13396   4.670   5.507   4.557  0.4163 -1.6151  0.9151
  125SOPE   C3513397   4.855   5.518   4.670  0.6040  0.2125 -0.0721
  125SOPE   H5X13398   4.964   5.535   4.674  0.6852 -0.2048 -0.5013
  125SOPE   H5Y13399   4.837   5.414   4.704 -0.6377  0.3862 -0.1228
  125SOPE   C3613400   4.801   5.600   4.792 -0.1488  0.0963  0.1434
  125SOPE   H6X13401   4.690   5.612   4.793 -0.0552  1.0546 -0.1001
  125SOPE   H6Y13402   4.855   5.696   4.775 -0.2519  0.0101 -0.7118
  125SOPE   C3713403   4.854   5.543   4.925  0.3846 -0.0662  0.4582
  125SOPE   H7X13404   4.958   5.510   4.903 -0.5300 -1.2094 -2.6915
  125SOPE   H7Y13405   4.792   5.453   4.945  2.2817 -1.0042  2.6312
  125SOPE   C3813406   4.842   5.651   5.038  0.3902 -0.3198 -0.5525
  125SOPE   H8X13407   4.743   5.699   5.026  1.1109  0.6410 -3.5644
  125SOPE   H8Y13408   4.906   5.738   5.009 -0.4106  0.8293  0.9795
  125SOPE   C3913409   4.877   5.589   5.171  0.0874  0.6618  0.0186
  125SOPE   H9X13410   4.987   5.585   5.181  0.2218 -1.1615 -1.6168
  125SOPE   H9Y13411   4.836   5.486   5.173  0.9576  0.2589 -1.7576
  125SOPE  C31013412   4.830   5.675   5.288  0.3302  1.0799  0.1528
  125SOPE  H10X13413   4.720   5.673   5.306  0.3136  0.0766  0.0093
  125SOPE  H10Y13414   4.871   5.776   5.271  2.2984 -0.0730 -2.6001
  125SOPE  C31113415   4.885   5.626   5.424  0.0659 -0.3701  0.3779
  125SOPE  H11X13416   4.995   5.627   5.413 -0.0602  0.0171 -1.2228
  125SOPE  H11Y13417   4.849   5.522   5.439 -0.5932  0.0518  1.8822
  125SOPE  C31213418   4.829   5.706   5.544  0.1639 -0.5480 -0.2534
  125SOPE  H12X13419   4.720   5.688   5.559  0.2791 -0.0674  1.2667
  125SOPE  H12Y13420   4.829   5.817   5.533 -0.6147 -0.3735  1.2190
  125SOPE  C31313421   4.897   5.666   5.676  0.3135  0.1208 -0.3801
  125SOPE  H13X13422   5.003   5.642   5.651  0.2533 -0.4423 -0.1164
  125SOPE  H13Y13423   4.852   5.573   5.718  3.2545 -0.5192  1.6914
  125SOPE  C31413424   4.891   5.771   5.791  0.4133 -0.4881  0.0593
  125SOPE  H14X13425   4.945   5.864   5.763 -0.7428  0.5167  1.0166
  125SOPE  H14Y13426   4.961   5.735   5.869 -0.4321  0.0782  1.1156
  125SOPE  C31513427   4.758   5.793   5.854 -0.0160  0.1683 -0.5814
  125SOPE  H15X13428   4.724   5.692   5.884  0.4431  0.0362 -0.4935
  125SOPE  H15Y13429   4.684   5.832   5.781 -0.2750 -0.6144 -0.7378
  125SOPE  C31613430   4.739   5.879   5.979 -0.1339  0.1372 -0.0831
  125SOPE  H16X13431   4.787   5.976   5.957  1.7100 -0.8305 -0.5550
  125SOPE  H16Y13432   4.786   5.840   6.072 -0.4154 -2.4113 -0.9165
  125SOPE  C31713433   4.586   5.895   6.017 -0.7721  0.0182  0.2503
  125SOPE  H17X13434   4.523   5.938   5.936 -1.3357 -0.1912  0.5700
  125SOPE  H17Y13435   4.591   5.974   6.095 -2.3349  0.0879  0.3170
  125SOPE  C31813436   4.511   5.776   6.075  0.1164 -0.5197 -0.0847
  125SOPE  H18X13437   4.418   5.818   6.119  0.9454 -0.2765  1.5115
  125SOPE  H18Y13438   4.571   5.722   6.152  0.5855  1.2852  0.8682
  125SOPE  H18Z13439   4.483   5.702   5.997  0.5886  0.0236 -0.7819
  126SOPE     N13440   6.444   3.879   3.472  0.3876 -0.0611 -0.7864
  126SOPE   HN113441   6.518   3.846   3.407  1.2988  1.1592 -0.4134
  126SOPE   HN213442   6.446   3.815   3.554 -1.0059  1.8017  0.8070
  126SOPE   HN313443   6.355   3.874   3.420 -0.5722  3.3080  0.2667
  126SOPE   C1213444   6.474   4.019   3.523  0.2953  0.2197  0.0735
  126SOPE  H12A13445   6.388   4.041   3.589  0.0834 -3.6587  1.3323
  126SOPE  H12B13446   6.469   4.089   3.437 -1.3848 -0.5186 -0.4739
  126SOPE   C1113447   6.606   4.030   3.603  0.5978  0.7784  0.2795
  126SOPE  H11A13448   6.606   3.960   3.689 -2.1114 -0.4312 -0.6142
  126SOPE  H11B13449   6.602   4.131   3.650  2.0169  1.2743 -0.6088
  126SOPE     P13450   6.840   3.931   3.544 -0.3024 -0.2717 -0.1972
  126SOPE   O1313451   6.965   3.997   3.507 -0.1504 -0.0564 -0.3591
  126SOPE   O1413452   6.814   3.809   3.470  0.5724  0.5188  0.0507
  126SOPE   O1213453   6.717   4.019   3.515  0.4167 -0.8727 -0.7043
  126SOPE   O1113454   6.840   3.906   3.694 -0.5295 -0.5156 -0.2137
  126SOPE    C113455   6.928   3.812   3.757 -0.0781 -0.0327 -0.3696
  126SOPE    HA13456   7.022   3.783   3.706  0.8832 -0.9954  1.8142
  126SOPE    HB13457   6.879   3.712   3.767 -1.2199  0.2090 -2.8721
  126SOPE    C213458   6.982   3.853   3.899 -0.5535 -0.3512  0.3723
  126SOPE    HS13459   7.077   3.796   3.909  0.0299  0.3388 -1.0007
  126SOPE   O2113460   6.890   3.817   4.001 -0.0570 -0.2767 -0.1310
  126SOPE   C2113461   6.937   3.772   4.109 -0.1503 -0.1459 -0.6785
  126SOPE   O2213462   7.044   3.718   4.128 -0.1115 -0.3337  0.0138
  126SOPE   C2213463   6.832   3.801   4.220 -0.8964 -0.2141 -0.2583
  126SOPE   H2R13464   6.742   3.737   4.218  0.5422 -2.4542  1.2546
  126SOPE   H2S13465   6.790   3.903   4.207 -1.8307 -0.4779  0.5261
  126SOPE    C313466   7.026   4.006   3.895  0.4780 -0.2790 -0.1206
  126SOPE    HX13467   6.945   4.082   3.890 -0.4080 -1.2836 -1.9696
  126SOPE    HY13468   7.077   4.030   3.799  1.0888  2.9024  0.8685
  126SOPE   O3113469   7.114   4.039   4.000  0.0543 -0.0497 -0.1140
  126SOPE   C3113470   7.242   4.043   3.985  0.2134 -0.0742 -0.3212
  126SOPE   O3213471   7.308   4.002   3.891 -0.2434  0.6201 -0.5186
  126SOPE   C3213472   7.302   4.089   4.114  0.3178  0.3431 -0.6298
  126SOPE   H2X13473   7.266   4.033   4.203  2.1954 -0.5524 -0.3700
  126SOPE   H2Y13474   7.268   4.191   4.143 -0.6814 -0.4833  1.3000
  126SOPE   C2313475   6.903   3.790   4.354  0.0021  0.4319 -0.5852
  126SOPE   H3R13476   6.989   3.860   4.349  0.2275  0.1713 -0.4141
  126SOPE   H3S13477   6.940   3.686   4.361  1.3288  0.8038 -1.6974
  126SOPE   C2413478   6.814   3.818   4.475 -0.4228  0.0011 -0.6296
  126SOPE   H4R13479   6.741   3.902   4.464 -0.6017  0.1432  1.2092
  126SOPE   H4S13480   6.759   3.726   4.503  0.3285  0.1287  1.5028
  126SOPE   C2513481   6.890   3.843   4.607 -0.0693  0.0552 -0.4942
  126SOPE   H5R13482   6.961   3.927   4.594 -2.3301  1.7996 -2.8127
  126SOPE   H5S13483   6.821   3.872   4.689  0.2525 -0.5192 -0.0124
  126SOPE   C2613484   6.968   3.716   4.649 -0.0332  0.0474 -0.5022
  126SOPE   H6R13485   6.899   3.636   4.617 -0.8632 -1.1192  3.5476
  126SOPE   H6S13486   7.065   3.719   4.594  0.0046  1.6550 -0.4102
  126SOPE   C2713487   6.990   3.719   4.804  0.2731  0.5253 -0.1075
  126SOPE   H7R13488   7.021   3.822   4.834  1.2514 -0.0050  0.7922
  126SOPE   H7S13489   6.899   3.702   4.865 -0.0067  3.0824  0.3172
  126SOPE   C2813490   7.096   3.611   4.846  0.7129 -0.0054  0.7439
  126SOPE   H8R13491   7.083   3.583   4.953 -0.0243  0.2890  0.7338
  126SOPE   H8S13492   7.068   3.519   4.790 -0.8118  0.4550  0.7190
  126SOPE   C2913493   7.244   3.633   4.806 -0.2833 -0.2222  0.2218
  126SOPE   H9113494   7.275   3.631   4.701  0.6934  1.3861  0.4450
  126SOPE  C21013495   7.344   3.654   4.900  1.1086 -0.1737  0.8143
  126SOPE  H10113496   7.449   3.667   4.872  0.6259  0.5950 -0.7660
  126SOPE  C21113497   7.329   3.653   5.050 -0.1802  1.2405  0.0858
  126SOPE  H11R13498   7.427   3.633   5.098 -0.1280 -2.2773 -1.1973
  126SOPE  H11S13499   7.253   3.586   5.097  1.0517  0.8346  1.5760
  126SOPE  C21213500   7.285   3.791   5.094 -0.6470  0.2214 -0.5467
  126SOPE  H12R13501   7.175   3.805   5.094 -0.4101  2.5038  0.2439
  126SOPE  H12S13502   7.330   3.878   5.042  2.0927 -1.4156 -1.1529
  126SOPE  C21313503   7.338   3.815   5.241 -0.1546 -0.4413 -0.2431
  126SOPE  H13R13504   7.293   3.910   5.277 -0.4863 -0.8869  0.5246
  126SOPE  H13S13505   7.449   3.820   5.246 -0.2480  1.8035  0.7275
  126SOPE  C21413506   7.293   3.699   5.334 -0.3925  0.0623  0.4632
  126SOPE  H14R13507   7.352   3.606   5.325 -0.3792  0.2337 -1.4995
  126SOPE  H14S13508   7.185   3.674   5.325 -0.0678 -0.9935 -0.6917
  126SOPE  C21513509   7.317   3.734   5.484 -0.5647  0.6902  0.2645
  126SOPE  H15R13510   7.416   3.784   5.491 -0.3945  0.2205  1.6109
  126SOPE  H15S13511   7.324   3.644   5.549  1.7812 -0.4555 -1.4154
  126SOPE  C21613512   7.212   3.837   5.527 -0.0044 -0.1053  0.1893
  126SOPE  H16R13513   7.116   3.822   5.473  0.0108 -2.6430  0.7535
  126SOPE  H16S13514   7.254   3.939   5.511 -0.3200 -0.1814 -1.2446
  126SOPE  C21713515   7.158   3.839   5.673 -0.4372  0.4761 -0.6125
  126SOPE  H17R13516   7.245   3.854   5.740 -0.6059  0.0367 -0.2919
  126SOPE  H17S13517   7.121   3.736   5.691 -0.7086  0.8008  0.8448
  126SOPE  C21813518   7.044   3.930   5.700  0.5421 -0.1728 -0.1428
  126SOPE  H18R13519   7.082   4.033   5.715 -0.8383  0.2640  0.5982
  126SOPE  H18S13520   6.987   3.902   5.791 -1.6211  0.1390 -1.3117
  126SOPE  H18T13521   6.968   3.932   5.619 -2.7723 -0.6100  2.7035
  126SOPE   C3313522   7.454   4.092   4.121  0.2025  0.0921  0.6471
  126SOPE   H3X13523   7.490   4.166   4.046 -1.2310 -1.9710 -2.2829
  126SOPE   H3Y13524   7.490   3.988   4.107  1.1146  0.6433 -1.5522
  126SOPE   C3413525   7.499   4.139   4.259 -0.0625 -0.0342 -0.6698
  126SOPE   H4X13526   7.589   4.078   4.283  0.4971  0.6163 -1.0804
  126SOPE   H4Y13527   7.429   4.128   4.345  0.7110  0.5309  0.0486
  126SOPE   C3513528   7.534   4.283   4.270 -0.3506  0.1079 -1.0899
  126SOPE   H5X13529   7.453   4.356   4.294 -0.0447 -0.7076  3.4028
  126SOPE   H5Y13530   7.594   4.313   4.181  0.1354 -0.3259 -0.9102
  126SOPE   C3613531   7.616   4.313   4.396  0.0438  0.1700 -0.2278
  126SOPE   H6X13532   7.552   4.293   4.485  0.2830 -0.3217 -0.1635
  126SOPE   H6Y13533   7.643   4.420   4.397  3.8419 -0.6499 -0.6506
  126SOPE   C3713534   7.755   4.253   4.388 -0.0088 -0.2570 -0.5983
  126SOPE   H7X13535   7.810   4.302   4.305  0.2294  0.0262 -0.2759
  126SOPE   H7Y13536   7.757   4.143   4.370  2.2069 -0.4447  0.4626
  126SOPE   C3813537   7.838   4.270   4.519  0.5892 -0.8703  0.2031
  126SOPE   H8X13538   7.860   4.379   4.518  0.7197 -0.8950  0.3948
  126SOPE   H8Y13539   7.931   4.209   4.510  0.4186 -1.1107  0.0526
  126SOPE   C3913540   7.759   4.245   4.645 -0.2128  0.4026 -1.2414
  126SOPE   H9X13541   7.720   4.142   4.632 -0.7646  0.2924  0.8420
  126SOPE   H9Y13542   7.671   4.311   4.657  0.1018  0.8114 -1.1591
  126SOPE  C31013543   7.842   4.243   4.774 -0.3311 -0.0297 -0.0709
  126SOPE  H10X13544   7.884   4.343   4.799 -0.6673  0.4101 -1.2144
  126SOPE  H10Y13545   7.934   4.182   4.762  1.4623  2.7869 -1.9079
  126SOPE  C31113546   7.752   4.185   4.888 -0.1139  0.5436  0.4770
  126SOPE  H11X13547   7.692   4.106   4.839 -1.3216  1.0183  1.1508
  126SOPE  H11Y13548   7.671   4.257   4.907 -2.2951 -2.0862  1.8227
  126SOPE  C31213549   7.836   4.125   5.001 -0.1118 -1.0128 -0.1411
  126SOPE  H12X13550   7.876   4.205   5.067 -0.8503 -1.5880  1.0306
  126SOPE  H12Y13551   7.923   4.069   4.959  0.8483  1.2177 -1.3083
  126SOPE  C31313552   7.748   4.038   5.087 -0.1559 -0.0333 -0.3851
  126SOPE  H13X13553   7.693   3.966   5.022 -1.4762  1.1676 -0.6572
  126SOPE  H13Y13554   7.674   4.102   5.138  1.0607  0.5238  0.7421
  126SOPE  C31413555   7.814   3.956   5.201  0.7493 -0.0473  0.0020
  126SOPE  H14X13556   7.872   4.027   5.264  0.3286 -1.2162  1.7868
  126SOPE  H14Y13557   7.879   3.881   5.150  0.8268 -0.9695  1.3974
  126SOPE  C31513558   7.720   3.868   5.280  0.4432  0.5980  0.5674
  126SOPE  H15X13559   7.677   3.790   5.213 -0.5352  0.5026  1.2782
  126SOPE  H15Y13560   7.633   3.930   5.313  0.8181  0.8114  1.1777
  126SOPE  C31613561   7.779   3.786   5.406  0.3585 -0.3169  0.2460
  126SOPE  H16X13562   7.715   3.699   5.430  1.6666 -1.0810  1.1074
  126SOPE  H16Y13563   7.774   3.845   5.500 -0.4660 -0.5545  0.3585
  126SOPE  C31713564   7.927   3.745   5.377 -0.3390 -0.1613 -0.2323
  126SOPE  H17X13565   7.989   3.832   5.346 -0.1818 -1.1586 -3.0439
  126SOPE  H17Y13566   7.924   3.677   5.290 -0.0437 -0.4464 -0.0241
  126SOPE  C31813567   8.001   3.659   5.489 -0.1012  0.8235 -0.6362
  126SOPE  H18X13568   8.003   3.706   5.590  0.7814 -0.8685  0.1812
  126SOPE  H18Y13569   8.103   3.627   5.460  0.4400 -0.2868  2.1840
  126SOPE  H18Z13570   7.941   3.566   5.496 -1.0882  1.2478 -2.5756
  127SOPE     N13571   1.028   1.893   3.816 -0.6163 -0.2572 -1.1181
  127SOPE   HN113572   0.957   1.933   3.881  0.2109 -0.5318 -0.0200
  127SOPE   HN213573   1.031   1.966   3.742 -1.4272 -1.0815 -1.9898
  127SOPE   HN313574   0.990   1.809   3.769 -0.6770  0.2711 -2.0378
  127SOPE   C1213575   1.159   1.875   3.883 -0.3750  0.5213  0.1518
  127SOPE  H12A13576   1.227   1.811   3.823  1.0590  0.8148  1.3900
  127SOPE  H12B13577   1.146   1.809   3.971  1.8409 -2.7339 -1.7524
  127SOPE   C1113578   1.218   2.008   3.924  0.3593 -0.7478  0.1631
  127SOPE  H11A13579   1.323   1.999   3.962  0.7439  0.6837 -0.5013
  127SOPE  H11B13580   1.153   2.049   4.004  1.4277  0.6445  0.3755
  127SOPE     P13581   1.325   2.201   3.768  0.1071  0.2491 -0.4289
  127SOPE   O1313582   1.271   2.318   3.695 -0.0651  0.4721  0.1237
  127SOPE   O1413583   1.414   2.113   3.690 -0.4756  0.5075  0.6899
  127SOPE   O1213584   1.206   2.113   3.820 -0.1030 -0.1209 -0.2088
  127SOPE   O1113585   1.394   2.232   3.906 -0.7174 -0.0033 -0.2643
  127SOPE    C113586   1.334   2.298   4.012  0.9989  0.2450 -0.0038
  127SOPE    HA13587   1.346   2.242   4.107  1.5798  1.5154  0.7046
  127SOPE    HB13588   1.230   2.324   3.983  0.8789 -1.0372 -0.7944
  127SOPE    C213589   1.408   2.426   4.060  0.2632  0.3739  0.4482
  127SOPE    HS13590   1.415   2.491   3.970  0.0133 -0.9305 -0.5583
  127SOPE   O2113591   1.533   2.382   4.115  0.1401  0.0865  0.7181
  127SOPE   C2113592   1.614   2.486   4.143 -0.7079 -0.1740 -0.5925
  127SOPE   O2213593   1.593   2.602   4.108  0.0387 -0.7651 -0.4474
  127SOPE   C2213594   1.719   2.439   4.234 -0.0287  0.0814  0.2275
  127SOPE   H2R13595   1.777   2.364   4.175 -0.4988 -1.3854  1.5581
  127SOPE   H2S13596   1.673   2.378   4.315  0.9551  1.2608  1.7357
  127SOPE    C313597   1.322   2.501   4.172  0.1188 -0.5208 -0.3653
  127SOPE    HX13598   1.234   2.542   4.118  0.4538  0.8236  0.0693
  127SOPE    HY13599   1.374   2.589   4.214  0.4563 -0.4838 -0.8588
  127SOPE   O3113600   1.289   2.404   4.275  0.0468 -0.5521  0.2324
  127SOPE   C3113601   1.215   2.452   4.369  0.4370 -0.0607  0.9446
  127SOPE   O3213602   1.171   2.568   4.378 -0.3609 -0.6201  0.2493
  127SOPE   C3213603   1.199   2.347   4.484 -0.1628  0.3936  0.2585
  127SOPE   H2X13604   1.301   2.336   4.525  0.7306 -1.7986 -2.2708
  127SOPE   H2Y13605   1.173   2.245   4.450  0.2764  0.3100  0.1760
  127SOPE   C2313606   1.807   2.547   4.296  0.3061 -0.7540  0.5330
  127SOPE   H3R13607   1.837   2.613   4.212 -1.1401 -1.2283 -0.4004
  127SOPE   H3S13608   1.892   2.487   4.334  0.2614  0.0725  2.0036
  127SOPE   C2413609   1.736   2.621   4.409 -0.0361 -0.0823 -0.1625
  127SOPE   H4R13610   1.644   2.673   4.376  0.8328  1.4835 -0.2001
  127SOPE   H4S13611   1.693   2.550   4.483  2.1637 -2.0126 -0.6111
  127SOPE   C2513612   1.831   2.733   4.472  0.1222  0.1663  0.0145
  127SOPE   H5R13613   1.918   2.691   4.526 -0.6862 -0.3818  0.9399
  127SOPE   H5S13614   1.866   2.798   4.389 -1.6005  1.2449  0.0617
  127SOPE   C2613615   1.750   2.825   4.560 -0.4638  0.3816  0.5122
  127SOPE   H6R13616   1.815   2.906   4.597 -1.7050  1.1911  0.9954
  127SOPE   H6S13617   1.673   2.879   4.500 -0.4432  0.4682  0.5644
  127SOPE   C2713618   1.674   2.769   4.688 -0.4037 -0.1993  0.2742
  127SOPE   H7R13619   1.592   2.701   4.653 -1.8706  1.7728 -0.2757
  127SOPE   H7S13620   1.751   2.711   4.744  0.7496  0.6623 -0.3842
  127SOPE   C2813621   1.616   2.861   4.792 -0.0821  0.3292 -0.1030
  127SOPE   H8R13622   1.693   2.934   4.825  0.1707 -0.0726  0.1971
  127SOPE   H8S13623   1.534   2.917   4.743 -0.3343  1.3333  1.3816
  127SOPE   C2913624   1.564   2.780   4.912  0.3495 -0.0351  0.0623
  127SOPE   H9113625   1.465   2.734   4.895 -1.3672  3.5691 -0.9002
  127SOPE  C21013626   1.602   2.798   5.041  0.2333  0.1960  1.2060
  127SOPE  H10113627   1.548   2.743   5.120 -0.5789 -1.8495 -0.6776
  127SOPE  C21113628   1.700   2.899   5.087  0.0279 -0.0629 -0.5936
  127SOPE  H11R13629   1.651   2.993   5.055  1.6530  0.9475 -0.2053
  127SOPE  H11S13630   1.793   2.890   5.028  1.6761 -0.8473  1.9700
  127SOPE  C21213631   1.719   2.890   5.237  0.3963  0.1548  0.2721
  127SOPE  H12R13632   1.796   2.812   5.259  1.2188  1.0905  0.7911
  127SOPE  H12S13633   1.624   2.866   5.291 -0.5671  1.4073 -0.8009
  127SOPE  C21313634   1.777   3.018   5.298  0.1443 -0.8264  0.0866
  127SOPE  H13R13635   1.733   3.106   5.245 -0.0360  0.3148  2.0366
  127SOPE  H13S13636   1.885   3.022   5.272  0.1941 -2.9799 -0.2129
  127SOPE  C21413637   1.758   3.027   5.452 -0.5556 -0.1278  0.5135
  127SOPE  H14R13638   1.657   2.985   5.473 -0.5284 -1.1638 -1.2207
  127SOPE  H14S13639   1.759   3.130   5.493 -0.8783  0.2867 -0.4810
  127SOPE  C21513640   1.862   2.936   5.519  0.1153  0.3504  0.3034
  127SOPE  H15R13641   1.962   2.982   5.509  0.1593 -0.1459 -2.1543
  127SOPE  H15S13642   1.855   2.839   5.465 -2.5693 -0.0073  1.1107
  127SOPE  C21613643   1.835   2.925   5.667  0.2714 -0.8775 -0.3130
  127SOPE  H16R13644   1.734   2.886   5.693 -0.4075  1.6326  1.0588
  127SOPE  H16S13645   1.838   3.031   5.699  0.7317 -0.6081 -1.2012
  127SOPE  C21713646   1.954   2.860   5.737  0.0517 -0.2166  0.2837
  127SOPE  H17R13647   1.973   2.757   5.699 -0.3351 -0.9405  1.9691
  127SOPE  H17S13648   1.921   2.831   5.839 -1.3902 -0.7752 -0.3155
  127SOPE  C21813649   2.085   2.936   5.751 -0.1685 -0.5151  0.0739
  127SOPE  H18R13650   2.148   2.929   5.659  0.5103 -1.0858  0.5710
  127SOPE  H18S13651   2.154   2.896   5.828  0.4091  1.1257  0.4514
  127SOPE  H18T13652   2.059   3.039   5.783 -1.5712 -1.0070  0.5880
  127SOPE   C3313653   1.096   2.391   4.585 -0.3363 -0.6102 -0.2482
  127SOPE   H3X13654   1.062   2.297   4.633 -0.8328 -0.0987  0.4172
  127SOPE   H3Y13655   1.006   2.430   4.532 -0.0473  1.9898  1.0530
  127SOPE   C3413656   1.142   2.500   4.683 -0.0711 -0.1031  0.6969
  127SOPE   H4X13657   1.187   2.581   4.621  0.3080 -0.2600  0.7634
  127SOPE   H4Y13658   1.229   2.458   4.737 -1.1902 -2.3029  0.8749
  127SOPE   C3513659   1.028   2.559   4.772 -0.1899  0.0304  1.2577
  127SOPE   H5X13660   0.971   2.475   4.817 -1.0782  0.8881  1.7762
  127SOPE   H5Y13661   0.955   2.610   4.705 -0.1305  1.9216  2.5684
  127SOPE   C3613662   1.075   2.648   4.883 -0.1006 -0.4441 -0.3341
  127SOPE   H6X13663   0.987   2.662   4.949 -0.5507  1.5131 -1.2973
  127SOPE   H6Y13664   1.100   2.746   4.839 -0.0188  0.0709  0.8107
  127SOPE   C3713665   1.194   2.592   4.974 -0.5027 -0.9763 -0.6202
  127SOPE   H7X13666   1.291   2.585   4.919  0.4757 -0.0733  0.9005
  127SOPE   H7Y13667   1.167   2.485   4.990 -0.4130 -1.2316 -2.0605
  127SOPE   C3813668   1.199   2.661   5.112  0.3592  0.3851 -0.8693
  127SOPE   H8X13669   1.099   2.658   5.161 -0.2868 -1.1795 -2.2005
  127SOPE   H8Y13670   1.217   2.769   5.094  1.1502  0.3176 -0.5238
  127SOPE   C3913671   1.306   2.608   5.210  0.8935 -0.4761 -0.3062
  127SOPE   H9X13672   1.409   2.612   5.169  1.3584 -2.2849  0.6094
  127SOPE   H9Y13673   1.301   2.497   5.220  0.8804 -0.4650 -0.1833
  127SOPE  C31013674   1.292   2.680   5.343  0.3045 -0.7979 -0.3903
  127SOPE  H10X13675   1.196   2.657   5.394  1.0980  0.0333  1.5920
  127SOPE  H10Y13676   1.292   2.790   5.326 -0.2080 -1.0796 -2.5050
  127SOPE  C31113677   1.400   2.641   5.446  0.5695  0.3425 -0.7909
  127SOPE  H11X13678   1.501   2.658   5.403  0.2704  0.7057 -1.3757
  127SOPE  H11Y13679   1.392   2.532   5.462 -1.5115  0.3034 -1.7422
  127SOPE  C31213680   1.395   2.714   5.582 -0.1590 -0.2740 -0.4685
  127SOPE  H12X13681   1.295   2.697   5.628 -0.0841 -2.1251 -0.9380
  127SOPE  H12Y13682   1.412   2.817   5.543 -0.8065 -0.3313 -0.9261
  127SOPE  C31313683   1.510   2.685   5.682 -0.0704  0.2503  0.2466
  127SOPE  H13X13684   1.512   2.751   5.771 -0.0767  1.1379 -0.4015
  127SOPE  H13Y13685   1.607   2.702   5.630  0.2977  1.0466  1.1580
  127SOPE  C31413686   1.506   2.535   5.716 -0.0640  0.2438 -0.0108
  127SOPE  H14X13687   1.494   2.466   5.630 -4.1685 -3.6626  3.1556
  127SOPE  H14Y13688   1.416   2.510   5.777  1.7195 -0.8800  2.3225
  127SOPE  C31513689   1.627   2.478   5.798  0.5684 -0.0887 -0.3985
  127SOPE  H15X13690   1.725   2.480   5.745  0.9501 -0.4496  0.2849
  127SOPE  H15Y13691   1.612   2.370   5.815 -0.3517  0.1270  0.2461
  127SOPE  C31613692   1.644   2.548   5.939 -0.1626  0.1982  0.1368
  127SOPE  H16X13693   1.689   2.647   5.919 -0.6167  0.0345 -1.9042
  127SOPE  H16Y13694   1.726   2.504   6.000 -0.1365 -0.2357 -0.2032
  127SOPE  C31713695   1.509   2.546   6.030 -0.3219 -0.6315  0.9051
  127SOPE  H17X13696   1.495   2.439   6.054 -1.6938 -0.9954 -1.2365
  127SOPE  H17Y13697   1.426   2.588   5.969  0.3142  1.0665  1.1509
  127SOPE  C31813698   1.523   2.632   6.154 -0.0053 -0.4322 -0.6213
  127SOPE  H18X13699   1.597   2.584   6.221  1.5320  0.7782 -1.3832
  127SOPE  H18Y13700   1.426   2.643   6.206  0.6855  1.0445  0.4182
  127SOPE  H18Z13701   1.545   2.738   6.131 -1.1927 -0.1589 -0.5581
  128SOPE     N13702   1.455   0.860   3.900  0.0929 -0.0915  0.1831
  128SOPE   HN113703   1.498   0.851   3.994 -0.3398  1.2818  0.5389
  128SOPE   HN213704   1.455   0.770   3.849  0.2368 -0.5812  1.0283
  128SOPE   HN313705   1.517   0.927   3.850  1.2767 -0.5837  0.9452
  128SOPE   C1213706   1.326   0.924   3.925 -0.1795  0.2524 -0.0556
  128SOPE  H12A13707   1.279   0.953   3.828  0.3931 -0.1201 -0.4496
  128SOPE  H12B13708   1.346   1.010   3.993 -0.9308  1.5002 -1.3513
  128SOPE   C1113709   1.221   0.823   3.979  0.1063  0.6408 -0.0368
  128SOPE  H11A13710   1.116   0.850   3.953  0.4118  1.7867 -0.1573
  128SOPE  H11B13711   1.215   0.834   4.090 -2.3334  0.7438 -0.1261
  128SOPE     P13712   1.168   0.564   4.021 -0.0590 -0.6906  0.1404
  128SOPE   O1313713   1.235   0.438   3.976  0.5189 -0.3699 -0.9306
  128SOPE   O1413714   1.025   0.577   3.987  0.3645 -0.2064  0.7549
  128SOPE   O1213715   1.249   0.684   3.953  0.1428 -0.7168  0.0387
  128SOPE   O1113716   1.192   0.583   4.174 -0.3859  0.5261 -0.6519
  128SOPE    C113717   1.327   0.559   4.224 -0.8462  0.6437 -0.2971
  128SOPE    HA13718   1.395   0.646   4.216 -0.2125  0.1378 -0.4711
  128SOPE    HB13719   1.371   0.465   4.185 -1.8106 -0.7049  1.6701
  128SOPE    C213720   1.315   0.534   4.376  0.4765  0.2713 -0.4091
  128SOPE    HS13721   1.414   0.518   4.423  0.3398 -1.7682 -0.7254
  128SOPE   O2113722   1.231   0.414   4.398 -0.1669  0.4803  0.1225
  128SOPE   C2113723   1.295   0.299   4.373 -0.3203  1.0459 -0.1151
  128SOPE   O2213724   1.416   0.288   4.363 -0.1868  0.6299  0.0425
  128SOPE   C2213725   1.195   0.179   4.363 -0.2699  0.3093  0.6029
  128SOPE   H2R13726   1.164   0.186   4.257 -1.1310  1.2839  0.8948
  128SOPE   H2S13727   1.108   0.188   4.432 -0.1876 -0.5506  0.8279
  128SOPE    C313728   1.258   0.655   4.452  0.2223 -0.3804  0.2052
  128SOPE    HX13729   1.161   0.686   4.409 -0.8351 -3.2552  0.3652
  128SOPE    HY13730   1.333   0.736   4.436 -1.3593  1.2992  0.9270
  128SOPE   O3113731   1.243   0.622   4.592 -0.2280  0.3537 -0.4093
  128SOPE   C3113732   1.125   0.579   4.634 -0.6597  0.1195 -0.3427
  128SOPE   O3213733   1.024   0.583   4.566  0.1996  0.2805 -0.3357
  128SOPE   C3213734   1.156   0.489   4.753 -0.0267 -0.1323  0.1902
  128SOPE   H2X13735   1.173   0.557   4.840  2.5243 -0.7495  0.2621
  128SOPE   H2Y13736   1.246   0.423   4.751  0.1968  0.1682 -2.3702
  128SOPE   C2313737   1.267   0.039   4.400  0.7553  0.2756  0.4540
  128SOPE   H3R13738   1.364   0.028   4.347  0.4581  1.1791 -0.3014
  128SOPE   H3S13739   1.195  -0.030   4.351  0.9633  0.0607  0.4483
  128SOPE   C2413740   1.287   0.020   4.550 -0.7316  0.1039 -0.0956
  128SOPE   H4R13741   1.366   0.092   4.576  0.1004 -0.5874 -0.6475
  128SOPE   H4S13742   1.189   0.031   4.602 -0.8365 -0.8623 -0.0593
  128SOPE   C2513743   1.326  -0.124   4.575  0.4548  0.6986  0.2020
  128SOPE   H5R13744   1.250  -0.193   4.532  0.8549 -0.7811  1.7648
  128SOPE   H5S13745   1.422  -0.154   4.527 -0.3079  1.3858 -1.8766
  128SOPE   C2613746   1.318  -0.148   4.729  0.5323  0.3138 -0.3903
  128SOPE   H6R13747   1.407  -0.104   4.780 -0.9379  1.4981  1.2705
  128SOPE   H6S13748   1.225  -0.099   4.765 -0.6126 -2.7961  1.2866
  128SOPE   C2713749   1.308  -0.294   4.768 -0.0245  0.0825 -0.0928
  128SOPE   H7R13750   1.201  -0.321   4.755  0.1278 -0.7254  0.3143
  128SOPE   H7S13751   1.379  -0.363   4.719  0.5258  1.1110 -0.7664
  128SOPE   C2813752   1.331  -0.316   4.920 -0.7685  0.0052  0.1040
  128SOPE   H8R13753   1.414  -0.253   4.958  0.1306 -0.5355 -0.9121
  128SOPE   H8S13754   1.236  -0.278   4.963 -0.7609 -0.6315  0.6924
  128SOPE   C2913755   1.341  -0.458   4.949  0.3054  0.2446  0.4026
  128SOPE   H9113756   1.267  -0.522   4.900  0.7507 -0.3243  0.4546
  128SOPE  C21013757   1.419  -0.519   5.044  0.2423  0.1367 -0.8240
  128SOPE  H10113758   1.408  -0.627   5.057  0.5896  0.4565  3.5058
  128SOPE  C21113759   1.526  -0.455   5.135 -0.5721 -0.1955  0.3120
  128SOPE  H11R13760   1.517  -0.345   5.125 -0.1947 -0.0805  1.1677
  128SOPE  H11S13761   1.626  -0.485   5.096 -0.8443 -0.1795 -0.4200
  128SOPE  C21213762   1.499  -0.480   5.285  0.1533  1.3541  0.5847
  128SOPE  H12R13763   1.576  -0.436   5.352  1.6231 -0.3475  0.0985
  128SOPE  H12S13764   1.496  -0.588   5.312 -1.9795  1.1624 -0.2418
  128SOPE  C21313765   1.370  -0.423   5.336  0.1944 -0.6397 -0.3181
  128SOPE  H13R13766   1.289  -0.438   5.262  2.1685 -0.6871 -2.5965
  128SOPE  H13S13767   1.382  -0.314   5.354  0.1554 -0.5288 -0.9528
  128SOPE  C21413768   1.323  -0.492   5.467  0.1853  0.0564  0.1878
  128SOPE  H14R13769   1.395  -0.473   5.550 -0.1338 -0.6724  0.6441
  128SOPE  H14S13770   1.342  -0.601   5.459  3.9358  0.6667 -1.5434
  128SOPE  C21513771   1.177  -0.453   5.510 -0.3509 -0.8419 -0.0085
  128SOPE  H15R13772   1.112  -0.490   5.428  0.5030 -2.8289  0.1623
  128SOPE  H15S13773   1.176  -0.342   5.515 -0.2202 -0.9043  2.6130
  128SOPE  C21613774   1.140  -0.508   5.650  0.2050  0.0904  0.6862
  128SOPE  H16R13775   1.238  -0.503   5.703  1.3711 -2.2433 -1.0303
  128SOPE  H16S13776   1.102  -0.612   5.644 -1.4744  0.6715  0.9007
  128SOPE  C21713777   1.038  -0.418   5.711 -0.0331  0.3913  0.0416
  128SOPE  H17R13778   1.077  -0.316   5.690 -2.0048  0.6025 -3.2133
  128SOPE  H17S13779   1.023  -0.447   5.818  0.0827 -0.2482 -0.1148
  128SOPE  C21813780   0.900  -0.421   5.652  0.2366  0.8203  0.0608
  128SOPE  H18R13781   0.900  -0.415   5.541 -0.4133 -1.7015 -0.1297
  128SOPE  H18S13782   0.836  -0.343   5.699 -1.3124 -1.2062  1.4803
  128SOPE  H18T13783   0.846  -0.515   5.677  0.8795  0.7170  1.1415
  128SOPE   C3313784   1.032   0.411   4.789  0.2906 -0.3284  0.1305
  128SOPE   H3X13785   1.007   0.352   4.698 -0.0915 -0.2734  0.1994
  128SOPE   H3Y13786   0.946   0.481   4.795  0.7628  0.1534  2.2753
  128SOPE   C3413787   1.040   0.335   4.919  0.1399 -0.3669 -0.3100
  128SOPE   H4X13788   1.131   0.275   4.942 -2.9175 -4.7719  2.0226
  128SOPE   H4Y13789   0.961   0.257   4.918  0.4910 -0.7917  1.3408
  128SOPE   C3513790   1.008   0.433   5.040  0.0636 -0.2303 -0.0251
  128SOPE   H5X13791   0.905   0.475   5.040  0.0324 -0.2866  0.9518
  128SOPE   H5Y13792   1.075   0.521   5.050 -0.6980  0.3455  0.1613
  128SOPE   C3613793   1.021   0.361   5.174  0.5341  0.5375  0.1521
  128SOPE   H6X13794   1.111   0.297   5.169  2.3449  3.0251 -4.2203
  128SOPE   H6Y13795   0.933   0.297   5.196  0.7622  0.7099  1.6917
  128SOPE   C3713796   1.029   0.446   5.303 -0.2553 -0.8390  0.2689
  128SOPE   H7X13797   0.933   0.502   5.312 -0.9787 -2.0370  0.2836
  128SOPE   H7Y13798   1.102   0.525   5.274  1.1731 -2.3661 -0.4260
  128SOPE   C3813799   1.072   0.381   5.427 -0.3419  0.0709  0.4854
  128SOPE   H8X13800   1.172   0.334   5.412  0.3201  1.4452  0.4542
  128SOPE   H8Y13801   1.002   0.302   5.459 -2.4010  1.1789 -1.0647
  128SOPE   C3913802   1.064   0.478   5.547 -0.0146  0.5244  0.0499
  128SOPE   H9X13803   1.078   0.435   5.648  1.1285  2.2422  0.6525
  128SOPE   H9Y13804   0.956   0.504   5.551 -0.0231  0.2919  2.2934
  128SOPE  C31013805   1.137   0.603   5.534  0.2014  0.6545 -0.1443
  128SOPE  H10X13806   1.104   0.682   5.463  2.5697 -0.5363 -2.7790
  128SOPE  H10Y13807   1.238   0.581   5.492 -0.0889 -0.6172 -0.2301
  128SOPE  C31113808   1.155   0.679   5.672 -0.1002  0.2403 -0.9754
  128SOPE  H11X13809   1.215   0.771   5.657  0.0989  0.3674  0.4788
  128SOPE  H11Y13810   1.226   0.619   5.733  0.1288  1.5941  0.1464
  128SOPE  C31213811   1.026   0.717   5.748  0.4192 -0.2562 -0.3112
  128SOPE  H12X13812   0.951   0.635   5.738  0.8405 -0.4916 -1.8191
  128SOPE  H12Y13813   0.978   0.803   5.697  0.4457  0.5850  1.0450
  128SOPE  C31313814   1.052   0.732   5.896 -0.2210 -0.5910  0.8362
  128SOPE  H13X13815   1.158   0.711   5.922 -0.2329 -0.9410  0.6021
  128SOPE  H13Y13816   0.985   0.666   5.955 -1.7650 -0.7313 -0.9541
  128SOPE  C31413817   1.020   0.871   5.940 -0.4200  0.5583  0.7270
  128SOPE  H14X13818   0.928   0.911   5.891  0.1829 -1.0114 -1.9137
  128SOPE  H14Y13819   1.101   0.943   5.916 -0.5157  0.5313  0.3025
  128SOPE  C31513820   1.008   0.888   6.097 -0.4009 -0.1564  0.9429
  128SOPE  H15X13821   0.987   0.996   6.115  1.0486  0.1582  0.8249
  128SOPE  H15Y13822   1.111   0.859   6.126  0.1779 -0.8849 -1.6433
  128SOPE  C31613823   0.906   0.807   6.164 -0.4266 -0.7528 -0.5980
  128SOPE  H16X13824   0.939   0.702   6.176  3.1600  0.4305  1.5685
  128SOPE  H16Y13825   0.823   0.809   6.091 -0.3631  0.0490 -0.6619
  128SOPE  C31713826   0.875   0.865   6.302 -0.2134 -0.4751  0.2442
  128SOPE  H17X13827   0.810   0.954   6.292 -0.5563 -0.8287 -0.8013
  128SOPE  H17Y13828   0.964   0.893   6.362 -0.6762 -0.7548  1.0787
  128SOPE  C31813829   0.780   0.767   6.375  0.2213 -0.2772 -0.2277
  128SOPE  H18X13830   0.840   0.683   6.415 -0.4711 -0.1130  1.2402
  128SOPE  H18Y13831   0.705   0.726   6.303 -1.4008 -1.8095  2.1733
  128SOPE  H18Z13832   0.723   0.820   6.455  2.4422  1.2088  0.4815
  129OSM      N13833   4.106   5.652   8.488 -0.7679  0.1405 -0.0246
  129OSM    C1513834   3.977   5.585   8.457  0.1859 -0.4789  0.1011
  129OSM   H15A13835   4.000   5.486   8.418  1.8955 -0.2848  0.5430
  129OSM   H15B13836   3.920   5.655   8.398  2.2552 -0.1351 -1.6439
  129OSM   H15C13837   3.926   5.572   8.551  3.2351  0.3261  2.0219
  129OSM    C1413838   4.067   5.787   8.537  0.0607 -0.4375  0.1531
  129OSM   H14A13839   4.009   5.778   8.628 -1.3724 -0.1326 -0.7006
  129OSM   H14B13840   4.007   5.830   8.458  0.3258  0.3045  0.3468
  129OSM   H14C13841   4.149   5.854   8.556 -0.7025  0.1236  1.5918
  129OSM    C1313842   4.165   5.566   8.593 -0.0342  0.0177  0.0462
  129OSM   H13A13843   4.141   5.462   8.578 -2.7593  0.8130 -2.1239
  129OSM   H13B13844   4.119   5.596   8.686 -0.7896 -0.4165 -0.1787
  129OSM   H13C13845   4.272   5.575   8.603  0.2041 -0.4552 -1.7936
  129OSM    C1213846   4.187   5.659   8.369  0.4534 -0.6374  1.0782
  129OSM   H12A13847   4.201   5.557   8.337 -1.7746 -1.4526  2.4547
  129OSM   H12B13848   4.283   5.699   8.399  0.0573 -0.2013  1.7984
  129OSM    C1113849   4.143   5.738   8.239  0.4089  0.8969  0.6538
  129OSM   H11A13850   4.055   5.683   8.200  0.2631  0.0355  2.1021
  129OSM   H11B13851   4.217   5.722   8.158  0.3909  2.9166  0.1947
  129OSM      P13852   4.224   5.984   8.248  0.0993 -0.1296 -0.5185
  129OSM    O1313853   4.161   6.114   8.278  0.1395 -0.1080  0.8346
  129OSM    O1413854   4.345   5.941   8.329  0.0966 -0.1043 -0.0589
  129OSM    O1113855   4.266   5.971   8.098 -0.3162  0.2102 -0.4954
  129OSM    O1213856   4.107   5.873   8.257 -0.0892 -0.2203  0.0534
  129OSM    C1S13857   4.172   5.969   7.988 -0.4722 -0.6644 -0.2857
  129OSM    H1S13858   4.109   6.060   7.995  4.1180  2.8424  0.2188
  129OSM    H1T13859   4.112   5.878   8.010  1.7502 -1.4520  3.5771
  129OSM     NF13860   4.151   5.967   7.745  0.3530 -0.1032  0.3955
  129OSM    HNF13861   4.126   5.883   7.698 -1.5006  0.0144  1.0613
  129OSM    C2S13862   4.252   5.958   7.855 -0.2523  0.3789 -0.0274
  129OSM    H2S13863   4.319   6.046   7.840  0.6403 -0.0559  1.2213
  129OSM    C3S13864   4.341   5.832   7.847 -0.3207 -0.3175  0.8304
  129OSM    H3S13865   4.284   5.737   7.857  1.3745 -1.4412  0.3964
  129OSM     O313866   4.443   5.826   7.945  0.4829  0.1630  0.1070
  129OSM    HO313867   4.421   5.899   8.004 -0.5171 -1.9684  2.5496
  129OSM    C4S13868   4.402   5.810   7.709  0.6046 -0.6188 -0.0064
  129OSM    H4S13869   4.341   5.745   7.644  0.6199  0.0824 -0.7325
  129OSM    C5S13870   4.519   5.843   7.658  1.1943  0.3765 -0.7061
  129OSM    H5S13871   4.590   5.899   7.721  1.5359  0.5106 -1.2054
  129OSM    C6S13872   4.564   5.808   7.518  0.3461 -0.4881  0.4520
  129OSM    H6S13873   4.486   5.756   7.459  0.4419  1.4564 -1.5112
  129OSM    H6T13874   4.648   5.735   7.519  0.1301 -0.8817 -2.3962
  129OSM    C7S13875   4.618   5.929   7.441 -0.4488 -0.2101 -0.1903
  129OSM    H7S13876   4.716   5.949   7.489  0.8254  0.1503 -2.7857
  129OSM    H7T13877   4.555   6.019   7.460  1.4020  1.4007 -1.3074
  129OSM    C8S13878   4.647   5.914   7.291  0.0163 -1.0536  0.3691
  129OSM    H8S13879   4.723   5.834   7.279 -0.4730 -1.4030 -0.5285
  129OSM    H8T13880   4.682   6.015   7.262 -0.8583 -0.7337  0.3858
  129OSM    C9S13881   4.523   5.869   7.214  0.2823 -0.5059  0.9292
  129OSM    H9S13882   4.436   5.929   7.249 -1.0431 -1.2671 -0.9338
  129OSM    H9T13883   4.508   5.761   7.234  0.5109 -0.8236 -0.5362
  129OSM   C10S13884   4.538   5.886   7.065  0.4778  0.6229  0.3138
  129OSM   H10S13885   4.551   5.994   7.043  0.2695  0.0410 -3.2010
  129OSM   H10T13886   4.443   5.859   7.015 -0.1059  1.2518  1.0489
  129OSM   C11S13887   4.648   5.809   7.006 -0.6994  0.2966  0.4316
  129OSM   H11S13888   4.634   5.699   7.006 -0.4689  0.2368  1.9620
  129OSM   H11T13889   4.743   5.839   7.056 -1.1163 -0.5716  1.8180
  129OSM   C12S13890   4.658   5.837   6.854  0.5861  0.2939  0.2836
  129OSM   H12S13891   4.558   5.817   6.808  0.6617  0.0823  0.2091
  129OSM   H12T13892   4.736   5.782   6.797 -0.7429  0.3091 -1.6768
  129OSM   C13S13893   4.707   5.986   6.836  0.0922 -0.5697  0.1903
  129OSM   H13S13894   4.808   5.992   6.881  0.0567 -0.2690  0.2338
  129OSM   H13T13895   4.640   6.058   6.889 -0.7283 -0.1910 -1.3087
  129OSM   C14S13896   4.719   6.042   6.696  0.0967  0.0717 -0.2826
  129OSM   H14S13897   4.806   5.991   6.650 -0.4307 -1.2877  0.1895
  129OSM   H14T13898   4.737   6.152   6.698 -0.2117  0.1763 -1.6664
  129OSM   C15S13899   4.592   6.003   6.611 -0.3095 -0.2295 -0.1807
  129OSM   H15S13900   4.504   6.045   6.664  0.1936  1.1088 -0.3595
  129OSM   H15T13901   4.581   5.893   6.607 -0.6841 -0.1441 -2.5265
  129OSM   C16S13902   4.598   6.050   6.462  0.1828  0.4229  0.4379
  129OSM   H16S13903   4.591   6.161   6.465 -0.4008  0.3680  1.4071
  129OSM   H16T13904   4.508   6.001   6.419  2.1305 -2.8761 -0.2306
  129OSM   C17S13905   4.725   5.991   6.390  0.3153  0.2220 -0.0034
  129OSM   H17S13906   4.810   6.022   6.454  0.1821 -0.7970  0.6887
  129OSM   H17T13907   4.754   6.035   6.292  0.9296  1.0806  0.5499
  129OSM   C18S13908   4.715   5.836   6.389  0.8250  0.6498 -0.1395
  129OSM   H18S13909   4.730   5.798   6.492  1.6233 -0.9296 -0.7983
  129OSM   H18T13910   4.804   5.799   6.333  0.8099 -0.5095  0.5674
  129OSM   H18U13911   4.621   5.796   6.343  1.0674 -0.0245 -0.0642
  129OSM    C1F13912   4.087   6.084   7.717 -0.2287 -0.1649 -0.1209
  129OSM     OF13913   4.106   6.194   7.766  0.2161 -0.0118 -0.5929
  129OSM    C2F13914   3.990   6.073   7.610  0.4895 -0.2381 -0.2258
  129OSM    H2F13915   4.011   5.992   7.537 -2.6504 -0.5870 -0.8944
  129OSM    H2G13916   4.001   6.174   7.566  1.0413 -0.2169 -0.0508
  129OSM    C3F13917   3.840   6.047   7.664  0.1210  0.5210 -0.5080
  129OSM    H3F13918   3.809   6.139   7.717  0.4686  0.2137  0.2365
  129OSM    H3G13919   3.831   5.968   7.741  1.8482  0.7745 -0.0092
  129OSM    C4F13920   3.738   6.037   7.555 -0.1830  0.1585  0.1997
  129OSM    H4F13921   3.744   6.114   7.474 -1.0488 -0.9047 -0.9054
  129OSM    H4G13922   3.635   6.060   7.589  0.7574  0.6405  2.9360
  129OSM    C5F13923   3.739   5.896   7.495  0.2081  0.8421  0.2712
  129OSM    H5F13924   3.687   5.830   7.567  3.6481 -1.4960  0.8377
  129OSM    H5G13925   3.845   5.865   7.490 -0.3487 -1.0532 -1.3512
  129OSM    C6F13926   3.681   5.887   7.352  0.2799  0.3267 -0.5232
  129OSM    H6F13927   3.586   5.944   7.348 -0.9846 -1.7390 -1.3426
  129OSM    H6G13928   3.637   5.785   7.348  0.3468 -0.0163  3.3994
  129OSM    C7F13929   3.778   5.933   7.242  0.4141 -0.9055  0.6375
  129OSM    H7F13930   3.859   5.860   7.223  0.2714 -1.1990  1.1522
  129OSM    H7G13931   3.826   6.031   7.262  0.5704 -0.8480  0.0223
  129OSM    C8F13932   3.704   5.951   7.102 -0.5749 -0.7736  0.2282
  129OSM    H8F13933   3.610   6.008   7.118 -0.8491 -1.0057 -0.5070
  129OSM    H8G13934   3.679   5.846   7.078 -1.7735 -0.6428  0.8262
  129OSM    C9F13935   3.802   6.000   6.996 -0.2788  0.1813  0.6531
  129OSM    H9F13936   3.874   5.924   6.961  0.2354  1.2473 -0.7026
  129OSM   C10F13937   3.789   6.109   6.924  0.2597  0.1705 -0.4834
  129OSM   H10F13938   3.862   6.135   6.846 -1.1197  0.8922 -1.5693
  129OSM   C11F13939   3.705   6.233   6.946 -0.3198  0.5122 -0.3116
  129OSM   H11F13940   3.772   6.316   6.915  0.1897 -0.5704 -2.2969
  129OSM   H11G13941   3.677   6.246   7.053  0.3552  2.3477 -0.3278
  129OSM   C12F13942   3.572   6.224   6.872 -0.3932  0.1034  0.3233
  129OSM   H12F13943   3.506   6.310   6.893  1.2027  2.0458 -2.0672
  129OSM   H12G13944   3.518   6.138   6.917 -0.8860  1.1900  1.9023
  129OSM   C13F13945   3.591   6.223   6.716 -0.0510 -0.2608 -0.7502
  129OSM   H13F13946   3.492   6.185   6.685  0.0071 -0.5300 -0.6099
  129OSM   H13G13947   3.663   6.140   6.700 -0.0100 -1.4900  4.0901
  129OSM   C14F13948   3.622   6.356   6.643 -0.2995 -0.1652  0.6941
  129OSM   H14F13949   3.719   6.400   6.676 -0.2069  0.2149 -0.0769
  129OSM   H14G13950   3.558   6.447   6.649  1.9663  1.4702  1.8004
  129OSM   C15F13951   3.648   6.336   6.489 -0.5206  0.3132 -0.1064
  129OSM   H15F13952   3.564   6.291   6.432  0.0542 -1.8476  0.6760
  129OSM   H15G13953   3.737   6.269   6.485  0.0713  1.0372  0.5047
  129OSM   C16F13954   3.694   6.466   6.420  0.2445  0.4577  0.3766
  129OSM   H16F13955   3.787   6.510   6.462 -0.3868  1.3952  0.8586
  129OSM   H16G13956   3.612   6.535   6.449  1.3467  0.9386  2.5659
  129OSM   C17F13957   3.700   6.450   6.262  0.4976  0.3813 -0.1302
  129OSM   H17F13958   3.670   6.549   6.222 -0.8675 -0.8917 -2.4378
  129OSM   H17G13959   3.633   6.377   6.212 -0.3587  1.7013 -0.9378
  129OSM   C18F13960   3.834   6.418   6.214  0.4430 -0.2215 -0.7307
  129OSM   H18F13961   3.842   6.388   6.107  2.1437 -1.8617 -0.2075
  129OSM   H18G13962   3.869   6.328   6.269 -1.6274 -0.7101 -0.1256
  129OSM   H18H13963   3.919   6.490   6.224  1.2943 -1.0388 -1.7773
  130OSM      N13964   3.886   1.161   8.380 -0.2580 -0.3074 -0.1803
  130OSM    C1513965   4.004   1.227   8.442  0.1424  0.2775  0.2332
  130OSM   H15A13966   3.987   1.269   8.541 -0.6082 -0.8657  0.6039
  130OSM   H15B13967   4.033   1.311   8.380  1.1584  1.1444  1.8165
  130OSM   H15C13968   4.088   1.160   8.445  0.7682  0.9864 -0.8104
  130OSM    C1413969   3.856   1.033   8.458 -0.2660 -0.5088  0.5987
  130OSM   H14A13970   3.852   1.056   8.564 -0.0315  2.9736 -0.0331
  130OSM   H14B13971   3.932   0.962   8.428 -0.4339 -0.2123 -0.5517
  130OSM   H14C13972   3.764   0.985   8.425 -0.0883  0.1093 -0.8353
  130OSM    C1313973   3.764   1.254   8.384 -0.3105  0.5514 -0.3107
  130OSM   H13A13974   3.749   1.277   8.488  0.8705 -0.7428  0.1698
  130OSM   H13B13975   3.679   1.220   8.326  0.1812  0.1131 -0.7899
  130OSM   H13C13976   3.791   1.350   8.343  1.3278 -0.6123 -2.1415
  130OSM    C1213977   3.924   1.124   8.232  0.0615  0.5344  0.0603
  130OSM   H12A13978   3.841   1.067   8.192  0.8003 -0.5563  0.0445
  130OSM   H12B13979   4.008   1.056   8.232 -0.6012 -0.3620 -1.9332
  130OSM    C1113980   3.962   1.237   8.132  0.3233 -0.4938  0.0233
  130OSM   H11A13981   3.863   1.286   8.125  0.8430  0.3944 -1.7964
  130OSM   H11B13982   3.981   1.190   8.032  0.2994 -1.7707  0.5956
  130OSM      P13983   4.210   1.316   8.153  0.2989  0.1839 -0.2529
  130OSM    O1313984   4.268   1.441   8.199 -0.2096  0.2345 -0.3137
  130OSM    O1413985   4.266   1.191   8.211 -0.6946  0.5293 -0.0628
  130OSM    O1113986   4.225   1.323   7.995 -0.0113  0.6652 -0.5137
  130OSM    O1213987   4.059   1.331   8.186  0.6730 -0.0174  0.0740
  130OSM    C1S13988   4.163   1.429   7.922 -0.4136  0.1838  0.8119
  130OSM    H1S13989   4.224   1.516   7.954 -1.3155 -0.1957  3.8309
  130OSM    H1T13990   4.057   1.436   7.952 -1.4749  0.2829 -2.5154
  130OSM     NF13991   4.139   1.534   7.718  0.4458 -0.2860  0.0590
  130OSM    HNF13992   4.047   1.531   7.681 -0.2335 -1.2153  1.7199
  130OSM    C2S13993   4.177   1.404   7.774 -0.4401 -0.7120 -0.9777
  130OSM    H2S13994   4.284   1.393   7.745 -0.5375  0.5553 -1.9341
  130OSM    C3S13995   4.085   1.280   7.730 -0.4965 -1.5574  0.1191
  130OSM    H3S13996   3.981   1.316   7.750  0.2818 -0.1390  1.8423
  130OSM     O313997   4.122   1.159   7.792  0.1375 -0.0040 -0.6157
  130OSM    HO313998   4.178   1.190   7.863  0.8021  1.5248 -1.7460
  130OSM    C4S13999   4.097   1.260   7.578  0.1373 -1.1131 -0.0134
  130OSM    H4S14000   4.200   1.244   7.545  1.1254 -0.2624  2.4435
  130OSM    C5S14001   3.991   1.269   7.490 -0.3312  0.4688 -0.3683
  130OSM    H5S14002   3.889   1.289   7.527 -0.5682  1.9307 -1.6840
  130OSM    C6S14003   3.990   1.265   7.339  0.0717 -0.5806  0.7869
  130OSM    H6S14004   3.927   1.353   7.316 -0.5126 -0.9820  0.8217
  130OSM    H6T14005   3.924   1.187   7.295 -2.6881  1.5095  1.0089
  130OSM    C7S14006   4.133   1.280   7.276 -0.0560  0.3997 -0.0354
  130OSM    H7S14007   4.182   1.181   7.290 -1.3896 -0.0414  1.8351
  130OSM    H7T14008   4.203   1.340   7.339  1.4264 -0.7633 -0.5320
  130OSM    C8S14009   4.131   1.325   7.132  0.0489  0.0827  0.3545
  130OSM    H8S14010   4.048   1.279   7.075  1.2991 -1.3917 -0.3548
  130OSM    H8T14011   4.223   1.289   7.080 -0.6085 -2.0083  0.5731
  130OSM    C9S14012   4.122   1.479   7.119  0.2998  0.6025  0.0274
  130OSM    H9S14013   4.118   1.526   7.220  2.5543  0.3445  0.2924
  130OSM    H9T14014   4.021   1.491   7.073  0.7410 -1.8586 -1.7352
  130OSM   C10S14015   4.223   1.535   7.024  0.0897 -0.4189 -0.3464
  130OSM   H10S14016   4.326   1.527   7.064 -0.8623  0.5500  2.6128
  130OSM   H10T14017   4.200   1.644   7.016 -0.5895 -0.1684  3.1258
  130OSM   C11S14018   4.221   1.475   6.881  0.3584  0.0589 -0.0506
  130OSM   H11S14019   4.241   1.366   6.894 -2.1718 -0.5300 -0.5134
  130OSM   H11T14020   4.300   1.519   6.817  1.3400 -1.1695  0.2584
  130OSM   C12S14021   4.094   1.490   6.800  0.4357 -0.3665  0.0819
  130OSM   H12S14022   4.058   1.591   6.827  0.4150 -0.8486  1.9478
  130OSM   H12T14023   4.022   1.413   6.836  1.2916 -0.6412  1.2569
  130OSM   C13S14024   4.101   1.465   6.649  0.1642 -0.6269  0.0704
  130OSM   H13S14025   4.132   1.360   6.634 -1.5695 -1.1566 -0.0280
  130OSM   H13T14026   4.180   1.534   6.609  1.4600 -2.1574 -0.0954
  130OSM   C14S14027   3.973   1.487   6.567 -0.7441 -0.1800 -0.1159
  130OSM   H14S14028   3.939   1.592   6.573  1.4220  0.6150 -0.7171
  130OSM   H14T14029   3.903   1.407   6.599  0.2795 -1.9694 -2.0559
  130OSM   C15S14030   4.004   1.466   6.417 -0.0474  0.3798 -0.0528
  130OSM   H15S14031   4.101   1.513   6.390  1.1116 -1.5557  0.5139
  130OSM   H15T14032   3.926   1.530   6.371 -0.2088  0.8097  0.7969
  130OSM   C16S14033   3.993   1.317   6.361 -0.4931 -0.6028 -0.0449
  130OSM   H16S14034   3.897   1.270   6.392 -1.7138 -0.8369 -3.6873
  130OSM   H16T14035   4.081   1.258   6.395 -0.5675  0.5225  2.2262
  130OSM   C17S14036   3.984   1.324   6.208  0.3421  0.6508 -0.6877
  130OSM   H17S14037   3.911   1.406   6.190 -1.0547 -0.4964 -0.3323
  130OSM   H17T14038   3.948   1.230   6.162  0.6808  0.6770 -1.0157
  130OSM   C18S14039   4.112   1.373   6.146  0.8822 -0.9838 -0.0464
  130OSM   H18S14040   4.184   1.289   6.139  1.6398 -0.2832 -0.9073
  130OSM   H18T14041   4.153   1.458   6.207  0.2125 -0.2540 -0.5960
  130OSM   H18U14042   4.107   1.405   6.040  2.4733 -2.1388 -0.5094
  130OSM    C1F14043   4.215   1.648   7.719  0.6148 -0.3018  0.1614
  130OSM     OF14044   4.331   1.648   7.749 -0.3322  0.1676  0.0204
  130OSM    C2F14045   4.147   1.781   7.692 -0.7136  0.3123  0.3557
  130OSM    H2F14046   4.196   1.858   7.755 -0.9275  0.5231  0.2651
  130OSM    H2G14047   4.039   1.771   7.711 -0.7805 -1.7882 -0.8261
  130OSM    C3F14048   4.155   1.834   7.544 -0.1313 -0.6518 -0.3938
  130OSM    H3F14049   4.100   1.764   7.477  0.3593  0.4703 -2.0163
  130OSM    H3G14050   4.262   1.823   7.515 -0.2967 -1.4706 -0.7388
  130OSM    C4F14051   4.106   1.973   7.509 -0.4778  0.2998 -0.7218
  130OSM    H4F14052   4.183   2.032   7.563  0.5930 -0.6365 -1.2165
  130OSM    H4G14053   4.011   1.986   7.566 -0.4457 -1.0205 -0.3347
  130OSM    C5F14054   4.083   1.976   7.358  0.1378  0.0194 -1.1450
  130OSM    H5F14055   4.032   2.069   7.323  0.1755  0.5424  0.1042
  130OSM    H5G14056   4.017   1.889   7.336 -1.3266  1.2215 -1.7101
  130OSM    C6F14057   4.206   1.968   7.271 -0.1839 -0.1511  0.3064
  130OSM    H6F14058   4.272   1.884   7.302  1.5148  1.2207  0.6013
  130OSM    H6G14059   4.257   2.064   7.296 -3.6320  2.8837 -3.0260
  130OSM    C7F14060   4.185   1.966   7.118  0.4179 -0.3849 -0.3032
  130OSM    H7F14061   4.122   2.052   7.089  2.5647  1.5602  0.4618
  130OSM    H7G14062   4.129   1.878   7.080  0.9640 -0.7425 -0.2950
  130OSM    C8F14063   4.314   1.958   7.032  0.2599  1.1009 -0.4293
  130OSM    H8F14064   4.305   1.931   6.925  3.3871  2.0800 -1.0272
  130OSM    H8G14065   4.385   1.891   7.084 -0.4742  0.5192 -0.1675
  130OSM    C9F14066   4.381   2.093   7.024 -0.2202 -1.1276  0.9676
  130OSM    H9F14067   4.410   2.143   7.118  0.1889 -1.7999  1.2097
  130OSM   C10F14068   4.417   2.166   6.914  0.3621  0.4854 -0.3867
  130OSM   H10F14069   4.445   2.272   6.926 -2.1846  1.2887 -0.9372
  130OSM   C11F14070   4.398   2.133   6.769  0.6094  0.0664 -0.2594
  130OSM   H11F14071   4.359   2.029   6.764  0.0457  0.1846  1.0829
  130OSM   H11G14072   4.495   2.147   6.717  0.3147  2.1446 -0.3350
  130OSM   C12F14073   4.300   2.232   6.716  0.1911 -0.1533  1.2383
  130OSM   H12F14074   4.217   2.246   6.789  0.5728  1.0114  1.4680
  130OSM   H12G14075   4.252   2.189   6.626 -0.1711  0.4573  1.1306
  130OSM   C13F14076   4.354   2.375   6.687  0.4317  0.1869  0.1429
  130OSM   H13F14077   4.429   2.406   6.762 -0.0354 -0.5706  0.9449
  130OSM   H13G14078   4.266   2.438   6.710  0.6340  0.5848 -0.1585
  130OSM   C14F14079   4.394   2.372   6.539  0.3339  0.5764 -0.5344
  130OSM   H14F14080   4.330   2.300   6.481 -0.4775  1.6221 -0.9691
  130OSM   H14G14081   4.500   2.342   6.526  0.3707  0.0115  0.8880
  130OSM   C15F14082   4.366   2.501   6.465 -0.5350 -0.4812  0.5124
  130OSM   H15F14083   4.260   2.501   6.430 -0.4785 -0.0076  0.3256
  130OSM   H15G14084   4.432   2.497   6.376  0.2642  1.4844  0.9471
  130OSM   C16F14085   4.400   2.633   6.517 -0.2014  0.2495 -0.5664
  130OSM   H16F14086   4.501   2.630   6.563 -0.4677  0.3916  0.0296
  130OSM   H16G14087   4.331   2.660   6.600 -1.2168  1.3615 -1.7283
  130OSM   C17F14088   4.407   2.751   6.409  0.2775  0.1758  0.0884
  130OSM   H17F14089   4.473   2.718   6.326  0.4460 -0.4763  0.4741
  130OSM   H17G14090   4.453   2.845   6.448  0.3831 -0.0501  0.5183
  130OSM   C18F14091   4.278   2.789   6.342  0.1851 -0.0320  0.0530
  130OSM   H18F14092   4.245   2.700   6.285  1.7376 -0.7929  0.2792
  130OSM   H18G14093   4.279   2.873   6.270  0.0829  2.3343  2.6430
  130OSM   H18H14094   4.194   2.808   6.413  0.0900  1.6147 -0.4694
  131OSM      N14095   4.282   3.786   8.281  0.0303 -0.1607  0.1436
  131OSM    C1514096   4.160   3.753   8.210 -0.3579 -0.5313  0.3913
  131OSM   H15A14097   4.085   3.830   8.210 -1.4532 -1.5640 -0.1597
  131OSM   H15B14098   4.125   3.664   8.260  1.2277 -1.5205 -0.1579
  131OSM   H15C14099   4.191   3.723   8.111 -3.3572  0.6516 -1.0206
  131OSM    C1414100   4.257   3.807   8.420 -0.3193 -0.3287 -0.2723
  131OSM   H14A14101   4.338   3.858   8.470 -0.5565 -0.0456 -0.1713
  131OSM   H14B14102   4.226   3.722   8.478 -0.5501  0.5824  0.9728
  131OSM   H14C14103   4.169   3.870   8.419  0.1900  0.4175 -1.4020
  131OSM    C1314104   4.374   3.673   8.267  0.0492  0.7792  0.0214
  131OSM   H13A14105   4.327   3.576   8.277  1.6624  0.0688  1.1639
  131OSM   H13B14106   4.455   3.669   8.338  0.8835 -0.0364 -0.9561
  131OSM   H13C14107   4.429   3.678   8.175  2.5787 -2.8783  1.1158
  131OSM    C1214108   4.343   3.912   8.225  0.3401  0.3755 -0.4053
  131OSM   H12A14109   4.449   3.905   8.243  0.3519  0.6427 -0.3637
  131OSM   H12B14110   4.308   3.987   8.293 -3.3558 -1.1602 -0.3812
  131OSM    C1114111   4.306   3.963   8.086 -0.2400  0.0071 -0.1546
  131OSM   H11A14112   4.305   3.884   8.008 -0.8971  0.8316 -1.0018
  131OSM   H11B14113   4.383   4.034   8.052  2.1088 -2.4329 -0.2799
  131OSM      P14114   4.149   4.155   8.167  0.0446 -0.3081  0.3082
  131OSM    O1314115   4.002   4.171   8.182 -0.0444  0.2024 -1.0237
  131OSM    O1414116   4.223   4.165   8.294  0.0219 -0.2280 -1.0145
  131OSM    O1114117   4.213   4.260   8.064 -0.2642  0.0479  0.1056
  131OSM    O1214118   4.174   4.021   8.092  0.2171 -0.1002 -0.0260
  131OSM    C1S14119   4.233   4.234   7.922  0.1327  0.5302  0.2046
  131OSM    H1S14120   4.220   4.127   7.895 -0.6951 -0.1128  2.8581
  131OSM    H1T14121   4.335   4.261   7.887  0.1128  1.3729  0.7628
  131OSM     NF14122   4.132   4.289   7.701 -0.6872  0.4972  0.2360
  131OSM    HNF14123   4.191   4.337   7.636 -0.5384  1.4048  1.0119
  131OSM    C2S14124   4.145   4.331   7.846  0.1923  0.4659  0.9759
  131OSM    H2S14125   4.041   4.325   7.885 -0.0844 -1.2189  0.0744
  131OSM    C3S14126   4.209   4.476   7.866  0.7320 -0.3900 -0.6574
  131OSM    H3S14127   4.316   4.481   7.836  0.8576  1.0082 -0.0211
  131OSM     O314128   4.221   4.529   7.996 -0.1422 -0.0804 -0.2264
  131OSM    HO314129   4.192   4.457   8.052  1.1934 -0.4552  0.0026
  131OSM    C4S14130   4.128   4.572   7.786 -0.0274  0.2652  0.0576
  131OSM    H4S14131   4.163   4.597   7.684 -2.7921 -0.4848 -1.1758
  131OSM    C5S14132   4.007   4.623   7.823 -0.5354 -0.0337 -0.7480
  131OSM    H5S14133   3.963   4.590   7.918 -1.9684  0.1840 -1.3045
  131OSM    C6S14134   3.937   4.736   7.742  0.0633 -0.6710  0.9806
  131OSM    H6S14135   3.936   4.830   7.800  2.1958  0.0237 -0.0230
  131OSM    H6T14136   3.834   4.701   7.719  0.2875 -1.1474  0.6668
  131OSM    C7S14137   3.993   4.777   7.605 -0.5260  0.0718 -0.4292
  131OSM    H7S14138   4.102   4.796   7.613 -0.5504  0.1451 -0.2722
  131OSM    H7T14139   3.950   4.873   7.570  1.3259  1.1524  0.1675
  131OSM    C8S14140   3.966   4.676   7.497  0.4528 -0.4727  0.2356
  131OSM    H8S14141   3.857   4.680   7.477  0.3153 -2.3547  0.4015
  131OSM    H8T14142   3.992   4.574   7.534 -2.6747 -0.9152  1.5685
  131OSM    C9S14143   4.038   4.712   7.367 -0.4087 -0.6756  0.2522
  131OSM    H9S14144   4.143   4.689   7.396  0.0579  0.6548 -0.2595
  131OSM    H9T14145   4.028   4.819   7.338  0.7366 -1.5288 -4.1801
  131OSM   C10S14146   4.001   4.624   7.249 -0.5758 -0.3989  0.5087
  131OSM   H10S14147   3.891   4.633   7.238 -0.2573  1.0713 -2.1552
  131OSM   H10T14148   4.028   4.518   7.271 -0.9964 -0.8271 -0.9420
  131OSM   C11S14149   4.064   4.662   7.112 -0.3885  0.1751 -0.0881
  131OSM   H11S14150   4.175   4.665   7.124 -0.4260 -2.5921  2.1107
  131OSM   H11T14151   4.030   4.763   7.081 -3.2384 -0.8705 -0.6228
  131OSM   C12S14152   4.019   4.559   7.007  0.3542  0.2201  0.6843
  131OSM   H12S14153   3.919   4.522   7.039 -0.2452  0.9573 -0.2635
  131OSM   H12T14154   4.085   4.470   6.995 -0.1717 -0.0681 -0.1743
  131OSM   C13S14155   4.001   4.621   6.866  0.1301 -0.2096  0.4561
  131OSM   H13S14156   4.092   4.659   6.814 -0.0176 -0.0423  0.3164
  131OSM   H13T14157   3.936   4.710   6.878  1.0339  0.4768  0.3897
  131OSM   C14S14158   3.931   4.529   6.767 -0.8580  0.5246  0.4584
  131OSM   H14S14159   3.824   4.527   6.798 -0.5404  0.9019  1.6657
  131OSM   H14T14160   3.965   4.424   6.781 -0.0769  0.8632  1.2425
  131OSM   C15S14161   3.958   4.574   6.622 -0.4885 -0.0637 -0.8605
  131OSM   H15S14162   4.064   4.544   6.607 -0.8446 -2.7872  1.2241
  131OSM   H15T14163   3.933   4.682   6.633 -2.5921 -0.7456  2.9552
  131OSM   C16S14164   3.872   4.512   6.510 -0.2398 -0.1179 -0.8333
  131OSM   H16S14165   3.764   4.537   6.514  0.1455  1.4830  0.9585
  131OSM   H16T14166   3.874   4.400   6.511 -0.3323 -0.1424 -2.0912
  131OSM   C17S14167   3.934   4.543   6.373  0.0467 -0.2035  0.0206
  131OSM   H17S14168   3.865   4.505   6.294 -0.8439 -0.4589  0.8981
  131OSM   H17T14169   4.031   4.490   6.381  0.6215  0.8824  0.4490
  131OSM   C18S14170   3.965   4.689   6.352  0.5706  0.0233 -0.3712
  131OSM   H18S14171   3.870   4.744   6.331  0.0476 -0.7509 -0.0680
  131OSM   H18T14172   4.031   4.707   6.265  0.0501 -0.8907 -0.9749
  131OSM   H18U14173   4.005   4.744   6.440  0.8705  1.1806 -1.2092
  131OSM    C1F14174   4.060   4.178   7.657 -0.2603  0.2347 -0.7377
  131OSM     OF14175   3.995   4.111   7.738  0.3530 -0.3687  0.5847
  131OSM    C2F14176   4.085   4.140   7.515  0.1545 -0.2303  1.1051
  131OSM    H2F14177   3.995   4.152   7.451  1.5731  1.8737 -0.6367
  131OSM    H2G14178   4.120   4.034   7.507 -0.9328 -0.7059  2.3408
  131OSM    C3F14179   4.194   4.219   7.435 -0.4766 -0.1806 -0.2289
  131OSM    H3F14180   4.296   4.209   7.478 -0.5259  0.8502  0.1497
  131OSM    H3G14181   4.175   4.329   7.438 -1.5613 -0.3862  1.2370
  131OSM    C4F14182   4.206   4.188   7.284  0.1854  0.5147  1.1962
  131OSM    H4F14183   4.102   4.193   7.244  0.8038 -1.3056 -0.7653
  131OSM    H4G14184   4.242   4.086   7.260 -0.1557  1.0177 -1.7305
  131OSM    C5F14185   4.283   4.295   7.207 -0.1980 -0.2994  0.7473
  131OSM    H5F14186   4.391   4.291   7.232  0.0599 -0.0921 -0.2580
  131OSM    H5G14187   4.241   4.396   7.227  1.0788  0.2274  0.8031
  131OSM    C6F14188   4.289   4.273   7.051  0.3231  0.2177 -0.4530
  131OSM    H6F14189   4.187   4.267   7.007 -0.9709 -0.9592  2.4667
  131OSM    H6G14190   4.345   4.180   7.028  0.6802  0.8143 -2.1661
  131OSM    C7F14191   4.368   4.381   6.974 -0.7014 -0.3132 -0.6749
  131OSM    H7F14192   4.478   4.385   6.989 -0.7114 -0.7446 -0.4864
  131OSM    H7G14193   4.333   4.473   7.027  0.8687 -1.3895  2.4867
  131OSM    C8F14194   4.339   4.396   6.829  0.0179 -0.3186 -0.2948
  131OSM    H8F14195   4.400   4.480   6.789  0.4018 -0.9346 -1.0356
  131OSM    H8G14196   4.235   4.431   6.814  0.0332 -1.0180 -2.4079
  131OSM    C9F14197   4.369   4.262   6.767 -0.1103 -0.1566 -0.1412
  131OSM    H9F14198   4.460   4.215   6.808 -1.1673 -1.6277  0.6001
  131OSM   C10F14199   4.278   4.183   6.707  0.5391 -0.0800  0.4705
  131OSM   H10F14200   4.305   4.080   6.681  0.5266  0.5809 -2.5290
  131OSM   C11F14201   4.132   4.208   6.671 -0.4197  0.9017 -0.7661
  131OSM   H11F14202   4.104   4.313   6.697 -1.6288 -0.1249  2.7132
  131OSM   H11G14203   4.062   4.152   6.737 -1.6649 -0.2851 -2.9743
  131OSM   C12F14204   4.088   4.171   6.526  0.5791  0.2491  0.3097
  131OSM   H12F14205   4.153   4.232   6.459 -0.0927  0.0671 -0.5184
  131OSM   H12G14206   3.983   4.207   6.517  0.0285 -0.8727  1.8023
  131OSM   C13F14207   4.131   4.023   6.486 -0.1499  0.1367  0.0630
  131OSM   H13F14208   4.084   3.955   6.560 -3.0005  0.0664 -1.6424
  131OSM   H13G14209   4.241   4.010   6.489 -0.0081  1.1370 -0.4384
  131OSM   C14F14210   4.075   3.977   6.353  0.5389  1.0511  0.6726
  131OSM   H14F14211   4.123   4.024   6.265 -2.3394  1.5377 -0.7799
  131OSM   H14G14212   3.966   4.000   6.344  1.2657  4.2128 -1.9602
  131OSM   C15F14213   4.091   3.821   6.333 -0.1915 -0.6334 -0.1191
  131OSM   H15F14214   4.047   3.766   6.419  1.5559 -0.3944  0.9783
  131OSM   H15G14215   4.202   3.813   6.343 -0.0275  0.4512 -0.9065
  131OSM   C16F14216   4.040   3.775   6.196  0.3149  0.8280  0.3518
  131OSM   H16F14217   4.087   3.835   6.114 -0.5920  0.0974 -0.7301
  131OSM   H16G14218   3.935   3.809   6.185  0.7697  2.0212 -0.6071
  131OSM   C17F14219   4.070   3.630   6.159  0.1592 -0.1670 -0.1612
  131OSM   H17F14220   4.058   3.570   6.252  1.0741 -0.7176 -0.3866
  131OSM   H17G14221   4.178   3.642   6.140 -0.2239  0.8682 -1.8847
  131OSM   C18F14222   4.016   3.572   6.032 -0.2809  0.0606 -0.3920
  131OSM   H18F14223   4.047   3.621   5.937 -0.6467  2.2092  0.5411
  131OSM   H18G14224   3.905   3.564   6.028 -0.3055  0.4266 -0.4656
  131OSM   H18H14225   4.045   3.464   6.025 -1.0492 -0.1345 -0.7004
  132OSM      N14226   6.560   1.866   8.485  0.1609  0.2682  0.1526
  132OSM    C1514227   6.609   1.806   8.616 -0.3568 -0.4643  0.1334
  132OSM   H15A14228   6.633   1.883   8.688 -0.4958  0.5740 -0.8968
  132OSM   H15B14229   6.688   1.733   8.604  1.4397  1.5465 -0.9142
  132OSM   H15C14230   6.525   1.751   8.657  0.3104 -0.9994  0.8056
  132OSM    C1414231   6.504   1.761   8.395 -0.1421 -1.0130 -0.0956
  132OSM   H14A14232   6.572   1.677   8.386 -0.4229 -1.2939  0.3719
  132OSM   H14B14233   6.480   1.787   8.293  0.5497 -1.3898 -0.3621
  132OSM   H14C14234   6.409   1.720   8.426 -0.5941 -0.1147 -0.2656
  132OSM    C1314235   6.450   1.966   8.521 -0.1321  0.2172 -0.1000
  132OSM   H13A14236   6.489   2.048   8.579 -1.7191  1.6577 -0.9805
  132OSM   H13B14237   6.377   1.919   8.585 -0.2892  2.6613  1.6632
  132OSM   H13C14238   6.392   1.995   8.434 -0.0876 -1.1736 -0.6291
  132OSM    C1214239   6.664   1.945   8.405  0.3047 -0.4329 -0.2639
  132OSM   H12A14240   6.607   1.982   8.321 -1.1832  0.4222  1.0683
  132OSM   H12B14241   6.735   1.876   8.361 -0.0864 -1.1459  0.2020
  132OSM    C1114242   6.755   2.045   8.483  0.6707  0.2075  0.4681
  132OSM   H11A14243   6.682   2.097   8.548 -1.5193 -1.8018 -0.2151
  132OSM   H11B14244   6.807   2.113   8.413  4.2640 -2.5254  0.1689
  132OSM      P14245   6.988   1.919   8.507 -0.0251 -0.1608 -0.3617
  132OSM    O1314246   7.103   1.963   8.592 -0.1791  0.1257  0.2007
  132OSM    O1414247   6.972   1.773   8.482  0.8269  0.2724  0.5946
  132OSM    O1114248   7.010   1.984   8.376  0.8054 -0.4798  0.4249
  132OSM    O1214249   6.850   1.978   8.571 -0.5220  0.0358  0.7790
  132OSM    C1S14250   7.104   1.935   8.275 -0.5851  0.1698  0.5966
  132OSM    H1S14251   7.138   1.832   8.298 -2.7623 -1.1523 -1.6235
  132OSM    H1T14252   7.190   2.006   8.276  0.1392 -0.6193  3.3555
  132OSM     NF14253   7.140   1.855   8.043 -1.0054  0.2608 -0.6710
  132OSM    HNF14254   7.186   1.899   7.966  2.8856 -1.0601  0.6558
  132OSM    C2S14255   7.048   1.927   8.132  0.0910 -0.1876  0.5612
  132OSM    H2S14256   6.957   1.865   8.142 -1.3705  1.7172 -0.2338
  132OSM    C3S14257   6.984   2.056   8.078 -0.9180  0.1241  0.4824
  132OSM    H3S14258   7.063   2.132   8.060 -0.5753 -0.0443  1.2442
  132OSM     O314259   6.887   2.111   8.171 -0.3937  0.0578 -0.6466
  132OSM    HO314260   6.926   2.080   8.254 -2.0179 -0.3555 -0.0011
  132OSM    C4S14261   6.913   2.032   7.944 -0.6039 -0.1671  0.2103
  132OSM    H4S14262   6.984   2.063   7.867  0.0740 -0.7455  0.6012
  132OSM    C5S14263   6.784   2.012   7.921  0.1049 -0.6747 -0.4955
  132OSM    H5S14264   6.711   2.021   8.003 -1.0806 -0.5373 -1.5473
  132OSM    C6S14265   6.713   2.010   7.781  0.5734 -0.0104  0.7879
  132OSM    H6S14266   6.629   2.083   7.777  1.1075  0.5425 -0.5428
  132OSM    H6T14267   6.677   1.907   7.758 -0.1657  0.6316 -1.0939
  132OSM    C7S14268   6.802   2.033   7.654 -0.2462  0.4191 -0.4560
  132OSM    H7S14269   6.894   1.972   7.668  0.4183  0.8806 -2.5144
  132OSM    H7T14270   6.828   2.140   7.651  0.8800  0.1744  0.0568
  132OSM    C8S14271   6.731   1.985   7.521  0.1307 -0.8328 -0.7109
  132OSM    H8S14272   6.647   2.058   7.509  1.5187  1.7317  3.1141
  132OSM    H8T14273   6.698   1.881   7.538  0.7259 -1.3527 -2.5719
  132OSM    C9S14274   6.815   1.983   7.383  0.1425 -0.3680  0.3109
  132OSM    H9S14275   6.912   1.929   7.395  0.3208  0.1619  1.3627
  132OSM    H9T14276   6.834   2.085   7.345  1.3465 -1.0636 -1.0985
  132OSM   C10S14277   6.745   1.913   7.267  0.1726 -0.3405 -0.3700
  132OSM   H10S14278   6.647   1.957   7.238 -0.5784  0.7041  3.2644
  132OSM   H10T14279   6.729   1.810   7.304 -1.7800  0.1354  0.2250
  132OSM   C11S14280   6.835   1.904   7.135  0.3124 -0.0006  0.1235
  132OSM   H11S14281   6.772   1.844   7.065  2.0552 -1.1105 -0.5573
  132OSM   H11T14282   6.933   1.855   7.153  0.3422  0.8343  2.4936
  132OSM   C12S14283   6.864   2.042   7.073 -0.3628  0.2477  0.4196
  132OSM   H12S14284   6.970   2.048   7.040 -0.0434  0.2748  1.4316
  132OSM   H12T14285   6.848   2.120   7.150 -2.1520  1.2955 -0.9556
  132OSM   C13S14286   6.786   2.059   6.940  0.3463 -0.3533 -0.7716
  132OSM   H13S14287   6.808   2.163   6.906 -0.4986  0.2658  0.4896
  132OSM   H13T14288   6.679   2.050   6.969  0.5177  0.4219  0.1795
  132OSM   C14S14289   6.830   1.965   6.827  0.3174  0.7718  0.2470
  132OSM   H14S14290   6.798   1.863   6.858 -0.3690  0.5116 -1.2676
  132OSM   H14T14291   6.940   1.956   6.820  0.4399  1.1686  1.4083
  132OSM   C15S14292   6.766   1.991   6.687 -0.3322  0.3743 -0.3906
  132OSM   H15S14293   6.808   2.085   6.644  1.6602 -0.4750 -0.4051
  132OSM   H15T14294   6.656   1.997   6.702 -0.1406 -0.0789  1.3184
  132OSM   C16S14295   6.804   1.872   6.591 -0.5905 -0.6231 -0.6749
  132OSM   H16S14296   6.734   1.789   6.616 -1.3793  0.4210  0.7149
  132OSM   H16T14297   6.908   1.834   6.603 -0.6498 -0.2321  1.6068
  132OSM   C17S14298   6.774   1.901   6.443  0.1352 -0.2619 -0.6796
  132OSM   H17S14299   6.815   1.996   6.402 -1.5944  0.0942 -1.7195
  132OSM   H17T14300   6.663   1.910   6.437 -0.0660 -0.7364  1.3728
  132OSM   C18S14301   6.795   1.784   6.359 -0.6855 -0.0890  1.0251
  132OSM   H18S14302   6.738   1.697   6.400 -1.9492  0.1699 -0.0917
  132OSM   H18T14303   6.905   1.766   6.358 -0.5544  0.7103  0.5302
  132OSM   H18U14304   6.778   1.795   6.250  1.4486 -0.7711  0.5786
  132OSM    C1F14305   7.143   1.725   8.041  0.5144 -0.2662  0.4127
  132OSM     OF14306   7.081   1.654   8.122  0.3733  0.7253  0.6507
  132OSM    C2F14307   7.224   1.669   7.935  0.0589 -0.6003  0.0094
  132OSM    H2F14308   7.280   1.751   7.883 -2.8203  0.2853 -1.9672
  132OSM    H2G14309   7.156   1.635   7.853 -1.6395  0.9978  0.6825
  132OSM    C3F14310   7.318   1.555   7.980  0.6719 -0.2239 -0.8493
  132OSM    H3F14311   7.265   1.463   8.016  2.3053 -1.5017 -1.5770
  132OSM    H3G14312   7.386   1.576   8.065  0.4738 -1.4798 -0.3530
  132OSM    C4F14313   7.410   1.500   7.866  0.3319  0.5715 -0.1127
  132OSM    H4F14314   7.461   1.410   7.908  0.1240  1.1418  1.4309
  132OSM    H4G14315   7.495   1.566   7.839  1.5384 -1.4101 -1.4693
  132OSM    C5F14316   7.337   1.452   7.743  0.2065 -0.0278  0.5218
  132OSM    H5F14317   7.341   1.537   7.672 -1.4816 -1.5918 -1.6119
  132OSM    H5G14318   7.239   1.407   7.768 -0.0749 -1.8042 -3.0106
  132OSM    C6F14319   7.415   1.333   7.679 -0.5629  0.3649 -1.1375
  132OSM    H6F14320   7.426   1.247   7.749 -2.6222  1.6773  0.9462
  132OSM    H6G14321   7.509   1.373   7.638  1.0501 -1.0082  0.9790
  132OSM    C7F14322   7.330   1.295   7.552 -0.3126  0.5210  0.6606
  132OSM    H7F14323   7.309   1.391   7.500 -0.4544 -0.7474 -1.7709
  132OSM    H7G14324   7.235   1.242   7.576  0.6742 -1.3872  0.5167
  132OSM    C8F14325   7.418   1.202   7.460 -0.2120 -0.5307  0.3608
  132OSM    H8F14326   7.446   1.113   7.521  1.5325  1.0476  2.0082
  132OSM    H8G14327   7.504   1.267   7.437  1.1413 -1.5504  2.2745
  132OSM    C9F14328   7.344   1.165   7.333 -0.3615  0.3460  0.1786
  132OSM    H9F14329   7.254   1.222   7.307  0.4344  0.6525 -2.1127
  132OSM   C10F14330   7.363   1.059   7.257  0.1582 -0.0890  0.2243
  132OSM   H10F14331   7.302   1.053   7.166  1.2427 -2.6453 -0.4296
  132OSM   C11F14332   7.485   0.967   7.253  0.1987  0.1715 -0.5329
  132OSM   H11F14333   7.479   0.881   7.323 -0.5841  0.2896 -0.4441
  132OSM   H11G14334   7.575   1.022   7.288  1.2695 -1.8236 -0.0095
  132OSM   C12F14335   7.529   0.924   7.110 -0.0131  0.5245 -0.0542
  132OSM   H12F14336   7.634   0.888   7.112 -0.1197  0.2245  1.7182
  132OSM   H12G14337   7.513   1.014   7.048 -1.1283  0.5479  0.2425
  132OSM   C13F14338   7.434   0.813   7.056 -0.0654  0.6830  0.4875
  132OSM   H13F14339   7.340   0.821   7.115  0.0175  1.2123  0.5494
  132OSM   H13G14340   7.469   0.710   7.080 -0.8385  0.4137  0.4884
  132OSM   C14F14341   7.406   0.833   6.908  0.4215  0.3674 -0.1832
  132OSM   H14F14342   7.499   0.826   6.848 -0.3214 -0.6181 -1.2580
  132OSM   H14G14343   7.365   0.935   6.893  0.3739  0.6354  1.5226
  132OSM   C15F14344   7.311   0.716   6.865  0.4090  0.6365 -0.1005
  132OSM   H15F14345   7.216   0.714   6.921 -1.0068  0.0599 -2.3967
  132OSM   H15G14346   7.355   0.615   6.880 -2.8694 -0.9439 -0.2632
  132OSM   C16F14347   7.265   0.731   6.719  0.9616  0.0269  0.2888
  132OSM   H16F14348   7.213   0.829   6.712 -0.7012 -0.6486  2.2442
  132OSM   H16G14349   7.179   0.662   6.704  0.4196  0.9771 -1.1814
  132OSM   C17F14350   7.367   0.713   6.616 -0.1064 -0.6142  0.4925
  132OSM   H17F14351   7.430   0.622   6.624  0.1802 -0.3870  0.8271
  132OSM   H17G14352   7.439   0.797   6.614 -1.9501  1.0066 -0.6251
  132OSM   C18F14353   7.296   0.713   6.482  0.1045 -0.4643  0.2404
  132OSM   H18F14354   7.370   0.676   6.408 -0.0318 -0.0167 -0.1257
  132OSM   H18G14355   7.251   0.809   6.450 -2.5651 -1.6025  0.3040
  132OSM   H18H14356   7.219   0.634   6.471  0.7567 -1.0639 -0.0986
  133OSM      N14357   3.280   5.496   8.656  0.6235 -0.7447 -0.2017
  133OSM    C1514358   3.144   5.567   8.669 -0.5200  0.3890  0.6084
  133OSM   H15A14359   3.078   5.497   8.717  0.7319 -1.2831  0.0097
  133OSM   H15B14360   3.113   5.609   8.574  0.5659 -1.4772 -0.6544
  133OSM   H15C14361   3.152   5.647   8.741 -5.3799  2.4373 -0.6696
  133OSM    C1414362   3.337   5.474   8.790  0.4688 -0.4507  0.0313
  133OSM   H14A14363   3.281   5.403   8.850 -0.4114 -0.4972 -0.8221
  133OSM   H14B14364   3.343   5.556   8.859  2.6442  2.1365 -2.9915
  133OSM   H14C14365   3.439   5.440   8.786  0.1558 -1.4936  0.3351
  133OSM    C1314366   3.273   5.363   8.588  0.4160  0.4787 -0.1505
  133OSM   H13A14367   3.361   5.310   8.622  0.5823  1.4613  0.9946
  133OSM   H13B14368   3.264   5.384   8.483  1.9975 -0.5509 -0.5161
  133OSM   H13C14369   3.184   5.313   8.624  0.6784 -1.5016 -2.0432
  133OSM    C1214370   3.368   5.588   8.576 -0.8530 -0.1388 -0.7157
  133OSM   H12A14371   3.458   5.531   8.556  0.5249  1.3218  1.0024
  133OSM   H12B14372   3.391   5.672   8.639 -0.7593 -0.3716 -0.4349
  133OSM    C1114373   3.319   5.650   8.439 -0.6186  0.0276  0.0414
  133OSM   H11A14374   3.412   5.691   8.393 -0.0295 -1.5191 -0.1973
  133OSM   H11B14375   3.246   5.733   8.452 -0.5811  0.6200 -2.8905
  133OSM      P14376   3.119   5.571   8.277  0.4064 -0.2105 -0.3091
  133OSM    O1314377   3.090   5.450   8.195  0.1345  0.0957  0.0883
  133OSM    O1414378   3.022   5.598   8.388 -0.2659  0.4263  0.3062
  133OSM    O1114379   3.130   5.699   8.186 -0.5710 -0.1559  0.1161
  133OSM    O1214380   3.267   5.554   8.343  0.0605  0.0711  0.0589
  133OSM    C1S14381   3.241   5.699   8.088  0.6541 -0.5189 -0.2127
  133OSM    H1S14382   3.268   5.594   8.062 -3.2788 -1.7681  0.1145
  133OSM    H1T14383   3.328   5.748   8.137  0.7149 -2.1188  1.4221
  133OSM     NF14384   3.304   5.748   7.856  0.5488 -0.0418  0.0246
  133OSM    HNF14385   3.374   5.818   7.854 -0.9389  1.5083 -0.5620
  133OSM    C2S14386   3.198   5.773   7.954 -0.4765 -0.6395 -0.3963
  133OSM    H2S14387   3.109   5.716   7.920 -1.7104 -0.2108  1.8675
  133OSM    C3S14388   3.168   5.925   7.988  0.1211 -0.4749 -0.1471
  133OSM    H3S14389   3.254   5.977   8.036  0.0010 -0.8302  0.4631
  133OSM     O314390   3.060   5.938   8.081 -0.3992 -0.4560  0.5607
  133OSM    HO314391   3.071   5.866   8.145 -0.0384 -0.4774  0.4787
  133OSM    C4S14392   3.124   6.010   7.861  0.1628  1.0495 -0.1692
  133OSM    H4S14393   3.076   5.947   7.785  1.1604 -0.1861  0.1691
  133OSM    C5S14394   3.142   6.140   7.826 -0.7186  0.2022 -0.3903
  133OSM    H5S14395   3.196   6.204   7.898  0.1709 -0.0033 -0.8572
  133OSM    C6S14396   3.087   6.200   7.697  0.2893  0.7925 -0.0702
  133OSM    H6S14397   3.041   6.298   7.722  0.4448  0.3575  2.2107
  133OSM    H6T14398   3.005   6.139   7.655  1.0259  0.2920 -0.8133
  133OSM    C7S14399   3.193   6.197   7.582 -0.5046  0.2620 -0.4495
  133OSM    H7S14400   3.183   6.093   7.542 -0.5539  0.5608 -1.2246
  133OSM    H7T14401   3.290   6.232   7.623 -0.2047  1.9915 -2.4454
  133OSM    C8S14402   3.149   6.286   7.470  0.5760 -0.6770  0.3345
  133OSM    H8S14403   3.150   6.393   7.499  0.9593 -0.1679 -1.4166
  133OSM    H8T14404   3.042   6.260   7.454  0.7931 -0.5779 -1.5656
  133OSM    C9S14405   3.224   6.263   7.339 -0.0575 -0.1263  0.2434
  133OSM    H9S14406   3.300   6.185   7.358  0.7459  0.7185  0.5859
  133OSM    H9T14407   3.285   6.355   7.324  0.7848 -0.1256  3.1254
  133OSM   C10S14408   3.145   6.228   7.212 -0.1839 -0.3782  0.1743
  133OSM   H10S14409   3.073   6.313   7.202 -1.6786 -1.7810 -2.1685
  133OSM   H10T14410   3.093   6.131   7.222 -3.4299  1.2931  0.8173
  133OSM   C11S14411   3.229   6.228   7.084  0.3482  0.4005 -0.0315
  133OSM   H11S14412   3.300   6.144   7.094  0.4178  0.4905  0.2522
  133OSM   H11T14413   3.278   6.328   7.071 -1.5286  1.3834  0.1071
  133OSM   C12S14414   3.144   6.187   6.964 -1.2826  0.4764  0.4268
  133OSM   H12S14415   3.067   6.265   6.947 -2.2677 -0.8515 -1.6137
  133OSM   H12T14416   3.088   6.093   6.984 -2.8316  0.9215 -1.5585
  133OSM   C13S14417   3.230   6.177   6.837 -0.0495  0.3317 -0.1045
  133OSM   H13S14418   3.275   6.075   6.848  0.0182  0.1242 -2.0403
  133OSM   H13T14419   3.303   6.260   6.829  0.7100 -0.2903  0.1759
  133OSM   C14S14420   3.150   6.158   6.710 -1.0231 -0.1759 -0.2422
  133OSM   H14S14421   3.074   6.239   6.713 -0.9805 -0.1557  0.3694
  133OSM   H14T14422   3.113   6.053   6.706 -3.7381  0.6320  1.3659
  133OSM   C15S14423   3.232   6.195   6.576  0.9772  0.2777  0.9509
  133OSM   H15S14424   3.308   6.114   6.571 -1.2044 -1.8739  0.3901
  133OSM   H15T14425   3.281   6.294   6.581  1.3892  0.1536 -0.2714
  133OSM   C16S14426   3.139   6.185   6.445  0.7060  0.9272 -0.2202
  133OSM   H16S14427   3.048   6.248   6.458  0.2428  0.4780 -1.1630
  133OSM   H16T14428   3.109   6.078   6.434 -0.6621  1.1139  1.1987
  133OSM   C17S14429   3.209   6.224   6.321  0.6282 -0.5937 -0.2508
  133OSM   H17S14430   3.306   6.170   6.311  1.0871  0.2835 -0.6401
  133OSM   H17T14431   3.227   6.333   6.334  1.0524 -0.6111 -0.6770
  133OSM   C18S14432   3.132   6.200   6.191 -0.4485 -0.3623  0.4128
  133OSM   H18S14433   3.108   6.093   6.175 -0.8942 -0.2990  0.6288
  133OSM   H18T14434   3.198   6.228   6.106 -0.4526 -1.9459 -0.1339
  133OSM   H18U14435   3.040   6.262   6.179  0.5386  1.2445  0.8511
  133OSM    C1F14436   3.323   5.628   7.809 -0.5735 -0.2795  0.6410
  133OSM     OF14437   3.257   5.531   7.838 -0.4160  0.1261 -0.4963
  133OSM    C2F14438   3.433   5.619   7.706 -1.0230 -0.4733  0.4634
  133OSM    H2F14439   3.524   5.653   7.760 -0.8539  0.9298 -0.6399
  133OSM    H2G14440   3.417   5.691   7.624  2.3907 -1.3316 -1.1046
  133OSM    C3F14441   3.436   5.485   7.649  0.1481 -0.0911 -0.1025
  133OSM    H3F14442   3.339   5.451   7.609  1.1294  0.1548 -2.8765
  133OSM    H3G14443   3.454   5.417   7.736 -0.7928 -0.3844 -0.1265
  133OSM    C4F14444   3.549   5.436   7.553 -0.3808  0.0539  0.2004
  133OSM    H4F14445   3.542   5.325   7.558 -1.7980  0.0284 -1.3764
  133OSM    H4G14446   3.651   5.459   7.591 -1.0535  1.5309  1.2023
  133OSM    C5F14447   3.522   5.470   7.406 -0.0767  0.9168  0.1842
  133OSM    H5F14448   3.526   5.579   7.383  1.3745  1.3072  1.9684
  133OSM    H5G14449   3.420   5.435   7.382  0.8615 -1.2676 -0.9721
  133OSM    C6F14450   3.623   5.409   7.317 -0.6261 -0.3201 -0.4711
  133OSM    H6F14451   3.650   5.309   7.357  1.9953  0.8431  0.9870
  133OSM    H6G14452   3.724   5.454   7.333 -0.9785  0.2217  0.2508
  133OSM    C7F14453   3.581   5.394   7.173  0.2697 -0.0959  0.2992
  133OSM    H7F14454   3.535   5.489   7.137 -0.4054 -0.4621  0.1716
  133OSM    H7G14455   3.505   5.313   7.163  0.2888  0.1013 -1.6797
  133OSM    C8F14456   3.700   5.353   7.087 -0.2668 -0.4353 -0.0980
  133OSM    H8F14457   3.742   5.253   7.111  0.3019 -0.1876 -0.0263
  133OSM    H8G14458   3.778   5.428   7.114 -0.5682  0.2882 -1.1749
  133OSM    C9F14459   3.670   5.369   6.939 -0.1117  0.8392 -0.0742
  133OSM    H9F14460   3.602   5.287   6.910 -0.7354  1.9491 -1.8636
  133OSM   C10F14461   3.684   5.469   6.858 -0.3775 -0.0762 -0.5947
  133OSM   H10F14462   3.676   5.449   6.750 -0.8789  1.0868 -0.7943
  133OSM   C11F14463   3.751   5.601   6.906 -0.2548  0.1107 -0.1174
  133OSM   H11F14464   3.798   5.601   7.007  0.1176  1.7001 -0.2638
  133OSM   H11G14465   3.678   5.684   6.917 -0.2444 -0.1174  2.1914
  133OSM   C12F14466   3.853   5.650   6.802  0.4328  0.3445  0.0803
  133OSM   H12F14467   3.934   5.575   6.791  2.1454  2.2507 -0.7278
  133OSM   H12G14468   3.894   5.742   6.848 -3.1232  1.2070  1.9087
  133OSM   C13F14469   3.793   5.691   6.667 -0.0388 -0.5948 -0.1493
  133OSM   H13F14470   3.715   5.616   6.643 -0.6352 -1.7678  4.4069
  133OSM   H13G14471   3.877   5.697   6.595  0.9692  0.3556  1.0473
  133OSM   C14F14472   3.727   5.820   6.677 -0.3677  0.1338  0.5905
  133OSM   H14F14473   3.809   5.894   6.690 -0.5721  0.1909  1.6603
  133OSM   H14G14474   3.662   5.831   6.766  0.3221 -1.3433  1.3253
  133OSM   C15F14475   3.635   5.858   6.567  0.0888 -0.0093  0.5073
  133OSM   H15F14476   3.563   5.937   6.597  1.3118  0.8835  1.1921
  133OSM   H15G14477   3.588   5.766   6.527  0.2450  0.4724 -0.8482
  133OSM   C16F14478   3.706   5.920   6.445 -0.7530 -0.0840 -0.5731
  133OSM   H16F14479   3.768   5.835   6.408  0.2499  0.2802  0.2362
  133OSM   H16G14480   3.774   5.998   6.485  1.6256 -1.5863 -1.4136
  133OSM   C17F14481   3.612   5.979   6.344 -0.9402  0.2237  0.5457
  133OSM   H17F14482   3.547   6.050   6.399 -0.0595  0.1421  1.7558
  133OSM   H17G14483   3.544   5.899   6.306  0.0047  0.0375 -0.8092
  133OSM   C18F14484   3.666   6.060   6.224  0.2328  0.7196 -0.1899
  133OSM   H18F14485   3.584   6.102   6.162  1.0311  0.9700 -1.1138
  133OSM   H18G14486   3.716   5.988   6.154  0.0217 -0.7087  1.0783
  133OSM   H18H14487   3.740   6.136   6.257  0.5050  0.0495  0.7608
  134OSM      N14488   0.998   5.605   8.290 -0.7665 -0.2093  0.0854
  134OSM    C1514489   0.926   5.479   8.324 -0.2396  0.2581 -0.2170
  134OSM   H15A14490   0.996   5.398   8.341  1.5214  1.4344 -1.4443
  134OSM   H15B14491   0.861   5.446   8.244  0.1441 -1.8850  0.2924
  134OSM   H15C14492   0.869   5.489   8.414 -0.0376 -0.0712 -0.0472
  134OSM    C1414493   0.900   5.706   8.235  0.1852 -0.6804 -0.3044
  134OSM   H14A14494   0.831   5.736   8.311  1.8582  0.3791  0.8632
  134OSM   H14B14495   0.853   5.672   8.144 -0.4410  1.0037 -0.6459
  134OSM   H14C14496   0.952   5.795   8.202  0.3101 -0.8481 -0.5636
  134OSM    C1314497   1.056   5.664   8.419 -0.0795  0.1639 -0.4975
  134OSM   H13A14498   1.138   5.733   8.405  0.3917  0.5588  3.1662
  134OSM   H13B14499   1.114   5.594   8.478  0.9246  0.2053 -1.4085
  134OSM   H13C14500   0.983   5.706   8.487 -0.0085 -0.3620 -0.0844
  134OSM    C1214501   1.112   5.575   8.186 -0.9854  0.3150 -0.7432
  134OSM   H12A14502   1.147   5.672   8.152  2.9220 -1.2510 -1.6910
  134OSM   H12B14503   1.076   5.527   8.097 -1.8239  0.2602 -0.3837
  134OSM    C1114504   1.235   5.497   8.236 -0.3595  0.3002 -0.5737
  134OSM   H11A14505   1.281   5.553   8.320  0.6694 -0.0903 -0.8660
  134OSM   H11B14506   1.320   5.496   8.165  0.0573  1.3288 -0.1041
  134OSM      P14507   1.282   5.236   8.233 -0.0944  0.1374 -0.0512
  134OSM    O1314508   1.410   5.249   8.310 -0.4124  0.0146  0.1901
  134OSM    O1414509   1.209   5.107   8.229  0.0061  0.1214  0.3565
  134OSM    O1114510   1.325   5.269   8.082 -0.2284  0.1943 -0.9791
  134OSM    O1214511   1.194   5.362   8.281  0.3100  0.7061 -0.3219
  134OSM    C1S14512   1.251   5.221   7.972 -0.4334  0.1467  0.2077
  134OSM    H1S14513   1.155   5.277   7.964 -1.0340 -0.5354  2.1245
  134OSM    H1T14514   1.220   5.115   7.982 -1.2613  0.4416  0.9192
  134OSM     NF14515   1.244   5.211   7.723 -0.1863  0.3751 -0.6156
  134OSM    HNF14516   1.255   5.120   7.683  2.4012  0.0053  0.6917
  134OSM    C2S14517   1.325   5.234   7.838 -0.4801 -0.5949 -0.1022
  134OSM    H2S14518   1.354   5.341   7.836 -0.4225 -0.6120 -1.7588
  134OSM    C3S14519   1.455   5.152   7.834 -0.0563 -1.0711 -0.0935
  134OSM    H3S14520   1.416   5.048   7.824 -1.7915 -0.4533 -0.0286
  134OSM     O314521   1.525   5.147   7.954 -0.4425  0.2853  0.4546
  134OSM    HO314522   1.474   5.209   8.007  0.2397  0.9436  0.3648
  134OSM    C4S14523   1.538   5.175   7.710 -0.0159 -1.1303 -0.5053
  134OSM    H4S14524   1.526   5.090   7.641 -0.4194 -0.8974 -0.7270
  134OSM    C5S14525   1.623   5.277   7.681  0.0161  0.4331 -0.3898
  134OSM    H5S14526   1.641   5.355   7.757  0.2098  0.7988 -0.8114
  134OSM    C6S14527   1.706   5.297   7.554  0.1670 -0.5381 -0.9832
  134OSM    H6S14528   1.809   5.271   7.587  0.1251 -0.0033 -0.4040
  134OSM    H6T14529   1.703   5.403   7.523 -1.7861 -0.6447 -1.2709
  134OSM    C7S14530   1.663   5.222   7.428 -0.4809  0.0605  0.8517
  134OSM    H7S14531   1.552   5.228   7.421 -0.6762 -2.3143  1.1747
  134OSM    H7T14532   1.668   5.111   7.434  0.9769 -0.1156 -1.9092
  134OSM    C8S14533   1.734   5.258   7.293 -0.8145  0.0966 -0.2710
  134OSM    H8S14534   1.832   5.206   7.306 -1.5303 -0.7620  2.3375
  134OSM    H8T14535   1.737   5.368   7.284 -0.8980  0.1570  0.3910
  134OSM    C9S14536   1.659   5.202   7.171  0.0002 -0.5312 -0.0149
  134OSM    H9S14537   1.561   5.254   7.166  0.3888  0.2624  0.4324
  134OSM    H9T14538   1.652   5.093   7.191  1.5492 -0.4567  1.1174
  134OSM   C10S14539   1.734   5.218   7.044 -0.3611  0.8517  0.4552
  134OSM   H10S14540   1.822   5.150   7.054 -2.6479 -2.2704  0.6711
  134OSM   H10T14541   1.774   5.321   7.033  2.1056 -0.2225 -1.9151
  134OSM   C11S14542   1.652   5.185   6.920  0.7968  0.0056 -0.1382
  134OSM   H11S14543   1.551   5.231   6.928  1.0344  0.2761  1.6449
  134OSM   H11T14544   1.640   5.075   6.915 -0.0061  0.1116 -0.6516
  134OSM   C12S14545   1.715   5.233   6.793 -0.3560 -0.0311  0.1451
  134OSM   H12S14546   1.815   5.184   6.785 -0.0938  0.6107 -0.5451
  134OSM   H12T14547   1.726   5.343   6.801 -0.5387  0.0279 -0.4336
  134OSM   C13S14548   1.638   5.207   6.666 -0.6058 -0.4968 -0.4466
  134OSM   H13S14549   1.543   5.264   6.667 -1.2233 -1.4876 -0.4931
  134OSM   H13T14550   1.602   5.101   6.668  0.3712 -0.8279  0.4811
  134OSM   C14S14551   1.721   5.231   6.540  0.0159  0.0240 -0.7265
  134OSM   H14S14552   1.807   5.161   6.548 -1.4703 -1.6547  2.0400
  134OSM   H14T14553   1.759   5.334   6.554  1.8557 -0.7739  0.6362
  134OSM   C15S14554   1.634   5.234   6.412  0.6875  0.6485  0.0949
  134OSM   H15S14555   1.550   5.295   6.450  0.5054  0.3940  0.1037
  134OSM   H15T14556   1.591   5.141   6.369  2.7040 -0.6854  0.8132
  134OSM   C16S14557   1.697   5.311   6.301 -0.4549 -0.2821 -0.1198
  134OSM   H16S14558   1.760   5.244   6.239  0.8605 -0.1700  1.0343
  134OSM   H16T14559   1.766   5.391   6.336  1.5813 -2.3722  0.8978
  134OSM   C17S14560   1.594   5.372   6.206 -0.4668 -0.9442 -0.1371
  134OSM   H17S14561   1.534   5.447   6.262 -3.8561 -2.5516 -1.3497
  134OSM   H17T14562   1.512   5.302   6.182 -1.3141 -0.7825  2.1187
  134OSM   C18S14563   1.652   5.432   6.079  0.1124  0.6440 -0.0983
  134OSM   H18S14564   1.739   5.366   6.057  1.1604  1.7474  0.6503
  134OSM   H18T14565   1.692   5.534   6.094  2.7361 -0.3232  0.0986
  134OSM   H18U14566   1.582   5.429   5.992  1.4427 -3.3044 -1.2633
  134OSM    C1F14567   1.156   5.297   7.681  0.0374 -0.0262 -0.0014
  134OSM     OF14568   1.136   5.404   7.736  0.7322 -0.4241  0.3401
  134OSM    C2F14569   1.076   5.268   7.555  0.7628 -0.1021  1.0669
  134OSM    H2F14570   0.979   5.320   7.570  0.2067 -0.5328 -0.7498
  134OSM    H2G14571   1.068   5.158   7.542 -1.6088 -0.1814  2.7465
  134OSM    C3F14572   1.156   5.333   7.434 -1.0113 -0.0924  0.1561
  134OSM    H3F14573   1.260   5.295   7.436 -1.7076 -2.0884  1.1645
  134OSM    H3G14574   1.149   5.444   7.438  0.9048  0.0240  3.3582
  134OSM    C4F14575   1.103   5.302   7.292  0.2956 -0.6335 -0.8145
  134OSM    H4F14576   1.015   5.365   7.267 -1.0187 -1.7697  0.6848
  134OSM    H4G14577   1.063   5.199   7.298  0.8875 -1.0156 -2.8500
  134OSM    C5F14578   1.203   5.312   7.172  0.0663 -0.2040  0.1767
  134OSM    H5F14579   1.294   5.260   7.208 -0.6974 -1.1854  0.7479
  134OSM    H5G14580   1.227   5.420   7.160 -1.1504  0.1122  0.5074
  134OSM    C6F14581   1.147   5.264   7.036  0.8967 -0.6152  0.3796
  134OSM    H6F14582   1.056   5.322   7.009  0.3937 -1.5961 -0.1256
  134OSM    H6G14583   1.110   5.160   7.053  0.1890 -0.1301  2.0288
  134OSM    C7F14584   1.252   5.261   6.926 -0.0551 -0.3699  0.1994
  134OSM    H7F14585   1.345   5.226   6.976  0.9716 -0.7595 -1.8773
  134OSM    H7G14586   1.265   5.358   6.873  1.6271 -0.8471 -0.3374
  134OSM    C8F14587   1.222   5.153   6.827  0.1827  0.0015  0.1444
  134OSM    H8F14588   1.209   5.064   6.891  1.6403 -0.9539 -0.8334
  134OSM    H8G14589   1.302   5.136   6.752  1.2907 -1.2111  1.5345
  134OSM    C9F14590   1.088   5.184   6.757 -0.2591 -0.9286 -0.2468
  134OSM    H9F14591   1.003   5.165   6.825  0.1987  0.7011  0.8332
  134OSM   C10F14592   1.068   5.238   6.636 -0.4721  0.1086 -0.1120
  134OSM   H10F14593   0.963   5.252   6.607 -0.4024 -0.2495 -0.5412
  134OSM   C11F14594   1.170   5.263   6.535  0.2349  0.2633  0.0443
  134OSM   H11F14595   1.134   5.218   6.440 -0.2262  1.3283 -0.3004
  134OSM   H11G14596   1.252   5.199   6.574 -0.1943 -0.1735  0.2504
  134OSM   C12F14597   1.217   5.402   6.534  0.2760 -0.3349 -0.8059
  134OSM   H12F14598   1.319   5.405   6.489  0.6352  0.8265  0.0213
  134OSM   H12G14599   1.230   5.456   6.630  0.4938 -0.6423 -0.6623
  134OSM   C13F14600   1.125   5.490   6.446  0.0154 -0.1109 -0.3546
  134OSM   H13F14601   1.138   5.597   6.472 -0.4451 -0.2930  0.7076
  134OSM   H13G14602   1.019   5.467   6.472 -0.2580  0.2455 -1.1482
  134OSM   C14F14603   1.159   5.464   6.292  0.1404  0.0766 -0.2881
  134OSM   H14F14604   1.071   5.426   6.236  0.2882  0.2353 -0.6305
  134OSM   H14G14605   1.235   5.383   6.290  1.9631  1.7391 -1.1502
  134OSM   C15F14606   1.222   5.588   6.222 -0.2875  0.4500 -0.5466
  134OSM   H15F14607   1.313   5.616   6.281 -0.8598  0.2626  0.4467
  134OSM   H15G14608   1.144   5.665   6.237 -1.5742 -0.8200 -0.5244
  134OSM   C16F14609   1.263   5.565   6.077 -0.5033 -0.0327 -0.8511
  134OSM   H16F14610   1.175   5.541   6.013  0.4504 -0.8110 -1.8964
  134OSM   H16G14611   1.332   5.479   6.080 -0.8073 -0.2465  0.5406
  134OSM   C17F14612   1.325   5.691   6.023 -0.1864 -0.2580  0.4584
  134OSM   H17F14613   1.420   5.718   6.074 -0.3035 -1.8602  1.6179
  134OSM   H17G14614   1.251   5.774   6.028 -1.4912 -1.2576 -1.2214
  134OSM   C18F14615   1.365   5.673   5.877  0.3406  0.3199 -0.0787
  134OSM   H18F14616   1.300   5.597   5.829  0.4817  0.7673 -0.9896
  134OSM   H18G14617   1.474   5.654   5.870  0.6058  0.5608  2.3513
  134OSM   H18H14618   1.353   5.765   5.817  0.9539  0.3930 -0.0965
  135OSM      N14619   1.589   4.160   8.552 -0.1658 -0.4789 -0.1835
  135OSM    C1514620   1.638   4.017   8.548  0.7498 -0.5157 -0.2891
  135OSM   H15A14621   1.572   3.970   8.476 -3.2774  1.3066  1.9174
  135OSM   H15B14622   1.624   3.975   8.646 -0.8482  0.5989  0.0053
  135OSM   H15C14623   1.743   4.010   8.521  0.6764  0.7245 -0.9921
  135OSM    C1414624   1.454   4.153   8.611  0.4717  0.2213  0.3155
  135OSM   H14A14625   1.450   4.138   8.718 -2.9400  0.1289  0.2572
  135OSM   H14B14626   1.405   4.069   8.564  1.6228 -0.4672  0.2785
  135OSM   H14C14627   1.399   4.244   8.599 -0.4908 -0.2098  1.2961
  135OSM    C1314628   1.678   4.242   8.641  0.2071 -0.1722 -0.1330
  135OSM   H13A14629   1.768   4.256   8.583  1.0900  0.3237  1.2743
  135OSM   H13B14630   1.706   4.198   8.736  0.7888  2.7656  1.1992
  135OSM   H13C14631   1.643   4.343   8.659  1.3731 -0.1363  2.4366
  135OSM    C1214632   1.588   4.220   8.413 -0.3186 -0.2527 -0.1859
  135OSM   H12A14633   1.683   4.221   8.363 -0.9832 -2.1385 -1.6193
  135OSM   H12B14634   1.565   4.326   8.417 -0.7748 -0.3177 -0.8542
  135OSM    C1114635   1.503   4.157   8.299  0.1687  0.0692 -0.4134
  135OSM   H11A14636   1.511   4.231   8.216  0.2218  0.3767 -0.1381
  135OSM   H11B14637   1.393   4.157   8.317 -0.4087 -0.1719 -3.4172
  135OSM      P14638   1.462   3.915   8.207 -0.0398 -0.2440  0.0324
  135OSM    O1314639   1.547   3.799   8.172 -0.4648  0.0608  0.7456
  135OSM    O1414640   1.358   3.892   8.308  0.7268  0.6632 -0.3927
  135OSM    O1114641   1.390   3.981   8.072  0.2596  1.2616  0.1582
  135OSM    O1214642   1.558   4.028   8.262  0.0608 -0.3388 -0.3495
  135OSM    C1S14643   1.421   3.924   7.947 -0.6157  0.1690  0.3347
  135OSM    H1S14644   1.368   3.827   7.934 -0.0291 -0.3628  1.6165
  135OSM    H1T14645   1.529   3.904   7.929 -1.3472 -1.9747 -2.4053
  135OSM     NF14646   1.373   3.947   7.709  0.5581 -0.0472  0.3743
  135OSM    HNF14647   1.463   3.924   7.674  1.3971  1.5869  1.3276
  135OSM    C2S14648   1.388   4.018   7.828  0.0680  0.2338 -0.4794
  135OSM    H2S14649   1.294   4.069   7.857 -0.2038 -0.6222  0.2160
  135OSM    C3S14650   1.487   4.132   7.839 -0.4162  0.4742  0.5291
  135OSM    H3S14651   1.587   4.087   7.860 -0.2415  1.4922  1.9751
  135OSM     O314652   1.475   4.216   7.952  0.0283  0.5502 -0.0620
  135OSM    HO314653   1.409   4.165   8.000  1.5908 -0.6509  0.9077
  135OSM    C4S14654   1.488   4.226   7.727  0.3288 -1.4249 -0.6163
  135OSM    H4S14655   1.386   4.249   7.694 -1.4242 -1.8564  3.8197
  135OSM    C5S14656   1.589   4.267   7.650  0.2246 -0.0495  0.7464
  135OSM    H5S14657   1.689   4.237   7.683 -0.0457 -2.1434 -0.2036
  135OSM    C6S14658   1.591   4.349   7.524  0.2815 -0.0757 -0.1751
  135OSM    H6S14659   1.668   4.428   7.537 -0.7148  0.9161 -0.0637
  135OSM    H6T14660   1.490   4.395   7.518 -0.4820 -1.5582  0.6970
  135OSM    C7S14661   1.612   4.271   7.391  0.1855 -0.2029  0.1485
  135OSM    H7S14662   1.524   4.203   7.382 -1.4057  1.6149  1.1017
  135OSM    H7T14663   1.712   4.224   7.379  2.1919  4.1904 -2.3976
  135OSM    C8S14664   1.606   4.362   7.267 -0.2886 -0.3514  0.2033
  135OSM    H8S14665   1.691   4.433   7.254 -0.2330 -0.4350  0.1079
  135OSM    H8T14666   1.519   4.428   7.286  0.7318  1.2979 -0.6405
  135OSM    C9S14667   1.576   4.287   7.146  0.2110 -0.9763 -0.2879
  135OSM    H9S14668   1.469   4.262   7.161  0.5460 -2.0599  0.4380
  135OSM    H9T14669   1.637   4.198   7.120 -0.0416 -1.3839  0.4745
  135OSM   C10S14670   1.577   4.365   7.014 -1.0547 -0.6106 -0.6798
  135OSM   H10S14671   1.677   4.413   7.013 -1.0900 -0.4455  1.0742
  135OSM   H10T14672   1.496   4.440   7.017 -0.6759 -0.1776 -1.1678
  135OSM   C11S14673   1.570   4.270   6.891  0.3282 -0.4399 -0.3224
  135OSM   H11S14674   1.466   4.231   6.889 -1.0731  2.9707 -1.3068
  135OSM   H11T14675   1.638   4.183   6.907 -1.0284 -1.1946  1.7438
  135OSM   C12S14676   1.594   4.329   6.752  0.2183 -0.5274 -0.2130
  135OSM   H12S14677   1.700   4.361   6.746 -0.2328  1.6269  1.7284
  135OSM   H12T14678   1.534   4.422   6.750 -0.3753 -0.8840  0.5002
  135OSM   C13S14679   1.584   4.239   6.629  0.2440  0.5725 -0.5390
  135OSM   H13S14680   1.474   4.226   6.619  0.3840 -1.4196  0.0515
  135OSM   H13T14681   1.628   4.138   6.639 -1.2179 -0.0792 -0.3613
  135OSM   C14S14682   1.640   4.299   6.503  0.4536 -0.8062  0.1528
  135OSM   H14S14683   1.748   4.312   6.522  0.2461  3.5340 -0.4115
  135OSM   H14T14684   1.600   4.401   6.485 -1.2978 -1.6163 -0.8162
  135OSM   C15S14685   1.592   4.220   6.381 -0.3339 -0.1976 -0.3340
  135OSM   H15S14686   1.584   4.112   6.410 -0.4420 -0.9508 -2.9429
  135OSM   H15T14687   1.668   4.224   6.300 -0.2497 -0.4673 -0.2705
  135OSM   C16S14688   1.453   4.261   6.339  0.3037 -0.7584 -0.9458
  135OSM   H16S14689   1.445   4.364   6.298 -4.3223 -0.6801 -0.3950
  135OSM   H16T14690   1.375   4.246   6.417 -0.4940 -0.9673 -1.7747
  135OSM   C17S14691   1.387   4.182   6.226 -1.0592  0.6283  0.3454
  135OSM   H17S14692   1.281   4.214   6.210 -0.6727  0.9392 -1.9499
  135OSM   H17T14693   1.374   4.073   6.244 -1.6046  0.1605 -2.4017
  135OSM   C18S14694   1.449   4.205   6.085 -0.3639  0.4351  0.3889
  135OSM   H18S14695   1.393   4.157   6.002  1.3487  0.6389 -0.9350
  135OSM   H18T14696   1.551   4.161   6.078  0.6603  2.8573 -1.0811
  135OSM   H18U14697   1.464   4.312   6.061  1.4608 -0.1274 -1.2948
  135OSM    C1F14698   1.264   3.869   7.685 -0.7535  0.2844 -0.1731
  135OSM     OF14699   1.158   3.893   7.745 -0.0574  0.5343 -0.7394
  135OSM    C2F14700   1.284   3.765   7.584 -0.1066 -0.1870  0.3609
  135OSM    H2F14701   1.279   3.665   7.631 -0.3033 -0.8602 -1.0667
  135OSM    H2G14702   1.383   3.771   7.532  0.9230 -0.5355  2.1937
  135OSM    C3F14703   1.176   3.780   7.474  0.0762  0.1859 -0.7499
  135OSM    H3F14704   1.075   3.781   7.520  0.5799 -0.5749  0.4105
  135OSM    H3G14705   1.161   3.690   7.410 -1.3626  1.7879 -2.7880
  135OSM    C4F14706   1.195   3.898   7.375  0.6675 -0.4307 -0.5043
  135OSM    H4F14707   1.105   3.960   7.358  0.0974 -1.5763 -1.8633
  135OSM    H4G14708   1.270   3.970   7.416  0.8826 -1.1672  0.4323
  135OSM    C5F14709   1.254   3.841   7.244 -0.0482 -0.5067 -0.0185
  135OSM    H5F14710   1.331   3.765   7.268 -1.2307 -1.2722  1.5938
  135OSM    H5G14711   1.319   3.918   7.197  1.1681 -1.0884  0.6454
  135OSM    C6F14712   1.145   3.807   7.145 -0.3252  0.0224  0.2660
  135OSM    H6F14713   1.080   3.894   7.122  0.2659  0.4937  0.3525
  135OSM    H6G14714   1.087   3.724   7.190  0.1552  0.2836  1.4131
  135OSM    C7F14715   1.214   3.746   7.020  0.1143  0.5773 -0.0497
  135OSM    H7F14716   1.273   3.657   7.051 -0.5444  0.3843  0.6736
  135OSM    H7G14717   1.283   3.824   6.983 -1.1707  1.3124 -0.9588
  135OSM    C8F14718   1.110   3.698   6.916 -0.2234  0.0152  0.2903
  135OSM    H8F14719   1.036   3.781   6.912 -0.5779 -0.3230 -0.1417
  135OSM    H8G14720   1.049   3.613   6.954  1.5919 -0.5279  2.2388
  135OSM    C9F14721   1.164   3.663   6.780 -0.1089 -0.3127 -0.3915
  135OSM    H9F14722   1.272   3.679   6.766 -0.2793  1.5536  0.2071
  135OSM   C10F14723   1.097   3.615   6.675 -0.0124 -0.3530 -0.4016
  135OSM   H10F14724   1.162   3.598   6.588  0.2797 -1.0662 -0.0542
  135OSM   C11F14725   0.951   3.575   6.655 -0.1150 -0.6171  0.1004
  135OSM   H11F14726   0.896   3.613   6.743  0.9531 -0.8086  0.8586
  135OSM   H11G14727   0.940   3.464   6.654 -1.7425 -0.4739  0.1061
  135OSM   C12F14728   0.903   3.642   6.525 -0.1669 -0.4698  0.0937
  135OSM   H12F14729   0.895   3.752   6.543 -4.3748 -0.5487 -0.2762
  135OSM   H12G14730   0.804   3.598   6.502  1.2838 -2.4319 -3.0565
  135OSM   C13F14731   0.978   3.628   6.393  0.1354  0.0968  0.4330
  135OSM   H13F14732   1.015   3.524   6.377 -0.8068 -0.1575 -0.2277
  135OSM   H13G14733   1.062   3.700   6.388 -0.5187  0.9873  1.5948
  135OSM   C14F14734   0.880   3.665   6.286  0.1655  0.2073  0.3801
  135OSM   H14F14735   0.813   3.750   6.311  1.5582  1.3642  0.3074
  135OSM   H14G14736   0.817   3.577   6.261  1.0029 -0.5849  0.9765
  135OSM   C15F14737   0.949   3.722   6.159 -0.3867  0.1370 -0.5712
  135OSM   H15F14738   1.014   3.645   6.113 -2.1684 -1.5743 -0.3600
  135OSM   H15G14739   1.021   3.802   6.190 -0.4789  0.1037 -0.2673
  135OSM   C16F14740   0.848   3.769   6.061 -0.2145  0.2704  0.0958
  135OSM   H16F14741   0.774   3.839   6.105 -0.2522  0.2776  0.0203
  135OSM   H16G14742   0.787   3.678   6.042 -0.2833 -0.0714  1.7719
  135OSM   C17F14743   0.908   3.829   5.931  0.3310 -0.5366  0.4872
  135OSM   H17F14744   0.999   3.768   5.913  0.6420 -0.0607  0.4361
  135OSM   H17G14745   0.946   3.933   5.941  0.4261 -0.5916  0.7068
  135OSM   C18F14746   0.801   3.827   5.814 -0.5987  0.2885  0.2876
  135OSM   H18F14747   0.711   3.892   5.824 -1.6405 -0.6683 -2.0540
  135OSM   H18G14748   0.766   3.721   5.809 -0.0569 -0.1619  3.5050
  135OSM   H18H14749   0.850   3.858   5.719 -2.2946  0.9555 -0.4039
  136OSM      N14750   4.780   5.675   8.208 -0.1200 -0.2457 -0.1475
  136OSM    C1514751   4.892   5.755   8.271  0.1999  0.1812  0.0746
  136OSM   H15A14752   4.851   5.829   8.338  0.1796  0.6890 -0.4895
  136OSM   H15B14753   4.948   5.805   8.193  0.7673 -0.0859  0.3041
  136OSM   H15C14754   4.959   5.689   8.325 -0.2000 -0.1840  0.1287
  136OSM    C1414755   4.685   5.642   8.309 -0.1500 -0.6956  0.4388
  136OSM   H14A14756   4.594   5.596   8.273 -1.1256  0.3783  1.4342
  136OSM   H14B14757   4.642   5.733   8.349 -1.9027 -0.9153 -0.8036
  136OSM   H14C14758   4.737   5.590   8.388  0.5473  0.2807  0.6546
  136OSM    C1314759   4.724   5.765   8.102 -0.3082  0.1645 -0.4297
  136OSM   H13A14760   4.674   5.845   8.154  2.3040  1.2357  0.6287
  136OSM   H13B14761   4.649   5.722   8.038 -0.0949  0.1633 -0.6826
  136OSM   H13C14762   4.797   5.808   8.035 -1.9689  0.5684 -2.0368
  136OSM    C1214763   4.831   5.544   8.144  0.0420  0.0592 -0.5632
  136OSM   H12A14764   4.916   5.568   8.082 -0.0427  1.3383 -0.2221
  136OSM   H12B14765   4.761   5.509   8.070  0.5773 -1.2051 -0.4821
  136OSM    C1114766   4.871   5.427   8.240  0.5793  0.1208  0.1868
  136OSM   H11A14767   4.899   5.336   8.182 -1.0845 -0.8568  0.8645
  136OSM   H11B14768   4.793   5.386   8.307  0.3497  0.3910  0.0853
  136OSM      P14769   5.131   5.464   8.255  0.4059  0.4625  0.0725
  136OSM    O1314770   5.222   5.552   8.331  0.2018  0.3493  0.4294
  136OSM    O1414771   5.173   5.325   8.253 -0.1712 -0.4744  0.9347
  136OSM    O1114772   5.107   5.518   8.109  0.2446 -0.0430  0.1317
  136OSM    O1214773   4.981   5.466   8.313 -0.3062  0.6650 -0.0901
  136OSM    C1S14774   5.194   5.489   7.999 -0.4573  0.3582 -0.2050
  136OSM    H1S14775   5.236   5.387   8.008  0.3426  0.7486  0.6273
  136OSM    H1T14776   5.280   5.559   7.992  1.0124 -1.4501 -1.0884
  136OSM     NF14777   5.179   5.418   7.762  0.8200  0.5346  0.3157
  136OSM    HNF14778   5.259   5.458   7.718  0.3674 -0.5076 -1.5644
  136OSM    C2S14779   5.110   5.492   7.869  0.3853  0.3927  0.2068
  136OSM    H2S14780   5.015   5.438   7.891  1.7530 -2.2384  0.0552
  136OSM    C3S14781   5.087   5.639   7.829 -0.4315  1.0235  0.2005
  136OSM    H3S14782   5.185   5.685   7.803  0.3415 -0.6340  0.0328
  136OSM     O314783   5.034   5.722   7.927  0.0621  0.3560  0.4055
  136OSM    HO314784   5.062   5.683   8.010 -2.2606 -2.6366 -0.0529
  136OSM    C4S14785   5.002   5.651   7.703  0.1039  0.1274  0.9551
  136OSM    H4S14786   4.906   5.598   7.704 -1.0086  1.8407 -2.3452
  136OSM    C5S14787   5.045   5.695   7.583  0.0815 -0.2045 -0.3596
  136OSM    H5S14788   5.145   5.740   7.571 -0.3762  0.3680 -2.4514
  136OSM    C6S14789   4.966   5.710   7.458 -0.3064 -0.3976 -0.7753
  136OSM    H6S14790   4.916   5.808   7.443  2.8191  1.2456 -1.3347
  136OSM    H6T14791   4.882   5.639   7.440 -0.4904 -0.1181 -1.0321
  136OSM    C7S14792   5.052   5.681   7.333 -1.2469 -1.1394 -0.1649
  136OSM    H7S14793   5.100   5.581   7.337  0.3801 -0.3585  1.1805
  136OSM    H7T14794   5.134   5.756   7.341 -1.8069 -0.5478  0.1225
  136OSM    C8S14795   4.977   5.695   7.200  0.8691 -0.3184  0.9153
  136OSM    H8S14796   4.933   5.797   7.197 -1.9461 -1.3784  2.5258
  136OSM    H8T14797   4.900   5.616   7.201  2.0541 -1.5325  0.0178
  136OSM    C9S14798   5.050   5.678   7.070 -0.7233  0.6506  0.2342
  136OSM    H9S14799   5.066   5.571   7.045 -1.0394  1.2526 -3.0493
  136OSM    H9T14800   5.151   5.723   7.085 -0.7093  0.7260 -0.0667
  136OSM   C10S14801   4.990   5.746   6.951  0.0260 -0.0210  0.4242
  136OSM   H10S14802   4.970   5.855   6.960  1.3167  0.4697 -1.8172
  136OSM   H10T14803   4.898   5.693   6.920  0.2380 -0.0107 -0.2442
  136OSM   C11S14804   5.087   5.728   6.833 -0.0661  0.4630 -0.3438
  136OSM   H11S14805   5.104   5.619   6.831 -3.0098 -0.0924  0.6375
  136OSM   H11T14806   5.179   5.784   6.860  0.0127  0.5883 -0.8576
  136OSM   C12S14807   5.029   5.755   6.695 -0.2523 -0.1769 -0.2586
  136OSM   H12S14808   4.999   5.862   6.695  0.1099 -0.0735  0.1536
  136OSM   H12T14809   4.934   5.704   6.670 -0.7004  0.6530 -0.3014
  136OSM   C13S14810   5.144   5.732   6.593  0.7201 -0.1756 -0.2713
  136OSM   H13S14811   5.175   5.626   6.592  1.2432 -0.0395  0.5239
  136OSM   H13T14812   5.215   5.803   6.641 -0.8886 -1.3607  4.5339
  136OSM   C14S14813   5.104   5.778   6.449 -0.3056  0.2112 -0.0797
  136OSM   H14S14814   5.041   5.867   6.469  0.3981  0.5837  0.5332
  136OSM   H14T14815   5.032   5.701   6.412 -0.4728  0.6378 -0.6605
  136OSM   C15S14816   5.230   5.784   6.356  0.4365 -0.2219 -0.2772
  136OSM   H15S14817   5.283   5.688   6.369  1.4834  0.7064  3.3673
  136OSM   H15T14818   5.296   5.865   6.392 -0.2485  0.2266 -0.0005
  136OSM   C16S14819   5.196   5.813   6.208 -0.5093  0.0828 -0.3618
  136OSM   H16S14820   5.282   5.873   6.171 -1.1233 -1.2725 -4.5073
  136OSM   H16T14821   5.107   5.879   6.197 -0.3186  0.9005  2.2488
  136OSM   C17S14822   5.193   5.691   6.107 -0.3296 -0.0587  0.2318
  136OSM   H17S14823   5.176   5.748   6.014  1.3343  0.5275  0.2613
  136OSM   H17T14824   5.108   5.624   6.133  1.1323 -1.1149  2.7438
  136OSM   C18S14825   5.317   5.617   6.091 -0.1583 -0.4006  0.2807
  136OSM   H18S14826   5.404   5.671   6.135 -1.0087  0.9756  0.3140
  136OSM   H18T14827   5.344   5.599   5.984  1.2930  1.3085  0.3113
  136OSM   H18U14828   5.313   5.519   6.143  2.8920 -0.3805  0.7398
  136OSM    C1F14829   5.167   5.291   7.757  0.5545 -0.0724  0.2518
  136OSM     OF14830   5.104   5.230   7.842  0.3140  0.4036 -0.6095
  136OSM    C2F14831   5.231   5.221   7.642 -0.2753  0.0510 -0.1954
  136OSM    H2F14832   5.166   5.136   7.615 -1.8753  0.9092  0.8014
  136OSM    H2G14833   5.329   5.176   7.669 -0.4175 -0.7977 -1.0473
  136OSM    C3F14834   5.252   5.313   7.518  0.0424 -0.6849  0.1121
  136OSM    H3F14835   5.325   5.395   7.539 -1.7609  1.3053 -0.9959
  136OSM    H3G14836   5.157   5.364   7.492 -1.1213 -1.8836  1.8295
  136OSM    C4F14837   5.286   5.241   7.384  0.2096 -0.9877  0.6680
  136OSM    H4F14838   5.215   5.159   7.359  1.2002 -1.2549 -1.4692
  136OSM    H4G14839   5.389   5.202   7.393 -0.2925 -2.3049  0.9968
  136OSM    C5F14840   5.289   5.349   7.266  0.0448  0.4921  0.0449
  136OSM    H5F14841   5.359   5.430   7.296  0.2073  0.5476 -0.4657
  136OSM    H5G14842   5.186   5.389   7.256 -0.0528  0.6623  1.4854
  136OSM    C6F14843   5.327   5.283   7.136 -0.6448 -0.0277  0.9049
  136OSM    H6F14844   5.237   5.228   7.101  0.6903 -0.8373 -1.5714
  136OSM    H6G14845   5.409   5.208   7.143 -0.2244  0.3115 -0.1034
  136OSM    C7F14846   5.367   5.386   7.036 -0.2740 -0.1262 -0.7766
  136OSM    H7F14847   5.447   5.447   7.083 -0.6984 -1.8169  2.4596
  136OSM    H7G14848   5.278   5.451   7.025  0.8697  1.6545  0.0499
  136OSM    C8F14849   5.413   5.331   6.901 -0.4817  0.5047  0.0955
  136OSM    H8F14850   5.329   5.274   6.856 -0.1592  0.4936 -0.4942
  136OSM    H8G14851   5.492   5.254   6.912 -0.6469  0.0738 -1.4755
  136OSM    C9F14852   5.455   5.432   6.802 -0.5217 -0.1357 -0.4118
  136OSM    H9F14853   5.501   5.523   6.843  0.7604  0.0318 -2.1159
  136OSM   C10F14854   5.422   5.433   6.674 -0.3034 -0.5521 -0.5702
  136OSM   H10F14855   5.444   5.531   6.630  1.7173 -1.2880 -1.3402
  136OSM   C11F14856   5.344   5.341   6.587  0.5676  0.0012  0.1625
  136OSM   H11F14857   5.237   5.368   6.589  0.3779 -0.7596  0.7658
  136OSM   H11G14858   5.356   5.239   6.630  0.3063  0.1582  0.6113
  136OSM   C12F14859   5.373   5.336   6.439 -0.6770 -1.0575 -0.3852
  136OSM   H12F14860   5.350   5.434   6.394  0.4287 -0.6105 -0.0038
  136OSM   H12G14861   5.304   5.262   6.393  0.6324 -1.2346 -2.1568
  136OSM   C13F14862   5.524   5.300   6.408  0.4674  0.7959 -0.6623
  136OSM   H13F14863   5.538   5.197   6.447 -0.2072  1.6218  1.9747
  136OSM   H13G14864   5.597   5.351   6.474  3.0307  1.4966 -3.7646
  136OSM   C14F14865   5.564   5.322   6.268 -0.3818  0.5575  0.4950
  136OSM   H14F14866   5.665   5.275   6.262 -0.3899  0.3899  1.5607
  136OSM   H14G14867   5.575   5.431   6.249 -1.2784  0.8067  1.3901
  136OSM   C15F14868   5.469   5.263   6.169  0.2417  0.4682  0.0499
  136OSM   H15F14869   5.490   5.292   6.064 -2.6562 -1.1489 -1.0901
  136OSM   H15G14870   5.364   5.300   6.169  0.5510  1.7828 -3.7410
  136OSM   C16F14871   5.464   5.114   6.182  0.0999  0.2938  0.1417
  136OSM   H16F14872   5.410   5.078   6.271  0.7200  0.2334  0.5014
  136OSM   H16G14873   5.570   5.079   6.177  0.5586  1.4792  0.9137
  136OSM   C17F14874   5.395   5.038   6.060 -0.1837  0.1111 -0.6010
  136OSM   H17F14875   5.420   4.929   6.058 -0.8841 -0.0424 -1.0581
  136OSM   H17G14876   5.433   5.080   5.965  1.1238  1.7125  0.5710
  136OSM   C18F14877   5.243   5.047   6.065 -0.7515 -0.2269 -0.1668
  136OSM   H18F14878   5.194   4.984   5.988 -1.6390 -0.9014  0.9209
  136OSM   H18G14879   5.212   5.147   6.028 -1.3207 -0.6899 -0.9716
  136OSM   H18H14880   5.199   5.034   6.166  1.7691  1.6973  1.2823
  137OSM      N14881   2.300   3.191   8.153 -0.2715 -0.2042  0.7105
  137OSM    C1514882   2.296   3.265   8.023 -0.0169  0.0697 -0.1914
  137OSM   H15A14883   2.199   3.282   7.979 -0.3941 -0.0991  0.5601
  137OSM   H15B14884   2.350   3.206   7.951 -0.4792 -1.2530  0.4979
  137OSM   H15C14885   2.341   3.362   8.035 -0.1517  0.2852 -1.3421
  137OSM    C1414886   2.445   3.170   8.193 -0.0964  0.0946 -0.1780
  137OSM   H14A14887   2.498   3.115   8.116  0.4959  0.2564  0.1046
  137OSM   H14B14888   2.453   3.124   8.291  2.2579  0.9146  0.0872
  137OSM   H14C14889   2.500   3.260   8.213 -0.1598  0.0390  0.2601
  137OSM    C1314890   2.228   3.271   8.263  0.0769  0.0762  0.0287
  137OSM   H13A14891   2.236   3.223   8.359  0.2894  1.2924  0.6443
  137OSM   H13B14892   2.122   3.264   8.242  0.1385 -0.4241 -0.1280
  137OSM   H13C14893   2.259   3.375   8.263  0.6314 -0.0739 -1.2459
  137OSM    C1214894   2.225   3.059   8.144 -0.8794 -0.3132 -0.1451
  137OSM   H12A14895   2.253   3.004   8.055 -0.5984  0.4523 -0.5357
  137OSM   H12B14896   2.121   3.081   8.128 -0.9180  1.4283  1.9936
  137OSM    C1114897   2.231   2.955   8.255  0.1301  0.4813 -0.5762
  137OSM   H11A14898   2.153   2.877   8.242  1.3362 -0.9252  0.3217
  137OSM   H11B14899   2.204   3.004   8.351 -0.7471  0.5719 -0.8581
  137OSM      P14900   2.405   2.772   8.201  0.3929 -0.4959  0.6308
  137OSM    O1314901   2.536   2.731   8.251  0.4131 -0.7978  0.3195
  137OSM    O1414902   2.305   2.669   8.233 -0.5634 -0.0591  0.3163
  137OSM    O1114903   2.404   2.815   8.038 -0.3253  0.1379 -0.8956
  137OSM    O1214904   2.361   2.899   8.276  0.0875 -0.0460  0.3137
  137OSM    C1S14905   2.528   2.871   7.988  0.2609 -0.0365 -0.2396
  137OSM    H1S14906   2.610   2.799   8.006  0.1629  0.1485  1.0395
  137OSM    H1T14907   2.549   2.959   8.053 -1.1754 -0.4271  0.7994
  137OSM     NF14908   2.635   2.980   7.788  0.2606  0.1953  0.2231
  137OSM    HNF14909   2.638   3.079   7.787  0.0130  0.2077 -0.7038
  137OSM    C2S14910   2.512   2.915   7.840 -0.0174  0.3405  0.1688
  137OSM    H2S14911   2.509   2.820   7.781 -0.1912  0.4982 -0.0819
  137OSM    C3S14912   2.385   2.985   7.801  1.4685  0.2538 -0.1157
  137OSM    H3S14913   2.372   3.079   7.859 -2.4419 -0.6782  0.8009
  137OSM     O314914   2.263   2.914   7.832 -1.0764 -0.4151  0.0118
  137OSM    HO314915   2.298   2.831   7.866 -0.0171 -0.1477 -0.3708
  137OSM    C4S14916   2.375   3.022   7.656 -0.5400  0.5454  0.3366
  137OSM    H4S14917   2.407   3.125   7.637  1.0483 -0.0974 -0.6572
  137OSM    C5S14918   2.333   2.957   7.543 -0.2913 -0.3375 -0.0846
  137OSM    H5S14919   2.291   2.855   7.549  0.1849 -0.6668 -1.8483
  137OSM    C6S14920   2.343   3.008   7.403  0.2512 -0.3561 -0.2982
  137OSM    H6S14921   2.244   3.012   7.352  0.0355 -0.0114  0.1433
  137OSM    H6T14922   2.402   2.934   7.344  0.8772  0.1919 -0.3629
  137OSM    C7S14923   2.409   3.145   7.394 -0.5139  0.0495 -0.9051
  137OSM    H7S14924   2.509   3.135   7.442 -1.5424 -3.1929  0.8111
  137OSM    H7T14925   2.348   3.209   7.461 -0.4849 -2.0682  1.2343
  137OSM    C8S14926   2.411   3.183   7.239 -0.0113  0.5663 -0.1090
  137OSM    H8S14927   2.304   3.203   7.218 -0.2786  2.2473  2.4139
  137OSM    H8T14928   2.459   3.100   7.182  0.5840 -0.7112  2.1357
  137OSM    C9S14929   2.489   3.308   7.204  0.2706 -0.3274 -0.2803
  137OSM    H9S14930   2.599   3.290   7.209  0.7518  1.8241 -1.7299
  137OSM    H9T14931   2.465   3.392   7.273  1.0965  0.4992 -0.9607
  137OSM   C10S14932   2.468   3.391   7.068  0.4120  0.6442  0.3251
  137OSM   H10S14933   2.547   3.468   7.060 -0.0562  1.1761  0.7309
  137OSM   H10T14934   2.364   3.429   7.069 -0.1593 -0.6597 -2.0244
  137OSM   C11S14935   2.476   3.298   6.951  0.0726 -0.9926  0.1428
  137OSM   H11S14936   2.395   3.222   6.949 -1.0094  0.1321  0.0773
  137OSM   H11T14937   2.571   3.241   6.965  1.1725  0.1756 -2.0822
  137OSM   C12S14938   2.489   3.355   6.808  0.0181  0.3085 -0.0855
  137OSM   H12S14939   2.571   3.430   6.808 -0.7305  1.1970  1.5788
  137OSM   H12T14940   2.399   3.411   6.774  0.7897  1.9335  0.4413
  137OSM   C13S14941   2.528   3.242   6.710  0.8001 -0.3580 -0.1546
  137OSM   H13S14942   2.445   3.168   6.703  0.3512  0.2037 -0.9199
  137OSM   H13T14943   2.622   3.196   6.747  0.2006  0.3856  2.5482
  137OSM   C14S14944   2.558   3.298   6.569  0.1427  0.2740 -0.3139
  137OSM   H14S14945   2.584   3.202   6.519 -0.8380  0.1884 -0.6891
  137OSM   H14T14946   2.641   3.371   6.571 -0.7871  1.3509  1.6107
  137OSM   C15S14947   2.435   3.369   6.508  0.8394  0.0171  0.0730
  137OSM   H15S14948   2.413   3.466   6.557 -0.3398 -0.2943  0.2042
  137OSM   H15T14949   2.348   3.300   6.518  1.5981 -1.4219 -2.4602
  137OSM   C16S14950   2.442   3.372   6.359 -0.2824 -0.1183  0.0851
  137OSM   H16S14951   2.456   3.266   6.329 -0.7362 -0.2379  0.2835
  137OSM   H16T14952   2.537   3.399   6.307  0.4320 -0.2805  1.2527
  137OSM   C17S14953   2.312   3.417   6.290 -0.3176  0.3401  0.0931
  137OSM   H17S14954   2.316   3.527   6.307 -0.8644 -0.1178  4.6401
  137OSM   H17T14955   2.227   3.367   6.342  0.1079 -0.7247 -0.2097
  137OSM   C18S14956   2.316   3.375   6.141 -0.8350  0.3522  0.3243
  137OSM   H18S14957   2.376   3.450   6.085 -1.6028  0.1594 -0.7830
  137OSM   H18T14958   2.210   3.368   6.109 -1.3996  0.4632  2.0690
  137OSM   H18U14959   2.364   3.277   6.121  0.6730  0.8821  1.2105
  137OSM    C1F14960   2.748   2.913   7.775 -0.0149  1.0312  0.1206
  137OSM     OF14961   2.750   2.797   7.808  0.4028 -0.0149  0.3049
  137OSM    C2F14962   2.875   2.984   7.735  0.2326  0.3826  0.4803
  137OSM    H2F14963   2.937   3.003   7.825 -2.1933 -0.0904  2.3579
  137OSM    H2G14964   2.856   3.087   7.698 -0.2415 -0.4772 -1.8673
  137OSM    C3F14965   2.940   2.897   7.631  0.0516 -0.4117  0.2708
  137OSM    H3F14966   2.948   2.786   7.638  0.8242 -0.4946 -1.4606
  137OSM    H3G14967   3.045   2.926   7.610  0.2752 -0.9129  0.6727
  137OSM    C4F14968   2.867   2.911   7.494  0.3327 -0.0788 -0.6263
  137OSM    H4F14969   2.756   2.915   7.504  0.2480 -1.3336 -0.8615
  137OSM    H4G14970   2.912   2.831   7.432 -0.8023  0.2217 -1.8784
  137OSM    C5F14971   2.909   3.030   7.397  0.3275 -0.3039  0.2938
  137OSM    H5F14972   3.020   3.027   7.397  0.3956  0.9539 -1.6438
  137OSM    H5G14973   2.887   3.121   7.458  2.3612 -1.2103  2.5711
  137OSM    C6F14974   2.853   3.034   7.255 -0.2370  0.0139 -0.1072
  137OSM    H6F14975   2.742   3.035   7.265 -0.0804  0.8707  2.2773
  137OSM    H6G14976   2.871   2.941   7.199  2.9967  0.2646  0.3558
  137OSM    C7F14977   2.907   3.165   7.189  0.4639 -0.1881  0.0226
  137OSM    H7F14978   3.016   3.148   7.180  0.2923 -0.9719 -0.7827
  137OSM    H7G14979   2.890   3.253   7.254 -0.0411 -0.7714  0.6863
  137OSM    C8F14980   2.842   3.187   7.048 -0.9185 -1.1007 -0.3387
  137OSM    H8F14981   2.851   3.294   7.019  2.4990 -1.8079 -2.5726
  137OSM    H8G14982   2.734   3.171   7.066 -0.9716  0.2850  0.7302
  137OSM    C9F14983   2.899   3.095   6.942  0.4126  0.2676 -0.4771
  137OSM    H9F14984   2.878   2.989   6.961 -0.7827  0.5166 -0.2982
  137OSM   C10F14985   2.992   3.129   6.853 -0.3908 -0.6878  0.1248
  137OSM   H10F14986   3.031   3.054   6.783  1.3806  0.2104  0.1107
  137OSM   C11F14987   3.041   3.265   6.808 -0.5399 -0.1620 -0.5419
  137OSM   H11F14988   3.150   3.273   6.830  0.0252 -0.6460 -2.9254
  137OSM   H11G14989   2.983   3.338   6.869  1.5632  1.0883  0.0664
  137OSM   C12F14990   3.005   3.298   6.666  0.0602 -0.2663  0.3866
  137OSM   H12F14991   2.894   3.304   6.660  0.1099  1.0337  0.5320
  137OSM   H12G14992   3.038   3.223   6.591 -1.8657 -0.6252 -0.1645
  137OSM   C13F14993   3.056   3.437   6.614 -0.5602 -0.0230 -0.9114
  137OSM   H13F14994   3.162   3.442   6.645 -0.8597 -2.0198  0.6851
  137OSM   H13G14995   2.997   3.510   6.674 -0.1684  0.3698 -0.9992
  137OSM   C14F14996   3.037   3.441   6.457  0.0061  0.6593  0.0300
  137OSM   H14F14997   2.930   3.430   6.429 -0.4192  2.5694  0.7739
  137OSM   H14G14998   3.087   3.352   6.414 -2.1897  0.1491 -1.6209
  137OSM   C15F14999   3.099   3.557   6.387  0.6009  0.5163  0.6114
  137OSM   H15F15000   3.080   3.551   6.277 -0.5991 -0.3984  0.8495
  137OSM   H15G15001   3.209   3.554   6.403  1.2883  0.5697 -3.1782
  137OSM   C16F15002   3.039   3.694   6.419 -0.0657 -0.5752  0.0551
  137OSM   H16F15003   3.080   3.726   6.517  0.0039 -2.5078  0.7020
  137OSM   H16G15004   2.929   3.678   6.424  0.0692 -1.1048  2.9021
  137OSM   C17F15005   3.073   3.807   6.319 -0.6532 -0.7676 -0.0499
  137OSM   H17F15006   3.046   3.908   6.357 -1.8982 -0.9540 -0.4150
  137OSM   H17G15007   3.015   3.794   6.225 -1.4413  2.9298 -0.2096
  137OSM   C18F15008   3.220   3.810   6.282 -0.4622 -0.6862 -0.2503
  137OSM   H18F15009   3.262   3.735   6.212  1.1804 -0.6070  0.6266
  137OSM   H18G15010   3.278   3.813   6.376 -0.5144  2.2193 -0.2104
  137OSM   H18H15011   3.244   3.907   6.232  1.0268 -0.5625  0.6573
  138OSM      N15012   2.249   5.831   7.897 -0.4073 -0.4940 -0.0522
  138OSM    C1515013   2.380   5.844   7.835 -0.5265  0.3953  0.0125
  138OSM   H15A15014   2.439   5.905   7.902 -1.5799  0.6802  0.7023
  138OSM   H15B15015   2.378   5.886   7.735 -0.4752  0.2879 -0.0332
  138OSM   H15C15016   2.440   5.754   7.836 -0.3561  0.5008 -0.3072
  138OSM    C1415017   2.206   5.953   7.958  1.0796  0.0257  0.0477
  138OSM   H14A15018   2.192   6.034   7.888 -1.8014  2.6651  3.3334
  138OSM   H14B15019   2.281   5.990   8.027  0.1232 -0.6227  1.4779
  138OSM   H14C15020   2.114   5.933   8.011  1.7767 -3.0561  0.2743
  138OSM    C1315021   2.148   5.791   7.799  0.2897 -0.2242  0.8514
  138OSM   H13A15022   2.166   5.689   7.766 -1.6651  0.2551 -2.0379
  138OSM   H13B15023   2.151   5.852   7.710  1.0676  0.7584  1.5239
  138OSM   H13C15024   2.052   5.800   7.848 -0.7909  0.6102 -1.3068
  138OSM    C1215025   2.250   5.728   8.007 -0.0445 -0.1564 -0.2245
  138OSM   H12A15026   2.166   5.735   8.075 -0.1606  3.5703 -0.5111
  138OSM   H12B15027   2.333   5.751   8.072  0.2380 -1.8654  0.0476
  138OSM    C1115028   2.274   5.586   7.965 -0.5668  0.3230 -0.4363
  138OSM   H11A15029   2.337   5.588   7.874 -1.7783 -0.9277 -1.3426
  138OSM   H11B15030   2.183   5.530   7.935  1.2583 -1.7627 -2.4250
  138OSM      P15031   2.354   5.374   8.104  0.3397 -0.1564  0.7046
  138OSM    O1315032   2.431   5.347   8.224  0.2002  0.3467 -0.3500
  138OSM    O1415033   2.209   5.327   8.104  0.1536  0.5472  0.4123
  138OSM    O1115034   2.433   5.305   7.980 -0.5424 -0.0872 -0.1013
  138OSM    O1215035   2.361   5.523   8.055 -0.2513  0.3146 -0.2532
  138OSM    C1S15036   2.566   5.343   7.958  0.0397 -0.1832 -0.0456
  138OSM    H1S15037   2.637   5.273   8.008 -0.4794 -0.9965 -0.4192
  138OSM    H1T15038   2.597   5.437   8.008 -0.7102  0.2824 -0.4423
  138OSM     NF15039   2.754   5.371   7.802  0.3728  0.2175  0.2812
  138OSM    HNF15040   2.786   5.453   7.755 -0.1632 -1.3766 -3.0947
  138OSM    C2S15041   2.611   5.335   7.806 -0.6087  0.1259 -0.2514
  138OSM    H2S15042   2.608   5.233   7.764  2.0742 -0.1583  0.0764
  138OSM    C3S15043   2.520   5.420   7.719 -1.2372 -0.1577  0.9474
  138OSM    H3S15044   2.537   5.528   7.739  0.9881  0.3765 -2.9033
  138OSM     O315045   2.381   5.395   7.736  0.5277  0.1001  0.4764
  138OSM    HO315046   2.385   5.369   7.829  2.5006 -0.0771  0.4007
  138OSM    C4S15047   2.552   5.398   7.576 -0.3377 -0.3712 -0.1835
  138OSM    H4S15048   2.605   5.486   7.535 -1.0175  0.7339  1.2158
  138OSM    C5S15049   2.523   5.300   7.487 -0.0607 -0.1348  0.3616
  138OSM    H5S15050   2.467   5.212   7.523 -3.3184  0.7261 -2.1375
  138OSM    C6S15051   2.553   5.307   7.334  0.3283 -0.4459 -0.1894
  138OSM    H6S15052   2.495   5.392   7.292  2.0744  1.2543  0.6604
  138OSM    H6T15053   2.525   5.211   7.287  3.1925 -2.2314  1.3911
  138OSM    C7S15054   2.704   5.332   7.303 -0.1450 -0.1326 -0.8533
  138OSM    H7S15055   2.742   5.228   7.312  0.0898  0.0189 -0.0311
  138OSM    H7T15056   2.754   5.398   7.377  1.3183 -2.8960  0.7758
  138OSM    C8S15057   2.730   5.382   7.161  0.6657 -0.8389 -0.7246
  138OSM    H8S15058   2.839   5.369   7.140  0.7176 -1.1344 -0.2925
  138OSM    H8T15059   2.708   5.490   7.166 -1.9747 -1.3057 -0.9480
  138OSM    C9S15060   2.639   5.324   7.056  0.2696 -0.1114  0.2227
  138OSM    H9S15061   2.541   5.376   7.059  0.2280  0.0426 -2.0167
  138OSM    H9T15062   2.612   5.220   7.087  2.3939 -1.1468 -1.1414
  138OSM   C10S15063   2.695   5.313   6.916  0.6258 -0.0144  1.2575
  138OSM   H10S15064   2.605   5.295   6.854  1.9435  0.2506 -0.8150
  138OSM   H10T15065   2.759   5.223   6.905  0.5034  0.1782 -1.6274
  138OSM   C11S15066   2.774   5.435   6.861 -0.6287 -0.8106  0.5435
  138OSM   H11S15067   2.868   5.444   6.919  0.4113  0.3504 -1.2161
  138OSM   H11T15068   2.726   5.531   6.887 -0.4227 -1.2154  2.6051
  138OSM   C12S15069   2.808   5.423   6.705  0.6090  0.0243 -0.2743
  138OSM   H12S15070   2.890   5.348   6.699  1.3311  0.8071 -0.4036
  138OSM   H12T15071   2.853   5.521   6.678  0.0625  0.2663 -0.3067
  138OSM   C13S15072   2.684   5.376   6.623 -0.2849 -1.2929  0.6985
  138OSM   H13S15073   2.611   5.457   6.645 -0.2995 -0.3052 -2.3915
  138OSM   H13T15074   2.644   5.278   6.657  0.4230 -2.1058 -0.7132
  138OSM   C14S15075   2.711   5.375   6.475 -0.5493  0.8254  0.7444
  138OSM   H14S15076   2.778   5.460   6.451 -1.1030  0.7966 -1.0148
  138OSM   H14T15077   2.619   5.378   6.414  0.1361 -3.8353 -0.9004
  138OSM   C15S15078   2.786   5.241   6.445  0.4153  0.3367 -0.0459
  138OSM   H15S15079   2.709   5.161   6.432  2.6709 -2.4566  2.3895
  138OSM   H15T15080   2.845   5.195   6.527  0.9889 -1.4384 -1.3977
  138OSM   C16S15081   2.875   5.246   6.322 -0.1533  0.3368  0.0828
  138OSM   H16S15082   2.968   5.306   6.330  0.8631 -0.9021 -1.7549
  138OSM   H16T15083   2.821   5.295   6.238  0.3566 -0.5962 -0.8055
  138OSM   C17S15084   2.926   5.117   6.265  0.6579 -0.9448  0.4620
  138OSM   H17S15085   2.850   5.039   6.286  1.4449 -1.4647  1.4702
  138OSM   H17T15086   3.013   5.085   6.327 -0.0329 -0.4625  1.7186
  138OSM   C18S15087   2.962   5.122   6.116 -0.3211  0.4613  0.1494
  138OSM   H18S15088   3.012   5.028   6.085  0.2483  0.9091 -0.3219
  138OSM   H18T15089   3.028   5.209   6.096 -1.4481  2.1284  3.0757
  138OSM   H18U15090   2.879   5.128   6.042  0.1428 -0.7957 -0.5010
  138OSM    C1F15091   2.853   5.291   7.842  0.1162 -0.0061  0.0086
  138OSM     OF15092   2.827   5.179   7.881  0.8542 -0.0766 -0.1924
  138OSM    C2F15093   2.984   5.345   7.826  0.0504 -0.0191 -0.7454
  138OSM    H2F15094   3.048   5.342   7.917 -0.4092 -0.0180 -0.4229
  138OSM    H2G15095   2.968   5.452   7.802 -3.7670 -0.0181  1.0937
  138OSM    C3F15096   3.080   5.268   7.721 -0.5002 -0.2780  0.0067
  138OSM    H3F15097   3.098   5.162   7.748  2.5288  0.0459 -0.4594
  138OSM    H3G15098   3.178   5.320   7.728 -1.4104  1.2832  2.2474
  138OSM    C4F15099   3.029   5.286   7.582  0.3726 -0.8531  0.0924
  138OSM    H4F15100   3.010   5.394   7.559  0.0658 -0.9468 -0.0983
  138OSM    H4G15101   2.932   5.232   7.575 -1.0841  1.6173 -0.2053
  138OSM    C5F15102   3.119   5.242   7.470  0.1167  0.0583  0.6371
  138OSM    H5F15103   3.111   5.132   7.488 -1.8674  0.4953  3.0618
  138OSM    H5G15104   3.222   5.282   7.478  0.5947 -0.8143 -0.8933
  138OSM    C6F15105   3.069   5.275   7.326 -0.6909 -0.3044 -0.2000
  138OSM    H6F15106   3.052   5.383   7.307  0.5802 -0.0294  0.1185
  138OSM    H6G15107   2.974   5.219   7.308 -0.6367 -0.6700  0.6055
  138OSM    C7F15108   3.169   5.225   7.221 -0.4855  0.2337 -0.6945
  138OSM    H7F15109   3.187   5.120   7.252 -0.3947  0.4632  0.0658
  138OSM    H7G15110   3.260   5.288   7.233  0.3980 -1.1937  0.4590
  138OSM    C8F15111   3.127   5.208   7.075 -0.3262  0.0488  0.0332
  138OSM    H8F15112   3.025   5.165   7.073  0.3077 -1.6499  1.4607
  138OSM    H8G15113   3.193   5.136   7.022  1.4288  3.3481 -2.6870
  138OSM    C9F15114   3.136   5.346   7.009 -0.0694  0.1724  0.2490
  138OSM    H9F15115   3.099   5.424   7.077 -1.6871  0.4820 -0.9372
  138OSM   C10F15116   3.171   5.371   6.885  0.1938 -0.6499 -0.0644
  138OSM   H10F15117   3.172   5.476   6.855  1.0016 -0.9979 -1.3549
  138OSM   C11F15118   3.212   5.289   6.771  0.6583  0.3320  0.4416
  138OSM   H11F15119   3.135   5.311   6.695  2.0668  1.4289 -0.7298
  138OSM   H11G15120   3.215   5.180   6.791 -2.0554 -0.1544 -1.3472
  138OSM   C12F15121   3.352   5.317   6.730  0.2698 -0.0743  0.4127
  138OSM   H12F15122   3.430   5.294   6.805  3.5687  1.6008 -2.2370
  138OSM   H12G15123   3.379   5.422   6.705  0.1522  0.2518  1.5699
  138OSM   C13F15124   3.396   5.238   6.605  0.2555 -0.4448  0.6008
  138OSM   H13F15125   3.393   5.128   6.623  1.8628 -0.9360 -1.7418
  138OSM   H13G15126   3.502   5.270   6.602  0.0871  0.1864  1.0322
  138OSM   C14F15127   3.316   5.275   6.481 -0.3941 -0.1291  0.9237
  138OSM   H14F15128   3.327   5.384   6.460 -0.0282 -0.6979 -2.3379
  138OSM   H14G15129   3.205   5.273   6.494 -0.6174  3.1852  0.4882
  138OSM   C15F15130   3.362   5.195   6.356  0.2282 -0.3777  0.3999
  138OSM   H15F15131   3.329   5.090   6.368  1.7233 -1.0161 -0.7788
  138OSM   H15G15132   3.473   5.198   6.358  0.2299 -0.0880  0.0053
  138OSM   C16F15133   3.309   5.250   6.224  0.5309 -0.1149  0.5874
  138OSM   H16F15134   3.353   5.352   6.226 -0.2527  0.2312  1.4705
  138OSM   H16G15135   3.199   5.263   6.232  0.3325 -1.3781  0.0543
  138OSM   C17F15136   3.349   5.170   6.099  0.3298  0.0766 -0.2683
  138OSM   H17F15137   3.300   5.213   6.009  0.6853 -0.3087 -0.6470
  138OSM   H17G15138   3.311   5.065   6.102 -0.0350  0.2132  0.0145
  138OSM   C18F15139   3.503   5.178   6.077 -0.8035 -0.5978  0.1194
  138OSM   H18F15140   3.539   5.145   5.977 -1.4431  2.3175 -1.1645
  138OSM   H18G15141   3.556   5.117   6.154  2.3403  1.5715 -0.1404
  138OSM   H18H15142   3.536   5.283   6.087 -0.8521 -0.2626 -2.4776
  139OSM      N15143   1.534   2.302   8.266  1.0553  0.1243  0.7194
  139OSM    C1515144   1.510   2.269   8.118 -0.1356 -0.4409 -0.3517
  139OSM   H15A15145   1.416   2.218   8.109 -1.6778  1.4234  3.0992
  139OSM   H15B15146   1.594   2.212   8.082  0.6782  1.2665 -1.2788
  139OSM   H15C15147   1.513   2.363   8.065  2.4489 -1.0612 -1.4479
  139OSM    C1415148   1.560   2.169   8.329  0.3690  0.2294 -0.2540
  139OSM   H14A15149   1.468   2.114   8.322 -0.0522  1.0751 -1.8765
  139OSM   H14B15150   1.590   2.169   8.433 -0.9120  0.5501  0.1273
  139OSM   H14C15151   1.630   2.117   8.265  1.0370  1.9225 -0.9820
  139OSM    C1315152   1.655   2.381   8.285  0.6240 -0.1438 -0.1423
  139OSM   H13A15153   1.644   2.466   8.219  0.6887 -0.1508 -0.1613
  139OSM   H13B15154   1.744   2.325   8.262  2.0680  1.9846 -0.1012
  139OSM   H13C15155   1.659   2.425   8.384 -0.9978 -1.0171  0.3432
  139OSM    C1215156   1.418   2.366   8.336 -0.0731 -0.1278  0.5292
  139OSM   H12A15157   1.397   2.464   8.295 -0.3559  0.0065  0.9880
  139OSM   H12B15158   1.444   2.399   8.435  0.0833  2.7022 -0.3651
  139OSM    C1115159   1.293   2.281   8.347  0.8850  0.8858 -0.0602
  139OSM   H11A15160   1.312   2.198   8.419  0.3645  1.7740  1.1364
  139OSM   H11B15161   1.266   2.229   8.252 -0.9467  0.1848  0.7939
  139OSM      P15162   1.104   2.447   8.302 -0.0720  0.0010  0.1468
  139OSM    O1315163   0.982   2.478   8.379 -0.2674 -0.7860 -0.2021
  139OSM    O1415164   1.189   2.555   8.251 -0.0828 -0.6813 -0.0574
  139OSM    O1115165   1.065   2.351   8.181  0.2545 -0.6186 -0.3095
  139OSM    O1215166   1.186   2.351   8.395  0.0037 -0.0525  0.2724
  139OSM    C1S15167   0.954   2.373   8.095 -0.0738  0.0585 -0.5294
  139OSM    H1S15168   0.874   2.436   8.138  0.6712 -0.1400  1.2382
  139OSM    H1T15169   0.901   2.276   8.086  0.3648 -0.4211  1.5329
  139OSM     NF15170   0.883   2.484   7.882  0.8109  0.0953 -0.4021
  139OSM    HNF15171   0.831   2.419   7.827 -0.2732 -0.2644  0.9579
  139OSM    C2S15172   0.996   2.426   7.954 -0.1264 -0.4028  0.6424
  139OSM    H2S15173   1.070   2.508   7.968 -1.2533  0.5189  1.3378
  139OSM    C3S15174   1.078   2.310   7.887 -0.7614  0.4216  0.0208
  139OSM    H3S15175   1.019   2.217   7.878 -0.1282  0.0065  0.0896
  139OSM     O315176   1.184   2.259   7.975  0.6501 -0.2001 -0.2572
  139OSM    HO315177   1.155   2.287   8.062 -0.7558  0.8159 -1.0182
  139OSM    C4S15178   1.137   2.355   7.754 -0.4763  0.3721  0.6288
  139OSM    H4S15179   1.073   2.335   7.667 -1.2327 -2.3108  1.6879
  139OSM    C5S15180   1.252   2.409   7.723 -0.7972 -0.1753 -0.5225
  139OSM    H5S15181   1.320   2.428   7.807 -1.5041 -0.8004  0.2121
  139OSM    C6S15182   1.302   2.449   7.587 -0.3050 -0.2509 -0.3746
  139OSM    H6S15183   1.401   2.401   7.568 -0.1510 -0.3873  0.6972
  139OSM    H6T15184   1.320   2.559   7.588  0.4287 -0.3355 -1.5009
  139OSM    C7S15185   1.221   2.412   7.469 -0.3218 -0.1206  0.5672
  139OSM    H7S15186   1.115   2.443   7.481 -0.1835  1.0231 -0.8993
  139OSM    H7T15187   1.226   2.301   7.461  1.5986 -0.0155 -0.0694
  139OSM    C8S15188   1.271   2.486   7.343 -0.1615  0.2601  0.3577
  139OSM    H8S15189   1.382   2.480   7.344 -0.2014 -0.8238  2.1410
  139OSM    H8T15190   1.250   2.595   7.354  0.8679  0.8900 -2.7222
  139OSM    C9S15191   1.221   2.415   7.218  0.9442  0.0315 -0.0707
  139OSM    H9S15192   1.120   2.381   7.252  1.4001 -1.7134 -0.3620
  139OSM    H9T15193   1.285   2.325   7.210  1.9220  0.4345  2.3524
  139OSM   C10S15194   1.234   2.500   7.093 -0.4994  0.2477 -0.0371
  139OSM   H10S15195   1.343   2.515   7.077 -0.1501  0.3474  2.0823
  139OSM   H10T15196   1.184   2.598   7.105  2.1657  1.7974 -0.8373
  139OSM   C11S15197   1.192   2.441   6.957 -0.0796 -0.3169 -0.1485
  139OSM   H11S15198   1.091   2.398   6.974  0.0901 -0.4776  0.4998
  139OSM   H11T15199   1.253   2.350   6.940  0.0724 -0.1756 -0.3554
  139OSM   C12S15200   1.188   2.535   6.835 -0.7997  0.0458 -0.4264
  139OSM   H12S15201   1.283   2.593   6.827 -0.5432 -0.3521 -0.3263
  139OSM   H12T15202   1.101   2.602   6.850 -0.2928  0.1001  3.2417
  139OSM   C13S15203   1.174   2.453   6.705 -0.3954 -0.0794 -0.2903
  139OSM   H13S15204   1.080   2.397   6.724  0.2934 -1.3526 -0.5468
  139OSM   H13T15205   1.263   2.388   6.693 -0.1727 -0.2131  1.7911
  139OSM   C14S15206   1.149   2.543   6.582  0.4156 -0.0081 -0.9358
  139OSM   H14S15207   1.234   2.614   6.573  0.9990 -0.6192 -0.3445
  139OSM   H14T15208   1.059   2.608   6.593  1.3566  1.3564 -1.0477
  139OSM   C15S15209   1.138   2.471   6.443 -0.2384 -0.2813 -0.1058
  139OSM   H15S15210   1.037   2.424   6.443 -1.5886  2.4464 -0.6754
  139OSM   H15T15211   1.219   2.396   6.430  1.2614  0.8172  2.2038
  139OSM   C16S15212   1.139   2.564   6.327  0.3623 -0.6471 -0.3305
  139OSM   H16S15213   1.235   2.618   6.342 -0.4725  0.5824  0.7156
  139OSM   H16T15214   1.057   2.638   6.325  1.1445  0.2807  0.8851
  139OSM   C17S15215   1.154   2.500   6.193 -0.1255 -0.5387  0.5022
  139OSM   H17S15216   1.187   2.394   6.206 -1.0570 -0.8143  0.7023
  139OSM   H17T15217   1.225   2.557   6.129 -1.8054 -1.5232 -2.4625
  139OSM   C18S15218   1.025   2.496   6.115 -0.4902  0.0754  0.1345
  139OSM   H18S15219   1.016   2.413   6.042 -0.2532  0.5709 -0.4623
  139OSM   H18T15220   0.994   2.592   6.069 -1.8470 -0.3278  0.1618
  139OSM   H18U15221   0.947   2.473   6.192 -1.8533  1.6045 -0.7378
  139OSM    C1F15222   0.823   2.598   7.911  0.4661 -0.4981 -0.2411
  139OSM     OF15223   0.873   2.696   7.967 -1.0113  1.0872  0.1275
  139OSM    C2F15224   0.678   2.589   7.881 -0.7256 -0.6164  0.2994
  139OSM    H2F15225   0.624   2.524   7.954 -0.4703  1.7803  2.7943
  139OSM    H2G15226   0.665   2.546   7.780 -0.8763 -1.7365  0.7843
  139OSM    C3F15227   0.598   2.727   7.890 -0.5690  0.0925  0.4002
  139OSM    H3F15228   0.655   2.796   7.824  0.0167  2.0760  2.8415
  139OSM    H3G15229   0.596   2.773   7.991  0.9627 -0.7159  0.8269
  139OSM    C4F15230   0.451   2.710   7.845  0.0963 -0.5604 -0.0719
  139OSM    H4F15231   0.397   2.620   7.883  0.5183 -1.2438 -1.0383
  139OSM    H4G15232   0.450   2.691   7.735 -0.2907  2.6995 -0.7306
  139OSM    C5F15233   0.340   2.818   7.860 -0.0459 -0.2513  0.7407
  139OSM    H5F15234   0.316   2.831   7.968 -1.3937 -0.8409  0.5310
  139OSM    H5G15235   0.244   2.781   7.818 -1.4266  3.7248 -0.0700
  139OSM    C6F15236   0.359   2.955   7.794  0.9955 -0.0050 -0.3234
  139OSM    H6F15237   0.445   2.947   7.724  0.5943 -0.4879 -0.7653
  139OSM    H6G15238   0.388   3.031   7.870 -1.3934 -1.6470  2.4791
  139OSM    C7F15239   0.236   3.006   7.710 -0.2358  0.1566 -0.3571
  139OSM    H7F15240   0.165   3.063   7.775  0.7438 -0.7130  1.5720
  139OSM    H7G15241   0.180   2.920   7.668  0.0522 -0.0929 -0.2371
  139OSM    C8F15242   0.289   3.100   7.601 -0.2730 -0.2760  0.5055
  139OSM    H8F15243   0.368   3.045   7.545  0.3231  1.7417 -0.7418
  139OSM    H8G15244   0.347   3.176   7.658  2.3290 -1.2968 -0.5760
  139OSM    C9F15245   0.188   3.153   7.509  0.1954 -0.1452  1.2385
  139OSM    H9F15246   0.085   3.143   7.545 -0.5882  0.5801 -0.6778
  139OSM   C10F15247   0.222   3.196   7.385  0.8667  0.1064 -0.5462
  139OSM   H10F15248   0.135   3.224   7.324 -1.5201  0.2068  2.6279
  139OSM   C11F15249   0.356   3.198   7.323  0.1539 -0.1516 -0.1238
  139OSM   H11F15250   0.421   3.126   7.377 -1.2538 -1.7145 -0.4449
  139OSM   H11G15251   0.407   3.297   7.334  0.5986 -0.3498 -0.3756
  139OSM   C12F15252   0.366   3.154   7.174  0.2317  0.6104  1.0052
  139OSM   H12F15253   0.460   3.190   7.126  0.7459 -0.8910  0.8194
  139OSM   H12G15254   0.288   3.208   7.117  1.0106  0.6600 -0.0571
  139OSM   C13F15255   0.340   2.999   7.159 -0.3861  0.0864  0.0488
  139OSM   H13F15256   0.264   2.959   7.230 -0.9424 -0.9229 -1.0785
  139OSM   H13G15257   0.442   2.957   7.157  0.3597  1.7990  0.3242
  139OSM   C14F15258   0.279   2.977   7.025  0.2114  0.3199  0.2435
  139OSM   H14F15259   0.192   3.044   7.011  0.9207  1.1074 -0.6179
  139OSM   H14G15260   0.236   2.874   7.017 -0.2674  0.4867  0.6516
  139OSM   C15F15261   0.377   3.001   6.905  0.9500  0.3128  0.3851
  139OSM   H15F15262   0.470   2.945   6.926 -0.0307 -1.7030 -0.4223
  139OSM   H15G15263   0.405   3.108   6.900  1.6755  0.2066  1.6292
  139OSM   C16F15264   0.304   2.974   6.776 -0.7668 -0.7941  0.1404
  139OSM   H16F15265   0.239   2.885   6.791 -0.1477 -1.1715  0.6439
  139OSM   H16G15266   0.378   2.950   6.697 -0.8072  0.5063 -0.3142
  139OSM   C17F15267   0.227   3.096   6.724 -1.1554  0.2375  0.0877
  139OSM   H17F15268   0.290   3.186   6.733 -0.4445 -0.2738  0.2974
  139OSM   H17G15269   0.134   3.116   6.781 -0.4223 -0.2724  1.5200
  139OSM   C18F15270   0.192   3.084   6.576 -0.0894  0.1233 -0.5370
  139OSM   H18F15271   0.171   2.978   6.552 -2.0902  0.3965 -0.1819
  139OSM   H18G15272   0.277   3.124   6.518  0.5707 -1.7790 -0.9499
  139OSM   H18H15273   0.097   3.138   6.554  0.4866 -0.0601 -3.9270
  140OSM      N15274   0.915   2.969   8.223  0.1976 -0.0275  0.3181
  140OSM    C1515275   1.036   2.887   8.248  0.2921 -0.4250  0.0454
  140OSM   H15A15276   1.019   2.815   8.326 -2.7156 -0.4252 -0.4893
  140OSM   H15B15277   1.120   2.947   8.280 -1.7943  1.7033  1.8683
  140OSM   H15C15278   1.074   2.834   8.161 -2.1497 -0.0149 -1.3751
  140OSM    C1415279   0.798   2.883   8.181 -0.5955 -0.4687 -0.1600
  140OSM   H14A15280   0.765   2.832   8.270  1.2254  0.6328  1.2352
  140OSM   H14B15281   0.832   2.819   8.101  0.1460 -0.2347 -0.0404
  140OSM   H14C15282   0.722   2.944   8.135  2.9657  2.4496 -2.8672
  140OSM    C1315283   0.886   3.055   8.351 -0.9338 -0.2378 -0.0156
  140OSM   H13A15284   0.872   2.996   8.441 -0.5331  0.4619  0.5193
  140OSM   H13B15285   0.798   3.111   8.325 -0.1332  0.9433 -0.2423
  140OSM   H13C15286   0.963   3.130   8.354  0.3110 -1.4251 -0.8249
  140OSM    C1215287   0.950   3.066   8.109  0.4287  0.0841  0.3382
  140OSM   H12A15288   0.992   3.007   8.028  1.1135  0.5395  0.3488
  140OSM   H12B15289   1.025   3.130   8.153 -0.8258  2.9159 -1.3737
  140OSM    C1115290   0.837   3.163   8.057 -0.0518  0.2039  0.3098
  140OSM   H11A15291   0.763   3.101   8.001 -0.0815 -1.2462  1.8595
  140OSM   H11B15292   0.886   3.241   7.995  0.7025 -0.9522 -0.6099
  140OSM      P15293   0.620   3.265   8.152 -0.3184  0.5458 -0.3337
  140OSM    O1315294   0.544   3.138   8.135  0.1159 -0.2026 -0.3308
  140OSM    O1415295   0.588   3.346   8.271 -0.1502  0.1820 -0.8413
  140OSM    O1115296   0.610   3.352   8.020  0.2349 -0.0909  0.2059
  140OSM    O1215297   0.772   3.229   8.168  0.0552  0.0086 -0.4505
  140OSM    C1S15298   0.486   3.375   7.946 -0.4027 -0.0897  0.3279
  140OSM    H1S15299   0.426   3.453   7.998 -0.3255 -0.8993  1.6698
  140OSM    H1T15300   0.423   3.284   7.953 -2.6921  1.4532  0.8349
  140OSM     NF15301   0.375   3.447   7.733 -0.3480 -0.1751 -0.4419
  140OSM    HNF15302   0.349   3.382   7.661  1.1790 -1.1585 -0.1714
  140OSM    C2S15303   0.503   3.422   7.800 -0.0844  0.8525 -0.0967
  140OSM    H2S15304   0.557   3.519   7.794 -0.0907  0.7710 -1.7448
  140OSM    C3S15305   0.593   3.323   7.720  0.1067  0.8570  0.8812
  140OSM    H3S15306   0.540   3.226   7.719 -1.2388  1.5028  2.8379
  140OSM     O315307   0.721   3.310   7.774 -0.2847  0.1375 -0.4628
  140OSM    HO315308   0.708   3.326   7.868 -1.7630  1.6906 -0.8702
  140OSM    C4S15309   0.611   3.380   7.578 -0.4869  1.4906  0.1490
  140OSM    H4S15310   0.534   3.363   7.501  1.6280  1.7268 -2.1388
  140OSM    C5S15311   0.720   3.455   7.537  0.0917 -0.7131  0.3418
  140OSM    H5S15312   0.808   3.466   7.602 -0.6689  1.0850  1.1385
  140OSM    C6S15313   0.735   3.511   7.397 -1.4090 -0.0356 -0.5665
  140OSM    H6S15314   0.813   3.453   7.342 -0.3071 -0.6150  1.5184
  140OSM    H6T15315   0.769   3.616   7.402  1.3639 -0.9199  1.2849
  140OSM    C7S15316   0.617   3.498   7.300 -0.1395 -0.6789  0.5404
  140OSM    H7S15317   0.528   3.551   7.341  1.1992  1.5349  0.7439
  140OSM    H7T15318   0.593   3.389   7.293 -1.1736 -0.4612  0.4562
  140OSM    C8S15319   0.645   3.539   7.152  0.2104 -0.4787  0.3800
  140OSM    H8S15320   0.756   3.527   7.146 -0.1348 -4.0046 -2.2127
  140OSM    H8T15321   0.616   3.645   7.135 -0.5353 -0.7718 -0.2257
  140OSM    C9S15322   0.594   3.434   7.051  0.3640 -0.5717 -0.4969
  140OSM    H9S15323   0.483   3.430   7.054  0.2561  1.3475 -0.8060
  140OSM    H9T15324   0.645   3.340   7.082 -1.9637 -1.0788  2.2329
  140OSM   C10S15325   0.656   3.452   6.906  0.0823  0.1280  0.3032
  140OSM   H10S15326   0.765   3.457   6.928  0.1111  0.2961  0.1263
  140OSM   H10T15327   0.616   3.549   6.871 -3.9641 -1.8191 -1.2191
  140OSM   C11S15328   0.608   3.352   6.794  0.4424 -0.0179  0.6717
  140OSM   H11S15329   0.506   3.317   6.822 -0.7062  1.6218 -1.1566
  140OSM   H11T15330   0.670   3.260   6.795  2.0404  0.8483 -2.5265
  140OSM   C12S15331   0.606   3.416   6.661  0.8475  0.5637  0.1973
  140OSM   H12S15332   0.700   3.474   6.650  0.1254  1.4979 -1.3130
  140OSM   H12T15333   0.516   3.481   6.654 -1.3781 -2.2685  0.5259
  140OSM   C13S15334   0.576   3.321   6.535 -0.2103  0.0420 -0.2642
  140OSM   H13S15335   0.468   3.339   6.517 -0.2846  1.4135  1.2848
  140OSM   H13T15336   0.610   3.218   6.557  0.3568  0.4751  0.9967
  140OSM   C14S15337   0.655   3.361   6.411 -0.1770 -0.3850 -0.0226
  140OSM   H14S15338   0.762   3.341   6.430 -0.3469 -0.5626  0.7856
  140OSM   H14T15339   0.648   3.471   6.399  1.5329 -0.3996 -1.5722
  140OSM   C15S15340   0.619   3.283   6.287 -0.1699 -0.0821  0.0434
  140OSM   H15S15341   0.511   3.285   6.262 -0.5657 -2.5347  1.3019
  140OSM   H15T15342   0.649   3.179   6.312 -1.5192 -0.9370 -1.6917
  140OSM   C16S15343   0.706   3.336   6.168 -0.3023  0.0519 -0.4482
  140OSM   H16S15344   0.811   3.339   6.203 -1.5900 -0.3675  4.0648
  140OSM   H16T15345   0.672   3.442   6.160  0.2273  0.4044  1.4322
  140OSM   C17S15346   0.681   3.264   6.034 -0.4058  0.3309  0.5640
  140OSM   H17S15347   0.573   3.276   6.012 -0.1349  1.1090 -0.4375
  140OSM   H17T15348   0.707   3.158   6.054 -0.3505  0.4910  1.3827
  140OSM   C18S15349   0.755   3.325   5.910  0.6887 -0.4283 -0.3943
  140OSM   H18S15350   0.854   3.284   5.882  1.5113 -0.6085  2.5327
  140OSM   H18T15351   0.761   3.436   5.915  1.2501 -0.4287 -0.8910
  140OSM   H18U15352   0.694   3.318   5.817 -1.9605 -0.9105  1.2659
  140OSM    C1F15353   0.298   3.547   7.762 -0.0267  0.0634 -0.1520
  140OSM     OF15354   0.333   3.638   7.833 -0.5339  0.5763  0.2045
  140OSM    C2F15355   0.159   3.534   7.706 -0.3325 -0.2557  0.3941
  140OSM    H2F15356   0.086   3.546   7.789  1.3720 -1.6530  2.1848
  140OSM    H2G15357   0.149   3.429   7.672  2.3324 -0.1633 -0.9596
  140OSM    C3F15358   0.127   3.628   7.588 -0.5239  0.7490  0.5385
  140OSM    H3F15359   0.119   3.733   7.622  1.1337  0.6625  1.2672
  140OSM    H3G15360   0.019   3.613   7.565 -0.6965  2.6195 -0.0323
  140OSM    C4F15361   0.209   3.596   7.460  0.7002 -0.0318 -0.0162
  140OSM    H4F15362   0.209   3.486   7.443 -0.9134  0.0319 -0.5426
  140OSM    H4G15363   0.313   3.636   7.470 -0.5388  2.9319  2.4677
  140OSM    C5F15364   0.159   3.671   7.332  0.3746 -0.0828 -0.2017
  140OSM    H5F15365   0.154   3.781   7.346  0.7013 -0.2507  1.4054
  140OSM    H5G15366   0.053   3.647   7.307  0.0386  1.5194 -0.4213
  140OSM    C6F15367   0.237   3.654   7.199  0.1559 -0.0981 -0.3477
  140OSM    H6F15368   0.245   3.548   7.166 -0.3713  0.1053 -1.1481
  140OSM    H6G15369   0.335   3.705   7.212  0.6107 -0.6785 -1.3405
  140OSM    C7F15370   0.148   3.696   7.082 -0.1199 -0.3071 -0.4583
  140OSM    H7F15371   0.085   3.780   7.118 -1.8832 -1.8224  0.1256
  140OSM    H7G15372   0.078   3.612   7.066  0.1243 -1.1648  2.4113
  140OSM    C8F15373   0.220   3.727   6.947 -0.1288  0.2593  0.1474
  140OSM    H8F15374   0.282   3.818   6.959 -0.1500  0.3205 -0.1946
  140OSM    H8G15375   0.144   3.760   6.872 -0.5500 -1.3310 -0.1661
  140OSM    C9F15376   0.302   3.615   6.889  0.2360  0.0230  0.4635
  140OSM    H9F15377   0.410   3.619   6.910  0.2790  3.1973  0.1951
  140OSM   C10F15378   0.251   3.533   6.800 -0.0766  0.2471  0.3444
  140OSM   H10F15379   0.315   3.461   6.746 -3.3210 -1.7512 -1.1460
  140OSM   C11F15380   0.107   3.533   6.758 -0.1498  0.4023 -1.4593
  140OSM   H11F15381   0.079   3.636   6.730  1.2441  0.8285 -1.3762
  140OSM   H11G15382   0.045   3.503   6.846  2.0923 -1.8066 -0.4853
  140OSM   C12F15383   0.079   3.456   6.622  0.6780 -0.4125  0.1193
  140OSM   H12F15384  -0.030   3.469   6.606  0.3694 -1.9981  0.7160
  140OSM   H12G15385   0.098   3.348   6.640 -2.1183 -0.6561  2.4948
  140OSM   C13F15386   0.145   3.518   6.504 -0.1883  0.0363 -0.0564
  140OSM   H13F15387   0.254   3.497   6.497  0.0935  1.2409  0.4729
  140OSM   H13G15388   0.145   3.629   6.510 -2.6971  0.0976 -0.2461
  140OSM   C14F15389   0.078   3.483   6.366 -0.4796 -0.3842 -0.1140
  140OSM   H14F15390   0.102   3.551   6.282 -3.8911 -0.5014 -1.3372
  140OSM   H14G15391  -0.033   3.493   6.365 -0.4164  0.5702  0.4875
  140OSM   C15F15392   0.131   3.351   6.321 -0.6116 -0.1721  0.4007
  140OSM   H15F15393   0.096   3.258   6.369 -0.5335 -0.1976  0.4088
  140OSM   H15G15394   0.240   3.336   6.340 -0.5130  0.1920  0.1386
  140OSM   C16F15395   0.116   3.328   6.173 -0.6339 -0.4540 -1.0786
  140OSM   H16F15396   0.150   3.421   6.122  0.6590  0.6922  1.6491
  140OSM   H16G15397   0.008   3.329   6.147 -0.3021  0.6893 -2.5330
  140OSM   C17F15398   0.193   3.210   6.114 -0.1901 -0.1562 -0.1009
  140OSM   H17F15399   0.144   3.115   6.143 -2.2207  0.7401 -0.4421
  140OSM   H17G15400   0.299   3.205   6.150  0.6493  1.1037 -2.2222
  140OSM   C18F15401   0.206   3.217   5.958 -0.6932  0.1248 -0.0182
  140OSM   H18F15402   0.260   3.126   5.925  1.4948  1.6564 -0.9225
  140OSM   H18G15403   0.265   3.306   5.927 -1.2979  0.2882 -0.7101
  140OSM   H18H15404   0.108   3.214   5.906  0.9132  0.5382 -3.3254
  141OSM      N15405   5.404   4.265   8.241 -0.2301 -0.5833  0.5931
  141OSM    C1515406   5.482   4.312   8.362 -0.0910 -0.1567  0.3034
  141OSM   H15A15407   5.573   4.359   8.329  0.0117 -0.0817  0.6809
  141OSM   H15B15408   5.510   4.230   8.428  1.3048  0.4005  0.4415
  141OSM   H15C15409   5.434   4.379   8.432  1.0689  1.0035  0.0090
  141OSM    C1415410   5.278   4.216   8.286  0.6703  0.1964 -0.0744
  141OSM   H14A15411   5.239   4.277   8.366 -0.3138 -0.1625 -0.2704
  141OSM   H14B15412   5.288   4.119   8.332  1.5402  0.1711 -0.2893
  141OSM   H14C15413   5.207   4.207   8.206  0.9239  1.8722 -0.5200
  141OSM    C1315414   5.382   4.381   8.152 -0.9694  0.1041 -0.8440
  141OSM   H13A15415   5.334   4.332   8.069 -0.6053 -3.8443  1.0242
  141OSM   H13B15416   5.460   4.445   8.113 -0.9166 -0.3438 -1.4792
  141OSM   H13C15417   5.315   4.440   8.213  0.8680 -1.4640  3.0539
  141OSM    C1215418   5.487   4.167   8.177 -0.2209 -0.3565 -0.3546
  141OSM   H12A15419   5.529   4.100   8.251  4.2455  1.8624 -0.6157
  141OSM   H12B15420   5.569   4.210   8.122 -0.2513  0.7001  0.3951
  141OSM    C1115421   5.423   4.074   8.070  0.3329 -0.5114  0.2757
  141OSM   H11A15422   5.492   4.008   8.014 -1.8085 -2.0525 -0.7143
  141OSM   H11B15423   5.391   4.132   7.982  1.0491 -1.5458 -0.6974
  141OSM      P15424   5.340   3.863   8.210 -0.0996 -0.4769 -0.3032
  141OSM    O1315425   5.461   3.871   8.296 -0.1298 -0.4568  0.3194
  141OSM    O1415426   5.210   3.827   8.276 -0.3085  0.5866  0.3703
  141OSM    O1115427   5.366   3.746   8.105  0.6665 -0.5858 -0.1929
  141OSM    O1215428   5.315   3.993   8.118 -0.5274 -0.0328 -0.2614
  141OSM    C1S15429   5.262   3.727   8.007 -0.2166 -0.6137 -0.0362
  141OSM    H1S15430   5.176   3.796   8.018  0.2101 -0.1229  0.3156
  141OSM    H1T15431   5.227   3.622   8.001 -1.2815 -0.2548 -0.3065
  141OSM     NF15432   5.220   3.717   7.755 -0.5451 -0.2928  0.6016
  141OSM    HNF15433   5.232   3.632   7.704  0.0177 -1.4833  2.6155
  141OSM    C2S15434   5.318   3.754   7.866 -0.0327 -0.1693  0.3185
  141OSM    H2S15435   5.322   3.865   7.863 -0.6948 -0.1397  0.3392
  141OSM    C3S15436   5.463   3.693   7.846  0.5366 -1.1989 -0.1287
  141OSM    H3S15437   5.450   3.584   7.863 -0.5969 -1.0022  0.3347
  141OSM     O315438   5.558   3.731   7.945 -0.0708  0.0315  0.1807
  141OSM    HO315439   5.512   3.720   8.029 -1.6283 -1.4519 -0.7919
  141OSM    C4S15440   5.512   3.738   7.715  0.8748  0.0409  0.3300
  141OSM    H4S15441   5.494   3.658   7.642  1.1884  1.0168 -0.8490
  141OSM    C5S15442   5.574   3.855   7.674 -0.8182 -0.0981  0.6810
  141OSM    H5S15443   5.584   3.925   7.758 -2.1192 -0.9703  1.6146
  141OSM    C6S15444   5.604   3.888   7.531 -0.8471  0.2005  0.3253
  141OSM    H6S15445   5.711   3.903   7.509 -1.0225 -0.5873 -1.2023
  141OSM    H6T15446   5.564   3.985   7.496  1.8405  0.6485 -1.8064
  141OSM    C7S15447   5.544   3.788   7.425 -0.2437  0.3366 -0.2179
  141OSM    H7S15448   5.434   3.805   7.427  0.1564  4.0832 -1.9458
  141OSM    H7T15449   5.580   3.685   7.444  2.1811  0.9858 -0.8384
  141OSM    C8S15450   5.587   3.815   7.278 -0.3857 -0.0508 -0.3635
  141OSM    H8S15451   5.688   3.770   7.265 -0.0271  0.4759  0.5037
  141OSM    H8T15452   5.598   3.925   7.269 -0.2723  0.0235  0.5907
  141OSM    C9S15453   5.477   3.760   7.180 -0.1818 -0.4691 -0.4855
  141OSM    H9S15454   5.399   3.839   7.179 -0.5850 -0.8001  1.2409
  141OSM    H9T15455   5.445   3.662   7.220 -0.6632 -0.5298 -1.0236
  141OSM   C10S15456   5.523   3.749   7.036 -0.4316  0.2758  0.6898
  141OSM   H10S15457   5.551   3.850   6.999 -4.9486  1.6542  0.3730
  141OSM   H10T15458   5.433   3.726   6.975  0.5593 -1.7686 -0.0816
  141OSM   C11S15459   5.631   3.642   7.008  0.3817 -0.2371  0.0007
  141OSM   H11S15460   5.603   3.536   7.027 -0.1970  0.0192  0.6230
  141OSM   H11T15461   5.712   3.660   7.082 -0.9729 -1.7595  1.9561
  141OSM   C12S15462   5.676   3.650   6.859 -0.8379 -0.7597  0.5511
  141OSM   H12S15463   5.776   3.602   6.848  0.7597  2.0243  1.7520
  141OSM   H12T15464   5.694   3.758   6.842  0.2566 -0.8310  1.1333
  141OSM   C13S15465   5.570   3.594   6.756  0.0537 -0.1552 -0.1029
  141OSM   H13S15466   5.466   3.628   6.774 -0.8644 -1.8381 -1.8238
  141OSM   H13T15467   5.577   3.486   6.781  1.6085  0.2096  1.1760
  141OSM   C14S15468   5.595   3.603   6.600  0.9212 -0.4555  0.3203
  141OSM   H14S15469   5.562   3.509   6.550 -0.4700  1.4665 -2.7181
  141OSM   H14T15470   5.704   3.622   6.590  1.1469 -0.1923  2.8439
  141OSM   C15S15471   5.510   3.710   6.533 -0.5359  1.3357  0.8716
  141OSM   H15S15472   5.531   3.809   6.578  0.3390 -0.0125  3.6739
  141OSM   H15T15473   5.406   3.672   6.539 -0.0286  0.0428  2.1761
  141OSM   C16S15474   5.546   3.742   6.385 -0.9699  1.4688 -0.3583
  141OSM   H16S15475   5.514   3.655   6.324  0.2113  0.7762 -0.0364
  141OSM   H16T15476   5.656   3.759   6.391 -0.9209  0.7426  1.1829
  141OSM   C17S15477   5.482   3.866   6.342  0.6441  0.6701 -0.4999
  141OSM   H17S15478   5.503   3.945   6.418 -0.5513 -0.4747  1.0842
  141OSM   H17T15479   5.372   3.865   6.329  0.3403  2.2632  1.4454
  141OSM   C18S15480   5.546   3.920   6.217 -0.3610  0.3887 -0.4395
  141OSM   H18S15481   5.564   3.849   6.133 -0.7289 -1.1464  0.7514
  141OSM   H18T15482   5.642   3.965   6.250 -1.2158  1.2323  0.9924
  141OSM   H18U15483   5.478   4.001   6.183  0.7630  1.0393 -1.2348
  141OSM    C1F15484   5.098   3.761   7.750 -0.3244 -0.8680 -0.1740
  141OSM     OF15485   5.056   3.846   7.831 -0.4246  0.3421 -0.0521
  141OSM    C2F15486   5.002   3.710   7.653 -0.2084 -0.3842  0.1505
  141OSM    H2F15487   4.921   3.648   7.696 -1.1785  0.5670 -0.2743
  141OSM    H2G15488   5.045   3.642   7.576  0.5980  0.5508 -0.2571
  141OSM    C3F15489   4.928   3.824   7.575 -0.5356 -1.2144 -0.3540
  141OSM    H3F15490   4.890   3.908   7.636 -0.3619 -0.5127 -1.1982
  141OSM    H3G15491   4.841   3.786   7.517 -0.7827 -0.1005 -0.7241
  141OSM    C4F15492   5.016   3.877   7.460 -0.3707 -0.0791 -0.6685
  141OSM    H4F15493   5.123   3.875   7.493 -0.3347 -0.2720 -0.7963
  141OSM    H4G15494   4.993   3.985   7.446 -0.2911  0.2254  1.2535
  141OSM    C5F15495   5.002   3.791   7.328  0.1064 -0.0745  0.9224
  141OSM    H5F15496   4.894   3.788   7.300  0.1073  1.8872  0.5305
  141OSM    H5G15497   5.041   3.688   7.339 -0.7425 -0.6984 -1.3594
  141OSM    C6F15498   5.079   3.855   7.205  0.1985  0.4699 -0.8373
  141OSM    H6F15499   5.181   3.869   7.247 -1.0095  3.0497  1.4969
  141OSM    H6G15500   5.039   3.958   7.195  1.1314  1.0447  0.8489
  141OSM    C7F15501   5.084   3.764   7.079 -0.1482  0.0277 -0.3504
  141OSM    H7F15502   4.984   3.724   7.053 -0.8717  1.1458  0.5985
  141OSM    H7G15503   5.146   3.673   7.093  0.5269  0.6502  0.9197
  141OSM    C8F15504   5.141   3.833   6.954  0.2279 -0.5382  0.2787
  141OSM    H8F15505   5.168   3.751   6.884 -3.3256  0.2949 -2.3432
  141OSM    H8G15506   5.238   3.878   6.985  0.1230 -0.5468  0.6241
  141OSM    C9F15507   5.053   3.938   6.892  0.3780  0.0177 -0.0040
  141OSM    H9F15508   5.082   4.044   6.902  0.6204  0.2510 -2.5940
  141OSM   C10F15509   4.952   3.910   6.801  0.0285 -0.1752 -0.2830
  141OSM   H10F15510   4.898   3.997   6.760  0.1272 -1.0260 -2.3467
  141OSM   C11F15511   4.902   3.776   6.753 -0.0505  0.5116  0.5580
  141OSM   H11F15512   4.797   3.783   6.715  0.1996 -2.1796 -0.9128
  141OSM   H11G15513   4.906   3.703   6.837 -0.4097  0.1965  0.3044
  141OSM   C12F15514   4.992   3.716   6.642  0.3889  0.6397  0.1083
  141OSM   H12F15515   4.930   3.633   6.603 -1.0879  1.0032  1.6083
  141OSM   H12G15516   5.087   3.686   6.690  0.2446  2.0787  1.3602
  141OSM   C13F15517   5.033   3.815   6.537  0.2356  0.6637  0.8228
  141OSM   H13F15518   5.096   3.900   6.570  0.4181  2.3589 -3.2606
  141OSM   H13G15519   4.941   3.861   6.494 -0.5048  0.9647  2.6378
  141OSM   C14F15520   5.110   3.743   6.422  0.8732  0.3533 -0.3916
  141OSM   H14F15521   5.174   3.671   6.478 -1.3404 -0.3990  1.2968
  141OSM   H14G15522   5.170   3.821   6.371  0.3237  0.7136 -0.4832
  141OSM   C15F15523   5.029   3.673   6.315 -0.2694  0.0325  0.1359
  141OSM   H15F15524   4.922   3.667   6.347 -0.4635  0.3526 -0.4364
  141OSM   H15G15525   5.071   3.573   6.291 -1.2322 -0.1586 -0.8312
  141OSM   C16F15526   5.019   3.751   6.180 -0.2675 -0.1888  0.5635
  141OSM   H16F15527   5.109   3.800   6.138 -0.9204  0.6769  0.1377
  141OSM   H16G15528   4.946   3.835   6.186 -1.8544 -1.2495 -2.1832
  141OSM   C17F15529   4.965   3.660   6.070  0.8343  0.1151  0.2412
  141OSM   H17F15530   4.865   3.619   6.096  1.1849 -0.7882  0.2021
  141OSM   H17G15531   5.029   3.570   6.068  0.8438  0.0991 -2.2801
  141OSM   C18F15532   4.980   3.719   5.925  0.6303 -0.6202  0.3524
  141OSM   H18F15533   5.082   3.748   5.891 -0.9410  2.1804 -2.5629
  141OSM   H18G15534   4.907   3.803   5.924  0.8943 -0.3953 -0.1157
  141OSM   H18H15535   4.927   3.652   5.854  1.0271  0.8386 -1.4048
  142OSM      N15536   1.555   1.408   8.692 -0.7778  0.9745  0.5510
  142OSM    C1515537   1.416   1.429   8.665  0.3191  0.0851  0.2707
  142OSM   H15A15538   1.348   1.406   8.746 -0.0918 -0.1881 -0.1464
  142OSM   H15B15539   1.377   1.362   8.589 -0.8997  0.6361  0.3868
  142OSM   H15C15540   1.393   1.531   8.638 -1.3534 -0.0504  1.0136
  142OSM    C1415541   1.609   1.528   8.775  0.4292 -0.4190  0.8527
  142OSM   H14A15542   1.628   1.615   8.714 -0.2197 -0.0191  1.2070
  142OSM   H14B15543   1.694   1.501   8.836 -0.3843  3.1924  3.9545
  142OSM   H14C15544   1.536   1.550   8.852  0.8796 -1.1602  1.5045
  142OSM    C1315545   1.545   1.293   8.777 -0.1968 -0.7726 -0.3867
  142OSM   H13A15546   1.463   1.317   8.843 -0.6380  1.4142 -1.6118
  142OSM   H13B15547   1.636   1.286   8.835  0.3539  4.2183 -0.2404
  142OSM   H13C15548   1.520   1.207   8.716 -0.0881  0.3489 -2.0758
  142OSM    C1215549   1.644   1.392   8.570 -0.6499  0.0537  0.2030
  142OSM   H12A15550   1.627   1.294   8.528  0.9107 -0.9848  1.8388
  142OSM   H12B15551   1.745   1.398   8.608 -0.9368 -0.3178  1.0582
  142OSM    C1115552   1.639   1.502   8.461  0.8952  0.2433  0.3525
  142OSM   H11A15553   1.539   1.503   8.412  0.7817 -2.1554  0.4213
  142OSM   H11B15554   1.712   1.478   8.381 -0.6185  0.8976 -1.3013
  142OSM      P15555   1.803   1.720   8.466  0.1785 -0.2859  0.6917
  142OSM    O1315556   1.791   1.860   8.512 -0.1665 -0.0460  0.0936
  142OSM    O1415557   1.924   1.645   8.512  0.2544 -0.8024  0.0452
  142OSM    O1115558   1.801   1.724   8.308  0.0965  0.2653 -0.5559
  142OSM    O1215559   1.668   1.631   8.511 -0.0827 -0.7131  0.6912
  142OSM    C1S15560   1.686   1.762   8.234 -0.3472 -0.4132  0.2475
  142OSM    H1S15561   1.666   1.870   8.246  1.1550 -0.1265  0.4231
  142OSM    H1T15562   1.595   1.705   8.263  0.6635 -1.0438  2.4591
  142OSM     NF15563   1.605   1.796   8.011  0.0215 -0.3065  0.3694
  142OSM    HNF15564   1.538   1.734   7.973  0.4346  0.0550 -1.0165
  142OSM    C2S15565   1.720   1.743   8.082 -0.6496  0.0495  0.7569
  142OSM    H2S15566   1.807   1.808   8.057  0.8121 -1.3479  2.0039
  142OSM    C3S15567   1.744   1.596   8.044  0.6257  0.2252  0.3230
  142OSM    H3S15568   1.650   1.543   8.071  0.1876  1.2557  0.8652
  142OSM     O315569   1.850   1.529   8.115 -0.4556 -0.2964  0.0319
  142OSM    HO315570   1.892   1.598   8.167  3.0146 -0.7705 -1.8041
  142OSM    C4S15571   1.765   1.584   7.895  0.0306 -0.3634 -0.1138
  142OSM    H4S15572   1.830   1.655   7.842 -1.3842 -0.3462 -1.9421
  142OSM    C5S15573   1.695   1.492   7.826  0.1036  0.7653  0.6940
  142OSM    H5S15574   1.626   1.431   7.887  1.5316  1.1876  2.8349
  142OSM    C6S15575   1.690   1.469   7.674  0.0582 -0.8204  0.5205
  142OSM    H6S15576   1.599   1.517   7.630  0.5513 -1.2173 -0.9846
  142OSM    H6T15577   1.677   1.360   7.656  0.2031 -0.4184 -2.4759
  142OSM    C7S15578   1.800   1.533   7.581  0.4753 -0.1322  0.1105
  142OSM    H7S15579   1.906   1.507   7.601  0.0160 -2.9303 -0.6860
  142OSM    H7T15580   1.788   1.641   7.606  1.6222  0.0018  0.1179
  142OSM    C8S15581   1.780   1.511   7.430  0.5764 -0.1013 -0.1866
  142OSM    H8S15582   1.672   1.496   7.409  0.7258 -2.0026  0.1791
  142OSM    H8T15583   1.820   1.410   7.404  0.5442  0.5679 -3.1943
  142OSM    C9S15584   1.843   1.627   7.346 -0.0840 -0.8564 -0.1516
  142OSM    H9S15585   1.950   1.638   7.376 -0.0459 -0.5178 -0.4013
  142OSM    H9T15586   1.782   1.715   7.375 -0.4938 -1.6141  1.3974
  142OSM   C10S15587   1.846   1.603   7.195 -0.7161 -0.7814 -0.5760
  142OSM   H10S15588   1.742   1.577   7.164 -0.9625  1.1269 -1.5519
  142OSM   H10T15589   1.917   1.531   7.149 -0.2318  0.4541 -1.8539
  142OSM   C11S15590   1.881   1.737   7.128 -0.0434 -0.4144 -0.3424
  142OSM   H11S15591   1.980   1.759   7.174 -0.8213  2.0315  0.3271
  142OSM   H11T15592   1.806   1.818   7.144 -0.7968 -0.8721 -1.4338
  142OSM   C12S15593   1.903   1.716   6.974 -0.4618  0.0313  0.0304
  142OSM   H12S15594   1.804   1.708   6.924 -0.7734  1.3713  0.3938
  142OSM   H12T15595   1.966   1.625   6.969  0.8449  0.5355  3.9368
  142OSM   C13S15596   1.983   1.830   6.915  0.1661  0.4336 -0.2739
  142OSM   H13S15597   2.079   1.842   6.971  1.0606 -0.4635 -1.5754
  142OSM   H13T15598   1.918   1.920   6.928 -1.1821 -0.1262 -2.6318
  142OSM   C14S15599   2.015   1.827   6.765  0.5654 -0.5713  0.3800
  142OSM   H14S15600   1.919   1.842   6.711  0.5626 -2.7154 -0.3125
  142OSM   H14T15601   2.047   1.724   6.742  4.1568  0.1994  1.3535
  142OSM   C15S15602   2.131   1.927   6.718 -0.4208  0.7681 -0.0228
  142OSM   H15S15603   2.236   1.895   6.728 -0.8110 -0.3037  0.8254
  142OSM   H15T15604   2.129   2.006   6.796  0.2396  0.1814  0.6042
  142OSM   C16S15605   2.102   1.994   6.583  0.0977 -0.6137 -0.3494
  142OSM   H16S15606   2.091   1.925   6.497 -0.6869  0.3080 -1.0075
  142OSM   H16T15607   2.187   2.063   6.561 -0.3797  0.2704  0.5056
  142OSM   C17S15608   1.978   2.087   6.578  0.1386 -0.1363 -0.7882
  142OSM   H17S15609   2.007   2.172   6.643  0.8947  1.0895 -2.6667
  142OSM   H17T15610   1.883   2.042   6.614  0.7130  0.6246  1.9182
  142OSM   C18S15611   1.953   2.131   6.436 -0.5707 -0.6736 -0.2275
  142OSM   H18S15612   1.947   2.043   6.369 -0.0923 -1.7950  1.1568
  142OSM   H18T15613   2.034   2.196   6.396 -1.3645 -0.1624 -1.0250
  142OSM   H18U15614   1.858   2.187   6.425  1.0278  2.4584  0.6748
  142OSM    C1F15615   1.581   1.928   7.997  0.0843  1.1179 -0.1794
  142OSM     OF15616   1.658   2.008   8.045  0.3299  0.3411 -0.2130
  142OSM    C2F15617   1.456   1.965   7.927  0.1974  0.0664 -0.5404
  142OSM    H2F15618   1.381   2.002   8.000  0.6507 -0.1154  0.0288
  142OSM    H2G15619   1.420   1.870   7.881  0.7411 -0.6196  0.4062
  142OSM    C3F15620   1.469   2.081   7.825 -0.3549  0.2583  0.6428
  142OSM    H3F15621   1.531   2.163   7.866  2.6725 -0.7627 -1.4614
  142OSM    H3G15622   1.370   2.125   7.800 -0.1132 -0.3402 -1.6349
  142OSM    C4F15623   1.538   2.056   7.684 -0.2563  1.0025  0.3911
  142OSM    H4F15624   1.485   1.963   7.655 -0.4484  0.7589  1.4503
  142OSM    H4G15625   1.647   2.035   7.690 -0.0017  2.2268  0.4320
  142OSM    C5F15626   1.516   2.160   7.569 -0.6257 -0.4634  0.8843
  142OSM    H5F15627   1.588   2.245   7.570  1.5173 -2.1820 -0.3548
  142OSM    H5G15628   1.416   2.209   7.565 -0.3550  0.0152 -0.5758
  142OSM    C6F15629   1.549   2.110   7.427  0.2370 -0.2973 -0.3780
  142OSM    H6F15630   1.527   2.001   7.427  1.0766 -0.4856  0.6074
  142OSM    H6G15631   1.658   2.119   7.409  0.1009 -0.8383 -1.5602
  142OSM    C7F15632   1.466   2.169   7.314 -0.1946  0.0079 -0.7789
  142OSM    H7F15633   1.483   2.278   7.326  1.2474 -0.2126 -0.6850
  142OSM    H7G15634   1.360   2.135   7.322 -0.9128  1.9645 -1.5651
  142OSM    C8F15635   1.518   2.134   7.173  0.1938  0.0102 -0.2701
  142OSM    H8F15636   1.625   2.162   7.171  0.4588 -0.5887  2.2608
  142OSM    H8G15637   1.463   2.198   7.101 -0.1813 -0.4621 -0.4083
  142OSM    C9F15638   1.500   1.985   7.138 -0.0495 -0.3864  0.1738
  142OSM    H9F15639   1.428   1.944   7.212 -2.2418  0.6712 -1.2648
  142OSM   C10F15640   1.545   1.916   7.030  0.1469 -1.2326  1.0761
  142OSM   H10F15641   1.503   1.816   7.011  2.8369 -1.9509 -2.2285
  142OSM   C11F15642   1.622   1.975   6.905 -0.0628 -0.4031  0.2798
  142OSM   H11F15643   1.705   1.914   6.863 -0.1635  0.7588 -1.7376
  142OSM   H11G15644   1.672   2.072   6.925  1.6813 -0.6131 -2.5833
  142OSM   C12F15645   1.517   1.994   6.791 -0.1981  0.3980  0.6593
  142OSM   H12F15646   1.472   1.894   6.776  0.4156  0.0398  1.2020
  142OSM   H12G15647   1.569   2.026   6.698 -0.4050 -1.3107 -0.0761
  142OSM   C13F15648   1.397   2.084   6.823 -0.0444  0.3685  0.2342
  142OSM   H13F15649   1.446   2.178   6.856  3.5503 -0.5246 -1.9614
  142OSM   H13G15650   1.342   2.041   6.910  2.2262 -3.5775 -0.0278
  142OSM   C14F15651   1.296   2.106   6.709  0.2017 -0.2062  0.1459
  142OSM   H14F15652   1.348   2.136   6.616  0.6598 -4.9573 -1.4287
  142OSM   H14G15653   1.234   2.187   6.753  0.5023  0.1264 -0.0478
  142OSM   C15F15654   1.214   1.979   6.683 -0.4066 -0.0961  0.3762
  142OSM   H15F15655   1.116   2.022   6.653 -0.4637  2.3344  3.4668
  142OSM   H15G15656   1.197   1.937   6.785  3.5050  0.7683  1.5721
  142OSM   C16F15657   1.256   1.888   6.564  0.0724  0.0399 -0.3085
  142OSM   H16F15658   1.358   1.853   6.591 -1.4134 -3.4475  1.2377
  142OSM   H16G15659   1.269   1.942   6.467  1.5857 -0.6853 -0.5416
  142OSM   C17F15660   1.159   1.770   6.532 -0.0909  0.0962 -0.2432
  142OSM   H17F15661   1.060   1.815   6.512 -0.7118 -0.7137  0.9394
  142OSM   H17G15662   1.149   1.700   6.618 -0.2545 -0.4406 -0.6935
  142OSM   C18F15663   1.198   1.687   6.415 -0.0408 -0.1363  0.3637
  142OSM   H18F15664   1.247   1.589   6.433  2.1985  0.4463 -1.8919
  142OSM   H18G15665   1.261   1.744   6.344  1.8517 -2.4516  0.0646
  142OSM   H18H15666   1.105   1.662   6.360  1.0842 -2.2638 -0.7105
  143OSM      N15667   0.276   2.374   8.353  0.0454  0.4557  0.3334
  143OSM    C1515668   0.141   2.362   8.312 -0.2004 -0.1487  0.2556
  143OSM   H15A15669   0.081   2.451   8.317  0.2462  0.1798 -0.1918
  143OSM   H15B15670   0.091   2.302   8.387  1.0543  1.1952  2.2612
  143OSM   H15C15671   0.131   2.321   8.213  0.5680  1.2582 -0.4307
  143OSM    C1415672   0.276   2.475   8.469  0.2386  0.1247  0.5975
  143OSM   H14A15673   0.365   2.503   8.523  0.6574 -0.8501  0.4296
  143OSM   H14B15674   0.205   2.450   8.547 -0.1772 -0.1277  0.1483
  143OSM   H14C15675   0.236   2.560   8.416  0.4299  0.1868  0.5528
  143OSM    C1315676   0.316   2.248   8.426 -1.4146  0.0297 -0.1619
  143OSM   H13A15677   0.319   2.155   8.371 -1.5685  0.6428 -1.2313
  143OSM   H13B15678   0.248   2.221   8.506  1.1035 -0.8267  1.8279
  143OSM   H13C15679   0.414   2.260   8.471 -0.8492 -3.2956 -0.2933
  143OSM    C1215680   0.366   2.416   8.236 -0.4832  0.6296 -0.4359
  143OSM   H12A15681   0.465   2.410   8.279 -0.2140  2.9988 -0.5909
  143OSM   H12B15682   0.353   2.519   8.206 -0.1035  0.8926  0.2804
  143OSM    C1115683   0.361   2.333   8.103 -1.1704 -0.2769 -0.0519
  143OSM   H11A15684   0.416   2.399   8.032  0.4363 -0.3152  1.0878
  143OSM   H11B15685   0.256   2.318   8.072 -1.0238 -2.7905  0.4745
  143OSM      P15686   0.562   2.182   8.149  0.1496  0.0586 -0.0523
  143OSM    O1315687   0.629   2.295   8.216  0.0314 -0.3556 -0.2152
  143OSM    O1415688   0.585   2.044   8.200 -0.0854  0.1778 -0.9541
  143OSM    O1115689   0.607   2.187   7.995 -0.2129  0.4979 -0.2502
  143OSM    O1215690   0.412   2.204   8.123 -0.6402  0.5429 -0.1760
  143OSM    C1S15691   0.556   2.074   7.911  0.3946  0.0745  0.0551
  143OSM    H1S15692   0.455   2.045   7.946  0.2581  0.5957  0.1049
  143OSM    H1T15693   0.621   1.984   7.913 -0.5243 -0.5841  0.9744
  143OSM     NF15694   0.483   1.985   7.682  0.0817 -0.1674 -0.2695
  143OSM    HNF15695   0.555   1.950   7.622  1.2292  0.1861  0.8377
  143OSM    C2S15696   0.530   2.106   7.754  0.2675 -0.1659 -0.5527
  143OSM    H2S15697   0.445   2.178   7.747  0.9186  0.4973 -2.0344
  143OSM    C3S15698   0.658   2.170   7.685 -0.0143 -0.1257  0.4718
  143OSM    H3S15699   0.733   2.087   7.688  1.2002  0.9629  1.0034
  143OSM     O315700   0.712   2.276   7.766  0.1536  0.3343 -0.5292
  143OSM    HO315701   0.671   2.258   7.851  0.8463  2.2055  0.2452
  143OSM    C4S15702   0.624   2.224   7.551 -0.0177 -0.9993  0.9842
  143OSM    H4S15703   0.552   2.306   7.535  1.8062  0.2005 -2.1071
  143OSM    C5S15704   0.681   2.181   7.435 -0.0915  0.1560  1.0021
  143OSM    H5S15705   0.751   2.097   7.427  0.4310  0.7552 -3.7138
  143OSM    C6S15706   0.637   2.228   7.300 -0.3648  0.7368  0.0967
  143OSM    H6S15707   0.728   2.228   7.236 -0.0289  1.5967  0.5547
  143OSM    H6T15708   0.607   2.335   7.304  0.4628  0.9539  0.8583
  143OSM    C7S15709   0.534   2.135   7.230 -0.5110 -1.1500  0.2521
  143OSM    H7S15710   0.434   2.124   7.277  0.2775 -1.4166  1.9202
  143OSM    H7T15711   0.589   2.039   7.227  0.1143 -0.8055  0.4994
  143OSM    C8S15712   0.497   2.179   7.083  0.2073  0.2192 -0.1515
  143OSM    H8S15713   0.591   2.202   7.028 -0.8770  1.2835 -1.6254
  143OSM    H8T15714   0.454   2.281   7.091  1.2220  0.5466  2.1189
  143OSM    C9S15715   0.407   2.078   7.003  0.8956  0.0929  0.2387
  143OSM    H9S15716   0.356   2.136   6.923 -1.4862  1.3142  2.4870
  143OSM    H9T15717   0.329   2.039   7.071  0.8723 -2.2562 -1.0511
  143OSM   C10S15718   0.483   1.957   6.961 -0.6858  0.8412  0.0227
  143OSM   H10S15719   0.525   1.900   7.047 -1.9216  0.9601  0.7298
  143OSM   H10T15720   0.574   1.997   6.910  0.1339 -0.9951 -0.0304
  143OSM   C11S15721   0.386   1.869   6.876  0.2214  0.2639  0.3297
  143OSM   H11S15722   0.352   1.932   6.791 -2.5567 -0.2551  0.9465
  143OSM   H11T15723   0.292   1.855   6.934  1.1857 -2.1537  1.4500
  143OSM   C12S15724   0.436   1.730   6.821 -0.1823  0.6625 -0.3990
  143OSM   H12S15725   0.449   1.665   6.910  0.2783  0.4585 -0.6124
  143OSM   H12T15726   0.536   1.738   6.774  0.8200 -3.0865  0.7564
  143OSM   C13S15727   0.336   1.674   6.724 -0.0986  0.1178 -0.1915
  143OSM   H13S15728   0.233   1.682   6.766 -0.5488  1.1538 -1.4387
  143OSM   H13T15729   0.351   1.565   6.712  1.1230 -0.0565  2.2673
  143OSM   C14S15730   0.331   1.745   6.588 -0.1912 -0.3089  0.0039
  143OSM   H14S15731   0.306   1.853   6.595 -0.5266 -0.4774  1.8246
  143OSM   H14T15732   0.259   1.699   6.518  0.1067  2.8783 -2.6525
  143OSM   C15S15733   0.474   1.751   6.521  1.2011  0.0059 -0.4790
  143OSM   H15S15734   0.533   1.657   6.529 -0.9031 -1.4702 -1.5845
  143OSM   H15T15735   0.535   1.829   6.573 -0.8369  0.1141  1.9445
  143OSM   C16S15736   0.466   1.794   6.368  0.6688 -0.3663 -0.2262
  143OSM   H16S15737   0.570   1.825   6.343  0.9473 -2.3942 -1.8399
  143OSM   H16T15738   0.389   1.874   6.360 -0.5587 -1.2309  2.0646
  143OSM   C17S15739   0.418   1.684   6.285  0.4436  0.1683  0.2595
  143OSM   H17S15740   0.311   1.659   6.301  1.3727 -3.4001  1.8664
  143OSM   H17T15741   0.467   1.587   6.307  1.6634  1.0206  1.3951
  143OSM   C18S15742   0.444   1.722   6.136 -0.7035 -0.0961 -0.4524
  143OSM   H18S15743   0.399   1.638   6.078 -1.9269  0.5313 -0.4266
  143OSM   H18T15744   0.552   1.742   6.115  0.2777 -1.6484  2.5428
  143OSM   H18U15745   0.400   1.821   6.111  2.9044  2.2361  1.5605
  143OSM    C1F15746   0.368   1.927   7.705  0.5962 -0.2501 -0.1139
  143OSM     OF15747   0.290   1.972   7.786  0.5747 -0.0007  0.0882
  143OSM    C2F15748   0.336   1.810   7.614  0.0106  0.5347  0.0599
  143OSM    H2F15749   0.250   1.756   7.659  0.8647 -0.9288  0.0171
  143OSM    H2G15750   0.419   1.736   7.613 -0.6839 -0.2651 -0.1892
  143OSM    C3F15751   0.302   1.835   7.473 -0.2767 -0.7296  0.3650
  143OSM    H3F15752   0.382   1.897   7.428 -1.7719  2.4452  1.7962
  143OSM    H3G15753   0.213   1.901   7.462  0.4370  0.2095  0.1579
  143OSM    C4F15754   0.283   1.723   7.379 -0.2035 -0.4184 -0.3523
  143OSM    H4F15755   0.241   1.760   7.283  0.0078  0.8557  0.0181
  143OSM    H4G15756   0.209   1.651   7.420  2.5368 -2.3696  1.5427
  143OSM    C5F15757   0.406   1.629   7.354 -0.3733 -0.0352 -0.2677
  143OSM    H5F15758   0.445   1.604   7.455  0.6121 -2.1044 -1.0976
  143OSM    H5G15759   0.480   1.698   7.308 -1.1712  2.3081  1.7605
  143OSM    C6F15760   0.369   1.499   7.282  0.0072  0.1357 -0.1185
  143OSM    H6F15761   0.287   1.445   7.335 -0.2019 -1.2334 -1.7421
  143OSM    H6G15762   0.465   1.442   7.278 -1.3288 -2.3383  0.5479
  143OSM    C7F15763   0.331   1.517   7.132  0.0734 -0.3663 -0.3349
  143OSM    H7F15764   0.391   1.605   7.100  0.4580 -0.3053  0.5301
  143OSM    H7G15765   0.221   1.534   7.127 -0.3285 -2.7049 -0.8254
  143OSM    C8F15766   0.368   1.391   7.034 -0.2690 -1.0302 -1.1890
  143OSM    H8F15767   0.475   1.370   7.054 -0.1705  0.4699  0.0847
  143OSM    H8G15768   0.365   1.435   6.932  1.1804 -1.0517 -1.2648
  143OSM    C9F15769   0.290   1.268   7.049  0.0119  0.6531 -0.1804
  143OSM    H9F15770   0.266   1.235   7.151 -1.2311 -1.0577 -0.9742
  143OSM   C10F15771   0.255   1.192   6.943  0.6475  0.2716  0.1096
  143OSM   H10F15772   0.206   1.097   6.969  1.2615  0.0545  0.5014
  143OSM   C11F15773   0.286   1.218   6.794  0.1490  0.1134  0.3296
  143OSM   H11F15774   0.304   1.123   6.740  0.5656 -0.2822  1.1454
  143OSM   H11G15775   0.376   1.283   6.789  0.2462  0.0930  1.5538
  143OSM   C12F15776   0.173   1.292   6.723 -0.2726  0.5634 -0.4485
  143OSM   H12F15777   0.157   1.379   6.789  2.5035  0.1762  0.8908
  143OSM   H12G15778   0.078   1.235   6.724  0.8699 -1.4742  1.2058
  143OSM   C13F15779   0.217   1.355   6.593  0.1335  0.3392  0.2757
  143OSM   H13F15780   0.321   1.394   6.596 -0.2609  1.3718  2.7854
  143OSM   H13G15781   0.151   1.438   6.559  0.5821  0.5628 -0.0613
  143OSM   C14F15782   0.206   1.266   6.461 -0.6535  0.1864 -0.1382
  143OSM   H14F15783   0.102   1.248   6.427 -0.4991 -2.9246  0.7143
  143OSM   H14G15784   0.249   1.168   6.493  1.3978  1.2030  0.3743
  143OSM   C15F15785   0.289   1.330   6.343  0.7836 -0.5410 -0.6790
  143OSM   H15F15786   0.395   1.350   6.369  1.1184 -3.8373  0.9376
  143OSM   H15G15787   0.238   1.427   6.323 -2.2290 -1.3435  2.2230
  143OSM   C16F15788   0.291   1.259   6.208 -1.2584 -0.6338 -0.0236
  143OSM   H16F15789   0.331   1.318   6.124  1.0439 -3.1488 -0.8279
  143OSM   H16G15790   0.190   1.223   6.179 -2.7291  1.9225  1.5150
  143OSM   C17F15791   0.401   1.157   6.230  0.2786 -0.5087 -1.1743
  143OSM   H17F15792   0.377   1.104   6.324 -0.4042  5.1940  2.4001
  143OSM   H17G15793   0.496   1.211   6.248  2.1336 -3.7425 -0.5072
  143OSM   C18F15794   0.408   1.082   6.100  0.4358 -0.0000 -0.1051
  143OSM   H18F15795   0.311   1.030   6.085 -0.3783  1.2380  0.7503
  143OSM   H18G15796   0.483   1.000   6.100  0.1762 -0.3620 -3.2231
  143OSM   H18H15797   0.417   1.154   6.016 -1.6501  2.7791  1.8627
  144OSM      N15798   6.102   5.558   8.479 -0.3777 -0.9455  0.3084
  144OSM    C1515799   5.953   5.550   8.479 -0.3890  0.3324  0.0841
  144OSM   H15A15800   5.908   5.579   8.574  0.4105 -0.0270  0.5807
  144OSM   H15B15801   5.936   5.444   8.472 -0.7820  0.4172 -0.3125
  144OSM   H15C15802   5.900   5.597   8.398 -0.7731  1.6667  1.0744
  144OSM    C1415803   6.141   5.702   8.482  0.1111  0.1240 -0.2677
  144OSM   H14A15804   6.085   5.763   8.413 -0.9174 -1.4148 -0.8391
  144OSM   H14B15805   6.248   5.716   8.474  0.1818  0.9153  1.4611
  144OSM   H14C15806   6.110   5.725   8.583  0.1306 -0.1118 -0.2072
  144OSM    C1315807   6.152   5.503   8.610  0.0135 -0.0631 -0.0911
  144OSM   H13A15808   6.259   5.519   8.618 -0.2932  2.6317 -0.4261
  144OSM   H13B15809   6.130   5.399   8.628  1.5890 -0.4700 -0.3972
  144OSM   H13C15810   6.109   5.551   8.696 -0.2409  0.0649 -0.2909
  144OSM    C1215811   6.168   5.486   8.360 -0.0293 -0.4579  0.2032
  144OSM   H12A15812   6.182   5.562   8.284 -3.6123 -0.6400 -0.8508
  144OSM   H12B15813   6.103   5.424   8.300  1.4456 -0.9258 -0.9696
  144OSM    C1115814   6.305   5.408   8.388  0.0284 -0.3244 -0.2670
  144OSM   H11A15815   6.346   5.380   8.288  1.2877  0.7466 -0.0871
  144OSM   H11B15816   6.294   5.312   8.442 -1.4111  0.9470  1.8545
  144OSM      P15817   6.478   5.611   8.384  0.0938 -0.1398  0.4119
  144OSM    O1315818   6.479   5.732   8.468  0.2377  0.1056  0.3417
  144OSM    O1415819   6.607   5.557   8.342 -0.0195 -0.1497  0.0118
  144OSM    O1115820   6.396   5.648   8.246 -0.8296  0.2214 -0.0389
  144OSM    O1215821   6.396   5.497   8.452 -0.0905 -0.2340  0.1629
  144OSM    C1S15822   6.450   5.774   8.185 -0.3139  0.5040  0.0917
  144OSM    H1S15823   6.560   5.763   8.178 -0.3154  0.3895  0.2356
  144OSM    H1T15824   6.443   5.863   8.251  0.4678 -0.8279  2.0819
  144OSM     NF15825   6.444   5.927   7.994  0.5271 -0.2111  0.0834
  144OSM    HNF15826   6.395   6.014   8.001 -1.6309 -1.1847 -1.5998
  144OSM    C2S15827   6.381   5.813   8.050 -0.3628 -0.2336 -0.1955
  144OSM    H2S15828   6.402   5.730   7.979  0.5292 -1.0476  0.9768
  144OSM    C3S15829   6.230   5.831   8.067  0.2158  0.3015  0.0381
  144OSM    H3S15830   6.219   5.938   8.096 -2.2572 -0.7097  3.4998
  144OSM     O315831   6.151   5.766   8.170  0.2472 -0.1526 -0.3994
  144OSM    HO315832   6.224   5.715   8.205 -0.5823 -0.6242  0.7040
  144OSM    C4S15833   6.153   5.811   7.942 -0.0844 -0.6192 -0.6240
  144OSM    H4S15834   6.148   5.912   7.897 -0.1895 -0.6088 -0.5893
  144OSM    C5S15835   6.085   5.708   7.886 -0.1215  0.5218  1.0988
  144OSM    H5S15836   6.091   5.609   7.935 -1.4952 -0.8405 -1.2727
  144OSM    C6S15837   6.009   5.715   7.759  0.8199  0.2120 -0.0495
  144OSM    H6S15838   5.957   5.813   7.758  0.1248 -0.1319  0.7471
  144OSM    H6T15839   5.929   5.637   7.760 -0.7394  1.7579  0.5066
  144OSM    C7S15840   6.098   5.700   7.628  1.1333  0.5349 -0.4670
  144OSM    H7S15841   6.115   5.591   7.617 -1.4468 -0.0674  0.5953
  144OSM    H7T15842   6.194   5.755   7.642  0.9461  0.7360  0.0747
  144OSM    C8S15843   6.009   5.754   7.512 -0.3188  0.2241 -0.3077
  144OSM    H8S15844   5.989   5.863   7.523  1.6730  0.8297 -1.9513
  144OSM    H8T15845   5.917   5.692   7.517  1.2089 -2.0461  0.9696
  144OSM    C9S15846   6.094   5.741   7.384  0.7805 -0.1242  0.0276
  144OSM    H9S15847   6.153   5.647   7.374  2.5967  1.0325 -0.6931
  144OSM    H9T15848   6.168   5.823   7.378  1.6688 -0.9924 -2.0660
  144OSM   C10S15849   6.011   5.758   7.253 -0.0778 -0.8928 -1.1101
  144OSM   H10S15850   5.991   5.866   7.245  0.2692 -0.7877 -0.6365
  144OSM   H10T15851   5.910   5.713   7.255 -0.2351 -0.5900 -2.0367
  144OSM   C11S15852   6.091   5.721   7.128  0.2882  0.0274  0.2585
  144OSM   H11S15853   6.143   5.623   7.138 -0.1781 -0.2431  0.0667
  144OSM   H11T15854   6.167   5.800   7.109 -1.6716  1.0781 -5.0529
  144OSM   C12S15855   6.008   5.725   7.002  0.3514  0.9274  0.2188
  144OSM   H12S15856   5.959   5.824   7.004 -1.5720  0.0022  1.2260
  144OSM   H12T15857   5.922   5.655   7.002  1.1807 -0.1404 -0.2636
  144OSM   C13S15858   6.084   5.700   6.875  0.0529  0.0537 -0.3380
  144OSM   H13S15859   6.127   5.598   6.876 -0.1733 -0.0601 -1.2264
  144OSM   H13T15860   6.167   5.774   6.870  1.2287 -1.0822  1.4166
  144OSM   C14S15861   6.006   5.716   6.743  0.2092 -0.1441 -1.2518
  144OSM   H14S15862   5.936   5.802   6.740  2.1920  1.6305  0.3942
  144OSM   H14T15863   5.943   5.625   6.727 -1.2457  0.6050 -0.0071
  144OSM   C15S15864   6.097   5.717   6.630  0.1052 -0.1835  0.1300
  144OSM   H15S15865   6.184   5.647   6.635  0.1915 -0.0278  0.9303
  144OSM   H15T15866   6.159   5.809   6.642  2.1319 -1.4866  0.2773
  144OSM   C16S15867   6.025   5.719   6.499 -0.0437  0.1115  0.0166
  144OSM   H16S15868   6.098   5.746   6.420  2.4928 -0.3336  2.0933
  144OSM   H16T15869   5.942   5.793   6.498 -1.4880 -1.4210  0.6311
  144OSM   C17S15870   5.969   5.582   6.454  0.1259 -0.0249 -0.1477
  144OSM   H17S15871   5.894   5.553   6.531 -1.4549  1.9336 -0.8693
  144OSM   H17T15872   6.047   5.504   6.464 -0.5919 -0.6423  0.8977
  144OSM   C18S15873   5.901   5.563   6.318 -0.1993 -0.3567 -0.4125
  144OSM   H18S15874   5.988   5.557   6.249  1.6976 -0.9239  1.8845
  144OSM   H18T15875   5.838   5.649   6.287 -0.1821  0.2921  1.2359
  144OSM   H18U15876   5.844   5.470   6.300 -2.2894  0.8988 -0.5213
  144OSM    C1F15877   6.568   5.928   7.953  0.1379  0.3429  0.1060
  144OSM     OF15878   6.629   5.822   7.958 -0.2357 -0.1274  0.1598
  144OSM    C2F15879   6.637   6.051   7.907 -0.3696 -0.7714  0.2622
  144OSM    H2F15880   6.726   6.070   7.970  0.2221 -0.9668 -0.5047
  144OSM    H2G15881   6.576   6.143   7.923  2.6940  1.4180  0.1093
  144OSM    C3F15882   6.694   6.057   7.764 -0.9278  0.4008  0.7205
  144OSM    H3F15883   6.775   5.982   7.766 -2.6946 -1.7531 -1.5157
  144OSM    H3G15884   6.747   6.149   7.733 -0.8157 -0.0892 -0.6352
  144OSM    C4F15885   6.582   6.035   7.660  0.4497 -0.0026  0.0376
  144OSM    H4F15886   6.519   6.124   7.676 -1.2220 -1.2610  0.7112
  144OSM    H4G15887   6.524   5.942   7.681 -0.8204  0.2329 -2.0871
  144OSM    C5F15888   6.642   6.038   7.521  0.4842 -0.2393 -0.3260
  144OSM    H5F15889   6.700   5.945   7.506  0.6477 -0.3249  0.7863
  144OSM    H5G15890   6.704   6.129   7.505  0.1199 -0.1279 -1.1826
  144OSM    C6F15891   6.533   6.036   7.417  0.1993 -0.6260 -0.4225
  144OSM    H6F15892   6.512   6.144   7.400  1.6421 -0.1659  0.6013
  144OSM    H6G15893   6.448   5.976   7.457 -0.7390  0.9014  0.0022
  144OSM    C7F15894   6.564   5.985   7.280 -0.2737 -0.0564  0.4056
  144OSM    H7F15895   6.606   5.882   7.287  0.7844  0.3975  0.9188
  144OSM    H7G15896   6.651   6.033   7.229 -0.9361 -0.2437 -0.9453
  144OSM    C8F15897   6.448   5.992   7.179  1.0905 -0.3035 -0.7025
  144OSM    H8F15898   6.461   6.082   7.116 -0.4699 -1.4896 -2.8927
  144OSM    H8G15899   6.357   6.012   7.239  2.6811 -1.4459  2.2753
  144OSM    C9F15900   6.434   5.866   7.094 -0.3281  0.8014 -0.3865
  144OSM    H9F15901   6.443   5.776   7.157  1.7699  0.4835 -1.0502
  144OSM   C10F15902   6.430   5.852   6.965  0.8741  0.3013 -1.1229
  144OSM   H10F15903   6.436   5.753   6.919  1.3033  0.7572 -2.0796
  144OSM   C11F15904   6.426   5.963   6.861 -0.4095 -0.1553  0.6209
  144OSM   H11F15905   6.383   6.052   6.911 -1.6093  0.2723 -1.0803
  144OSM   H11G15906   6.352   5.951   6.778  0.9387  1.1242 -0.8119
  144OSM   C12F15907   6.564   5.989   6.798 -0.0682  0.2294  0.3222
  144OSM   H12F15908   6.629   6.026   6.879  0.9626  1.8210 -1.1582
  144OSM   H12G15909   6.567   6.074   6.726 -1.5435  0.9693  1.0920
  144OSM   C13F15910   6.619   5.868   6.715 -0.4614 -0.2918 -0.5115
  144OSM   H13F15911   6.647   5.789   6.788  1.1627 -1.0841 -1.9101
  144OSM   H13G15912   6.710   5.908   6.665  0.8450 -2.2633  0.2071
  144OSM   C14F15913   6.514   5.807   6.621  0.1963 -0.4161  0.2293
  144OSM   H14F15914   6.431   5.767   6.684 -0.2492  1.7616  1.1015
  144OSM   H14G15915   6.564   5.718   6.576  1.4521  1.3963 -2.1615
  144OSM   C15F15916   6.458   5.899   6.502  0.2284 -0.3797  0.0554
  144OSM   H15F15917   6.535   5.965   6.456 -0.7203 -0.4621 -1.7495
  144OSM   H15G15918   6.388   5.969   6.553  0.1555 -0.7444  0.4589
  144OSM   C16F15919   6.390   5.814   6.393  0.5401  0.7141 -0.0843
  144OSM   H16F15920   6.315   5.748   6.441 -0.9752  1.6193 -1.1213
  144OSM   H16G15921   6.461   5.749   6.339  1.1031 -0.1230  1.5977
  144OSM   C17F15922   6.332   5.900   6.271 -0.2063  0.2735 -0.6272
  144OSM   H17F15923   6.416   5.956   6.224 -0.6934  0.3945 -1.3769
  144OSM   H17G15924   6.282   5.985   6.321  3.5626  2.2296  0.1933
  144OSM   C18F15925   6.255   5.827   6.160 -0.2138 -0.1612  0.6158
  144OSM   H18F15926   6.165   5.791   6.213 -0.5050  1.0376  0.9609
  144OSM   H18G15927   6.319   5.752   6.108  1.5937  1.3480  0.5290
  144OSM   H18H15928   6.233   5.903   6.082  2.0342 -0.3038 -0.2321
  145OSM      N15929   2.246   0.767   8.479  0.4184 -0.3389 -0.2433
  145OSM    C1515930   2.387   0.826   8.480 -0.0740 -0.0894 -0.7634
  145OSM   H15A15931   2.404   0.881   8.571 -0.1753 -1.2441 -0.0227
  145OSM   H15B15932   2.411   0.884   8.392 -2.9115 -0.1864 -1.6973
  145OSM   H15C15933   2.456   0.744   8.486  0.5022  0.4425  0.2786
  145OSM    C1415934   2.235   0.667   8.366  0.0395 -0.4833  0.7774
  145OSM   H14A15935   2.129   0.651   8.353 -0.2506  1.0872  0.9852
  145OSM   H14B15936   2.288   0.575   8.386  2.4026  0.2338 -1.5358
  145OSM   H14C15937   2.278   0.711   8.276 -1.0691  0.3626  0.6414
  145OSM    C1315938   2.231   0.692   8.609  0.2449  0.3841 -0.0393
  145OSM   H13A15939   2.129   0.666   8.633  0.7395 -1.9056 -0.2335
  145OSM   H13B15940   2.262   0.745   8.698  1.3282 -3.1580  1.8847
  145OSM   H13C15941   2.294   0.605   8.613 -0.1862  0.0812  4.0190
  145OSM    C1215942   2.142   0.880   8.465  0.1969  0.3479 -0.8751
  145OSM   H12A15943   2.171   0.960   8.399 -0.5951  1.0251 -0.4209
  145OSM   H12B15944   2.121   0.920   8.563 -1.1508 -1.9513 -0.1429
  145OSM    C1115945   2.004   0.825   8.411  0.1328 -0.1640  0.5940
  145OSM   H11A15946   2.018   0.786   8.308 -0.0424 -0.6780  0.7585
  145OSM   H11B15947   1.944   0.916   8.387  2.8584  1.5675 -0.0336
  145OSM      P15948   1.876   0.592   8.452 -0.3575  0.0086 -0.3149
  145OSM    O1315949   1.985   0.516   8.386 -0.2544 -0.0482 -0.2225
  145OSM    O1415950   1.800   0.528   8.562 -0.2152 -0.0795 -0.7204
  145OSM    O1115951   1.763   0.619   8.349 -0.4146  0.1849  0.2915
  145OSM    O1215952   1.937   0.735   8.499 -0.4498 -0.2537 -0.4840
  145OSM    C1S15953   1.779   0.642   8.208  0.4481 -0.2034 -0.0611
  145OSM    H1S15954   1.781   0.543   8.158 -0.4626 -0.5619  0.5637
  145OSM    H1T15955   1.881   0.680   8.190 -0.0535  0.7029 -1.0896
  145OSM     NF15956   1.686   0.728   7.997 -0.0183  0.3724 -0.0217
  145OSM    HNF15957   1.706   0.817   7.957 -1.5604  0.4627 -0.6739
  145OSM    C2S15958   1.660   0.722   8.144  0.8620  0.4759 -0.3983
  145OSM    H2S15959   1.566   0.666   8.162  1.4766 -0.2673  0.6497
  145OSM    C3S15960   1.658   0.861   8.201 -0.4353  0.4652 -0.0638
  145OSM    H3S15961   1.761   0.900   8.188  0.1600 -0.0769  2.4955
  145OSM     O315962   1.644   0.865   8.348  0.2714 -0.1855 -0.0629
  145OSM    HO315963   1.670   0.774   8.368  0.3213 -0.4530 -1.2700
  145OSM    C4S15964   1.552   0.946   8.134 -0.4057  0.7331 -0.3726
  145OSM    H4S15965   1.456   0.893   8.126  1.2790 -2.7235  0.3581
  145OSM    C5S15966   1.578   1.050   8.050 -0.7444  0.7066 -0.0062
  145OSM    H5S15967   1.682   1.074   8.024  0.0297  0.2061  2.3536
  145OSM    C6S15968   1.469   1.137   7.994 -0.8643  0.2942  0.3383
  145OSM    H6S15969   1.517   1.237   7.987  1.7981 -1.0024 -1.4192
  145OSM    H6T15970   1.389   1.138   8.071 -4.2142  1.4575 -2.8660
  145OSM    C7S15971   1.404   1.085   7.862  0.3510  0.5226  0.4230
  145OSM    H7S15972   1.328   1.148   7.810 -0.4056  0.3082  1.2405
  145OSM    H7T15973   1.358   0.985   7.877  0.9644  0.0274 -0.8490
  145OSM    C8S15974   1.507   1.066   7.744 -0.5321 -0.2690  0.0184
  145OSM    H8S15975   1.563   0.971   7.744 -0.6919 -0.3637 -0.0078
  145OSM    H8T15976   1.585   1.143   7.760 -0.8781  0.0239  0.3223
  145OSM    C9S15977   1.448   1.078   7.606 -0.3515  0.1709  0.4647
  145OSM    H9S15978   1.392   1.173   7.603 -0.9825 -0.1999  0.2184
  145OSM    H9T15979   1.366   1.003   7.593 -1.0638  0.8146  1.1573
  145OSM   C10S15980   1.551   1.067   7.496 -0.9403 -0.6207  0.3991
  145OSM   H10S15981   1.601   0.970   7.478 -1.2778 -0.3934 -2.1948
  145OSM   H10T15982   1.622   1.151   7.515 -1.0434 -0.7549  1.4706
  145OSM   C11S15983   1.490   1.095   7.358 -0.4903 -0.2918 -0.1002
  145OSM   H11S15984   1.419   1.180   7.367  0.7337  0.7492 -0.1049
  145OSM   H11T15985   1.440   1.001   7.326 -1.7536 -0.3727  1.8892
  145OSM   C12S15986   1.607   1.130   7.267  0.5490  0.1224  0.1751
  145OSM   H12S15987   1.680   1.046   7.275  2.2416  1.5597  0.4527
  145OSM   H12T15988   1.655   1.226   7.295  0.9887  0.6527 -2.1887
  145OSM   C13S15989   1.560   1.129   7.125  0.5497  0.1704  0.1586
  145OSM   H13S15990   1.472   1.197   7.121  1.1590  0.9521 -2.2273
  145OSM   H13T15991   1.533   1.027   7.091  1.2890  0.7868 -2.5633
  145OSM   C14S15992   1.655   1.197   7.029 -0.4468  0.8155  0.4886
  145OSM   H14S15993   1.697   1.287   7.078  1.5095 -0.9179  2.2334
  145OSM   H14T15994   1.596   1.227   6.940 -0.7276  0.2478  0.4790
  145OSM   C15S15995   1.790   1.113   6.997  0.8117 -0.5016 -0.0973
  145OSM   H15S15996   1.842   1.113   7.094 -0.1391  0.6894  0.4454
  145OSM   H15T15997   1.852   1.170   6.924  1.0906 -1.5526 -0.7029
  145OSM   C16S15998   1.770   0.974   6.953  0.4666  1.1212 -0.0932
  145OSM   H16S15999   1.714   0.960   6.858  0.6749  0.5535 -0.1396
  145OSM   H16T16000   1.713   0.923   7.034  1.1699  0.3174 -0.0852
  145OSM   C17S16001   1.902   0.907   6.953 -0.4513 -0.4080  0.1715
  145OSM   H17S16002   1.945   0.897   7.055 -0.2299 -1.6891 -0.0300
  145OSM   H17T16003   1.967   0.974   6.892 -0.3836  0.5739  1.2936
  145OSM   C18S16004   1.916   0.767   6.885 -0.0757 -0.1795 -0.6122
  145OSM   H18S16005   2.020   0.740   6.859 -0.0499 -0.0761 -0.6184
  145OSM   H18T16006   1.853   0.765   6.794  0.3869 -0.6860 -0.9294
  145OSM   H18U16007   1.875   0.686   6.949 -0.9704  2.9829  3.2176
  145OSM    C1F16008   1.668   0.623   7.920 -0.6698 -0.3189  0.1203
  145OSM     OF16009   1.604   0.527   7.963 -1.2166  0.6131 -0.1645
  145OSM    C2F16010   1.701   0.626   7.770 -0.0619 -0.3745 -0.0096
  145OSM    H2F16011   1.731   0.724   7.728  0.7370 -0.4624  0.3340
  145OSM    H2G16012   1.613   0.600   7.707  0.1998  0.0468 -0.5574
  145OSM    C3F16013   1.821   0.527   7.744  0.7584  0.5185 -0.3199
  145OSM    H3F16014   1.781   0.424   7.755  0.4944  0.8024  1.6527
  145OSM    H3G16015   1.901   0.551   7.818  0.1600 -0.8536  0.8159
  145OSM    C4F16016   1.876   0.538   7.594  0.5120  0.2253  0.1297
  145OSM    H4F16017   1.986   0.526   7.596  0.3427 -1.5670  0.9827
  145OSM    H4G16018   1.856   0.641   7.556 -2.0741 -0.8354 -1.6485
  145OSM    C5F16019   1.811   0.453   7.485 -0.5918  0.2947  0.6122
  145OSM    H5F16020   1.700   0.454   7.484 -0.6475 -1.8259 -0.2839
  145OSM    H5G16021   1.841   0.348   7.503  1.6418  0.8502  0.4448
  145OSM    C6F16022   1.861   0.487   7.340 -0.0192  0.6983 -0.1527
  145OSM    H6F16023   1.841   0.592   7.309 -0.9220  0.6781  0.3229
  145OSM    H6G16024   1.785   0.430   7.282 -1.8739  1.4666  1.4005
  145OSM    C7F16025   2.000   0.445   7.313 -0.4791 -0.0539 -0.9514
  145OSM    H7F16026   1.996   0.336   7.293  1.2019 -0.4839  0.7278
  145OSM    H7G16027   2.065   0.466   7.400 -1.3907  1.1604 -0.5348
  145OSM    C8F16028   2.060   0.515   7.191  0.4882  0.8081 -0.5542
  145OSM    H8F16029   2.081   0.620   7.221  0.4393 -0.0861  3.1505
  145OSM    H8G16030   1.982   0.522   7.113 -0.3020 -1.3953 -0.0270
  145OSM    C9F16031   2.183   0.438   7.143 -0.2528 -0.3730 -0.7260
  145OSM    H9F16032   2.179   0.329   7.157 -1.0654 -0.2473  0.1257
  145OSM   C10F16033   2.292   0.492   7.088 -0.4643  0.0254 -0.3994
  145OSM   H10F16034   2.372   0.422   7.060 -0.5560 -0.0032 -0.5888
  145OSM   C11F16035   2.307   0.629   7.040 -0.4888  0.1950 -0.5415
  145OSM   H11F16036   2.395   0.672   7.092 -1.6337  0.9070  0.8639
  145OSM   H11G16037   2.214   0.688   7.052 -2.4184 -2.8188  0.2261
  145OSM   C12F16038   2.338   0.628   6.891 -0.2985  0.1386 -0.3018
  145OSM   H12F16039   2.248   0.579   6.848 -0.0995  0.2267 -0.8340
  145OSM   H12G16040   2.423   0.561   6.863 -0.9798  0.1250 -2.5954
  145OSM   C13F16041   2.356   0.769   6.827  0.0373  0.5002 -0.3429
  145OSM   H13F16042   2.452   0.809   6.867  0.0117 -0.0340  0.2766
  145OSM   H13G16043   2.265   0.830   6.844 -0.3646  0.0102 -0.7209
  145OSM   C14F16044   2.364   0.769   6.675 -0.4011  0.1271 -0.8902
  145OSM   H14F16045   2.298   0.689   6.636 -0.1431 -1.2761  1.3618
  145OSM   H14G16046   2.470   0.749   6.648 -0.9510  0.3014 -3.3552
  145OSM   C15F16047   2.314   0.900   6.598 -0.0603  0.1288 -0.3707
  145OSM   H15F16048   2.380   0.986   6.622 -0.4341  0.7350 -1.4675
  145OSM   H15G16049   2.214   0.924   6.641 -0.0287 -0.6469  0.1561
  145OSM   C16F16050   2.320   0.885   6.449  0.1537 -0.0888 -0.4348
  145OSM   H16F16051   2.259   0.963   6.398 -0.4409  0.7359  1.4613
  145OSM   H16G16052   2.283   0.784   6.422  0.0035 -0.3218  0.6187
  145OSM   C17F16053   2.457   0.904   6.395 -0.1078 -0.8880 -0.5557
  145OSM   H17F16054   2.538   0.845   6.442 -0.2526  0.3069  1.2947
  145OSM   H17G16055   2.487   1.006   6.427 -1.0092 -1.2423  1.5727
  145OSM   C18F16056   2.481   0.880   6.242 -0.5811 -0.2402  0.3438
  145OSM   H18F16057   2.468   0.771   6.224 -1.1385 -0.3229  1.2047
  145OSM   H18G16058   2.582   0.919   6.214 -1.6755  3.2709  0.7878
  145OSM   H18H16059   2.403   0.939   6.191  1.5450  0.7237 -2.0486
  146OSM      N16060   5.755   1.440   8.421 -0.1721  0.0498 -0.9365
  146OSM    C1516061   5.684   1.416   8.291  0.2156  0.2555 -0.5315
  146OSM   H15A16062   5.656   1.312   8.297  1.6963 -0.1116  0.7727
  146OSM   H15B16063   5.757   1.430   8.213  0.9307 -0.5896 -0.0290
  146OSM   H15C16064   5.598   1.480   8.278 -0.8747 -0.2093  3.0919
  146OSM    C1416065   5.656   1.439   8.528  0.0691  0.1552  0.0456
  146OSM   H14A16066   5.712   1.455   8.619  0.7489  0.4789 -0.4229
  146OSM   H14B16067   5.611   1.340   8.530  0.4813 -0.1125  3.5552
  146OSM   H14C16068   5.576   1.510   8.519 -1.4842 -0.9356  3.3935
  146OSM    C1316069   5.846   1.328   8.445 -0.3042 -0.0430  0.3289
  146OSM   H13A16070   5.931   1.370   8.498  1.5166 -0.7342 -1.8937
  146OSM   H13B16071   5.892   1.300   8.352  0.6797  0.0033  0.7856
  146OSM   H13C16072   5.811   1.237   8.491  0.8713  0.8942  3.3612
  146OSM    C1216073   5.817   1.579   8.426  0.1263  0.0606  0.1397
  146OSM   H12A16074   5.740   1.652   8.405 -0.6408 -0.9850 -0.8184
  146OSM   H12B16075   5.897   1.592   8.356 -0.9427  3.0806 -0.6941
  146OSM    C1116076   5.896   1.623   8.547 -0.4514  0.0465 -0.0103
  146OSM   H11A16077   5.825   1.635   8.632 -1.5335  0.4895 -0.9453
  146OSM   H11B16078   5.933   1.726   8.530  1.8681 -0.7888 -0.3806
  146OSM      P16079   6.144   1.538   8.502 -0.0820  0.0512  0.6177
  146OSM    O1316080   6.205   1.662   8.540 -0.8657  0.0706 -0.2991
  146OSM    O1416081   6.221   1.413   8.532  0.6927  0.2484 -0.7288
  146OSM    O1116082   6.107   1.537   8.350  0.1144  0.3290  0.6689
  146OSM    O1216083   5.998   1.533   8.577  0.0125  0.1792  0.3437
  146OSM    C1S16084   6.174   1.622   8.253 -0.0004 -0.7926 -0.2002
  146OSM    H1S16085   6.278   1.645   8.283 -0.0221 -2.6409  1.5298
  146OSM    H1T16086   6.115   1.714   8.233 -0.6004 -1.0149  0.4788
  146OSM     NF16087   6.248   1.651   8.020  1.0003 -0.4917  0.4959
  146OSM    HNF16088   6.198   1.726   7.978 -0.5124 -1.3709  0.6441
  146OSM    C2S16089   6.178   1.564   8.110 -0.3854 -0.0154 -0.8620
  146OSM    H2S16090   6.233   1.468   8.104  0.5278  0.5315 -1.4576
  146OSM    C3S16091   6.040   1.517   8.056 -0.3006 -0.8018 -0.0906
  146OSM    H3S16092   5.976   1.608   8.067  1.6397  0.6435 -0.2891
  146OSM     O316093   5.974   1.423   8.136  0.2508 -0.2484 -0.1417
  146OSM    HO316094   6.031   1.412   8.213  0.6652  0.6013 -0.3126
  146OSM    C4S16095   6.043   1.469   7.917  0.4347 -0.0221  0.4028
  146OSM    H4S16096   6.106   1.381   7.902 -1.1432 -1.0966 -0.2755
  146OSM    C5S16097   5.960   1.519   7.823 -0.3245 -0.2000 -0.0076
  146OSM    H5S16098   5.907   1.614   7.835 -0.6979 -0.6687  2.7492
  146OSM    C6S16099   5.946   1.444   7.691 -0.0874 -0.7477  0.9934
  146OSM    H6S16100   5.928   1.522   7.614 -0.6488 -0.8332  1.0325
  146OSM    H6T16101   5.851   1.388   7.679 -0.8718  0.9848 -1.9775
  146OSM    C7S16102   6.059   1.354   7.644  0.6509  0.5937  0.0609
  146OSM    H7S16103   6.061   1.267   7.713 -0.4195 -0.6993 -1.4616
  146OSM    H7T16104   6.165   1.386   7.649  1.1254 -0.3332 -2.4404
  146OSM    C8S16105   6.037   1.303   7.511  0.4380 -0.0371 -0.1777
  146OSM    H8S16106   6.025   1.396   7.450 -1.1370  0.8317  1.3528
  146OSM    H8T16107   5.936   1.258   7.515 -0.9817  2.9488  1.8469
  146OSM    C9S16108   6.153   1.215   7.459 -0.2584  0.0456  0.0158
  146OSM    H9S16109   6.175   1.130   7.527 -3.2298 -0.9272 -0.1115
  146OSM    H9T16110   6.246   1.275   7.465  0.1424 -0.6806  1.6474
  146OSM   C10S16111   6.140   1.168   7.313 -0.1506 -0.0487 -0.1961
  146OSM   H10S16112   6.046   1.110   7.302 -0.1544  0.0055 -0.4614
  146OSM   H10T16113   6.218   1.090   7.295 -1.1453 -1.0779 -0.1982
  146OSM   C11S16114   6.135   1.292   7.219 -0.3116 -0.6171 -0.5928
  146OSM   H11S16115   6.232   1.344   7.231 -0.2005 -1.1776  1.4345
  146OSM   H11T16116   6.054   1.361   7.253  1.4910  0.1245  2.6659
  146OSM   C12S16117   6.122   1.276   7.070  0.7071 -0.0181  0.0307
  146OSM   H12S16118   6.024   1.230   7.044  0.0238  2.0845 -1.3418
  146OSM   H12T16119   6.189   1.195   7.033 -1.9230 -1.8573 -1.0043
  146OSM   C13S16120   6.144   1.394   6.979 -0.3818  0.1414  0.5007
  146OSM   H13S16121   6.236   1.449   7.008 -0.3965 -0.0603  0.9253
  146OSM   H13T16122   6.065   1.471   6.990  2.2972  3.5209 -1.8125
  146OSM   C14S16123   6.154   1.354   6.835  0.4879  0.4733 -0.0124
  146OSM   H14S16124   6.074   1.283   6.805 -2.5575  2.5326  2.5831
  146OSM   H14T16125   6.246   1.298   6.809  0.1262 -0.0144 -0.2782
  146OSM   C15S16126   6.151   1.471   6.737 -0.8507 -0.2801  0.2171
  146OSM   H15S16127   6.239   1.537   6.748 -0.3886 -0.7150 -0.7524
  146OSM   H15T16128   6.059   1.532   6.747 -1.5721 -1.3771  0.4692
  146OSM   C16S16129   6.160   1.432   6.586  0.1781 -0.5050  0.2016
  146OSM   H16S16130   6.074   1.364   6.573 -0.1496  0.1638 -1.4007
  146OSM   H16T16131   6.255   1.379   6.563  1.4126  2.0149 -0.9157
  146OSM   C17S16132   6.133   1.557   6.503  0.4633  0.0067  0.1599
  146OSM   H17S16133   6.224   1.620   6.512  0.2678  0.1841  0.9221
  146OSM   H17T16134   6.045   1.619   6.533  0.1634 -0.8474  1.0788
  146OSM   C18S16135   6.102   1.510   6.360 -0.6025  0.0349  0.7833
  146OSM   H18S16136   6.089   1.600   6.296 -0.7688 -0.1550  0.5496
  146OSM   H18T16137   6.007   1.455   6.345  0.3357 -1.3179 -0.4827
  146OSM   H18U16138   6.188   1.449   6.325  0.8182  1.4901  1.5845
  146OSM    C1F16139   6.378   1.668   8.022 -0.0702  0.3117 -0.0078
  146OSM     OF16140   6.441   1.620   8.117  0.2019  0.1007  0.4095
  146OSM    C2F16141   6.431   1.740   7.905  0.5133 -0.2277 -0.7036
  146OSM    H2F16142   6.541   1.740   7.919  0.5469  1.0106 -0.8298
  146OSM    H2G16143   6.387   1.842   7.909  0.6030 -0.1541 -1.4462
  146OSM    C3F16144   6.377   1.685   7.773 -0.9179 -0.4388  1.0104
  146OSM    H3F16145   6.266   1.695   7.770 -1.0074 -1.5326  0.1566
  146OSM    H3G16146   6.398   1.577   7.764 -1.1789 -0.5682  1.8635
  146OSM    C4F16147   6.429   1.769   7.657  0.9448  1.0998 -0.1868
  146OSM    H4F16148   6.539   1.782   7.658  0.9369  1.2049  1.1523
  146OSM    H4G16149   6.385   1.871   7.664 -0.7102  0.4034  0.1109
  146OSM    C5F16150   6.371   1.695   7.530  0.8114  0.4335  0.7612
  146OSM    H5F16151   6.261   1.675   7.534  0.7678  0.1024 -1.3462
  146OSM    H5G16152   6.415   1.594   7.526 -0.4508 -0.2397  2.3916
  146OSM    C6F16153   6.398   1.771   7.405 -0.4470 -0.4295  0.1425
  146OSM    H6F16154   6.505   1.778   7.379 -0.8516  1.0518 -1.2627
  146OSM    H6G16155   6.366   1.877   7.413 -1.0271 -0.5452 -0.4948
  146OSM    C7F16156   6.342   1.713   7.275 -0.1299 -0.4044 -0.0118
  146OSM    H7F16157   6.234   1.706   7.298  0.1440  1.8007  2.4348
  146OSM    H7G16158   6.377   1.608   7.264  0.8909  0.0068 -0.8324
  146OSM    C8F16159   6.386   1.792   7.155  0.4156 -0.4098  0.0481
  146OSM    H8F16160   6.368   1.734   7.061 -2.4598 -2.4439  1.6852
  146OSM    H8G16161   6.495   1.812   7.167 -0.1293  1.1918  3.6646
  146OSM    C9F16162   6.312   1.925   7.159 -0.2228 -0.0787 -0.0044
  146OSM    H9F16163   6.353   2.012   7.214 -1.5183  2.4626 -2.8050
  146OSM   C10F16164   6.211   1.960   7.076  0.4139 -0.6039  0.4616
  146OSM   H10F16165   6.153   2.051   7.098 -0.6369 -1.1101 -0.1345
  146OSM   C11F16166   6.144   1.879   6.963 -0.2062  0.5017  1.1119
  146OSM   H11F16167   6.034   1.883   6.973 -0.6551  0.0309 -2.3444
  146OSM   H11G16168   6.171   1.771   6.966  2.6010  1.1327  3.2349
  146OSM   C12F16169   6.165   1.933   6.818  0.4094 -0.5757 -0.1275
  146OSM   H12F16170   6.101   1.868   6.754 -0.8859  1.4865 -1.0356
  146OSM   H12G16171   6.273   1.914   6.796  0.5131  0.3052 -0.4224
  146OSM   C13F16172   6.118   2.076   6.782 -0.1771  0.2974 -0.3554
  146OSM   H13F16173   6.179   2.148   6.840 -0.6158  0.2089  0.2333
  146OSM   H13G16174   6.010   2.088   6.807  0.2323 -0.2469  1.8988
  146OSM   C14F16175   6.120   2.094   6.629 -0.2131  0.0816  0.9202
  146OSM   H14F16176   6.089   1.999   6.581  1.2729 -0.2950  0.6770
  146OSM   H14G16177   6.053   2.175   6.593 -1.1209 -0.0711  2.1945
  146OSM   C15F16178   6.265   2.127   6.588  0.1920  0.4780 -0.0041
  146OSM   H15F16179   6.337   2.094   6.666  0.3652  2.2810  0.6654
  146OSM   H15G16180   6.268   2.238   6.592 -2.0348  0.6237  4.9516
  146OSM   C16F16181   6.296   2.084   6.442 -0.0081  0.6158 -0.0511
  146OSM   H16F16182   6.387   2.143   6.418  0.2313 -0.2395 -1.3971
  146OSM   H16G16183   6.213   2.127   6.382  0.8756  1.4271 -0.7181
  146OSM   C17F16184   6.319   1.932   6.415  0.1132 -0.5988 -1.2443
  146OSM   H17F16185   6.216   1.893   6.422 -0.4514  1.0046  0.1921
  146OSM   H17G16186   6.369   1.890   6.505 -1.7842  1.2527  0.8228
  146OSM   C18F16187   6.382   1.880   6.289  0.8080 -0.1113 -0.6998
  146OSM   H18F16188   6.316   1.886   6.199 -1.2450 -0.0496  0.7378
  146OSM   H18G16189   6.418   1.775   6.299  1.3945 -0.1908 -3.0626
  146OSM   H18H16190   6.475   1.935   6.263  0.9640  0.0028  0.0846
  147OSM      N16191   0.474   0.990   3.561  0.3632  0.1781 -0.2956
  147OSM    C1516192   0.608   1.037   3.512  0.6269 -0.4225  0.6456
  147OSM   H15A16193   0.629   1.021   3.407 -1.7443 -0.2214  0.0768
  147OSM   H15B16194   0.687   0.993   3.570 -0.1926 -2.5642  0.2207
  147OSM   H15C16195   0.614   1.144   3.524 -0.5110  0.0239 -2.0359
  147OSM    C1416196   0.458   0.846   3.519 -1.0538  0.0458 -0.4159
  147OSM   H14A16197   0.368   0.802   3.558 -0.2720 -1.9872 -0.7639
  147OSM   H14B16198   0.548   0.801   3.557 -0.7636  0.9182 -0.0461
  147OSM   H14C16199   0.454   0.830   3.412 -0.7766 -0.3147 -0.3752
  147OSM    C1316200   0.476   0.989   3.712 -0.0620 -0.0800 -0.0555
  147OSM   H13A16201   0.563   0.932   3.741 -0.6636 -2.0511 -1.8874
  147OSM   H13B16202   0.386   0.951   3.757  0.7631 -2.2302 -0.1021
  147OSM   H13C16203   0.492   1.090   3.748  2.1988 -0.4928  0.2683
  147OSM    C1216204   0.355   1.066   3.510 -0.7927 -0.7706 -0.0537
  147OSM   H12A16205   0.356   1.076   3.402 -0.3612 -0.4286 -0.0210
  147OSM   H12B16206   0.373   1.168   3.541  3.0189 -0.5067 -2.4668
  147OSM    C1116207   0.220   1.024   3.565  0.0946  0.3810 -0.7911
  147OSM   H11A16208   0.194   0.916   3.565 -1.5216  0.7292 -1.7316
  147OSM   H11B16209   0.137   1.053   3.497  0.0381  0.3762 -0.7251
  147OSM      P16210   0.124   1.198   3.728 -0.2073 -0.5599  0.3230
  147OSM    O1316211   0.226   1.313   3.715  0.1667  0.4755  0.2603
  147OSM    O1416212   0.000   1.206   3.647 -0.1158  0.1640  0.1082
  147OSM    O1116213   0.080   1.184   3.875 -0.1583  0.3537 -0.0489
  147OSM    O1216214   0.206   1.071   3.694  0.5537 -0.6651 -0.0944
  147OSM    C1S16215   0.143   1.114   3.986 -0.5222 -0.2849  0.3096
  147OSM    H1S16216   0.253   1.110   3.971 -0.6448  0.6718 -1.1025
  147OSM    H1T16217   0.119   1.006   3.995 -2.2045 -0.0133 -0.4689
  147OSM     NF16218   0.171   1.105   4.246  0.6770 -0.1493 -0.0545
  147OSM    HNF16219   0.103   1.051   4.294  1.8563 -1.5325  0.1563
  147OSM    C2S16220   0.119   1.182   4.134 -0.0891  0.2644  0.3607
  147OSM    H2S16221   0.169   1.281   4.131  2.6046 -1.0170 -1.1160
  147OSM    C3S16222  -0.031   1.215   4.145 -0.0642 -0.1129 -0.2472
  147OSM    H3S16223  -0.078   1.114   4.149 -0.4975  0.0733 -0.5418
  147OSM     O316224  -0.095   1.280   4.032  0.2126 -0.1205 -1.0247
  147OSM    HO316225  -0.035   1.251   3.963  0.9427 -1.4716  0.1132
  147OSM    C4S16226  -0.058   1.286   4.281 -0.0434  0.1072 -0.5634
  147OSM    H4S16227  -0.102   1.214   4.351 -0.5127  1.5378  0.6347
  147OSM    C5S16228  -0.027   1.408   4.320 -0.1256 -0.5006 -1.4199
  147OSM    H5S16229   0.035   1.474   4.257  1.9856 -0.4738  0.5483
  147OSM    C6S16230  -0.044   1.472   4.459  0.2262  0.0835  0.0806
  147OSM    H6S16231  -0.114   1.557   4.447 -1.3427 -1.1714 -0.0239
  147OSM    H6T16232   0.052   1.520   4.488  0.5670 -1.1318  1.0491
  147OSM    C7S16233  -0.079   1.386   4.580  0.2456  0.3806 -0.2100
  147OSM    H7S16234  -0.000   1.310   4.601 -2.3910 -3.2316 -2.1678
  147OSM    H7T16235  -0.174   1.329   4.571 -0.7131  1.9194 -0.2043
  147OSM    C8S16236  -0.118   1.475   4.700 -0.1385 -0.2414 -0.0307
  147OSM    H8S16237  -0.202   1.544   4.679 -0.7425 -1.2799 -1.2024
  147OSM    H8T16238  -0.026   1.533   4.721  1.5718 -2.7793 -0.0159
  147OSM    C9S16239  -0.147   1.399   4.831  0.1552 -0.1374  0.4247
  147OSM    H9S16240  -0.054   1.340   4.847  1.0205  0.6384 -1.5123
  147OSM    H9T16241  -0.227   1.321   4.831  0.9749 -1.0121  1.4041
  147OSM   C10S16242  -0.171   1.494   4.948  0.1525  0.3147  0.4137
  147OSM   H10S16243  -0.274   1.537   4.942 -0.7128 -1.3412  2.1554
  147OSM   H10T16244  -0.090   1.569   4.957 -1.2958  1.7472  2.7590
  147OSM   C11S16245  -0.154   1.430   5.082 -0.0615  0.4063  0.3574
  147OSM   H11S16246  -0.046   1.418   5.104 -0.2464  0.2416  1.2063
  147OSM   H11T16247  -0.198   1.328   5.077  0.6949  0.1458 -2.2560
  147OSM   C12S16248  -0.229   1.497   5.199  0.2230 -0.1488 -0.3794
  147OSM   H12S16249  -0.332   1.458   5.187  0.4405 -1.1040  0.6595
  147OSM   H12T16250  -0.219   1.607   5.190  0.1946 -0.2876 -2.8849
  147OSM   C13S16251  -0.191   1.442   5.327  0.1829  0.0725  0.0054
  147OSM   H13S16252  -0.084   1.469   5.343  0.2921  0.5937 -1.4235
  147OSM   H13T16253  -0.205   1.333   5.311  0.6634  0.2510 -1.9579
  147OSM   C14S16254  -0.276   1.500   5.449 -0.0271 -0.2067 -0.0163
  147OSM   H14S16255  -0.380   1.512   5.411 -0.4067 -0.9787  0.7264
  147OSM   H14T16256  -0.230   1.597   5.475 -1.5627  0.7147 -0.5997
  147OSM   C15S16257  -0.267   1.403   5.572 -0.2047  0.1213  0.7140
  147OSM   H15S16258  -0.169   1.432   5.616  0.4278  0.4278 -0.8306
  147OSM   H15T16259  -0.264   1.294   5.549  0.2605  0.5441 -1.4124
  147OSM   C16S16260  -0.367   1.431   5.686  0.1067  0.7996  0.2659
  147OSM   H16S16261  -0.471   1.416   5.649  0.1761  2.2621 -0.6161
  147OSM   H16T16262  -0.367   1.540   5.710 -0.7249  0.6764  0.8743
  147OSM   C17S16263  -0.330   1.341   5.805  0.2408 -0.1620 -0.0015
  147OSM   H17S16264  -0.220   1.341   5.824  0.4374 -0.6103 -1.0798
  147OSM   H17T16265  -0.368   1.241   5.775 -0.0536 -1.0854  3.0942
  147OSM   C18S16266  -0.405   1.374   5.939  0.0490  0.7642 -0.2784
  147OSM   H18S16267  -0.359   1.462   5.987  0.8932 -0.4160  1.1629
  147OSM   H18T16268  -0.384   1.282   5.998 -1.3910  0.5387 -0.0716
  147OSM   H18U16269  -0.516   1.381   5.932  0.1469  1.2514 -1.7329
  147OSM    C1F16270   0.301   1.078   4.259  0.2553 -0.4127  0.1716
  147OSM     OF16271   0.383   1.128   4.180  0.1641 -0.3885 -0.5645
  147OSM    C2F16272   0.338   0.974   4.359 -0.4704 -0.3013  0.2138
  147OSM    H2F16273   0.341   0.871   4.317  0.1607 -0.4333  0.5790
  147OSM    H2G16274   0.255   0.969   4.432  0.1340 -2.6341  0.8338
  147OSM    C3F16275   0.475   0.992   4.425  0.0398  0.2395  0.3771
  147OSM    H3F16276   0.484   1.082   4.489  2.7129 -1.1084  2.0789
  147OSM    H3G16277   0.559   0.975   4.354  0.4102 -1.6573  1.2055
  147OSM    C4F16278   0.492   0.873   4.525  0.0024  0.3697 -0.1459
  147OSM    H4F16279   0.468   0.783   4.464  2.0637 -0.0969 -0.3606
  147OSM    H4G16280   0.429   0.872   4.616 -0.4638  0.4470 -0.4631
  147OSM    C5F16281   0.639   0.850   4.570 -0.1672 -0.0835  0.2060
  147OSM    H5F16282   0.709   0.857   4.484  2.3422  0.8799  2.1994
  147OSM    H5G16283   0.642   0.747   4.612 -2.9721 -0.9580 -1.5135
  147OSM    C6F16284   0.685   0.951   4.677  0.2522 -0.2148 -0.5766
  147OSM    H6F16285   0.623   0.942   4.768  0.3649 -0.1860 -0.4965
  147OSM    H6G16286   0.671   1.055   4.641  0.9289  0.5309  1.2154
  147OSM    C7F16287   0.836   0.951   4.714  0.0570  1.2737  0.1603
  147OSM    H7F16288   0.889   1.000   4.630  1.0072 -0.8844 -0.5675
  147OSM    H7G16289   0.873   0.846   4.711  0.7665  1.4522  1.6889
  147OSM    C8F16290   0.853   1.013   4.851 -0.4774 -0.2492 -0.5033
  147OSM    H8F16291   0.959   0.984   4.872 -0.9182 -2.7244 -1.3416
  147OSM    H8G16292   0.785   0.974   4.930 -0.3097 -0.2079 -0.3367
  147OSM    C9F16293   0.834   1.157   4.834  0.0435 -0.9234 -0.5679
  147OSM    H9F16294   0.878   1.203   4.744 -1.2283  1.1027 -0.2191
  147OSM   C10F16295   0.754   1.239   4.904  0.5580 -0.1343 -0.0975
  147OSM   H10F16296   0.745   1.346   4.879  0.2595  0.0370  0.7266
  147OSM   C11F16297   0.673   1.195   5.022  0.8820 -0.1245  0.2620
  147OSM   H11F16298   0.703   1.099   5.069  1.1401 -0.1725 -0.0029
  147OSM   H11G16299   0.573   1.168   4.984  0.3847  0.4681  1.0995
  147OSM   C12F16300   0.652   1.305   5.126  0.7014  0.7307  0.1136
  147OSM   H12F16301   0.603   1.395   5.083 -1.7085 -0.9774 -0.9573
  147OSM   H12G16302   0.752   1.332   5.167  0.3874  0.8591  0.8114
  147OSM   C13F16303   0.569   1.260   5.240 -0.0930 -0.5765 -0.3840
  147OSM   H13F16304   0.613   1.168   5.284 -0.2167  0.6163  2.3831
  147OSM   H13G16305   0.468   1.237   5.200 -1.1726  0.5258  1.5940
  147OSM   C14F16306   0.564   1.377   5.344 -0.9317 -0.2950  0.2803
  147OSM   H14F16307   0.514   1.460   5.291  4.5536  2.6631 -1.0433
  147OSM   H14G16308   0.666   1.407   5.377 -0.2728 -0.8483 -1.1669
  147OSM   C15F16309   0.496   1.336   5.477 -0.6682 -0.1682  0.6126
  147OSM   H15F16310   0.525   1.233   5.509  0.1429  0.3469  1.5810
  147OSM   H15G16311   0.389   1.332   5.446  0.0296  0.0552 -2.0763
  147OSM   C16F16312   0.510   1.441   5.586 -0.2667 -0.4293  0.0699
  147OSM   H16F16313   0.469   1.539   5.552 -2.2425 -0.5654  1.8730
  147OSM   H16G16314   0.620   1.454   5.600 -0.2180  0.3767 -0.9243
  147OSM   C17F16315   0.445   1.390   5.718  0.3550 -0.0892  0.0083
  147OSM   H17F16316   0.481   1.286   5.735  1.8274  0.4750  0.4496
  147OSM   H17G16317   0.334   1.393   5.707  0.3795  0.4546 -0.1299
  147OSM   C18F16318   0.463   1.485   5.837 -0.2251 -0.1996  0.2244
  147OSM   H18F16319   0.571   1.494   5.863  0.1439 -1.0815 -0.9218
  147OSM   H18G16320   0.417   1.444   5.929 -1.1620 -1.5455 -0.7992
  147OSM   H18H16321   0.430   1.590   5.824 -0.2264  0.1966  2.8560
  148OSM      N16322   1.125   0.603   3.549 -0.3220  0.2581 -0.6446
  148OSM    C1516323   1.130   0.659   3.681  0.4069 -0.4816  0.3634
  148OSM   H15A16324   1.032   0.668   3.727  1.0770 -1.5167  2.0865
  148OSM   H15B16325   1.173   0.758   3.685 -0.7565  0.2108 -2.1453
  148OSM   H15C16326   1.189   0.588   3.736  0.3528 -1.5824 -0.9671
  148OSM    C1416327   1.260   0.546   3.511 -0.2183 -0.5825  0.3532
  148OSM   H14A16328   1.346   0.612   3.518  0.2478 -0.9364 -1.4183
  148OSM   H14B16329   1.261   0.525   3.405  0.8020 -0.4757  0.3273
  148OSM   H14C16330   1.283   0.456   3.565 -3.6045 -2.2491 -0.6722
  148OSM    C1316331   1.034   0.488   3.548 -0.0082 -0.2669  0.4934
  148OSM   H13A16332   1.055   0.428   3.635 -1.7845 -1.1212  0.3754
  148OSM   H13B16333   1.031   0.423   3.461 -2.5115 -1.7567  1.5787
  148OSM   H13C16334   0.935   0.527   3.567  0.9941  1.8254  1.8470
  148OSM    C1216335   1.081   0.700   3.449 -0.0250 -0.1011 -0.3668
  148OSM   H12A16336   1.076   0.638   3.361 -0.6721 -1.5137  0.6294
  148OSM   H12B16337   1.157   0.775   3.432  0.5332 -0.8809 -1.4011
  148OSM    C1116338   0.951   0.782   3.476 -0.5422  0.6518 -0.3327
  148OSM   H11A16339   0.867   0.710   3.489  0.8957 -0.9181  0.7556
  148OSM   H11B16340   0.923   0.837   3.383 -2.1765  1.2168  0.4592
  148OSM      P16341   1.018   1.016   3.557 -0.0715 -0.1574  0.1261
  148OSM    O1316342   1.143   1.017   3.475  0.1991  0.2545 -0.3723
  148OSM    O1416343   0.905   1.092   3.495  0.0946 -0.3643 -0.3830
  148OSM    O1116344   1.051   1.075   3.700  0.2538  0.3706 -0.2001
  148OSM    O1216345   0.969   0.870   3.584 -0.9163 -0.0577 -0.0801
  148OSM    C1S16346   0.957   1.071   3.805 -0.5685  0.6849  0.7196
  148OSM    H1S16347   0.963   0.970   3.850 -0.1318  0.9487  1.2612
  148OSM    H1T16348   0.851   1.074   3.771 -0.2257 -2.1245 -0.9218
  148OSM     NF16349   0.873   1.147   4.022 -0.4830  0.5058  0.5533
  148OSM    HNF16350   0.779   1.179   4.009 -1.1664 -1.0360  1.4257
  148OSM    C2S16351   0.965   1.183   3.914  0.0866 -0.1487  0.1343
  148OSM    H2S16352   1.067   1.187   3.958  0.2595  0.9479 -0.3341
  148OSM    C3S16353   0.933   1.321   3.857 -0.6250 -0.2654  0.3930
  148OSM    H3S16354   0.824   1.329   3.837  0.1203  1.2812 -4.4158
  148OSM     O316355   1.002   1.342   3.733  0.6313  0.2278 -0.4938
  148OSM    HO316356   1.026   1.252   3.710  2.0946  0.8403 -1.4887
  148OSM    C4S16357   0.986   1.431   3.948 -0.4364  0.4996  0.3547
  148OSM    H4S16358   1.093   1.420   3.968 -0.4561 -0.4653 -0.0205
  148OSM    C5S16359   0.917   1.521   4.011  0.0188 -0.8359  0.1669
  148OSM    H5S16360   0.807   1.508   4.008  0.1136 -1.6216 -0.6982
  148OSM    C6S16361   0.978   1.607   4.119 -0.6277  0.0398  0.6344
  148OSM    H6S16362   0.935   1.580   4.218  0.5568  0.7093  1.3603
  148OSM    H6T16363   0.974   1.717   4.105  0.4047  0.1311  0.9458
  148OSM    C7S16364   1.132   1.579   4.135 -0.2751 -0.6417 -0.0415
  148OSM    H7S16365   1.197   1.606   4.049 -1.0555  2.6649  0.2986
  148OSM    H7T16366   1.148   1.474   4.169 -0.3927  0.3630  3.5149
  148OSM    C8S16367   1.173   1.666   4.259  0.5174  0.3105 -0.1710
  148OSM    H8S16368   1.271   1.623   4.288  0.6170 -0.9115 -2.1675
  148OSM    H8T16369   1.100   1.644   4.340  1.1292 -3.2919 -0.4325
  148OSM    C9S16370   1.208   1.811   4.234 -0.0099 -0.6473  0.2750
  148OSM    H9S16371   1.116   1.867   4.206 -0.2144 -1.0842  0.0637
  148OSM    H9T16372   1.288   1.816   4.157 -1.0979 -0.6277 -0.8909
  148OSM   C10S16373   1.274   1.883   4.355 -0.1449  0.4186  0.7348
  148OSM   H10S16374   1.307   1.979   4.310  0.7545 -0.1909  0.0625
  148OSM   H10T16375   1.363   1.827   4.388  1.4525  2.1713 -0.3985
  148OSM   C11S16376   1.170   1.898   4.467  0.1833  0.2950  0.1644
  148OSM   H11S16377   1.148   1.795   4.504  0.7690  0.5476  1.2438
  148OSM   H11T16378   1.086   1.954   4.421 -0.9045 -0.9197  0.6010
  148OSM   C12S16379   1.216   1.980   4.586  0.5406 -0.4635 -0.1542
  148OSM   H12S16380   1.274   2.067   4.549  0.0669 -0.4653 -0.9220
  148OSM   H12T16381   1.288   1.914   4.638 -0.7900 -0.9420  1.1646
  148OSM   C13S16382   1.103   2.013   4.688  0.1186 -0.1953  0.1543
  148OSM   H13S16383   1.068   1.914   4.726  2.0823 -0.9800  0.0070
  148OSM   H13T16384   1.022   2.070   4.636 -0.9530 -3.9558 -2.7425
  148OSM   C14S16385   1.164   2.077   4.813 -0.2738 -0.4897  0.3713
  148OSM   H14S16386   1.234   2.152   4.768 -0.3932  0.4292  1.6641
  148OSM   H14T16387   1.220   1.999   4.868  2.3568 -0.4258 -1.9736
  148OSM   C15S16388   1.066   2.147   4.901 -0.0137  0.4974  0.2809
  148OSM   H15S16389   0.986   2.077   4.931 -0.5527  1.3086  0.7904
  148OSM   H15T16390   1.021   2.229   4.840 -1.1963 -0.3505  0.0044
  148OSM   C16S16391   1.114   2.202   5.042  0.0161  0.2487 -0.2173
  148OSM   H16S16392   1.025   2.256   5.080 -0.2486  1.3421 -2.2625
  148OSM   H16T16393   1.201   2.269   5.023  0.7181 -0.5411  0.1681
  148OSM   C17S16394   1.166   2.107   5.143 -0.6481 -0.0162 -0.2724
  148OSM   H17S16395   1.265   2.063   5.118 -1.7901 -1.8261 -1.8993
  148OSM   H17T16396   1.109   2.012   5.132 -1.2069  0.2688  0.1102
  148OSM   C18S16397   1.151   2.176   5.275 -0.7017  0.2773  0.3083
  148OSM   H18S16398   1.045   2.203   5.296 -1.1806 -1.6832  0.6692
  148OSM   H18T16399   1.216   2.265   5.284  1.6943 -1.5934  3.6164
  148OSM   H18U16400   1.177   2.121   5.368 -1.3176  5.5141  4.0341
  148OSM    C1F16401   0.900   1.063   4.121 -0.6597  0.2068  0.6162
  148OSM     OF16402   1.003   0.993   4.124 -0.0432 -0.5756  0.0327
  148OSM    C2F16403   0.792   1.043   4.229 -0.3898 -0.1636 -0.6706
  148OSM    H2F16404   0.821   0.955   4.289  0.2978  0.3695 -0.2082
  148OSM    H2G16405   0.707   1.020   4.161  1.0520 -1.6774 -2.0591
  148OSM    C3F16406   0.781   1.169   4.309  0.1459  0.2122  1.2052
  148OSM    H3F16407   0.703   1.153   4.387 -0.9087  1.7411  0.5075
  148OSM    H3G16408   0.734   1.243   4.241 -1.3143 -1.5781  0.1583
  148OSM    C4F16409   0.907   1.219   4.372 -0.6982  0.3361  0.6890
  148OSM    H4F16410   0.977   1.233   4.286 -0.4423 -1.8270  0.4796
  148OSM    H4G16411   0.944   1.140   4.442 -0.3749  0.4775  0.6807
  148OSM    C5F16412   0.889   1.340   4.459 -0.0482  0.0333  0.2618
  148OSM    H5F16413   0.826   1.311   4.546  0.3500 -1.6792 -0.0017
  148OSM    H5G16414   0.848   1.426   4.400  1.0483  0.6443  0.3753
  148OSM    C6F16415   1.019   1.385   4.523 -0.8366  0.3010 -0.2998
  148OSM    H6F16416   1.093   1.397   4.441 -1.5162  0.1030 -0.9549
  148OSM    H6G16417   1.055   1.307   4.594  0.0551  1.9914  1.1883
  148OSM    C7F16418   1.007   1.509   4.611  0.2664 -0.1644  0.0846
  148OSM    H7F16419   0.934   1.489   4.693 -0.7110 -1.5834 -1.1031
  148OSM    H7G16420   0.979   1.602   4.556 -0.8068  0.6218  1.8541
  148OSM    C8F16421   1.139   1.543   4.682  0.5982  0.2228  0.1830
  148OSM    H8F16422   1.212   1.562   4.601 -1.5375  1.1186 -1.6503
  148OSM    H8G16423   1.180   1.455   4.737  2.6397  0.4945 -0.8098
  148OSM    C9F16424   1.150   1.652   4.788 -0.2369  0.9991  0.6095
  148OSM    H9F16425   1.175   1.753   4.753 -2.5194  1.4023 -0.0134
  148OSM   C10F16426   1.120   1.643   4.922  0.2949  0.3238  0.1453
  148OSM   H10F16427   1.130   1.733   4.984 -1.0053  0.0850  0.7324
  148OSM   C11F16428   1.067   1.517   4.988 -0.3112  0.2178 -0.0680
  148OSM   H11F16429   1.039   1.443   4.910 -1.2908  0.4065  0.0917
  148OSM   H11G16430   0.974   1.532   5.047 -0.5287 -1.3135  0.0340
  148OSM   C12F16431   1.171   1.451   5.084  0.3139  0.1298 -0.2410
  148OSM   H12F16432   1.115   1.379   5.148  1.9466 -1.4211 -0.4615
  148OSM   H12G16433   1.210   1.523   5.159  3.7207 -0.4409 -1.2564
  148OSM   C13F16434   1.294   1.377   5.026 -0.9331 -0.0346  0.6934
  148OSM   H13F16435   1.370   1.362   5.106 -0.1999  2.8047  0.6312
  148OSM   H13G16436   1.334   1.445   4.947 -1.7137  0.2054  0.4955
  148OSM   C14F16437   1.251   1.245   4.964  0.4618 -0.1052  0.3356
  148OSM   H14F16438   1.170   1.248   4.888 -2.1199  0.2500  2.9322
  148OSM   H14G16439   1.194   1.196   5.046 -1.3553  1.0064 -0.2133
  148OSM   C15F16440   1.363   1.152   4.921  0.0282 -0.0654 -0.3108
  148OSM   H15F16441   1.380   1.068   4.992  1.7911  0.9425  0.5391
  148OSM   H15G16442   1.452   1.219   4.914 -0.1778  0.0967 -1.7444
  148OSM   C16F16443   1.355   1.095   4.784 -0.8110  0.2792  0.2939
  148OSM   H16F16444   1.446   1.042   4.749 -2.0396 -3.3733  2.0755
  148OSM   H16G16445   1.332   1.182   4.720 -2.1200 -1.0779 -1.1815
  148OSM   C17F16446   1.244   1.004   4.761 -0.2218 -0.5854  0.9819
  148OSM   H17F16447   1.147   1.043   4.799 -1.0825 -1.8856  0.2305
  148OSM   H17G16448   1.252   0.908   4.817  1.1383 -1.2223 -0.2482
  148OSM   C18F16449   1.217   0.962   4.611 -0.8463 -0.6907 -0.3424
  148OSM   H18F16450   1.317   0.953   4.562 -0.2065  1.5471  0.4286
  148OSM   H18G16451   1.158   1.035   4.551 -2.6136  0.2648  2.3954
  148OSM   H18H16452   1.163   0.866   4.624 -1.0111 -0.5062  0.3672
  149OSM      N16453   1.265   1.903   3.384  0.4183  0.0368  0.2226
  149OSM    C1516454   1.352   2.017   3.435 -0.1367 -0.1076 -0.2498
  149OSM   H15A16455   1.439   1.989   3.493 -0.3439 -0.5474 -0.1527
  149OSM   H15B16456   1.282   2.074   3.495 -2.4503 -0.8428 -2.1312
  149OSM   H15C16457   1.392   2.081   3.358  1.7861 -0.4960  0.3610
  149OSM    C1416458   1.151   1.956   3.305  0.0854  0.5329 -0.1176
  149OSM   H14A16459   1.179   2.027   3.229 -0.0106 -0.1162 -0.7807
  149OSM   H14B16460   1.079   2.006   3.367 -0.4125 -0.1995 -0.0871
  149OSM   H14C16461   1.098   1.876   3.256 -0.0769  0.2200  0.5559
  149OSM    C1316462   1.354   1.836   3.279 -0.4753  0.8336 -0.4061
  149OSM   H13A16463   1.296   1.752   3.242 -0.6817 -0.2316  2.1497
  149OSM   H13B16464   1.432   1.785   3.333 -3.3699 -3.2545  0.3908
  149OSM   H13C16465   1.401   1.897   3.203 -0.2397 -0.5782 -1.4456
  149OSM    C1216466   1.216   1.802   3.487  0.8465 -0.0013 -0.2187
  149OSM   H12A16467   1.163   1.725   3.432 -1.6218  1.3212  0.1949
  149OSM   H12B16468   1.131   1.838   3.542 -0.4274 -0.5811 -1.7084
  149OSM    C1116469   1.320   1.742   3.587 -0.4280 -0.0195 -0.3094
  149OSM   H11A16470   1.257   1.686   3.659  0.0717  0.3650  0.4381
  149OSM   H11B16471   1.376   1.824   3.637 -0.5571  0.3058 -0.6933
  149OSM      P16472   1.410   1.507   3.513 -0.0740 -0.0076 -0.1445
  149OSM    O1316473   1.292   1.472   3.426  0.2718 -0.6257 -0.8071
  149OSM    O1416474   1.537   1.443   3.471 -0.0810 -0.2225  0.1534
  149OSM    O1116475   1.373   1.482   3.661 -0.4617  0.0128 -0.1718
  149OSM    O1216476   1.425   1.667   3.519  0.2357 -0.5988  0.4442
  149OSM    C1S16477   1.473   1.535   3.760  0.1493 -0.1265 -0.3953
  149OSM    H1S16478   1.484   1.645   3.749  0.2608 -0.0932  0.0480
  149OSM    H1T16479   1.574   1.491   3.750  0.5704  0.2359  1.9153
  149OSM     NF16480   1.514   1.567   4.006 -0.3470  0.1534  0.9219
  149OSM    HNF16481   1.587   1.511   4.043  0.4535  1.2455  1.0314
  149OSM    C2S16482   1.435   1.495   3.901 -0.1318  0.5669  0.4424
  149OSM    H2S16483   1.331   1.534   3.904 -0.5715 -0.4345 -0.7795
  149OSM    C3S16484   1.438   1.334   3.911 -0.2376 -0.2370 -0.0232
  149OSM    H3S16485   1.546   1.306   3.908  0.3557  1.6222  1.8006
  149OSM     O316486   1.382   1.266   3.805  0.0550 -0.2038  0.4840
  149OSM    HO316487   1.359   1.338   3.745 -0.9163 -1.3322 -0.5768
  149OSM    C4S16488   1.382   1.295   4.042  0.8100 -0.3788 -0.8755
  149OSM    H4S16489   1.274   1.313   4.056  0.1533 -1.7741 -3.4714
  149OSM    C5S16490   1.439   1.222   4.139 -0.1214 -0.5952 -0.3450
  149OSM    H5S16491   1.543   1.185   4.133  0.4801  1.0118 -0.5415
  149OSM    C6S16492   1.363   1.175   4.266  0.1889  0.2566 -0.3254
  149OSM    H6S16493   1.403   1.075   4.293  1.1283  0.5221 -0.7044
  149OSM    H6T16494   1.254   1.152   4.260  0.3024 -0.1595 -0.8584
  149OSM    C7S16495   1.387   1.278   4.377 -0.0081 -0.0266  0.8611
  149OSM    H7S16496   1.315   1.252   4.458  0.0236  1.4103  1.3846
  149OSM    H7T16497   1.353   1.373   4.331  1.2324 -0.3911 -0.8949
  149OSM    C8S16498   1.526   1.277   4.432 -0.2573 -0.3832  0.6358
  149OSM    H8S16499   1.608   1.286   4.358  0.7998  1.2198  1.9291
  149OSM    H8T16500   1.545   1.179   4.480  3.2749 -0.0042  0.2851
  149OSM    C9S16501   1.560   1.396   4.525  0.1675 -0.0856 -0.5625
  149OSM    H9S16502   1.660   1.362   4.560  0.3467  0.3067 -0.6897
  149OSM    H9T16503   1.500   1.403   4.618  0.3934 -0.7943 -0.3552
  149OSM   C10S16504   1.566   1.526   4.444 -0.5804 -0.3865  0.2439
  149OSM   H10S16505   1.468   1.576   4.425  0.1326  0.5522 -1.1021
  149OSM   H10T16506   1.620   1.498   4.351  0.2677 -4.2861  1.7239
  149OSM   C11S16507   1.671   1.620   4.517  0.0069  0.1759 -0.7825
  149OSM   H11S16508   1.710   1.696   4.446  0.1403  1.1284  0.2765
  149OSM   H11T16509   1.764   1.568   4.547 -0.1091  0.5134  0.1885
  149OSM   C12S16510   1.592   1.681   4.634 -0.2756 -0.5522 -0.4723
  149OSM   H12S16511   1.555   1.598   4.698  1.8545 -0.8214  0.5043
  149OSM   H12T16512   1.504   1.731   4.589  1.2052  0.4544 -2.3781
  149OSM   C13S16513   1.686   1.775   4.716  0.0737 -0.1872 -0.5657
  149OSM   H13S16514   1.716   1.857   4.647  0.0850  0.1858 -0.1211
  149OSM   H13T16515   1.771   1.713   4.753 -1.3023 -0.8917  1.6344
  149OSM   C14S16516   1.602   1.838   4.834 -0.8867  0.5526  0.0254
  149OSM   H14S16517   1.506   1.873   4.790 -1.3840 -0.0974  0.5783
  149OSM   H14T16518   1.657   1.928   4.869  2.4061 -1.7529  1.2965
  149OSM   C15S16519   1.557   1.753   4.952  0.9742 -0.1448  0.4412
  149OSM   H15S16520   1.651   1.701   4.981  1.2920 -0.7652 -1.5282
  149OSM   H15T16521   1.489   1.670   4.923 -0.5423  1.0342  0.5406
  149OSM   C16S16522   1.493   1.830   5.057 -0.2662  0.0745 -0.7148
  149OSM   H16S16523   1.406   1.876   5.005  0.2480  1.3258 -0.5118
  149OSM   H16T16524   1.567   1.902   5.098 -0.5887 -0.3548  0.6672
  149OSM   C17S16525   1.447   1.745   5.177  0.9980  0.0412  0.2355
  149OSM   H17S16526   1.516   1.658   5.185  2.3294  0.8472 -1.7503
  149OSM   H17T16527   1.345   1.705   5.159  1.5428 -1.8147  0.9577
  149OSM   C18S16528   1.465   1.831   5.307  0.9528  0.2601  0.2503
  149OSM   H18S16529   1.411   1.926   5.289  1.7555  0.5703 -0.5761
  149OSM   H18T16530   1.573   1.848   5.326  1.5847 -2.4099 -0.5225
  149OSM   H18U16531   1.427   1.779   5.397 -2.0465 -1.0006 -1.5956
  149OSM    C1F16532   1.510   1.699   4.020 -0.2548  0.5609 -0.1773
  149OSM     OF16533   1.432   1.769   3.966 -0.1970 -0.6366 -0.0216
  149OSM    C2F16534   1.633   1.751   4.088  0.2789  0.1881 -1.3082
  149OSM    H2F16535   1.716   1.776   4.019  2.4016 -0.9274  0.6923
  149OSM    H2G16536   1.673   1.685   4.168  0.7382  1.7374 -0.1983
  149OSM    C3F16537   1.587   1.880   4.167 -1.0803 -0.8682  0.0366
  149OSM    H3F16538   1.510   1.846   4.239 -0.2457  2.3519  2.6482
  149OSM    H3G16539   1.549   1.959   4.099  2.3153  1.8464  1.0278
  149OSM    C4F16540   1.693   1.956   4.248  0.4257 -0.2045 -0.0236
  149OSM    H4F16541   1.766   1.980   4.168 -0.6721  1.7705 -0.4893
  149OSM    H4G16542   1.756   1.892   4.314  2.1223  1.4111 -0.0180
  149OSM    C5F16543   1.644   2.083   4.320 -0.4018  0.0307  0.1295
  149OSM    H5F16544   1.568   2.117   4.246 -0.2836 -2.2701 -1.1344
  149OSM    H5G16545   1.729   2.155   4.327  1.4100 -1.9983  0.1410
  149OSM    C6F16546   1.584   2.061   4.463 -0.4674 -0.6044  0.6930
  149OSM    H6F16547   1.633   1.996   4.539  0.5171 -1.1369 -0.3762
  149OSM    H6G16548   1.496   1.999   4.433 -0.2571 -0.4973 -0.1722
  149OSM    C7F16549   1.558   2.196   4.529  0.4063  0.5550  0.9484
  149OSM    H7F16550   1.479   2.243   4.467 -1.5470 -1.9535  1.3363
  149OSM    H7G16551   1.646   2.263   4.515  1.0698 -0.5370 -0.3635
  149OSM    C8F16552   1.532   2.186   4.679  0.1657  0.3256 -0.5061
  149OSM    H8F16553   1.618   2.130   4.722 -1.7105 -0.2832  2.8491
  149OSM    H8G16554   1.448   2.116   4.696 -0.5003  0.7426 -1.9191
  149OSM    C9F16555   1.504   2.310   4.758 -0.1340 -0.3646  0.1419
  149OSM    H9F16556   1.488   2.396   4.691 -2.4397 -2.3025 -1.9974
  149OSM   C10F16557   1.496   2.322   4.891  0.5529  0.0032  0.6223
  149OSM   H10F16558   1.471   2.421   4.931  0.5243 -0.2493  1.2479
  149OSM   C11F16559   1.506   2.205   4.978 -0.0962 -0.0415 -0.4355
  149OSM   H11F16560   1.518   2.110   4.921 -0.6054  0.5813 -1.6187
  149OSM   H11G16561   1.419   2.196   5.047  1.8437 -1.9474  1.9540
  149OSM   C12F16562   1.632   2.219   5.079  0.3990 -0.2327 -0.0045
  149OSM   H12F16563   1.723   2.231   5.017  1.8450 -4.3974  1.0378
  149OSM   H12G16564   1.642   2.118   5.123 -1.1448  0.5720  2.4246
  149OSM   C13F16565   1.626   2.325   5.187 -0.8314  0.1460  0.5605
  149OSM   H13F16566   1.596   2.419   5.137  1.8152  0.9853  0.3765
  149OSM   H13G16567   1.733   2.333   5.215 -0.7805  2.5886 -0.1501
  149OSM   C14F16568   1.545   2.288   5.311  0.0947 -0.4657  0.0697
  149OSM   H14F16569   1.447   2.249   5.276  0.5224 -1.6464  0.1488
  149OSM   H14G16570   1.525   2.389   5.354  2.5820  0.3388 -0.4825
  149OSM   C15F16571   1.613   2.193   5.408 -0.7912  0.3302  0.0218
  149OSM   H15F16572   1.713   2.232   5.439 -0.4530 -1.5188  1.4314
  149OSM   H15G16573   1.627   2.098   5.352 -1.0323  0.2221  0.1448
  149OSM   C16F16574   1.528   2.157   5.529 -0.2683 -0.3330  0.0570
  149OSM   H16F16575   1.432   2.105   5.507 -1.3484  1.1281  1.1217
  149OSM   H16G16576   1.504   2.242   5.597  1.4970  0.6023 -0.4301
  149OSM   C17F16577   1.601   2.052   5.622 -0.0646  0.0170  0.3575
  149OSM   H17F16578   1.709   2.074   5.634  0.8458 -4.7251  3.5150
  149OSM   H17G16579   1.600   1.959   5.561  0.0631 -0.2456  0.7557
  149OSM   C18F16580   1.541   2.035   5.763 -0.3468 -0.0156 -0.1251
  149OSM   H18F16581   1.431   2.019   5.763 -0.3119 -0.3467 -0.9826
  149OSM   H18G16582   1.553   2.128   5.823 -1.2921 -0.3046  0.5306
  149OSM   H18H16583   1.577   1.944   5.816 -3.2912 -0.4863  1.3020
  150OSM      N16584   0.280   4.802   3.363 -0.2636  0.0829 -0.1880
  150OSM    C1516585   0.269   4.808   3.515  0.2382 -0.6902  0.4583
  150OSM   H15A16586   0.177   4.770   3.557 -1.0371  0.8175 -0.7936
  150OSM   H15B16587   0.267   4.913   3.543  1.6195 -0.1461 -1.2153
  150OSM   H15C16588   0.345   4.743   3.553  0.7731 -0.3760 -0.0479
  150OSM    C1416589   0.409   4.867   3.320  0.7410 -0.2709 -0.8326
  150OSM   H14A16590   0.410   4.966   3.362  0.9599 -1.2368  1.6385
  150OSM   H14B16591   0.401   4.876   3.213 -1.9975  1.0130 -0.6068
  150OSM   H14C16592   0.493   4.810   3.359  0.7076  0.2613  0.0502
  150OSM    C1316593   0.284   4.654   3.322 -0.3448 -0.0275 -0.1564
  150OSM   H13A16594   0.197   4.601   3.360  0.2774 -0.9990 -0.0422
  150OSM   H13B16595   0.366   4.619   3.383 -0.8363 -0.6209  0.1896
  150OSM   H13C16596   0.290   4.624   3.218 -2.6260 -0.5305 -0.2051
  150OSM    C1216597   0.165   4.879   3.296 -0.5534  0.0702 -0.7190
  150OSM   H12A16598   0.078   4.818   3.315 -0.9794  0.1809 -2.1583
  150OSM   H12B16599   0.178   4.883   3.189  3.5626 -2.5028 -0.5677
  150OSM    C1116600   0.132   5.028   3.347  0.3008 -0.0079  0.9830
  150OSM   H11A16601   0.075   5.081   3.268 -2.2815  0.4616  3.0029
  150OSM   H11B16602   0.225   5.086   3.366  0.1748  0.4646  0.1770
  150OSM      P16603  -0.086   4.973   3.477  0.1454  0.1073  0.1057
  150OSM    O1316604  -0.177   5.070   3.415 -0.2730  1.1107 -0.1172
  150OSM    O1416605  -0.101   4.827   3.434 -0.4484 -0.4622 -0.1674
  150OSM    O1116606  -0.108   4.976   3.639 -0.0329  0.5702  0.7070
  150OSM    O1216607   0.062   5.027   3.466 -0.2233 -0.1494  0.1460
  150OSM    C1S16608  -0.066   4.870   3.720  0.3791 -0.2858 -0.0409
  150OSM    H1S16609   0.035   4.831   3.695  0.1981 -1.9259  1.6168
  150OSM    H1T16610  -0.134   4.784   3.709 -0.3533  0.0141  1.7780
  150OSM     NF16611  -0.034   4.783   3.944  0.1027 -0.3281  0.3986
  150OSM    HNF16612  -0.117   4.735   3.973 -2.3721  2.3546 -1.6911
  150OSM    C2S16613  -0.069   4.903   3.876  0.7581  0.4986 -0.0999
  150OSM    H2S16614   0.008   4.981   3.900 -0.6174  1.1961  2.4182
  150OSM    C3S16615  -0.208   4.966   3.912 -0.0676 -0.0483 -0.4380
  150OSM    H3S16616  -0.283   4.887   3.894 -0.8108  0.4465  0.4051
  150OSM     O316617  -0.248   5.077   3.832 -0.0809  0.3324  0.3224
  150OSM    HO316618  -0.190   5.075   3.755 -1.4339 -2.8108 -0.8032
  150OSM    C4S16619  -0.222   5.003   4.055  0.0551 -0.2676  0.1444
  150OSM    H4S16620  -0.267   4.929   4.122  0.9256  0.6263  1.7761
  150OSM    C5S16621  -0.209   5.132   4.107 -0.4358 -0.5462  0.1688
  150OSM    H5S16622  -0.198   5.217   4.037  1.2901 -1.7694 -1.1323
  150OSM    C6S16623  -0.232   5.185   4.241 -0.0765 -0.7569 -0.3405
  150OSM    H6S16624  -0.330   5.235   4.253  0.6669  1.1478 -1.6463
  150OSM    H6T16625  -0.152   5.262   4.249  0.7009 -1.3686 -1.7124
  150OSM    C7S16626  -0.212   5.085   4.359  0.1077  0.0734 -0.2228
  150OSM    H7S16627  -0.112   5.039   4.345 -0.5303 -0.9767 -1.4877
  150OSM    H7T16628  -0.287   5.005   4.344  0.8451 -0.9327  1.1611
  150OSM    C8S16629  -0.239   5.156   4.497 -0.6009  0.0712 -0.1633
  150OSM    H8S16630  -0.347   5.180   4.494 -0.4404  0.7779 -0.7238
  150OSM    H8T16631  -0.184   5.253   4.501  2.3582 -1.5043  1.0094
  150OSM    C9S16632  -0.203   5.071   4.612  0.3780  0.6183 -1.1539
  150OSM    H9S16633  -0.097   5.042   4.595  0.5486  1.5309 -1.7532
  150OSM    H9T16634  -0.274   4.986   4.607  0.5158  0.5310 -1.7178
  150OSM   C10S16635  -0.223   5.140   4.745 -0.1594 -0.1987  0.0506
  150OSM   H10S16636  -0.328   5.162   4.773 -0.2939  0.2511 -0.7748
  150OSM   H10T16637  -0.169   5.237   4.748 -1.3912  0.5306 -0.3894
  150OSM   C11S16638  -0.167   5.055   4.859  0.1068  0.2022  0.1177
  150OSM   H11S16639  -0.060   5.033   4.839 -0.0109  0.4402 -0.8695
  150OSM   H11T16640  -0.234   4.967   4.862 -0.7826  0.8393 -0.2853
  150OSM   C12S16641  -0.190   5.127   4.996 -0.1578  0.0944 -0.3855
  150OSM   H12S16642  -0.299   5.113   5.016 -0.2747 -1.1871 -1.6861
  150OSM   H12T16643  -0.169   5.236   4.996 -0.1045  0.1909  2.9947
  150OSM   C13S16644  -0.103   5.065   5.108 -0.1251  0.0571  0.0577
  150OSM   H13S16645   0.003   5.068   5.077 -0.3050  1.3848 -0.5037
  150OSM   H13T16646  -0.114   4.956   5.125  2.1319 -0.3076 -0.5547
  150OSM   C14S16647  -0.121   5.135   5.241  0.0795  0.0441 -0.4573
  150OSM   H14S16648  -0.222   5.116   5.284  0.6482  1.5548  1.7373
  150OSM   H14T16649  -0.098   5.243   5.244 -1.1605  0.3353 -0.9262
  150OSM   C15S16650  -0.024   5.079   5.349 -0.3367  0.7475  0.1516
  150OSM   H15S16651   0.078   5.058   5.309 -0.9076 -0.6794 -0.6374
  150OSM   H15T16652  -0.069   4.978   5.363 -1.8277  1.2944 -0.5933
  150OSM   C16S16653  -0.020   5.156   5.482 -0.6151  0.1876  0.1480
  150OSM   H16S16654   0.019   5.256   5.452  0.2030 -0.3208 -0.5457
  150OSM   H16T16655   0.047   5.105   5.556  0.8248  0.6711 -0.7776
  150OSM   C17S16656  -0.157   5.173   5.540  0.3747  0.3444  0.0102
  150OSM   H17S16657  -0.203   5.073   5.554  0.3098  0.4915  0.9045
  150OSM   H17T16658  -0.219   5.216   5.458 -0.6266  0.1783  0.6643
  150OSM   C18S16659  -0.162   5.253   5.673 -0.0800  0.7529 -0.2525
  150OSM   H18S16660  -0.102   5.202   5.752 -0.4954  1.6239  0.6457
  150OSM   H18T16661  -0.268   5.268   5.704  0.5935  1.8681  1.7462
  150OSM   H18U16662  -0.118   5.354   5.660  1.9640  0.2055  1.7502
  150OSM    C1F16663   0.091   4.731   3.947 -0.1547  0.1833 -0.4497
  150OSM     OF16664   0.187   4.784   3.891 -0.1663  0.4544 -0.3087
  150OSM    C2F16665   0.112   4.601   4.025  0.2147  1.0063 -0.0774
  150OSM    H2F16666   0.134   4.517   3.956 -0.1551  0.4882  0.4218
  150OSM    H2G16667   0.025   4.568   4.085  0.2789  2.0556  0.6305
  150OSM    C3F16668   0.230   4.608   4.123  0.1008 -0.2295 -0.2538
  150OSM    H3F16669   0.314   4.663   4.076 -1.2976 -0.0952 -2.7810
  150OSM    H3G16670   0.265   4.504   4.141 -1.2186 -0.7198 -0.3985
  150OSM    C4F16671   0.199   4.677   4.257 -0.3944 -0.1302  0.1049
  150OSM    H4F16672   0.286   4.667   4.325 -1.3094 -0.4112  1.2655
  150OSM    H4G16673   0.113   4.617   4.293 -1.4935  0.4948 -1.3676
  150OSM    C5F16674   0.152   4.825   4.255  0.4877  0.6753 -0.9771
  150OSM    H5F16675   0.063   4.856   4.196  0.4094 -0.0208 -1.2272
  150OSM    H5G16676   0.244   4.874   4.214  2.6146 -1.1938  1.2836
  150OSM    C6F16677   0.122   4.874   4.401  0.1452 -0.0870 -0.2151
  150OSM    H6F16678   0.026   4.824   4.425 -0.6541 -0.5503 -3.8100
  150OSM    H6G16679   0.105   4.984   4.403  1.4608  0.1380 -0.3568
  150OSM    C7F16680   0.224   4.834   4.501 -0.2339 -0.2036 -0.4185
  150OSM    H7F16681   0.322   4.878   4.476 -1.3209  1.7678 -1.4345
  150OSM    H7G16682   0.232   4.723   4.504 -0.4218 -0.2315 -0.8765
  150OSM    C8F16683   0.181   4.886   4.642 -0.1113 -0.2736 -0.0625
  150OSM    H8F16684   0.077   4.847   4.657  0.4917 -2.1982 -0.5515
  150OSM    H8G16685   0.167   4.996   4.643 -1.0163 -0.3492 -1.5600
  150OSM    C9F16686   0.285   4.840   4.743  0.4331  0.0047  0.4964
  150OSM    H9F16687   0.379   4.894   4.726 -0.1655  0.3097 -2.3006
  150OSM   C10F16688   0.276   4.754   4.845 -0.2193 -0.2487  0.3812
  150OSM   H10F16689   0.362   4.744   4.912 -0.4718 -0.8136  0.6316
  150OSM   C11F16690   0.147   4.700   4.898 -0.1349  0.0009  0.2919
  150OSM   H11F16691   0.155   4.589   4.899 -1.4099 -0.1073  0.3545
  150OSM   H11G16692   0.064   4.741   4.838  0.6107 -0.0112 -0.7838
  150OSM   C12F16693   0.124   4.750   5.039  0.5491 -0.5673  0.0885
  150OSM   H12F16694   0.023   4.711   5.065  0.0275  1.0592  0.6284
  150OSM   H12G16695   0.115   4.860   5.056  0.9693  0.0967 -3.2850
  150OSM   C13F16696   0.225   4.685   5.135  0.6138 -0.2163 -0.2935
  150OSM   H13F16697   0.331   4.715   5.116  0.8010  2.5059  3.7618
  150OSM   H13G16698   0.229   4.577   5.109  0.5240  0.0070 -1.2753
  150OSM   C14F16699   0.208   4.706   5.282 -0.4375 -0.2527  0.5377
  150OSM   H14F16700   0.221   4.815   5.298  1.8121 -0.5187  0.8599
  150OSM   H14G16701   0.297   4.669   5.338 -0.6457  0.2673  1.2372
  150OSM   C15F16702   0.079   4.649   5.344  0.3987  0.1813  0.3794
  150OSM   H15F16703   0.085   4.538   5.344  1.2479  0.2190  0.3247
  150OSM   H15G16704   0.000   4.696   5.282 -0.8163 -1.4029  0.6527
  150OSM   C16F16705   0.065   4.708   5.481 -0.8394 -0.1910 -0.0896
  150OSM   H16F16706   0.069   4.819   5.472  1.8737 -0.2662 -0.6719
  150OSM   H16G16707   0.149   4.689   5.551 -0.8715 -2.4291 -0.5933
  150OSM   C17F16708  -0.050   4.653   5.564  0.0236 -0.4430  0.3478
  150OSM   H17F16709  -0.056   4.727   5.647  1.0333 -0.5895  0.5600
  150OSM   H17G16710  -0.029   4.556   5.614  1.6326  0.4171  1.4405
  150OSM   C18F16711  -0.189   4.654   5.490 -0.3683  0.7772 -0.2337
  150OSM   H18F16712  -0.268   4.626   5.563 -2.4119  2.5879 -1.6187
  150OSM   H18G16713  -0.184   4.571   5.416  1.1763  2.6905 -2.4128
  150OSM   H18H16714  -0.206   4.756   5.449  1.5363  2.5452  2.9585
  151OSM      N16715   1.208   4.222   3.080 -0.6703  0.6265  0.4316
  151OSM    C1516716   1.269   4.313   2.972 -0.3808  0.0946  0.0900
  151OSM   H15A16717   1.375   4.313   2.989 -0.4597  0.7867  0.6268
  151OSM   H15B16718   1.235   4.415   2.986 -1.3813 -0.1903 -0.1593
  151OSM   H15C16719   1.248   4.272   2.874  0.3512 -1.7704  0.6721
  151OSM    C1416720   1.061   4.231   3.054 -0.5075  0.5190 -0.3353
  151OSM   H14A16721   1.010   4.161   3.117  1.7072  0.7144  1.8024
  151OSM   H14B16722   1.041   4.204   2.951  1.6309  2.1820 -1.2847
  151OSM   H14C16723   1.027   4.333   3.067  0.0188  0.9078 -1.8244
  151OSM    C1316724   1.251   4.079   3.064  0.3048  0.2190 -0.4212
  151OSM   H13A16725   1.228   4.041   2.965 -1.3940  1.7684 -0.6663
  151OSM   H13B16726   1.210   4.018   3.143  0.9433  1.5229  0.9737
  151OSM   H13C16727   1.359   4.078   3.067  0.3380 -1.1364 -1.0606
  151OSM    C1216728   1.243   4.266   3.221 -0.1605  0.7825  0.0452
  151OSM   H12A16729   1.207   4.363   3.253 -0.9635 -0.0451  1.8196
  151OSM   H12B16730   1.349   4.253   3.234 -0.1304  0.7154 -0.2596
  151OSM    C1116731   1.182   4.188   3.342 -0.4268 -0.4472  0.5303
  151OSM   H11A16732   1.072   4.194   3.327 -0.7034 -0.0228  2.4861
  151OSM   H11B16733   1.201   4.247   3.434 -1.8497  1.4461 -0.3375
  151OSM      P16734   1.384   4.028   3.386  0.1369 -0.1307  0.7579
  151OSM    O1316735   1.426   3.909   3.308  0.4514  0.1380 -0.2433
  151OSM    O1416736   1.466   4.154   3.360  0.3266  0.7530  0.1413
  151OSM    O1116737   1.390   3.997   3.539 -0.0306  0.2398 -0.6194
  151OSM    O1216738   1.229   4.054   3.361  0.1293 -0.1044 -0.0666
  151OSM    C1S16739   1.317   3.886   3.594  0.0668 -0.5768 -0.8131
  151OSM    H1S16740   1.376   3.794   3.571  1.7883  0.0358  0.8808
  151OSM    H1T16741   1.217   3.874   3.548 -0.3789 -0.5073  0.1329
  151OSM     NF16742   1.246   3.786   3.807  0.3904 -0.2118 -0.4110
  151OSM    HNF16743   1.160   3.807   3.852 -0.5043  0.2086 -2.1975
  151OSM    C2S16744   1.302   3.901   3.748  0.1975 -0.0399 -1.5830
  151OSM    H2S16745   1.405   3.912   3.788 -0.8073  2.5068  0.6455
  151OSM    C3S16746   1.224   4.028   3.791 -0.0194  0.0028 -0.1495
  151OSM    H3S16747   1.117   4.018   3.762  0.2570 -0.7210 -0.9790
  151OSM     O316748   1.269   4.139   3.716 -0.2225  0.3975  0.0965
  151OSM    HO316749   1.315   4.093   3.646 -0.6398  0.5866 -0.3110
  151OSM    C4S16750   1.239   4.053   3.933  0.1804 -0.2810 -0.8532
  151OSM    H4S16751   1.343   4.068   3.964  1.1209 -2.3699 -2.7646
  151OSM    C5S16752   1.141   4.064   4.026  0.7319  0.3631  0.5896
  151OSM    H5S16753   1.040   4.027   4.003  0.5870 -0.4990  2.4378
  151OSM    C6S16754   1.169   4.087   4.172  0.6316 -0.5238  0.0515
  151OSM    H6S16755   1.113   4.176   4.210 -0.7819 -1.4671  0.2515
  151OSM    H6T16756   1.275   4.115   4.190 -0.0435  0.6356  2.8269
  151OSM    C7S16757   1.142   3.978   4.273  0.3969  0.3659 -0.1961
  151OSM    H7S16758   1.033   3.957   4.278  0.2528  0.6093 -1.7123
  151OSM    H7T16759   1.171   4.021   4.371 -1.2269  1.4983 -0.1657
  151OSM    C8S16760   1.226   3.852   4.248 -0.0591 -0.5713 -0.0748
  151OSM    H8S16761   1.226   3.839   4.138 -0.5360  3.3230 -0.6880
  151OSM    H8T16762   1.185   3.761   4.297 -1.0534 -0.4751 -0.6959
  151OSM    C9S16763   1.375   3.863   4.292  0.1769  0.1834  0.0918
  151OSM    H9S16764   1.424   3.960   4.265  2.2423 -0.8378 -0.0610
  151OSM    H9T16765   1.437   3.800   4.224 -0.5639  1.1762 -1.5552
  151OSM   C10S16766   1.408   3.839   4.438  0.5269  0.0298 -0.2968
  151OSM   H10S16767   1.405   3.733   4.470  0.5808  0.4454  1.1264
  151OSM   H10T16768   1.339   3.888   4.509  1.5523 -1.4809  1.8281
  151OSM   C11S16769   1.555   3.877   4.465 -0.2325  0.2623 -0.1332
  151OSM   H11S16770   1.561   3.986   4.444 -1.0307  1.0702  3.3059
  151OSM   H11T16771   1.611   3.807   4.399  0.6292  1.5082 -0.7622
  151OSM   C12S16772   1.588   3.865   4.619  0.0524 -0.1057  0.0127
  151OSM   H12S16773   1.586   3.757   4.646  1.4482 -0.1757 -0.0760
  151OSM   H12T16774   1.518   3.935   4.669  1.0907  1.3550 -0.5231
  151OSM   C13S16775   1.730   3.924   4.653  0.0412  0.4182 -0.6558
  151OSM   H13S16776   1.726   3.944   4.762  2.1547 -2.9122  0.1531
  151OSM   H13T16777   1.741   4.014   4.588 -0.3365  0.7427 -0.2812
  151OSM   C14S16778   1.853   3.829   4.634 -0.6045  0.2538 -0.6648
  151OSM   H14S16779   1.847   3.799   4.527 -0.2973  1.9642 -1.1854
  151OSM   H14T16780   1.830   3.741   4.699  1.8548 -0.1657 -0.2779
  151OSM   C15S16781   1.988   3.897   4.681  0.0072  0.7640  0.7657
  151OSM   H15S16782   2.067   3.819   4.672 -0.0584  0.7646  0.1104
  151OSM   H15T16783   1.969   3.923   4.787 -2.0239 -2.1742  1.2630
  151OSM   C16S16784   2.021   4.030   4.605  0.2644 -0.7398 -0.3522
  151OSM   H16S16785   1.926   4.086   4.593  1.2721  1.2921  0.5973
  151OSM   H16T16786   2.059   4.022   4.501 -2.6049 -2.5726 -1.3784
  151OSM   C17S16787   2.099   4.133   4.692  0.2699  0.8525 -0.2191
  151OSM   H17S16788   2.050   4.146   4.790 -1.0972 -2.7393 -0.2712
  151OSM   H17T16789   2.082   4.223   4.628 -1.8652 -0.0876 -1.0730
  151OSM   C18S16790   2.243   4.099   4.714  0.2214 -0.4975  0.3599
  151OSM   H18S16791   2.301   4.189   4.743  0.2310 -0.5649  0.5492
  151OSM   H18T16792   2.284   4.062   4.618 -1.3007 -0.4887 -0.3293
  151OSM   H18U16793   2.269   4.022   4.789  2.3193  1.0791  1.3540
  151OSM    C1F16794   1.297   3.665   3.804  0.5220  0.1978 -0.4106
  151OSM     OF16795   1.411   3.636   3.752  0.1634 -0.4913 -0.4523
  151OSM    C2F16796   1.211   3.556   3.869  0.2507  0.4385  0.0282
  151OSM    H2F16797   1.223   3.461   3.813 -1.6420 -0.7075  1.4545
  151OSM    H2G16798   1.104   3.584   3.865  0.2372  0.3815 -0.0111
  151OSM    C3F16799   1.243   3.521   4.021  0.0360 -0.3048  0.5994
  151OSM    H3F16800   1.257   3.619   4.072  2.8071 -0.2290 -0.1356
  151OSM    H3G16801   1.342   3.474   4.041 -0.0722 -1.3078 -0.9634
  151OSM    C4F16802   1.133   3.441   4.087  0.6422  0.3989 -0.0716
  151OSM    H4F16803   1.135   3.340   4.042 -1.7599  0.3929 -0.2679
  151OSM    H4G16804   1.043   3.502   4.067  1.2095  1.1707 -0.3281
  151OSM    C5F16805   1.148   3.428   4.242  0.3773  0.1832  0.3008
  151OSM    H5F16806   1.179   3.530   4.275 -0.7998  0.2068  1.4064
  151OSM    H5G16807   1.222   3.349   4.267 -0.0483 -0.7679 -1.3074
  151OSM    C6F16808   1.012   3.412   4.316 -0.5111 -0.4074 -0.8389
  151OSM    H6F16809   0.964   3.319   4.281  0.0388 -0.6572 -0.9445
  151OSM    H6G16810   0.937   3.493   4.301 -3.4702 -2.8295 -0.0684
  151OSM    C7F16811   1.032   3.403   4.469  0.4079 -1.1179  0.0257
  151OSM    H7F16812   1.050   3.506   4.506 -1.3899 -0.6711 -0.2589
  151OSM    H7G16813   1.119   3.335   4.487  2.3649  0.6572 -2.1439
  151OSM    C8F16814   0.909   3.341   4.544 -1.0167  0.0313 -0.5869
  151OSM    H8F16815   0.956   3.303   4.637 -0.1954  2.8977  0.2544
  151OSM    H8G16816   0.871   3.258   4.481 -1.4385  0.5199 -0.9870
  151OSM    C9F16817   0.795   3.435   4.574 -0.5007 -0.4264  0.5944
  151OSM    H9F16818   0.810   3.536   4.534 -1.6481 -0.9718 -1.3289
  151OSM   C10F16819   0.691   3.416   4.654 -0.1315  0.2985  0.1205
  151OSM   H10F16820   0.619   3.493   4.685 -0.4141  0.3850 -0.7104
  151OSM   C11F16821   0.651   3.288   4.728  0.1852 -0.0216  0.4841
  151OSM   H11F16822   0.734   3.214   4.719 -0.1471 -0.1589 -2.4821
  151OSM   H11G16823   0.568   3.238   4.674 -1.5099  4.1425 -1.1691
  151OSM   C12F16824   0.616   3.290   4.879  0.2394 -0.0071 -0.6650
  151OSM   H12F16825   0.613   3.194   4.936  1.4650  1.1334  1.4266
  151OSM   H12G16826   0.531   3.359   4.900  1.3806  0.9658  0.9579
  151OSM   C13F16827   0.726   3.371   4.959  0.5865 -0.8450  0.4255
  151OSM   H13F16828   0.720   3.472   4.912 -1.3678 -1.1496 -0.0573
  151OSM   H13G16829   0.819   3.311   4.945 -0.1951 -1.8789 -0.4692
  151OSM   C14F16830   0.694   3.374   5.109  0.0629  0.2021 -0.5039
  151OSM   H14F16831   0.585   3.366   5.131 -0.3148  0.8251 -2.0449
  151OSM   H14G16832   0.726   3.475   5.142 -0.6329 -0.0059  0.9121
  151OSM   C15F16833   0.772   3.268   5.193  0.1152  0.0973  0.1722
  151OSM   H15F16834   0.881   3.266   5.173  0.0439  2.2612 -0.7327
  151OSM   H15G16835   0.734   3.166   5.174  1.2971 -0.9158  2.7555
  151OSM   C16F16836   0.744   3.276   5.348 -0.2331 -0.0824  0.2632
  151OSM   H16F16837   0.780   3.182   5.393  1.0890 -1.3136 -3.0310
  151OSM   H16G16838   0.633   3.270   5.352 -0.3114  1.3918  1.0002
  151OSM   C17F16839   0.807   3.400   5.413 -0.0826 -0.3780  0.1917
  151OSM   H17F16840   0.734   3.483   5.403 -0.1010 -0.1605  1.7799
  151OSM   H17G16841   0.903   3.443   5.377 -0.1474  0.2390  0.7147
  151OSM   C18F16842   0.816   3.373   5.563  0.0400  0.0748  0.4144
  151OSM   H18F16843   0.861   3.272   5.577  5.1387  2.0739  0.3968
  151OSM   H18G16844   0.718   3.382   5.616 -0.9214 -1.7352 -0.9330
  151OSM   H18H16845   0.886   3.445   5.611 -0.0948  0.6375 -0.2307
  152OSM      N16846   0.198   6.321   3.452 -0.4041  0.1336 -0.3664
  152OSM    C1516847   0.196   6.297   3.302  0.3680 -0.5840 -0.1399
  152OSM   H15A16848   0.213   6.193   3.280 -0.5410 -1.2825  2.1851
  152OSM   H15B16849   0.249   6.369   3.242 -0.0293  0.2906  0.5338
  152OSM   H15C16850   0.092   6.304   3.275  0.2802 -3.3587 -0.8058
  152OSM    C1416851   0.339   6.354   3.508  0.2141  0.3320  0.2015
  152OSM   H14A16852   0.391   6.261   3.518 -0.2229  0.1442  0.7675
  152OSM   H14B16853   0.322   6.399   3.605 -0.9534 -1.5684  0.9355
  152OSM   H14C16854   0.397   6.411   3.437  0.6409 -0.1906  0.1290
  152OSM    C1316855   0.118   6.439   3.487 -0.2565  0.7672  0.3366
  152OSM   H13A16856   0.016   6.422   3.455  0.2475  0.0008 -0.9804
  152OSM   H13B16857   0.156   6.528   3.439 -1.7386  0.3127 -1.8359
  152OSM   H13C16858   0.124   6.448   3.595  1.2849 -0.7123  0.4208
  152OSM    C1216859   0.147   6.189   3.518  0.7989  0.0470 -1.6286
  152OSM   H12A16860   0.217   6.108   3.502  1.6945  0.4600 -0.0881
  152OSM   H12B16861   0.055   6.160   3.470 -0.2458 -0.7447  0.7046
  152OSM    C1116862   0.116   6.191   3.670 -0.1807 -0.5095 -0.1486
  152OSM   H11A16863   0.207   6.215   3.728 -0.4261  3.6462 -1.1806
  152OSM   H11B16864   0.079   6.093   3.708 -0.2079 -0.3280  0.3070
  152OSM      P16865  -0.126   6.274   3.776  0.0811  0.1377  0.4167
  152OSM    O1316866  -0.202   6.400   3.766 -0.0594 -0.8337 -0.3857
  152OSM    O1416867  -0.190   6.156   3.715  0.6509 -0.5396  0.2103
  152OSM    O1116868  -0.090   6.247   3.924 -0.4481 -0.1948  0.8957
  152OSM    O1216869   0.019   6.289   3.705  0.1885 -0.3805 -0.1960
  152OSM    C1S16870  -0.059   6.118   3.977  0.1861 -0.0953 -0.1860
  152OSM    H1S16871   0.044   6.092   3.945 -0.0621  0.7399 -1.7755
  152OSM    H1T16872  -0.127   6.041   3.936 -2.3844  1.5733  0.7517
  152OSM     NF16873  -0.020   5.980   4.176 -0.5276 -0.7769  0.0046
  152OSM    HNF16874  -0.077   5.915   4.226 -0.0766 -0.2847  1.1769
  152OSM    C2S16875  -0.078   6.106   4.130 -0.2994 -0.0725 -0.2363
  152OSM    H2S16876  -0.016   6.192   4.163 -2.1537  0.9753  0.5970
  152OSM    C3S16877  -0.219   6.127   4.178  0.4517  0.2901 -0.7250
  152OSM    H3S16878  -0.280   6.045   4.136 -1.0909  0.6772  0.6579
  152OSM     O316879  -0.284   6.240   4.128  0.2060 -0.4052 -0.2572
  152OSM    HO316880  -0.225   6.262   4.055 -0.3336  1.5149 -0.1793
  152OSM    C4S16881  -0.236   6.107   4.330 -0.4227 -0.1870  0.0149
  152OSM    H4S16882  -0.264   6.003   4.352 -1.1765 -0.1736 -0.8160
  152OSM    C5S16883  -0.224   6.191   4.431 -0.6861 -0.2100 -0.1472
  152OSM    H5S16884  -0.208   6.297   4.403  0.3947 -1.0579 -3.0813
  152OSM    C6S16885  -0.258   6.163   4.579 -0.4473  0.0441  0.0870
  152OSM    H6S16886  -0.302   6.062   4.587 -0.3874  0.0836  1.0838
  152OSM    H6T16887  -0.331   6.238   4.618  0.0926  1.8096 -2.0531
  152OSM    C7S16888  -0.137   6.173   4.666  0.1824 -0.1496  0.2664
  152OSM    H7S16889  -0.098   6.276   4.681  0.9736 -0.3420 -0.3648
  152OSM    H7T16890  -0.053   6.113   4.625  1.2008  0.6082  1.1870
  152OSM    C8S16891  -0.167   6.096   4.796  0.6802 -0.4551 -0.2803
  152OSM    H8S16892  -0.219   6.001   4.769  0.4325 -0.4868  0.3102
  152OSM    H8T16893  -0.238   6.163   4.848 -0.1764 -0.4308 -1.4183
  152OSM    C9S16894  -0.051   6.089   4.905 -0.1882 -0.3641 -0.4932
  152OSM    H9S16895   0.042   6.048   4.861  0.2841 -0.6096  0.6808
  152OSM    H9T16896  -0.081   6.011   4.978  1.1684  0.5836  1.1678
  152OSM   C10S16897  -0.032   6.230   4.970  0.1908  0.1133 -0.2188
  152OSM   H10S16898  -0.105   6.251   5.051  1.4673 -1.7285  1.5355
  152OSM   H10T16899  -0.051   6.300   4.886 -1.6903 -0.2405 -0.1220
  152OSM   C11S16900   0.116   6.260   5.019  0.0989  0.4804  0.0968
  152OSM   H11S16901   0.109   6.368   5.044  1.4847  0.2424  1.7196
  152OSM   H11T16902   0.188   6.261   4.934 -0.9589  0.7325 -0.8244
  152OSM   C12S16903   0.147   6.178   5.144  0.0600 -1.0933 -0.7341
  152OSM   H12S16904   0.138   6.068   5.132 -0.1336 -0.9826 -1.7735
  152OSM   H12T16905   0.075   6.220   5.217  0.3460  1.0937 -1.6142
  152OSM   C13S16906   0.287   6.214   5.193  0.3854 -0.2622  0.7284
  152OSM   H13S16907   0.308   6.323   5.181  0.3346 -0.1498  1.6069
  152OSM   H13T16908   0.357   6.162   5.123 -2.0427 -0.9411 -1.3585
  152OSM   C14S16909   0.296   6.188   5.344  0.0436 -0.0797 -0.3238
  152OSM   H14S16910   0.266   6.086   5.373 -0.2885  0.6121  1.9172
  152OSM   H14T16911   0.231   6.257   5.401 -1.7830 -1.7966 -0.2443
  152OSM   C15S16912   0.441   6.214   5.404  0.4461  0.4052 -0.1022
  152OSM   H15S16913   0.488   6.303   5.357 -1.9950  2.1401  0.5787
  152OSM   H15T16914   0.502   6.126   5.376 -1.1158 -0.0004 -2.5559
  152OSM   C16S16915   0.431   6.220   5.558  0.1140  0.1278 -0.7661
  152OSM   H16S16916   0.400   6.123   5.601 -0.7129  0.9421  0.5750
  152OSM   H16T16917   0.349   6.290   5.584  0.0187  0.3324 -1.5962
  152OSM   C17S16918   0.562   6.272   5.614  0.0941 -0.1742  0.0132
  152OSM   H17S16919   0.580   6.379   5.590 -1.0458  0.1709  0.5908
  152OSM   H17T16920   0.646   6.219   5.566 -0.1143 -0.5651  0.0818
  152OSM   C18S16921   0.582   6.263   5.768  0.4950  0.8327 -0.3136
  152OSM   H18S16922   0.681   6.304   5.797  0.9585 -1.6667  2.0531
  152OSM   H18T16923   0.573   6.158   5.804  1.8717 -0.1720 -2.6847
  152OSM   H18U16924   0.507   6.333   5.812  0.2642  2.6384 -3.2714
  152OSM    C1F16925   0.103   5.941   4.142 -0.4009 -0.2960  0.6338
  152OSM     OF16926   0.192   6.021   4.104  0.1077  0.3404 -0.1491
  152OSM    C2F16927   0.133   5.800   4.152  0.2684  1.4294 -0.2585
  152OSM    H2F16928   0.180   5.773   4.055 -3.9477 -2.7488 -1.4975
  152OSM    H2G16929   0.043   5.735   4.154  0.6441  0.8797 -0.7954
  152OSM    C3F16930   0.218   5.755   4.275  0.4104  0.3174 -0.0628
  152OSM    H3F16931   0.319   5.800   4.269  0.1764  0.7137 -1.1360
  152OSM    H3G16932   0.233   5.645   4.283  0.9636  0.3897 -0.0611
  152OSM    C4F16933   0.153   5.796   4.410  0.2806 -0.5169  0.1653
  152OSM    H4F16934   0.054   5.747   4.417  0.1982 -0.2488  0.9806
  152OSM    H4G16935   0.139   5.906   4.424  2.0293  0.0994 -2.2177
  152OSM    C5F16936   0.220   5.738   4.535  0.4833 -0.2695 -0.2473
  152OSM    H5F16937   0.331   5.747   4.533  0.3164  2.8219  0.0875
  152OSM    H5G16938   0.203   5.629   4.541 -0.5699 -0.1098 -0.1258
  152OSM    C6F16939   0.169   5.795   4.670  0.3381 -0.5512  0.2541
  152OSM    H6F16940   0.060   5.779   4.684  0.2165 -0.0228 -0.0590
  152OSM    H6G16941   0.182   5.905   4.666 -1.1946 -0.2004  2.7177
  152OSM    C7F16942   0.249   5.735   4.789  0.5091 -0.1351 -0.2817
  152OSM    H7F16943   0.357   5.754   4.776  0.5573  0.0799  0.3730
  152OSM    H7G16944   0.246   5.624   4.790  1.6663 -0.2715  3.1994
  152OSM    C8F16945   0.203   5.804   4.922  0.2170 -0.0939  0.3123
  152OSM    H8F16946   0.193   5.715   4.989 -2.2815 -0.3140 -0.2289
  152OSM    H8G16947   0.102   5.849   4.910 -0.4906 -1.4801  0.8473
  152OSM    C9F16948   0.301   5.907   4.970  0.2997 -0.1358  0.2358
  152OSM    H9F16949   0.278   6.006   4.927 -2.0836 -0.2831  1.0363
  152OSM   C10F16950   0.381   5.902   5.083 -0.4214  0.7739  0.5784
  152OSM   H10F16951   0.449   5.984   5.111 -0.0835  0.9736 -0.7909
  152OSM   C11F16952   0.411   5.776   5.166 -0.7400 -0.6437  0.5269
  152OSM   H11F16953   0.380   5.683   5.114 -1.9215 -0.3881  0.7543
  152OSM   H11G16954   0.343   5.764   5.253 -0.1317 -1.6739  0.8760
  152OSM   C12F16955   0.562   5.768   5.216 -0.3389 -0.2808 -0.3705
  152OSM   H12F16956   0.623   5.811   5.133 -1.5276  0.1892 -1.0253
  152OSM   H12G16957   0.601   5.664   5.226 -2.1178 -0.8663  1.0703
  152OSM   C13F16958   0.592   5.840   5.360 -0.2706 -0.4546  0.6334
  152OSM   H13F16959   0.573   5.949   5.358  2.1457  0.0814  2.2108
  152OSM   H13G16960   0.702   5.834   5.379 -0.2003 -1.2806  0.0452
  152OSM   C14F16961   0.515   5.766   5.469  0.3990 -0.4948 -0.1881
  152OSM   H14F16962   0.548   5.661   5.458 -0.0518 -0.6124 -0.4339
  152OSM   H14G16963   0.405   5.773   5.457  0.5179  2.5489 -0.4007
  152OSM   C15F16964   0.544   5.831   5.604  0.0125 -0.1857  0.0193
  152OSM   H15F16965   0.528   5.940   5.616 -0.0287 -0.5153  5.0559
  152OSM   H15G16966   0.652   5.822   5.627  0.0032 -1.3130 -0.3375
  152OSM   C16F16967   0.455   5.768   5.712  0.2846 -0.6911 -0.2281
  152OSM   H16F16968   0.473   5.659   5.712  1.8017 -0.4843 -1.4976
  152OSM   H16G16969   0.348   5.780   5.688  1.0647 -0.2065 -4.0443
  152OSM   C17F16970   0.483   5.824   5.851  0.2733  0.3689  0.4314
  152OSM   H17F16971   0.587   5.860   5.860  0.7539 -0.2241 -1.9742
  152OSM   H17G16972   0.475   5.739   5.922 -1.1580 -0.1472 -0.2862
  152OSM   C18F16973   0.382   5.926   5.897 -0.1418 -0.5206 -0.2612
  152OSM   H18F16974   0.409   5.974   5.994 -1.4045  1.5044 -0.8556
  152OSM   H18G16975   0.291   5.865   5.914 -0.0527 -0.3838  0.8400
  152OSM   H18H16976   0.364   5.994   5.811 -1.4129  0.4652  0.7292
  153OSM      N16977   5.676   4.511   3.360  0.6639  0.2382  0.2432
  153OSM    C1516978   5.790   4.425   3.397  0.5350  0.0640 -0.1768
  153OSM   H15A16979   5.881   4.453   3.344 -0.0856  0.0883 -1.2596
  153OSM   H15B16980   5.770   4.324   3.365 -0.2877  1.0342 -3.0714
  153OSM   H15C16981   5.823   4.434   3.499  0.4419  0.2158 -0.1590
  153OSM    C1416982   5.720   4.652   3.352 -0.2456 -0.2334  0.0163
  153OSM   H14A16983   5.639   4.722   3.359  1.2043  1.4934  0.1325
  153OSM   H14B16984   5.786   4.667   3.268  2.1833 -2.9969  1.2313
  153OSM   H14C16985   5.785   4.671   3.436  0.5806 -0.1894 -0.6140
  153OSM    C1316986   5.637   4.470   3.220 -0.0392 -0.2638  0.8130
  153OSM   H13A16987   5.580   4.379   3.214  0.1281 -0.3660  0.7716
  153OSM   H13B16988   5.725   4.481   3.158 -0.9876  2.1468 -0.2606
  153OSM   H13C16989   5.572   4.548   3.182  1.2794  0.2316 -0.5626
  153OSM    C1216990   5.553   4.484   3.447  0.1516  0.2936  0.6026
  153OSM   H12A16991   5.532   4.379   3.439  1.0861 -0.0520  2.2402
  153OSM   H12B16992   5.473   4.524   3.386  2.2288  0.1498 -2.4508
  153OSM    C1116993   5.537   4.519   3.597 -0.1296 -0.1849  1.0223
  153OSM   H11A16994   5.598   4.463   3.670  1.1804 -0.9771 -0.6079
  153OSM   H11B16995   5.427   4.518   3.613 -0.1906  2.5403  1.3920
  153OSM      P16996   5.488   4.780   3.606 -0.0619  0.1646 -0.2784
  153OSM    O1316997   5.576   4.903   3.596 -0.2404 -0.2207 -0.2500
  153OSM    O1416998   5.375   4.766   3.511  0.5238 -0.1523  0.0345
  153OSM    O1116999   5.418   4.797   3.746 -0.1961 -0.0714 -0.0810
  153OSM    O1217000   5.583   4.652   3.621  0.2790  0.5387  0.6001
  153OSM    C1S17001   5.448   4.712   3.866  0.7251 -0.0540 -0.4954
  153OSM    H1S17002   5.485   4.610   3.845  0.3731 -0.6471  1.5299
  153OSM    H1T17003   5.353   4.690   3.918  0.7836 -1.0761 -0.8050
  153OSM     NF17004   5.573   4.684   4.077  0.0049 -0.0091  0.6788
  153OSM    HNF17005   5.511   4.689   4.155  0.7103  1.0558  1.1963
  153OSM    C2S17006   5.548   4.779   3.969 -0.0372 -1.0072  0.1134
  153OSM    H2S17007   5.635   4.797   3.902 -0.0372 -1.5603 -0.0353
  153OSM    C3S17008   5.493   4.917   4.014  0.1713  0.1002 -0.2305
  153OSM    H3S17009   5.399   4.892   4.067 -1.1761  1.3197 -1.9262
  153OSM     O317010   5.443   4.993   3.909 -1.2101 -0.2385  0.4089
  153OSM    HO317011   5.435   4.941   3.829 -1.3824  0.6696 -0.1810
  153OSM    C4S17012   5.587   4.986   4.105 -0.5768 -0.2528 -0.1658
  153OSM    H4S17013   5.579   4.953   4.210 -3.3603  1.3066  0.2091
  153OSM    C5S17014   5.669   5.087   4.082 -0.7084  0.2683  0.3727
  153OSM    H5S17015   5.674   5.124   3.978 -0.7514  1.2935  0.7267
  153OSM    C6S17016   5.754   5.175   4.175 -0.5065  0.2737  0.0442
  153OSM    H6S17017   5.694   5.264   4.201 -0.2429  0.8959 -1.4016
  153OSM    H6T17018   5.842   5.216   4.121 -0.7863  0.3720 -0.3399
  153OSM    C7S17019   5.795   5.102   4.310  0.6938  0.6287  0.0750
  153OSM    H7S17020   5.841   5.003   4.295  0.8068  0.7150 -0.1456
  153OSM    H7T17021   5.701   5.080   4.364  0.8559 -0.8031 -0.2091
  153OSM    C8S17022   5.877   5.198   4.401  0.3018  0.4095 -0.2303
  153OSM    H8S17023   5.827   5.295   4.416  3.1000  1.7100  1.7236
  153OSM    H8T17024   5.962   5.239   4.341  0.2599  0.3362 -0.3419
  153OSM    C9S17025   5.894   5.151   4.549 -0.0924 -0.1739  0.1379
  153OSM    H9S17026   5.997   5.175   4.584  0.7301 -1.4394 -1.3192
  153OSM    H9T17027   5.886   5.040   4.554 -2.3590 -0.0082  2.7805
  153OSM   C10S17028   5.781   5.193   4.637 -0.1006  0.4619 -0.4101
  153OSM   H10S17029   5.679   5.159   4.608 -0.1350  0.2850 -0.0771
  153OSM   H10T17030   5.776   5.304   4.642 -0.1295  0.4558 -0.3168
  153OSM   C11S17031   5.791   5.134   4.779 -0.9028  0.0400  0.1280
  153OSM   H11S17032   5.816   5.026   4.782  1.4016  0.5459  2.4652
  153OSM   H11T17033   5.694   5.139   4.833 -1.5349  0.9727 -1.0376
  153OSM   C12S17034   5.895   5.212   4.862 -0.6395 -0.1318 -0.9791
  153OSM   H12S17035   5.867   5.319   4.861  0.8672  0.2827 -1.2930
  153OSM   H12T17036   6.000   5.206   4.825 -0.7428 -2.3917 -1.0384
  153OSM   C13S17037   5.887   5.161   5.005 -0.0318  0.2738  0.0262
  153OSM   H13S17038   5.928   5.060   5.027  0.8371  0.9471  1.6787
  153OSM   H13T17039   5.779   5.155   5.029  0.5249 -1.0149  2.5302
  153OSM   C14S17040   5.962   5.253   5.105  0.3373  0.6419 -0.0624
  153OSM   H14S17041   5.929   5.356   5.081 -0.9340  0.2911  0.1307
  153OSM   H14T17042   6.068   5.254   5.072  0.3115  1.0842 -0.1263
  153OSM   C15S17043   5.930   5.212   5.255 -0.1643  0.1651 -0.4114
  153OSM   H15S17044   5.988   5.282   5.317 -0.6157  1.0494 -0.9597
  153OSM   H15T17045   5.976   5.114   5.280 -0.0540  0.9329  2.7364
  153OSM   C16S17046   5.779   5.208   5.289  0.6005 -0.0158 -0.2723
  153OSM   H16S17047   5.733   5.115   5.247  1.2140 -0.8845  0.9226
  153OSM   H16T17048   5.728   5.283   5.225 -1.4923 -0.5590  0.6604
  153OSM   C17S17049   5.737   5.220   5.433 -1.0921 -0.0190  0.1227
  153OSM   H17S17050   5.749   5.329   5.456  1.3079  0.1484 -1.5444
  153OSM   H17T17051   5.805   5.167   5.503 -0.5696  0.4529 -0.0201
  153OSM   C18S17052   5.592   5.183   5.463 -0.0600  0.1204  0.0126
  153OSM   H18S17053   5.574   5.081   5.424 -1.4710  0.8611 -1.3925
  153OSM   H18T17054   5.531   5.245   5.394  0.6114 -1.1368 -1.7833
  153OSM   H18U17055   5.562   5.204   5.568  2.4302  3.2904  0.2867
  153OSM    C1F17056   5.660   4.586   4.064 -0.3213  0.1283  0.3224
  153OSM     OF17057   5.709   4.569   3.952  0.2463  0.1054  0.1961
  153OSM    C2F17058   5.691   4.507   4.187 -0.0800  0.5770  0.0817
  153OSM    H2F17059   5.667   4.404   4.153 -1.0259  0.7840  0.0912
  153OSM    H2G17060   5.618   4.551   4.258 -1.9535  1.0923 -2.0359
  153OSM    C3F17061   5.834   4.532   4.233 -0.1774  0.6872 -0.2370
  153OSM    H3F17062   5.835   4.638   4.265  1.1504  1.2230 -1.9241
  153OSM    H3G17063   5.903   4.527   4.146 -2.3743  2.2089 -2.1972
  153OSM    C4F17064   5.890   4.440   4.346 -0.0010 -0.2206  0.2127
  153OSM    H4F17065   5.945   4.363   4.288 -0.1883 -0.7408  0.7256
  153OSM    H4G17066   5.820   4.395   4.419  0.3679 -0.6100  0.3252
  153OSM    C5F17067   5.993   4.515   4.429 -0.5544 -0.7952 -0.4911
  153OSM    H5F17068   5.950   4.602   4.482  1.4067 -0.9924  1.5702
  153OSM    H5G17069   6.075   4.557   4.367  1.2175 -0.0314  2.1872
  153OSM    C6F17070   6.051   4.436   4.545  0.6583  0.4102  0.3275
  153OSM    H6F17071   6.122   4.360   4.506 -0.4406 -0.5039  0.0665
  153OSM    H6G17072   5.977   4.376   4.602  0.5297  1.4809  1.3200
  153OSM    C7F17073   6.120   4.525   4.645 -0.1811 -0.0203  0.0013
  153OSM    H7F17074   6.048   4.604   4.676 -0.6602 -0.1996 -0.6356
  153OSM    H7G17075   6.214   4.570   4.608 -0.8409 -0.1458 -1.9631
  153OSM    C8F17076   6.162   4.454   4.775 -0.6950 -0.6481 -0.2358
  153OSM    H8F17077   6.251   4.393   4.749 -0.3368 -0.3147  0.1894
  153OSM    H8G17078   6.075   4.392   4.807  0.3177 -2.9162 -1.6196
  153OSM    C9F17079   6.207   4.535   4.895 -0.3255  0.8653  0.0040
  153OSM    H9F17080   6.299   4.591   4.869 -0.3605  0.4666 -1.0417
  153OSM   C10F17081   6.150   4.552   5.017 -0.0245 -0.1921  0.3586
  153OSM   H10F17082   6.194   4.627   5.084  1.8585  1.0174 -2.0855
  153OSM   C11F17083   6.024   4.496   5.067  0.8556  0.1945  0.0477
  153OSM   H11F17084   6.039   4.420   5.147 -2.0740 -0.2784  0.2877
  153OSM   H11G17085   5.977   4.439   4.984  1.1018  1.0441 -0.6799
  153OSM   C12F17086   5.923   4.603   5.119 -0.0096 -0.2719 -0.2900
  153OSM   H12F17087   5.961   4.654   5.210  0.4787  0.0427 -0.6668
  153OSM   H12G17088   5.832   4.556   5.161  0.0708  1.2456  1.6828
  153OSM   C13F17089   5.863   4.713   5.024 -0.0764  0.0107  0.1812
  153OSM   H13F17090   5.949   4.768   4.980 -1.2380  1.0220 -0.9182
  153OSM   H13G17091   5.803   4.783   5.086  0.0474  0.4326 -0.1743
  153OSM   C14F17092   5.784   4.657   4.904 -0.0144 -0.0457  0.1651
  153OSM   H14F17093   5.688   4.608   4.932 -1.0393  1.2889 -0.8886
  153OSM   H14G17094   5.852   4.576   4.871  3.0992  1.9180  1.4212
  153OSM   C15F17095   5.766   4.748   4.778  0.4467  0.1228  0.2743
  153OSM   H15F17096   5.861   4.806   4.771  0.6323 -0.0261  1.2675
  153OSM   H15G17097   5.678   4.809   4.806  0.1184 -0.8150  1.3681
  153OSM   C16F17098   5.725   4.673   4.647 -0.0458 -0.3304 -0.0287
  153OSM   H16F17099   5.644   4.602   4.674 -0.1846 -0.3443 -0.4806
  153OSM   H16G17100   5.809   4.607   4.616  0.1273  0.2718 -0.8441
  153OSM   C17F17101   5.690   4.767   4.529 -0.2413  0.6402 -0.4020
  153OSM   H17F17102   5.676   4.694   4.447 -1.4296 -0.0979  0.4302
  153OSM   H17G17103   5.773   4.838   4.511 -0.1926  0.6734 -0.0478
  153OSM   C18F17104   5.562   4.846   4.553 -0.2670  0.4559  0.3908
  153OSM   H18F17105   5.491   4.787   4.614  0.4197 -1.2947 -0.4362
  153OSM   H18G17106   5.516   4.862   4.453 -0.1799 -0.0001  0.2762
  153OSM   H18H17107   5.580   4.946   4.598  0.2926  0.6446 -0.2323
  154OSM      N17108   5.096   3.193   3.648 -0.1609  0.3919 -0.2649
  154OSM    C1517109   5.132   3.138   3.517  0.4273 -0.0435  0.4306
  154OSM   H15A17110   5.240   3.128   3.511  0.3097 -0.7200 -1.2153
  154OSM   H15B17111   5.100   3.194   3.430  4.2487 -0.4107 -1.4036
  154OSM   H15C17112   5.100   3.036   3.505 -0.7784  0.4885 -1.1835
  154OSM    C1417113   5.167   3.106   3.753 -0.1504 -0.3256 -0.8012
  154OSM   H14A17114   5.139   3.138   3.852 -1.7762 -0.2644 -1.2497
  154OSM   H14B17115   5.275   3.106   3.743  0.1215 -4.6648 -0.0692
  154OSM   H14C17116   5.146   3.001   3.735  1.1807 -1.3516  2.7619
  154OSM    C1317117   5.146   3.334   3.667  0.0466 -0.4584  0.4414
  154OSM   H13A17118   5.115   3.385   3.577 -0.3618 -0.4516  0.5807
  154OSM   H13B17119   5.252   3.342   3.687  0.1359 -1.2887  0.3450
  154OSM   H13C17120   5.094   3.384   3.748 -0.9630  1.3344 -1.2488
  154OSM    C1217121   4.948   3.188   3.678 -0.6328  0.0892  1.2145
  154OSM   H12A17122   4.925   3.084   3.663  0.2883  0.2914 -2.5919
  154OSM   H12B17123   4.891   3.241   3.602  1.1907 -0.4913 -0.6631
  154OSM    C1117124   4.892   3.233   3.816 -0.3910  0.0394  0.6224
  154OSM   H11A17125   4.961   3.203   3.898 -0.6039  1.0200  1.1789
  154OSM   H11B17126   4.795   3.186   3.843 -0.2460  0.7914  2.6209
  154OSM      P17127   4.906   3.479   3.935 -0.1505 -0.2653 -0.4438
  154OSM    O1317128   5.027   3.558   3.896 -0.3358  0.1064  0.2356
  154OSM    O1417129   4.789   3.563   3.955 -0.3550  0.3794 -0.5394
  154OSM    O1117130   4.941   3.414   4.072  0.0541  0.6383 -0.5084
  154OSM    O1217131   4.876   3.373   3.815 -0.1248 -0.4464  0.0898
  154OSM    C1S17132   4.984   3.489   4.186  0.8637  0.0254 -0.3341
  154OSM    H1S17133   4.932   3.587   4.195 -1.6281 -1.2086 -0.4599
  154OSM    H1T17134   5.094   3.503   4.189  0.6373  1.9898 -0.0571
  154OSM     NF17135   5.001   3.486   4.453 -0.2593  0.4332 -0.0867
  154OSM    HNF17136   5.100   3.481   4.466 -0.4712  0.2710  1.5700
  154OSM    C2S17137   4.959   3.417   4.329 -0.4408  0.4473  0.2162
  154OSM    H2S17138   4.850   3.401   4.340 -0.4782  0.4679 -0.1252
  154OSM    C3S17139   5.009   3.262   4.315  0.0522 -0.2318  0.4841
  154OSM    H3S17140   5.120   3.268   4.314  0.1752 -1.8453  1.5367
  154OSM     O317141   4.974   3.190   4.200  0.4586  0.4320  0.6048
  154OSM    HO317142   4.960   3.258   4.134  2.7166  1.5674  1.1639
  154OSM    C4S17143   4.973   3.187   4.438 -0.6746  0.2364 -0.7345
  154OSM    H4S17144   4.869   3.149   4.434 -0.5007 -0.4055  0.4672
  154OSM    C5S17145   5.034   3.142   4.547 -0.1586  0.6372  0.2089
  154OSM    H5S17146   5.143   3.156   4.547  0.0403 -0.5250 -1.9394
  154OSM    C6S17147   4.971   3.058   4.658 -0.4981  0.7080 -0.1768
  154OSM    H6S17148   4.867   3.020   4.645  0.1632 -1.4661  0.4636
  154OSM    H6T17149   4.952   3.132   4.738 -2.4995  1.0798 -0.9371
  154OSM    C7S17150   5.059   2.943   4.703 -0.4195 -0.1304  0.4648
  154OSM    H7S17151   5.162   2.985   4.712 -0.1721 -0.2521 -1.3350
  154OSM    H7T17152   5.058   2.872   4.617 -1.6874  1.7818 -1.1641
  154OSM    C8S17153   5.013   2.877   4.829  0.4318 -0.0678 -0.2466
  154OSM    H8S17154   5.069   2.782   4.845 -2.6503 -2.1117 -0.8902
  154OSM    H8T17155   4.911   2.839   4.807  0.9603 -0.3408 -2.5112
  154OSM    C9S17156   5.011   2.958   4.957  0.2965 -0.0361 -0.5614
  154OSM    H9S17157   4.942   3.044   4.945 -1.8963 -1.5304  0.5675
  154OSM    H9T17158   5.112   2.992   4.987 -0.3150  3.1035 -1.6297
  154OSM   C10S17159   4.939   2.874   5.070 -0.3362  0.3560  0.4714
  154OSM   H10S17160   4.998   2.782   5.088 -1.0190 -0.1100  0.3464
  154OSM   H10T17161   4.839   2.843   5.036 -0.8440  1.6107  0.7602
  154OSM   C11S17162   4.915   2.937   5.202 -0.5436 -0.4377 -0.5807
  154OSM   H11S17163   4.843   2.883   5.266  0.5594 -1.7239 -0.3866
  154OSM   H11T17164   4.857   3.031   5.191 -1.0702 -0.4394  1.6854
  154OSM   C12S17165   5.043   2.951   5.276  0.5379  0.6680 -0.7081
  154OSM   H12S17166   5.118   2.989   5.203  0.9424  1.1856 -0.0339
  154OSM   H12T17167   5.075   2.849   5.306 -2.7985 -0.5858 -1.0261
  154OSM   C13S17168   5.026   3.048   5.392 -0.4732 -0.6108  0.8987
  154OSM   H13S17169   5.019   3.150   5.349  0.1217 -1.1708 -0.5885
  154OSM   H13T17170   5.119   3.055   5.452  0.1019 -0.4237  0.0013
  154OSM   C14S17171   4.920   3.014   5.491  0.3603  0.3181 -0.4369
  154OSM   H14S17172   4.945   2.921   5.546 -3.4499 -0.9807 -0.6286
  154OSM   H14T17173   4.818   3.004   5.448 -0.8123  0.9144  2.0090
  154OSM   C15S17174   4.894   3.112   5.613  0.0357 -0.0541  0.0474
  154OSM   H15S17175   4.796   3.087   5.660 -0.2211  3.5153  1.8183
  154OSM   H15T17176   4.864   3.212   5.573 -0.3278 -0.1548  0.0585
  154OSM   C16S17177   5.016   3.124   5.704  0.1713  0.8006  0.1859
  154OSM   H16S17178   5.109   3.163   5.658  0.5225 -1.0385 -0.7431
  154OSM   H16T17179   5.029   3.023   5.748  1.8686  1.4058  1.1651
  154OSM   C17S17180   4.986   3.210   5.824 -0.7441  0.6205  0.2012
  154OSM   H17S17181   4.904   3.172   5.888  0.1738  2.0107  2.3122
  154OSM   H17T17182   4.964   3.311   5.783  0.3166 -0.0172 -2.1001
  154OSM   C18S17183   5.107   3.220   5.921 -0.1310  0.9177  0.1673
  154OSM   H18S17184   5.091   3.302   5.995 -1.2403  1.2700 -0.4310
  154OSM   H18T17185   5.203   3.246   5.871  0.4981  2.2364  1.9426
  154OSM   H18U17186   5.114   3.122   5.972  0.2162  0.8838  0.0578
  154OSM    C1F17187   4.937   3.588   4.495  0.9345 -0.2903  0.2749
  154OSM     OF17188   4.841   3.629   4.432 -0.1223  0.2338  0.4546
  154OSM    C2F17189   4.980   3.657   4.628  0.6345  0.4127 -0.1396
  154OSM    H2F17190   5.090   3.668   4.633  0.7675 -1.1343  2.2964
  154OSM    H2G17191   4.947   3.585   4.706 -0.2977  2.1038  1.1197
  154OSM    C3F17192   4.926   3.793   4.648 -0.2765 -0.6166 -0.7596
  154OSM    H3F17193   4.816   3.807   4.659 -0.1203 -0.0295  0.1527
  154OSM    H3G17194   4.949   3.854   4.558 -1.0530  0.2522 -0.3866
  154OSM    C4F17195   4.994   3.868   4.767  0.2708  0.1504  0.0051
  154OSM    H4F17196   4.958   3.973   4.765  1.3441  0.5261 -1.6808
  154OSM    H4G17197   5.100   3.867   4.735  0.5907 -0.5529  1.0468
  154OSM    C5F17198   4.966   3.795   4.900  0.2418  0.0689 -0.0559
  154OSM    H5F17199   5.017   3.698   4.914  0.5334  0.5525  2.8364
  154OSM    H5G17200   4.858   3.774   4.911  0.4859 -2.2525 -1.5815
  154OSM    C6F17201   5.002   3.892   5.015 -0.8998  0.1122 -0.4711
  154OSM    H6F17202   4.955   3.860   5.110 -1.5816  1.0443 -0.4782
  154OSM    H6G17203   4.958   3.993   4.999 -2.2233 -0.4437 -0.5037
  154OSM    C7F17204   5.157   3.904   5.029  0.4283 -0.2761  0.8151
  154OSM    H7F17205   5.198   3.954   4.938 -0.4057 -0.2494  0.4508
  154OSM    H7G17206   5.201   3.801   5.025  0.3381 -0.3010 -2.1665
  154OSM    C8F17207   5.209   3.982   5.144 -0.0133  0.5949  0.6194
  154OSM    H8F17208   5.159   4.082   5.148 -2.5042 -0.6128  2.1178
  154OSM    H8G17209   5.317   4.001   5.126 -0.1357  1.6367  0.9062
  154OSM    C9F17210   5.182   3.908   5.268  0.2943  0.1231  0.8351
  154OSM    H9F17211   5.078   3.930   5.296 -0.2295  0.7070 -1.3429
  154OSM   C10F17212   5.271   3.846   5.347  0.5419 -0.0470  0.6175
  154OSM   H10F17213   5.229   3.800   5.438  0.2148 -1.6314 -0.2903
  154OSM   C11F17214   5.415   3.825   5.309  0.5286 -0.1319  0.2421
  154OSM   H11F17215   5.428   3.841   5.200  1.6277  0.4814  0.4481
  154OSM   H11G17216   5.449   3.721   5.327  1.1150  0.1915  1.0546
  154OSM   C12F17217   5.512   3.908   5.383  0.3328  0.6370  1.0142
  154OSM   H12F17218   5.483   4.014   5.375 -1.7882  0.0092 -0.1754
  154OSM   H12G17219   5.604   3.915   5.321  0.5258  1.8820  1.4227
  154OSM   C13F17220   5.535   3.868   5.524 -0.5073  0.0787  0.7016
  154OSM   H13F17221   5.589   3.772   5.527 -1.8295 -0.6877  0.8228
  154OSM   H13G17222   5.437   3.859   5.578 -1.5902  3.4470 -0.4162
  154OSM   C14F17223   5.619   3.968   5.591  0.3464 -0.3226  0.5149
  154OSM   H14F17224   5.566   4.065   5.589 -1.5704 -1.2590  1.8390
  154OSM   H14G17225   5.717   3.981   5.540 -0.4409 -1.0982 -1.2707
  154OSM   C15F17226   5.645   3.927   5.738  0.8336 -0.1541 -0.8505
  154OSM   H15F17227   5.716   3.841   5.734 -0.4623 -1.5020  1.9401
  154OSM   H15G17228   5.548   3.901   5.784  0.4996 -0.9707 -1.9574
  154OSM   C16F17229   5.713   4.030   5.825 -0.0688 -0.5950 -0.0499
  154OSM   H16F17230   5.816   4.057   5.794 -0.6491 -0.7853 -2.3360
  154OSM   H16G17231   5.726   3.978   5.922  0.4454  1.2776  0.9149
  154OSM   C17F17232   5.636   4.162   5.846  0.3641  0.2213  0.1174
  154OSM   H17F17233   5.531   4.137   5.870  0.5007 -1.0131 -0.4859
  154OSM   H17G17234   5.632   4.217   5.750 -0.3784 -0.0699 -0.0207
  154OSM   C18F17235   5.695   4.247   5.949  0.3952 -0.2749  0.2093
  154OSM   H18F17236   5.806   4.252   5.939  0.7132 -1.8223  2.3827
  154OSM   H18G17237   5.664   4.201   6.045 -2.0472  1.0643  0.1348
  154OSM   H18H17238   5.665   4.354   5.958  2.8804  0.7060 -1.7330
  155OSM      N17239   1.064   0.016   3.841  0.2687  0.3227 -0.1408
  155OSM    C1517240   1.093  -0.078   3.730  0.1656  0.1779  0.3967
  155OSM   H15A17241   1.131  -0.161   3.787  1.9997  1.1855  0.7415
  155OSM   H15B17242   1.166  -0.043   3.658 -1.0372 -0.8867 -1.4448
  155OSM   H15C17243   1.000  -0.090   3.677  0.0805  1.1592  0.2987
  155OSM    C1417244   1.188   0.041   3.920 -0.1697 -0.2766 -0.6783
  155OSM   H14A17245   1.266   0.073   3.852 -1.1952  0.1278 -1.7001
  155OSM   H14B17246   1.217  -0.044   3.979 -3.3835  0.2945  1.9914
  155OSM   H14C17247   1.176   0.120   3.994  1.2639 -1.0237  0.4130
  155OSM    C1317248   1.013   0.146   3.791 -0.3003  0.4197  0.3771
  155OSM   H13A17249   1.086   0.196   3.729 -1.6924  0.5680 -1.2062
  155OSM   H13B17250   0.984   0.219   3.865  0.8197 -0.4262  1.6991
  155OSM   H13C17251   0.923   0.130   3.734  0.3947 -0.6167 -0.4873
  155OSM    C1217252   0.959  -0.040   3.931  0.2004 -0.5886  0.0528
  155OSM   H12A17253   0.938   0.037   4.003 -0.2530 -0.9558  0.3187
  155OSM   H12B17254   0.998  -0.123   3.988 -2.1422 -1.7632  0.0786
  155OSM    C1117255   0.828  -0.095   3.868 -0.0718 -1.1084 -0.2400
  155OSM   H11A17256   0.769  -0.141   3.951  1.2191  0.2036  1.4764
  155OSM   H11B17257   0.845  -0.181   3.800 -1.4118 -1.6332  0.0399
  155OSM      P17258   0.600  -0.033   3.776  0.0160 -0.1677  0.4047
  155OSM    O1317259   0.532   0.085   3.720  1.0397 -0.0631 -0.2652
  155OSM    O1417260   0.586  -0.154   3.696  0.3412 -0.0702  0.4220
  155OSM    O1117261   0.545  -0.069   3.919 -0.4154  0.3290 -0.2098
  155OSM    O1217262   0.753   0.006   3.796  0.4450  0.0822  0.1557
  155OSM    C1S17263   0.408  -0.076   3.943  0.3238  0.5786 -0.0066
  155OSM    H1S17264   0.367  -0.165   3.891  1.3651 -0.4587  0.9114
  155OSM    H1T17265   0.365   0.022   3.913  2.2322  0.9194 -1.8967
  155OSM     NF17266   0.238  -0.151   4.093  0.0154 -0.0378  0.0422
  155OSM    HNF17267   0.169  -0.082   4.111 -0.4047  0.5015 -3.0915
  155OSM    C2S17268   0.373  -0.099   4.092 -0.1298  0.3003  0.1117
  155OSM    H2S17269   0.441  -0.180   4.126 -1.4815  0.2359  2.8831
  155OSM    C3S17270   0.407   0.022   4.165  0.0972 -0.1420  0.4719
  155OSM    H3S17271   0.332   0.098   4.133  1.3014  0.7241 -0.3653
  155OSM     O317272   0.537   0.080   4.134 -0.2460 -0.2418 -0.0928
  155OSM    HO317273   0.559   0.028   4.056 -2.6643 -2.6363  0.6770
  155OSM    C4S17274   0.387   0.004   4.313 -0.0624  0.0373  0.6360
  155OSM    H4S17275   0.286   0.005   4.356 -0.2477  0.9123  0.2059
  155OSM    C5S17276   0.493  -0.030   4.397 -0.0531 -0.3681  1.1885
  155OSM    H5S17277   0.592  -0.046   4.350 -0.0113 -0.7087  1.3897
  155OSM    C6S17278   0.480  -0.064   4.541 -0.1429  0.1018 -0.0371
  155OSM    H6S17279   0.387  -0.020   4.582  0.5285  0.8534  0.7313
  155OSM    H6T17280   0.572  -0.030   4.593  1.0214  0.3709 -2.1566
  155OSM    C7S17281   0.472  -0.216   4.582 -0.0334  0.1722 -0.0058
  155OSM    H7S17282   0.570  -0.265   4.564  0.7646  1.9412 -0.7446
  155OSM    H7T17283   0.397  -0.259   4.512 -1.4519  3.1598 -0.5169
  155OSM    C8S17284   0.422  -0.250   4.723 -0.0148 -0.6580  0.7491
  155OSM    H8S17285   0.446  -0.358   4.735  0.2373 -0.6742  0.1378
  155OSM    H8T17286   0.314  -0.234   4.739 -0.2750 -0.9317 -0.6395
  155OSM    C9S17287   0.495  -0.182   4.843  0.5526  0.0743  0.6574
  155OSM    H9S17288   0.477  -0.072   4.836 -1.7994 -0.3200 -0.3998
  155OSM    H9T17289   0.604  -0.201   4.831  0.1500 -1.2448 -1.4140
  155OSM   C10S17290   0.457  -0.234   4.978 -0.1880 -0.4815  0.7337
  155OSM   H10S17291   0.478  -0.342   4.965  2.6378  0.2554 -2.2679
  155OSM   H10T17292   0.350  -0.215   5.003 -0.5346 -1.3264 -0.0279
  155OSM   C11S17293   0.542  -0.184   5.099  0.8994  0.3767  0.4343
  155OSM   H11S17294   0.546  -0.073   5.086 -0.7888  0.1572 -3.0177
  155OSM   H11T17295   0.643  -0.226   5.087  0.9189  0.1057  1.4518
  155OSM   C12S17296   0.479  -0.210   5.238  0.4371 -0.7084 -0.2006
  155OSM   H12S17297   0.455  -0.318   5.245  1.2639 -0.9040 -0.2212
  155OSM   H12T17298   0.384  -0.154   5.251  1.4900  1.4270 -1.1857
  155OSM   C13S17299   0.571  -0.168   5.347  0.3263  0.3775 -0.0438
  155OSM   H13S17300   0.607  -0.063   5.341  0.9384  0.0978 -1.8427
  155OSM   H13T17301   0.665  -0.227   5.337  1.0761  1.4215  0.6169
  155OSM   C14S17302   0.512  -0.203   5.486  0.0388  0.4377  0.6274
  155OSM   H14S17303   0.508  -0.314   5.488 -0.9872  0.4471  3.6276
  155OSM   H14T17304   0.409  -0.163   5.501 -0.2137 -0.5124  1.5256
  155OSM   C15S17305   0.588  -0.154   5.608 -0.3012 -0.0605  0.1183
  155OSM   H15S17306   0.583  -0.044   5.618  1.8425  0.0081  0.7438
  155OSM   H15T17307   0.696  -0.174   5.595  0.1620  1.6798  0.9831
  155OSM   C16S17308   0.544  -0.215   5.744 -0.1016 -0.1882 -0.1302
  155OSM   H16S17309   0.534  -0.326   5.738 -2.7067 -0.0303  0.1689
  155OSM   H16T17310   0.441  -0.184   5.771 -0.4653 -1.8233  0.5123
  155OSM   C17S17311   0.642  -0.160   5.854  0.3562  0.3058 -0.1955
  155OSM   H17S17312   0.623  -0.054   5.882  0.0400  0.5776 -1.3723
  155OSM   H17T17313   0.743  -0.154   5.807  1.0034  1.6326  1.2783
  155OSM   C18S17314   0.660  -0.249   5.982  0.4253  0.3693  0.0194
  155OSM   H18S17315   0.762  -0.231   6.023 -0.1244 -2.7850  3.1957
  155OSM   H18T17316   0.644  -0.355   5.954  0.3471  0.4204 -0.1334
  155OSM   H18U17317   0.587  -0.224   6.061  2.4229  0.8565  1.8022
  155OSM    C1F17318   0.197  -0.275   4.059  0.3613  0.3633 -0.1939
  155OSM     OF17319   0.267  -0.371   4.028  0.1964 -0.1856 -0.3834
  155OSM    C2F17320   0.050  -0.286   4.042 -0.2141 -0.0717 -0.1148
  155OSM    H2F17321   0.030  -0.315   3.936  0.8068  1.0074 -0.6318
  155OSM    H2G17322  -0.005  -0.192   4.064 -0.5111 -0.0931 -0.7135
  155OSM    C3F17323  -0.019  -0.403   4.109  0.3051  0.2978  0.2577
  155OSM    H3F17324   0.040  -0.497   4.098 -0.3817 -0.2007  0.7234
  155OSM    H3G17325  -0.116  -0.424   4.059 -0.2946  0.1766  1.4449
  155OSM    C4F17326  -0.058  -0.374   4.260  0.1853 -0.5622  0.1657
  155OSM    H4F17327  -0.118  -0.457   4.303  0.7346 -1.0650 -0.0358
  155OSM    H4G17328  -0.124  -0.284   4.252 -0.0187 -0.5354  1.7174
  155OSM    C5F17329   0.056  -0.325   4.354  0.1602 -0.4548  0.1093
  155OSM    H5F17330   0.099  -0.225   4.330 -0.2729  0.4533  2.7821
  155OSM    H5G17331   0.137  -0.401   4.354 -1.4754 -2.3159 -1.6757
  155OSM    C6F17332  -0.007  -0.317   4.497  0.1314 -0.0156  0.4511
  155OSM    H6F17333  -0.061  -0.411   4.520  0.6111 -0.1779  0.9361
  155OSM    H6G17334  -0.087  -0.240   4.496  0.6479  0.5409 -0.8827
  155OSM    C7F17335   0.089  -0.283   4.614  0.0417  0.5221 -0.3552
  155OSM    H7F17336   0.115  -0.176   4.600  0.9967  0.3863  0.2954
  155OSM    H7G17337   0.181  -0.341   4.593  0.4313  1.0493 -0.1246
  155OSM    C8F17338   0.030  -0.310   4.757  0.5711 -1.1123  0.1264
  155OSM    H8F17339   0.108  -0.272   4.827  0.3522  1.6694 -1.0131
  155OSM    H8G17340   0.010  -0.417   4.776  0.4857 -0.8304  1.7906
  155OSM    C9F17341  -0.097  -0.231   4.785  0.0084 -1.4375  0.4941
  155OSM    H9F17342  -0.129  -0.160   4.707 -1.2452 -1.1131  1.2611
  155OSM   C10F17343  -0.160  -0.228   4.903 -0.0256 -0.2740 -0.0507
  155OSM   H10F17344  -0.241  -0.156   4.922  0.0695 -0.7294  2.4928
  155OSM   C11F17345  -0.121  -0.317   5.018  0.5740 -0.6096 -0.2759
  155OSM   H11F17346  -0.040  -0.388   4.989  1.0423  0.1570 -0.8781
  155OSM   H11G17347  -0.214  -0.365   5.054 -0.2730 -1.5839 -3.4582
  155OSM   C12F17348  -0.066  -0.228   5.135  0.2308  0.1612 -0.3632
  155OSM   H12F17349  -0.141  -0.154   5.173 -1.6471 -2.4262  1.3912
  155OSM   H12G17350   0.024  -0.181   5.091 -0.2660  0.4089 -1.1362
  155OSM   C13F17351  -0.026  -0.320   5.252 -0.2696 -0.5668  0.2218
  155OSM   H13F17352   0.061  -0.382   5.220 -1.0784 -0.1849 -2.9705
  155OSM   H13G17353  -0.106  -0.387   5.289  0.1244 -1.4270 -0.4702
  155OSM   C14F17354   0.032  -0.244   5.383  0.2793 -0.2809 -0.7293
  155OSM   H14F17355  -0.055  -0.187   5.421  0.8915  0.2296 -0.0812
  155OSM   H14G17356   0.106  -0.170   5.345 -1.1633  2.2206  1.0821
  155OSM   C15F17357   0.103  -0.327   5.479  0.2363  0.7493 -0.4551
  155OSM   H15F17358   0.193  -0.365   5.426 -1.5067 -0.8090 -2.4397
  155OSM   H15G17359   0.038  -0.408   5.518  0.8091  0.5489  0.1029
  155OSM   C16F17360   0.161  -0.248   5.598 -0.5107  0.1515 -0.9171
  155OSM   H16F17361   0.221  -0.164   5.557 -0.3571  0.4147 -0.1639
  155OSM   H16G17362   0.234  -0.315   5.647 -1.1578 -1.7339 -2.3693
  155OSM   C17F17363   0.046  -0.195   5.680 -0.0913  0.4637 -0.3368
  155OSM   H17F17364  -0.045  -0.155   5.631 -1.5523 -0.4668  1.4852
  155OSM   H17G17365   0.092  -0.114   5.741  1.8578  0.5385 -1.7764
  155OSM   C18F17366   0.004  -0.303   5.778 -0.1643  0.5307  1.2659
  155OSM   H18F17367  -0.072  -0.279   5.856 -0.2394 -3.3609  2.6454
  155OSM   H18G17368   0.087  -0.350   5.834  0.5808  0.6627  0.2850
  155OSM   H18H17369  -0.041  -0.381   5.713 -0.2069  0.9746  0.7665
  156OSM      N17370   3.145   5.781   3.663  0.1542 -0.1883  0.3289
  156OSM    C1517371   3.186   5.704   3.540  0.1094 -0.4000 -0.0951
  156OSM   H15A17372   3.216   5.770   3.460 -1.1673  0.7598  0.3537
  156OSM   H15B17373   3.105   5.643   3.503  0.8239 -0.4602 -1.6589
  156OSM   H15C17374   3.270   5.645   3.573  0.7112  0.8996  0.8075
  156OSM    C1417375   3.005   5.821   3.650  0.1325  0.0674  0.1898
  156OSM   H14A17376   2.975   5.830   3.753  1.5259 -0.0262  0.6168
  156OSM   H14B17377   2.951   5.753   3.586  1.5348  0.2698 -1.2618
  156OSM   H14C17378   2.989   5.918   3.604 -0.5354  0.0025  0.2688
  156OSM    C1317379   3.168   5.684   3.777  0.2524 -0.3105  0.2338
  156OSM   H13A17380   3.136   5.719   3.874  2.1634 -2.8782  1.9061
  156OSM   H13B17381   3.269   5.651   3.794  0.3182 -0.2366 -0.0081
  156OSM   H13C17382   3.108   5.597   3.755 -1.2735  0.3360  1.6248
  156OSM    C1217383   3.236   5.899   3.688  0.1209  0.3490 -0.5169
  156OSM   H12A17384   3.333   5.858   3.708 -0.3283 -0.0487  0.9360
  156OSM   H12B17385   3.212   5.943   3.784 -0.8372  0.0502 -0.6023
  156OSM    C1117386   3.248   6.020   3.596  0.1123 -0.3157  0.4398
  156OSM   H11A17387   3.307   5.998   3.504  0.3869 -0.1841  0.5816
  156OSM   H11B17388   3.310   6.088   3.658 -3.5047 -0.9493  5.3209
  156OSM      P17389   3.105   6.234   3.566 -0.2578 -0.5238 -0.0455
  156OSM    O1317390   3.221   6.290   3.496 -0.0447  0.2225 -0.1493
  156OSM    O1417391   2.967   6.280   3.531 -0.6206  0.6511  0.0646
  156OSM    O1117392   3.126   6.243   3.731 -0.2530 -0.1677 -0.0848
  156OSM    O1217393   3.116   6.080   3.557 -0.6275 -0.0383 -0.4663
  156OSM    C1S17394   3.026   6.185   3.815  0.3194  0.4507 -0.3075
  156OSM    H1S17395   3.003   6.080   3.786 -2.9262  1.3046 -1.3224
  156OSM    H1T17396   2.929   6.240   3.807 -1.0940 -2.0718 -1.8011
  156OSM     NF17397   3.010   6.106   4.048  0.2849 -0.0435 -0.0400
  156OSM    HNF17398   2.932   6.132   4.104 -1.3661 -0.0890 -2.2084
  156OSM    C2S17399   3.084   6.203   3.956 -0.0354  0.1825 -0.5866
  156OSM    H2S17400   3.189   6.169   3.942 -0.2241 -0.0385 -1.5214
  156OSM    C3S17401   3.075   6.353   4.002 -0.1229  0.7063 -0.0208
  156OSM    H3S17402   2.966   6.375   3.995 -0.1165  0.4443 -1.0240
  156OSM     O317403   3.136   6.434   3.905 -0.1255 -0.4842  0.1383
  156OSM    HO317404   3.131   6.378   3.827 -0.0363  0.3192 -0.4584
  156OSM    C4S17405   3.120   6.395   4.142 -0.7319 -0.2114 -0.2818
  156OSM    H4S17406   3.038   6.404   4.215  0.1003  3.0415  0.4147
  156OSM    C5S17407   3.245   6.428   4.176 -0.4063  0.1333  0.5975
  156OSM    H5S17408   3.325   6.441   4.101 -1.7186  1.2659 -0.6510
  156OSM    C6S17409   3.271   6.482   4.307  0.5557 -0.5748  0.0011
  156OSM    H6S17410   3.178   6.529   4.347 -0.3247 -1.4131 -0.9805
  156OSM    H6T17411   3.343   6.567   4.307 -0.2595  0.1476 -1.3264
  156OSM    C7S17412   3.306   6.382   4.408  0.1967  0.3253  0.1972
  156OSM    H7S17413   3.404   6.339   4.378  0.8842  0.7666  1.7111
  156OSM    H7T17414   3.226   6.306   4.396 -0.8729  1.4072  0.2565
  156OSM    C8S17415   3.306   6.426   4.556  0.2459 -0.4529 -0.0852
  156OSM    H8S17416   3.203   6.466   4.558  0.8492  1.2635 -1.3117
  156OSM    H8T17417   3.369   6.517   4.561  0.9018 -0.7423 -2.2520
  156OSM    C9S17418   3.336   6.322   4.667 -0.4829  0.5226  0.0444
  156OSM    H9S17419   3.430   6.274   4.632 -0.2604  0.5249  0.6301
  156OSM    H9T17420   3.260   6.241   4.661  0.0193  0.0730 -0.3839
  156OSM   C10S17421   3.352   6.378   4.809  0.7320  0.5271  0.0960
  156OSM   H10S17422   3.250   6.404   4.846  0.5880  1.7901 -1.1043
  156OSM   H10T17423   3.416   6.468   4.812  0.5401  0.6388  1.6175
  156OSM   C11S17424   3.391   6.259   4.896 -0.7613  0.1980  0.5997
  156OSM   H11S17425   3.490   6.224   4.862 -1.3306 -2.4546  1.4433
  156OSM   H11T17426   3.318   6.175   4.897 -0.8886  0.3104  1.2875
  156OSM   C12S17427   3.406   6.307   5.044 -0.2172  0.1502  0.7779
  156OSM   H12S17428   3.458   6.403   5.057  0.8648 -0.5621  1.9538
  156OSM   H12T17429   3.479   6.234   5.085  0.2635 -0.1498 -0.5730
  156OSM   C13S17430   3.269   6.321   5.116  0.2697  0.2894 -0.4287
  156OSM   H13S17431   3.204   6.243   5.070  0.0166 -0.7541  1.5548
  156OSM   H13T17432   3.221   6.420   5.108  1.3610  0.6665 -3.4428
  156OSM   C14S17433   3.279   6.276   5.269 -0.1476  0.3269  0.3416
  156OSM   H14S17434   3.385   6.249   5.288 -0.2839 -2.0233 -1.7762
  156OSM   H14T17435   3.200   6.201   5.292  0.3588  0.4667  2.7449
  156OSM   C15S17436   3.246   6.401   5.362  1.0346 -0.7460  0.1221
  156OSM   H15S17437   3.135   6.410   5.355  0.9443 -2.3738 -1.0471
  156OSM   H15T17438   3.300   6.488   5.318 -0.8108  0.9512  1.0251
  156OSM   C16S17439   3.299   6.400   5.509 -0.0628 -0.0306  0.3691
  156OSM   H16S17440   3.274   6.305   5.562  1.5893  1.0351  3.2844
  156OSM   H16T17441   3.244   6.474   5.570 -2.0826  0.0073 -1.3857
  156OSM   C17S17442   3.448   6.421   5.517 -0.5397 -0.9281 -0.4321
  156OSM   H17S17443   3.474   6.520   5.472 -1.2513 -0.5791 -0.0992
  156OSM   H17T17444   3.517   6.354   5.462  0.1284 -1.5837  1.1378
  156OSM   C18S17445   3.509   6.427   5.662  0.0946  0.1912  0.1656
  156OSM   H18S17446   3.602   6.488   5.662  0.4764 -0.3390 -1.6904
  156OSM   H18T17447   3.535   6.327   5.701  0.0714 -0.8609 -2.3234
  156OSM   H18U17448   3.442   6.482   5.731 -0.2790 -0.5460  0.3976
  156OSM    C1F17449   3.021   5.974   4.028 -1.3830  0.0206  0.5962
  156OSM     OF17450   3.119   5.927   3.965 -0.0895  0.4745  0.5391
  156OSM    C2F17451   2.899   5.891   4.062 -0.5459  0.1059  0.0070
  156OSM    H2F17452   2.868   5.847   3.965  0.0126  0.5171 -0.3607
  156OSM    H2G17453   2.826   5.958   4.112  0.1337  2.8216 -2.3875
  156OSM    C3F17454   2.938   5.774   4.153 -0.7885 -0.4494  0.5097
  156OSM    H3F17455   3.004   5.707   4.094  1.6874  2.2302 -0.0205
  156OSM    H3G17456   2.850   5.715   4.187 -0.1621 -2.6761 -1.4876
  156OSM    C4F17457   3.004   5.816   4.288  0.0899 -0.6587  0.1220
  156OSM    H4F17458   2.933   5.856   4.363 -1.0095 -1.3361 -0.5161
  156OSM    H4G17459   3.080   5.895   4.269  1.2520 -1.0801  2.6372
  156OSM    C5F17460   3.072   5.705   4.367  0.2565 -0.1262  0.3230
  156OSM    H5F17461   3.141   5.637   4.312  0.1834  0.5662 -0.6472
  156OSM    H5G17462   2.985   5.647   4.405 -1.0012  0.8743 -0.9264
  156OSM    C6F17463   3.137   5.754   4.501  0.0268  0.4725  0.5664
  156OSM    H6F17464   3.068   5.819   4.558  2.2033  1.8313  1.7894
  156OSM    H6G17465   3.234   5.802   4.474 -1.0366  1.9630 -0.7674
  156OSM    C7F17466   3.159   5.642   4.605  0.9542  0.6847  0.8610
  156OSM    H7F17467   3.230   5.568   4.562  0.7155  0.8692  0.1391
  156OSM    H7G17468   3.059   5.605   4.636  0.8020 -0.3909 -0.7650
  156OSM    C8F17469   3.221   5.693   4.738  0.1986 -0.0128  0.6383
  156OSM    H8F17470   3.313   5.747   4.707  1.1253 -1.0814  1.4357
  156OSM    H8G17471   3.249   5.605   4.800  0.1511 -1.4764 -1.3215
  156OSM    C9F17472   3.129   5.789   4.806  0.0033 -0.1996  0.1348
  156OSM    H9F17473   3.118   5.889   4.762  1.1906 -0.5262 -0.9814
  156OSM   C10F17474   3.093   5.782   4.931 -0.1479  0.6413 -0.7423
  156OSM   H10F17475   3.034   5.865   4.973  1.0631  0.2861  1.8236
  156OSM   C11F17476   3.113   5.671   5.028 -0.5326 -0.5174  0.0821
  156OSM   H11F17477   3.219   5.660   5.060 -0.1793  1.4343 -0.2714
  156OSM   H11G17478   3.078   5.572   4.992  0.4206 -1.6690  2.1304
  156OSM   C12F17479   3.047   5.690   5.169 -0.2762 -0.5462  0.5571
  156OSM   H12F17480   3.047   5.592   5.221  1.8015 -1.5438 -1.1669
  156OSM   H12G17481   2.940   5.712   5.147  0.2203  2.7541  0.9272
  156OSM   C13F17482   3.109   5.803   5.252  0.2044  0.4563 -0.3449
  156OSM   H13F17483   3.087   5.900   5.202 -1.6890 -1.0337 -2.6405
  156OSM   H13G17484   3.216   5.777   5.261  0.2281 -0.1638 -1.9922
  156OSM   C14F17485   3.050   5.814   5.396  0.0111 -0.1200 -0.3159
  156OSM   H14F17486   3.090   5.735   5.462 -0.6724  1.0331  1.5481
  156OSM   H14G17487   2.939   5.813   5.394  0.0055  0.2842 -0.4290
  156OSM   C15F17488   3.084   5.949   5.465 -0.8376  0.4695  0.6246
  156OSM   H15F17489   3.031   6.018   5.396 -0.9420 -0.3129 -0.1049
  156OSM   H15G17490   3.194   5.966   5.471 -0.8099  0.4824  0.1384
  156OSM   C16F17491   3.026   5.963   5.606 -0.6605  0.3216  0.2223
  156OSM   H16F17492   3.070   5.897   5.683 -0.1539  1.5243  0.9883
  156OSM   H16G17493   2.919   5.939   5.620 -0.4463  0.0155  1.4038
  156OSM   C17F17494   3.057   6.105   5.654 -1.1896 -0.8655 -0.0960
  156OSM   H17F17495   3.014   6.172   5.576 -2.0075  0.8109  1.7214
  156OSM   H17G17496   3.168   6.119   5.655 -1.3604  1.3350 -2.2343
  156OSM   C18F17497   3.014   6.136   5.789  0.8130 -0.1312 -0.0236
  156OSM   H18F17498   3.063   6.068   5.862  2.0274  1.0327  0.3042
  156OSM   H18G17499   2.904   6.126   5.801  0.6599  0.7562 -0.5574
  156OSM   H18H17500   3.040   6.241   5.816 -0.8773  0.9583 -2.3164
  157OSM      N17501   4.079   1.136   3.657 -0.4397  0.3707 -0.4704
  157OSM    C1517502   4.153   1.259   3.619 -1.3827  0.3539 -0.5764
  157OSM   H15A17503   4.252   1.254   3.662 -1.6614  0.0736  0.0479
  157OSM   H15B17504   4.108   1.349   3.658  1.4715  1.7296 -0.1840
  157OSM   H15C17505   4.156   1.273   3.512  0.7724  1.6194 -0.4059
  157OSM    C1417506   3.962   1.103   3.567  0.0513  0.5044  0.2390
  157OSM   H14A17507   3.903   1.026   3.615 -0.0498  1.7754  2.3091
  157OSM   H14B17508   4.002   1.067   3.473  2.0698  0.7122  0.9572
  157OSM   H14C17509   3.900   1.189   3.551  1.6931  1.8142  0.5851
  157OSM    C1317510   4.176   1.016   3.655  0.2126  0.3220 -1.1438
  157OSM   H13A17511   4.138   0.923   3.694 -0.0928  0.3046 -1.4856
  157OSM   H13B17512   4.261   1.042   3.718 -0.6211  0.9676 -0.2385
  157OSM   H13C17513   4.207   0.991   3.555  0.1588  1.3153 -1.4257
  157OSM    C1217514   4.037   1.163   3.800 -0.2453  0.1247  0.2082
  157OSM   H12A17515   4.131   1.181   3.850 -0.4382  0.4719  0.4521
  157OSM   H12B17516   3.989   1.072   3.833 -1.1287  0.3577 -0.4059
  157OSM    C1117517   3.935   1.279   3.828  0.3346 -0.8398  0.3367
  157OSM   H11A17518   3.934   1.262   3.938 -0.2337  0.8428  0.6224
  157OSM   H11B17519   3.832   1.269   3.788  0.1698  0.7209  0.3174
  157OSM      P17520   3.904   1.531   3.843 -0.3793 -0.8311  0.1041
  157OSM    O1317521   3.983   1.658   3.838  0.2128  0.8315  0.8474
  157OSM    O1417522   3.781   1.546   3.765 -0.2090  0.3480  0.1570
  157OSM    O1117523   3.874   1.501   3.997 -0.5385 -0.5072  0.4659
  157OSM    O1217524   3.986   1.409   3.788 -0.3490 -0.1088  0.3562
  157OSM    C1S17525   3.738   1.508   4.043 -0.0754  0.0453  0.1431
  157OSM    H1S17526   3.670   1.447   3.980  1.3510 -0.0157 -1.4258
  157OSM    H1T17527   3.708   1.615   4.049  0.3117  0.2478 -1.1122
  157OSM     NF17528   3.591   1.458   4.246  0.4567 -0.4314  0.3783
  157OSM    HNF17529   3.570   1.528   4.314  2.4421  0.8227 -0.2302
  157OSM    C2S17530   3.728   1.462   4.191  1.2416 -0.0875 -0.1047
  157OSM    H2S17531   3.753   1.354   4.189 -0.1123 -0.5134  1.9445
  157OSM    C3S17532   3.841   1.529   4.284  0.1184  0.1939  0.0213
  157OSM    H3S17533   3.813   1.636   4.285 -0.3186  0.1737  3.5408
  157OSM     O317534   3.974   1.526   4.235  0.4865  0.0633  0.3765
  157OSM    HO317535   3.955   1.505   4.143 -1.3004 -0.1513  0.7550
  157OSM    C4S17536   3.839   1.476   4.426 -0.3542 -0.2975  0.4956
  157OSM    H4S17537   3.873   1.372   4.437 -2.1174 -1.2215 -1.8908
  157OSM    C5S17538   3.805   1.539   4.537 -0.2977 -0.7813 -0.7332
  157OSM    H5S17539   3.773   1.644   4.526 -1.1964 -0.8789  0.7072
  157OSM    C6S17540   3.799   1.495   4.686  0.4221  0.1485  0.5099
  157OSM    H6S17541   3.829   1.390   4.704 -1.6501 -0.6557 -0.4518
  157OSM    H6T17542   3.692   1.486   4.713  0.3563 -1.0687 -0.0652
  157OSM    C7S17543   3.875   1.580   4.787  0.0437  0.1774 -0.2524
  157OSM    H7S17544   3.821   1.675   4.810  1.2789  1.3570 -2.0003
  157OSM    H7T17545   3.972   1.620   4.749  0.8521  0.3307  1.8114
  157OSM    C8S17546   3.894   1.523   4.932  0.1028 -0.2022 -0.4065
  157OSM    H8S17547   3.979   1.574   4.981 -0.0214 -0.3474 -0.0322
  157OSM    H8T17548   3.918   1.415   4.923  0.1546 -0.6770  3.7146
  157OSM    C9S17549   3.775   1.552   5.022  0.0490 -0.4000  0.6053
  157OSM    H9S17550   3.681   1.501   4.993 -0.3893  0.0986  1.1112
  157OSM    H9T17551   3.763   1.662   5.036 -0.3789 -0.0099 -2.2545
  157OSM   C10S17552   3.809   1.516   5.170 -0.7314 -0.0913 -0.9331
  157OSM   H10S17553   3.889   1.581   5.210 -2.7400  1.7602  0.2837
  157OSM   H10T17554   3.836   1.409   5.176 -0.5872  0.0035  4.1653
  157OSM   C11S17555   3.684   1.533   5.263  0.0360  0.1022  0.0097
  157OSM   H11S17556   3.599   1.484   5.210  0.7932 -0.3206 -0.8607
  157OSM   H11T17557   3.664   1.641   5.278  0.9232  0.2413  0.2184
  157OSM   C12S17558   3.704   1.460   5.396  0.2043 -0.1148  1.2002
  157OSM   H12S17559   3.790   1.507   5.448  0.0248 -0.1197  1.4995
  157OSM   H12T17560   3.752   1.361   5.379 -0.9679 -0.2389 -2.0545
  157OSM   C13S17561   3.584   1.450   5.490 -0.1335 -0.0046 -0.5131
  157OSM   H13S17562   3.507   1.375   5.462  0.2630 -0.4607 -0.3848
  157OSM   H13T17563   3.547   1.555   5.487 -2.0113 -0.5296  1.4969
  157OSM   C14S17564   3.612   1.424   5.638 -0.3313 -0.0044  0.1488
  157OSM   H14S17565   3.715   1.466   5.645  0.4155 -0.2940 -4.9387
  157OSM   H14T17566   3.616   1.315   5.659 -0.6166  0.1797  1.1775
  157OSM   C15S17567   3.507   1.480   5.732 -0.5797  0.0911  0.0749
  157OSM   H15S17568   3.470   1.583   5.711  0.6765  1.7230  4.5579
  157OSM   H15T17569   3.552   1.485   5.834  0.7315  0.8222 -0.5194
  157OSM   C16S17570   3.395   1.379   5.753 -0.3270  0.0866 -0.0245
  157OSM   H16S17571   3.440   1.277   5.748 -0.3900  0.1189 -1.8635
  157OSM   H16T17572   3.317   1.377   5.675 -1.0442  0.0004  0.6781
  157OSM   C17S17573   3.340   1.405   5.894 -0.6390  0.6279  0.3493
  157OSM   H17S17574   3.302   1.509   5.896 -0.0486  0.8642 -0.3002
  157OSM   H17T17575   3.417   1.404   5.974  0.9787  1.3519 -1.1306
  157OSM   C18S17576   3.213   1.320   5.917 -0.0845  0.8339 -0.1751
  157OSM   H18S17577   3.148   1.351   6.000 -2.8639 -3.4455 -0.4397
  157OSM   H18T17578   3.237   1.213   5.936 -2.6260 -0.1922 -2.1758
  157OSM   H18U17579   3.153   1.310   5.824 -0.0106 -0.4464 -0.1127
  157OSM    C1F17580   3.487   1.391   4.196  0.2397  0.1569 -0.0406
  157OSM     OF17581   3.503   1.294   4.119  0.1443  0.4532  0.2832
  157OSM    C2F17582   3.341   1.436   4.239  0.1217  0.1220 -0.0197
  157OSM    H2F17583   3.282   1.452   4.146  2.2446  1.3430 -1.2477
  157OSM    H2G17584   3.360   1.527   4.299  1.3370 -1.3320  1.9316
  157OSM    C3F17585   3.266   1.342   4.323  0.2254 -0.5249 -0.8275
  157OSM    H3F17586   3.259   1.247   4.266 -1.7762 -1.2434  0.4915
  157OSM    H3G17587   3.166   1.388   4.337 -0.1013 -0.9330 -1.7767
  157OSM    C4F17588   3.340   1.311   4.456  0.4352  0.5283 -0.0112
  157OSM    H4F17589   3.439   1.263   4.443 -1.0875 -2.5621 -1.2295
  157OSM    H4G17590   3.280   1.223   4.490 -1.0372  1.0339 -1.1807
  157OSM    C5F17591   3.344   1.425   4.552 -0.2665  0.4733  0.5900
  157OSM    H5F17592   3.242   1.467   4.563 -0.1670  0.6077  1.0013
  157OSM    H5G17593   3.401   1.512   4.514 -0.5815  0.6277  0.4706
  157OSM    C6F17594   3.395   1.365   4.683  0.3741 -0.2330  0.4056
  157OSM    H6F17595   3.502   1.391   4.693  0.3901 -0.2324  0.2429
  157OSM    H6G17596   3.397   1.254   4.680 -0.5085 -0.2392 -0.8259
  157OSM    C7F17597   3.323   1.418   4.809 -0.4091 -0.1125  0.0028
  157OSM    H7F17598   3.228   1.361   4.817 -0.8483  0.6612  0.4159
  157OSM    H7G17599   3.297   1.524   4.790  1.6126  0.2276 -1.1648
  157OSM    C8F17600   3.400   1.393   4.941  0.5947 -0.1066 -0.1059
  157OSM    H8F17601   3.341   1.440   5.022 -1.3018 -1.0343 -0.8765
  157OSM    H8G17602   3.501   1.438   4.928  0.6228  0.4468  1.7789
  157OSM    C9F17603   3.420   1.251   4.987 -0.4665  0.7530  0.3996
  157OSM    H9F17604   3.469   1.192   4.908 -0.4055  1.5420 -0.1659
  157OSM   C10F17605   3.387   1.193   5.105 -0.4952  0.2171  0.1740
  157OSM   H10F17606   3.401   1.086   5.129 -2.8658 -0.3623 -0.7362
  157OSM   C11F17607   3.310   1.257   5.220 -0.2548  0.9963  0.7009
  157OSM   H11F17608   3.275   1.360   5.196 -2.1703 -0.1392 -1.9039
  157OSM   H11G17609   3.389   1.262   5.297 -1.3380  1.5755  1.8141
  157OSM   C12F17610   3.205   1.155   5.265  0.9448 -0.8576 -0.0729
  157OSM   H12F17611   3.244   1.052   5.279  1.9792 -0.6267 -1.1423
  157OSM   H12G17612   3.136   1.158   5.178  0.8803 -0.7149 -0.0179
  157OSM   C13F17613   3.124   1.202   5.394  0.2768  0.5890  0.3183
  157OSM   H13F17614   3.079   1.300   5.370  0.6514  0.5932 -0.3916
  157OSM   H13G17615   3.195   1.206   5.480 -0.1117  1.4937  0.6110
  157OSM   C14F17616   3.010   1.102   5.416  0.6841 -0.2914  0.2777
  157OSM   H14F17617   2.962   1.094   5.316  1.3641  1.4750 -0.2420
  157OSM   H14G17618   2.937   1.140   5.491 -0.6790  0.9678 -1.5679
  157OSM   C15F17619   3.056   0.967   5.475  0.0169  0.0867 -0.0296
  157OSM   H15F17620   3.102   0.990   5.574  0.2156 -0.0302 -0.0957
  157OSM   H15G17621   3.120   0.916   5.401 -1.4674 -0.2466 -1.1268
  157OSM   C16F17622   2.935   0.877   5.503 -0.7804  0.5822  0.1319
  157OSM   H16F17623   2.879   0.863   5.408 -1.5622 -0.6890  0.7581
  157OSM   H16G17624   2.864   0.916   5.579 -0.6172 -0.7025  0.9641
  157OSM   C17F17625   2.977   0.739   5.552 -0.5089  0.0028 -0.3820
  157OSM   H17F17626   3.068   0.752   5.615  0.8829 -0.9415 -2.1050
  157OSM   H17G17627   3.008   0.687   5.459  0.6148  0.3139 -0.1979
  157OSM   C18F17628   2.867   0.660   5.631  0.2683 -0.4641  0.7557
  157OSM   H18F17629   2.906   0.569   5.682  0.8805  0.0786  1.2885
  157OSM   H18G17630   2.781   0.634   5.566  0.8260 -1.5676  0.4406
  157OSM   H18H17631   2.821   0.722   5.711  2.4027  0.8276  1.0850
  158OSM      N17632   5.400   5.230   3.524 -0.0956  0.3029  0.3905
  158OSM    C1517633   5.403   5.352   3.453 -0.0765  0.4646  0.1923
  158OSM   H15A17634   5.445   5.425   3.520  4.0405 -1.3929 -0.0642
  158OSM   H15B17635   5.308   5.378   3.410  0.2450  0.9776 -0.2216
  158OSM   H15C17636   5.467   5.342   3.366  0.2058  2.0719  0.1839
  158OSM    C1417637   5.287   5.230   3.618  0.0101 -0.2758 -0.3195
  158OSM   H14A17638   5.193   5.235   3.566  0.0347 -1.3541 -0.4988
  158OSM   H14B17639   5.294   5.318   3.681  0.2056 -1.1767  0.9656
  158OSM   H14C17640   5.287   5.146   3.686 -1.0289  0.0506  0.1012
  158OSM    C1317641   5.358   5.117   3.433  0.2954 -0.2270 -0.0060
  158OSM   H13A17642   5.418   5.105   3.343 -0.9199  0.0596 -0.8806
  158OSM   H13B17643   5.261   5.136   3.390  1.5002 -0.0133 -2.9307
  158OSM   H13C17644   5.362   5.028   3.494  0.1774  0.7468  1.4710
  158OSM    C1217645   5.538   5.199   3.583  0.3259  0.5030  0.1853
  158OSM   H12A17646   5.614   5.213   3.507  0.1732  0.6661  0.0626
  158OSM   H12B17647   5.534   5.092   3.600 -0.5633  0.1098 -2.1007
  158OSM    C1117648   5.577   5.273   3.711  0.2999  0.2222  0.5496
  158OSM   H11A17649   5.663   5.214   3.749 -0.3281 -1.7100 -0.8998
  158OSM   H11B17650   5.499   5.273   3.791 -0.8625 -1.2170 -0.5147
  158OSM      P17651   5.751   5.445   3.631 -0.1790  0.3052 -0.5576
  158OSM    O1317652   5.802   5.337   3.546 -0.0888  0.0117 -0.1088
  158OSM    O1417653   5.744   5.577   3.560 -0.5427  0.0156  0.6170
  158OSM    O1117654   5.841   5.453   3.755  0.5458  0.3923  0.6130
  158OSM    O1217655   5.609   5.409   3.681 -0.2810  0.1726  0.0733
  158OSM    C1S17656   5.818   5.551   3.852 -0.6125  0.1185 -0.1847
  158OSM    H1S17657   5.717   5.542   3.896  0.0121 -0.7611  1.1399
  158OSM    H1T17658   5.826   5.656   3.816  1.5993  0.0095 -0.1686
  158OSM     NF17659   5.879   5.589   4.095  0.6923 -0.0339  0.1815
  158OSM    HNF17660   5.950   5.658   4.112  0.7867  0.2800 -1.3257
  158OSM    C2S17661   5.917   5.517   3.974 -0.5036  0.4635  0.2191
  158OSM    H2S17662   5.907   5.407   3.989  3.0803  0.0978  0.7742
  158OSM    C3S17663   6.067   5.525   3.929  0.0079 -0.0006 -0.6825
  158OSM    H3S17664   6.082   5.635   3.928 -1.4519  0.2366  0.4178
  158OSM     O317665   6.114   5.466   3.806 -0.1014  0.2728 -0.0721
  158OSM    HO317666   6.038   5.445   3.751 -1.3046 -0.1905  1.6996
  158OSM    C4S17667   6.152   5.493   4.048 -0.9266  0.2239 -0.5149
  158OSM    H4S17668   6.158   5.581   4.112 -0.1658  0.1939 -0.5386
  158OSM    C5S17669   6.205   5.373   4.085  0.8554 -0.3969 -0.1368
  158OSM    H5S17670   6.196   5.284   4.021 -0.0089  0.8348 -1.8254
  158OSM    C6S17671   6.272   5.341   4.220  0.7622 -0.2896  0.0867
  158OSM    H6S17672   6.380   5.325   4.205  1.1488  2.6586 -1.0642
  158OSM    H6T17673   6.230   5.244   4.255 -0.4562 -0.1122 -0.8056
  158OSM    C7S17674   6.254   5.443   4.335 -0.8772 -0.1098  0.9685
  158OSM    H7S17675   6.152   5.481   4.356 -1.3410 -1.5199  1.3370
  158OSM    H7T17676   6.318   5.529   4.307 -1.9507  0.1527 -0.8255
  158OSM    C8S17677   6.306   5.377   4.464 -0.6801 -0.1481 -0.0575
  158OSM    H8S17678   6.394   5.308   4.469 -1.7625 -1.5979 -0.2856
  158OSM    H8T17679   6.227   5.302   4.484 -0.4419 -0.3627  0.0974
  158OSM    C9S17680   6.314   5.474   4.580  0.2235  0.3641 -0.3088
  158OSM    H9S17681   6.241   5.555   4.564  0.7759  0.3994 -3.2819
  158OSM    H9T17682   6.406   5.536   4.572 -0.2684  0.9331 -2.1262
  158OSM   C10S17683   6.285   5.407   4.715 -1.0210 -0.1606  0.3717
  158OSM   H10S17684   6.292   5.298   4.696 -0.6646 -0.3953  1.7798
  158OSM   H10T17685   6.184   5.447   4.736 -0.1444  3.4444 -1.3867
  158OSM   C11S17686   6.398   5.436   4.818  0.3749 -0.1547 -0.3284
  158OSM   H11S17687   6.398   5.547   4.821  3.0546  0.0583 -3.0956
  158OSM   H11T17688   6.498   5.403   4.782 -0.8806 -1.9521 -2.4576
  158OSM   C12S17689   6.364   5.362   4.940 -0.1123  0.0838 -0.4212
  158OSM   H12S17690   6.382   5.253   4.933  1.6042  0.3131 -0.0890
  158OSM   H12T17691   6.254   5.357   4.955  0.0754  0.2203  1.2153
  158OSM   C13S17692   6.437   5.412   5.068  0.1464 -0.2980  0.2563
  158OSM   H13S17693   6.409   5.519   5.079 -2.6133 -1.1331  2.4157
  158OSM   H13T17694   6.548   5.408   5.057  0.0059 -0.6955 -1.2527
  158OSM   C14S17695   6.392   5.342   5.198 -0.4518 -0.6223 -0.3167
  158OSM   H14S17696   6.413   5.233   5.189 -0.4901 -0.6296 -0.3172
  158OSM   H14T17697   6.281   5.346   5.195 -0.4202 -0.1791 -0.9618
  158OSM   C15S17698   6.450   5.393   5.335 -0.4973  0.9430 -0.0551
  158OSM   H15S17699   6.553   5.420   5.303 -0.7598  3.4034  0.9437
  158OSM   H15T17700   6.458   5.309   5.407 -3.7606 -0.7217 -1.4082
  158OSM   C16S17701   6.383   5.514   5.399  0.7557 -0.2507 -0.0962
  158OSM   H16S17702   6.277   5.491   5.424  0.7303 -1.3567 -1.1286
  158OSM   H16T17703   6.395   5.593   5.322 -2.5992  0.2613 -0.2190
  158OSM   C17S17704   6.454   5.563   5.525  0.3380  0.2242  0.1600
  158OSM   H17S17705   6.558   5.573   5.488  0.4385 -0.8523  0.1072
  158OSM   H17T17706   6.455   5.491   5.611  1.2215 -0.9080 -0.7659
  158OSM   C18S17707   6.398   5.701   5.575 -0.0281  0.0880 -0.4870
  158OSM   H18S17708   6.453   5.728   5.668 -1.4741  0.5008  0.2815
  158OSM   H18T17709   6.293   5.678   5.604  0.1294  1.6823  1.6215
  158OSM   H18U17710   6.399   5.776   5.493 -0.5934 -0.5733 -1.1134
  158OSM    C1F17711   5.760   5.570   4.157  0.1066  0.1698 -0.2058
  158OSM     OF17712   5.677   5.488   4.116  0.3179 -0.3379 -0.5548
  158OSM    C2F17713   5.745   5.651   4.279 -0.2092 -0.1575  0.0177
  158OSM    H2F17714   5.679   5.594   4.347 -1.3437  0.4660 -0.5407
  158OSM    H2G17715   5.695   5.746   4.249  0.8185  0.1916 -0.6860
  158OSM    C3F17716   5.874   5.697   4.359  0.9516 -0.5665 -0.2700
  158OSM    H3F17717   5.931   5.776   4.306 -0.2973  0.0527 -0.7404
  158OSM    H3G17718   5.951   5.618   4.372  0.3826 -0.9311  1.1068
  158OSM    C4F17719   5.854   5.750   4.500  0.3933 -0.9307  0.5916
  158OSM    H4F17720   5.752   5.794   4.513  0.7111 -0.1399  0.4820
  158OSM    H4G17721   5.931   5.830   4.509 -0.9307  0.3402  1.0654
  158OSM    C5F17722   5.882   5.646   4.605 -0.4376  0.7684  0.6100
  158OSM    H5F17723   5.987   5.610   4.595 -0.8316 -0.7649  1.5669
  158OSM    H5G17724   5.816   5.557   4.598 -0.7619  0.6968  3.4887
  158OSM    C6F17725   5.884   5.718   4.741  0.0367  0.4672  0.7001
  158OSM    H6F17726   5.786   5.764   4.768  0.3474  0.7631  1.3546
  158OSM    H6G17727   5.944   5.810   4.724  1.0695 -0.3617 -0.2572
  158OSM    C7F17728   5.939   5.641   4.861 -0.2091 -0.2257  0.1788
  158OSM    H7F17729   6.034   5.596   4.827 -0.2082 -0.1034  0.0170
  158OSM    H7G17730   5.874   5.552   4.875  0.5296 -1.2862 -2.4077
  158OSM    C8F17731   5.954   5.725   4.984 -0.3276  0.2423 -0.0747
  158OSM    H8F17732   5.858   5.771   5.016 -0.4069 -0.2346  0.3869
  158OSM    H8G17733   6.011   5.818   4.961  0.8425 -0.7159 -1.1951
  158OSM    C9F17734   6.026   5.643   5.086 -0.3376  0.3130 -0.1090
  158OSM    H9F17735   6.103   5.578   5.044 -0.7322  1.0132 -2.0704
  158OSM   C10F17736   6.006   5.634   5.219 -0.2993  0.7033  0.1720
  158OSM   H10F17737   6.069   5.568   5.280  2.0344  1.6584 -1.0813
  158OSM   C11F17738   5.900   5.713   5.301 -0.4603 -0.0681 -0.3986
  158OSM   H11F17739   5.826   5.643   5.345  0.1384 -0.2359  0.3637
  158OSM   H11G17740   5.838   5.782   5.240 -2.6193 -0.8947  0.7299
  158OSM   C12F17741   5.964   5.800   5.419 -0.0203  0.0137 -0.1295
  158OSM   H12F17742   5.884   5.871   5.451 -0.3705 -0.2920 -0.3183
  158OSM   H12G17743   6.053   5.845   5.370 -0.8340 -0.6804 -2.3434
  158OSM   C13F17744   6.014   5.725   5.540  0.7886  0.0640 -0.6711
  158OSM   H13F17745   6.069   5.790   5.611 -1.4606  1.8694 -0.4371
  158OSM   H13G17746   6.084   5.646   5.505 -1.8060 -2.0784 -1.4255
  158OSM   C14F17747   5.913   5.648   5.628 -1.0472 -0.5646 -0.2058
  158OSM   H14F17748   5.847   5.583   5.567  1.7124 -2.9513 -0.8896
  158OSM   H14G17749   5.847   5.722   5.677 -0.3455  0.7639 -1.1804
  158OSM   C15F17750   5.991   5.557   5.733 -0.7495 -0.5745  0.2756
  158OSM   H15F17751   6.049   5.635   5.787 -1.8854 -1.4236  2.8831
  158OSM   H15G17752   6.066   5.483   5.699  1.3545 -0.3620  3.8859
  158OSM   C16F17753   5.904   5.486   5.841 -0.1679  0.4730  0.2369
  158OSM   H16F17754   5.817   5.554   5.854 -0.5307  0.1821 -0.6019
  158OSM   H16G17755   5.961   5.480   5.936 -0.5860 -1.0395  0.4133
  158OSM   C17F17756   5.849   5.350   5.800 -0.2020  0.0148 -0.1327
  158OSM   H17F17757   5.931   5.277   5.785 -1.1261 -0.9939 -0.4525
  158OSM   H17G17758   5.795   5.353   5.703  0.0703 -2.7802 -0.4467
  158OSM   C18F17759   5.750   5.302   5.914 -0.0095  0.6224  0.4478
  158OSM   H18F17760   5.668   5.372   5.938 -0.2605  1.2332 -1.9198
  158OSM   H18G17761   5.808   5.270   6.003  1.3575  1.4952 -0.0882
  158OSM   H18H17762   5.713   5.205   5.874  2.9794 -0.0408 -1.0168
  159OSM      N17763   2.849   2.353   3.617 -0.3904  0.0650 -0.4242
  159OSM    C1517764   2.760   2.263   3.529  0.3491 -0.2577 -0.4824
  159OSM   H15A17765   2.772   2.283   3.424 -0.6914 -0.5898 -0.6725
  159OSM   H15B17766   2.656   2.268   3.558  0.7160  1.0072  0.7610
  159OSM   H15C17767   2.792   2.161   3.544 -1.6942 -1.2349 -2.3437
  159OSM    C1417768   2.876   2.270   3.744 -0.0807  0.3121  0.1144
  159OSM   H14A17769   2.909   2.170   3.721 -3.1555 -0.6866 -0.5117
  159OSM   H14B17770   2.781   2.259   3.794  0.7490  1.2150  2.0150
  159OSM   H14C17771   2.939   2.321   3.815 -0.3881 -0.1868  0.7501
  159OSM    C1317772   2.979   2.376   3.552 -0.0835  0.5850  0.2032
  159OSM   H13A17773   2.970   2.446   3.470  2.4899  1.4533  0.5756
  159OSM   H13B17774   3.016   2.279   3.522  0.5990  0.6416  0.8331
  159OSM   H13C17775   3.054   2.403   3.625 -0.1178  1.9819 -0.2504
  159OSM    C1217776   2.774   2.476   3.653 -0.0082 -0.0017  0.1715
  159OSM   H12A17777   2.752   2.530   3.562 -1.1608 -1.6869 -0.5893
  159OSM   H12B17778   2.849   2.534   3.704 -1.2430  0.4328  1.5302
  159OSM    C1117779   2.653   2.472   3.741 -0.1206 -0.1307 -0.3917
  159OSM   H11A17780   2.642   2.578   3.775 -0.4036  0.4409 -2.1688
  159OSM   H11B17781   2.687   2.410   3.827  0.8408  3.1422  1.8172
  159OSM      P17782   2.442   2.297   3.713  0.5742 -0.0965  0.1772
  159OSM    O1317783   2.299   2.333   3.716  0.5263 -0.1895 -0.4078
  159OSM    O1417784   2.482   2.203   3.607 -0.0154 -0.3928 -0.2564
  159OSM    O1117785   2.498   2.248   3.852 -0.4541 -0.0018 -0.0076
  159OSM    O1217786   2.524   2.433   3.689 -0.3975  0.4590 -0.1995
  159OSM    C1S17787   2.473   2.327   3.964  0.3182 -0.2799  0.3898
  159OSM    H1S17788   2.373   2.375   3.957 -0.0336 -1.1486 -0.8301
  159OSM    H1T17789   2.555   2.400   3.979 -0.4240  1.0615 -1.7135
  159OSM     NF17790   2.405   2.321   4.194 -0.2282 -0.9149 -0.1953
  159OSM    HNF17791   2.462   2.391   4.236  0.4635  0.3179 -2.9858
  159OSM    C2S17792   2.459   2.238   4.094  0.2802 -0.1149  0.7612
  159OSM    H2S17793   2.390   2.154   4.070 -0.5375  1.2992 -2.2715
  159OSM    C3S17794   2.592   2.168   4.114 -0.1841  0.6962 -0.3144
  159OSM    H3S17795   2.669   2.248   4.120  0.6014 -0.1039  0.7386
  159OSM     O317796   2.644   2.087   4.004 -0.3162 -0.2663 -0.0844
  159OSM    HO317797   2.594   2.113   3.926 -3.0502 -1.3005  1.2419
  159OSM    C4S17798   2.602   2.105   4.246  1.1692  0.0757 -0.1798
  159OSM    H4S17799   2.619   2.184   4.321  0.9601 -1.1924  1.2691
  159OSM    C5S17800   2.591   1.981   4.298 -0.4057 -0.1234  0.4314
  159OSM    H5S17801   2.610   1.897   4.230  1.8162  0.1736  0.6187
  159OSM    C6S17802   2.584   1.957   4.447 -0.4268 -0.6397 -0.0241
  159OSM    H6S17803   2.679   1.915   4.485 -0.0543  0.5553  0.4168
  159OSM    H6T17804   2.506   1.878   4.456 -0.4732 -0.4244  1.7953
  159OSM    C7S17805   2.559   2.077   4.535  1.2430  0.8045  0.6556
  159OSM    H7S17806   2.468   2.124   4.494 -0.0893  0.2265  2.8128
  159OSM    H7T17807   2.643   2.150   4.540  1.0334  1.0906  0.0472
  159OSM    C8S17808   2.525   2.035   4.675  0.3931 -0.1617 -0.0631
  159OSM    H8S17809   2.615   1.985   4.716  0.2950  1.0053  1.7273
  159OSM    H8T17810   2.437   1.966   4.675 -2.5948  3.2885  1.6475
  159OSM    C9S17811   2.477   2.149   4.764 -0.5003 -0.5634  0.0789
  159OSM    H9S17812   2.402   2.212   4.712 -0.9060  0.0048  1.3154
  159OSM    H9T17813   2.566   2.215   4.775  0.6529 -2.0411 -0.0031
  159OSM   C10S17814   2.428   2.107   4.901 -0.1528 -0.3784 -0.2817
  159OSM   H10S17815   2.509   2.041   4.939  2.0333  1.1791 -2.0075
  159OSM   H10T17816   2.339   2.041   4.890 -0.6667  0.5524 -2.0046
  159OSM   C11S17817   2.421   2.223   5.002 -0.3207 -0.6505  0.0319
  159OSM   H11S17818   2.368   2.304   4.948 -1.4413  0.1422  2.1997
  159OSM   H11T17819   2.523   2.266   5.016  0.1192 -1.6948  0.1851
  159OSM   C12S17820   2.359   2.195   5.141 -0.1915 -0.9276  0.2987
  159OSM   H12S17821   2.283   2.115   5.137 -0.5997 -0.7502  2.8985
  159OSM   H12T17822   2.290   2.280   5.161 -0.0732 -0.0358 -2.5673
  159OSM   C13S17823   2.462   2.168   5.256 -0.0320  0.6656 -0.2754
  159OSM   H13S17824   2.552   2.232   5.247  0.8166 -0.5294 -0.5925
  159OSM   H13T17825   2.498   2.068   5.225 -0.3493  2.1502 -6.8720
  159OSM   C14S17826   2.404   2.159   5.390 -0.2277 -0.4432  0.1259
  159OSM   H14S17827   2.481   2.123   5.461 -0.3614 -0.9384  0.0201
  159OSM   H14T17828   2.332   2.075   5.398 -0.7501  0.1550  2.5143
  159OSM   C15S17829   2.342   2.293   5.431 -0.3797 -0.7340 -0.2332
  159OSM   H15S17830   2.296   2.279   5.531  0.3753 -0.4535  0.1613
  159OSM   H15T17831   2.259   2.315   5.360 -0.2592 -0.3836 -0.2667
  159OSM   C16S17832   2.433   2.419   5.444 -0.3977  0.1464 -0.3857
  159OSM   H16S17833   2.469   2.444   5.341 -1.3076 -0.5960 -0.9024
  159OSM   H16T17834   2.524   2.383   5.497 -0.6070  2.7630  1.9474
  159OSM   C17S17835   2.378   2.537   5.510  0.8796  0.5980 -0.0402
  159OSM   H17S17836   2.326   2.500   5.601 -0.2324  0.1347 -0.8434
  159OSM   H17T17837   2.295   2.577   5.447  0.6741 -0.4119 -0.4269
  159OSM   C18S17838   2.477   2.650   5.532 -0.1265 -0.4074  0.6868
  159OSM   H18S17839   2.516   2.680   5.432  1.1307 -0.9840  0.9817
  159OSM   H18T17840   2.569   2.617   5.585  0.6565  2.4103  1.2230
  159OSM   H18U17841   2.435   2.735   5.589 -0.5752  0.0574 -0.3158
  159OSM    C1F17842   2.278   2.346   4.204  0.0308  0.1152  0.6621
  159OSM     OF17843   2.199   2.308   4.117 -0.1615  0.1925 -0.2735
  159OSM    C2F17844   2.231   2.428   4.325 -1.2813 -0.6149 -0.2611
  159OSM    H2F17845   2.163   2.511   4.296 -3.3099 -1.4988  1.7125
  159OSM    H2G17846   2.320   2.482   4.364 -3.0613  1.1695  1.5674
  159OSM    C3F17847   2.146   2.347   4.424  0.1581  0.9805  0.3574
  159OSM    H3F17848   2.183   2.245   4.445 -0.0202  0.8192 -0.0830
  159OSM    H3G17849   2.048   2.319   4.378 -0.1173 -0.8312  1.9715
  159OSM    C4F17850   2.102   2.437   4.540 -0.1268 -1.0335  0.0468
  159OSM    H4F17851   2.060   2.535   4.510 -0.8129 -1.0702  0.8624
  159OSM    H4G17852   2.197   2.460   4.592  2.0384  0.0040 -3.9025
  159OSM    C5F17853   1.990   2.370   4.625 -0.1038 -0.0108 -0.0005
  159OSM    H5F17854   2.017   2.268   4.658  1.6148 -0.2134 -1.8641
  159OSM    H5G17855   1.892   2.368   4.573  0.0182  2.7674 -0.4883
  159OSM    C6F17856   1.961   2.452   4.751 -0.5185  0.5847  0.1722
  159OSM    H6F17857   1.866   2.408   4.789 -0.9738  1.6562  0.3177
  159OSM    H6G17858   1.932   2.557   4.733  0.0312  0.5433 -1.0694
  159OSM    C7F17859   2.073   2.446   4.858 -0.2177 -0.0032 -0.5870
  159OSM    H7F17860   2.161   2.498   4.816 -1.6979  0.6266 -3.0764
  159OSM    H7G17861   2.097   2.338   4.865  1.7244  0.3178 -1.7942
  159OSM    C8F17862   2.027   2.512   4.991 -0.3379 -0.6718  0.1940
  159OSM    H8F17863   1.938   2.452   5.021 -2.4925  1.4903 -1.4987
  159OSM    H8G17864   1.998   2.618   4.976 -2.4081 -0.9236  1.8826
  159OSM    C9F17865   2.124   2.522   5.104 -0.7731  0.7705 -0.2231
  159OSM    H9F17866   2.225   2.501   5.065 -0.0728  1.2526  1.2397
  159OSM   C10F17867   2.098   2.551   5.227  0.0613 -0.1696 -0.3009
  159OSM   H10F17868   2.184   2.557   5.295 -1.2148  1.0619  1.2770
  159OSM   C11F17869   1.960   2.562   5.284  0.2272 -0.4408  0.4055
  159OSM   H11F17870   1.879   2.556   5.208 -1.0680 -0.7597  1.7598
  159OSM   H11G17871   1.945   2.658   5.337  1.2719  0.4291 -0.8198
  159OSM   C12F17872   1.927   2.446   5.386  0.0499  0.1404  0.3981
  159OSM   H12F17873   1.933   2.349   5.331  2.2238  0.0544  0.6709
  159OSM   H12G17874   1.817   2.442   5.401 -0.2980 -0.2240 -1.8474
  159OSM   C13F17875   2.003   2.452   5.519  0.0182 -0.4107  0.2109
  159OSM   H13F17876   1.956   2.539   5.569  0.2843  0.2054 -0.5807
  159OSM   H13G17877   2.109   2.482   5.504 -0.7934  1.7976 -1.9940
  159OSM   C14F17878   1.994   2.324   5.597  0.8900 -0.5351 -0.2886
  159OSM   H14F17879   2.040   2.237   5.545  0.7349 -0.5748 -0.3596
  159OSM   H14G17880   1.889   2.295   5.615  0.0410  2.1893 -0.3999
  159OSM   C15F17881   2.052   2.352   5.737  0.2231 -0.2678  0.8462
  159OSM   H15F17882   1.996   2.441   5.772 -3.0750 -1.5451 -0.8337
  159OSM   H15G17883   2.161   2.372   5.726  0.5952 -1.3436  2.2130
  159OSM   C16F17884   2.032   2.239   5.846 -0.0703 -0.4498  0.4392
  159OSM   H16F17885   2.113   2.262   5.919  1.4232  1.1148 -1.6023
  159OSM   H16G17886   2.046   2.142   5.793  0.3459 -0.5018  0.6390
  159OSM   C17F17887   1.890   2.227   5.914  0.2637  0.1289 -0.6347
  159OSM   H17F17888   1.832   2.162   5.846 -0.2853  0.0597 -0.1039
  159OSM   H17G17889   1.849   2.329   5.929  0.0825  0.0715 -0.7334
  159OSM   C18F17890   1.909   2.179   6.051 -0.2851  0.3300  0.4687
  159OSM   H18F17891   1.952   2.258   6.115  1.4891 -2.5057  3.0539
  159OSM   H18G17892   1.959   2.080   6.051  1.4359  1.1644  0.1838
  159OSM   H18H17893   1.811   2.162   6.100 -1.1100  0.9478 -0.8946
  160OSM      N17894   5.918   0.072   3.358 -0.1255  0.1663  0.4965
  160OSM    C1517895   5.941   0.187   3.265  0.0977  1.1355  1.2021
  160OSM   H15A17896   5.867   0.262   3.290  0.1185  1.8077 -0.6336
  160OSM   H15B17897   5.919   0.168   3.161  1.1967 -0.1551  1.1826
  160OSM   H15C17898   6.041   0.228   3.271  1.1015 -0.8199 -0.7318
  160OSM    C1417899   5.773   0.047   3.373  0.4189  0.1504  0.6232
  160OSM   H14A17900   5.718   0.016   3.285 -2.3797  2.0620  1.5474
  160OSM   H14B17901   5.730   0.137   3.415  2.1042  1.3827 -0.1615
  160OSM   H14C17902   5.760  -0.028   3.449 -2.1188  1.8241  1.9908
  160OSM    C1317903   5.980  -0.048   3.299 -0.1124  0.2336 -0.1061
  160OSM   H13A17904   5.982  -0.125   3.374  1.8351  1.0844  0.8029
  160OSM   H13B17905   6.085  -0.032   3.280  0.0475 -0.2708  0.3383
  160OSM   H13C17906   5.939  -0.084   3.206  1.3735 -2.1903  0.0952
  160OSM    C1217907   5.987   0.103   3.495 -0.3317 -0.8543  0.4218
  160OSM   H12A17908   5.941   0.197   3.523 -0.3832 -0.7499 -0.0117
  160OSM   H12B17909   6.090   0.128   3.475 -0.9435  1.6235 -0.0340
  160OSM    C1117910   5.971   0.002   3.609 -0.1048 -0.5719  0.7971
  160OSM   H11A17911   5.866  -0.001   3.646 -0.1822  0.3658  0.6894
  160OSM   H11B17912   6.042   0.029   3.690  1.5872  0.0514 -0.8392
  160OSM      P17913   5.971  -0.260   3.622  0.2440 -0.2026  0.0134
  160OSM    O1317914   5.823  -0.266   3.606 -0.1910  0.6464  0.4654
  160OSM    O1417915   6.045  -0.379   3.566  0.5902 -0.6566  0.4246
  160OSM    O1117916   5.998  -0.247   3.779  0.2492 -0.6605  0.5475
  160OSM    O1217917   6.013  -0.128   3.559  0.1919  0.0918  0.2318
  160OSM    C1S17918   6.103  -0.315   3.843 -0.3114  0.3248 -0.0383
  160OSM    H1S17919   6.204  -0.298   3.799  0.2592  1.0144  1.4578
  160OSM    H1T17920   6.079  -0.423   3.835 -0.8479  0.3178  1.4495
  160OSM     NF17921   6.239  -0.291   4.054 -0.6298  0.1415 -0.1962
  160OSM    HNF17922   6.248  -0.361   4.125 -2.4455 -0.1707 -0.2154
  160OSM    C2S17923   6.105  -0.275   3.991 -0.0472  0.5321  0.1854
  160OSM    H2S17924   6.085  -0.166   3.990  0.2510  0.5933  0.6028
  160OSM    C3S17925   5.987  -0.347   4.063  0.4850  0.4719  0.2410
  160OSM    H3S17926   6.013  -0.453   4.085 -1.7156 -0.0263  0.6338
  160OSM     O317927   5.871  -0.377   3.980  0.2356 -0.2494 -0.4323
  160OSM    HO317928   5.898  -0.330   3.901  1.8671  1.2304  0.9064
  160OSM    C4S17929   5.960  -0.290   4.195 -0.4762 -0.6088 -0.4041
  160OSM    H4S17930   6.006  -0.348   4.275 -0.4656  0.4485  0.3777
  160OSM    C5S17931   5.884  -0.176   4.224  0.6931  0.0475  0.3170
  160OSM    H5S17932   5.841  -0.123   4.138  1.8537 -0.5385 -0.6744
  160OSM    C6S17933   5.859  -0.112   4.358  0.8658 -0.3636  1.1133
  160OSM    H6S17934   5.925  -0.024   4.374 -2.3702  2.0850  1.9642
  160OSM    H6T17935   5.873  -0.185   4.440  1.1912  0.9532  2.2717
  160OSM    C7S17936   5.709  -0.072   4.376 -0.9712  0.6887  0.3068
  160OSM    H7S17937   5.646  -0.160   4.352  0.0756  0.1229 -0.4360
  160OSM    H7T17938   5.677   0.011   4.309 -1.1533  1.7731  1.6719
  160OSM    C8S17939   5.676  -0.009   4.513  0.2738 -0.0366  0.8921
  160OSM    H8S17940   5.567   0.004   4.531  0.6760  5.5069  0.9484
  160OSM    H8T17941   5.704   0.099   4.514 -0.5317  0.2440 -1.1997
  160OSM    C9S17942   5.739  -0.079   4.630  0.6939 -0.7705  0.3363
  160OSM    H9S17943   5.843  -0.041   4.619  0.5790 -1.0695 -2.6069
  160OSM    H9T17944   5.746  -0.189   4.621  2.4797 -0.5882 -1.1534
  160OSM   C10S17945   5.668  -0.039   4.767  0.4348 -0.0640 -0.8294
  160OSM   H10S17946   5.581  -0.107   4.783  1.3772 -1.2475 -0.5454
  160OSM   H10T17947   5.646   0.069   4.774  0.7777 -0.0653  0.5834
  160OSM   C11S17948   5.763  -0.082   4.884  0.1712  0.7487  0.1406
  160OSM   H11S17949   5.860  -0.034   4.858  0.7075  0.0271  0.7422
  160OSM   H11T17950   5.795  -0.188   4.879 -3.5981 -0.4760 -1.0219
  160OSM   C12S17951   5.700  -0.048   5.017  0.3293  0.0247 -0.1780
  160OSM   H12S17952   5.740  -0.122   5.090 -1.8959 -0.3771  0.7125
  160OSM   H12T17953   5.589  -0.057   5.014  0.3804 -1.6957  1.2457
  160OSM   C13S17954   5.744   0.101   5.055  0.2801  0.4090  0.3922
  160OSM   H13S17955   5.712   0.169   4.973 -1.1177  0.2768  0.8072
  160OSM   H13T17956   5.855   0.106   5.065  0.4178 -1.4542  0.0251
  160OSM   C14S17957   5.682   0.144   5.193  0.5240 -0.2310 -0.0966
  160OSM   H14S17958   5.579   0.103   5.192  0.2090  0.4162 -2.6748
  160OSM   H14T17959   5.678   0.255   5.194 -0.8347 -0.2597  0.0445
  160OSM   C15S17960   5.773   0.090   5.301  0.1569  0.6176 -0.8747
  160OSM   H15S17961   5.875   0.131   5.285  0.2052 -0.0060 -2.2319
  160OSM   H15T17962   5.794  -0.019   5.305 -0.7187  0.4689  0.1301
  160OSM   C16S17963   5.719   0.120   5.440  0.2310  0.5404 -0.1817
  160OSM   H16S17964   5.646   0.043   5.472  2.6013 -1.6386  0.3079
  160OSM   H16T17965   5.684   0.224   5.426  0.4706  0.3242 -2.6817
  160OSM   C17S17966   5.835   0.109   5.547 -0.2336  0.4539  0.0012
  160OSM   H17S17967   5.914   0.177   5.511 -1.3231  2.2840  0.8600
  160OSM   H17T17968   5.879   0.008   5.534  1.0073  0.9755 -0.0008
  160OSM   C18S17969   5.794   0.133   5.691  0.1314 -0.2591 -0.4540
  160OSM   H18S17970   5.710   0.070   5.726 -0.9356  0.2436 -2.0400
  160OSM   H18T17971   5.759   0.238   5.695  1.2025  0.1111 -0.3230
  160OSM   H18U17972   5.880   0.111   5.759  0.7751 -2.9306 -1.9907
  160OSM    C1F17973   6.346  -0.213   4.029 -0.1452 -0.5716 -0.0677
  160OSM     OF17974   6.335  -0.113   3.957 -0.5551  0.3822  0.0364
  160OSM    C2F17975   6.477  -0.242   4.094 -0.3335 -0.3695 -0.3065
  160OSM    H2F17976   6.544  -0.271   4.010 -0.4074  0.0292 -0.5076
  160OSM    H2G17977   6.468  -0.318   4.174 -4.5334  0.9925  0.7736
  160OSM    C3F17978   6.546  -0.114   4.155  0.5495 -0.2676 -0.1603
  160OSM    H3F17979   6.567  -0.048   4.068  0.6324  0.3246  0.3024
  160OSM    H3G17980   6.645  -0.124   4.203  0.6594 -0.3744 -0.4082
  160OSM    C4F17981   6.447  -0.035   4.258 -0.0108  0.5379 -0.5036
  160OSM    H4F17982   6.366  -0.106   4.283  0.2233 -0.6168 -2.7055
  160OSM    H4G17983   6.415   0.062   4.215  4.2969  3.1016  1.4053
  160OSM    C5F17984   6.500  -0.000   4.393  0.2197  0.3635 -0.9567
  160OSM    H5F17985   6.601   0.045   4.383 -0.9973  3.1717 -1.6286
  160OSM    H5G17986   6.513  -0.095   4.450  0.5558  0.0838 -1.4936
  160OSM    C6F17987   6.411   0.090   4.483  0.6742  0.7022  0.0946
  160OSM    H6F17988   6.319   0.036   4.516  1.2359 -0.1816  0.2568
  160OSM    H6G17989   6.377   0.180   4.428 -1.0814  0.6528  1.0216
  160OSM    C7F17990   6.484   0.147   4.602  1.0558 -0.4211  1.1065
  160OSM    H7F17991   6.426   0.227   4.651  0.5591 -0.3822  0.4700
  160OSM    H7G17992   6.575   0.197   4.562  0.1558  0.8544  0.5692
  160OSM    C8F17993   6.528   0.046   4.708 -0.0990 -0.2516  0.4589
  160OSM    H8F17994   6.619   0.103   4.738 -1.3316  2.0152  0.1372
  160OSM    H8G17995   6.556  -0.045   4.651 -0.9588 -1.1920  1.4822
  160OSM    C9F17996   6.424   0.014   4.816  0.0263  0.2737 -0.0582
  160OSM    H9F17997   6.351  -0.057   4.774  1.6798 -0.8605 -1.1181
  160OSM   C10F17998   6.419   0.074   4.939 -0.7197 -0.7141  0.1395
  160OSM   H10F17999   6.325   0.060   4.993 -0.4553 -0.5153  0.6606
  160OSM   C11F18000   6.528   0.164   4.995 -0.3561 -0.0443  0.0933
  160OSM   H11F18001   6.491   0.268   5.012 -1.7827 -0.4362 -0.5089
  160OSM   H11G18002   6.627   0.165   4.946  1.8165 -1.0399  4.0192
  160OSM   C12F18003   6.557   0.114   5.137  0.3711  0.5107  0.8135
  160OSM   H12F18004   6.640   0.172   5.182  0.4969  0.5873  0.4831
  160OSM   H12G18005   6.600   0.012   5.128 -2.2651 -0.6011 -0.3851
  160OSM   C13F18006   6.438   0.091   5.237  0.0688  0.2417 -0.0310
  160OSM   H13F18007   6.373   0.018   5.185 -1.7736  1.3917  0.5618
  160OSM   H13G18008   6.365   0.175   5.242 -0.1719 -0.0323  1.4575
  160OSM   C14F18009   6.483   0.033   5.372  0.3733  0.1880 -0.0930
  160OSM   H14F18010   6.560  -0.044   5.349 -1.7892 -1.9512 -0.5878
  160OSM   H14G18011   6.398  -0.026   5.413  1.4117 -2.3046 -1.3152
  160OSM   C15F18012   6.546   0.134   5.477 -0.2667  0.0544  0.1152
  160OSM   H15F18013   6.645   0.171   5.445 -0.0356  0.2194  0.9965
  160OSM   H15G18014   6.561   0.073   5.568  0.0264  0.7642  0.5501
  160OSM   C16F18015   6.465   0.253   5.522  0.2463 -0.0685 -0.3244
  160OSM   H16F18016   6.362   0.215   5.536  0.6546 -0.1609  3.6468
  160OSM   H16G18017   6.458   0.324   5.437  1.6050  0.4406 -0.0372
  160OSM   C17F18018   6.515   0.325   5.651  1.1054  0.0720  0.8254
  160OSM   H17F18019   6.618   0.363   5.631  0.2494  1.0406 -2.3988
  160OSM   H17G18020   6.529   0.247   5.729 -2.5046  0.0823  1.6546
  160OSM   C18F18021   6.421   0.438   5.685 -0.7441 -0.2941 -0.4135
  160OSM   H18F18022   6.416   0.499   5.593  1.3698  0.5257 -0.0539
  160OSM   H18G18023   6.455   0.502   5.770 -2.2931  0.5450 -0.3919
  160OSM   H18H18024   6.320   0.396   5.700 -0.6920 -0.6134 -0.9342
  161OSM      N18025   4.209   0.182   3.219  0.4313 -0.1099  0.3377
  161OSM    C1518026   4.297   0.076   3.166  0.2057  0.1699  0.0334
  161OSM   H15A18027   4.251  -0.010   3.118 -2.6785  2.4549 -1.6366
  161OSM   H15B18028   4.366   0.042   3.241 -0.5109  0.4768  0.8504
  161OSM   H15C18029   4.365   0.124   3.098  1.9948 -1.5663  0.5072
  161OSM    C1418030   4.294   0.301   3.260 -0.5838 -0.4732  0.1872
  161OSM   H14A18031   4.355   0.334   3.177 -1.4697 -1.6079 -0.9567
  161OSM   H14B18032   4.363   0.269   3.337  0.7642  0.6885 -0.4709
  161OSM   H14C18033   4.236   0.381   3.303 -0.9593 -0.5237 -0.2155
  161OSM    C1318034   4.103   0.222   3.120 -0.0107 -0.2606 -0.1919
  161OSM   H13A18035   4.129   0.202   3.017 -1.2006  1.2856 -0.8375
  161OSM   H13B18036   4.075   0.327   3.118  0.5968 -0.0965 -2.4433
  161OSM   H13C18037   4.014   0.165   3.140  0.9089 -2.9686 -3.1095
  161OSM    C1218038   4.138   0.135   3.346  0.2394 -0.6807  0.1487
  161OSM   H12A18039   4.213   0.096   3.413  0.4144  1.0251  0.9940
  161OSM   H12B18040   4.094   0.040   3.318 -1.8768 -0.7438  3.2739
  161OSM    C1118041   4.051   0.227   3.435 -0.6440  0.0030 -0.5911
  161OSM   H11A18042   4.012   0.160   3.515 -0.5452  0.2001 -0.3779
  161OSM   H11B18043   3.966   0.261   3.371 -1.4097 -0.2298  0.2789
  161OSM      P18044   4.061   0.452   3.566  0.1076  0.5122 -0.4022
  161OSM    O1318045   4.157   0.507   3.663 -0.1319  0.2088  0.1507
  161OSM    O1418046   3.998   0.538   3.462  0.6582 -0.5434 -0.5539
  161OSM    O1118047   3.944   0.396   3.653  0.0011 -0.5817  0.1491
  161OSM    O1218048   4.127   0.334   3.492 -0.0747  0.2551  0.4883
  161OSM    C1S18049   3.977   0.290   3.748  0.4181 -0.9425 -0.0229
  161OSM    H1S18050   4.065   0.231   3.716  1.9937  1.7703 -0.9998
  161OSM    H1T18051   3.898   0.214   3.767  0.6457 -0.9597  0.8938
  161OSM     NF18052   4.002   0.210   3.982  0.2627  0.1890  0.4618
  161OSM    HNF18053   3.914   0.193   4.028 -0.3322  1.1661 -0.2812
  161OSM    C2S18054   3.998   0.332   3.898  0.2700 -0.0392 -0.3586
  161OSM    H2S18055   4.098   0.380   3.895 -0.0001  0.4894 -2.2732
  161OSM    C3S18056   3.894   0.450   3.949 -0.5836  0.0348 -0.3650
  161OSM    H3S18057   3.791   0.411   3.940 -0.8923  0.8489 -0.5191
  161OSM     O318058   3.887   0.565   3.858  0.5632 -0.9168 -0.5048
  161OSM    HO318059   3.936   0.539   3.780  1.4152  0.4615 -0.4564
  161OSM    C4S18060   3.911   0.486   4.092  0.6546  0.4472  0.2966
  161OSM    H4S18061   3.857   0.418   4.159  0.0615 -0.5416 -1.1334
  161OSM    C5S18062   3.990   0.583   4.146  0.1022 -0.0523 -0.2940
  161OSM    H5S18063   4.066   0.636   4.086 -1.2071 -1.0437 -2.9925
  161OSM    C6S18064   4.005   0.615   4.292  0.8420  0.1711  0.1402
  161OSM    H6S18065   3.969   0.720   4.297 -1.2260 -0.3849 -1.5384
  161OSM    H6T18066   4.110   0.617   4.328  0.4763 -1.3149  1.3921
  161OSM    C7S18067   3.925   0.538   4.406 -0.3194 -0.1622  0.9908
  161OSM    H7S18068   3.980   0.442   4.402  4.0859  2.1142 -2.4183
  161OSM    H7T18069   3.819   0.522   4.376 -0.8611  1.3210  2.0143
  161OSM    C8S18070   3.943   0.606   4.536  0.1157  0.4910 -0.1744
  161OSM    H8S18071   3.914   0.713   4.534 -0.9301  0.2755  1.4582
  161OSM    H8T18072   4.049   0.610   4.568  0.3737  0.5753 -1.0133
  161OSM    C9S18073   3.862   0.536   4.641  0.1812  0.3444  0.0740
  161OSM    H9S18074   3.891   0.429   4.651 -0.1907  0.1590 -0.7673
  161OSM    H9T18075   3.754   0.524   4.624  0.1762  0.1990  0.2040
  161OSM   C10S18076   3.872   0.595   4.785 -0.4047  0.2424  0.2832
  161OSM   H10S18077   3.818   0.691   4.798 -0.7321 -0.2096  2.8318
  161OSM   H10T18078   3.978   0.623   4.802 -0.3984  0.5277 -0.1978
  161OSM   C11S18079   3.811   0.491   4.884 -0.3815 -0.5069 -0.1020
  161OSM   H11S18080   3.874   0.400   4.877  1.4040  0.6810 -0.1421
  161OSM   H11T18081   3.708   0.461   4.855 -0.2834 -2.7316  1.5836
  161OSM   C12S18082   3.809   0.553   5.030  0.0828 -0.7825  0.3399
  161OSM   H12S18083   3.731   0.632   5.026  2.1479  1.4226  0.9684
  161OSM   H12T18084   3.907   0.601   5.052 -0.1453 -0.7355  1.2916
  161OSM   C13S18085   3.761   0.447   5.131  0.2042 -0.1760  0.4768
  161OSM   H13S18086   3.835   0.365   5.137  0.6124  0.0259 -1.2743
  161OSM   H13T18087   3.664   0.405   5.098  1.1187 -4.4114  2.5503
  161OSM   C14S18088   3.745   0.506   5.275  0.7985  0.0903 -0.2006
  161OSM   H14S18089   3.666   0.584   5.276  1.1094  0.4614  2.5435
  161OSM   H14T18090   3.840   0.554   5.308  0.5724  2.2197 -2.3723
  161OSM   C15S18091   3.705   0.394   5.377 -0.4095 -0.9489 -0.1136
  161OSM   H15S18092   3.796   0.330   5.373  0.4158  0.2565 -1.2446
  161OSM   H15T18093   3.621   0.331   5.339 -2.5511  1.7842 -0.2406
  161OSM   C16S18094   3.660   0.452   5.512  0.2467  1.0248  0.3672
  161OSM   H16S18095   3.618   0.359   5.557  1.9555 -0.1713 -0.4157
  161OSM   H16T18096   3.572   0.519   5.508 -0.8199 -0.3035  0.6498
  161OSM   C17S18097   3.767   0.503   5.597  0.1222  0.3971  0.1181
  161OSM   H17S18098   3.793   0.607   5.568  0.2475  0.6921  1.2441
  161OSM   H17T18099   3.855   0.436   5.587 -0.3536 -0.2092 -0.0613
  161OSM   C18S18100   3.741   0.514   5.746  0.3963  0.0289 -0.2063
  161OSM   H18S18101   3.835   0.533   5.801  0.8486 -1.1267 -0.5463
  161OSM   H18T18102   3.692   0.428   5.796 -0.3363  1.2724  1.3145
  161OSM   H18U18103   3.675   0.602   5.765  1.3211  0.5293  0.7969
  161OSM    C1F18104   4.107   0.127   3.982 -0.2045  0.3885  0.0362
  161OSM     OF18105   4.204   0.172   3.930 -0.0828 -0.2394  0.0161
  161OSM    C2F18106   4.105  -0.002   4.065 -0.0267  0.1295  0.6669
  161OSM    H2F18107   4.105  -0.086   3.993  1.6147  1.5793 -1.1390
  161OSM    H2G18108   4.005  -0.014   4.112 -0.9115 -3.8872 -1.8674
  161OSM    C3F18109   4.223  -0.012   4.162 -0.4242  0.0244  0.3589
  161OSM    H3F18110   4.311   0.027   4.106 -0.5016 -2.0141 -1.3236
  161OSM    H3G18111   4.238  -0.122   4.176 -0.1595  0.0938  0.6399
  161OSM    C4F18112   4.193   0.069   4.286  0.0404  0.4211 -0.4077
  161OSM    H4F18113   4.100   0.027   4.330 -1.1646  2.0341 -1.3144
  161OSM    H4G18114   4.181   0.172   4.248 -0.1664  0.7721  0.5716
  161OSM    C5F18115   4.303   0.050   4.391  0.6348  0.2262  0.5560
  161OSM    H5F18116   4.400   0.064   4.339 -0.3130 -0.3900 -1.5004
  161OSM    H5G18117   4.304  -0.058   4.418 -0.9134  0.5267  1.9499
  161OSM    C6F18118   4.314   0.155   4.502  0.3167  0.3865 -1.3023
  161OSM    H6F18119   4.309   0.257   4.459  1.3807  1.0773  0.1415
  161OSM    H6G18120   4.410   0.139   4.554 -0.5198 -0.2945  0.1051
  161OSM    C7F18121   4.196   0.135   4.602 -0.7660  0.0548 -0.3703
  161OSM    H7F18122   4.210   0.034   4.646  1.8828 -0.0600 -1.2785
  161OSM    H7G18123   4.109   0.120   4.535  0.4547 -0.8945 -1.8142
  161OSM    C8F18124   4.180   0.243   4.711 -0.4028 -0.2623  0.0415
  161OSM    H8F18125   4.080   0.228   4.756 -1.0438 -0.5639 -1.4224
  161OSM    H8G18126   4.183   0.342   4.661 -0.6491  0.4733  1.4448
  161OSM    C9F18127   4.294   0.226   4.809  0.1400  0.6820 -0.1528
  161OSM    H9F18128   4.398   0.221   4.774  0.4023 -1.1635  0.7695
  161OSM   C10F18129   4.289   0.197   4.942 -0.0288 -0.4605 -0.5275
  161OSM   H10F18130   4.383   0.184   4.997 -0.5712  1.0908  0.8608
  161OSM   C11F18131   4.160   0.186   5.026  0.4700 -0.6123  0.2333
  161OSM   H11F18132   4.080   0.145   4.960 -1.1616  1.7421  0.6269
  161OSM   H11G18133   4.119   0.286   5.053  2.0413 -0.0462  0.5982
  161OSM   C12F18134   4.174   0.110   5.158  0.0049  0.4998 -1.6115
  161OSM   H12F18135   4.269   0.133   5.211  1.0342 -1.2801 -2.5699
  161OSM   H12G18136   4.173   0.000   5.142 -2.3979  0.0307  0.8924
  161OSM   C13F18137   4.062   0.131   5.262 -0.2646  0.2649  0.7366
  161OSM   H13F18138   3.971   0.097   5.209  0.2213 -1.3468  0.8934
  161OSM   H13G18139   4.047   0.239   5.283  0.3523  0.6633 -0.7549
  161OSM   C14F18140   4.070   0.046   5.396  0.1961  0.2597  0.3724
  161OSM   H14F18141   4.180   0.037   5.412  0.2749 -1.8851 -1.0520
  161OSM   H14G18142   4.027  -0.052   5.367 -1.5087  2.5034 -6.4193
  161OSM   C15F18143   4.001   0.118   5.510  0.2749 -0.2010 -0.3725
  161OSM   H15F18144   3.898   0.137   5.475  0.4438 -0.9621 -1.3563
  161OSM   H15G18145   4.049   0.217   5.524  0.0907  0.0326 -1.3276
  161OSM   C16F18146   3.995   0.027   5.638  0.5753 -0.2607 -0.1748
  161OSM   H16F18147   4.097   0.014   5.679 -0.2387  1.0821  2.5670
  161OSM   H16G18148   3.951  -0.074   5.626  0.3617 -0.0507 -1.2757
  161OSM   C17F18149   3.917   0.086   5.760 -0.0690 -0.0376 -0.4925
  161OSM   H17F18150   3.873   0.183   5.727  0.0732  0.4057  0.5549
  161OSM   H17G18151   3.983   0.113   5.845 -0.0002 -0.7345 -0.3184
  161OSM   C18F18152   3.812  -0.009   5.817 -0.2313  0.1871 -0.0077
  161OSM   H18F18153   3.761   0.031   5.907 -0.8398  0.2143 -0.3612
  161OSM   H18G18154   3.855  -0.110   5.832  0.1244  0.1276 -1.3128
  161OSM   H18H18155   3.726  -0.017   5.747 -0.0252 -1.2599 -0.1182
  162OSM      N18156   5.315   5.920   3.528 -0.6287 -0.6573 -0.1764
  162OSM    C1518157   5.213   5.879   3.635  0.3254  0.4361  0.1938
  162OSM   H15A18158   5.169   5.967   3.680  2.3439  1.4053  0.3721
  162OSM   H15B18159   5.257   5.821   3.714  0.1421  0.8584  0.6142
  162OSM   H15C18160   5.141   5.810   3.593  0.3946  0.7184 -0.3990
  162OSM    C1418161   5.440   5.977   3.597  0.3351 -0.2369 -0.6227
  162OSM   H14A18162   5.504   6.037   3.534  0.0157  2.9855  1.8837
  162OSM   H14B18163   5.485   5.896   3.653  0.6560 -0.3209 -0.9963
  162OSM   H14C18164   5.399   6.048   3.667 -0.7874  0.0486 -1.5316
  162OSM    C1318165   5.369   5.809   3.445 -0.1026 -0.8412  0.1048
  162OSM   H13A18166   5.402   5.727   3.506 -1.0223 -2.0150 -0.9358
  162OSM   H13B18167   5.455   5.850   3.393 -2.3187  3.2932 -0.7553
  162OSM   H13C18168   5.299   5.778   3.369  1.3061  1.1627 -2.1547
  162OSM    C1218169   5.254   6.036   3.453  0.4840  0.1764 -0.2031
  162OSM   H12A18170   5.180   5.992   3.387 -2.1517 -0.1768  2.7335
  162OSM   H12B18171   5.333   6.075   3.392  1.3430 -1.8889 -0.5000
  162OSM    C1118172   5.194   6.159   3.527 -0.3537  0.1817  0.1362
  162OSM   H11A18173   5.123   6.128   3.607 -0.7681  0.2796 -0.1908
  162OSM   H11B18174   5.137   6.208   3.445  1.3749 -2.1309 -2.6600
  162OSM      P18175   5.388   6.347   3.490  0.3897  0.0672 -0.3426
  162OSM    O1318176   5.426   6.280   3.371  0.5901  0.5299  0.1612
  162OSM    O1418177   5.328   6.478   3.471  0.3117  0.5262  0.3586
  162OSM    O1118178   5.519   6.369   3.572  0.6991  0.4178 -0.4327
  162OSM    O1218179   5.291   6.248   3.577  0.4709 -0.3611 -0.0122
  162OSM    C1S18180   5.541   6.404   3.708  0.1548 -0.2279  0.3838
  162OSM    H1S18181   5.445   6.417   3.762 -1.3972  2.8283 -2.6751
  162OSM    H1T18182   5.592   6.502   3.704 -1.0147  0.4922  2.0485
  162OSM     NF18183   5.646   6.321   3.925  0.1530 -0.0799  0.2334
  162OSM    HNF18184   5.731   6.366   3.952 -0.1106 -0.8597  2.5340
  162OSM    C2S18185   5.630   6.291   3.783 -0.0231 -0.7421  0.0928
  162OSM    H2S18186   5.567   6.199   3.778 -0.3255 -0.5186 -0.3955
  162OSM    C3S18187   5.758   6.261   3.705 -0.1632 -0.5379  0.2748
  162OSM    H3S18188   5.821   6.352   3.705 -1.6175  0.5212 -0.6670
  162OSM     O318189   5.738   6.223   3.568  0.2603 -0.1653  0.1143
  162OSM    HO318190   5.656   6.266   3.542  0.4830 -0.1765 -0.6270
  162OSM    C4S18191   5.832   6.148   3.777  1.2096 -0.0903  0.6873
  162OSM    H4S18192   5.777   6.054   3.759  0.6210  0.2611  0.6203
  162OSM    C5S18193   5.937   6.151   3.862 -0.0906  0.5924  0.2690
  162OSM    H5S18194   5.986   6.243   3.897 -1.0668  0.6443  1.5911
  162OSM    C6S18195   5.967   6.024   3.932 -0.0024  1.1538  0.2705
  162OSM    H6S18196   6.066   6.032   3.981 -0.2866  2.0278  0.7463
  162OSM    H6T18197   5.985   5.941   3.861  2.0493  0.3717  1.6019
  162OSM    C7S18198   5.870   5.997   4.050 -0.4163  0.0131  0.4519
  162OSM    H7S18199   5.899   5.898   4.091 -0.9143 -0.2564  0.1642
  162OSM    H7T18200   5.767   5.997   4.009  0.0448  1.8355 -0.8597
  162OSM    C8S18201   5.880   6.103   4.165 -0.0864  0.1986 -0.0136
  162OSM    H8S18202   5.853   6.201   4.121 -0.4211 -1.1963 -3.2206
  162OSM    H8T18203   5.986   6.119   4.192 -0.8557  1.7491  2.4008
  162OSM    C9S18204   5.796   6.080   4.291 -0.0271 -0.0542 -0.2789
  162OSM    H9S18205   5.840   5.989   4.339 -0.3949  0.5048  1.1841
  162OSM    H9T18206   5.688   6.065   4.270  0.3407 -1.1959 -1.5102
  162OSM   C10S18207   5.829   6.193   4.387  0.1832  0.1423  0.3933
  162OSM   H10S18208   5.784   6.289   4.352  0.8212  0.6703  1.0175
  162OSM   H10T18209   5.939   6.204   4.395 -0.0034  0.9434  2.1116
  162OSM   C11S18210   5.785   6.177   4.532  0.5143 -0.7946  0.0126
  162OSM   H11S18211   5.742   6.075   4.537 -0.8772 -0.2692 -0.8548
  162OSM   H11T18212   5.718   6.258   4.567  0.4570  0.1149 -2.0597
  162OSM   C12S18213   5.900   6.176   4.634  0.0431 -0.2292 -0.1453
  162OSM   H12S18214   5.969   6.260   4.614  0.1088 -0.8053 -2.6349
  162OSM   H12T18215   5.967   6.089   4.615 -1.4118 -1.3719 -0.1814
  162OSM   C13S18216   5.841   6.168   4.777 -0.0243 -0.1239  0.0592
  162OSM   H13S18217   5.785   6.072   4.780  0.6272 -0.5091  0.0511
  162OSM   H13T18218   5.772   6.254   4.795 -1.5313 -1.2807 -0.0255
  162OSM   C14S18219   5.957   6.154   4.874  0.0373  0.1192  0.0572
  162OSM   H14S18220   6.024   6.243   4.870  1.6795 -1.1057 -0.8548
  162OSM   H14T18221   6.022   6.069   4.845  0.2438  0.3952 -0.2956
  162OSM   C15S18222   5.908   6.123   5.018  0.1267  0.6413  0.6407
  162OSM   H15S18223   5.988   6.086   5.086 -1.3331 -0.3599  1.8772
  162OSM   H15T18224   5.845   6.032   5.018 -1.0895  1.4294 -1.0802
  162OSM   C16S18225   5.843   6.241   5.103 -0.1460  0.6454 -0.2786
  162OSM   H16S18226   5.739   6.266   5.074 -0.5230 -0.2093  0.2735
  162OSM   H16T18227   5.918   6.320   5.083  1.6721 -0.6413  1.0689
  162OSM   C17S18228   5.849   6.205   5.251  0.6883 -0.5744  0.3671
  162OSM   H17S18229   5.952   6.174   5.276  1.3867  2.5824  1.9027
  162OSM   H17T18230   5.782   6.120   5.276  0.5570 -0.6746 -0.3035
  162OSM   C18S18231   5.814   6.325   5.338 -0.3567 -0.2263  0.3186
  162OSM   H18S18232   5.704   6.329   5.330 -0.4248 -0.8348  0.8834
  162OSM   H18T18233   5.864   6.421   5.314  0.3285 -0.3034  1.3697
  162OSM   H18U18234   5.844   6.304   5.443  1.7044 -0.1417 -0.2081
  162OSM    C1F18235   5.530   6.337   3.998  0.1550  0.5238  0.5496
  162OSM     OF18236   5.421   6.289   3.966 -0.5138 -0.1629 -0.1362
  162OSM    C2F18237   5.549   6.414   4.126  0.3707  0.4354  0.5612
  162OSM    H2F18238   5.577   6.517   4.095  0.4426 -0.5873 -3.3395
  162OSM    H2G18239   5.631   6.363   4.180 -0.0041 -0.6426  0.1356
  162OSM    C3F18240   5.422   6.417   4.208  0.2833 -0.1650  0.4680
  162OSM    H3F18241   5.391   6.312   4.229  0.5217 -0.2572  0.3659
  162OSM    H3G18242   5.337   6.471   4.161  0.1394 -0.0868  0.8139
  162OSM    C4F18243   5.438   6.488   4.344  0.2411 -0.4464  0.6429
  162OSM    H4F18244   5.334   6.505   4.380  1.2586  1.9253  2.7696
  162OSM    H4G18245   5.473   6.593   4.329  0.4720 -0.7500 -1.1400
  162OSM    C5F18246   5.520   6.416   4.450 -0.3064 -0.1253  0.0021
  162OSM    H5F18247   5.628   6.425   4.426 -0.7780  2.4435 -1.5789
  162OSM    H5G18248   5.488   6.311   4.463 -1.0264 -0.0290 -0.9283
  162OSM    C6F18249   5.480   6.487   4.588 -0.3467  0.4933  0.4467
  162OSM    H6F18250   5.371   6.480   4.604 -0.8183  3.0953 -1.0622
  162OSM    H6G18251   5.479   6.598   4.588 -0.4593  0.5077  2.0835
  162OSM    C7F18252   5.566   6.431   4.706 -0.3079  0.2602 -0.0842
  162OSM    H7F18253   5.669   6.466   4.687 -0.4603  0.9182  0.2971
  162OSM    H7G18254   5.553   6.320   4.709  0.3146  0.2023  0.9599
  162OSM    C8F18255   5.521   6.499   4.827 -0.5353  0.1630 -0.6923
  162OSM    H8F18256   5.495   6.605   4.806 -1.5188  0.6482  2.4975
  162OSM    H8G18257   5.607   6.508   4.896 -2.2449 -0.2563  1.6466
  162OSM    C9F18258   5.404   6.423   4.885  0.9430 -0.0913  0.2940
  162OSM    H9F18259   5.352   6.346   4.826 -0.8795  1.4374 -0.2133
  162OSM   C10F18260   5.346   6.447   5.003 -0.2350  0.0019 -0.2743
  162OSM   H10F18261   5.263   6.377   5.020 -0.6179 -0.6745 -3.9972
  162OSM   C11F18262   5.383   6.553   5.099 -0.3958  0.4657 -0.1627
  162OSM   H11F18263   5.294   6.611   5.131 -2.3760 -2.9958  1.0393
  162OSM   H11G18264   5.467   6.610   5.054 -0.2023 -0.2182 -0.6723
  162OSM   C12F18265   5.447   6.497   5.229 -0.1864  0.1170 -0.1804
  162OSM   H12F18266   5.537   6.434   5.215 -0.7644 -0.3843 -1.8838
  162OSM   H12G18267   5.379   6.429   5.285  1.2770 -2.0363 -0.9275
  162OSM   C13F18268   5.493   6.611   5.319 -0.6356 -0.5811 -0.8367
  162OSM   H13F18269   5.398   6.662   5.346  0.8036  2.5148 -1.1329
  162OSM   H13G18270   5.550   6.692   5.269 -1.0087  0.1310 -0.1329
  162OSM   C14F18271   5.568   6.568   5.444  0.6719 -0.2083 -0.7361
  162OSM   H14F18272   5.606   6.656   5.502 -0.0551 -1.5719  1.9671
  162OSM   H14G18273   5.650   6.498   5.417  0.6349 -1.7417  2.6195
  162OSM   C15F18274   5.492   6.488   5.548  0.3177  0.8642 -0.5324
  162OSM   H15F18275   5.421   6.419   5.497 -0.3395  3.3021 -3.1792
  162OSM   H15G18276   5.426   6.564   5.596 -2.5722 -1.4024 -0.6577
  162OSM   C16F18277   5.592   6.413   5.643 -0.5307 -0.2702 -0.1600
  162OSM   H16F18278   5.678   6.481   5.663 -0.3971  0.2432 -2.2301
  162OSM   H16G18279   5.618   6.318   5.592  0.7208 -0.5312  0.9238
  162OSM   C17F18280   5.525   6.369   5.773 -0.5057 -0.1979  0.4835
  162OSM   H17F18281   5.449   6.292   5.750  0.3391 -0.3229 -2.1925
  162OSM   H17G18282   5.473   6.446   5.834 -0.2663  0.3139  0.0538
  162OSM   C18F18283   5.620   6.304   5.870 -0.7057  0.7558 -0.8522
  162OSM   H18F18284   5.577   6.260   5.963  1.3697 -2.4445 -1.2458
  162OSM   H18G18285   5.693   6.376   5.913 -0.9860 -0.0598  1.0946
  162OSM   H18H18286   5.691   6.228   5.831 -1.8467 -0.1195 -1.2691
  163OSM      N18287   3.637   0.467   3.486 -0.7431 -0.0327  0.0414
  163OSM    C1518288   3.718   0.498   3.366 -0.2316  0.1370  0.1908
  163OSM   H15A18289   3.691   0.590   3.316  0.0325  0.1529  0.0775
  163OSM   H15B18290   3.728   0.415   3.297 -1.0400 -1.2982  1.7305
  163OSM   H15C18291   3.821   0.512   3.394 -0.4698  1.0604  0.6431
  163OSM    C1418292   3.651   0.576   3.581 -0.7306  0.3961 -0.6420
  163OSM   H14A18293   3.591   0.552   3.667  0.8160 -1.5276 -0.0139
  163OSM   H14B18294   3.617   0.671   3.544  0.6572  1.0168 -0.3959
  163OSM   H14C18295   3.755   0.585   3.611 -1.1843 -1.2713  1.7091
  163OSM    C1318296   3.495   0.464   3.445  0.1431  0.0431 -0.2798
  163OSM   H13A18297   3.442   0.428   3.531  0.1938 -0.3264 -0.3993
  163OSM   H13B18298   3.486   0.388   3.369  1.3955 -0.1278 -0.2874
  163OSM   H13C18299   3.457   0.560   3.413 -1.1195 -0.6363 -0.8718
  163OSM    C1218300   3.672   0.334   3.550  0.5824 -0.7301 -0.7756
  163OSM   H12A18301   3.773   0.336   3.590  1.3301 -2.7803 -2.4025
  163OSM   H12B18302   3.664   0.256   3.476 -0.7981  1.1517 -2.7259
  163OSM    C1118303   3.583   0.292   3.676  0.6302  0.4259  1.0329
  163OSM   H11A18304   3.588   0.377   3.747  0.8010  0.0021  1.5349
  163OSM   H11B18305   3.634   0.215   3.738 -0.7191 -0.3868  1.1795
  163OSM      P18306   3.322   0.267   3.703 -0.1718 -0.5392 -0.3314
  163OSM    O1318307   3.230   0.338   3.607 -0.2585  0.7100  0.0958
  163OSM    O1418308   3.289   0.130   3.735  0.4336  0.5966 -0.2872
  163OSM    O1118309   3.364   0.343   3.833  0.4299 -0.6522 -0.1724
  163OSM    O1218310   3.452   0.251   3.631  0.4344  0.2313 -0.0210
  163OSM    C1S18311   3.274   0.366   3.935 -0.1054  0.5967 -0.4496
  163OSM    H1S18312   3.272   0.283   4.008 -0.6292  2.2825  1.5771
  163OSM    H1T18313   3.169   0.382   3.902 -1.1845 -0.9666  1.9113
  163OSM     NF18314   3.235   0.505   4.133 -0.0592 -0.3952  0.4144
  163OSM    HNF18315   3.180   0.587   4.147  0.2206  0.4001 -2.4337
  163OSM    C2S18316   3.316   0.491   4.018 -0.1091  0.0401  0.5292
  163OSM    H2S18317   3.424   0.476   4.038  0.0475 -0.9634 -0.9213
  163OSM    C3S18318   3.319   0.617   3.921  0.3000  0.3621 -0.1281
  163OSM    H3S18319   3.212   0.627   3.894  0.0228  1.0837  1.1486
  163OSM     O318320   3.395   0.612   3.802 -0.3342 -0.5336  0.1753
  163OSM    HO318321   3.399   0.518   3.781 -2.9623 -0.6977  0.1127
  163OSM    C4S18322   3.358   0.736   4.005 -0.8161  0.2254  0.5076
  163OSM    H4S18323   3.281   0.813   4.016  0.5273  2.1755 -2.5128
  163OSM    C5S18324   3.483   0.773   4.050 -0.2607  0.7363  0.4628
  163OSM    H5S18325   3.572   0.711   4.030 -1.4420 -0.1774 -2.4922
  163OSM    C6S18326   3.499   0.901   4.125  0.4696  0.6499 -0.5943
  163OSM    H6S18327   3.482   0.985   4.054  0.4049  0.7420 -0.4703
  163OSM    H6T18328   3.604   0.900   4.163 -0.5121  1.8963  2.4782
  163OSM    C7S18329   3.401   0.940   4.235 -0.1655  0.2225 -0.3340
  163OSM    H7S18330   3.296   0.928   4.200 -0.3036  2.6350 -0.9511
  163OSM    H7T18331   3.413   1.050   4.252  1.3709  0.0420 -0.1264
  163OSM    C8S18332   3.420   0.868   4.376  0.5731 -0.3799  0.2702
  163OSM    H8S18333   3.413   0.759   4.358  2.3791 -0.3059 -1.2094
  163OSM    H8T18334   3.337   0.897   4.444  1.1196  0.4518  0.6014
  163OSM    C9S18335   3.550   0.878   4.449 -0.4001  0.1224  0.5958
  163OSM    H9S18336   3.549   0.979   4.495 -0.0674  0.2969  0.2249
  163OSM    H9T18337   3.640   0.874   4.384 -0.6412  1.0538  0.1892
  163OSM   C10S18338   3.566   0.772   4.562 -0.1028 -0.0988  0.3824
  163OSM   H10S18339   3.671   0.787   4.596  0.2667  1.2768 -1.2323
  163OSM   H10T18340   3.558   0.666   4.530 -0.4188  0.1162 -0.2657
  163OSM   C11S18341   3.468   0.806   4.681  0.5011 -0.1909 -0.0060
  163OSM   H11S18342   3.369   0.766   4.653  1.0938 -1.4619 -0.3903
  163OSM   H11T18343   3.460   0.917   4.683  1.4568 -0.1129  0.4184
  163OSM   C12S18344   3.526   0.750   4.810 -0.1605  0.3722  0.6712
  163OSM   H12S18345   3.603   0.820   4.848 -0.1291  0.7307 -0.0360
  163OSM   H12T18346   3.572   0.653   4.781  0.1187  0.9235 -0.8098
  163OSM   C13S18347   3.420   0.712   4.909 -0.1970  0.5714  0.0820
  163OSM   H13S18348   3.456   0.653   4.995  0.2548  2.0987  0.9738
  163OSM   H13T18349   3.342   0.650   4.860 -0.3083 -1.1475  2.2810
  163OSM   C14S18350   3.351   0.840   4.964  0.3521  0.7307 -0.2155
  163OSM   H14S18351   3.324   0.921   4.892  0.3048 -0.1081 -1.1655
  163OSM   H14T18352   3.428   0.877   5.036  0.5974  0.1756 -0.1925
  163OSM   C15S18353   3.220   0.805   5.036 -0.2757  0.3595 -0.3812
  163OSM   H15S18354   3.189   0.897   5.089 -0.3106 -0.3748  0.9333
  163OSM   H15T18355   3.243   0.725   5.110 -1.1541  0.1827 -0.2832
  163OSM   C16S18356   3.107   0.751   4.945  0.8196 -0.5527 -0.4304
  163OSM   H16S18357   3.140   0.646   4.932  0.3130 -0.8795  0.7453
  163OSM   H16T18358   3.084   0.807   4.852 -1.1174  2.1785  1.5406
  163OSM   C17S18359   2.974   0.739   5.018  0.5774 -0.7145 -0.3303
  163OSM   H17S18360   2.991   0.705   5.122 -1.0072  0.4513  0.3336
  163OSM   H17T18361   2.918   0.659   4.964 -1.0009 -1.3534  2.1308
  163OSM   C18S18362   2.877   0.854   5.008  0.1369 -0.7751 -0.3331
  163OSM   H18S18363   2.780   0.828   5.056  0.2336  1.4182  1.1998
  163OSM   H18T18364   2.862   0.888   4.903 -4.5459 -2.6642 -0.5425
  163OSM   H18U18365   2.901   0.942   5.071 -1.6206 -0.1902 -0.4341
  163OSM    C1F18366   3.236   0.414   4.227  0.5996 -0.0218 -0.3577
  163OSM     OF18367   3.333   0.332   4.241 -0.4424  0.6403 -0.8818
  163OSM    C2F18368   3.129   0.433   4.330 -0.6350  0.3546 -0.2022
  163OSM    H2F18369   3.056   0.349   4.316 -1.6716  1.1134  0.4729
  163OSM    H2G18370   3.074   0.530   4.327 -0.1128  0.6988  1.0562
  163OSM    C3F18371   3.196   0.426   4.474  0.2092 -0.0578 -0.3950
  163OSM    H3F18372   3.266   0.510   4.489 -0.4887  0.7262 -1.4217
  163OSM    H3G18373   3.250   0.329   4.483  0.7024 -0.1653 -3.5298
  163OSM    C4F18374   3.095   0.427   4.596  0.2204 -0.2823  0.4745
  163OSM    H4F18375   3.006   0.364   4.573  0.1078  0.1040 -0.1816
  163OSM    H4G18376   3.048   0.528   4.606 -0.9119 -0.9226  2.2618
  163OSM    C5F18377   3.173   0.380   4.717 -0.3878 -0.9492  0.7310
  163OSM    H5F18378   3.255   0.455   4.727 -0.4845 -0.6978 -0.3041
  163OSM    H5G18379   3.214   0.281   4.687 -1.6435 -1.0231 -0.8764
  163OSM    C6F18380   3.072   0.357   4.832 -0.1990  0.2478  0.6080
  163OSM    H6F18381   2.993   0.288   4.796 -0.0350  0.5270 -0.2917
  163OSM    H6G18382   3.021   0.453   4.851  0.8221  1.0564 -0.5916
  163OSM    C7F18383   3.133   0.296   4.957  0.1918 -0.4312  0.2446
  163OSM    H7F18384   3.209   0.367   4.996 -0.4612  0.0868  0.6025
  163OSM    H7G18385   3.193   0.209   4.924  0.4102 -0.2809  0.2464
  163OSM    C8F18386   3.037   0.257   5.067 -0.3365 -0.4028 -0.6156
  163OSM    H8F18387   3.089   0.189   5.138 -0.6226 -0.2088 -0.2169
  163OSM    H8G18388   2.953   0.200   5.025 -1.1076 -1.7081  2.4462
  163OSM    C9F18389   2.975   0.380   5.135  0.5688 -0.0284 -0.1302
  163OSM    H9F18390   2.904   0.441   5.079  1.3139  1.6773  0.7070
  163OSM   C10F18391   3.025   0.429   5.250  0.1334  0.4414 -0.1964
  163OSM   H10F18392   2.990   0.521   5.298  1.5340 -0.4187  2.7095
  163OSM   C11F18393   3.141   0.365   5.320  0.0735 -0.3745 -0.2020
  163OSM   H11F18394   3.217   0.324   5.251 -0.8569  1.5703 -2.5315
  163OSM   H11G18395   3.102   0.279   5.379  2.1107 -1.1087  0.1481
  163OSM   C12F18396   3.200   0.474   5.416  0.6064  0.4405 -0.0975
  163OSM   H12F18397   3.271   0.422   5.484  1.2148  0.0505 -1.0168
  163OSM   H12G18398   3.122   0.524   5.478 -0.1690 -0.8521  0.0192
  163OSM   C13F18399   3.281   0.577   5.345  1.3562  0.0080  0.0989
  163OSM   H13F18400   3.218   0.630   5.271  1.8633  1.0397  0.3881
  163OSM   H13G18401   3.360   0.528   5.286 -0.6831 -1.4145 -1.6243
  163OSM   C14F18402   3.327   0.672   5.454  0.2343 -0.0992 -0.4618
  163OSM   H14F18403   3.380   0.610   5.529 -2.0825 -1.8147 -0.1293
  163OSM   H14G18404   3.250   0.731   5.507  0.3476 -0.0531 -0.3473
  163OSM   C15F18405   3.423   0.780   5.402  0.1514 -0.2642 -0.7249
  163OSM   H15F18406   3.359   0.868   5.383  0.4929  0.9524  2.8923
  163OSM   H15G18407   3.464   0.750   5.304 -0.2470  1.4333 -1.4411
  163OSM   C16F18408   3.519   0.815   5.511 -0.1476 -0.5481  0.5371
  163OSM   H16F18409   3.592   0.734   5.534  0.1192 -0.4211  0.1584
  163OSM   H16G18410   3.474   0.841   5.610 -0.6248  1.4611 -0.1556
  163OSM   C17F18411   3.616   0.933   5.470  0.2571  0.0767  0.2618
  163OSM   H17F18412   3.670   0.901   5.378 -0.8205 -0.1316 -0.3299
  163OSM   H17G18413   3.694   0.945   5.547  0.5186  2.9014 -0.3451
  163OSM   C18F18414   3.545   1.067   5.452 -0.0733 -0.0822 -0.1200
  163OSM   H18F18415   3.633   1.131   5.431  0.5754 -0.0362  2.3406
  163OSM   H18G18416   3.489   1.093   5.545 -0.9332 -2.8413  0.2089
  163OSM   H18H18417   3.479   1.065   5.363 -2.5785  2.1041  1.5199
  164OSM      N18418   0.259   0.250   3.584 -0.4223  0.1581  0.6110
  164OSM    C1518419   0.327   0.146   3.497 -0.2127  1.1699  0.1120
  164OSM   H15A18420   0.264   0.059   3.497  1.1274  0.1005  2.2940
  164OSM   H15B18421   0.419   0.117   3.546  0.4521  0.6603 -1.3720
  164OSM   H15C18422   0.348   0.181   3.397  2.3079 -1.1218 -0.2979
  164OSM    C1418423   0.325   0.381   3.600 -0.1518 -0.4102  0.1602
  164OSM   H14A18424   0.260   0.445   3.658  0.6545 -0.3908  1.0625
  164OSM   H14B18425   0.350   0.427   3.506  1.6702  0.0781  0.8467
  164OSM   H14C18426   0.418   0.372   3.654 -0.2146 -0.5143  0.2535
  164OSM    C1318427   0.123   0.268   3.517 -0.6497  0.2653 -0.4894
  164OSM   H13A18428   0.113   0.209   3.427  2.0022 -0.7921 -0.1855
  164OSM   H13B18429   0.130   0.373   3.492  0.9105  0.3423  0.1464
  164OSM   H13C18430   0.045   0.259   3.591  0.9583  0.1689  1.2774
  164OSM    C1218431   0.245   0.179   3.728 -0.7093 -0.0198 -0.9364
  164OSM   H12A18432   0.343   0.174   3.773 -1.0980  0.0187 -0.0529
  164OSM   H12B18433   0.223   0.073   3.718  0.8539 -0.6408  1.3541
  164OSM    C1118434   0.160   0.249   3.836 -0.3730 -0.0241 -0.2616
  164OSM   H11A18435   0.199   0.350   3.860 -1.0841  0.2312 -0.1640
  164OSM   H11B18436   0.170   0.205   3.938 -0.0765  3.5087  1.4009
  164OSM      P18437  -0.078   0.144   3.815  0.3103 -0.1937 -0.0702
  164OSM    O1318438  -0.199   0.180   3.743 -0.5853  0.0498  0.4853
  164OSM    O1418439  -0.003   0.020   3.776 -0.2310 -0.0618 -0.2213
  164OSM    O1118440  -0.100   0.144   3.981  0.8013  0.1503 -0.3869
  164OSM    O1218441   0.021   0.259   3.805  0.1394  0.0374 -0.2875
  164OSM    C1S18442  -0.132   0.255   4.059  0.8475 -0.2249  0.3015
  164OSM    H1S18443  -0.235   0.289   4.035 -0.1007 -2.1183  1.4761
  164OSM    H1T18444  -0.067   0.340   4.028 -1.7810  1.1103 -1.9873
  164OSM     NF18445  -0.154   0.343   4.292  0.2108  0.0496 -0.1433
  164OSM    HNF18446  -0.075   0.384   4.337 -0.6992  1.7381  0.0094
  164OSM    C2S18447  -0.126   0.224   4.213 -0.6450  0.2702  0.1382
  164OSM    H2S18448  -0.206   0.148   4.227 -0.0794 -0.3542  0.0461
  164OSM    C3S18449   0.015   0.155   4.252  0.7491  0.3702  0.2150
  164OSM    H3S18450   0.097   0.228   4.232  0.8711  0.1147 -0.2385
  164OSM     O318451   0.047   0.053   4.160 -0.2003  0.4482 -0.2251
  164OSM    HO318452  -0.002   0.075   4.080 -0.5322 -0.1923 -0.2028
  164OSM    C4S18453   0.004   0.102   4.391  0.0911 -0.0047  0.2074
  164OSM    H4S18454  -0.034  -0.001   4.398  0.7014 -0.2931 -0.4989
  164OSM    C5S18455   0.058   0.169   4.490  0.2250 -0.0864  0.5842
  164OSM    H5S18456   0.106   0.264   4.464 -1.9306  0.3241 -2.4316
  164OSM    C6S18457   0.056   0.122   4.635  0.6995 -0.5781  0.2207
  164OSM    H6S18458   0.160   0.097   4.664  0.9824 -1.4769 -1.4680
  164OSM    H6T18459  -0.008   0.033   4.652  1.0873 -0.9011  0.0092
  164OSM    C7S18460   0.024   0.232   4.741  0.7472  0.5708 -0.0416
  164OSM    H7S18461  -0.077   0.269   4.714  0.8084 -0.6094 -2.1005
  164OSM    H7T18462   0.093   0.319   4.732  0.7935  0.9592  2.9210
  164OSM    C8S18463   0.030   0.181   4.888 -0.0184 -0.5148 -0.2230
  164OSM    H8S18464  -0.026   0.085   4.892 -2.6464  0.9493  0.5348
  164OSM    H8T18465  -0.038   0.248   4.945  0.0952  0.0917 -0.7900
  164OSM    C9S18466   0.177   0.166   4.935 -0.0606 -0.4597 -0.1317
  164OSM    H9S18467   0.223   0.267   4.929  0.8138 -0.9367 -2.5744
  164OSM    H9T18468   0.237   0.100   4.869  2.8442 -0.4154  2.2647
  164OSM   C10S18469   0.185   0.108   5.072 -0.3355  0.5275  0.5525
  164OSM   H10S18470   0.293   0.092   5.094 -0.3602  1.2581  1.2440
  164OSM   H10T18471   0.142   0.007   5.055  2.9756 -0.8197 -0.8094
  164OSM   C11S18472   0.138   0.196   5.190  0.0550 -0.5772  0.0220
  164OSM   H11S18473   0.032   0.229   5.192  0.4087  0.8831 -2.0377
  164OSM   H11T18474   0.202   0.287   5.185 -1.0883  0.5150  3.1245
  164OSM   C12S18475   0.159   0.127   5.327  0.0193 -0.9262 -0.4376
  164OSM   H12S18476   0.267   0.101   5.327 -0.0045 -1.3913  2.5757
  164OSM   H12T18477   0.091   0.039   5.321 -1.6976  0.3803 -1.0089
  164OSM   C13S18478   0.128   0.208   5.455 -0.8284  0.2261  0.6495
  164OSM   H13S18479   0.021   0.238   5.458 -1.2643 -0.9836 -1.2958
  164OSM   H13T18480   0.204   0.289   5.454  0.1407 -0.6509 -0.4852
  164OSM   C14S18481   0.149   0.102   5.569  0.7552 -0.3391 -0.2414
  164OSM   H14S18482   0.247   0.052   5.558  0.6798 -0.4044 -0.6087
  164OSM   H14T18483   0.073   0.021   5.567  1.3805 -1.2310  3.5384
  164OSM   C15S18484   0.149   0.174   5.713 -0.6469 -0.2429 -0.5927
  164OSM   H15S18485   0.229   0.251   5.714  2.2167 -2.8970  3.2362
  164OSM   H15T18486   0.201   0.108   5.786  0.9258 -0.6086 -1.9624
  164OSM   C16S18487   0.010   0.219   5.760  0.0436 -0.7070 -0.4716
  164OSM   H16S18488  -0.053   0.129   5.779  1.4807 -1.6504  0.0137
  164OSM   H16T18489  -0.037   0.287   5.685 -1.3854 -0.7631  0.3322
  164OSM   C17S18490   0.016   0.293   5.883  0.4903 -0.2254 -1.1249
  164OSM   H17S18491   0.090   0.372   5.855  0.2944  1.5816  2.7573
  164OSM   H17T18492   0.051   0.221   5.961  0.0494 -0.3789 -1.0681
  164OSM   C18S18493  -0.114   0.368   5.923  0.4460  0.1600  0.0100
  164OSM   H18S18494  -0.083   0.435   6.006 -0.5203 -1.6964  1.9512
  164OSM   H18T18495  -0.202   0.304   5.945  0.4637 -0.4929 -1.6860
  164OSM   H18U18496  -0.148   0.429   5.836 -0.7909 -2.3453 -1.3659
  164OSM    C1F18497  -0.276   0.390   4.303 -0.6754 -0.5756 -0.5770
  164OSM     OF18498  -0.377   0.328   4.276 -0.5617 -0.0274  0.5142
  164OSM    C2F18499  -0.283   0.534   4.352 -0.4260 -0.0922 -0.1673
  164OSM    H2F18500  -0.343   0.584   4.273 -0.3116  0.3688  0.0335
  164OSM    H2G18501  -0.182   0.580   4.352 -0.0248 -0.8858 -2.1489
  164OSM    C3F18502  -0.355   0.554   4.487  0.2658 -0.8727 -0.3171
  164OSM    H3F18503  -0.458   0.514   4.491 -1.5133  3.2924  0.2869
  164OSM    H3G18504  -0.366   0.663   4.507 -0.1756 -0.9712 -0.0258
  164OSM    C4F18505  -0.263   0.512   4.601 -0.0219 -0.1472  0.0896
  164OSM    H4F18506  -0.169   0.566   4.577 -0.1547 -0.4442 -1.1600
  164OSM    H4G18507  -0.239   0.404   4.596 -0.2087 -0.1751 -0.2498
  164OSM    C5F18508  -0.322   0.539   4.745 -0.0593  0.2427  0.8649
  164OSM    H5F18509  -0.424   0.496   4.756  0.0361 -0.3579 -0.3413
  164OSM    H5G18510  -0.337   0.648   4.757  0.3053  0.1014  3.0067
  164OSM    C6F18511  -0.240   0.492   4.860  0.3936  0.6536  0.2276
  164OSM    H6F18512  -0.141   0.542   4.850  1.1790 -0.9315 -0.2265
  164OSM    H6G18513  -0.226   0.382   4.864  0.0735  0.6113  0.2102
  164OSM    C7F18514  -0.297   0.525   5.000 -0.3367 -0.3952 -0.6261
  164OSM    H7F18515  -0.401   0.487   4.995 -0.9786  1.2977 -0.9222
  164OSM    H7G18516  -0.311   0.634   5.017  0.8015 -0.5118  1.3939
  164OSM    C8F18517  -0.201   0.471   5.110 -0.3185 -0.1740  0.2076
  164OSM    H8F18518  -0.109   0.534   5.109 -0.8617  0.6525  0.9552
  164OSM    H8G18519  -0.162   0.370   5.085  1.2146  1.1725 -3.8122
  164OSM    C9F18520  -0.274   0.483   5.249  0.9678  0.3007  0.9571
  164OSM    H9F18521  -0.377   0.443   5.248  1.1346 -0.3464 -2.3545
  164OSM   C10F18522  -0.239   0.545   5.355 -0.3157 -0.8189 -0.5537
  164OSM   H10F18523  -0.308   0.547   5.440  0.2362 -0.2430 -0.1092
  164OSM   C11F18524  -0.111   0.623   5.387 -0.3909 -0.2328 -0.2308
  164OSM   H11F18525  -0.120   0.733   5.389 -0.0729 -0.0167 -4.0642
  164OSM   H11G18526  -0.040   0.606   5.304  2.6908  0.2857  2.0971
  164OSM   C12F18527  -0.025   0.565   5.500  0.2280  0.1281  0.0030
  164OSM   H12F18528  -0.015   0.456   5.484  1.6359  0.2407 -0.0861
  164OSM   H12G18529  -0.060   0.575   5.605 -0.5395 -0.0724 -0.2360
  164OSM   C13F18530   0.112   0.633   5.498  0.3350 -0.1386  0.3164
  164OSM   H13F18531   0.164   0.629   5.400  2.0095  0.0918  1.1507
  164OSM   H13G18532   0.182   0.575   5.562  0.8051  1.5042  1.3650
  164OSM   C14F18533   0.118   0.770   5.549  0.4114  0.7191 -0.2631
  164OSM   H14F18534   0.055   0.766   5.641 -2.9859 -1.4164 -2.4877
  164OSM   H14G18535   0.059   0.835   5.482  1.5699  1.0777 -0.9636
  164OSM   C15F18536   0.261   0.812   5.584  0.1244 -0.4462  0.0264
  164OSM   H15F18537   0.311   0.735   5.647 -1.1535 -0.0317  1.6271
  164OSM   H15G18538   0.251   0.898   5.653 -0.0503 -1.6458  1.5573
  164OSM   C16F18539   0.338   0.858   5.461  0.4527 -0.1183  0.2906
  164OSM   H16F18540   0.263   0.902   5.392 -1.1329  0.2714  2.1931
  164OSM   H16G18541   0.375   0.763   5.416 -3.0830 -0.6200 -1.9337
  164OSM   C17F18542   0.458   0.953   5.492 -1.4297  0.2248  0.2426
  164OSM   H17F18543   0.439   1.038   5.562  0.8869  1.8927 -1.0393
  164OSM   H17G18544   0.505   0.987   5.398 -0.4680 -0.7835  0.3414
  164OSM   C18F18545   0.565   0.864   5.561  0.2580  0.1140  0.2867
  164OSM   H18F18546   0.531   0.783   5.628  0.5506  0.1255  0.4494
  164OSM   H18G18547   0.625   0.939   5.617  0.3851  0.4501 -0.2877
  164OSM   H18H18548   0.633   0.807   5.494  0.5382 -0.3976  1.0027
  165SAPS     N18549   0.207   1.596   8.633  0.0808  0.2513  0.7614
  165SAPS   HN118550   0.147   1.662   8.579  0.0857 -0.4141 -0.0643
  165SAPS   HN218551   0.223   1.627   8.731  0.7753  1.0006  0.4171
  165SAPS   HN318552   0.295   1.581   8.581 -1.1848 -2.4679 -0.8198
  165SAPS   C1218553   0.128   1.468   8.660  0.1276 -0.1141  0.5385
  165SAPS  H12A18554   0.168   1.410   8.741 -0.4885 -1.6410 -0.2242
  165SAPS   C1318555  -0.025   1.477   8.682 -0.2323 -0.2497  0.6655
  165SAPS  O13A18556  -0.088   1.588   8.683 -0.2488 -0.5576  0.0374
  165SAPS  O13B18557  -0.083   1.370   8.712  0.1964  0.5603 -0.1525
  165SAPS   C1118558   0.137   1.386   8.533  0.4026  0.3734 -0.0123
  165SAPS  H11A18559   0.078   1.428   8.449 -3.4314 -1.5930  1.4369
  165SAPS  H11B18560   0.090   1.286   8.546 -1.0674  1.1823  1.2013
  165SAPS     P18561   0.364   1.244   8.511 -0.5880  0.5116 -0.0655
  165SAPS   O1318562   0.502   1.260   8.462  0.2294 -0.2805  0.2892
  165SAPS   O1418563   0.352   1.188   8.648 -0.1521 -0.6381 -0.0355
  165SAPS   O1218564   0.275   1.373   8.495 -0.5152 -0.1666  0.3018
  165SAPS   O1118565   0.295   1.146   8.412 -0.1977  0.2316  0.1225
  165SAPS    C118566   0.291   1.173   8.267  0.1372  0.4127 -0.0204
  165SAPS    HA18567   0.280   1.282   8.248 -0.5466 -0.0051 -2.3344
  165SAPS    HB18568   0.387   1.143   8.219 -0.6727 -1.4050 -0.6216
  165SAPS    C218569   0.180   1.104   8.187  0.5013 -0.1576 -0.0713
  165SAPS    HS18570   0.172   0.994   8.202  0.0922 -0.3281 -1.4215
  165SAPS   O2118571   0.199   1.133   8.047 -0.1618 -0.5331 -0.2304
  165SAPS   C2118572   0.229   1.030   7.963 -0.6364  0.2900  0.0770
  165SAPS   O2218573   0.240   0.913   7.997 -0.1392  0.4585  0.5813
  165SAPS   C2218574   0.255   1.096   7.828 -0.0893 -0.3417 -0.3589
  165SAPS   H2R18575   0.194   1.187   7.816  0.8855  0.4674  0.5857
  165SAPS   H2S18576   0.363   1.124   7.822 -0.5125  1.2702 -1.0496
  165SAPS    C318577   0.039   1.163   8.245 -0.6837  0.2277  0.1317
  165SAPS    HX18578   0.037   1.274   8.253 -1.3611  0.1443  1.3291
  165SAPS    HY18579   0.029   1.127   8.350 -1.9378  1.4636  0.4723
  165SAPS   O3118580  -0.074   1.129   8.163 -0.5765  0.2255  0.2571
  165SAPS   C3118581  -0.128   1.010   8.183  0.0654  0.0958 -0.1457
  165SAPS   O3218582  -0.081   0.929   8.265 -0.0471  0.1295 -0.1507
  165SAPS   C3218583  -0.260   0.994   8.107  0.3083  0.1725  0.0115
  165SAPS   H2X18584  -0.309   1.094   8.118 -0.3934 -0.2502  0.8128
  165SAPS   H2Y18585  -0.321   0.917   8.157  0.3075  1.3602  1.9432
  165SAPS   C2318586   0.207   1.017   7.703  1.0293  0.1464  0.7588
  165SAPS   H3R18587   0.238   0.910   7.715  1.7400  0.3361  0.6896
  165SAPS   H3S18588   0.259   1.050   7.610 -2.2254  0.5308 -1.0548
  165SAPS   C2418589   0.051   1.032   7.696  0.5146 -0.9084  0.5759
  165SAPS   H4R18590   0.037   1.138   7.665 -0.4497 -0.5826  2.0202
  165SAPS   H4S18591   0.017   1.024   7.802  0.4373  0.5662  0.6828
  165SAPS   C2518592  -0.031   0.944   7.602  0.0834  0.1744 -0.7848
  165SAPS   H5R18593  -0.089   0.869   7.657  0.0964  1.8612  1.6839
  165SAPS   C2618594  -0.020   0.930   7.471 -0.8233  0.1499  0.3019
  165SAPS   H6R18595  -0.093   0.860   7.426 -0.7618  0.9327 -1.0488
  165SAPS   C2718596   0.061   1.016   7.376  0.3567 -0.1351 -0.2209
  165SAPS   H7R18597   0.128   1.086   7.431 -2.0434  0.7906  1.6851
  165SAPS   H7S18598   0.010   1.091   7.312  1.6343 -1.0111 -2.3873
  165SAPS   C2818599   0.136   0.917   7.289 -0.3263 -0.7595 -0.1511
  165SAPS   H8R18600   0.225   0.878   7.340 -0.3723 -1.7877 -0.8199
  165SAPS   C2918601   0.108   0.877   7.161  0.2973  0.1287 -0.0019
  165SAPS   H9R18602   0.172   0.809   7.103 -0.1840  0.3151 -0.7563
  165SAPS  C21018603  -0.018   0.926   7.078 -0.1326 -0.1712  0.4567
  165SAPS  H10R18604   0.003   1.001   6.998  0.0550 -0.2006  0.4770
  165SAPS  H10S18605  -0.089   0.987   7.136  0.2416 -1.1447  1.9925
  165SAPS  C21118606  -0.087   0.804   7.014 -0.0108  1.1615  0.8133
  165SAPS  H11R18607  -0.161   0.762   7.084  1.2629  1.3828  2.3442
  165SAPS  C21218608  -0.071   0.732   6.900  0.4577 -0.0019  0.5737
  165SAPS  H12R18609  -0.152   0.663   6.873  0.5956  1.0132 -2.8057
  165SAPS  C21318610   0.020   0.766   6.792 -0.3304 -0.7701  0.1036
  165SAPS  H13R18611  -0.001   0.694   6.711  0.9777  1.5396 -2.4502
  165SAPS  H13S18612   0.124   0.750   6.828 -0.7459 -2.4799  0.6042
  165SAPS  C21418613   0.007   0.906   6.735  0.3882  0.9669  0.1977
  165SAPS  H14R18614  -0.034   0.990   6.794 -0.0846  0.5783  0.4335
  165SAPS  C21518615   0.031   0.933   6.607 -0.1797 -0.0221 -0.0402
  165SAPS  H15R18616   0.011   1.036   6.574 -0.2339  0.2215  0.7423
  165SAPS  C21618617   0.063   0.831   6.505 -0.1053 -0.1213 -1.1278
  165SAPS  H16R18618  -0.008   0.745   6.513 -2.1349  1.5695  0.1821
  165SAPS  H16S18619   0.155   0.781   6.543 -2.0263 -0.1361  4.3605
  165SAPS  C21718620   0.061   0.868   6.353  0.0619 -0.2918  0.4489
  165SAPS  H17R18621   0.128   0.956   6.343 -1.5186  0.7922 -1.2230
  165SAPS  H17S18622  -0.042   0.895   6.322 -0.0987 -0.4573  0.8275
  165SAPS  C21818623   0.102   0.751   6.267  0.3039 -0.0545  0.5152
  165SAPS  H18R18624   0.067   0.647   6.285 -0.7712  0.2171  0.0598
  165SAPS  H18S18625   0.213   0.738   6.273  0.1221 -1.5722  0.8917
  165SAPS  C21918626   0.075   0.779   6.123  0.0998 -0.9379  0.3733
  165SAPS  H19R18627   0.069   0.889   6.114  0.8817 -0.8958  0.3601
  165SAPS  H19S18628  -0.027   0.741   6.098 -0.1501 -0.0246 -0.0105
  165SAPS  C22018629   0.181   0.736   6.029 -0.5560  0.3832 -0.8320
  165SAPS  H20R18630   0.171   0.626   6.016 -0.4051 -0.0005  1.8466
  165SAPS  H20S18631   0.286   0.750   6.061 -0.8255 -1.7661  1.2867
  165SAPS  H20T18632   0.173   0.793   5.934  0.8943  1.4158 -0.3719
  165SAPS   C3318633  -0.243   0.958   7.956 -0.5011 -0.4131 -0.1479
  165SAPS   H3X18634  -0.195   0.860   7.939  0.0726 -0.0497 -0.6582
  165SAPS   H3Y18635  -0.187   1.041   7.908 -2.3248 -0.1480 -1.9975
  165SAPS   C3418636  -0.373   0.947   7.886  0.9033 -0.0739  0.5040
  165SAPS   H4X18637  -0.416   1.049   7.893 -2.6230 -1.4196  0.4046
  165SAPS   H4Y18638  -0.451   0.885   7.935  0.7224 -0.2070  0.0494
  165SAPS   C3518639  -0.381   0.898   7.741 -0.1870 -0.6021 -0.6924
  165SAPS   H5X18640  -0.331   0.803   7.714  0.5962  0.1267 -1.8923
  165SAPS   H5Y18641  -0.316   0.979   7.700  0.7281 -0.5046  0.8706
  165SAPS   C3618642  -0.520   0.908   7.669  0.5156  0.4871  0.1694
  165SAPS   H6X18643  -0.571   1.004   7.692  1.7538  0.7236  2.1218
  165SAPS   H6Y18644  -0.585   0.833   7.720  1.2720 -1.3253 -1.3943
  165SAPS   C3718645  -0.510   0.890   7.517  0.7117  0.0061 -0.1755
  165SAPS   H7X18646  -0.465   0.985   7.480  2.3003  0.0162  1.6230
  165SAPS   H7Y18647  -0.611   0.884   7.471  0.9853  1.4440 -1.0256
  165SAPS   C3818648  -0.428   0.772   7.466  0.8699 -0.2078 -0.2049
  165SAPS   H8X18649  -0.454   0.686   7.532 -0.0463  1.2152  1.3579
  165SAPS   H8Y18650  -0.321   0.791   7.489  1.0450 -2.7060  1.4299
  165SAPS   C3918651  -0.459   0.734   7.322  0.4502  0.3084 -0.2777
  165SAPS   H9X18652  -0.453   0.829   7.264  0.2531  1.3734  1.3890
  165SAPS   H9Y18653  -0.565   0.701   7.308  0.2281  0.9595 -0.1731
  165SAPS  C31018654  -0.362   0.618   7.284  0.4675 -0.0650  0.4497
  165SAPS  H10X18655  -0.360   0.528   7.350 -0.9981 -0.5850 -0.1693
  165SAPS  H10Y18656  -0.260   0.662   7.289  1.0341 -1.4129  1.7434
  165SAPS  C31118657  -0.401   0.557   7.147  0.1012 -0.3570 -0.3772
  165SAPS  H11X18658  -0.394   0.633   7.066 -0.5765 -1.6963 -1.7467
  165SAPS  H11Y18659  -0.502   0.515   7.163  0.1760 -0.4405 -0.1102
  165SAPS  C31218660  -0.312   0.435   7.109 -0.5364 -0.6498 -0.3566
  165SAPS  H12X18661  -0.284   0.365   7.191 -0.4884 -1.1448 -0.7838
  165SAPS  H12Y18662  -0.212   0.477   7.084  0.6573 -3.1377 -0.0586
  165SAPS  C31318663  -0.372   0.358   6.995  0.2264 -0.3078  1.1581
  165SAPS  H13X18664  -0.402   0.410   6.902  1.9991  2.0159  1.7881
  165SAPS  H13Y18665  -0.460   0.301   7.031 -0.6954  0.8586  0.8111
  165SAPS  C31418666  -0.271   0.260   6.932 -0.1900  0.3238  0.5667
  165SAPS  H14X18667  -0.243   0.196   7.018  1.1579  0.0511 -0.0586
  165SAPS  H14Y18668  -0.185   0.321   6.895 -0.0193  0.4392  1.1477
  165SAPS  C31518669  -0.334   0.186   6.817  0.2856  0.4201 -0.6137
  165SAPS  H15X18670  -0.248   0.138   6.765  0.7095  0.2492  0.2203
  165SAPS  H15Y18671  -0.389   0.262   6.757  1.6285  2.0709  0.1579
  165SAPS  C31618672  -0.424   0.065   6.861  0.6919 -1.1062  0.0403
  165SAPS  H16X18673  -0.512   0.102   6.919  0.8920  0.3377 -0.5279
  165SAPS  H16Y18674  -0.362  -0.000   6.925  0.5126 -1.4607 -0.1460
  165SAPS  C31718675  -0.488  -0.017   6.747  0.0953 -0.3878  0.1460
  165SAPS  H17X18676  -0.405  -0.068   6.694  1.7218  1.0393  1.2027
  165SAPS  H17Y18677  -0.539   0.060   6.685 -0.1459  0.2432  1.0946
  165SAPS  C31818678  -0.586  -0.119   6.800  0.1428  0.7409  1.0337
  165SAPS  H18X18679  -0.534  -0.174   6.882  0.1403  4.3192  3.7050
  165SAPS  H18Y18680  -0.624  -0.186   6.720  0.7389 -1.9578  2.8841
  165SAPS  H18Z18681  -0.674  -0.065   6.841  0.3092  1.7341  0.1164
  166SAPS     N18682   1.074   4.485   8.461 -0.0838  0.1536  0.1605
  166SAPS   HN118683   1.046   4.386   8.453 -0.9474  0.4477 -0.5952
  166SAPS   HN218684   1.002   4.539   8.513 -2.8225 -3.1343  0.0581
  166SAPS   HN318685   1.092   4.519   8.364 -1.2178 -1.2105 -0.5635
  166SAPS   C1218686   1.202   4.489   8.544  0.5504 -0.4424 -0.1947
  166SAPS  H12A18687   1.224   4.593   8.565 -0.7880 -0.1879  0.0680
  166SAPS   C1318688   1.189   4.400   8.671  0.5141  0.3146  0.2130
  166SAPS  O13A18689   1.109   4.302   8.680 -0.2809  0.2401 -0.5622
  166SAPS  O13B18690   1.275   4.409   8.761 -0.0803 -0.2781 -0.2501
  166SAPS   C1118691   1.320   4.435   8.463 -0.3238  0.1461 -0.1901
  166SAPS  H11A18692   1.284   4.338   8.424 -0.4440  0.0296  0.2064
  166SAPS  H11B18693   1.406   4.427   8.533  0.0219  3.1907 -0.1119
  166SAPS     P18694   1.469   4.609   8.341  0.0364  0.2726  0.3324
  166SAPS   O1318695   1.430   4.740   8.399  0.1308  0.5283 -0.2249
  166SAPS   O1418696   1.577   4.542   8.413  0.4193 -0.1192  0.6360
  166SAPS   O1218697   1.343   4.523   8.357 -0.0568 -0.6376 -0.2089
  166SAPS   O1118698   1.502   4.620   8.187  0.4172 -0.3428 -0.0346
  166SAPS    C118699   1.412   4.572   8.076  0.5284  0.4530 -0.3193
  166SAPS    HA18700   1.465   4.490   8.022  2.3666  2.3209 -1.5240
  166SAPS    HB18701   1.320   4.522   8.111  1.0691  1.2018  2.3850
  166SAPS    C218702   1.388   4.685   7.964 -0.1032  0.1769  0.1217
  166SAPS    HS18703   1.331   4.630   7.885  2.2046 -0.9708 -0.8614
  166SAPS   O2118704   1.512   4.717   7.898  0.1535 -0.3742 -0.3632
  166SAPS   C2118705   1.505   4.755   7.773 -0.2534 -0.3316 -0.0699
  166SAPS   O2218706   1.405   4.758   7.702  0.5361 -0.4491 -0.1445
  166SAPS   C2218707   1.637   4.798   7.719 -0.7998  0.3460 -0.3663
  166SAPS   H2R18708   1.651   4.906   7.742  1.7829 -0.0003  0.0267
  166SAPS   H2S18709   1.722   4.751   7.774 -1.0070  2.0344  1.5424
  166SAPS    C318710   1.311   4.814   8.019  0.1013 -0.0114 -0.0120
  166SAPS    HX18711   1.386   4.893   8.042  0.9018 -1.0429  1.0855
  166SAPS    HY18712   1.250   4.789   8.108  0.3053  1.1881  0.4746
  166SAPS   O3118713   1.228   4.868   7.913 -0.0456 -0.5112 -0.2478
  166SAPS   C3118714   1.112   4.803   7.900 -0.4334 -0.5788 -0.3365
  166SAPS   O3218715   1.079   4.711   7.967  0.6050  0.7764 -0.3195
  166SAPS   C3218716   1.035   4.861   7.783 -0.5650  0.0555 -0.1445
  166SAPS   H2X18717   1.087   4.823   7.692 -1.3461 -1.9139  0.1755
  166SAPS   H2Y18718   1.052   4.970   7.776  0.1526 -0.1461 -2.4782
  166SAPS   C2318719   1.648   4.780   7.564  0.2039 -0.4481 -0.4540
  166SAPS   H3R18720   1.566   4.820   7.501  0.2163  0.0060 -0.1841
  166SAPS   H3S18721   1.657   4.672   7.538  1.8914 -0.0760 -1.5521
  166SAPS   C2418722   1.779   4.837   7.504  0.2350  0.4730 -0.3509
  166SAPS   H4R18723   1.864   4.768   7.523  1.2742  2.0226  0.8737
  166SAPS   H4S18724   1.805   4.931   7.558  2.9776 -0.1781 -0.3788
  166SAPS   C2518725   1.769   4.858   7.353  0.5496 -0.1212 -0.1298
  166SAPS   H5R18726   1.697   4.937   7.327 -0.1545 -1.1971 -1.5405
  166SAPS   C2618727   1.842   4.807   7.251  0.3296  0.1467  0.5418
  166SAPS   H6R18728   1.815   4.824   7.146 -0.7606 -0.8127  0.6478
  166SAPS   C2718729   1.966   4.721   7.261  0.1087  0.2983  0.1318
  166SAPS   H7R18730   1.989   4.679   7.361 -1.5223 -0.1876  0.3273
  166SAPS   H7S18731   2.053   4.779   7.221  1.1893 -2.2997 -1.5156
  166SAPS   C2818732   1.938   4.602   7.174 -0.2812 -0.3560 -0.1619
  166SAPS   H8R18733   1.852   4.545   7.212 -1.6453  1.8209  0.1631
  166SAPS   C2918734   1.992   4.580   7.057 -0.9350  0.4048  0.0823
  166SAPS   H9R18735   1.947   4.494   7.004 -1.1554 -0.0387  0.9638
  166SAPS  C21018736   2.102   4.651   6.974  0.1343  0.5255 -0.2729
  166SAPS  H10R18737   2.123   4.597   6.879  0.3612  0.2316 -0.0565
  166SAPS  H10S18738   2.198   4.655   7.030 -0.3049  2.1501  0.4044
  166SAPS  C21118739   2.069   4.795   6.947  0.1865 -0.2731 -0.7550
  166SAPS  H11R18740   2.097   4.861   7.030 -3.0120  0.3986 -0.0599
  166SAPS  C21218741   2.009   4.848   6.839  0.2764  0.2392  0.7178
  166SAPS  H12R18742   1.991   4.957   6.837  0.8426  0.3339 -0.8669
  166SAPS  C21318743   1.955   4.765   6.724  0.2498  0.5109 -0.3700
  166SAPS  H13R18744   1.857   4.801   6.687  0.2767  1.6132  0.5683
  166SAPS  H13S18745   1.932   4.662   6.758 -2.0726  0.9474 -0.4324
  166SAPS  C21418746   2.071   4.762   6.624 -0.1778 -0.1753  0.3686
  166SAPS  H14R18747   2.120   4.860   6.613 -0.6650 -0.0189 -0.4723
  166SAPS  C21518748   2.103   4.656   6.545  1.2399 -0.0495 -0.1894
  166SAPS  H15R18749   2.188   4.662   6.475  1.0094 -0.5483 -0.5187
  166SAPS  C21618750   2.043   4.517   6.566  0.7955 -0.5021  0.1815
  166SAPS  H16R18751   1.934   4.523   6.549  0.6757  2.8366  1.4000
  166SAPS  H16S18752   2.055   4.485   6.672  2.5209  0.8241  0.4344
  166SAPS  C21718753   2.120   4.405   6.487 -0.1198 -0.7752  0.3970
  166SAPS  H17R18754   2.079   4.305   6.509 -0.7781 -1.0518 -1.7975
  166SAPS  H17S18755   2.227   4.407   6.514 -0.2371 -1.3260  0.9126
  166SAPS  C21818756   2.105   4.425   6.334  0.0706  0.1331 -1.0987
  166SAPS  H18R18757   2.179   4.355   6.290  1.4229  0.0201  1.2070
  166SAPS  H18S18758   2.139   4.529   6.312  0.8421  0.8205  2.6807
  166SAPS  C21918759   1.963   4.397   6.281  0.4798 -0.1110  0.5617
  166SAPS  H19R18760   1.886   4.444   6.345 -0.2168  0.5439 -0.7028
  166SAPS  H19S18761   1.950   4.287   6.285  1.7992 -0.2937  0.2587
  166SAPS  C22018762   1.943   4.444   6.136 -0.0293  0.9523 -0.7153
  166SAPS  H20R18763   1.955   4.554   6.137  0.7487  0.8698 -0.5276
  166SAPS  H20S18764   1.846   4.406   6.098  1.3482 -0.0702 -3.4989
  166SAPS  H20T18765   2.014   4.387   6.072 -1.7804 -1.4090 -0.7078
  166SAPS   C3318766   0.885   4.831   7.777 -0.3174 -0.4782 -0.3070
  166SAPS   H3X18767   0.842   4.866   7.873  0.7952  1.0054 -0.3071
  166SAPS   H3Y18768   0.873   4.724   7.752  0.0631 -1.4409  3.2103
  166SAPS   C3418769   0.810   4.910   7.675  0.2150 -0.0256  1.1598
  166SAPS   H4X18770   0.820   5.020   7.684 -0.1271  0.5146 -2.9801
  166SAPS   H4Y18771   0.702   4.891   7.692  0.0123 -0.5111 -0.4721
  166SAPS   C3518772   0.842   4.864   7.532  0.1396  0.4100 -0.3469
  166SAPS   H5X18773   0.812   4.761   7.503  1.4675  0.0304 -0.4201
  166SAPS   H5Y18774   0.951   4.875   7.517  0.4668 -2.5530 -0.6713
  166SAPS   C3618775   0.790   4.960   7.422  0.0760 -0.2133  0.2496
  166SAPS   H6X18776   0.829   5.062   7.437  1.8250 -0.9331  0.8488
  166SAPS   H6Y18777   0.679   4.954   7.411  0.0205  3.3638 -3.7038
  166SAPS   C3718778   0.846   4.911   7.288 -0.3240  0.0618 -0.1705
  166SAPS   H7X18779   0.830   4.802   7.279 -1.9136  0.3392 -1.1770
  166SAPS   H7Y18780   0.954   4.934   7.295 -0.7502  1.9123  1.0241
  166SAPS   C3818781   0.777   4.978   7.174  0.4490  0.3992  0.0851
  166SAPS   H8X18782   0.791   5.088   7.174 -0.9625  0.6249 -1.7088
  166SAPS   H8Y18783   0.666   4.968   7.174  0.5028 -0.3814 -1.0027
  166SAPS   C3918784   0.824   4.923   7.031 -0.8205 -0.1520 -0.9209
  166SAPS   H9X18785   0.805   4.814   7.015  0.4450 -0.3898 -0.9614
  166SAPS   H9Y18786   0.935   4.931   7.027 -0.7284  0.0402  1.1205
  166SAPS  C31018787   0.775   4.995   6.905  0.4925 -0.1648  0.3067
  166SAPS  H10X18788   0.789   5.105   6.912 -0.4117 -0.0002 -0.3105
  166SAPS  H10Y18789   0.665   4.981   6.902  0.3330  1.0377 -2.2419
  166SAPS  C31118790   0.831   4.935   6.766 -0.4550  0.2133 -0.5734
  166SAPS  H11X18791   0.807   4.826   6.762  1.0764 -0.2493  1.1435
  166SAPS  H11Y18792   0.942   4.937   6.773 -0.3534 -1.8046 -0.9867
  166SAPS  C31218793   0.790   5.010   6.641 -0.4029  0.2726 -0.0806
  166SAPS  H12X18794   0.789   5.120   6.661 -0.3641 -0.0736  2.0126
  166SAPS  H12Y18795   0.686   4.980   6.612 -0.9733  1.7044  0.3830
  166SAPS  C31318796   0.877   4.963   6.522  0.2095 -0.1046  0.3954
  166SAPS  H13X18797   0.834   4.865   6.495 -2.2960  1.0730 -0.1154
  166SAPS  H13Y18798   0.986   4.959   6.545  0.3716  2.3965  0.3389
  166SAPS  C31418799   0.865   5.065   6.411  0.0133 -0.0374  0.4782
  166SAPS  H14X18800   0.926   5.154   6.438 -0.3275 -0.4329  2.7361
  166SAPS  H14Y18801   0.764   5.101   6.380 -0.2350 -2.2604 -1.5875
  166SAPS  C31518802   0.927   5.007   6.281 -0.1733 -0.0510 -0.4134
  166SAPS  H15X18803   0.866   4.919   6.250 -2.1891 -0.4255  3.8243
  166SAPS  H15Y18804   1.029   4.971   6.305  0.5158  0.5559 -2.2872
  166SAPS  C31618805   0.951   5.123   6.175 -0.2363 -0.2884  0.1747
  166SAPS  H16X18806   1.010   5.071   6.097 -0.7966 -0.2090 -0.3030
  166SAPS  H16Y18807   1.016   5.193   6.232 -1.1100  1.9349 -1.4229
  166SAPS  C31718808   0.827   5.207   6.129 -0.6285  0.8771  0.1981
  166SAPS  H17X18809   0.847   5.280   6.048 -0.2940  1.2459  0.6012
  166SAPS  H17Y18810   0.789   5.268   6.214  0.7737 -0.5304  1.9179
  166SAPS  C31818811   0.709   5.117   6.098  0.4098  0.3919  0.3851
  166SAPS  H18X18812   0.631   5.183   6.055  1.9858  1.8834 -0.2776
  166SAPS  H18Y18813   0.670   5.064   6.188 -0.9468 -2.0791 -1.5095
  166SAPS  H18Z18814   0.737   5.041   6.021 -0.9300  1.8685 -1.6643
  167SAPS     N18815   5.917   0.272   8.539  0.1014 -0.2252 -0.8698
  167SAPS   HN118816   5.935   0.218   8.627  0.1598  0.1253 -0.6660
  167SAPS   HN218817   5.952   0.368   8.556 -0.9882  0.1258 -0.5072
  167SAPS   HN318818   5.815   0.270   8.519 -0.4107 -0.5075  1.4125
  167SAPS   C1218819   5.967   0.196   8.429  0.6773 -0.0389  0.3237
  167SAPS  H12A18820   6.069   0.167   8.448  0.8985  0.1881 -0.4551
  167SAPS   C1318821   5.881   0.077   8.391  0.0688  0.2898 -1.1743
  167SAPS  O13A18822   5.790   0.049   8.476  0.0959  0.0583 -0.0445
  167SAPS  O13B18823   5.920  -0.002   8.309  0.4092  0.8024  0.8827
  167SAPS   C1118824   5.976   0.290   8.305 -0.2385 -0.0576  0.4899
  167SAPS  H11A18825   5.881   0.333   8.269  0.0702  0.8971  0.7683
  167SAPS  H11B18826   6.000   0.216   8.226  0.8943  0.1925  0.5798
  167SAPS     P18827   6.207   0.405   8.229  0.2009  0.2645  0.2808
  167SAPS   O1318828   6.232   0.543   8.193 -0.2057  0.3793 -0.3601
  167SAPS   O1418829   6.317   0.349   8.312 -0.3380 -0.0752  0.0574
  167SAPS   O1218830   6.071   0.398   8.312 -0.0245  0.6575  0.1018
  167SAPS   O1118831   6.173   0.320   8.099 -0.6227  0.6844 -0.0945
  167SAPS    C118832   6.265   0.222   8.042 -0.3029 -0.6666 -0.4092
  167SAPS    HA18833   6.366   0.266   8.025  0.4552 -1.2306  2.2502
  167SAPS    HB18834   6.277   0.134   8.108 -1.0613  0.0550  0.7216
  167SAPS    C218835   6.203   0.173   7.911 -0.1290 -0.0050  0.4687
  167SAPS    HS18836   6.279   0.109   7.862 -0.4003  0.0061  0.0384
  167SAPS   O2118837   6.172   0.278   7.822 -0.2823  0.7533  0.8013
  167SAPS   C2118838   6.272   0.353   7.773  0.1285  0.1202  0.4833
  167SAPS   O2218839   6.386   0.354   7.809  0.3008  0.1939  0.4487
  167SAPS   C2218840   6.219   0.444   7.663 -0.7264  0.3682  0.5131
  167SAPS   H2R18841   6.115   0.412   7.644 -1.1461  1.9251  0.0740
  167SAPS   H2S18842   6.224   0.547   7.705  1.6809 -0.3225  2.1400
  167SAPS    C318843   6.074   0.078   7.923  0.2101 -0.3554  0.1033
  167SAPS    HX18844   5.991   0.144   7.955  0.6313  1.5680 -2.4507
  167SAPS    HY18845   6.096  -0.007   7.991 -1.1646 -2.1364 -1.5746
  167SAPS   O3118846   6.034   0.016   7.801 -0.2414 -0.3083 -0.4838
  167SAPS   C3118847   6.101  -0.096   7.766  0.8718  0.6344 -0.3498
  167SAPS   O3218848   6.210  -0.131   7.809  0.0262  0.1389 -0.8086
  167SAPS   C3218849   6.004  -0.169   7.663  0.7678 -0.3647 -0.3440
  167SAPS   H2X18850   5.901  -0.128   7.667  1.2364  1.0407 -1.5605
  167SAPS   H2Y18851   6.005  -0.275   7.695  2.5036  0.1684  1.5630
  167SAPS   C2318852   6.305   0.412   7.537 -0.2521  0.5248  0.1450
  167SAPS   H3R18853   6.405   0.451   7.566  0.2712 -0.9254  0.3453
  167SAPS   H3S18854   6.262   0.460   7.446 -1.6541 -1.6689 -0.4249
  167SAPS   C2418855   6.317   0.260   7.493  0.6943 -0.4311  0.1144
  167SAPS   H4R18856   6.363   0.200   7.575 -0.0976 -2.1693 -0.6460
  167SAPS   H4S18857   6.388   0.257   7.407  0.8118  1.4434  0.1167
  167SAPS   C2518858   6.185   0.191   7.461  0.5634 -0.0200  0.0240
  167SAPS   H5R18859   6.122   0.185   7.550  0.8151  2.3311  0.4382
  167SAPS   C2618860   6.142   0.171   7.336 -0.0289  0.5956  0.3490
  167SAPS   H6R18861   6.043   0.130   7.316  0.6468 -0.0126 -2.0634
  167SAPS   C2718862   6.215   0.184   7.200  0.4540  0.2176 -0.0718
  167SAPS   H7R18863   6.196   0.095   7.136 -1.5360 -0.8235  1.8343
  167SAPS   H7S18864   6.325   0.191   7.213  0.4715  1.0517 -0.6193
  167SAPS   C2818865   6.175   0.316   7.145  0.5913  0.7672  0.3832
  167SAPS   H8R18866   6.198   0.395   7.217 -1.5164  1.1527  0.6786
  167SAPS   C2918867   6.124   0.339   7.024  0.9158 -0.6293  0.6714
  167SAPS   H9R18868   6.135   0.447   7.007  1.3921 -0.2887  2.7811
  167SAPS  C21018869   6.096   0.246   6.917  0.5470  0.4798 -0.3083
  167SAPS  H10R18870   6.074   0.140   6.944 -1.8046  1.0297  0.1617
  167SAPS  H10S18871   6.196   0.242   6.869  1.5226 -3.5964  1.5911
  167SAPS  C21118872   5.985   0.288   6.820 -0.0785 -0.0498 -0.5221
  167SAPS  H11R18873   5.888   0.243   6.846 -0.2204  0.0530 -0.8739
  167SAPS  C21218874   5.995   0.378   6.723  0.1803  0.2349 -0.1478
  167SAPS  H12R18875   5.912   0.382   6.651 -0.4603  1.7321  0.6106
  167SAPS  C21318876   6.115   0.456   6.667 -0.0496  0.2721  0.5580
  167SAPS  H13R18877   6.180   0.486   6.752  2.3110  0.9860 -1.4046
  167SAPS  H13S18878   6.069   0.544   6.618 -4.5686 -1.4225  1.2283
  167SAPS  C21418879   6.197   0.368   6.566  0.1219  0.2446 -0.6673
  167SAPS  H14R18880   6.283   0.321   6.616 -0.4262  1.1026  1.1737
  167SAPS  C21518881   6.190   0.371   6.433  1.4602 -0.5443  0.1918
  167SAPS  H15R18882   6.261   0.305   6.382  1.4500 -0.9767  0.7271
  167SAPS  C21618883   6.091   0.460   6.350  0.5523  0.4960  0.5223
  167SAPS  H16R18884   6.014   0.518   6.404 -1.6086 -2.0824  0.4249
  167SAPS  H16S18885   6.035   0.391   6.283  1.1957  0.4474  0.0212
  167SAPS  C21718886   6.155   0.538   6.236 -0.3541 -0.2276  0.0685
  167SAPS  H17R18887   6.235   0.607   6.271 -1.6716  1.6899 -0.5551
  167SAPS  H17S18888   6.075   0.608   6.202 -0.7231  1.6364  4.1516
  167SAPS  C21818889   6.219   0.464   6.117  0.6055  0.2197  0.1333
  167SAPS  H18R18890   6.138   0.425   6.052  0.9994 -2.1682  0.9903
  167SAPS  H18S18891   6.267   0.373   6.158  0.2479 -1.0343 -2.0992
  167SAPS  C21918892   6.324   0.540   6.031  0.4346 -0.8499 -0.2347
  167SAPS  H19R18893   6.285   0.628   5.976  2.0336 -0.2825 -0.5383
  167SAPS  H19S18894   6.360   0.467   5.955  1.5110 -1.0837  0.4653
  167SAPS  C22018895   6.459   0.584   6.103 -0.4977  0.0506  0.8709
  167SAPS  H20R18896   6.510   0.507   6.164  0.9637  0.9160  0.7953
  167SAPS  H20S18897   6.443   0.671   6.170 -0.9331  1.4348 -0.9616
  167SAPS  H20T18898   6.528   0.618   6.022 -2.8577  1.2542 -0.7284
  167SAPS   C3318899   6.043  -0.169   7.505  0.0521  0.0965 -0.4705
  167SAPS   H3X18900   6.144  -0.216   7.498 -0.6044 -1.6560  1.0448
  167SAPS   H3Y18901   6.042  -0.060   7.484 -0.6342  0.1739 -0.0775
  167SAPS   C3418902   5.943  -0.255   7.416  0.0151  0.3343 -1.1264
  167SAPS   H4X18903   5.838  -0.226   7.439  1.4996  4.4156  1.7251
  167SAPS   H4Y18904   5.957  -0.359   7.452 -2.4595 -0.4623 -2.2718
  167SAPS   C3518905   5.988  -0.247   7.271  0.3719 -0.3269 -0.2579
  167SAPS   H5X18906   6.086  -0.299   7.263  0.8861  0.6619 -0.4658
  167SAPS   H5Y18907   6.019  -0.143   7.252  1.1739 -0.0101  2.3241
  167SAPS   C3618908   5.883  -0.310   7.178 -0.1598 -0.6471  0.5912
  167SAPS   H6X18909   5.788  -0.254   7.185  0.0150 -0.4088  1.0895
  167SAPS   H6Y18910   5.856  -0.414   7.205 -0.2330 -0.8538 -0.2312
  167SAPS   C3718911   5.943  -0.316   7.033 -0.3752 -0.4449  0.2359
  167SAPS   H7X18912   5.892  -0.394   6.974 -1.4209  0.8832 -0.6753
  167SAPS   H7Y18913   6.049  -0.349   7.046  0.8681  2.8516 -0.3212
  167SAPS   C3818914   5.942  -0.181   6.956 -0.4073  0.3221  0.6867
  167SAPS   H8X18915   6.035  -0.124   6.980 -2.0350  3.3084  0.4035
  167SAPS   H8Y18916   5.849  -0.122   6.969 -1.2085 -0.8886  0.6363
  167SAPS   C3918917   5.944  -0.199   6.799 -0.1206 -0.7523 -0.0322
  167SAPS   H9X18918   5.844  -0.245   6.779 -0.0700 -2.0464  2.3762
  167SAPS   H9Y18919   6.016  -0.272   6.758  0.3565  0.2224 -0.9900
  167SAPS  C31018920   5.953  -0.074   6.707  0.4133  0.0235  0.1306
  167SAPS  H10X18921   6.020  -0.003   6.760 -0.7615  0.2676  1.3275
  167SAPS  H10Y18922   5.854  -0.024   6.704 -1.2476 -2.9697  1.0681
  167SAPS  C31118923   5.991  -0.126   6.565 -0.7599 -0.4243 -0.1450
  167SAPS  H11X18924   5.929  -0.211   6.530 -0.4120 -1.6228  1.9727
  167SAPS  H11Y18925   6.096  -0.162   6.562 -0.4955  0.3469 -2.6498
  167SAPS  C31218926   5.989  -0.002   6.466 -1.2784  0.9193 -0.5895
  167SAPS  H12X18927   6.045   0.081   6.514  1.4393  0.7019 -3.1627
  167SAPS  H12Y18928   5.880   0.016   6.454 -1.4216 -0.1333 -0.9622
  167SAPS  C31318929   6.061  -0.044   6.339  0.2143 -0.2766  0.7523
  167SAPS  H13X18930   6.005  -0.130   6.297  1.5183 -1.5283  1.4895
  167SAPS  H13Y18931   6.162  -0.089   6.347  0.1813 -0.7683 -1.2002
  167SAPS  C31418932   6.078   0.064   6.228 -0.3873 -0.1668 -0.4317
  167SAPS  H14X18933   6.154   0.138   6.262 -1.0819  0.8298 -0.9987
  167SAPS  H14Y18934   5.985   0.123   6.213  1.5801  2.8403 -1.7455
  167SAPS  C31518935   6.124  -0.001   6.103  0.1920  0.2186  0.1955
  167SAPS  H15X18936   6.055  -0.086   6.080  0.8458 -0.9845  2.4266
  167SAPS  H15Y18937   6.222  -0.048   6.124 -0.4208 -0.4058  1.7750
  167SAPS  C31618938   6.120   0.090   5.981 -0.5678 -0.1831 -0.1834
  167SAPS  H16X18939   6.186   0.175   6.007 -0.0352  0.3435 -2.9197
  167SAPS  H16Y18940   6.021   0.138   5.965  0.5540  1.4162 -3.0633
  167SAPS  C31718941   6.177   0.024   5.854 -0.6299 -0.4284 -0.2710
  167SAPS  H17X18942   6.283  -0.006   5.869 -0.3620  1.2443  1.5432
  167SAPS  H17Y18943   6.171   0.107   5.779 -3.0820 -0.2221  0.0775
  167SAPS  C31818944   6.094  -0.105   5.816 -0.3021 -0.2515 -0.6595
  167SAPS  H18X18945   6.141  -0.154   5.728 -1.7233  0.3500 -1.8113
  167SAPS  H18Y18946   5.986  -0.084   5.797 -0.2398  0.7477  0.0402
  167SAPS  H18Z18947   6.106  -0.181   5.896  0.5079 -0.1242 -0.6539
  168SAPS     N18948   2.466   1.994   8.079 -0.3146  0.1819 -0.4256
  168SAPS   HN118949   2.427   1.900   8.097 -1.1579  0.4645 -0.7331
  168SAPS   HN218950   2.385   2.058   8.064 -1.8332 -1.7864 -1.1121
  168SAPS   HN318951   2.520   1.987   7.991 -0.7998  0.2399 -0.7350
  168SAPS   C1218952   2.553   2.046   8.189  0.2962  0.2945 -0.2425
  168SAPS  H12A18953   2.570   2.148   8.156  0.4629  0.1957 -0.4600
  168SAPS   C1318954   2.475   2.079   8.322 -0.6522  0.1840 -0.2778
  168SAPS  O13A18955   2.353   2.051   8.332  0.3222  0.5990 -0.1500
  168SAPS  O13B18956   2.533   2.128   8.422 -0.4890  0.6287 -0.4147
  168SAPS   C1118957   2.673   1.952   8.211 -0.0960  0.1969 -0.2025
  168SAPS  H11A18958   2.634   1.867   8.270 -0.6961 -0.5627 -1.6244
  168SAPS  H11B18959   2.749   2.006   8.272 -2.7294  3.6458  0.3491
  168SAPS     P18960   2.883   1.884   8.067  0.2257  0.0898  0.1903
  168SAPS   O1318961   2.935   1.877   8.209 -0.0218  0.3632  0.5456
  168SAPS   O1418962   2.913   1.765   7.989  0.3237 -0.4207 -0.1472
  168SAPS   O1218963   2.723   1.903   8.089 -0.2281  0.2944 -0.3055
  168SAPS   O1118964   2.944   2.008   7.988  0.2839  0.2940  0.4422
  168SAPS    C118965   2.878   2.119   7.941  0.0464  0.5797  0.1486
  168SAPS    HA18966   2.779   2.144   7.984 -0.0384  1.0459 -0.3128
  168SAPS    HB18967   2.941   2.209   7.956 -2.2900  2.0847  1.6189
  168SAPS    C218968   2.851   2.119   7.784 -0.1563 -0.3217 -0.0838
  168SAPS    HS18969   2.772   2.196   7.772 -0.8275 -0.8330  0.8928
  168SAPS   O2118970   2.801   1.990   7.742  0.0425 -0.7618  0.1101
  168SAPS   C2118971   2.681   1.950   7.779 -0.0882  0.2788  0.2139
  168SAPS   O2218972   2.592   2.012   7.833 -0.5240 -0.6382 -0.0025
  168SAPS   C2218973   2.664   1.814   7.712  0.4373  0.7645 -0.1876
  168SAPS   H2R18974   2.740   1.744   7.753  0.4918  1.8238  1.6091
  168SAPS   H2S18975   2.558   1.788   7.734  0.4366 -0.5374 -1.5222
  168SAPS    C318976   2.984   2.152   7.704  0.4320  0.5937 -0.3211
  168SAPS    HX18977   3.052   2.074   7.744  0.4705  0.6479 -0.2813
  168SAPS    HY18978   3.029   2.250   7.730  3.1886 -0.9354  1.1132
  168SAPS   O3118979   2.961   2.122   7.569 -0.3844 -0.1830 -0.1997
  168SAPS   C3118980   2.893   2.210   7.499  0.5310  0.0188 -0.4844
  168SAPS   O3218981   2.873   2.322   7.529  0.8980 -0.7141 -0.2144
  168SAPS   C3218982   2.851   2.137   7.368 -0.1574  0.0398 -0.4648
  168SAPS   H2X18983   2.783   2.053   7.392 -1.8131  1.3594 -0.3900
  168SAPS   H2Y18984   2.939   2.074   7.341  0.2702  0.2499  0.3768
  168SAPS   C2318985   2.674   1.812   7.557 -0.0518 -0.1805  0.1611
  168SAPS   H3R18986   2.672   1.706   7.525 -0.3377  0.2067 -1.1614
  168SAPS   H3S18987   2.769   1.862   7.529  0.6130 -1.1855  0.5505
  168SAPS   C2418988   2.559   1.890   7.472  0.2398 -0.1588  0.8017
  168SAPS   H4R18989   2.572   1.881   7.362  0.9830  3.7662  0.4441
  168SAPS   H4S18990   2.584   1.994   7.500 -1.1396 -0.2274  2.4903
  168SAPS   C2518991   2.415   1.875   7.511 -0.1395  0.1552 -0.4289
  168SAPS   H5R18992   2.395   1.916   7.610  0.8896  1.4190 -0.7237
  168SAPS   C2618993   2.325   1.815   7.440 -0.5793 -0.1474  0.0682
  168SAPS   H6R18994   2.221   1.821   7.475 -2.2979  0.0288 -4.3654
  168SAPS   C2718995   2.336   1.761   7.304 -0.1461 -1.0457 -0.2770
  168SAPS   H7R18996   2.262   1.679   7.295 -0.0767 -1.4159  2.0560
  168SAPS   H7S18997   2.432   1.709   7.283 -0.1988 -0.8063 -1.1595
  168SAPS   C2818998   2.330   1.871   7.194 -1.0510  0.2104 -0.4081
  168SAPS   H8R18999   2.279   1.962   7.228  1.7617  2.7944 -2.6144
  168SAPS   C2919000   2.399   1.873   7.082 -0.1470 -0.0788  0.1596
  168SAPS   H9R19001   2.396   1.956   7.010  0.2782 -0.4131 -0.2518
  168SAPS  C21019002   2.482   1.756   7.021  0.4014 -0.2603 -0.2387
  168SAPS  H10R19003   2.440   1.734   6.920 -0.3790  0.9331 -0.1993
  168SAPS  H10S19004   2.458   1.670   7.086 -2.7013 -0.9203 -2.0277
  168SAPS  C21119005   2.631   1.785   7.026 -0.0128 -0.1444 -0.0721
  168SAPS  H11R19006   2.668   1.869   7.087 -1.1985  0.9807 -0.8501
  168SAPS  C21219007   2.719   1.737   6.933 -0.5883 -0.2886 -0.7378
  168SAPS  H12R19008   2.826   1.759   6.946 -0.8815  0.4307  0.7132
  168SAPS  C21319009   2.683   1.633   6.832 -0.3517 -0.2968  1.3549
  168SAPS  H13R19010   2.573   1.622   6.824 -0.5606  1.7992  0.6262
  168SAPS  H13S19011   2.714   1.529   6.856 -0.9815 -0.5018  1.2802
  168SAPS  C21419012   2.747   1.678   6.702  0.7585  0.7073  0.2743
  168SAPS  H14R19013   2.857   1.677   6.707  0.7811 -0.4756 -0.2352
  168SAPS  C21519014   2.679   1.718   6.594 -0.2290 -0.1721 -0.5800
  168SAPS  H15R19015   2.732   1.760   6.507  0.5492  0.8687  0.3680
  168SAPS  C21619016   2.524   1.734   6.596 -0.1093  0.0970 -0.0108
  168SAPS  H16R19017   2.498   1.832   6.551 -3.8615 -0.6003  0.3256
  168SAPS  H16S19018   2.492   1.751   6.701  0.4703 -0.1787  0.2144
  168SAPS  C21719019   2.458   1.606   6.536 -0.1358  0.0900  0.3744
  168SAPS  H17R19020   2.352   1.605   6.569  0.1159  1.0499  1.2727
  168SAPS  H17S19021   2.506   1.511   6.569 -0.3463  0.5105  1.9330
  168SAPS  C21819022   2.478   1.603   6.383 -0.3340  0.5237 -0.3269
  168SAPS  H18R19023   2.582   1.606   6.345 -0.2494  2.4201 -0.0216
  168SAPS  H18S19024   2.429   1.686   6.328  1.6917  1.5445 -0.6930
  168SAPS  C21919025   2.413   1.472   6.328 -0.0160  0.0701 -0.0478
  168SAPS  H19R19026   2.303   1.465   6.346  0.1458 -1.2899  0.4939
  168SAPS  H19S19027   2.453   1.391   6.392  0.1609  1.2538  1.3848
  168SAPS  C22019028   2.437   1.439   6.186  0.2164  0.0351  0.2073
  168SAPS  H20R19029   2.547   1.429   6.168 -0.0957  0.1765 -2.1382
  168SAPS  H20S19030   2.386   1.514   6.122  0.7114 -0.1524 -0.4272
  168SAPS  H20T19031   2.410   1.335   6.158 -0.4951  0.6266 -1.4642
  168SAPS   C3319032   2.796   2.219   7.255 -0.0922  0.2537  0.1158
  168SAPS   H3X19033   2.877   2.284   7.216 -1.2252  0.4754 -2.0268
  168SAPS   H3Y19034   2.716   2.288   7.291  0.1793  1.5744 -1.7055
  168SAPS   C3419035   2.737   2.131   7.147  1.2390 -0.5683  1.0488
  168SAPS   H4X19036   2.642   2.090   7.187  0.2925 -0.9412 -1.4038
  168SAPS   H4Y19037   2.809   2.052   7.118  1.1830 -0.0633 -0.5790
  168SAPS   C3519038   2.689   2.210   7.023  0.1851  0.6964  0.3221
  168SAPS   H5X19039   2.774   2.268   6.982  0.8988  0.1633  1.0331
  168SAPS   H5Y19040   2.603   2.279   7.042 -0.0301  1.6328 -3.2974
  168SAPS   C3619041   2.646   2.120   6.904 -0.2144 -0.1082 -0.4478
  168SAPS   H6X19042   2.559   2.056   6.931  0.0701  0.1911  1.2944
  168SAPS   H6Y19043   2.736   2.055   6.892 -1.6280 -1.9698 -1.4990
  168SAPS   C3719044   2.627   2.196   6.774  0.1723  0.0770  0.0290
  168SAPS   H7X19045   2.719   2.246   6.735 -0.1041  1.4078  1.0040
  168SAPS   H7Y19046   2.561   2.283   6.790  0.3697  0.6646 -2.0279
  168SAPS   C3819047   2.555   2.117   6.664  0.3528 -0.4787 -0.3169
  168SAPS   H8X19048   2.475   2.058   6.713 -1.2551  0.7410 -1.3412
  168SAPS   H8Y19049   2.620   2.057   6.599  0.8670  0.3575 -0.5919
  168SAPS   C3919050   2.487   2.217   6.563  0.1146  0.2134 -0.0353
  168SAPS   H9X19051   2.419   2.293   6.606  1.5181  0.9955  0.8917
  168SAPS   H9Y19052   2.427   2.150   6.497  2.1418 -1.1248 -0.6348
  168SAPS  C31019053   2.592   2.298   6.499 -0.4284 -0.4720 -0.2606
  168SAPS  H10X19054   2.685   2.238   6.492  0.5449  0.9550 -0.0186
  168SAPS  H10Y19055   2.634   2.378   6.565  0.3532 -0.2193 -1.0480
  168SAPS  C31119056   2.542   2.341   6.362  0.0121 -0.5765 -0.1239
  168SAPS  H11X19057   2.539   2.259   6.287 -1.5804  0.2484 -1.0217
  168SAPS  H11Y19058   2.613   2.406   6.308 -1.4167  0.6914 -0.5250
  168SAPS  C31219059   2.413   2.426   6.366  0.4196 -0.1846  0.1920
  168SAPS  H12X19060   2.411   2.495   6.452  1.9341 -2.4697  2.1772
  168SAPS  H12Y19061   2.330   2.354   6.383  0.4158 -0.7587 -1.9327
  168SAPS  C31319062   2.394   2.495   6.229  0.9586 -0.1028 -0.3146
  168SAPS  H13X19063   2.386   2.420   6.147 -0.5690 -1.8541  1.3036
  168SAPS  H13Y19064   2.483   2.552   6.196 -0.1917  1.6399 -0.5262
  168SAPS  C31419065   2.284   2.602   6.219 -0.7526 -0.4547 -0.0024
  168SAPS  H14X19066   2.275   2.640   6.115  0.4022  0.4490  0.2042
  168SAPS  H14Y19067   2.300   2.687   6.288  0.5231  0.4842 -1.3810
  168SAPS  C31519068   2.144   2.539   6.248  0.6577  0.3507 -0.0320
  168SAPS  H15X19069   2.149   2.517   6.357 -1.8077  0.6835  0.2031
  168SAPS  H15Y19070   2.127   2.449   6.185 -0.5241 -0.2091  1.0487
  168SAPS  C31619071   2.028   2.639   6.220  0.2210 -0.2613 -0.0876
  168SAPS  H16X19072   2.028   2.655   6.110 -1.4339 -1.3112 -0.2881
  168SAPS  H16Y19073   2.065   2.734   6.263  2.1774  0.9530 -3.9842
  168SAPS  C31719074   1.893   2.593   6.281  0.4534  0.4916 -0.5106
  168SAPS  H17X19075   1.881   2.492   6.235  1.2905 -0.0658  0.4512
  168SAPS  H17Y19076   1.811   2.657   6.242 -2.2489 -1.4251  1.6399
  168SAPS  C31819077   1.876   2.584   6.437  0.0656 -0.8338  0.7044
  168SAPS  H18X19078   1.779   2.537   6.465 -0.9492  0.4228 -0.5186
  168SAPS  H18Y19079   1.870   2.685   6.481 -2.1940 -1.1097  1.1454
  168SAPS  H18Z19080   1.965   2.533   6.478  0.6429 -0.4761 -0.0681
  169SAPS     N19081   4.886   4.406   8.376 -0.2337 -0.3538 -0.3138
  169SAPS   HN119082   4.815   4.480   8.358 -0.1873  0.5555  2.6670
  169SAPS   HN219083   4.971   4.443   8.424  0.0602 -0.2430 -0.9083
  169SAPS   HN319084   4.928   4.363   8.291  0.6836 -0.6807  0.2824
  169SAPS   C1219085   4.809   4.309   8.464 -0.5200  0.6621  0.6741
  169SAPS  H12A19086   4.856   4.212   8.464 -1.1131  0.3596  1.5850
  169SAPS   C1319087   4.802   4.351   8.611 -0.6044  0.5747 -0.6936
  169SAPS  O13A19088   4.846   4.464   8.644 -0.1870 -0.0497  0.3214
  169SAPS  O13B19089   4.720   4.287   8.688  0.1259 -0.6799  0.3699
  169SAPS   C1119090   4.665   4.305   8.413 -0.2882  0.4812  0.5488
  169SAPS  H11A19091   4.610   4.401   8.418 -1.3229  0.0413 -1.3236
  169SAPS  H11B19092   4.612   4.232   8.478 -1.6602  1.7359  0.8881
  169SAPS     P19093   4.686   4.107   8.249 -0.4103  0.0247  0.3639
  169SAPS   O1319094   4.832   4.087   8.237  0.1449  0.0740 -0.3264
  169SAPS   O1419095   4.618   4.024   8.345  0.2499  0.6487 -0.1307
  169SAPS   O1219096   4.659   4.258   8.277 -0.7152  0.5267  0.2341
  169SAPS   O1119097   4.632   4.083   8.106 -0.3135  0.2911  1.0118
  169SAPS    C119098   4.618   4.201   8.026 -0.8245  0.8531 -0.4289
  169SAPS    HA19099   4.523   4.246   8.064 -1.5927  0.7157 -2.0569
  169SAPS    HB19100   4.704   4.270   8.040  0.2356  0.1593 -2.9075
  169SAPS    C219101   4.616   4.179   7.877  0.6707  0.8676  0.8629
  169SAPS    HS19102   4.596   4.282   7.841 -1.4264  0.7491  1.5466
  169SAPS   O2119103   4.512   4.085   7.849 -0.2199  0.4118  0.0237
  169SAPS   C2119104   4.474   4.078   7.722  0.2660 -0.5209 -0.2507
  169SAPS   O2219105   4.482   4.167   7.642 -0.2790 -0.1420 -0.1669
  169SAPS   C2219106   4.412   3.947   7.695 -0.4639 -0.5597  0.4749
  169SAPS   H2R19107   4.361   3.893   7.778 -0.7201 -2.0596 -0.6128
  169SAPS   H2S19108   4.328   3.956   7.623  0.5672 -2.4406 -1.0826
  169SAPS    C319109   4.748   4.132   7.815  0.1836  0.2554  0.5624
  169SAPS    HX19110   4.771   4.026   7.839  2.0646  0.6628  0.7455
  169SAPS    HY19111   4.830   4.187   7.866  0.6824  0.9911 -0.9675
  169SAPS   O3119112   4.764   4.127   7.670 -0.5235  0.0089  0.0514
  169SAPS   C3119113   4.792   4.245   7.607 -0.5636 -0.0510  0.0053
  169SAPS   O3219114   4.813   4.348   7.665  0.4684 -0.3513 -0.4590
  169SAPS   C3219115   4.784   4.227   7.450  0.2651 -0.5127 -0.2793
  169SAPS   H2X19116   4.726   4.132   7.442 -0.0462 -0.5623  1.9345
  169SAPS   H2Y19117   4.887   4.214   7.411  1.1246  0.7903  1.4608
  169SAPS   C2319118   4.492   3.848   7.608 -1.0377 -0.5622 -0.4532
  169SAPS   H3R19119   4.434   3.767   7.558 -0.8598  0.9989 -3.3949
  169SAPS   H3S19120   4.578   3.811   7.668 -0.3011  3.5964  1.3985
  169SAPS   C2419121   4.573   3.907   7.491 -0.9570 -0.7289  0.7237
  169SAPS   H4R19122   4.630   3.818   7.457  2.8778  1.4751  0.8751
  169SAPS   H4S19123   4.637   3.982   7.541 -2.8434 -0.2869  2.6120
  169SAPS   C2519124   4.492   3.974   7.382 -0.2683 -0.0996 -1.0946
  169SAPS   H5R19125   4.421   4.050   7.420  0.6848 -0.7844  2.3433
  169SAPS   C2619126   4.497   3.952   7.250 -0.4257 -0.8381 -0.7496
  169SAPS   H6R19127   4.434   4.019   7.189 -0.2906 -0.4395 -0.4501
  169SAPS   C2719128   4.598   3.861   7.188 -0.1142  0.1165  1.1016
  169SAPS   H7R19129   4.545   3.771   7.153 -1.0838  0.8382  0.6734
  169SAPS   H7S19130   4.669   3.827   7.267  1.6002  1.9933  0.4630
  169SAPS   C2819131   4.682   3.924   7.080  0.4820  0.6793  0.1433
  169SAPS   H8R19132   4.784   3.949   7.112 -0.2767  2.1052  1.5669
  169SAPS   C2919133   4.631   3.947   6.958 -0.2823  0.2481 -0.1412
  169SAPS   H9R19134   4.698   3.992   6.883 -3.7047  1.4290 -2.7170
  169SAPS  C21019135   4.492   3.920   6.908  0.1199  0.2055  0.1603
  169SAPS  H10R19136   4.422   4.006   6.902 -1.8210 -1.3211 -0.3822
  169SAPS  H10S19137   4.433   3.867   6.986 -0.6600  3.9880  2.4014
  169SAPS  C21119138   4.476   3.860   6.770 -0.4340  0.1827  0.4085
  169SAPS  H11R19139   4.422   3.765   6.762  0.6799 -0.3339 -1.9534
  169SAPS  C21219140   4.509   3.897   6.645  0.3856  0.1920  0.4747
  169SAPS  H12R19141   4.478   3.829   6.564  2.3356 -0.4986  0.2426
  169SAPS  C21319142   4.587   4.019   6.603  0.5997  0.9494 -0.0398
  169SAPS  H13R19143   4.688   3.983   6.575 -0.5381 -2.1960 -0.5185
  169SAPS  H13S19144   4.596   4.084   6.692 -2.0315  0.3269  0.7823
  169SAPS  C21419145   4.525   4.094   6.486  0.8004 -0.0402  0.0015
  169SAPS  H14R19146   4.477   4.192   6.498  1.4177  0.8536 -3.7396
  169SAPS  C21519147   4.548   4.063   6.362  0.0053 -0.5442 -0.1165
  169SAPS  H15R19148   4.518   4.127   6.278  1.6257 -0.3315 -0.5666
  169SAPS  C21619149   4.628   3.946   6.310  0.6991 -0.4489 -0.2131
  169SAPS  H16R19150   4.675   3.888   6.392  0.8838 -3.5142 -2.3112
  169SAPS  H16S19151   4.713   3.973   6.242  2.0041 -2.5355  0.4867
  169SAPS  C21719152   4.540   3.858   6.222  0.1014 -0.5619 -1.0242
  169SAPS  H17R19153   4.454   3.838   6.289  0.3423  0.4807 -0.3872
  169SAPS  H17S19154   4.577   3.754   6.205  0.7701 -0.2897 -1.2805
  169SAPS  C21819155   4.482   3.912   6.096  0.2495 -0.3255  0.8036
  169SAPS  H18R19156   4.564   3.974   6.054 -1.9012  1.3242 -1.2249
  169SAPS  H18S19157   4.406   3.988   6.124  1.2519  1.1652 -0.3368
  169SAPS  C21919158   4.433   3.815   5.995  0.3605  0.0240  0.7669
  169SAPS  H19R19159   4.350   3.755   6.040 -0.6185  1.3001  0.7391
  169SAPS  H19S19160   4.516   3.749   5.963  0.2451  1.2748 -2.5142
  169SAPS  C22019161   4.373   3.890   5.875 -0.2243  0.3816  0.4100
  169SAPS  H20R19162   4.300   3.966   5.908 -1.1286 -0.8307  1.2807
  169SAPS  H20S19163   4.317   3.824   5.805 -0.0387 -0.2571  0.8594
  169SAPS  H20T19164   4.449   3.947   5.818  1.8481 -1.8611  0.7490
  169SAPS   C3319165   4.705   4.340   7.378 -0.7379 -0.8442 -0.1953
  169SAPS   H3X19166   4.767   4.432   7.378  0.3019 -1.5245  0.2436
  169SAPS   H3Y19167   4.607   4.358   7.426 -1.0698 -0.9225 -0.8346
  169SAPS   C3419168   4.683   4.309   7.234  0.4845  0.0801  0.1031
  169SAPS   H4X19169   4.624   4.391   7.189  2.2237  1.6833  0.5791
  169SAPS   H4Y19170   4.625   4.215   7.226  0.9349 -0.0845 -1.4473
  169SAPS   C3519171   4.811   4.310   7.149 -0.2423  0.1676  0.7334
  169SAPS   H5X19172   4.857   4.215   7.182 -0.8728 -1.1895 -1.9741
  169SAPS   H5Y19173   4.874   4.398   7.175 -1.2617  0.8200  1.0670
  169SAPS   C3619174   4.776   4.298   7.002 -0.6077 -0.1061 -0.6824
  169SAPS   H6X19175   4.709   4.385   6.985 -1.6387 -0.9459 -1.0567
  169SAPS   H6Y19176   4.717   4.206   6.982  0.2372 -0.2764 -2.6122
  169SAPS   C3719177   4.895   4.291   6.902 -0.0655 -0.5656 -0.4619
  169SAPS   H7X19178   4.971   4.219   6.938 -0.7983 -0.6173  1.0866
  169SAPS   H7Y19179   4.940   4.392   6.906  1.0001 -1.0595  2.6136
  169SAPS   C3819180   4.850   4.263   6.756 -0.0578 -1.0290 -0.2405
  169SAPS   H8X19181   4.764   4.331   6.735 -2.1122 -3.8952 -1.7201
  169SAPS   H8Y19182   4.796   4.166   6.749 -0.7720 -0.8333  1.8501
  169SAPS   C3919183   4.963   4.279   6.662 -0.0312  0.8220 -0.1883
  169SAPS   H9X19184   5.050   4.214   6.687 -0.6596 -0.6396 -1.6266
  169SAPS   H9Y19185   5.001   4.382   6.672  2.1982 -0.0030  0.4140
  169SAPS  C31019186   4.935   4.243   6.512 -0.2376  0.4086 -0.5171
  169SAPS  H10X19187   4.861   4.316   6.473 -1.9242 -1.6030 -1.2810
  169SAPS  H10Y19188   4.897   4.139   6.510 -0.7498  0.5034  1.9226
  169SAPS  C31119189   5.066   4.234   6.432 -0.1625  0.0466 -0.9930
  169SAPS  H11X19190   5.131   4.163   6.486  0.4969  1.1973 -0.2313
  169SAPS  H11Y19191   5.115   4.333   6.444 -0.1418 -0.0562 -0.1792
  169SAPS  C31219192   5.046   4.196   6.280 -0.3731  0.7193  0.4029
  169SAPS  H12X19193   5.017   4.288   6.224  1.6186  0.8473 -0.5204
  169SAPS  H12Y19194   4.965   4.121   6.270  0.4526 -0.1895  0.3921
  169SAPS  C31319195   5.179   4.133   6.221  0.0577  0.1680  0.1820
  169SAPS  H13X19196   5.191   4.040   6.281 -2.1744  0.7140  1.5941
  169SAPS  H13Y19197   5.263   4.202   6.244  0.8935 -0.2837 -1.3734
  169SAPS  C31419198   5.150   4.103   6.073 -0.2944 -0.3806 -0.2533
  169SAPS  H14X19199   5.138   4.205   6.031  1.1343 -0.0800  0.0079
  169SAPS  H14Y19200   5.057   4.045   6.054  0.7376 -1.5064 -2.1503
  169SAPS  C31519201   5.266   4.026   6.006  0.3284  0.7864  0.3464
  169SAPS  H15X19202   5.262   3.933   6.066 -0.0936 -0.2266 -1.1996
  169SAPS  H15Y19203   5.355   4.086   6.036  0.6424  0.6011 -0.1947
  169SAPS  C31619204   5.243   4.001   5.855  0.0881 -0.7725 -0.8404
  169SAPS  H16X19205   5.163   3.925   5.845 -1.4771  1.0462 -2.8199
  169SAPS  H16Y19206   5.340   3.975   5.807  0.0359  0.2796 -1.5426
  169SAPS  C31719207   5.214   4.126   5.782 -0.3454 -0.2510  0.2182
  169SAPS  H17X19208   5.278   4.206   5.826 -1.8433  1.0233  0.1704
  169SAPS  H17Y19209   5.110   4.158   5.804  0.1321  1.2104  0.5093
  169SAPS  C31819210   5.248   4.114   5.635  0.3999  0.1218 -0.5117
  169SAPS  H18X19211   5.195   4.025   5.594  0.6690 -1.1771  1.8143
  169SAPS  H18Y19212   5.357   4.121   5.616  0.8083 -0.3018  1.4795
  169SAPS  H18Z19213   5.220   4.200   5.570  0.4156  1.0009  0.6062
  170SAPS     N19214   0.042   3.923   8.419  0.1611 -0.6974  0.8720
  170SAPS   HN119215  -0.012   3.940   8.506  0.5953  1.8739  0.7449
  170SAPS   HN219216   0.142   3.899   8.434  1.5259  3.0097 -0.9354
  170SAPS   HN319217   0.045   4.018   8.375 -0.3895 -0.5049  1.2404
  170SAPS   C1219218  -0.033   3.835   8.334  0.1523  0.0433 -1.0194
  170SAPS  H12A19219   0.005   3.853   8.235 -3.0243  2.1825 -1.9758
  170SAPS   C1319220  -0.013   3.685   8.368 -0.0825 -0.1732  0.0192
  170SAPS  O13A19221   0.034   3.648   8.480 -0.1485 -0.7601  0.1458
  170SAPS  O13B19222  -0.071   3.595   8.294  0.8727 -0.4535  0.7462
  170SAPS   C1119223  -0.183   3.876   8.333  0.1893  0.0755  0.2419
  170SAPS  H11A19224  -0.233   3.837   8.424  0.3295  0.6415  0.5677
  170SAPS  H11B19225  -0.229   3.832   8.242  1.1743  1.6664 -1.1003
  170SAPS     P19226  -0.320   4.097   8.306  0.0264 -0.1776  0.0021
  170SAPS   O1319227  -0.429   4.010   8.348  0.1532 -0.1829 -0.3984
  170SAPS   O1419228  -0.292   4.220   8.386  0.5618  0.1531 -0.0187
  170SAPS   O1219229  -0.191   4.018   8.329 -0.1349  0.1763 -0.0821
  170SAPS   O1119230  -0.329   4.137   8.156  0.3019 -0.2315 -0.2277
  170SAPS    C119231  -0.232   4.096   8.057 -1.0651  0.1644  0.1153
  170SAPS    HA19232  -0.209   4.178   7.986  3.2451 -1.8464 -1.1463
  170SAPS    HB19233  -0.128   4.091   8.094  0.4334 -0.0643 -3.6814
  170SAPS    C219234  -0.267   3.969   7.976  0.3302  0.0795 -0.2216
  170SAPS    HS19235  -0.200   3.886   8.007 -0.4668  0.3383  2.4456
  170SAPS   O2119236  -0.252   4.000   7.835 -0.6228 -0.5225 -0.3643
  170SAPS   C2119237  -0.212   3.899   7.754  0.5860  0.3077  0.4854
  170SAPS   O2219238  -0.158   3.797   7.791 -0.0916 -0.0656 -0.2773
  170SAPS   C2219239  -0.246   3.932   7.604  0.7631  0.3493 -0.1301
  170SAPS   H2R19240  -0.351   3.968   7.600  1.2729  1.7523 -2.0327
  170SAPS   H2S19241  -0.192   4.024   7.574  1.3603  0.3892  1.0010
  170SAPS    C319242  -0.417   3.919   7.995  0.2627 -0.1021  0.5112
  170SAPS    HX19243  -0.478   4.003   7.957  1.8458  0.7090 -0.3510
  170SAPS    HY19244  -0.457   3.909   8.098 -2.4749 -1.5414 -0.6167
  170SAPS   O3119245  -0.444   3.797   7.921 -0.1365 -0.5706  0.1237
  170SAPS   C3119246  -0.576   3.776   7.890 -0.4371 -0.3135  0.6023
  170SAPS   O3219247  -0.667   3.852   7.917  0.5768  0.3072 -0.2817
  170SAPS   C3219248  -0.580   3.660   7.797  0.4768  0.6637  0.2061
  170SAPS   H2X19249  -0.632   3.575   7.847  0.6231  0.1378 -0.5156
  170SAPS   H2Y19250  -0.479   3.623   7.770 -0.5421 -3.3451  1.2035
  170SAPS   C2319251  -0.225   3.816   7.497 -0.5896 -0.2985  0.3296
  170SAPS   H3R19252  -0.253   3.719   7.543  0.6914 -1.4793 -1.2545
  170SAPS   H3S19253  -0.117   3.818   7.472  0.2695 -0.5309  3.5590
  170SAPS   C2419254  -0.303   3.831   7.366 -0.2361 -0.9859  0.1182
  170SAPS   H4R19255  -0.268   3.927   7.322 -0.9513 -0.4205  0.7691
  170SAPS   H4S19256  -0.408   3.854   7.395 -0.6658 -0.2044 -1.8391
  170SAPS   C2519257  -0.302   3.711   7.275  0.1211 -0.0087  0.6943
  170SAPS   H5R19258  -0.339   3.619   7.325 -2.7474 -0.6429 -2.2137
  170SAPS   C2619259  -0.249   3.710   7.147  0.3561 -0.2413 -0.2202
  170SAPS   H6R19260  -0.249   3.615   7.090  0.6517  0.4753 -1.4543
  170SAPS   C2719261  -0.181   3.821   7.072  0.1533  0.0915 -0.2051
  170SAPS   H7R19262  -0.107   3.793   6.994 -0.1902 -2.4918  0.3025
  170SAPS   H7S19263  -0.119   3.885   7.139  1.0019 -0.5471 -0.3759
  170SAPS   C2819264  -0.287   3.916   7.012 -0.4654  0.1803 -0.1876
  170SAPS   H8R19265  -0.322   3.999   7.073 -3.4799 -1.3911  0.4116
  170SAPS   C2919266  -0.345   3.899   6.891 -0.0729 -0.4086  0.2333
  170SAPS   H9R19267  -0.418   3.975   6.858 -1.8599 -2.6429 -1.3096
  170SAPS  C21019268  -0.318   3.795   6.790  0.2575  0.7207 -0.0120
  170SAPS  H10R19269  -0.339   3.692   6.828  1.3880 -0.3799 -2.1609
  170SAPS  H10S19270  -0.209   3.800   6.774  0.4164  3.3228  1.4054
  170SAPS  C21119271  -0.387   3.808   6.658  0.1969  0.2642  0.2271
  170SAPS  H11R19272  -0.486   3.762   6.661  1.0540 -1.6315  1.6550
  170SAPS  C21219273  -0.335   3.873   6.558  0.5929 -0.2790  0.1047
  170SAPS  H12R19274  -0.385   3.874   6.460  0.0130 -0.9808  0.3763
  170SAPS  C21319275  -0.199   3.936   6.541 -0.1787 -0.1065  0.1666
  170SAPS  H13R19276  -0.159   3.977   6.636  0.0010  1.9119 -0.7415
  170SAPS  H13S19277  -0.210   4.015   6.464 -1.3953 -0.4332 -0.0119
  170SAPS  C21419278  -0.095   3.839   6.488 -0.1063 -0.8420 -0.5878
  170SAPS  H14R19279  -0.056   3.763   6.558  1.4825 -2.3308 -2.9349
  170SAPS  C21519280  -0.036   3.846   6.367 -0.0240  0.9862 -0.6932
  170SAPS  H15R19281   0.030   3.762   6.340 -0.8229 -0.3301  1.2673
  170SAPS  C21619282  -0.063   3.943   6.255 -0.3998 -0.3012  0.7339
  170SAPS  H16R19283   0.027   3.990   6.210 -2.5421  0.9283 -2.6694
  170SAPS  H16S19284  -0.119   4.031   6.293  0.9575  0.6789  0.5226
  170SAPS  C21719285  -0.155   3.888   6.140 -0.1963  0.0168 -0.2235
  170SAPS  H17R19286  -0.192   3.981   6.091  0.3222  1.7152  2.3886
  170SAPS  H17S19287  -0.245   3.830   6.167  0.4793 -1.5053 -1.0839
  170SAPS  C21819288  -0.069   3.820   6.029  0.8364 -0.3607 -0.3986
  170SAPS  H18R19289   0.033   3.862   6.025  0.5742  0.2008 -1.8876
  170SAPS  H18S19290  -0.123   3.850   5.936 -0.7618 -0.2447  0.5194
  170SAPS  C21919291  -0.071   3.664   6.047  0.1125  0.3188  0.8819
  170SAPS  H19R19292  -0.179   3.635   6.048 -0.3050  1.5042 -1.8940
  170SAPS  H19S19293  -0.014   3.643   6.140  0.6670  0.6206  0.6157
  170SAPS  C22019294   0.003   3.597   5.931 -0.1224  0.5355  0.1400
  170SAPS  H20R19295  -0.016   3.488   5.940 -1.0221  0.6056 -0.8217
  170SAPS  H20S19296   0.106   3.635   5.949 -0.7771  0.8387  4.2057
  170SAPS  H20T19297  -0.047   3.620   5.835 -1.3964 -2.8240 -0.1464
  170SAPS   C3319298  -0.644   3.692   7.664 -0.3772 -0.4439 -0.0038
  170SAPS   H3X19299  -0.597   3.785   7.625 -1.3188 -0.0327 -0.1926
  170SAPS   H3Y19300  -0.755   3.693   7.671 -0.6470 -1.9132 -2.6938
  170SAPS   C3419301  -0.605   3.581   7.569 -0.8047  0.8334 -0.5816
  170SAPS   H4X19302  -0.661   3.491   7.603 -2.4471  1.2527 -2.0654
  170SAPS   H4Y19303  -0.496   3.559   7.568 -1.1137 -0.9509 -2.9218
  170SAPS   C3519304  -0.632   3.626   7.425 -0.3081  0.3914 -0.0551
  170SAPS   H5X19305  -0.564   3.712   7.410 -3.2874  3.1024  0.9209
  170SAPS   H5Y19306  -0.734   3.670   7.431  0.2499  1.5307  1.7020
  170SAPS   C3619307  -0.606   3.512   7.320 -0.8128  0.3003  0.1106
  170SAPS   H6X19308  -0.672   3.427   7.346  0.5777 -0.6662  0.5746
  170SAPS   H6Y19309  -0.502   3.476   7.336  0.4130  1.8916 -3.2225
  170SAPS   C3719310  -0.631   3.553   7.173 -0.2852 -0.1261 -0.3933
  170SAPS   H7X19311  -0.564   3.640   7.153 -1.0292  0.5581  0.0645
  170SAPS   H7Y19312  -0.734   3.590   7.155 -0.7775 -1.2613  0.0081
  170SAPS   C3819313  -0.595   3.445   7.074  0.1678  0.5495 -0.3486
  170SAPS   H8X19314  -0.684   3.426   7.011 -0.0198  3.2043 -0.9754
  170SAPS   H8Y19315  -0.569   3.350   7.126 -1.7049  0.4006  0.3861
  170SAPS   C3919316  -0.487   3.476   6.979  0.0339 -0.3364  0.1135
  170SAPS   H9X19317  -0.402   3.476   7.050 -0.8935 -0.5476  1.2519
  170SAPS   H9Y19318  -0.507   3.573   6.930 -0.4720  0.1705  1.2739
  170SAPS  C31019319  -0.472   3.371   6.862  0.0816 -0.4086 -0.9574
  170SAPS  H10X19320  -0.574   3.351   6.823 -0.0882  0.2443 -0.8610
  170SAPS  H10Y19321  -0.438   3.272   6.897  0.2749 -0.5632 -1.5662
  170SAPS  C31119322  -0.374   3.407   6.749 -0.5734 -0.2701 -0.2159
  170SAPS  H11X19323  -0.274   3.425   6.794 -1.4113  0.9562  1.2071
  170SAPS  H11Y19324  -0.405   3.503   6.703  3.2500  0.2963 -1.9879
  170SAPS  C31219325  -0.364   3.303   6.631 -0.4770  0.5710  0.1395
  170SAPS  H12X19326  -0.462   3.251   6.627  0.0298 -0.3264 -1.4147
  170SAPS  H12Y19327  -0.289   3.224   6.653 -0.3857  1.0257  1.5476
  170SAPS  C31319328  -0.339   3.369   6.496 -0.4150 -1.2022 -0.8005
  170SAPS  H13X19329  -0.229   3.385   6.506 -0.1666 -3.1099 -0.0458
  170SAPS  H13Y19330  -0.392   3.466   6.494 -0.9568 -1.5003 -1.0802
  170SAPS  C31419331  -0.355   3.283   6.365  0.2396 -0.2079 -0.5509
  170SAPS  H14X19332  -0.458   3.243   6.372 -0.2494  0.9345 -0.9269
  170SAPS  H14Y19333  -0.279   3.202   6.364 -1.7987 -2.2453  0.7025
  170SAPS  C31519334  -0.353   3.365   6.234  0.7911  0.7459  0.0056
  170SAPS  H15X19335  -0.286   3.453   6.248  0.9450  0.5689  0.4198
  170SAPS  H15Y19336  -0.454   3.406   6.214  0.8897  2.9606  3.2160
  170SAPS  C31619337  -0.299   3.281   6.122 -0.3715  0.6561  0.1047
  170SAPS  H16X19338  -0.344   3.179   6.115  0.5591  0.1029  1.6700
  170SAPS  H16Y19339  -0.190   3.263   6.129 -0.7279 -2.0830 -0.2638
  170SAPS  C31719340  -0.331   3.345   5.983  0.5464  0.3354  0.5972
  170SAPS  H17X19341  -0.271   3.438   5.974 -1.1045  1.3901  0.1571
  170SAPS  H17Y19342  -0.438   3.369   5.968  0.3608 -0.2585  0.9362
  170SAPS  C31819343  -0.285   3.263   5.869 -0.2806 -1.0074  0.0973
  170SAPS  H18X19344  -0.174   3.260   5.866 -0.2856 -1.0011 -0.1264
  170SAPS  H18Y19345  -0.316   3.308   5.773 -1.0694 -1.8088 -0.0399
  170SAPS  H18Z19346  -0.326   3.159   5.861 -0.5483 -0.9438  0.5983
  171SAPS     N19347   3.255   0.803   8.473  0.3362 -0.1026  0.6976
  171SAPS   HN119348   3.305   0.848   8.394 -1.7323  0.0684 -0.5920
  171SAPS   HN219349   3.279   0.857   8.558  1.4553 -1.8086  1.5251
  171SAPS   HN319350   3.306   0.720   8.510  0.8819 -0.1650 -0.1690
  171SAPS   C1219351   3.115   0.762   8.448  0.3810 -0.2521  0.1776
  171SAPS  H12A19352   3.111   0.700   8.359  0.9198  0.9311 -0.6891
  171SAPS   C1319353   3.032   0.694   8.560  0.0190 -1.1305  0.5964
  171SAPS  O13A19354   3.080   0.689   8.673 -0.3476 -0.1942 -0.4119
  171SAPS  O13B19355   2.918   0.642   8.532 -0.3879  0.2044 -0.4437
  171SAPS   C1119356   3.049   0.904   8.416  0.1087 -0.3484  0.0190
  171SAPS  H11A19357   3.055   0.949   8.517  0.6581 -1.8992  0.7118
  171SAPS  H11B19358   2.941   0.890   8.392  0.6227 -1.0469 -2.0745
  171SAPS     P19359   3.038   1.039   8.188  0.4510 -0.3421  0.2279
  171SAPS   O1319360   2.894   1.000   8.200  0.8484  0.5569 -0.4167
  171SAPS   O1419361   3.065   1.181   8.179 -0.4039 -0.1026  0.1256
  171SAPS   O1219362   3.118   0.968   8.308 -0.3643 -0.4223  0.1541
  171SAPS   O1119363   3.101   0.966   8.063  0.0532  0.4459 -0.2143
  171SAPS    C119364   3.048   0.834   8.038 -0.4339 -0.0526 -1.0571
  171SAPS    HA19365   3.078   0.772   8.124 -0.4309  0.1869 -0.8848
  171SAPS    HB19366   2.938   0.839   8.024 -0.1703  2.5287 -3.1576
  171SAPS    C219367   3.108   0.764   7.912 -0.0118  0.3111  0.3629
  171SAPS    HS19368   3.106   0.653   7.920  0.9767  0.2532 -0.0365
  171SAPS   O2119369   3.246   0.802   7.897  0.0298  1.0218 -0.5611
  171SAPS   C2119370   3.331   0.754   7.990  0.4578 -0.4740  0.3591
  171SAPS   O2219371   3.303   0.675   8.074 -0.3422 -0.0145 -0.6599
  171SAPS   C2219372   3.472   0.802   7.963 -0.2346 -0.4177 -0.5300
  171SAPS   H2R19373   3.479   0.897   8.020  1.2242  0.1326 -1.5468
  171SAPS   H2S19374   3.543   0.728   8.006 -1.8296 -1.5225  0.3127
  171SAPS    C319375   3.041   0.805   7.774  0.3875  0.9880  0.0413
  171SAPS    HX19376   3.022   0.914   7.773 -2.4648  0.5685  0.3128
  171SAPS    HY19377   2.944   0.752   7.774  1.1469 -0.6017 -2.8106
  171SAPS   O3119378   3.119   0.751   7.663 -0.0655 -0.1375 -0.3954
  171SAPS   C3119379   3.122   0.817   7.552 -0.8472  0.7233 -0.3617
  171SAPS   O3219380   3.064   0.916   7.520  0.2564  0.1773  0.0709
  171SAPS   C3219381   3.234   0.767   7.465  0.5061 -0.0119  1.0436
  171SAPS   H2X19382   3.251   0.658   7.482  1.1930 -0.0271  0.3490
  171SAPS   H2Y19383   3.330   0.816   7.491  0.1927  0.8057  0.6957
  171SAPS   C2319384   3.508   0.826   7.815 -0.4564 -0.1467  0.4745
  171SAPS   H3R19385   3.599   0.887   7.797 -0.5453 -0.2531 -0.3690
  171SAPS   H3S19386   3.419   0.886   7.788 -1.1176 -0.5466  1.6987
  171SAPS   C2419387   3.522   0.696   7.734  0.5224  0.2118  0.1453
  171SAPS   H4R19388   3.495   0.729   7.631  0.2891  1.1659  0.4982
  171SAPS   H4S19389   3.441   0.624   7.756  0.5756  0.5373  1.4950
  171SAPS   C2519390   3.653   0.630   7.753 -0.7400  0.1791 -0.2903
  171SAPS   H5R19391   3.695   0.623   7.854  2.2523  1.3500 -1.3378
  171SAPS   C2619392   3.727   0.578   7.653 -0.6930 -0.0383  0.0564
  171SAPS   H6R19393   3.830   0.542   7.669 -1.1115 -1.8270 -0.9746
  171SAPS   C2719394   3.683   0.576   7.511 -0.1618  0.2742  1.0881
  171SAPS   H7R19395   3.582   0.614   7.484  0.6612  0.7355 -1.6586
  171SAPS   H7S19396   3.661   0.470   7.489  4.4507 -0.6132 -0.2997
  171SAPS   C2819397   3.779   0.630   7.409  0.5048  0.0343 -1.0541
  171SAPS   H8R19398   3.843   0.714   7.441  2.1458 -1.4119 -0.3723
  171SAPS   C2919399   3.792   0.596   7.281  0.5771 -0.0514 -0.5126
  171SAPS   H9R19400   3.856   0.659   7.217  0.4601  0.8227  0.2024
  171SAPS  C21019401   3.707   0.489   7.207 -0.2521 -0.0753  0.4148
  171SAPS  H10R19402   3.657   0.413   7.271 -0.2933  0.9209  1.6011
  171SAPS  H10S19403   3.780   0.444   7.136 -1.9634 -0.3917 -1.2128
  171SAPS  C21119404   3.601   0.564   7.126 -0.0593 -0.6353  0.1074
  171SAPS  H11R19405   3.519   0.601   7.189  2.3334 -1.3770  3.9789
  171SAPS  C21219406   3.603   0.585   6.993  0.1133  0.2797 -0.7483
  171SAPS  H12R19407   3.529   0.652   6.948  1.1179  1.9450 -0.0362
  171SAPS  C21319408   3.706   0.524   6.896 -0.0382 -0.3184  0.1555
  171SAPS  H13R19409   3.755   0.436   6.944 -1.8851 -2.1843 -1.1747
  171SAPS  H13S19410   3.781   0.595   6.858 -1.7958  0.9412 -1.1220
  171SAPS  C21419411   3.633   0.463   6.775 -0.0444  0.2767 -0.4840
  171SAPS  H14R19412   3.602   0.359   6.791 -0.5446  0.7046  1.5847
  171SAPS  C21519413   3.620   0.516   6.646 -0.3406 -0.3334  0.2306
  171SAPS  H15R19414   3.558   0.456   6.577  0.7353  1.5678 -2.5356
  171SAPS  C21619415   3.675   0.647   6.601  0.0067 -0.1734 -0.0447
  171SAPS  H16R19416   3.665   0.649   6.490  3.3628  0.4007 -0.4391
  171SAPS  H16S19417   3.785   0.660   6.613 -0.1424  3.6003 -1.2764
  171SAPS  C21719418   3.608   0.771   6.671 -0.0828 -0.2697 -1.0252
  171SAPS  H17R19419   3.624   0.776   6.781  1.9762 -0.5606 -1.2681
  171SAPS  H17S19420   3.497   0.765   6.664 -0.1952  1.1580 -0.6926
  171SAPS  C21819421   3.666   0.902   6.626 -0.2761 -0.7828 -0.5749
  171SAPS  H18R19422   3.664   0.891   6.516  1.2797 -3.3506 -0.4351
  171SAPS  H18S19423   3.777   0.894   6.637 -0.1193 -1.8563 -2.5258
  171SAPS  C21919424   3.601   1.036   6.673  0.1779  0.3467  0.2526
  171SAPS  H19R19425   3.577   1.037   6.781 -0.4752 -0.8407  0.1329
  171SAPS  H19S19426   3.506   1.033   6.615  0.2856  0.3907  0.0709
  171SAPS  C22019427   3.686   1.159   6.620  0.4822 -0.0671 -0.5960
  171SAPS  H20R19428   3.706   1.152   6.511  0.1959  1.2836 -0.7573
  171SAPS  H20S19429   3.782   1.165   6.675  1.8125  1.3783 -2.9286
  171SAPS  H20T19430   3.637   1.252   6.655 -0.0316 -1.2940  2.2872
  171SAPS   C3319431   3.194   0.793   7.316  0.5194  0.4278 -0.1835
  171SAPS   H3X19432   3.208   0.898   7.283 -1.5063  0.7914  0.0068
  171SAPS   H3Y19433   3.091   0.755   7.302  0.4736  0.0258  1.1731
  171SAPS   C3419434   3.281   0.711   7.224 -0.1677  0.3101  0.3335
  171SAPS   H4X19435   3.297   0.607   7.259 -0.1879  0.2549  0.1782
  171SAPS   H4Y19436   3.384   0.751   7.217 -0.6137  1.7218  1.2933
  171SAPS   C3519437   3.232   0.683   7.077 -0.1937 -0.5088 -0.0656
  171SAPS   H5X19438   3.140   0.622   7.090 -0.4713 -0.8082 -2.7903
  171SAPS   H5Y19439   3.307   0.630   7.015  0.4682  0.3390 -0.0052
  171SAPS   C3619440   3.192   0.815   7.001 -0.0230  0.1014 -0.6254
  171SAPS   H6X19441   3.277   0.886   6.994 -0.8076  1.0194 -1.1402
  171SAPS   H6Y19442   3.114   0.866   7.062 -0.2243 -1.2324  0.2592
  171SAPS   C3719443   3.144   0.773   6.868 -0.6401  0.0394 -0.3474
  171SAPS   H7X19444   3.046   0.720   6.873 -0.4030 -0.4555 -0.7343
  171SAPS   H7Y19445   3.222   0.705   6.827  0.6997  2.0458 -1.2477
  171SAPS   C3819446   3.133   0.876   6.756  0.1194  0.4875 -0.5062
  171SAPS   H8X19447   3.231   0.927   6.749 -0.7331  2.3088  0.0322
  171SAPS   H8Y19448   3.056   0.952   6.781  1.1849  1.8526 -1.2654
  171SAPS   C3919449   3.090   0.816   6.618  0.5345 -0.1480 -0.2671
  171SAPS   H9X19450   2.989   0.771   6.618  0.1961  0.6064 -0.1234
  171SAPS   H9Y19451   3.174   0.747   6.592 -0.9386 -1.6533 -1.1885
  171SAPS  C31019452   3.085   0.922   6.516 -0.0956 -0.9424  0.4915
  171SAPS  H10X19453   3.166   0.997   6.526 -1.4654  0.5209  1.0678
  171SAPS  H10Y19454   2.993   0.984   6.524  0.3304 -0.0726 -1.0079
  171SAPS  C31119455   3.071   0.865   6.369 -0.1467 -0.1098  0.7336
  171SAPS  H11X19456   3.159   0.802   6.342  1.2296  2.0093  0.0157
  171SAPS  H11Y19457   3.074   0.955   6.304  3.4587 -0.5174  0.1052
  171SAPS  C31219458   2.946   0.787   6.352  0.0534  0.3518 -0.1556
  171SAPS  H12X19459   2.861   0.820   6.414 -2.5473 -0.4942 -3.0486
  171SAPS  H12Y19460   2.956   0.679   6.379 -4.7373 -0.2357  0.1032
  171SAPS  C31319461   2.903   0.791   6.206  0.6668 -0.1019  0.2161
  171SAPS  H13X19462   2.999   0.777   6.153 -0.2435 -1.1265 -1.2299
  171SAPS  H13Y19463   2.864   0.894   6.192  0.4408 -0.3200 -0.8431
  171SAPS  C31419464   2.796   0.689   6.167 -0.5254  0.2467 -1.1601
  171SAPS  H14X19465   2.710   0.699   6.235  1.0585 -1.2454  1.2085
  171SAPS  H14Y19466   2.839   0.587   6.178  0.6542  0.7000 -1.3266
  171SAPS  C31519467   2.758   0.677   6.020 -0.0114  0.2670  0.5385
  171SAPS  H15X19468   2.849   0.681   5.958 -0.0123  0.7543  0.5612
  171SAPS  H15Y19469   2.706   0.774   5.999 -1.8261 -1.1008 -1.8002
  171SAPS  C31619470   2.664   0.556   5.996  0.1246  0.5908 -0.2661
  171SAPS  H16X19471   2.592   0.549   6.081  1.2146 -0.5823  0.6168
  171SAPS  H16Y19472   2.717   0.459   6.008 -3.3464 -1.7152 -2.0318
  171SAPS  C31719473   2.586   0.565   5.869  0.0755  0.1973 -0.2410
  171SAPS  H17X19474   2.656   0.584   5.785 -1.2633  0.4039 -1.3361
  171SAPS  H17Y19475   2.520   0.653   5.884 -0.5625 -0.5021  1.3327
  171SAPS  C31819476   2.511   0.433   5.832  0.7743 -0.4036 -0.1334
  171SAPS  H18X19477   2.448   0.391   5.912  1.9003 -2.6142 -0.3323
  171SAPS  H18Y19478   2.583   0.352   5.807 -0.1401 -1.2596 -0.0291
  171SAPS  H18Z19479   2.438   0.458   5.752 -0.5271  0.2640  1.2203
  172SAPS     N19480   2.836   1.292   8.084 -0.3852  0.1628 -0.5858
  172SAPS   HN119481   2.824   1.383   8.035 -0.4049  1.1162  1.0997
  172SAPS   HN219482   2.934   1.275   8.112 -0.6046  0.0646  0.1467
  172SAPS   HN319483   2.788   1.230   8.016 -2.3291  2.5236 -1.5348
  172SAPS   C1219484   2.748   1.296   8.205  0.7330  0.6523  0.0268
  172SAPS  H12A19485   2.753   1.198   8.251 -0.8984 -0.5087 -2.0574
  172SAPS   C1319486   2.786   1.407   8.302  0.3225  0.0608  0.1415
  172SAPS  O13A19487   2.869   1.500   8.275 -0.3948 -0.2520  0.2034
  172SAPS  O13B19488   2.748   1.395   8.428 -0.0944  0.1584  0.4916
  172SAPS   C1119489   2.592   1.305   8.167 -0.7014 -0.0493  0.5515
  172SAPS  H11A19490   2.573   1.399   8.111  0.7390  0.4012  0.7673
  172SAPS  H11B19491   2.542   1.307   8.266  0.7165  1.4876  1.2952
  172SAPS     P19492   2.454   1.084   8.160 -0.0188  0.0951  0.2866
  172SAPS   O1319493   2.527   1.002   8.256 -0.1373  0.8491  0.0784
  172SAPS   O1419494   2.326   1.149   8.205  0.1790  0.2898  0.0696
  172SAPS   O1219495   2.553   1.188   8.089 -0.3162  0.5114 -0.0733
  172SAPS   O1119496   2.418   0.987   8.034 -0.0375  0.4375  0.6736
  172SAPS    C119497   2.484   0.986   7.911  0.1542  0.0551 -0.1500
  172SAPS    HA19498   2.414   0.946   7.834 -1.7636  1.5038  0.7655
  172SAPS    HB19499   2.504   1.092   7.885 -0.1430  0.4500  1.1929
  172SAPS    C219500   2.627   0.914   7.907 -0.1190  0.1576  0.6349
  172SAPS    HS19501   2.690   0.951   7.991  0.0906 -0.9884  1.0091
  172SAPS   O2119502   2.692   0.928   7.781 -0.2375  0.0314  0.0069
  172SAPS   C2119503   2.768   1.038   7.764  0.1891  0.4707 -0.4010
  172SAPS   O2219504   2.814   1.103   7.858 -0.0023  0.1422  0.4980
  172SAPS   C2219505   2.792   1.067   7.615 -0.8804 -0.1794  0.1859
  172SAPS   H2R19506   2.895   1.107   7.615 -0.2145 -1.4036 -3.7865
  172SAPS   H2S19507   2.795   0.978   7.549 -1.4906 -0.0150 -0.0747
  172SAPS    C319508   2.616   0.756   7.939  0.3880  0.0504  0.2800
  172SAPS    HX19509   2.560   0.740   8.034 -2.1569 -2.0050 -1.4352
  172SAPS    HY19510   2.720   0.725   7.960  0.2542 -1.1600 -0.7113
  172SAPS   O3119511   2.543   0.681   7.835 -0.2584  0.0487 -0.5632
  172SAPS   C3119512   2.611   0.643   7.733  0.4681 -0.0501 -0.7615
  172SAPS   O3219513   2.730   0.642   7.713 -0.0998  0.1917 -0.3208
  172SAPS   C3219514   2.497   0.600   7.629 -0.1334 -0.0044 -0.5209
  172SAPS   H2X19515   2.406   0.662   7.638  0.9630  1.7622 -1.0542
  172SAPS   H2Y19516   2.464   0.498   7.658 -0.7034  0.1468 -0.6340
  172SAPS   C2319517   2.685   1.165   7.557  0.3107  0.2460 -0.2189
  172SAPS   H3R19518   2.579   1.132   7.570  0.5924 -0.7918 -0.5055
  172SAPS   H3S19519   2.695   1.156   7.447  0.6177 -3.6646  0.0103
  172SAPS   C2419520   2.711   1.306   7.594  0.2323 -0.3919 -0.0652
  172SAPS   H4R19521   2.802   1.330   7.536  0.9491 -2.6785  0.0219
  172SAPS   H4S19522   2.745   1.315   7.699  1.0132  1.0122 -0.4075
  172SAPS   C2519523   2.605   1.412   7.560 -0.2949 -0.1860 -1.1224
  172SAPS   H5R19524   2.601   1.443   7.454 -0.5451  1.7658 -0.5826
  172SAPS   C2619525   2.524   1.478   7.647 -0.1465 -0.3181  0.3276
  172SAPS   H6R19526   2.454   1.547   7.599 -0.7274 -0.4974  0.9014
  172SAPS   C2719527   2.515   1.436   7.792  0.2670 -0.0648  0.0296
  172SAPS   H7R19528   2.558   1.517   7.855 -3.2670  0.7661  1.6545
  172SAPS   H7S19529   2.575   1.346   7.817 -1.7947 -1.4445  0.3125
  172SAPS   C2819530   2.374   1.401   7.842  0.1547 -0.8044  0.0071
  172SAPS   H8R19531   2.345   1.296   7.854  1.5029 -1.4453 -1.8955
  172SAPS   C2919532   2.274   1.488   7.852 -0.7770  0.1096 -0.3726
  172SAPS   H9R19533   2.177   1.452   7.888  0.1487  0.4519  2.7622
  172SAPS  C21019534   2.272   1.640   7.827  0.1744  0.1743  0.0625
  172SAPS  H10R19535   2.257   1.664   7.720 -1.6642 -1.8644 -0.2034
  172SAPS  H10S19536   2.374   1.675   7.856 -0.0319 -0.9005  2.2985
  172SAPS  C21119537   2.176   1.717   7.914 -0.5977  0.6644 -0.0001
  172SAPS  H11R19538   2.164   1.680   8.017  0.4985  0.6114  0.1246
  172SAPS  C21219539   2.112   1.826   7.881  0.4418 -0.4082 -0.4278
  172SAPS  H12R19540   2.041   1.868   7.953  0.7160  0.1039 -0.4517
  172SAPS  C21319541   2.104   1.908   7.753 -0.1472  0.2803 -0.0395
  172SAPS  H13R19542   2.191   1.888   7.687  0.3018  1.6794  0.0896
  172SAPS  H13S19543   2.105   2.017   7.775 -1.3049  0.4042 -0.4981
  172SAPS  C21419544   1.972   1.878   7.678 -0.5576  0.5636 -0.5073
  172SAPS  H14R19545   1.907   1.804   7.727  2.5391 -0.3736  2.6301
  172SAPS  C21519546   1.928   1.943   7.574 -0.1312 -0.3437 -0.5028
  172SAPS  H15R19547   1.823   1.926   7.543 -0.5989 -1.3046  1.4494
  172SAPS  C21619548   2.006   2.053   7.507 -0.0800  0.0110  0.1000
  172SAPS  H16R19549   2.113   2.053   7.535 -0.8334 -1.5250  3.5373
  172SAPS  H16S19550   1.961   2.148   7.545  1.3152  1.0965 -0.8770
  172SAPS  C21719551   1.985   2.032   7.359 -0.5710 -1.1626  0.1142
  172SAPS  H17R19552   1.879   2.034   7.326 -1.2484  0.2326  2.1793
  172SAPS  H17S19553   2.035   1.937   7.329  1.0149 -1.3219  2.9449
  172SAPS  C21819554   2.049   2.143   7.278 -0.5019 -0.8562  0.4394
  172SAPS  H18R19555   2.156   2.148   7.307 -0.7373 -0.2859  1.2568
  172SAPS  H18S19556   2.002   2.235   7.319 -0.2548 -1.0605  1.1961
  172SAPS  C21919557   2.025   2.129   7.124  0.6779 -1.2803 -0.7598
  172SAPS  H19R19558   2.062   2.030   7.090 -0.3828 -1.8315 -0.3393
  172SAPS  H19S19559   2.095   2.195   7.067 -0.2797 -0.9511 -1.5929
  172SAPS  C22019560   1.885   2.152   7.089  0.3626 -0.1670  0.0384
  172SAPS  H20R19561   1.817   2.073   7.126  0.5529  0.1267  1.0658
  172SAPS  H20S19562   1.867   2.159   6.980  1.7141  1.7202 -0.1205
  172SAPS  H20T19563   1.851   2.243   7.144  0.7474 -0.1042  0.1789
  172SAPS   C3319564   2.540   0.616   7.483  0.7440 -0.1386 -0.2036
  172SAPS   H3X19565   2.473   0.567   7.409  1.8288 -1.3209 -0.4563
  172SAPS   H3Y19566   2.640   0.567   7.476  1.8752  2.0786 -0.4964
  172SAPS   C3419567   2.552   0.773   7.444  0.9820  0.5344  0.0611
  172SAPS   H4X19568   2.614   0.832   7.514  0.1935  0.1196  1.1216
  172SAPS   H4Y19569   2.450   0.811   7.426  0.9613 -0.6578 -2.8868
  172SAPS   C3519570   2.627   0.775   7.309  0.1410 -0.7846  0.7140
  172SAPS   H5X19571   2.557   0.726   7.238 -2.2384  1.9257  0.9981
  172SAPS   H5Y19572   2.724   0.723   7.320 -0.1212 -1.1263  1.5202
  172SAPS   C3619573   2.659   0.911   7.260  0.1765 -0.3849  0.6451
  172SAPS   H6X19574   2.753   0.953   7.303 -0.1880  0.7436  0.3682
  172SAPS   H6Y19575   2.583   0.986   7.290  0.2887 -0.5217  1.2938
  172SAPS   C3719576   2.675   0.900   7.106  0.7519  0.0604 -0.4343
  172SAPS   H7X19577   2.585   0.862   7.053 -2.1552  2.0025  2.6849
  172SAPS   H7Y19578   2.768   0.839   7.110  0.1776 -0.7977  0.0076
  172SAPS   C3819579   2.690   1.039   7.033 -0.0083  0.1507 -0.0043
  172SAPS   H8X19580   2.764   1.104   7.083  1.0846 -0.1909 -1.1194
  172SAPS   H8Y19581   2.592   1.092   7.028 -0.8897 -1.2007  1.8894
  172SAPS   C3919582   2.745   1.005   6.887  0.2287 -0.1078 -0.2745
  172SAPS   H9X19583   2.696   0.908   6.864 -1.0727  0.5861 -0.5575
  172SAPS   H9Y19584   2.854   0.989   6.879  0.1121 -0.5932 -1.0066
  172SAPS  C31019585   2.698   1.108   6.778  0.0392  0.0708 -0.1325
  172SAPS  H10X19586   2.708   1.211   6.816 -0.4824  0.5364 -1.2082
  172SAPS  H10Y19587   2.589   1.096   6.761 -0.1535 -1.0443  1.6862
  172SAPS  C31119588   2.758   1.096   6.641  0.6566  0.2492 -0.3681
  172SAPS  H11X19589   2.736   0.995   6.598  1.3505  0.9464 -2.5085
  172SAPS  H11Y19590   2.866   1.107   6.664  0.7787 -2.7563  1.0207
  172SAPS  C31219591   2.712   1.200   6.545  0.4299 -1.1964  0.6279
  172SAPS  H12X19592   2.729   1.299   6.592 -1.2605  0.0720 -1.2731
  172SAPS  H12Y19593   2.601   1.195   6.538  0.2516 -0.1994  2.1426
  172SAPS  C31319594   2.801   1.182   6.419 -0.5513 -0.2524 -0.6656
  172SAPS  H13X19595   2.792   1.076   6.387 -0.3313  0.1739 -2.2344
  172SAPS  H13Y19596   2.907   1.189   6.451 -0.0576  0.2948 -2.3065
  172SAPS  C31419597   2.763   1.259   6.293 -0.7934 -0.3131  0.1718
  172SAPS  H14X19598   2.787   1.367   6.302 -0.4718 -0.3767  0.0733
  172SAPS  H14Y19599   2.652   1.255   6.283 -1.1357  1.4055  2.3659
  172SAPS  C31519600   2.817   1.194   6.162 -0.7592  0.3119  0.0529
  172SAPS  H15X19601   2.774   1.092   6.155 -0.5251  0.3558 -4.3954
  172SAPS  H15Y19602   2.927   1.203   6.148 -0.2255 -0.6132  2.9689
  172SAPS  C31619603   2.741   1.269   6.044  0.1362 -0.3776 -0.6162
  172SAPS  H16X19604   2.631   1.269   6.059  0.0152  2.5420 -0.9951
  172SAPS  H16Y19605   2.771   1.376   6.049  0.4799 -0.5377  1.8703
  172SAPS  C31719606   2.785   1.194   5.914  0.1558 -0.3447  0.0648
  172SAPS  H17X19607   2.893   1.165   5.917  0.5178  0.9870  0.4998
  172SAPS  H17Y19608   2.772   1.270   5.834  0.2659 -0.1383  0.2410
  172SAPS  C31819609   2.707   1.067   5.885  0.3947  0.1725  0.0296
  172SAPS  H18X19610   2.597   1.080   5.893  0.5889  0.5528  3.2329
  172SAPS  H18Y19611   2.730   0.982   5.952 -0.0314 -1.1997 -1.4869
  172SAPS  H18Z19612   2.726   1.035   5.780 -0.6842  2.5722 -0.9783
  173SAPS     N19613   2.745   4.515   3.564  0.4056  0.4815 -0.3011
  173SAPS   HN119614   2.737   4.618   3.550 -0.7968  0.9290  2.8402
  173SAPS   HN219615   2.750   4.498   3.666 -0.4413  0.3044 -0.2883
  173SAPS   HN319616   2.841   4.493   3.529  1.0589  0.2853  1.4875
  173SAPS   C1219617   2.633   4.454   3.496 -0.3162 -0.2460  0.2843
  173SAPS  H12A19618   2.611   4.496   3.399 -2.1441  0.1361  0.8162
  173SAPS   C1319619   2.630   4.304   3.472  0.5167  0.0012  0.2436
  173SAPS  O13A19620   2.718   4.231   3.523  0.1708 -0.6267  0.1001
  173SAPS  O13B19621   2.543   4.253   3.397 -0.2537 -0.4876  0.4146
  173SAPS   C1119622   2.504   4.478   3.576  0.2106 -0.0406  0.1708
  173SAPS  H11A19623   2.499   4.412   3.665 -0.7221  2.1579  1.8464
  173SAPS  H11B19624   2.415   4.456   3.512  1.6860  2.0354 -2.8544
  173SAPS     P19625   2.384   4.671   3.727 -0.1397  0.4148  0.5214
  173SAPS   O1319626   2.376   4.818   3.719 -0.3822  0.3139 -0.0945
  173SAPS   O1419627   2.260   4.593   3.715  0.0372 -0.1604 -0.0616
  173SAPS   O1219628   2.492   4.613   3.627  0.0873 -0.3303  0.0849
  173SAPS   O1119629   2.444   4.641   3.866 -0.3629  0.4588 -0.5385
  173SAPS    C119630   2.567   4.696   3.913 -0.3535 -0.0585 -0.5235
  173SAPS    HA19631   2.653   4.668   3.848  0.6030  1.1817  0.1498
  173SAPS    HB19632   2.570   4.807   3.916  0.2443 -0.0856  0.0958
  173SAPS    C219633   2.606   4.645   4.054  0.5289 -0.4560  0.6718
  173SAPS    HS19634   2.644   4.540   4.048 -1.7942 -1.2975 -0.4048
  173SAPS   O2119635   2.492   4.652   4.140 -0.1497  0.3688 -0.9090
  173SAPS   C2119636   2.436   4.542   4.166 -0.5462  0.1622 -0.0375
  173SAPS   O2219637   2.482   4.431   4.142 -0.5342 -0.0577  0.8650
  173SAPS   C2219638   2.307   4.561   4.255  0.0933  0.7477  0.2255
  173SAPS   H2R19639   2.225   4.569   4.180 -0.3634 -1.1832  0.4453
  173SAPS   H2S19640   2.284   4.456   4.286 -3.1259  0.4392 -2.5513
  173SAPS    C319641   2.721   4.732   4.108  0.1336  0.5564  0.1483
  173SAPS    HX19642   2.681   4.834   4.124 -1.6088  0.3713 -2.3393
  173SAPS    HY19643   2.807   4.738   4.039 -0.4843 -0.5311 -0.7680
  173SAPS   O3119644   2.765   4.659   4.231  0.6660  0.1237 -0.5225
  173SAPS   C3119645   2.868   4.717   4.293  0.2369 -0.7281  0.0250
  173SAPS   O3219646   2.921   4.817   4.245 -0.0358  0.5440 -0.3384
  173SAPS   C3219647   2.898   4.644   4.427  0.0232 -0.2524  0.3731
  173SAPS   H2X19648   2.924   4.538   4.406  3.8947  0.2178  1.9219
  173SAPS   H2Y19649   2.798   4.645   4.474  1.1122  0.7799  2.8561
  173SAPS   C2319650   2.306   4.671   4.359  0.1099 -0.1082 -0.8481
  173SAPS   H3R19651   2.203   4.679   4.401 -0.8751 -0.1345 -3.0890
  173SAPS   H3S19652   2.344   4.763   4.310 -0.1864  1.9443  2.5134
  173SAPS   C2419653   2.410   4.645   4.463 -0.0419  0.3755  0.9857
  173SAPS   H4R19654   2.401   4.738   4.523 -1.7593  0.8347  0.0967
  173SAPS   H4S19655   2.508   4.632   4.413  0.1971 -0.0594  1.5635
  173SAPS   C2519656   2.368   4.534   4.549 -0.7220  0.4345  0.2641
  173SAPS   H5R19657   2.437   4.449   4.531 -0.8742  0.2870  0.3682
  173SAPS   C2619658   2.291   4.526   4.657  0.2475  0.1906 -0.2485
  173SAPS   H6R19659   2.289   4.431   4.712 -0.0267  0.5977  0.4528
  173SAPS   C2719660   2.211   4.646   4.713  0.0522 -0.8206 -0.1475
  173SAPS   H7R19661   2.125   4.606   4.771  2.5847 -3.9622  1.7329
  173SAPS   H7S19662   2.170   4.707   4.629  0.1503  0.5712  0.7870
  173SAPS   C2819663   2.294   4.735   4.810 -0.1634 -0.6884 -0.0730
  173SAPS   H8R19664   2.336   4.830   4.773 -2.0447 -0.4776 -1.8715
  173SAPS   C2919665   2.313   4.707   4.939  0.1810 -0.4085  0.4490
  173SAPS   H9R19666   2.366   4.781   5.002 -0.0959  1.3534 -1.2912
  173SAPS  C21019667   2.254   4.589   5.015  0.0441  0.2313 -0.2800
  173SAPS  H10R19668   2.315   4.500   4.988 -0.3041 -0.5610  1.3871
  173SAPS  H10S19669   2.154   4.549   4.984  0.0096 -2.4272  2.7266
  173SAPS  C21119670   2.250   4.626   5.160  0.2340  0.1368  0.2180
  173SAPS  H11R19671   2.255   4.735   5.176 -1.0826  0.3066 -0.3420
  173SAPS  C21219672   2.224   4.539   5.265  0.2536  0.1327  0.1819
  173SAPS  H12R19673   2.221   4.578   5.368 -0.8125 -1.4643  0.7826
  173SAPS  C21319674   2.207   4.386   5.265  0.2240 -0.5543  0.3885
  173SAPS  H13R19675   2.186   4.359   5.159  0.3573 -1.2741  0.5418
  173SAPS  H13S19676   2.115   4.363   5.323  1.6702 -0.4054  2.8856
  173SAPS  C21419677   2.318   4.307   5.323  0.5844 -0.1308  0.2019
  173SAPS  H14R19678   2.384   4.259   5.249 -0.4708 -0.1639 -0.7380
  173SAPS  C21519679   2.356   4.298   5.451  0.5585 -0.3262  0.3227
  173SAPS  H15R19680   2.443   4.232   5.468  2.1614  1.4932 -0.4525
  173SAPS  C21619681   2.287   4.362   5.569  0.6124 -0.4017 -0.3939
  173SAPS  H16R19682   2.207   4.434   5.543  1.4891  1.6303  2.1567
  173SAPS  H16S19683   2.354   4.426   5.630 -3.3593  1.2529  2.6408
  173SAPS  C21719684   2.240   4.253   5.670  0.1798 -0.4596  0.6627
  173SAPS  H17R19685   2.316   4.172   5.677  1.3562  0.6462  1.0569
  173SAPS  H17S19686   2.150   4.202   5.629 -0.5130  0.1841  1.3442
  173SAPS  C21819687   2.204   4.310   5.811 -0.5403  0.2668 -0.7296
  173SAPS  H18R19688   2.122   4.384   5.820 -1.0833 -0.4009 -0.0060
  173SAPS  H18S19689   2.300   4.350   5.851 -0.6131  0.9560 -1.2313
  173SAPS  C21919690   2.159   4.199   5.911 -0.4444  0.1239  0.8865
  173SAPS  H19R19691   2.138   4.239   6.012 -1.4767  0.0364  0.7159
  173SAPS  H19S19692   2.242   4.126   5.912 -1.1817 -0.7136  2.0217
  173SAPS  C22019693   2.030   4.125   5.866 -0.0329  0.4758 -0.0486
  173SAPS  H20R19694   1.944   4.193   5.885 -0.6684 -0.0031 -1.0997
  173SAPS  H20S19695   2.003   4.035   5.925 -1.6993  1.5468  0.8843
  173SAPS  H20T19696   2.047   4.099   5.759  0.2507 -0.3014  0.1795
  173SAPS   C3319697   2.987   4.719   4.530 -0.2629 -0.9709  0.3773
  173SAPS   H3X19698   2.967   4.828   4.535  0.2849 -0.9207  1.7660
  173SAPS   H3Y19699   3.089   4.707   4.487 -0.2188  3.0394 -1.0418
  173SAPS   C3419700   2.979   4.657   4.674 -0.3635  0.0362 -0.5736
  173SAPS   H4X19701   3.010   4.551   4.663  1.4442  0.6615 -2.0562
  173SAPS   H4Y19702   2.874   4.659   4.710 -0.1123  1.6365  0.1371
  173SAPS   C3519703   3.079   4.720   4.778 -0.9016 -0.0378 -1.1045
  173SAPS   H5X19704   3.063   4.830   4.785  2.7873  0.5452  1.6125
  173SAPS   H5Y19705   3.189   4.714   4.762 -0.9154 -0.9171 -0.9005
  173SAPS   C3619706   3.040   4.668   4.920  0.3353  0.0030  0.7739
  173SAPS   H6X19707   3.058   4.559   4.921 -0.4275 -0.1854 -1.3090
  173SAPS   H6Y19708   2.931   4.686   4.928  0.4477  0.1528  2.3875
  173SAPS   C3719709   3.100   4.737   5.041 -0.3197 -0.4198  0.2151
  173SAPS   H7X19710   3.209   4.716   5.035  0.3792  2.3780  1.6163
  173SAPS   H7Y19711   3.056   4.678   5.124  1.0335  0.5288  1.6634
  173SAPS   C3819712   3.079   4.888   5.062 -0.1386  0.6426  1.2557
  173SAPS   H8X19713   2.982   4.927   5.024  0.1764 -0.8993 -1.3509
  173SAPS   H8Y19714   3.161   4.937   5.007 -0.2653  0.4105  0.8550
  173SAPS   C3919715   3.089   4.910   5.216  0.4847  0.3620  0.3684
  173SAPS   H9X19716   3.016   4.847   5.272 -0.7212  1.5210  0.1420
  173SAPS   H9Y19717   3.062   5.011   5.252 -1.2941  0.8128 -1.9980
  173SAPS  C31019718   3.233   4.896   5.271  0.7534  0.0817 -0.1989
  173SAPS  H10X19719   3.307   4.962   5.220  1.3435 -0.5686 -0.2129
  173SAPS  H10Y19720   3.274   4.792   5.266  1.8938  0.4779  0.3799
  173SAPS  C31119721   3.232   4.934   5.417 -0.0183  0.3950 -0.8820
  173SAPS  H11X19722   3.172   4.866   5.480  3.0095 -2.5519 -0.9376
  173SAPS  H11Y19723   3.183   5.033   5.434  1.2924  0.9744 -0.3069
  173SAPS  C31219724   3.378   4.940   5.470  0.0876 -0.0341  0.1762
  173SAPS  H12X19725   3.435   5.023   5.423  0.2384 -1.5525 -2.4376
  173SAPS  H12Y19726   3.427   4.845   5.442  0.1494 -0.0377  0.2948
  173SAPS  C31319727   3.389   4.959   5.619  0.1430  0.0731  0.1177
  173SAPS  H13X19728   3.324   5.042   5.655 -0.0655  0.2561 -0.6481
  173SAPS  H13Y19729   3.494   4.987   5.643  0.6377  0.2959 -2.1033
  173SAPS  C31419730   3.374   4.831   5.700  0.2477  0.6666 -0.0937
  173SAPS  H14X19731   3.447   4.754   5.668 -0.3042 -0.1478  0.5473
  173SAPS  H14Y19732   3.273   4.793   5.676  0.6931 -1.6497  1.4006
  173SAPS  C31519733   3.391   4.859   5.852  0.8177  0.7246 -0.5633
  173SAPS  H15X19734   3.311   4.930   5.879  0.8265  0.8055 -0.7434
  173SAPS  H15Y19735   3.493   4.900   5.872  1.4363 -0.7894 -0.4762
  173SAPS  C31619736   3.376   4.734   5.948 -0.3888  0.3019 -0.5803
  173SAPS  H16X19737   3.369   4.764   6.054  0.3371  1.4216 -0.8273
  173SAPS  H16Y19738   3.459   4.661   5.934 -0.9863 -0.2513 -1.2855
  173SAPS  C31719739   3.241   4.660   5.925 -0.2760  0.2218  1.0311
  173SAPS  H17X19740   3.249   4.616   5.823  3.2025  1.7214  0.5063
  173SAPS  H17Y19741   3.157   4.732   5.915 -1.0965 -0.6971  1.1558
  173SAPS  C31819742   3.198   4.552   6.029 -0.7474  0.1939  0.0468
  173SAPS  H18X19743   3.155   4.462   5.979  1.1767 -0.2150 -0.9921
  173SAPS  H18Y19744   3.141   4.594   6.114 -0.9324  2.2077 -1.0177
  173SAPS  H18Z19745   3.293   4.511   6.070 -1.1201  1.5542  2.4628
  174SAPS     N19746   5.474   1.380   3.702 -0.0409 -0.1292  0.1102
  174SAPS   HN119747   5.551   1.379   3.632 -1.0270  1.7260 -1.0981
  174SAPS   HN219748   5.382   1.361   3.656  0.1669 -3.1399  0.7124
  174SAPS   HN319749   5.479   1.463   3.763  2.2010 -2.6609  3.7712
  174SAPS   C1219750   5.508   1.266   3.805 -0.4182  0.3902 -0.1207
  174SAPS  H12A19751   5.423   1.246   3.869  1.1248 -4.7239  0.8157
  174SAPS   C1319752   5.524   1.124   3.753 -0.3021  0.0343  0.6759
  174SAPS  O13A19753   5.516   1.100   3.634 -0.5687 -0.3010  0.4332
  174SAPS  O13B19754   5.503   1.023   3.830 -0.3301 -0.3389  0.4313
  174SAPS   C1119755   5.638   1.309   3.880 -0.0696 -0.3306  0.3020
  174SAPS  H11A19756   5.717   1.333   3.805  1.3765  0.6334  2.0825
  174SAPS  H11B19757   5.671   1.225   3.945 -2.0158 -1.2053  0.2491
  174SAPS     P19758   5.537   1.438   4.085  0.0020  0.3750  0.4297
  174SAPS   O1319759   5.410   1.517   4.060  0.6846  0.8107 -0.3472
  174SAPS   O1419760   5.510   1.301   4.136  0.0288  0.2207 -0.5058
  174SAPS   O1219761   5.614   1.430   3.946 -1.0145  0.1781 -0.0282
  174SAPS   O1119762   5.635   1.519   4.179 -0.2409  0.1728 -0.1057
  174SAPS    C119763   5.776   1.485   4.184 -0.3416  0.4430  0.2331
  174SAPS    HA19764   5.819   1.457   4.086 -0.8795 -0.2564  0.1885
  174SAPS    HB19765   5.832   1.572   4.225  1.3190  0.3741 -1.6983
  174SAPS    C219766   5.811   1.362   4.287  0.1763  0.4957 -0.0393
  174SAPS    HS19767   5.764   1.272   4.242  0.2096  0.1085  0.6732
  174SAPS   O2119768   5.740   1.394   4.405  0.3558 -0.4012 -0.1316
  174SAPS   C2119769   5.691   1.293   4.483 -0.6196 -0.3370  0.6368
  174SAPS   O2219770   5.690   1.173   4.454  0.3240 -0.4839  0.7637
  174SAPS   C2219771   5.635   1.359   4.608  1.2187 -0.1741  0.5092
  174SAPS   H2R19772   5.654   1.468   4.619  1.0012  0.0877 -1.3975
  174SAPS   H2S19773   5.528   1.350   4.581  0.8706  0.8127  1.5207
  174SAPS    C319774   5.963   1.325   4.316  0.0326  0.6820 -0.4100
  174SAPS    HX19775   6.021   1.418   4.334 -0.8912  0.8694  1.9111
  174SAPS    HY19776   6.012   1.284   4.225 -2.5047 -1.8568 -0.7865
  174SAPS   O3119777   5.973   1.232   4.432 -0.0936 -0.6220  0.1992
  174SAPS   C3119778   6.015   1.111   4.406  0.0412  0.1388  0.2107
  174SAPS   O3219779   6.058   1.068   4.300 -0.4060 -0.5826 -0.2816
  174SAPS   C3219780   6.024   1.022   4.529 -0.0695 -0.3119  0.0132
  174SAPS   H2X19781   5.934   0.957   4.531 -0.1716 -0.1572  1.7422
  174SAPS   H2Y19782   6.025   1.079   4.625 -0.9819  1.1989 -0.8249
  174SAPS   C2319783   5.690   1.281   4.732  0.0743 -1.0192 -0.1643
  174SAPS   H3R19784   5.801   1.280   4.726  0.0602 -0.9366 -0.5006
  174SAPS   H3S19785   5.640   1.182   4.721 -0.5626 -0.9370  1.7111
  174SAPS   C2419786   5.646   1.355   4.861  0.2331 -0.4170  0.4429
  174SAPS   H4R19787   5.657   1.286   4.948  0.2654  0.7942  1.4143
  174SAPS   H4S19788   5.537   1.378   4.855  0.3714  0.7289  1.8627
  174SAPS   C2519789   5.719   1.483   4.877 -0.6557 -0.0599 -0.2440
  174SAPS   H5R19790   5.725   1.553   4.793  0.1677 -3.5320 -3.3424
  174SAPS   C2619791   5.790   1.536   4.980  0.6850 -0.5392 -0.2162
  174SAPS   H6R19792   5.830   1.638   4.979  2.1469 -1.0946 -0.6339
  174SAPS   C2719793   5.815   1.459   5.108  0.3464  0.4241  0.3265
  174SAPS   H7R19794   5.908   1.399   5.096  1.5138  1.8045  1.9328
  174SAPS   H7S19795   5.742   1.378   5.125 -0.8174  1.2982 -0.3409
  174SAPS   C2819796   5.834   1.552   5.229  0.1363 -0.1284 -0.3443
  174SAPS   H8R19797   5.905   1.635   5.220 -0.0807  0.2784  1.3669
  174SAPS   C2919798   5.783   1.532   5.348 -0.4834  0.2783  0.1271
  174SAPS   H9R19799   5.813   1.604   5.426 -0.8469  0.0317  0.4967
  174SAPS  C21019800   5.702   1.407   5.385 -0.8162 -0.7196  0.1814
  174SAPS  H10R19801   5.770   1.323   5.413 -0.1768 -0.5163 -0.6936
  174SAPS  H10S19802   5.645   1.357   5.304 -1.5717 -0.3333  0.4622
  174SAPS  C21119803   5.604   1.438   5.494 -0.3574 -0.1659 -0.4955
  174SAPS  H11R19804   5.517   1.488   5.448 -0.9954 -2.4618 -1.9313
  174SAPS  C21219805   5.609   1.411   5.629 -0.4835 -0.4982 -0.2576
  174SAPS  H12R19806   5.533   1.457   5.694 -1.8905 -1.8323 -0.8755
  174SAPS  C21319807   5.724   1.335   5.691 -0.0663  0.4974  0.2847
  174SAPS  H13R19808   5.813   1.306   5.631 -0.0405 -1.7205  1.3195
  174SAPS  H13S19809   5.686   1.232   5.702 -1.4207  0.9833  0.3416
  174SAPS  C21419810   5.774   1.410   5.816  0.1307  0.6701 -0.5350
  174SAPS  H14R19811   5.699   1.443   5.890  1.0540 -1.3170  1.4250
  174SAPS  C21519812   5.901   1.450   5.843  0.5615 -0.2917  0.1442
  174SAPS  H15R19813   5.927   1.509   5.932 -0.1465  0.1248  0.0871
  174SAPS  C21619814   6.028   1.433   5.770  0.4090 -0.1012 -0.4585
  174SAPS  H16R19815   6.019   1.332   5.724  2.6617 -1.1161  1.1524
  174SAPS  H16S19816   6.114   1.437   5.841 -0.1389  0.1625  0.2042
  174SAPS  C21719817   6.060   1.544   5.662 -0.3276 -0.3027  0.1218
  174SAPS  H17R19818   6.074   1.631   5.731 -1.4109 -1.2044  1.5489
  174SAPS  H17S19819   5.971   1.559   5.598 -0.1332  1.3893  0.2015
  174SAPS  C21819820   6.172   1.503   5.571 -0.9267 -0.3801 -0.3683
  174SAPS  H18R19821   6.242   1.449   5.640 -1.6578 -1.0460 -0.1306
  174SAPS  H18S19822   6.236   1.586   5.535 -0.8199 -0.3591 -0.1349
  174SAPS  C21919823   6.124   1.418   5.465 -0.6122  0.1518  0.0954
  174SAPS  H19R19824   6.068   1.492   5.404  0.9976  0.8779 -0.5736
  174SAPS  H19S19825   6.054   1.350   5.518 -1.2456  1.7930  1.4739
  174SAPS  C22019826   6.222   1.337   5.383  0.0189  0.2492  0.2795
  174SAPS  H20R19827   6.292   1.401   5.324  0.5298 -1.8337 -1.5022
  174SAPS  H20S19828   6.174   1.256   5.326 -2.2735  1.8023 -0.1098
  174SAPS  H20T19829   6.300   1.281   5.440 -0.1768 -1.0246 -0.6497
  174SAPS   C3319830   6.154   0.934   4.538 -0.3547 -0.8288  0.7100
  174SAPS   H3X19831   6.165   0.856   4.459  0.2838 -0.7979  0.7604
  174SAPS   H3Y19832   6.144   0.874   4.631  0.3566 -0.5938  0.9476
  174SAPS   C3419833   6.287   1.003   4.576 -0.1505 -0.6746 -0.1367
  174SAPS   H4X19834   6.268   1.061   4.669  0.0922  0.6006 -0.8596
  174SAPS   H4Y19835   6.314   1.079   4.499  0.3185  0.8307  1.4443
  174SAPS   C3519836   6.413   0.909   4.599  0.7287 -0.2418 -0.3491
  174SAPS   H5X19837   6.418   0.842   4.510 -0.2543 -0.9729  0.1240
  174SAPS   H5Y19838   6.402   0.855   4.695 -0.0370  0.3567 -0.0940
  174SAPS   C3619839   6.548   0.992   4.592  0.1694  0.1060  0.1855
  174SAPS   H6X19840   6.536   1.097   4.628  0.8294  0.3786 -0.3769
  174SAPS   H6Y19841   6.569   0.994   4.483 -0.7007 -3.1380 -0.1255
  174SAPS   C3719842   6.668   0.925   4.673  0.5368 -0.0465  0.5034
  174SAPS   H7X19843   6.758   0.931   4.608 -0.3606 -3.2496 -1.2394
  174SAPS   H7Y19844   6.646   0.817   4.684  0.5619 -0.1405 -0.3035
  174SAPS   C3819845   6.689   1.002   4.798 -0.3906 -0.2849  0.5370
  174SAPS   H8X19846   6.674   1.112   4.788 -1.6253 -0.3865  1.0886
  174SAPS   H8Y19847   6.797   0.986   4.816  0.1037  0.9735 -1.0179
  174SAPS   C3919848   6.600   0.956   4.915  0.0788 -0.0264  0.7061
  174SAPS   H9X19849   6.628   0.853   4.943 -0.4700 -0.1850  0.6860
  174SAPS   H9Y19850   6.497   0.958   4.872  0.8499 -2.6243 -1.4584
  174SAPS  C31019851   6.625   1.052   5.024 -0.5482 -0.2744  0.2714
  174SAPS  H10X19852   6.599   1.157   5.002 -2.5558 -0.6681  0.5470
  174SAPS  H10Y19853   6.729   1.053   5.063 -1.5051 -2.1653  3.2273
  174SAPS  C31119854   6.546   1.018   5.152  0.3002 -0.3628 -0.2270
  174SAPS  H11X19855   6.480   0.932   5.126  0.0032  0.3643 -2.0911
  174SAPS  H11Y19856   6.492   1.114   5.168  2.9696  1.2379 -0.3420
  174SAPS  C31219857   6.637   0.991   5.278 -0.3169  0.0963 -0.2682
  174SAPS  H12X19858   6.675   1.091   5.311 -1.5632  1.3341 -2.3290
  174SAPS  H12Y19859   6.726   0.934   5.244  0.7079  2.5669 -2.0670
  174SAPS  C31319860   6.575   0.927   5.405 -0.8226 -0.0543  0.7244
  174SAPS  H13X19861   6.667   0.921   5.467  0.6326  1.1833 -1.2163
  174SAPS  H13Y19862   6.546   0.824   5.374 -2.6892  0.9986 -1.3223
  174SAPS  C31419863   6.477   1.017   5.472  0.2365 -0.3444 -0.1957
  174SAPS  H14X19864   6.376   0.994   5.430 -0.5531  1.3988  0.6442
  174SAPS  H14Y19865   6.493   1.125   5.455 -0.7505 -0.1047  0.3207
  174SAPS  C31519866   6.472   1.005   5.622 -0.2845 -0.8964 -0.0790
  174SAPS  H15X19867   6.406   1.078   5.675  0.8198 -0.4117  0.6668
  174SAPS  H15Y19868   6.573   1.018   5.666 -0.7113  0.4836  0.5412
  174SAPS  C31619869   6.445   0.863   5.669  0.0372 -0.4247  1.0398
  174SAPS  H16X19870   6.527   0.795   5.638 -0.9026 -0.7036 -0.9694
  174SAPS  H16Y19871   6.358   0.825   5.611  0.9436  1.7130 -1.9694
  174SAPS  C31719872   6.452   0.845   5.825  0.1267 -0.6852  0.3287
  174SAPS  H17X19873   6.545   0.878   5.875  0.0776  0.4859 -0.3320
  174SAPS  H17Y19874   6.433   0.740   5.855 -0.2507 -0.4256  1.0076
  174SAPS  C31819875   6.330   0.921   5.900 -1.1878  0.1223 -0.5218
  174SAPS  H18X19876   6.230   0.884   5.868 -0.8437 -1.1193 -0.2068
  174SAPS  H18Y19877   6.341   1.027   5.868  0.7822 -0.5877 -2.4258
  174SAPS  H18Z19878   6.354   0.900   6.007  0.5737 -1.8632 -1.2275
  175SAPS     N19879   3.324   4.416   3.591  0.3568 -0.6021 -0.0882
  175SAPS   HN119880   3.367   4.391   3.500  0.7932  1.0017 -0.3510
  175SAPS   HN219881   3.401   4.461   3.644  0.9341  0.8266 -1.9983
  175SAPS   HN319882   3.282   4.336   3.642  0.5461 -0.0726  0.9247
  175SAPS   C1219883   3.215   4.514   3.565 -0.0230  0.1645  0.1398
  175SAPS  H12A19884   3.262   4.593   3.509  1.0552 -0.8522 -0.4253
  175SAPS   C1319885   3.085   4.470   3.493  0.1996  0.2307  0.3246
  175SAPS  O13A19886   3.078   4.348   3.455 -0.5434 -0.1207  0.0018
  175SAPS  O13B19887   2.997   4.552   3.474  0.8765 -0.3734  0.0284
  175SAPS   C1119888   3.170   4.587   3.697 -0.3797  0.2796  0.4182
  175SAPS  H11A19889   3.097   4.666   3.670  0.9792  1.5552  0.3605
  175SAPS  H11B19890   3.261   4.632   3.741  2.1759 -2.8347 -1.2399
  175SAPS     P19891   2.966   4.511   3.849 -0.1406  0.1628 -0.1894
  175SAPS   O1319892   2.933   4.655   3.844 -0.4457 -0.2250 -0.7359
  175SAPS   O1419893   2.881   4.420   3.766  0.1649 -0.0470  0.3574
  175SAPS   O1219894   3.113   4.499   3.798  0.1186  0.0949  0.3915
  175SAPS   O1119895   2.972   4.461   4.000  0.7088 -0.5340  0.0337
  175SAPS    C119896   3.065   4.513   4.095  0.1754  0.6260 -0.3587
  175SAPS    HA19897   3.075   4.623   4.080 -0.2259  0.7072 -0.0746
  175SAPS    HB19898   3.016   4.507   4.195 -0.5443 -1.4150 -0.8020
  175SAPS    C219899   3.198   4.434   4.086  0.1154 -0.1652  0.1457
  175SAPS    HS19900   3.244   4.457   3.988  1.5645 -0.2711  0.7801
  175SAPS   O2119901   3.177   4.294   4.097 -0.1778 -0.0878  0.1654
  175SAPS   C2119902   3.280   4.215   4.053  0.0837 -0.5420 -0.1497
  175SAPS   O2219903   3.371   4.261   3.993 -0.0341 -0.6304 -0.7134
  175SAPS   C2219904   3.249   4.075   4.074  0.2044  0.5184  0.1002
  175SAPS   H2R19905   3.151   4.045   4.031  0.7765 -1.1708 -0.0841
  175SAPS   H2S19906   3.326   4.013   4.024  0.2188 -1.4033  2.3400
  175SAPS    C319907   3.298   4.488   4.190  0.2188 -0.5000 -0.2129
  175SAPS    HX19908   3.404   4.471   4.164  0.1592  1.6833 -2.1909
  175SAPS    HY19909   3.261   4.436   4.281 -1.8294  0.1779 -0.5994
  175SAPS   O3119910   3.289   4.639   4.204 -0.4159  0.6401  0.0802
  175SAPS   C3119911   3.376   4.707   4.125 -0.5889 -0.2531 -0.5360
  175SAPS   O3219912   3.459   4.664   4.048 -0.3264  0.0044 -0.1941
  175SAPS   C3219913   3.360   4.858   4.147  0.0518 -0.6228 -0.8055
  175SAPS   H2X19914   3.257   4.877   4.108 -0.4310 -2.5443 -0.5765
  175SAPS   H2Y19915   3.435   4.921   4.096 -0.4909  0.8764  0.1628
  175SAPS   C2319916   3.255   4.044   4.227  0.7707 -0.8872 -0.0270
  175SAPS   H3R19917   3.223   3.938   4.236 -2.8597  0.1561  0.9694
  175SAPS   H3S19918   3.183   4.100   4.290 -0.2544  0.1178 -2.0087
  175SAPS   C2419919   3.399   4.042   4.289  0.2539  0.3108 -0.5836
  175SAPS   H4R19920   3.465   3.984   4.221  1.6585  2.9089 -1.5779
  175SAPS   H4S19921   3.392   3.991   4.387  1.1410  1.8987  0.3472
  175SAPS   C2519922   3.471   4.172   4.302  0.6572  0.2541  0.3265
  175SAPS   H5R19923   3.549   4.187   4.226  0.5144  0.1588  0.1602
  175SAPS   C2619924   3.450   4.261   4.397 -0.2844  0.0100 -0.1930
  175SAPS   H6R19925   3.534   4.331   4.406  0.3776 -0.6804 -0.8900
  175SAPS   C2719926   3.346   4.270   4.499  0.0585 -0.2808 -1.0015
  175SAPS   H7R19927   3.384   4.194   4.571 -0.3460 -0.5189 -1.0350
  175SAPS   H7S19928   3.244   4.233   4.475  0.4189 -2.3199  0.3415
  175SAPS   C2819929   3.348   4.413   4.555 -0.4848 -0.0637  0.4553
  175SAPS   H8R19930   3.349   4.492   4.478 -1.9232 -0.0641  0.4035
  175SAPS   C2919931   3.366   4.453   4.678 -0.4581  0.3465 -0.0060
  175SAPS   H9R19932   3.365   4.560   4.702  0.3211  0.3028  0.2426
  175SAPS  C21019933   3.349   4.364   4.802 -0.5412  0.3281 -0.3379
  175SAPS  H10R19934   3.333   4.257   4.774 -0.5304  0.7418 -2.0643
  175SAPS  H10S19935   3.257   4.396   4.854  1.5347  2.0467  2.5366
  175SAPS  C21119936   3.472   4.377   4.890 -0.0621  0.1023 -0.3042
  175SAPS  H11R19937   3.566   4.351   4.839 -0.6553 -2.3752 -0.2932
  175SAPS  C21219938   3.471   4.423   5.018  0.0444  0.0543  0.0296
  175SAPS  H12R19939   3.568   4.428   5.069  0.2589  1.5124 -0.4547
  175SAPS  C21319940   3.354   4.473   5.093 -0.0799  0.3836  0.4218
  175SAPS  H13R19941   3.292   4.392   5.136  0.2313  0.3297  0.7764
  175SAPS  H13S19942   3.287   4.530   5.025 -0.1396 -0.0213  0.1319
  175SAPS  C21419943   3.388   4.550   5.212 -0.2557 -0.6130  0.9172
  175SAPS  H14R19944   3.469   4.620   5.186 -1.8750  1.1715  0.4292
  175SAPS  C21519945   3.345   4.551   5.338  0.3467 -0.6993  0.3940
  175SAPS  H15R19946   3.383   4.620   5.414 -0.0739 -1.6828  1.5299
  175SAPS  C21619947   3.243   4.450   5.391 -0.2048  0.1097 -0.6305
  175SAPS  H16R19948   3.251   4.436   5.500  1.1791  0.7618 -0.6299
  175SAPS  H16S19949   3.267   4.351   5.345  0.3252  0.3030 -0.7841
  175SAPS  C21719950   3.097   4.476   5.354 -0.0542  0.1436  0.3451
  175SAPS  H17R19951   3.033   4.388   5.379 -1.6186  0.5234 -1.8965
  175SAPS  H17S19952   3.081   4.497   5.246 -3.4947 -0.8811  0.5406
  175SAPS  C21819953   3.024   4.589   5.422  0.2801 -0.2401 -0.5393
  175SAPS  H18R19954   2.924   4.612   5.380  0.6976  2.2911 -0.2960
  175SAPS  H18S19955   3.101   4.668   5.408  1.3262 -0.7519  1.8751
  175SAPS  C21919956   3.019   4.583   5.572  0.9255 -0.0689  0.0948
  175SAPS  H19R19957   2.958   4.668   5.608  1.5187  0.0737  0.7761
  175SAPS  H19S19958   3.118   4.601   5.619  0.2467 -0.7561  1.8879
  175SAPS  C22019959   2.962   4.459   5.646  0.9045  0.5514 -0.5673
  175SAPS  H20R19960   3.030   4.371   5.641 -0.3876 -0.7173  2.0405
  175SAPS  H20S19961   2.868   4.419   5.604  0.0085  1.0693  0.8649
  175SAPS  H20T19962   2.949   4.473   5.756  0.0568 -2.1665 -0.2439
  175SAPS   C3319963   3.346   4.885   4.299 -0.3800  0.2933  0.1509
  175SAPS   H3X19964   3.249   4.844   4.334 -0.9018  0.8984 -0.5467
  175SAPS   H3Y19965   3.340   4.994   4.317  2.5778  0.6092 -0.2304
  175SAPS   C3419966   3.462   4.841   4.390 -0.6156  0.0572  0.0643
  175SAPS   H4X19967   3.556   4.890   4.357 -0.8083  2.2695  2.4059
  175SAPS   H4Y19968   3.472   4.731   4.389 -2.8033 -0.1854  0.2725
  175SAPS   C3519969   3.437   4.858   4.537 -0.4800  0.2583  0.3157
  175SAPS   H5X19970   3.382   4.764   4.564 -0.7369  0.3238  0.0322
  175SAPS   H5Y19971   3.376   4.946   4.567 -0.2789  0.0776  1.3004
  175SAPS   C3619972   3.564   4.847   4.613 -0.3002  0.7005 -0.0157
  175SAPS   H6X19973   3.644   4.919   4.586 -0.3714  0.6288 -0.4329
  175SAPS   H6Y19974   3.605   4.744   4.603  0.1527  0.9409 -0.6857
  175SAPS   C3719975   3.529   4.867   4.763 -0.3389 -0.4926 -0.2297
  175SAPS   H7X19976   3.469   4.778   4.795 -3.9722  1.0762 -2.0197
  175SAPS   H7Y19977   3.471   4.960   4.776 -0.4839 -0.7285  0.9523
  175SAPS   C3819978   3.647   4.883   4.867 -0.6329  0.5669  0.3030
  175SAPS   H8X19979   3.703   4.976   4.845  0.1479 -0.4424 -2.4436
  175SAPS   H8Y19980   3.711   4.794   4.845  0.0395  1.0908  0.1284
  175SAPS   C3919981   3.600   4.890   5.011 -0.0479  0.2974 -0.1208
  175SAPS   H9X19982   3.526   4.816   5.048 -0.0113  1.0174  1.4564
  175SAPS   H9Y19983   3.541   4.983   5.028 -1.3344 -0.6280  0.6383
  175SAPS  C31019984   3.718   4.900   5.106  0.3809 -0.7719  0.3796
  175SAPS  H10X19985   3.772   4.992   5.075 -1.9425  0.2691 -0.7511
  175SAPS  H10Y19986   3.790   4.816   5.096  0.8601 -0.2599 -0.6408
  175SAPS  C31119987   3.665   4.916   5.248  0.5727  0.3138 -0.1082
  175SAPS  H11X19988   3.598   4.829   5.269 -0.9042  1.5551  0.5031
  175SAPS  H11Y19989   3.601   5.005   5.264 -0.3595 -0.4697  0.7230
  175SAPS  C31219990   3.781   4.901   5.345  0.0333 -0.2433  1.1426
  175SAPS  H12X19991   3.841   4.993   5.331 -0.5656 -0.3615 -4.0919
  175SAPS  H12Y19992   3.839   4.808   5.330 -2.2323 -1.3506 -1.5210
  175SAPS  C31319993   3.730   4.900   5.494 -0.2213  0.3281 -0.0162
  175SAPS  H13X19994   3.657   4.817   5.506 -0.0403 -0.1507 -1.9106
  175SAPS  H13Y19995   3.686   4.997   5.526 -1.8800 -1.3240  3.2529
  175SAPS  C31419996   3.842   4.890   5.598  0.8614 -0.5825  0.1778
  175SAPS  H14X19997   3.904   4.982   5.603 -0.2984  0.1913  0.8083
  175SAPS  H14Y19998   3.902   4.798   5.579  1.6093  0.6664 -4.9525
  175SAPS  C31519999   3.776   4.874   5.746 -0.2858  0.1473  0.1798
  175SAPS  H15X20000   3.707   4.788   5.733  2.5684 -2.4631  0.9704
  175SAPS  H15Y20001   3.730   4.964   5.791  0.6423  1.0106 -0.5642
  175SAPS  C31620002   3.888   4.831   5.846 -0.1456 -0.2004 -0.0368
  175SAPS  H16X20003   3.947   4.926   5.844  0.0989 -0.3318  0.7338
  175SAPS  H16Y20004   3.949   4.757   5.789  0.3824 -0.0338  0.3022
  175SAPS  C31720005   3.856   4.808   5.996 -0.2658  0.5427  0.3541
  175SAPS  H17X20006   3.812   4.907   6.023  0.5860  1.9658 -2.8852
  175SAPS  H17Y20007   3.951   4.790   6.052  0.6345 -0.5010 -1.4119
  175SAPS  C31820008   3.781   4.675   6.020  0.1289 -0.5560 -0.6404
  175SAPS  H18X20009   3.775   4.659   6.130 -0.4286 -3.6727 -1.0307
  175SAPS  H18Y20010   3.817   4.586   5.963  2.2021 -0.0399 -0.2080
  175SAPS  H18Z20011   3.679   4.673   5.978 -0.3435 -0.2301  0.4430
  176SAPS     N20012   0.495   1.960   3.929 -0.1884 -0.2375  0.8945
  176SAPS   HN120013   0.476   1.859   3.947  0.0339 -0.5898 -0.7373
  176SAPS   HN220014   0.413   2.018   3.958  0.3650 -0.5733  3.3739
  176SAPS   HN320015   0.501   1.977   3.827  1.2895  1.6714  1.2541
  176SAPS   C1220016   0.614   2.015   4.001  0.0910 -0.2451  0.3928
  176SAPS  H12A20017   0.607   1.969   4.099  0.4920  0.2370  0.6565
  176SAPS   C1320018   0.750   1.966   3.949 -0.7140 -0.4403 -0.3884
  176SAPS  O13A20019   0.758   1.907   3.837  0.0539 -0.5871 -0.0391
  176SAPS  O13B20020   0.851   2.017   4.004  0.5633  0.0467  0.4490
  176SAPS   C1120021   0.616   2.171   4.004 -0.3593  0.2404 -0.4584
  176SAPS  H11A20022   0.650   2.215   3.908  2.8376 -1.4434 -0.2233
  176SAPS  H11B20023   0.694   2.195   4.079 -0.2270 -0.5014 -0.3517
  176SAPS     P20024   0.472   2.383   4.080 -0.1743 -0.1388  0.1050
  176SAPS   O1320025   0.570   2.419   4.184 -0.0283 -0.2175  0.6201
  176SAPS   O1420026   0.472   2.463   3.955  0.2891  0.5506 -0.5762
  176SAPS   O1220027   0.491   2.230   4.044  0.2215 -0.6244 -0.5860
  176SAPS   O1120028   0.323   2.376   4.150 -0.2704  0.0028  0.5066
  176SAPS    C120029   0.317   2.339   4.293 -0.2726 -0.0537  0.2129
  176SAPS    HA20030   0.378   2.409   4.355 -1.8258 -0.6889  2.5704
  176SAPS    HB20031   0.217   2.341   4.340 -0.1136  1.5204  0.5646
  176SAPS    C220032   0.372   2.194   4.319 -0.2748  0.2387 -0.8138
  176SAPS    HS20033   0.465   2.180   4.260  1.3045  1.7380  1.1684
  176SAPS   O2120034   0.269   2.099   4.304  0.6817  0.2755  0.3131
  176SAPS   C2120035   0.299   1.978   4.259  0.8587  0.1690 -0.0394
  176SAPS   O2220036   0.408   1.932   4.241  0.0318 -0.6787 -0.6069
  176SAPS   C2220037   0.166   1.895   4.245 -0.6241 -0.1019  0.0187
  176SAPS   H2R20038   0.095   1.970   4.206  0.5425  0.3770 -1.2948
  176SAPS   H2S20039   0.175   1.824   4.160  1.4409  1.1173 -0.8552
  176SAPS    C320040   0.428   2.190   4.463  0.6978  0.4592  0.4132
  176SAPS    HX20041   0.346   2.222   4.531 -0.0105  0.1862 -0.2982
  176SAPS    HY20042   0.511   2.264   4.468  0.2187  1.0909 -0.7923
  176SAPS   O3120043   0.468   2.058   4.516 -0.3693 -0.0481  0.6078
  176SAPS   C3120044   0.584   2.017   4.466  0.6665 -0.5070 -0.4131
  176SAPS   O3220045   0.660   2.087   4.398 -0.2485 -0.0276  0.5751
  176SAPS   C3220046   0.612   1.877   4.515  0.3799  0.7177  0.0527
  176SAPS   H2X20047   0.675   1.830   4.436 -0.8951 -2.5486  0.8416
  176SAPS   H2Y20048   0.518   1.819   4.524 -0.2122  1.5947 -0.3357
  176SAPS   C2320049   0.125   1.802   4.359  0.4106  0.1265 -0.1587
  176SAPS   H3R20050   0.204   1.725   4.377 -0.6063 -0.5019  1.8578
  176SAPS   H3S20051   0.037   1.747   4.319  1.5140 -1.9583  0.1356
  176SAPS   C2420052   0.092   1.861   4.501  0.2871 -0.1164  0.0608
  176SAPS   H4R20053   0.042   1.779   4.557 -0.2097 -0.3005 -0.6443
  176SAPS   H4S20054   0.027   1.948   4.479  0.5175 -0.5808 -2.7936
  176SAPS   C2520055   0.207   1.918   4.587 -0.0913  0.1373 -0.0944
  176SAPS   H5R20056   0.237   2.020   4.557 -1.4898  1.2255  1.9158
  176SAPS   C2620057   0.258   1.865   4.698 -0.1832  0.4871  0.1519
  176SAPS   H6R20058   0.338   1.926   4.744 -0.6786 -0.6329  2.6381
  176SAPS   C2720059   0.237   1.727   4.774  0.5812 -0.1476  0.3985
  176SAPS   H7R20060   0.333   1.678   4.802  0.9747  1.4477  2.1242
  176SAPS   H7S20061   0.190   1.654   4.706 -0.0549  0.4821  0.1404
  176SAPS   C2820062   0.145   1.753   4.900 -0.3074  0.4669 -0.2552
  176SAPS   H8R20063   0.046   1.796   4.880 -0.6973 -1.1558 -2.2171
  176SAPS   C2920064   0.164   1.707   5.027 -0.1232  0.4634  0.3309
  176SAPS   H9R20065   0.097   1.738   5.108 -1.8978 -2.6142  0.2338
  176SAPS  C21020066   0.284   1.630   5.082  0.8135  0.2208  0.4942
  176SAPS  H10R20067   0.349   1.598   4.997 -2.7346 -0.6786 -2.0874
  176SAPS  H10S20068   0.240   1.533   5.112 -1.8464  0.4487 -2.2885
  176SAPS  C21120069   0.347   1.702   5.200  0.5485  0.7710 -0.0538
  176SAPS  H11R20070   0.439   1.753   5.168  0.4909 -0.5311 -2.5340
  176SAPS  C21220071   0.309   1.679   5.332 -0.2002 -1.0436  0.5812
  176SAPS  H12R20072   0.355   1.745   5.408  0.9662 -1.2539  0.0885
  176SAPS  C21320073   0.178   1.600   5.368 -0.3440 -0.0020  0.0531
  176SAPS  H13R20074   0.207   1.518   5.437  0.4747 -2.0896 -2.5757
  176SAPS  H13S20075   0.140   1.548   5.278 -2.5213  0.0609  0.8871
  176SAPS  C21420076   0.070   1.689   5.423 -0.5449  0.1635  0.0982
  176SAPS  H14R20077  -0.018   1.694   5.358 -0.8703 -1.5040  0.3791
  176SAPS  C21520078   0.067   1.745   5.545 -0.1696  0.6049  0.2166
  176SAPS  H15R20079  -0.021   1.801   5.580 -0.8766  0.1787 -0.8109
  176SAPS  C21620080   0.175   1.734   5.647 -0.6540 -0.1171  0.6933
  176SAPS  H16R20081   0.235   1.828   5.641  0.3342 -0.8385 -2.7144
  176SAPS  H16S20082   0.245   1.652   5.621 -0.4187  0.5242 -0.8152
  176SAPS  C21720083   0.132   1.719   5.785  0.4299  0.2982 -0.3971
  176SAPS  H17R20084   0.056   1.787   5.830 -2.8519 -2.5261 -1.1961
  176SAPS  H17S20085   0.215   1.719   5.859  0.5025 -3.3852 -0.2578
  176SAPS  C21820086   0.073   1.576   5.804 -0.3123  0.0179 -0.0159
  176SAPS  H18R20087   0.158   1.505   5.806  0.2103  0.3870  5.1762
  176SAPS  H18S20088   0.009   1.567   5.714  1.7382  1.3403 -1.7250
  176SAPS  C21920089   0.013   1.559   5.938  0.0965  0.2561  0.2032
  176SAPS  H19R20090  -0.016   1.451   5.939 -1.2376  0.5755 -0.7593
  176SAPS  H19S20091  -0.072   1.631   5.944  0.3160  0.5393 -0.0735
  176SAPS  C22020092   0.099   1.582   6.062 -0.0131 -0.8450  0.1193
  176SAPS  H20R20093   0.118   1.691   6.075 -0.9177 -0.8132  1.3808
  176SAPS  H20S20094   0.198   1.532   6.055 -0.7840 -2.2436 -1.6456
  176SAPS  H20T20095   0.056   1.548   6.158  1.7033 -2.1171  0.4760
  176SAPS   C3320096   0.683   1.879   4.654 -0.2153 -0.0272  0.0887
  176SAPS   H3X20097   0.614   1.910   4.735  1.2743 -0.6461  1.6756
  176SAPS   H3Y20098   0.762   1.958   4.654  0.3640 -0.5929  0.4060
  176SAPS   C3420099   0.732   1.741   4.702  0.2292 -0.8194  0.3714
  176SAPS   H4X20100   0.839   1.720   4.676 -1.3387 -4.2540 -5.3353
  176SAPS   H4Y20101   0.672   1.674   4.636 -0.2050  2.0043 -2.3182
  176SAPS   C3520102   0.700   1.723   4.850  0.5568  0.7254  0.1644
  176SAPS   H5X20103   0.710   1.616   4.878 -4.2978 -0.4815 -1.6424
  176SAPS   H5Y20104   0.591   1.737   4.869  0.4041  2.0040 -1.3980
  176SAPS   C3620105   0.777   1.813   4.940 -0.5240 -0.2629  0.8088
  176SAPS   H6X20106   0.768   1.922   4.921 -1.0181  0.1737  3.2239
  176SAPS   H6Y20107   0.886   1.796   4.936 -0.6539 -0.9959 -2.0485
  176SAPS   C3720108   0.743   1.801   5.093 -0.4477  0.4878 -0.5111
  176SAPS   H7X20109   0.772   1.696   5.116  3.4818  1.6767  0.6241
  176SAPS   H7Y20110   0.637   1.822   5.118 -0.7237  0.5698 -1.6849
  176SAPS   C3820111   0.815   1.899   5.188 -0.1257  0.1312 -0.1148
  176SAPS   H8X20112   0.757   1.994   5.191  2.7172  2.0962 -1.9390
  176SAPS   H8Y20113   0.913   1.926   5.143 -0.5434 -0.0709 -1.1824
  176SAPS   C3920114   0.844   1.849   5.327 -0.0030  0.1401  0.3727
  176SAPS   H9X20115   0.753   1.788   5.340  1.1472 -2.4177 -2.3492
  176SAPS   H9Y20116   0.849   1.937   5.395  0.2290 -0.1596  0.7505
  176SAPS  C31020117   0.981   1.777   5.324 -0.5714  0.1009  0.0347
  176SAPS  H10X20118   1.070   1.834   5.291  0.6251 -2.6945 -1.8539
  176SAPS  H10Y20119   0.976   1.686   5.261 -0.6150 -0.4063  0.7609
  176SAPS  C31120120   1.014   1.713   5.466 -0.1832 -0.2216  0.0501
  176SAPS  H11X20121   1.069   1.618   5.445  4.6043  2.6681 -2.3540
  176SAPS  H11Y20122   0.917   1.692   5.515 -0.4820 -0.2481 -0.5409
  176SAPS  C31220123   1.093   1.801   5.563 -0.2430 -0.1468  1.4100
  176SAPS  H12X20124   1.032   1.893   5.577 -0.2404 -0.3873  3.1173
  176SAPS  H12Y20125   1.189   1.824   5.512 -2.5729 -0.2385 -3.6685
  176SAPS  C31320126   1.094   1.736   5.703 -0.4411  0.1218 -0.8751
  176SAPS  H13X20127   1.161   1.648   5.703  1.5488  1.5593  0.8969
  176SAPS  H13Y20128   0.991   1.711   5.737  0.5460  0.2549  2.5430
  176SAPS  C31420129   1.162   1.827   5.804 -0.1680 -0.2010  0.2921
  176SAPS  H14X20130   1.243   1.879   5.749  1.1233 -0.9691  1.4016
  176SAPS  H14Y20131   1.219   1.781   5.888  1.3171  4.5321  2.2394
  176SAPS  C31520132   1.078   1.937   5.869 -0.1040 -0.2279  0.0083
  176SAPS  H15X20133   1.014   1.996   5.800 -0.5740 -0.2651  0.4016
  176SAPS  H15Y20134   1.159   2.009   5.894 -2.1958  1.5249  2.2789
  176SAPS  C31620135   1.008   1.887   5.999 -0.0727 -0.5912 -0.2918
  176SAPS  H16X20136   1.088   1.848   6.065  1.1986  2.7321  0.3587
  176SAPS  H16Y20137   0.935   1.812   5.963  0.3317  0.8189 -4.6994
  176SAPS  C31720138   0.935   1.999   6.078  0.5979  0.0346  0.6676
  176SAPS  H17X20139   0.849   2.029   6.015  0.4878 -1.0581  0.2787
  176SAPS  H17Y20140   0.989   2.096   6.084 -1.4738  1.4487 -1.6141
  176SAPS  C31820141   0.881   1.970   6.215 -0.3205 -0.3413 -0.8862
  176SAPS  H18X20142   0.814   1.881   6.214 -2.3539  1.1038 -0.8066
  176SAPS  H18Y20143   0.832   2.060   6.259  1.1914  0.4843 -0.8443
  176SAPS  H18Z20144   0.964   1.948   6.285  2.0263  2.2002 -2.6882
  177SAPS     N20145   0.264   2.117   3.440  0.3977  0.1263 -0.3593
  177SAPS   HN120146   0.220   2.104   3.346 -0.2697  1.4282 -0.2506
  177SAPS   HN220147   0.208   2.191   3.487  1.1990  2.1163 -2.3403
  177SAPS   HN320148   0.352   2.169   3.425 -1.7196  3.5577 -2.2659
  177SAPS   C1220149   0.283   1.984   3.520 -0.0612 -1.0040  0.9008
  177SAPS  H12A20150   0.313   1.913   3.445  2.8981 -0.1049  1.0834
  177SAPS   C1320151   0.402   1.975   3.613 -0.1943  0.2825  0.0133
  177SAPS  O13A20152   0.480   2.074   3.638 -0.5454 -0.0734  0.4543
  177SAPS  O13B20153   0.439   1.868   3.670 -0.4519  0.3870  0.4057
  177SAPS   C1120154   0.157   1.932   3.603 -0.1503  0.8352 -0.0868
  177SAPS  H11A20155   0.127   1.999   3.687  0.1818 -1.0072  1.5836
  177SAPS  H11B20156   0.196   1.841   3.655 -1.4638  0.6473  0.6100
  177SAPS     P20157  -0.079   1.829   3.572  0.1064 -0.0358  0.1065
  177SAPS   O1320158  -0.182   1.932   3.598  0.0159 -0.7266  0.3684
  177SAPS   O1420159  -0.117   1.730   3.470 -0.0664 -0.4698  0.1172
  177SAPS   O1220160   0.049   1.902   3.514  0.1321 -0.2701  0.0806
  177SAPS   O1120161  -0.029   1.767   3.703 -0.5851 -0.1859  0.0244
  177SAPS    C120162   0.034   1.632   3.704 -0.2928 -0.3730  0.2884
  177SAPS    HA20163  -0.045   1.564   3.665 -0.3247  0.6621 -1.6218
  177SAPS    HB20164   0.124   1.629   3.639 -1.9531  0.6127 -2.2300
  177SAPS    C220165   0.092   1.582   3.840 -0.1595  0.8850 -0.0104
  177SAPS    HS20166   0.097   1.471   3.849 -0.6412  0.7303 -1.3460
  177SAPS   O2120167   0.011   1.628   3.955 -0.2218 -0.0876  0.2727
  177SAPS   C2120168  -0.112   1.589   3.958  0.7246  0.3631 -0.2403
  177SAPS   O2220169  -0.165   1.508   3.890  0.0078  0.3713  0.4924
  177SAPS   C2220170  -0.201   1.686   4.049  0.6772  0.4899 -0.5603
  177SAPS   H2R20171  -0.144   1.717   4.139 -0.2495  1.5503 -0.3284
  177SAPS   H2S20172  -0.221   1.775   3.985 -1.3882  0.3994 -0.0920
  177SAPS    C320173   0.235   1.632   3.862 -0.4376 -0.4733 -0.2199
  177SAPS    HX20174   0.222   1.740   3.884 -1.0346 -0.8871  1.5654
  177SAPS    HY20175   0.295   1.620   3.769 -0.8277  1.9275 -0.8564
  177SAPS   O3120176   0.299   1.560   3.977  0.4061  0.4190 -0.0240
  177SAPS   C3120177   0.407   1.606   4.027  0.3755  0.0811  0.2287
  177SAPS   O3220178   0.465   1.710   3.998 -0.0670 -0.6407 -0.1660
  177SAPS   C3220179   0.454   1.503   4.135  0.2478 -0.0891  0.3648
  177SAPS   H2X20180   0.537   1.443   4.093  1.1722 -0.3467  2.4717
  177SAPS   H2Y20181   0.367   1.449   4.176 -1.5325  0.9282 -1.8259
  177SAPS   C2320182  -0.331   1.610   4.093  0.6089  0.2845 -0.5210
  177SAPS   H3R20183  -0.379   1.572   4.001  2.9026 -1.3540 -1.1177
  177SAPS   H3S20184  -0.397   1.690   4.135  0.8229  0.7994 -1.1479
  177SAPS   C2420185  -0.325   1.500   4.201 -0.5346 -0.0359  0.5520
  177SAPS   H4R20186  -0.287   1.529   4.301  0.6072 -1.8725  0.6909
  177SAPS   H4S20187  -0.254   1.430   4.153  1.1797  1.5129  0.6916
  177SAPS   C2520188  -0.469   1.439   4.223 -0.3058  0.2831 -0.2141
  177SAPS   H5R20189  -0.529   1.448   4.131 -0.2041 -1.8004 -0.5474
  177SAPS   C2620190  -0.515   1.383   4.336 -0.3965  0.6178  0.0658
  177SAPS   H6R20191  -0.616   1.339   4.328 -1.8579  4.0028 -2.2570
  177SAPS   C2720192  -0.448   1.375   4.469  0.2188 -0.5853 -0.1999
  177SAPS   H7R20193  -0.340   1.366   4.449  0.2023 -2.4790  0.3431
  177SAPS   H7S20194  -0.469   1.273   4.510  2.3341 -0.2952  1.8201
  177SAPS   C2820195  -0.459   1.486   4.571 -0.3983 -0.1281  1.0689
  177SAPS   H8R20196  -0.406   1.579   4.544 -1.6356 -0.0477 -1.3703
  177SAPS   C2920197  -0.545   1.488   4.672 -0.4375 -0.3191 -0.2379
  177SAPS   H9R20198  -0.540   1.575   4.739  0.4457  0.0779 -0.8107
  177SAPS  C21020199  -0.636   1.381   4.726  0.1267  0.0673  0.8159
  177SAPS  H10R20200  -0.675   1.324   4.640 -0.9412  1.1324  0.5616
  177SAPS  H10S20201  -0.729   1.426   4.767  0.4668  1.5334  0.0677
  177SAPS  C21120202  -0.558   1.297   4.823  0.2168  0.1369  0.1234
  177SAPS  H11R20203  -0.450   1.313   4.810 -0.0116  0.6846 -1.1661
  177SAPS  C21220204  -0.604   1.206   4.912  0.4548  0.0689 -0.8315
  177SAPS  H12R20205  -0.529   1.157   4.975  1.1553  0.1521 -1.5780
  177SAPS  C21320206  -0.749   1.169   4.938 -1.0480 -0.1400  0.3427
  177SAPS  H13R20207  -0.791   1.140   4.839  0.5725  0.1239 -0.4606
  177SAPS  H13S20208  -0.814   1.256   4.960 -2.3838 -1.6398  2.7375
  177SAPS  C21420209  -0.767   1.074   5.054 -0.8147 -0.2087  0.7426
  177SAPS  H14R20210  -0.673   1.029   5.090  0.2304  0.6266 -0.8376
  177SAPS  C21520211  -0.879   1.044   5.128  1.0868  0.5014  0.1881
  177SAPS  H15R20212  -0.881   0.961   5.200 -0.2260  0.2103 -0.1457
  177SAPS  C21620213  -1.021   1.102   5.101  0.1213  0.1613 -0.1238
  177SAPS  H16R20214  -1.038   1.134   4.995  0.4486  0.6126 -0.0432
  177SAPS  H16S20215  -1.038   1.188   5.170 -0.7255  1.3686 -1.7620
  177SAPS  C21720216  -1.129   1.001   5.113  0.1517 -0.4895  0.6000
  177SAPS  H17R20217  -1.225   1.057   5.114  0.8502  0.8127  3.2029
  177SAPS  H17S20218  -1.134   0.959   5.216 -2.9227  0.5954  1.0236
  177SAPS  C21820219  -1.126   0.892   5.007  1.3414  0.7760  0.2952
  177SAPS  H18R20220  -1.231   0.853   5.008  0.9271  1.8508  1.5319
  177SAPS  H18S20221  -1.059   0.813   5.046  0.2907  0.0457  0.6766
  177SAPS  C21920222  -1.081   0.921   4.861  0.2044 -0.4378  0.4268
  177SAPS  H19R20223  -0.979   0.963   4.851 -0.2289  0.2241 -1.5353
  177SAPS  H19S20224  -1.155   0.992   4.819  0.2068  0.3578  1.6929
  177SAPS  C22020225  -1.084   0.790   4.784  0.3455 -0.1062  0.6188
  177SAPS  H20R20226  -1.028   0.705   4.829  0.4736 -1.4969 -2.0172
  177SAPS  H20S20227  -1.042   0.803   4.682 -1.0040  0.7821  0.1466
  177SAPS  H20T20228  -1.190   0.770   4.759  0.9767  0.5808 -3.0959
  177SAPS   C3320229   0.526   1.576   4.252  0.1705 -0.2699 -0.0686
  177SAPS   H3X20230   0.462   1.657   4.293 -1.6151 -1.1849 -0.9696
  177SAPS   H3Y20231   0.616   1.623   4.207 -0.2329  1.5979  0.9801
  177SAPS   C3420232   0.559   1.486   4.365 -0.2344  0.1090  0.3119
  177SAPS   H4X20233   0.622   1.538   4.440  0.9107 -0.4419 -0.2322
  177SAPS   H4Y20234   0.611   1.389   4.355  0.0422  0.0393  2.0805
  177SAPS   C3520235   0.426   1.448   4.441  0.8671  0.0058  0.0010
  177SAPS   H5X20236   0.370   1.377   4.375 -0.9982  1.6811 -0.3059
  177SAPS   H5Y20237   0.367   1.542   4.450 -0.8895 -1.0454  0.1136
  177SAPS   C3620238   0.463   1.377   4.574  0.8197 -0.5835 -0.3784
  177SAPS   H6X20239   0.487   1.447   4.657  1.2855 -1.8946  0.6303
  177SAPS   H6Y20240   0.549   1.307   4.569  0.3182 -1.1152 -1.9586
  177SAPS   C3720241   0.340   1.301   4.627 -0.5047  0.0958 -0.4838
  177SAPS   H7X20242   0.297   1.235   4.548  3.0709 -0.1763 -2.4089
  177SAPS   H7Y20243   0.273   1.388   4.647 -1.5766 -0.5196 -1.2617
  177SAPS   C3820244   0.354   1.238   4.766 -0.0346 -0.0367 -0.6615
  177SAPS   H8X20245   0.421   1.292   4.837 -0.3393 -1.1402  0.5093
  177SAPS   H8Y20246   0.396   1.141   4.732  1.5328  0.7171 -0.9842
  177SAPS   C3920247   0.216   1.215   4.835 -0.7838  0.2152  0.1911
  177SAPS   H9X20248   0.145   1.185   4.755 -0.1959 -1.9982  0.4432
  177SAPS   H9Y20249   0.187   1.315   4.874  1.0664  1.6079 -1.7486
  177SAPS  C31020250   0.219   1.097   4.936  0.2617  0.5106  0.1023
  177SAPS  H10X20251   0.265   1.009   4.887  0.8489  0.3589  0.9002
  177SAPS  H10Y20252   0.112   1.068   4.940  0.8008 -2.0340 -1.5172
  177SAPS  C31120253   0.269   1.143   5.064 -0.0061  0.0098 -0.2377
  177SAPS  H11X20254   0.306   1.248   5.072 -0.2360  0.2392 -1.7338
  177SAPS  H11Y20255   0.344   1.072   5.105 -2.7959 -1.6594  2.4103
  177SAPS  C31220256   0.164   1.142   5.174 -0.3733  0.5308 -0.5245
  177SAPS  H12X20257   0.133   1.035   5.173 -1.6837  0.7788  2.2255
  177SAPS  H12Y20258   0.077   1.199   5.136 -1.2295  0.3886  1.0928
  177SAPS  C31320259   0.202   1.199   5.312  0.2895  0.2654  0.4260
  177SAPS  H13X20260   0.209   1.308   5.290 -1.3354  0.2253 -0.4048
  177SAPS  H13Y20261   0.295   1.155   5.353  0.3107  0.8820  1.0575
  177SAPS  C31420262   0.093   1.172   5.412  0.3407 -0.1994  0.1207
  177SAPS  H14X20263   0.075   1.062   5.404 -0.7871 -0.0743  0.6936
  177SAPS  H14Y20264  -0.003   1.211   5.372  0.7350 -0.6991 -1.3708
  177SAPS  C31520265   0.116   1.206   5.560  0.3778  0.1830 -0.0091
  177SAPS  H15X20266   0.129   1.314   5.582 -2.3497  0.7613 -0.8238
  177SAPS  H15Y20267   0.209   1.157   5.595  0.1767  1.2099  2.0657
  177SAPS  C31620268  -0.001   1.153   5.649  0.2768 -0.3433  0.5698
  177SAPS  H16X20269  -0.033   1.053   5.614  0.2375  0.4801 -1.9923
  177SAPS  H16Y20270  -0.090   1.219   5.651  1.2194  1.2172 -2.4402
  177SAPS  C31720271   0.042   1.150   5.790  0.4490 -0.2139 -0.8535
  177SAPS  H17X20272   0.035   1.252   5.834 -0.9094  0.0411 -1.6024
  177SAPS  H17Y20273   0.144   1.107   5.799  1.6867  2.7971  1.9251
  177SAPS  C31820274  -0.050   1.061   5.874 -0.1640  0.5179 -0.0924
  177SAPS  H18X20275  -0.013   1.036   5.975 -0.4358  0.0855 -0.0980
  177SAPS  H18Y20276  -0.066   0.971   5.811 -0.3581  0.6341 -0.2125
  177SAPS  H18Z20277  -0.151   1.105   5.888 -0.8245 -0.6951 -0.8887
  178SAPS     N20278   2.576   5.148   3.425  0.2239  0.4577 -0.4227
  178SAPS   HN120279   2.679   5.136   3.415  0.6025  2.6493  0.2151
  178SAPS   HN220280   2.545   5.084   3.501 -2.5933  0.2311 -1.6807
  178SAPS   HN320281   2.519   5.114   3.346 -0.4207  0.6949 -0.0678
  178SAPS   C1220282   2.539   5.293   3.444  0.2353 -0.1401 -0.4405
  178SAPS  H12A20283   2.547   5.340   3.347  0.5749  1.1569  0.2037
  178SAPS   C1320284   2.392   5.304   3.494 -1.0781 -0.4836 -0.8014
  178SAPS  O13A20285   2.346   5.206   3.559 -0.2700  0.2104 -0.1441
  178SAPS  O13B20286   2.332   5.416   3.492 -0.3999  0.1438 -0.1584
  178SAPS   C1120287   2.634   5.369   3.542  0.2437  0.0036  0.2391
  178SAPS  H11A20288   2.636   5.311   3.637  0.4053  2.4274  1.7952
  178SAPS  H11B20289   2.599   5.469   3.573  0.5813 -0.6720  3.0774
  178SAPS     P20290   2.875   5.458   3.554 -0.1884  0.0553 -0.1362
  178SAPS   O1320291   3.003   5.457   3.476 -0.0562  0.0239 -0.1872
  178SAPS   O1420292   2.818   5.596   3.578  0.1439  0.3294 -0.3252
  178SAPS   O1220293   2.769   5.367   3.492 -0.3765  0.2131  0.2082
  178SAPS   O1120294   2.900   5.390   3.689 -0.1590 -0.0175  0.2803
  178SAPS    C120295   2.918   5.245   3.694 -0.5731  0.2848  0.4054
  178SAPS    HA20296   2.823   5.192   3.671 -0.7050  0.5354  0.3647
  178SAPS    HB20297   2.991   5.215   3.615  0.3641  1.2112  0.8970
  178SAPS    C220298   2.974   5.194   3.830  0.2321 -0.1041  0.0079
  178SAPS    HS20299   3.004   5.088   3.818 -0.0518 -0.4503  1.9872
  178SAPS   O2120300   2.881   5.225   3.937 -0.3791 -0.2993  0.4220
  178SAPS   C2120301   2.776   5.144   3.950 -0.4765  0.7214 -1.0514
  178SAPS   O2220302   2.751   5.052   3.869 -0.2968  0.1970 -0.4524
  178SAPS   C2220303   2.689   5.180   4.064 -0.1516  0.2004  0.6075
  178SAPS   H2R20304   2.645   5.281   4.047 -1.3199 -0.1974  1.1861
  178SAPS   H2S20305   2.605   5.108   4.065  1.1235 -1.3575  0.0420
  178SAPS    C320306   3.105   5.276   3.864 -0.9001 -0.1596  0.1949
  178SAPS    HX20307   3.086   5.385   3.854 -1.2569 -0.2334  0.0495
  178SAPS    HY20308   3.175   5.242   3.784 -1.3957 -0.9609  0.0962
  178SAPS   O3120309   3.159   5.234   3.989 -0.3918  0.3714  0.7674
  178SAPS   C3120310   3.128   5.304   4.087  0.1574  0.1948 -0.0380
  178SAPS   O3220311   3.086   5.420   4.079 -0.1995 -0.1956  0.6432
  178SAPS   C3220312   3.135   5.217   4.212 -0.3028 -0.2998  0.4151
  178SAPS   H2X20313   3.234   5.174   4.236  1.1754  2.6750  0.1826
  178SAPS   H2Y20314   3.058   5.141   4.189 -2.5731  1.7358  0.8454
  178SAPS   C2320315   2.757   5.190   4.206 -0.6152 -0.3908 -0.4843
  178SAPS   H3R20316   2.833   5.270   4.212 -0.1607 -0.8303 -0.2504
  178SAPS   H3S20317   2.811   5.095   4.230 -2.5068 -1.3103  0.2916
  178SAPS   C2420318   2.656   5.209   4.320 -0.2471  0.2143 -0.0818
  178SAPS   H4R20319   2.609   5.307   4.298 -2.4225 -0.7884 -0.1924
  178SAPS   H4S20320   2.717   5.220   4.412 -1.2033 -3.8135  1.2631
  178SAPS   C2520321   2.552   5.104   4.327 -0.5065 -0.0048  0.2495
  178SAPS   H5R20322   2.466   5.116   4.259  0.7529  0.9535 -1.2073
  178SAPS   C2620323   2.539   5.014   4.423  0.7195 -0.3887  0.0900
  178SAPS   H6R20324   2.454   4.943   4.421  0.4498 -0.1188  1.2515
  178SAPS   C2720325   2.624   4.987   4.536  0.1271  0.6091  0.5060
  178SAPS   H7R20326   2.728   5.020   4.516  0.7553 -0.7763  1.3779
  178SAPS   H7S20327   2.627   4.878   4.556  2.6037  0.8048  1.6246
  178SAPS   C2820328   2.561   5.049   4.657 -0.0412  0.2939 -0.1833
  178SAPS   H8R20329   2.467   5.105   4.646 -0.8697 -0.2076  3.2401
  178SAPS   C2920330   2.606   5.023   4.786 -0.0329  0.3409  0.5304
  178SAPS   H9R20331   2.571   5.080   4.873  1.5628  1.4768  0.4637
  178SAPS  C21020332   2.727   4.938   4.821  0.6378 -1.1485  0.6723
  178SAPS  H10R20333   2.801   5.013   4.855 -1.8375  2.6757 -1.6113
  178SAPS  H10S20334   2.779   4.907   4.728  0.0713  3.3289 -1.3956
  178SAPS  C21120335   2.677   4.839   4.919 -0.2285  0.2695  0.5524
  178SAPS  H11R20336   2.656   4.739   4.876 -1.5676  1.0251 -0.6241
  178SAPS  C21220337   2.663   4.857   5.049 -0.0509 -0.0956 -0.2371
  178SAPS  H12R20338   2.632   4.774   5.114  1.6008  1.0904  2.2583
  178SAPS  C21320339   2.683   4.986   5.128 -0.7586 -0.0133 -0.2052
  178SAPS  H13R20340   2.707   5.065   5.053  3.7158 -0.4955  0.4396
  178SAPS  H13S20341   2.768   4.963   5.196 -1.8888 -1.5172  0.7698
  178SAPS  C21420342   2.555   5.027   5.188 -0.3729  0.1540 -0.2316
  178SAPS  H14R20343   2.493   5.096   5.129 -1.2052  2.2815  2.9294
  178SAPS  C21520344   2.508   4.986   5.309 -0.1409  0.2646 -0.2301
  178SAPS  H15R20345   2.409   5.020   5.340 -0.1369 -1.5276  2.0197
  178SAPS  C21620346   2.576   4.885   5.399 -0.2459  0.2632 -0.4432
  178SAPS  H16R20347   2.583   4.929   5.501 -0.7031 -1.2133  0.2630
  178SAPS  H16S20348   2.678   4.845   5.379  0.2591  0.4147  1.5473
  178SAPS  C21720349   2.487   4.755   5.422  0.2872 -0.2932 -0.1719
  178SAPS  H17R20350   2.486   4.695   5.328 -0.6220 -1.3181  0.4611
  178SAPS  H17S20351   2.380   4.782   5.440 -0.7870 -2.0503 -3.0597
  178SAPS  C21820352   2.525   4.668   5.549  0.0948  0.7760 -0.0434
  178SAPS  H18R20353   2.633   4.645   5.540  0.0307  0.2537  0.4212
  178SAPS  H18S20354   2.478   4.571   5.526  1.7285  0.0457 -0.4369
  178SAPS  C21920355   2.487   4.732   5.684  0.4288  0.0829  0.3770
  178SAPS  H19R20356   2.385   4.774   5.669  0.4766  0.9619  2.2351
  178SAPS  H19S20357   2.556   4.816   5.707  2.1187 -1.1359 -0.0954
  178SAPS  C22020358   2.475   4.629   5.795 -0.3354 -0.0277 -0.4141
  178SAPS  H20R20359   2.401   4.550   5.773 -2.5249  1.7395  0.2583
  178SAPS  H20S20360   2.435   4.673   5.889  0.1866 -2.0904  0.8305
  178SAPS  H20T20361   2.574   4.580   5.807 -0.7544 -0.2386  3.4225
  178SAPS   C3320362   3.103   5.307   4.334  1.0492  0.0754  0.5739
  178SAPS   H3X20363   3.011   5.362   4.304  2.0694  1.0788 -0.8609
  178SAPS   H3Y20364   3.176   5.386   4.361 -0.4101  0.5022  3.7304
  178SAPS   C3420365   3.061   5.240   4.465  0.3867 -0.0316  0.1583
  178SAPS   H4X20366   2.964   5.191   4.440 -0.9116  2.0580  0.8752
  178SAPS   H4Y20367   3.041   5.319   4.540  2.0219  0.1691  0.4189
  178SAPS   C3520368   3.151   5.127   4.517  0.7646  0.2522 -0.2267
  178SAPS   H5X20369   3.257   5.160   4.519  0.5141  1.1461 -0.7236
  178SAPS   H5Y20370   3.141   5.049   4.438 -0.7612  0.3315 -0.1459
  178SAPS   C3620371   3.114   5.071   4.650 -0.4749 -0.2456  0.0273
  178SAPS   H6X20372   3.177   4.980   4.660  1.3098  0.9764  0.3884
  178SAPS   H6Y20373   3.012   5.028   4.645 -0.4791 -0.3270  0.7501
  178SAPS   C3720374   3.126   5.165   4.770  0.0921  0.7871 -0.3639
  178SAPS   H7X20375   3.089   5.108   4.858  1.7401 -0.6811 -0.5740
  178SAPS   H7Y20376   3.066   5.258   4.755 -0.5911  0.6032  1.0682
  178SAPS   C3820377   3.270   5.200   4.801 -0.1010 -0.1366  0.6295
  178SAPS   H8X20378   3.322   5.250   4.716 -1.3973  1.7345  0.8635
  178SAPS   H8Y20379   3.321   5.106   4.830  0.4268 -0.0782 -0.0857
  178SAPS   C3920380   3.277   5.309   4.913 -0.1763  0.1765 -0.6657
  178SAPS   H9X20381   3.206   5.393   4.897 -1.6002 -0.7044  0.7612
  178SAPS   H9Y20382   3.385   5.334   4.921  0.2535 -1.7366  0.0476
  178SAPS  C31020383   3.252   5.259   5.053 -0.3079  0.2891 -0.4865
  178SAPS  H10X20384   3.307   5.164   5.073 -0.2245  0.3049 -0.6454
  178SAPS  H10Y20385   3.144   5.237   5.064 -0.5157  1.1167 -0.8062
  178SAPS  C31120386   3.288   5.362   5.168 -0.1760 -0.6049 -0.5243
  178SAPS  H11X20387   3.216   5.447   5.168 -0.7683 -1.1040 -1.0082
  178SAPS  H11Y20388   3.393   5.398   5.158 -0.3211 -0.2767 -0.8916
  178SAPS  C31220389   3.273   5.296   5.304 -0.5282 -0.3659 -0.8612
  178SAPS  H12X20390   3.351   5.219   5.320 -1.1855 -1.0310 -0.8519
  178SAPS  H12Y20391   3.176   5.243   5.294 -1.6714  1.1303  1.2932
  178SAPS  C31320392   3.251   5.404   5.416 -0.0337  0.5444  0.3761
  178SAPS  H13X20393   3.217   5.344   5.503 -0.3809 -0.5627 -0.5013
  178SAPS  H13Y20394   3.166   5.472   5.391 -0.2735  0.7188  1.5738
  178SAPS  C31420395   3.372   5.490   5.451  0.0552  0.1330  0.1332
  178SAPS  H14X20396   3.407   5.532   5.354  0.9170  2.6453  1.4329
  178SAPS  H14Y20397   3.444   5.412   5.484  0.1411  0.1296 -0.0639
  178SAPS  C31520398   3.349   5.594   5.563 -0.1808  1.0584  0.2780
  178SAPS  H15X20399   3.292   5.678   5.519  1.2415  1.2653 -1.2684
  178SAPS  H15Y20400   3.449   5.637   5.586  0.3667 -0.4283  0.8372
  178SAPS  C31620401   3.286   5.539   5.702  0.7020  0.1545  1.2822
  178SAPS  H16X20402   3.188   5.494   5.674  1.6120 -1.7211  0.9712
  178SAPS  H16Y20403   3.283   5.632   5.763 -0.2471  1.5489 -0.7313
  178SAPS  C31720404   3.366   5.423   5.770  0.3318 -0.4773 -0.1111
  178SAPS  H17X20405   3.369   5.336   5.701  1.3775 -0.0821 -0.5960
  178SAPS  H17Y20406   3.308   5.387   5.857 -1.1991  0.9207 -0.5081
  178SAPS  C31820407   3.505   5.455   5.812 -0.1503 -0.4243  0.1154
  178SAPS  H18X20408   3.514   5.534   5.890 -0.3717  2.5274 -2.6350
  178SAPS  H18Y20409   3.574   5.486   5.730  2.9107 -0.3748  2.5119
  178SAPS  H18Z20410   3.553   5.366   5.858 -0.1925  1.2083  3.6509
  179SAPS     N20411   3.707   1.744   3.599  0.1704 -0.3445 -0.1727
  179SAPS   HN120412   3.735   1.665   3.660 -2.6353  0.2098  2.0211
  179SAPS   HN220413   3.624   1.786   3.644  1.6577  1.3910  1.0674
  179SAPS   HN320414   3.689   1.714   3.501 -1.2905  4.9196 -1.8393
  179SAPS   C1220415   3.819   1.849   3.600  0.3783 -0.0440 -0.8742
  179SAPS  H12A20416   3.856   1.852   3.701 -2.6423 -0.5050  0.3326
  179SAPS   C1320417   3.938   1.807   3.511  0.7212  0.1675 -0.8582
  179SAPS  O13A20418   3.929   1.708   3.435 -0.7745  0.7914 -0.4245
  179SAPS  O13B20419   4.050   1.863   3.532 -0.0458 -0.5728  0.8498
  179SAPS   C1120420   3.766   1.993   3.564  0.3436 -0.3525 -0.2770
  179SAPS  H11A20421   3.739   2.003   3.457 -0.6208  1.8121  0.1332
  179SAPS  H11B20422   3.855   2.057   3.580  0.1321 -0.3239  0.8855
  179SAPS     P20423   3.669   2.124   3.775  0.1696 -0.0233  0.0455
  179SAPS   O1320424   3.752   2.244   3.751 -0.0414 -0.5516  0.5999
  179SAPS   O1420425   3.537   2.145   3.833  0.1911  0.0157 -0.2253
  179SAPS   O1220426   3.658   2.040   3.641 -0.2367  0.2536 -0.1018
  179SAPS   O1120427   3.748   2.017   3.864 -0.6048 -0.5059 -0.1252
  179SAPS    C120428   3.681   1.924   3.948 -0.6920 -0.1439  0.9355
  179SAPS    HA20429   3.579   1.899   3.913 -0.7117  1.0331  0.1106
  179SAPS    HB20430   3.738   1.828   3.944 -0.9824 -0.3176  0.9662
  179SAPS    C220431   3.678   1.966   4.097 -0.1847  0.5533 -0.1127
  179SAPS    HS20432   3.621   2.061   4.107 -1.3340  0.1703 -2.4582
  179SAPS   O2120433   3.814   1.977   4.152  0.4983  0.3664  0.2884
  179SAPS   C2120434   3.859   2.099   4.160  0.3244 -0.3672 -0.6994
  179SAPS   O2220435   3.803   2.204   4.139 -0.0423  0.2694 -0.6377
  179SAPS   C2220436   4.003   2.087   4.213 -0.3080 -0.3766 -0.1602
  179SAPS   H2R20437   4.001   1.993   4.272  0.9081 -1.8183 -2.2710
  179SAPS   H2S20438   4.069   2.069   4.125 -1.1949 -2.9267 -0.4026
  179SAPS    C320439   3.596   1.863   4.191 -1.3595 -0.1812 -0.7041
  179SAPS    HX20440   3.664   1.775   4.195 -2.6837 -1.2011  0.1797
  179SAPS    HY20441   3.501   1.818   4.155 -1.7607 -1.6310  1.8873
  179SAPS   O3120442   3.585   1.915   4.322 -0.3273 -0.1289  0.2427
  179SAPS   C3120443   3.551   1.823   4.415 -0.1352 -0.1983 -0.3456
  179SAPS   O3220444   3.528   1.708   4.396  0.2656  0.5481 -0.6735
  179SAPS   C3220445   3.528   1.893   4.554  0.3179  0.0107 -0.2855
  179SAPS   H2X20446   3.443   1.963   4.550  0.1036 -0.1534  0.8798
  179SAPS   H2Y20447   3.614   1.957   4.583 -1.0379  0.6091  2.7766
  179SAPS   C2320448   4.032   2.217   4.295  0.1817  0.2536  0.9986
  179SAPS   H3R20449   3.937   2.273   4.310 -1.0240 -1.3860 -0.2165
  179SAPS   H3S20450   4.109   2.283   4.250  0.5955 -0.2435  0.9723
  179SAPS   C2420451   4.084   2.190   4.439  0.3277 -0.2740 -0.8559
  179SAPS   H4R20452   4.103   2.293   4.476  1.1959 -0.4516 -0.7863
  179SAPS   H4S20453   4.179   2.133   4.434  0.7215  0.3732 -0.9034
  179SAPS   C2520454   3.995   2.108   4.528  0.6433 -1.2138  0.7730
  179SAPS   H5R20455   4.036   2.007   4.539 -0.3167 -1.5692  1.1245
  179SAPS   C2620456   3.883   2.144   4.587 -0.6027  0.4908 -0.8660
  179SAPS   H6R20457   3.830   2.069   4.647 -0.1172  1.1740  0.4670
  179SAPS   C2720458   3.817   2.279   4.563  0.0591  0.1230 -0.5648
  179SAPS   H7R20459   3.880   2.355   4.511 -1.1599 -0.0625 -2.4122
  179SAPS   H7S20460   3.824   2.326   4.663 -0.9210  2.1193 -1.3778
  179SAPS   C2820461   3.677   2.272   4.504  0.6217  0.0827  0.7532
  179SAPS   H8R20462   3.675   2.241   4.399  1.2426 -1.3469  1.1355
  179SAPS   C2920463   3.562   2.276   4.576 -0.4602 -0.2518 -0.0679
  179SAPS   H9R20464   3.466   2.267   4.523  0.5919 -0.9952 -1.9517
  179SAPS  C21020465   3.549   2.290   4.725 -0.7195  0.1116  0.0910
  179SAPS  H10R20466   3.615   2.373   4.759  1.9460 -1.7128 -0.3273
  179SAPS  H10S20467   3.581   2.192   4.767  3.6465 -0.8827 -4.5641
  179SAPS  C21120468   3.417   2.319   4.784 -0.2114  0.3317  0.1251
  179SAPS  H11R20469   3.344   2.361   4.713  1.0034  2.2433 -0.0738
  179SAPS  C21220470   3.374   2.301   4.909  1.0467  0.6656  0.1262
  179SAPS  H12R20471   3.268   2.310   4.935  0.5337 -3.7365  0.3029
  179SAPS  C21320472   3.451   2.240   5.022  0.3109 -0.1628 -1.1337
  179SAPS  H13R20473   3.542   2.180   5.000  1.2438  0.9823 -0.5724
  179SAPS  H13S20474   3.390   2.160   5.070  0.2926 -0.9219 -2.3994
  179SAPS  C21420475   3.478   2.352   5.131 -0.1083 -0.2263 -0.3447
  179SAPS  H14R20476   3.502   2.453   5.097 -0.8264 -0.2696 -1.0154
  179SAPS  C21520477   3.485   2.335   5.265 -0.5753 -0.0717  0.9677
  179SAPS  H15R20478   3.484   2.426   5.327 -0.3537  0.3964  0.2951
  179SAPS  C21620479   3.447   2.209   5.333 -0.2849  0.4297  0.3178
  179SAPS  H16R20480   3.520   2.131   5.302  0.7735  2.0293 -1.4940
  179SAPS  H16S20481   3.352   2.190   5.280 -0.2529  1.5649 -0.1810
  179SAPS  C21720482   3.414   2.226   5.479 -0.0590  0.0735 -0.0222
  179SAPS  H17R20483   3.336   2.300   5.507  0.1744  0.1407  0.4580
  179SAPS  H17S20484   3.506   2.266   5.527 -0.6137 -0.6125  1.6838
  179SAPS  C21820485   3.351   2.101   5.546  0.4221  0.7135  0.1187
  179SAPS  H18R20486   3.425   2.018   5.542 -1.2515 -0.8615  0.4545
  179SAPS  H18S20487   3.267   2.082   5.475 -0.5063  1.0575  1.0946
  179SAPS  C21920488   3.309   2.118   5.687 -0.2478 -0.3554 -0.0828
  179SAPS  H19R20489   3.238   2.201   5.704 -1.2117 -0.8904 -1.2975
  179SAPS  H19S20490   3.408   2.132   5.735  0.1527  1.3720 -1.3018
  179SAPS  C22020491   3.244   1.993   5.749  0.0788 -0.0088  0.1280
  179SAPS  H20R20492   3.148   1.984   5.693 -0.3212 -1.4103  1.0036
  179SAPS  H20S20493   3.220   2.008   5.856 -1.6737 -3.0894  0.2934
  179SAPS  H20T20494   3.312   1.908   5.726  1.2384  0.9418 -0.0970
  179SAPS   C3320495   3.489   1.792   4.670 -0.3841  0.7768 -0.1494
  179SAPS   H3X20496   3.569   1.717   4.684 -2.6685 -1.9333 -0.6247
  179SAPS   H3Y20497   3.399   1.728   4.657 -0.2159  0.5321 -0.1137
  179SAPS   C3420498   3.473   1.863   4.805  0.3361 -0.1469  0.2847
  179SAPS   H4X20499   3.415   1.958   4.792  2.1117  1.0192  0.5318
  179SAPS   H4Y20500   3.572   1.897   4.841  1.3387 -2.1576 -0.4606
  179SAPS   C3520501   3.416   1.780   4.920  0.1552 -0.1599  0.5707
  179SAPS   H5X20502   3.480   1.690   4.933 -1.3368 -1.6336 -1.6173
  179SAPS   H5Y20503   3.316   1.746   4.886  0.0766 -0.1655  0.8000
  179SAPS   C3620504   3.405   1.856   5.051  0.3390  0.6370  0.1877
  179SAPS   H6X20505   3.359   1.952   5.018 -1.9311 -0.2851  0.4848
  179SAPS   H6Y20506   3.510   1.864   5.084  1.2040 -1.4181 -1.8143
  179SAPS   C3720507   3.319   1.774   5.155 -0.3721 -0.4099 -0.7966
  179SAPS   H7X20508   3.343   1.665   5.157  0.4348 -0.3475  4.2394
  179SAPS   H7Y20509   3.210   1.783   5.135 -0.5657  1.8436  0.9252
  179SAPS   C3820510   3.355   1.817   5.296  0.2389  0.1373 -0.0740
  179SAPS   H8X20511   3.321   1.920   5.317  2.0601  0.8828 -0.5414
  179SAPS   H8Y20512   3.465   1.806   5.307  0.0892 -0.1468  1.2840
  179SAPS   C3920513   3.301   1.725   5.411 -0.4229  0.3975 -0.6424
  179SAPS   H9X20514   3.344   1.748   5.510  0.5249  1.6716 -1.3290
  179SAPS   H9Y20515   3.337   1.623   5.385  0.0726 -0.5494  3.1999
  179SAPS  C31020516   3.149   1.732   5.433  0.3775 -0.1111  0.2945
  179SAPS  H10X20517   3.095   1.717   5.337 -2.1669  1.6510  1.3338
  179SAPS  H10Y20518   3.120   1.835   5.464 -1.8737 -1.1720  2.0465
  179SAPS  C31120519   3.086   1.637   5.537  0.2795 -0.0017 -0.4147
  179SAPS  H11X20520   3.134   1.658   5.635 -0.7054  1.4213 -0.2098
  179SAPS  H11Y20521   3.122   1.533   5.519  0.6285  0.0490 -0.0227
  179SAPS  C31220522   2.930   1.647   5.548 -0.0544 -0.5043  0.3730
  179SAPS  H12X20523   2.872   1.623   5.456 -1.0963  0.1240  0.8344
  179SAPS  H12Y20524   2.895   1.751   5.569  0.2423 -0.2504 -0.3551
  179SAPS  C31320525   2.870   1.535   5.641 -0.1047 -0.4944 -0.4004
  179SAPS  H13X20526   2.899   1.434   5.606  0.0535 -0.6873  0.2711
  179SAPS  H13Y20527   2.759   1.540   5.638 -0.1284 -1.3966 -1.7675
  179SAPS  C31420528   2.917   1.551   5.791  0.1859  0.5644 -0.0541
  179SAPS  H14X20529   3.023   1.586   5.790 -0.0105  1.1922 -1.4408
  179SAPS  H14Y20530   2.916   1.446   5.825  1.6727  0.8206  0.8715
  179SAPS  C31520531   2.824   1.627   5.890 -0.0698  0.0255  0.9904
  179SAPS  H15X20532   2.724   1.583   5.907  0.0741 -1.2194 -1.0191
  179SAPS  H15Y20533   2.805   1.728   5.848 -2.4035 -1.2927 -1.4641
  179SAPS  C31620534   2.892   1.630   6.029 -0.1416  0.0050 -0.5156
  179SAPS  H16X20535   2.973   1.705   6.017 -0.5031  0.3021 -1.1721
  179SAPS  H16Y20536   2.933   1.530   6.054 -0.1414  0.1632  0.1272
  179SAPS  C31720537   2.805   1.666   6.147  0.0491  0.3387 -0.3877
  179SAPS  H17X20538   2.710   1.608   6.140 -0.2342  0.7291  0.0868
  179SAPS  H17Y20539   2.756   1.765   6.130 -0.9741 -0.2395 -0.8931
  179SAPS  C31820540   2.864   1.639   6.283 -0.1887  0.0687 -0.2402
  179SAPS  H18X20541   2.786   1.632   6.362 -0.1474 -2.2271 -0.3436
  179SAPS  H18Y20542   2.950   1.702   6.314 -0.6699  0.5976  0.0349
  179SAPS  H18Z20543   2.912   1.539   6.282  2.0816  1.0868 -1.0630
  180SAPS     N20544   4.444   2.019   3.825  0.2116  0.5502 -0.0003
  180SAPS   HN120545   4.370   2.008   3.752 -0.2053 -1.9825  0.7317
  180SAPS   HN220546   4.471   1.924   3.857  0.0611  0.0532 -1.2981
  180SAPS   HN320547   4.411   2.082   3.901  1.1401  1.0097  0.0336
  180SAPS   C1220548   4.565   2.085   3.761 -0.5411 -1.0262  0.6556
  180SAPS  H12A20549   4.593   2.008   3.691  0.7502 -0.6261  0.6998
  180SAPS   C1320550   4.538   2.216   3.689 -0.4353 -0.3099 -0.4198
  180SAPS  O13A20551   4.415   2.252   3.683 -0.6117 -0.0915  0.2408
  180SAPS  O13B20552   4.623   2.282   3.632 -0.2583  0.1944 -0.3312
  180SAPS   C1120553   4.680   2.123   3.858  0.7122 -0.2315  0.3109
  180SAPS  H11A20554   4.644   2.200   3.929 -0.9618 -1.1464  0.5122
  180SAPS  H11B20555   4.757   2.171   3.795 -1.0135  2.8469  0.3630
  180SAPS     P20556   4.872   2.006   3.992  0.3098 -0.0059  0.0195
  180SAPS   O1320557   4.867   1.905   4.095  0.0634  0.0437 -0.2735
  180SAPS   O1420558   4.972   1.997   3.880  0.0176  0.3139 -0.3343
  180SAPS   O1220559   4.730   2.003   3.913 -0.0268 -0.2981 -0.7325
  180SAPS   O1120560   4.878   2.147   4.066 -0.4584  0.1926 -0.0842
  180SAPS    C120561   4.778   2.189   4.154  0.4863 -0.7047  0.1401
  180SAPS    HA20562   4.759   2.298   4.148 -0.1492 -0.8615 -1.0534
  180SAPS    HB20563   4.682   2.143   4.123  1.8850 -2.2995 -2.1343
  180SAPS    C220564   4.806   2.152   4.301  1.1008 -0.1644 -0.8284
  180SAPS    HS20565   4.805   2.042   4.316  1.7060 -0.4064 -2.4121
  180SAPS   O2120566   4.718   2.224   4.393  0.4077  0.4833  0.0734
  180SAPS   C2120567   4.600   2.170   4.402 -0.3815 -1.0900  0.8842
  180SAPS   O2220568   4.556   2.074   4.341 -0.8103  0.5086  0.3622
  180SAPS   C2220569   4.514   2.246   4.500 -1.3882  0.1104  0.0998
  180SAPS   H2R20570   4.558   2.345   4.525 -0.5586 -0.0615 -0.6322
  180SAPS   H2S20571   4.415   2.263   4.454 -2.3928 -0.1826  2.0659
  180SAPS    C320572   4.948   2.183   4.333  1.0582  0.2979 -0.1795
  180SAPS    HX20573   4.955   2.294   4.338  1.4920  0.2614  0.0901
  180SAPS    HY20574   5.018   2.145   4.255 -0.4204  0.6061 -1.7230
  180SAPS   O3120575   4.985   2.119   4.454  0.6927 -0.2520 -0.5499
  180SAPS   C3120576   5.048   2.203   4.543 -0.3250 -0.2678 -0.0192
  180SAPS   O3220577   5.087   2.314   4.517 -0.1702 -0.9758 -0.5806
  180SAPS   C3220578   5.039   2.150   4.685  0.5256  0.0396  0.3931
  180SAPS   H2X20579   5.129   2.090   4.711  0.3706 -1.2835 -1.8618
  180SAPS   H2Y20580   4.952   2.082   4.693  1.8233 -1.8760 -0.9663
  180SAPS   C2320581   4.486   2.154   4.619  0.1785  0.0077  0.3874
  180SAPS   H3R20582   4.463   2.052   4.583 -1.4718  0.1518  0.9707
  180SAPS   H3S20583   4.397   2.205   4.662  0.4160  0.2171  0.6360
  180SAPS   C2420584   4.600   2.163   4.718  0.2116  0.7302 -0.3450
  180SAPS   H4R20585   4.603   2.263   4.767 -0.4245  0.8653 -0.5691
  180SAPS   H4S20586   4.695   2.156   4.661 -0.5371  0.8173 -1.6367
  180SAPS   C2520587   4.561   2.062   4.826  1.1480  0.2944  0.2456
  180SAPS   H5R20588   4.529   1.964   4.788 -3.0247  1.9889 -1.1570
  180SAPS   C2620589   4.550   2.075   4.964 -0.0554 -0.1867 -0.2443
  180SAPS   H6R20590   4.518   1.987   5.022  0.3655  0.3030  0.7402
  180SAPS   C2720591   4.582   2.208   5.027  0.0510 -0.4581  0.0980
  180SAPS   H7R20592   4.504   2.284   5.004  0.4711  0.8196  2.5632
  180SAPS   H7S20593   4.674   2.255   4.984  0.5966 -1.6800 -0.1187
  180SAPS   C2820594   4.601   2.193   5.175 -0.1189  0.2532 -0.1902
  180SAPS   H8R20595   4.689   2.143   5.218  1.6527  1.8699 -1.7630
  180SAPS   C2920596   4.517   2.235   5.276  0.5001  0.1182  0.7214
  180SAPS   H9R20597   4.560   2.226   5.377  3.4020 -1.5083 -0.5418
  180SAPS  C21020598   4.389   2.315   5.260  0.4373  0.2796  0.8898
  180SAPS  H10R20599   4.352   2.335   5.157 -0.0595 -0.1359  0.9852
  180SAPS  H10S20600   4.395   2.418   5.302  0.4783  1.7469 -2.3637
  180SAPS  C21120601   4.280   2.234   5.324 -0.1056 -0.0449 -1.0446
  180SAPS  H11R20602   4.212   2.172   5.263 -3.4241  0.4915  1.7609
  180SAPS  C21220603   4.256   2.253   5.460  0.5112 -0.7179  0.7310
  180SAPS  H12R20604   4.180   2.196   5.514  1.5617 -0.1387  2.9379
  180SAPS  C21320605   4.334   2.337   5.567  0.2740  0.6789  0.0152
  180SAPS  H13R20606   4.421   2.394   5.528  1.3690  0.3754  1.8845
  180SAPS  H13S20607   4.377   2.254   5.628  1.1870 -0.7072 -2.3622
  180SAPS  C21420608   4.246   2.435   5.642  0.1043  0.0632 -0.0163
  180SAPS  H14R20609   4.216   2.527   5.590 -0.3300  0.3467  0.7203
  180SAPS  C21520610   4.185   2.412   5.760 -0.0847  0.5109  0.9321
  180SAPS  H15R20611   4.114   2.480   5.809 -0.3817  0.3731  0.6972
  180SAPS  C21620612   4.209   2.298   5.852 -0.3323 -0.1457 -0.3330
  180SAPS  H16R20613   4.258   2.211   5.803 -1.7150  0.2073 -2.4843
  180SAPS  H16S20614   4.114   2.251   5.883 -0.6971  0.0970 -1.0592
  180SAPS  C21720615   4.288   2.332   5.979  0.0394  0.2932  0.0368
  180SAPS  H17R20616   4.277   2.247   6.049  2.0447 -0.3057 -0.3055
  180SAPS  H17S20617   4.242   2.413   6.040  0.7488  0.2439  0.6414
  180SAPS  C21820618   4.441   2.335   5.945  0.3853 -0.3180  0.1363
  180SAPS  H18R20619   4.453   2.427   5.883 -0.9098 -1.3365 -1.7276
  180SAPS  H18S20620   4.470   2.254   5.874  1.7319 -0.6551  1.0370
  180SAPS  C21920621   4.537   2.320   6.064  0.0795  0.5597  0.1034
  180SAPS  H19R20622   4.500   2.231   6.119  1.6598  2.0556  3.8674
  180SAPS  H19S20623   4.512   2.412   6.121 -0.8181  0.2049  0.2935
  180SAPS  C22020624   4.688   2.306   6.020  0.3240 -0.2386  0.3240
  180SAPS  H20R20625   4.690   2.246   5.926 -0.8548 -0.3647  0.3623
  180SAPS  H20S20626   4.717   2.409   5.990  0.9910 -0.0661  1.5057
  180SAPS  H20T20627   4.747   2.267   6.106 -2.8050 -1.2501  2.1788
  180SAPS   C3320628   5.026   2.251   4.815 -0.3387  0.2721  0.3504
  180SAPS   H3X20629   4.944   2.323   4.795 -0.0292  0.9417  1.4149
  180SAPS   H3Y20630   5.127   2.297   4.810 -0.5433  1.0818  2.5403
  180SAPS   C3420631   5.020   2.169   4.949  0.2725  0.0180 -0.0005
  180SAPS   H4X20632   5.117   2.121   4.975 -0.8913 -2.2560  0.4070
  180SAPS   H4Y20633   4.944   2.088   4.940  1.4787 -1.0218 -1.2539
  180SAPS   C3520634   4.982   2.258   5.071 -0.1403  0.4645 -0.2382
  180SAPS   H5X20635   4.875   2.283   5.058  0.1317  2.3142  0.8073
  180SAPS   H5Y20636   5.044   2.350   5.077  0.0731  0.2133  3.1028
  180SAPS   C3620637   4.983   2.189   5.205 -0.2381 -0.3309 -0.5176
  180SAPS   H6X20638   5.091   2.164   5.218 -0.4907 -0.2756  2.3592
  180SAPS   H6Y20639   4.926   2.094   5.207  1.4452 -1.4223  1.9865
  180SAPS   C3720640   4.935   2.274   5.327  0.1981  1.1133  0.1723
  180SAPS   H7X20641   4.947   2.211   5.418 -1.8834 -1.2811 -1.0665
  180SAPS   H7Y20642   4.825   2.285   5.315  0.2171  0.4992 -0.6382
  180SAPS   C3820643   5.001   2.407   5.346 -0.5559 -0.1610  0.4722
  180SAPS   H8X20644   4.974   2.486   5.273 -1.5326  0.1002  1.1034
  180SAPS   H8Y20645   5.110   2.386   5.336 -0.3217  1.6773 -1.8904
  180SAPS   C3920646   4.980   2.458   5.492 -0.7374  0.2257 -0.5189
  180SAPS   H9X20647   5.058   2.535   5.510 -0.4822  0.0262 -0.7422
  180SAPS   H9Y20648   4.988   2.369   5.558 -2.0651  0.9988  0.7243
  180SAPS  C31020649   4.853   2.535   5.521  0.4178  0.4161  0.0968
  180SAPS  H10X20650   4.765   2.474   5.493 -1.3590  2.9147 -0.0821
  180SAPS  H10Y20651   4.848   2.625   5.456  0.7235 -0.8029 -1.6698
  180SAPS  C31120652   4.834   2.556   5.669 -0.3189  0.2320 -0.7484
  180SAPS  H11X20653   4.926   2.612   5.693 -0.8696  1.2456 -0.9274
  180SAPS  H11Y20654   4.826   2.464   5.730 -0.7224 -0.2006 -1.4444
  180SAPS  C31220655   4.715   2.644   5.688  0.4053 -0.3502 -0.4250
  180SAPS  H12X20656   4.630   2.595   5.637  0.7760 -0.9165 -0.5145
  180SAPS  H12Y20657   4.737   2.744   5.644 -1.7042 -0.3359 -1.5389
  180SAPS  C31320658   4.685   2.667   5.840 -0.8073  0.1981  1.1101
  180SAPS  H13X20659   4.774   2.691   5.902  0.5685 -0.4015 -0.5480
  180SAPS  H13Y20660   4.642   2.575   5.884 -0.5570  0.2472  1.4611
  180SAPS  C31420661   4.576   2.763   5.868  0.5792 -0.1421  0.1580
  180SAPS  H14X20662   4.535   2.757   5.971  0.2673 -0.4566  0.0193
  180SAPS  H14Y20663   4.487   2.735   5.806  0.3005 -0.3901  0.6652
  180SAPS  C31520664   4.605   2.908   5.832  0.5377  0.0747 -0.1003
  180SAPS  H15X20665   4.617   2.925   5.723 -2.6938 -1.2409 -0.7783
  180SAPS  H15Y20666   4.695   2.938   5.891 -0.5335  0.4251  1.4064
  180SAPS  C31620667   4.497   3.014   5.876 -0.6252 -0.2236 -0.3272
  180SAPS  H16X20668   4.542   3.107   5.835 -0.6867 -0.6382 -1.3607
  180SAPS  H16Y20669   4.486   3.019   5.986 -0.7248 -1.0098 -0.2963
  180SAPS  C31720670   4.350   2.997   5.818  0.3700  0.2191  0.1645
  180SAPS  H17X20671   4.294   2.925   5.881 -0.6359  0.0738 -0.8700
  180SAPS  H17Y20672   4.347   2.951   5.717  0.1969 -0.4925  0.4911
  180SAPS  C31820673   4.278   3.129   5.809 -0.2472  1.3548  0.0231
  180SAPS  H18X20674   4.171   3.112   5.784 -0.3149 -0.6736  1.4733
  180SAPS  H18Y20675   4.333   3.190   5.734 -0.4081  0.7406 -0.6074
  180SAPS  H18Z20676   4.288   3.182   5.906  1.1107  2.0216 -0.4529
  181POPC     N20677   2.797   4.702   8.314 -0.0577  0.3719 -0.6078
  181POPC   C1220678   2.850   4.641   8.187  1.0535  0.0856 -0.1867
  181POPC  H12A20679   2.955   4.667   8.182  1.0478 -0.0783 -1.2890
  181POPC  H12B20680   2.803   4.695   8.106  0.6569  1.2920  0.8005
  181POPC   C1320681   2.654   4.706   8.324  0.4166 -0.0012  0.2285
  181POPC  H13A20682   2.611   4.607   8.317  1.1422 -0.6110  3.0776
  181POPC  H13B20683   2.620   4.744   8.419  0.5750 -0.0640  0.3113
  181POPC  H13C20684   2.611   4.777   8.255 -0.0516 -0.5482 -0.0461
  181POPC   C1420685   2.851   4.626   8.434  0.4333 -0.2390 -0.2685
  181POPC  H14A20686   2.817   4.657   8.532  0.0600  1.3601 -0.8690
  181POPC  H14B20687   2.811   4.526   8.430 -0.6415  0.1266  0.7312
  181POPC  H14C20688   2.957   4.609   8.434  0.3421 -0.8889  0.7269
  181POPC   C1520689   2.853   4.842   8.326  0.1994  0.5814 -0.7755
  181POPC  H15A20690   2.959   4.838   8.342 -0.0732 -0.9801  0.9416
  181POPC  H15B20691   2.829   4.868   8.428 -1.9195 -1.2004 -0.7374
  181POPC  H15C20692   2.820   4.904   8.244  0.5290  0.9364 -0.6381
  181POPC   C1120693   2.828   4.499   8.147  0.2453  0.5144  0.1542
  181POPC  H11A20694   2.847   4.478   8.039 -3.0540  0.0185 -0.4472
  181POPC  H11B20695   2.723   4.475   8.175  0.7027 -1.8536  0.0430
  181POPC     P20696   3.056   4.400   8.217  0.2853  0.3442  0.1626
  181POPC   O1320697   3.087   4.283   8.131 -0.6292 -0.3268  0.2879
  181POPC   O1420698   3.098   4.410   8.360 -0.6162 -0.2067  0.2688
  181POPC   O1220699   2.903   4.412   8.227  0.3416  0.4484  0.0154
  181POPC   O1120700   3.093   4.534   8.136 -0.1055 -0.7178  0.2884
  181POPC    C120701   3.228   4.553   8.092 -0.9565 -0.0354 -0.3237
  181POPC    HA20702   3.299   4.499   8.159  0.5350 -1.5044 -2.9140
  181POPC    HB20703   3.249   4.662   8.093 -0.4866 -0.1217 -0.3955
  181POPC    C220704   3.262   4.489   7.950  0.1811 -0.4523 -0.5574
  181POPC    HS20705   3.238   4.382   7.965  0.8163 -0.2473  2.7371
  181POPC   O2120706   3.402   4.505   7.924 -0.0232 -0.1478 -0.5227
  181POPC   C2120707   3.467   4.408   7.860  0.9054 -0.2335  0.0767
  181POPC   O2220708   3.415   4.302   7.830  0.2205 -0.4033  0.1847
  181POPC   C2220709   3.611   4.454   7.838 -0.4847  1.0151 -0.4752
  181POPC   H2R20710   3.660   4.420   7.932  0.0861 -1.6449 -1.6391
  181POPC   H2S20711   3.601   4.564   7.827 -1.7533  1.0604  0.9191
  181POPC    C320712   3.158   4.538   7.850  0.3197  0.1948  0.4693
  181POPC    HX20713   3.193   4.643   7.835 -1.1855  0.6667  0.1366
  181POPC    HY20714   3.059   4.550   7.898  0.5664 -0.5542  1.1813
  181POPC   O3120715   3.150   4.454   7.735  0.1949 -0.0450  0.1142
  181POPC   C3120716   3.041   4.373   7.727 -0.3585  0.3936  1.0767
  181POPC   O3220717   2.948   4.372   7.805  0.5562  0.3224  0.1346
  181POPC   C3220718   3.048   4.282   7.602  0.3366 -0.3424  0.2467
  181POPC   H2X20719   2.944   4.284   7.562  1.2025 -1.6915 -2.3180
  181POPC   H2Y20720   3.063   4.179   7.642 -1.8599 -0.9646 -0.3834
  181POPC   C2320721   3.701   4.389   7.726 -0.7331  0.1512  0.0130
  181POPC   H3R20722   3.718   4.284   7.757 -0.0258  0.1912 -0.2234
  181POPC   H3S20723   3.799   4.441   7.721 -0.4151 -0.5056 -0.8920
  181POPC   C2420724   3.643   4.387   7.585  0.6374  0.6518  0.0269
  181POPC   H4R20725   3.668   4.486   7.541 -0.5249  0.6682 -0.6336
  181POPC   H4S20726   3.533   4.375   7.591  0.7353  0.1105  0.8131
  181POPC   C2520727   3.699   4.274   7.491 -0.6328  0.4439 -0.8167
  181POPC   H5R20728   3.652   4.178   7.520 -2.4490  1.8416  1.1611
  181POPC   H5S20729   3.809   4.274   7.505 -0.9790  2.1089  3.2026
  181POPC   C2620730   3.671   4.315   7.348  0.2293 -0.0346  0.0599
  181POPC   H6R20731   3.696   4.423   7.347 -0.5491  0.3283  3.9694
  181POPC   H6S20732   3.564   4.302   7.319  1.3298 -2.4215 -3.5254
  181POPC   C2720733   3.753   4.238   7.251 -0.1197  0.0693  0.0767
  181POPC   H7R20734   3.735   4.129   7.259 -0.0405 -0.0629 -1.3094
  181POPC   H7S20735   3.854   4.266   7.289 -0.9238  1.3024  1.4342
  181POPC   C2820736   3.736   4.293   7.108 -0.6269  0.1050  0.1259
  181POPC   H8R20737   3.760   4.402   7.109  1.1074 -0.2008 -2.0175
  181POPC   H8S20738   3.636   4.296   7.060 -0.8894  2.8795  0.6368
  181POPC   C2920739   3.836   4.234   7.012 -0.0071 -0.4110  0.1978
  181POPC   H9120740   3.939   4.273   7.013 -0.7565  1.7264 -0.4795
  181POPC  C21020741   3.807   4.143   6.918  0.5578  0.9314 -0.0440
  181POPC  H10120742   3.885   4.105   6.850  0.1492 -0.9186  0.4642
  181POPC  C21120743   3.670   4.072   6.892 -0.3719 -0.3957 -0.6112
  181POPC  H11R20744   3.590   4.146   6.913  0.8938  0.6412  0.8381
  181POPC  H11S20745   3.652   3.985   6.960 -0.6388 -0.6128 -0.9583
  181POPC  C21220746   3.638   4.024   6.752  0.6502 -0.4825  0.5026
  181POPC  H12R20747   3.532   3.993   6.736  0.7170 -0.6769  0.4334
  181POPC  H12S20748   3.703   3.937   6.729  0.8875 -0.2375  0.2493
  181POPC  C21320749   3.657   4.130   6.638  0.1063 -0.2737  0.0344
  181POPC  H13R20750   3.762   4.162   6.654 -0.2551  0.0055  2.2091
  181POPC  H13S20751   3.600   4.223   6.658 -0.6780 -0.5943 -0.6319
  181POPC  C21420752   3.646   4.070   6.492  0.1738 -0.2509  0.0697
  181POPC  H14R20753   3.536   4.057   6.482  0.3331 -0.0355 -2.6266
  181POPC  H14S20754   3.704   3.975   6.491  0.8541  0.1451 -1.3479
  181POPC  C21520755   3.694   4.168   6.383 -0.7799 -0.4530  0.1243
  181POPC  H15R20756   3.803   4.184   6.399 -0.1830 -1.5716 -2.3223
  181POPC  H15S20757   3.653   4.271   6.394  0.1540  0.1665 -1.7556
  181POPC  C21620758   3.688   4.134   6.232 -0.5483  0.2692 -0.1285
  181POPC  H16R20759   3.585   4.109   6.202  0.1191 -0.4688 -1.9490
  181POPC  H16S20760   3.755   4.049   6.207 -0.7019 -0.0464  0.5335
  181POPC  C21720761   3.724   4.260   6.146  0.2639 -0.0992  1.3113
  181POPC  H17R20762   3.753   4.215   6.048 -2.8978  2.3251 -0.9299
  181POPC  H17S20763   3.808   4.315   6.194 -0.7444  2.3508  0.4017
  181POPC  C21820764   3.606   4.351   6.121 -0.2252  0.2122  0.0933
  181POPC  H18R20765   3.537   4.343   6.207 -1.5604  3.4849 -0.5029
  181POPC  H18S20766   3.550   4.316   6.032  1.5073 -2.0345 -0.1965
  181POPC  H18T20767   3.639   4.457   6.108 -0.4582  0.2851  0.0987
  181POPC   C3320768   3.153   4.324   7.493 -0.3722  0.9981 -0.1828
  181POPC   H3X20769   3.253   4.321   7.540  1.1198  1.9453 -3.1143
  181POPC   H3Y20770   3.123   4.425   7.459 -2.0387  0.7579  0.4283
  181POPC   C3420771   3.138   4.224   7.381  0.3324  0.2048 -0.5311
  181POPC   H4X20772   3.039   4.240   7.333  1.4546  1.0137 -2.7208
  181POPC   H4Y20773   3.144   4.125   7.431  1.6613  1.2986  1.6293
  181POPC   C3520774   3.241   4.244   7.269 -0.2090  0.9205 -0.1167
  181POPC   H5X20775   3.345   4.212   7.291 -0.2765  1.0679  0.4383
  181POPC   H5Y20776   3.253   4.354   7.259  2.5846  1.3485  4.7932
  181POPC   C3620777   3.187   4.181   7.141 -0.2591 -0.0622  0.9222
  181POPC   H6X20778   3.078   4.200   7.130 -0.0182  0.2511 -1.4040
  181POPC   H6Y20779   3.207   4.073   7.152  0.1920 -0.1733 -0.8049
  181POPC   C3720780   3.266   4.228   7.017  0.4756 -0.0638  0.1808
  181POPC   H7X20781   3.377   4.214   7.017  0.7787  1.7559 -2.0674
  181POPC   H7Y20782   3.256   4.339   7.009 -0.9600 -0.1900  0.0735
  181POPC   C3820783   3.214   4.172   6.879  0.7252  0.0299 -0.3560
  181POPC   H8X20784   3.104   4.177   6.890  0.2993 -2.5629 -2.5102
  181POPC   H8Y20785   3.245   4.066   6.866 -2.4402 -0.7658 -2.3941
  181POPC   C3920786   3.246   4.247   6.748 -0.4142  0.5897  0.7166
  181POPC   H9X20787   3.353   4.243   6.715 -0.2684 -0.7174  1.2661
  181POPC   H9Y20788   3.213   4.350   6.770  0.1035  1.2260 -1.2808
  181POPC  C31020789   3.157   4.200   6.639  0.0060  0.7831  0.7361
  181POPC  H10X20790   3.051   4.222   6.664 -0.5424 -1.4998  0.6893
  181POPC  H10Y20791   3.168   4.090   6.651 -0.9367  0.7384  1.2479
  181POPC  C31120792   3.213   4.239   6.497  0.4971 -0.4817  0.1028
  181POPC  H11X20793   3.304   4.176   6.481  0.0376 -1.4624  1.1836
  181POPC  H11Y20794   3.234   4.348   6.498  1.7568 -0.6988 -0.0213
  181POPC  C31220795   3.106   4.217   6.396  0.6449  0.3377 -0.5962
  181POPC  H12X20796   3.010   4.272   6.405  0.4869  0.2045 -1.3322
  181POPC  H12Y20797   3.084   4.110   6.418 -0.5476  0.8646  0.9284
  181POPC  C31320798   3.144   4.236   6.255 -0.3478  0.9057  0.5363
  181POPC  H13X20799   3.252   4.212   6.243 -0.0324  2.2711  0.5605
  181POPC  H13Y20800   3.137   4.339   6.216  3.7525  1.0550 -0.2544
  181POPC  C31420801   3.052   4.147   6.158  0.8532 -0.2904  0.3692
  181POPC  H14X20802   2.959   4.208   6.149  1.5976  1.0160  1.2905
  181POPC  H14Y20803   3.020   4.052   6.205  0.5285 -0.2127  0.3111
  181POPC  C31520804   3.103   4.100   6.020  0.5659  0.6225  0.2765
  181POPC  H15X20805   3.189   4.032   6.042  0.5027  0.8909  1.4091
  181POPC  H15Y20806   3.154   4.178   5.960  0.7980  1.7259  1.8526
  181POPC  C31620807   3.004   4.016   5.938 -0.3386 -0.4328 -0.1197
  181POPC  H16X20808   2.988   3.922   5.994  0.8775 -0.6578 -0.1142
  181POPC  H16Y20809   3.042   3.994   5.835 -0.0330  0.2320 -0.1547
  181POPC  H16Z20810   2.914   4.078   5.920  1.2184  2.0325  0.1154
  182POPC     N20811   3.275   2.043   8.118 -0.2011 -0.0127  0.4557
  182POPC   C1220812   3.189   2.158   8.065 -0.6486 -0.1313  0.1679
  182POPC  H12A20813   3.154   2.232   8.135 -0.8184  1.0341 -1.0954
  182POPC  H12B20814   3.110   2.108   8.010 -1.7667  0.7546  0.9206
  182POPC   C1320815   3.398   2.106   8.166  0.1340  0.6351 -0.1115
  182POPC  H13A20816   3.468   2.038   8.211 -1.1319  0.4739  1.7326
  182POPC  H13B20817   3.438   2.155   8.079 -1.1200 -0.3156 -1.2760
  182POPC  H13C20818   3.373   2.177   8.244 -0.3390  1.7153 -1.2049
  182POPC   C1420819   3.209   1.976   8.238  0.1266  0.2071 -0.4700
  182POPC  H14A20820   3.270   1.892   8.269 -1.7110 -0.6244  1.0903
  182POPC  H14B20821   3.191   2.031   8.329  1.1849 -0.4552  0.1659
  182POPC  H14C20822   3.114   1.932   8.213  0.5389 -0.7819 -0.3358
  182POPC   C1520823   3.292   1.948   8.000 -0.0132  0.2711  0.3972
  182POPC  H15A20824   3.204   1.886   7.988  1.0856 -0.8875 -2.8189
  182POPC  H15B20825   3.377   1.883   8.014 -0.7994 -0.4527  2.2085
  182POPC  H15C20826   3.309   1.998   7.906  2.7737 -1.6276 -0.2254
  182POPC   C1120827   3.257   2.260   7.958 -0.0540 -0.4881 -0.1814
  182POPC  H11A20828   3.344   2.305   8.011 -2.0089 -0.4214  3.2524
  182POPC  H11B20829   3.181   2.335   7.930 -1.3782 -1.6352  0.2530
  182POPC     P20830   3.439   2.204   7.771  0.0476  0.4142 -0.0594
  182POPC   O1320831   3.537   2.146   7.864  0.5172  0.5185 -0.1447
  182POPC   O1420832   3.460   2.347   7.729  0.0686  0.1371 -0.6650
  182POPC   O1220833   3.299   2.190   7.840  0.2662  0.4636  0.3962
  182POPC   O1120834   3.446   2.109   7.647 -0.4399  0.0836  0.6710
  182POPC    C120835   3.333   2.034   7.600 -0.5400  0.2865  0.1383
  182POPC    HA20836   3.252   2.101   7.566 -0.0580  1.1737  0.6993
  182POPC    HB20837   3.300   1.961   7.678  1.3120 -0.1511  0.5675
  182POPC    C220838   3.357   1.961   7.463 -0.4058  0.0910 -0.0002
  182POPC    HS20839   3.421   1.873   7.486 -2.0556 -1.0437  0.4451
  182POPC   O2120840   3.418   2.055   7.379 -0.1288  0.2572  0.4759
  182POPC   C2120841   3.548   2.078   7.407  0.5593 -0.4643  0.0592
  182POPC   O2220842   3.624   2.000   7.464  0.3928  0.2471  0.1540
  182POPC   C2220843   3.579   2.218   7.358  0.0034  0.2962 -0.1392
  182POPC   H2R20844   3.565   2.295   7.436  3.4481  0.1365  0.7596
  182POPC   H2S20845   3.501   2.242   7.282 -1.6811 -0.6782  1.1906
  182POPC    C320846   3.222   1.904   7.400 -0.2094 -0.0569  0.3981
  182POPC    HX20847   3.156   1.992   7.384 -2.4312 -1.5111  1.1113
  182POPC    HY20848   3.192   1.833   7.481 -0.1611  0.2211  0.6606
  182POPC   O3120849   3.251   1.832   7.275 -0.6194  0.6103  0.5027
  182POPC   C3120850   3.215   1.902   7.159 -0.2554  0.4496 -1.0163
  182POPC   O3220851   3.148   2.001   7.153  0.0735 -0.3457 -0.0143
  182POPC   C3220852   3.256   1.818   7.040 -0.3619  1.3028  0.7094
  182POPC   H2X20853   3.313   1.729   7.074 -0.3763  0.2133 -1.8929
  182POPC   H2Y20854   3.326   1.878   6.979 -0.7179  1.9489  0.9298
  182POPC   C2320855   3.719   2.223   7.288  0.0119 -0.3510  0.3470
  182POPC   H3R20856   3.787   2.166   7.354 -1.1054 -0.7086  1.2202
  182POPC   H3S20857   3.746   2.330   7.276  0.3233 -0.6735 -2.2342
  182POPC   C2420858   3.722   2.159   7.152  0.1125 -0.0375 -0.5643
  182POPC   H4R20859   3.622   2.181   7.106 -1.6639 -3.0294  1.5313
  182POPC   H4S20860   3.730   2.049   7.161 -0.5883  0.0914  2.7616
  182POPC   C2520861   3.829   2.215   7.061  0.2721  0.1066  0.0491
  182POPC   H5R20862   3.919   2.212   7.126 -0.3109 -4.3029  1.0180
  182POPC   H5S20863   3.804   2.318   7.028  2.7689  0.8180  0.1770
  182POPC   C2620864   3.857   2.112   6.951  0.0022 -0.4740  0.8730
  182POPC   H6R20865   3.769   2.110   6.884  0.5864 -2.9541  0.0789
  182POPC   H6S20866   3.880   2.009   6.986 -0.8084 -1.9521 -2.5611
  182POPC   C2720867   3.969   2.159   6.854  0.0328 -0.5145 -0.5167
  182POPC   H7R20868   4.069   2.173   6.902 -1.1221  1.0110  1.6361
  182POPC   H7S20869   3.931   2.260   6.829  0.2565 -0.0548  0.8925
  182POPC   C2820870   3.980   2.067   6.728  0.7588  1.0205  0.1206
  182POPC   H8R20871   4.019   2.128   6.644 -0.0078  1.2312 -0.0918
  182POPC   H8S20872   3.879   2.040   6.690  0.0107  3.0026  0.5906
  182POPC   C2920873   4.067   1.942   6.758  0.8669 -0.3566  0.2405
  182POPC   H9120874   4.062   1.913   6.864 -1.5997  0.2173  0.3444
  182POPC  C21020875   4.134   1.866   6.668 -0.8267  0.7379 -0.2692
  182POPC  H10120876   4.179   1.775   6.711 -0.3165  1.2381  0.2759
  182POPC  C21120877   4.166   1.895   6.518  1.2199 -0.2502 -0.5411
  182POPC  H11R20878   4.174   2.004   6.502  1.2108  0.1848  2.0410
  182POPC  H11S20879   4.094   1.843   6.451  1.5405 -0.1180 -0.9898
  182POPC  C21220880   4.301   1.831   6.486  0.2205 -0.2462 -0.0122
  182POPC  H12R20881   4.292   1.721   6.503  2.0419  0.0050  3.3128
  182POPC  H12S20882   4.376   1.861   6.563 -0.4784 -0.9955  0.9861
  182POPC  C21320883   4.359   1.868   6.344  0.4239 -0.4775 -0.7120
  182POPC  H13R20884   4.432   1.786   6.328 -1.0380 -1.4897 -2.6920
  182POPC  H13S20885   4.404   1.968   6.356 -0.7404 -0.0636  0.5731
  182POPC  C21420886   4.249   1.882   6.231 -0.5744  0.6190  0.5326
  182POPC  H14R20887   4.174   1.958   6.260 -0.2109  1.8601 -1.6174
  182POPC  H14S20888   4.210   1.777   6.231 -0.7128  0.6715  0.3242
  182POPC  C21520889   4.317   1.908   6.101  0.0170  0.8172 -0.0359
  182POPC  H15R20890   4.412   1.850   6.101  0.6919  1.8459  2.0186
  182POPC  H15S20891   4.360   2.010   6.090  0.8087  0.4523 -0.4257
  182POPC  C21620892   4.227   1.891   5.976 -0.4664  0.1386  0.7807
  182POPC  H16R20893   4.149   1.970   5.974  0.1292  0.7338 -0.6785
  182POPC  H16S20894   4.186   1.790   5.954  0.8190  0.1591 -2.3172
  182POPC  C21720895   4.305   1.924   5.842  0.4793 -0.4566  0.5577
  182POPC  H17R20896   4.358   1.828   5.828 -1.9717 -1.6437 -1.5642
  182POPC  H17S20897   4.378   2.007   5.850 -0.2275  0.1119  1.3860
  182POPC  C21820898   4.210   1.961   5.720  0.4531  0.3497  0.4563
  182POPC  H18R20899   4.264   1.999   5.630 -3.3194  0.4319 -2.0027
  182POPC  H18S20900   4.127   2.030   5.748  0.5471  2.4191 -3.5753
  182POPC  H18T20901   4.180   1.862   5.680  1.8089  0.5390 -1.1292
  182POPC   C3320902   3.138   1.771   6.952  0.5428  0.4956  1.1893
  182POPC   H3X20903   3.043   1.778   7.010 -0.7737 -1.4575 -0.5607
  182POPC   H3Y20904   3.157   1.667   6.919 -1.9190 -0.0125  1.1441
  182POPC   C3420905   3.112   1.860   6.824  0.4708 -0.0532  0.0773
  182POPC   H4X20906   3.032   1.809   6.766 -0.0032  0.8874 -0.1078
  182POPC   H4Y20907   3.203   1.872   6.760  0.3128  0.1194 -0.1179
  182POPC   C3520908   3.060   2.007   6.849  0.4541 -0.2197  0.8249
  182POPC   H5X20909   3.147   2.072   6.874 -0.1932  0.3717  1.6030
  182POPC   H5Y20910   2.979   2.034   6.921 -1.2150 -1.8976 -0.3254
  182POPC   C3620911   2.990   2.058   6.718  1.0601  0.5234 -0.0653
  182POPC   H6X20912   2.926   2.146   6.739  0.1553 -0.2575  0.5598
  182POPC   H6Y20913   2.918   1.984   6.677  0.6059  0.1178  1.4072
  182POPC   C3720914   3.083   2.114   6.609  0.2277  0.0885 -0.0987
  182POPC   H7X20915   3.158   2.035   6.588 -0.9486 -1.5272  1.4676
  182POPC   H7Y20916   3.140   2.201   6.645  0.3678  0.2957 -0.8047
  182POPC   C3820917   2.993   2.161   6.487 -0.6748 -0.5499 -0.1056
  182POPC   H8X20918   2.926   2.240   6.528  1.3932  1.4813 -0.3910
  182POPC   H8Y20919   2.940   2.070   6.452  0.7511 -1.7544  0.7786
  182POPC   C3920920   3.081   2.231   6.386  0.7336  0.3828  0.8797
  182POPC   H9X20921   3.179   2.179   6.379 -0.5840 -2.0924 -0.9435
  182POPC   H9Y20922   3.102   2.330   6.432 -2.4340  0.5835  2.1735
  182POPC  C31020923   3.025   2.251   6.251  0.0846  0.0818 -0.7334
  182POPC  H10X20924   2.975   2.157   6.221  0.4615  0.1615 -1.6775
  182POPC  H10Y20925   3.104   2.268   6.174  1.0660 -1.3458 -0.0848
  182POPC  C31120926   2.919   2.365   6.246  0.3788  0.1099 -0.5984
  182POPC  H11X20927   2.880   2.371   6.350  3.3681  4.0773  0.5663
  182POPC  H11Y20928   2.841   2.350   6.169 -0.0887  1.6614 -0.4677
  182POPC  C31220929   2.981   2.501   6.203 -0.2391  0.3339 -0.2532
  182POPC  H12X20930   3.029   2.490   6.103 -2.7945 -1.6094 -1.4049
  182POPC  H12Y20931   3.062   2.538   6.268 -0.9551  1.8267 -0.1710
  182POPC  C31320932   2.880   2.614   6.179  0.0491 -0.1407 -0.6055
  182POPC  H13X20933   2.921   2.716   6.167 -1.8676  0.5876 -1.3532
  182POPC  H13Y20934   2.811   2.621   6.266  1.1637 -0.4218  0.3224
  182POPC  C31420935   2.805   2.589   6.054  0.4590  0.1131  0.0525
  182POPC  H14X20936   2.756   2.490   6.048 -1.6245  0.8874  2.1160
  182POPC  H14Y20937   2.865   2.585   5.961 -3.4639 -0.8637 -2.7022
  182POPC  C31520938   2.701   2.702   6.025  0.3865 -0.2108 -0.0450
  182POPC  H15X20939   2.753   2.798   6.042  1.2019 -0.9359  1.8574
  182POPC  H15Y20940   2.622   2.697   6.102  0.8643 -1.6199  0.3906
  182POPC  C31620941   2.638   2.690   5.880  0.5867 -0.4648  0.2011
  182POPC  H16X20942   2.602   2.586   5.871 -1.4920  0.0942  1.2484
  182POPC  H16Y20943   2.713   2.710   5.801  1.6196 -2.8609  0.5179
  182POPC  H16Z20944   2.553   2.761   5.870  0.4493 -0.5387  0.7789
  183POPC     N20945   3.671   3.575   8.404  0.2955  0.4462  0.3212
  183POPC   C1220946   3.732   3.488   8.505 -0.0407  0.1846  0.2602
  183POPC  H12A20947   3.653   3.443   8.562  0.9471 -2.1344 -0.0686
  183POPC  H12B20948   3.782   3.561   8.567 -0.0743  1.2225 -0.8868
  183POPC   C1320949   3.582   3.669   8.475 -0.4129 -0.1311 -0.4700
  183POPC  H13A20950   3.498   3.619   8.520 -0.1784  1.3133  1.6675
  183POPC  H13B20951   3.631   3.719   8.557 -0.3048  0.2297 -0.7549
  183POPC  H13C20952   3.544   3.749   8.414 -2.0422  1.7371  2.7545
  183POPC   C1420953   3.778   3.644   8.320 -0.0120  0.0986  0.1137
  183POPC  H14A20954   3.741   3.716   8.248  2.2927  1.1502 -0.1050
  183POPC  H14B20955   3.847   3.705   8.376  0.4594  1.5835 -1.9637
  183POPC  H14C20956   3.845   3.572   8.275  1.6722  1.2175  0.7346
  183POPC   C1520957   3.588   3.495   8.315  0.4521 -0.3647 -0.0089
  183POPC  H15A20958   3.526   3.565   8.262 -0.2999  0.0147  1.3295
  183POPC  H15B20959   3.525   3.432   8.375  0.4218 -0.1540  0.1776
  183POPC  H15C20960   3.645   3.426   8.253  0.8231  0.4828 -0.6310
  183POPC   C1120961   3.835   3.375   8.468 -0.7284 -0.1231  0.0497
  183POPC  H11A20962   3.787   3.303   8.398 -1.8042  0.5162  0.1118
  183POPC  H11B20963   3.854   3.336   8.570  2.5832 -1.0424 -0.7975
  183POPC     P20964   4.073   3.348   8.354 -0.0592  0.0853 -0.0635
  183POPC   O1320965   4.073   3.210   8.417 -0.3318 -0.2805  0.1031
  183POPC   O1420966   4.198   3.421   8.358  0.1671 -0.3759  0.0517
  183POPC   O1220967   3.957   3.431   8.413 -0.6876 -0.7710  0.7893
  183POPC   O1120968   4.030   3.329   8.208 -0.0017  0.0175 -0.3423
  183POPC    C120969   4.112   3.259   8.110  0.3613 -0.2354  0.4717
  183POPC    HA20970   4.049   3.198   8.042 -0.9410 -1.3267  2.5434
  183POPC    HB20971   4.177   3.181   8.156 -0.4120 -1.3363 -0.2472
  183POPC    C220972   4.196   3.352   8.014 -0.2303  0.6390 -0.9065
  183POPC    HS20973   4.228   3.437   8.078 -0.0567  1.8871 -2.5743
  183POPC   O2120974   4.109   3.402   7.907  0.7274  0.2866  0.3701
  183POPC   C2120975   4.169   3.499   7.839 -0.2111 -1.0929  0.4901
  183POPC   O2220976   4.277   3.555   7.867 -0.0709  0.4779 -0.2523
  183POPC   C2220977   4.094   3.531   7.714 -0.0358 -0.0238  0.5886
  183POPC   H2R20978   4.000   3.576   7.752  0.4826  1.6243 -0.0129
  183POPC   H2S20979   4.055   3.439   7.664  1.4392 -1.0158  1.2015
  183POPC    C320980   4.311   3.266   7.955 -0.1429  0.6831  0.2134
  183POPC    HX20981   4.383   3.241   8.036  0.1821  1.1259  0.0618
  183POPC    HY20982   4.369   3.325   7.882  0.5332 -1.2727 -0.9075
  183POPC   O3120983   4.261   3.146   7.896  0.0029  0.4138 -0.3761
  183POPC   C3120984   4.248   3.145   7.766  1.1986 -0.2125  0.4811
  183POPC   O3220985   4.274   3.239   7.691  0.4148  0.0488 -0.0932
  183POPC   C3220986   4.196   3.008   7.717  0.1929 -0.1368 -0.2304
  183POPC   H2X20987   4.090   3.005   7.752 -0.0621  0.7951 -0.8786
  183POPC   H2Y20988   4.250   2.926   7.768 -1.1564 -1.9463 -1.5778
  183POPC   C2320989   4.179   3.614   7.613 -0.3596  0.3312  0.0366
  183POPC   H3R20990   4.265   3.553   7.578 -0.5030  0.5296 -0.6653
  183POPC   H3S20991   4.205   3.713   7.656 -2.1875  0.9513 -0.1828
  183POPC   C2420992   4.091   3.652   7.490 -0.4815 -0.2068  0.4090
  183POPC   H4R20993   4.051   3.754   7.506  1.3277  0.5012  0.6316
  183POPC   H4S20994   4.015   3.571   7.485  1.7001 -2.4068  0.6814
  183POPC   C2520995   4.175   3.656   7.356 -0.5739  0.5692 -0.0904
  183POPC   H5R20996   4.223   3.555   7.352 -0.2142  0.7057  0.6445
  183POPC   H5S20997   4.261   3.725   7.373 -0.6102  0.8671 -1.0653
  183POPC   C2620998   4.107   3.692   7.231  0.1882 -0.1156 -0.2874
  183POPC   H6R20999   4.037   3.617   7.189 -0.4207  1.1359 -1.5761
  183POPC   H6S21000   4.181   3.710   7.151 -0.9107  1.2928 -1.0341
  183POPC   C2721001   4.023   3.821   7.231  0.1687  0.0867  0.2754
  183POPC   H7R21002   4.092   3.895   7.276 -2.1426  2.9442 -0.6107
  183POPC   H7S21003   3.931   3.800   7.290 -0.6620 -0.0524 -1.0142
  183POPC   C2821004   3.987   3.867   7.085  0.0690 -0.0558 -0.6449
  183POPC   H8R21005   3.931   3.963   7.090  0.8878  0.4874 -1.7415
  183POPC   H8S21006   3.902   3.806   7.048 -1.7536  1.9963 -0.0645
  183POPC   C2921007   4.094   3.893   6.987  1.2308 -0.0805 -0.4164
  183POPC   H9121008   4.172   3.959   7.027 -0.2716  0.9206  0.9872
  183POPC  C21021009   4.091   3.851   6.858 -0.2514 -0.1783  0.0101
  183POPC  H10121010   4.175   3.870   6.790  0.6053 -0.9749  0.8303
  183POPC  C21121011   3.993   3.752   6.803  0.3426 -0.7201  0.2642
  183POPC  H11R21012   3.947   3.791   6.710 -0.6934 -0.4856  0.8552
  183POPC  H11S21013   3.912   3.729   6.876  0.8226 -1.4279  0.5924
  183POPC  C21221014   4.068   3.626   6.756  0.3956 -0.2928  0.5516
  183POPC  H12R21015   4.137   3.648   6.671 -0.7745 -0.4139 -0.4622
  183POPC  H12S21016   3.997   3.559   6.704  0.4396  0.3053 -0.3086
  183POPC  C21321017   4.133   3.550   6.860 -0.0847  0.3672 -0.1501
  183POPC  H13R21018   4.067   3.543   6.949  1.0392  2.4122  0.9196
  183POPC  H13S21019   4.219   3.613   6.893 -0.3309  0.3272  0.5942
  183POPC  C21421020   4.186   3.412   6.820  0.0988 -0.7425 -0.0945
  183POPC  H14R21021   4.224   3.416   6.715 -0.5168 -0.6473 -0.3199
  183POPC  H14S21022   4.110   3.331   6.819 -0.1081 -0.5506 -0.8799
  183POPC  C21521023   4.306   3.369   6.906  0.3883 -0.6195 -0.1042
  183POPC  H15R21024   4.373   3.452   6.937  0.4734  0.0822 -1.9896
  183POPC  H15S21025   4.370   3.291   6.859 -0.9940 -1.0273 -1.3922
  183POPC  C21621026   4.251   3.308   7.043 -0.3192  0.1217 -0.8151
  183POPC  H16R21027   4.192   3.216   7.023  0.6608 -0.4614 -1.1094
  183POPC  H16S21028   4.178   3.377   7.091  0.5001  0.5859 -0.2008
  183POPC  C21721029   4.363   3.297   7.142 -0.8585 -0.3429 -0.4471
  183POPC  H17R21030   4.397   3.398   7.174  0.7260 -1.0188  0.1178
  183POPC  H17S21031   4.459   3.252   7.108 -0.3924 -0.4610  0.9363
  183POPC  C21821032   4.323   3.222   7.271 -0.1269 -0.2559 -0.5917
  183POPC  H18R21033   4.244   3.285   7.316  0.4437  0.1170 -0.0932
  183POPC  H18S21034   4.400   3.211   7.350  0.1674  2.7129 -0.3489
  183POPC  H18T21035   4.292   3.120   7.243  0.6839 -0.6037 -0.2517
  183POPC   C3321036   4.220   2.979   7.565  0.3304 -0.1835  0.0352
  183POPC   H3X21037   4.174   3.064   7.510  1.7891  2.1425  2.2347
  183POPC   H3Y21038   4.156   2.889   7.551 -0.4846  0.4102 -0.1638
  183POPC   C3421039   4.371   2.963   7.536 -0.1992 -0.1374 -0.6296
  183POPC   H4X21040   4.412   2.906   7.622 -2.2220 -0.1896  0.3520
  183POPC   H4Y21041   4.416   3.065   7.532  0.4591 -0.4140 -0.4650
  183POPC   C3521042   4.407   2.897   7.399  1.1606 -0.3636 -0.4751
  183POPC   H5X21043   4.365   2.946   7.308 -0.2688 -0.1727  0.2633
  183POPC   H5Y21044   4.354   2.799   7.404  0.0717  0.2346  0.0565
  183POPC   C3621045   4.559   2.880   7.376 -0.4086  0.6435 -0.3996
  183POPC   H6X21046   4.582   2.828   7.280  0.7025 -0.5274  0.4668
  183POPC   H6Y21047   4.612   2.825   7.457  1.0161  3.7392  0.9589
  183POPC   C3721048   4.639   3.011   7.371 -0.6233  0.0748  0.2980
  183POPC   H7X21049   4.643   3.056   7.472  2.5791 -0.3624  0.4398
  183POPC   H7Y21050   4.598   3.081   7.295  2.7022  1.4034 -0.3978
  183POPC   C3821051   4.795   2.991   7.332 -0.0341  0.4307  0.1195
  183POPC   H8X21052   4.851   2.944   7.416  2.0072 -0.8559 -1.8605
  183POPC   H8Y21053   4.831   3.096   7.318  0.8237  0.3670  1.6108
  183POPC   C3921054   4.820   2.915   7.201  0.7959 -0.7858 -0.5672
  183POPC   H9X21055   4.749   2.959   7.128 -0.7135  0.6637  1.6379
  183POPC   H9Y21056   4.794   2.808   7.208  2.1492 -1.1797 -1.2692
  183POPC  C31021057   4.958   2.924   7.141  0.3191 -0.8898 -0.8603
  183POPC  H10X21058   4.989   3.031   7.135  1.4779 -1.1521  0.1334
  183POPC  H10Y21059   4.965   2.891   7.035 -0.5622 -1.4368 -0.7516
  183POPC  C31121060   5.067   2.854   7.221  0.1411 -0.4721 -0.2620
  183POPC  H11X21061   5.053   2.744   7.214  0.7593 -0.6400  0.9122
  183POPC  H11Y21062   5.065   2.890   7.326  0.5783  1.1621 -0.7738
  183POPC  C31221063   5.204   2.889   7.153  0.8582  0.2627 -0.2682
  183POPC  H12X21064   5.225   2.998   7.146 -0.2843  0.6216  1.3360
  183POPC  H12Y21065   5.191   2.853   7.049  0.9163  0.2887 -0.2846
  183POPC  C31321066   5.326   2.838   7.226  0.0673  0.3707  0.3052
  183POPC  H13X21067   5.412   2.847   7.156 -0.5508 -0.1481 -0.5465
  183POPC  H13Y21068   5.311   2.729   7.242 -0.2705  0.4997  0.8823
  183POPC  C31421069   5.345   2.902   7.367 -0.0742  0.2527  0.2654
  183POPC  H14X21070   5.242   2.909   7.407 -0.4369  3.6652 -0.9045
  183POPC  H14Y21071   5.378   3.008   7.356 -3.6183  1.4171 -0.4136
  183POPC  C31521072   5.432   2.824   7.461 -0.0918 -0.1792  0.0702
  183POPC  H15X21073   5.530   2.818   7.409  0.5637 -2.0746  1.4154
  183POPC  H15Y21074   5.387   2.723   7.460  0.7143 -0.5521 -0.9657
  183POPC  C31621075   5.439   2.879   7.604 -0.2872 -0.0460 -0.2071
  183POPC  H16X21076   5.456   2.988   7.613  0.1048  0.0927 -2.1216
  183POPC  H16Y21077   5.520   2.824   7.655 -0.6392  0.4141  0.8668
  183POPC  H16Z21078   5.348   2.860   7.665  0.1233  3.8742  1.9223
  184POPC     N21079   3.807   1.901   8.053  0.3404 -0.9664 -0.4779
  184POPC   C1221080   3.836   1.754   8.074 -0.1715  0.5887 -0.6262
  184POPC  H12A21081   3.768   1.718   8.150 -0.4089 -0.5617 -1.3557
  184POPC  H12B21082   3.938   1.741   8.108 -1.2391 -3.7281  1.6684
  184POPC   C1321083   3.664   1.920   8.000  0.6610 -0.0972 -0.5046
  184POPC  H13A21084   3.659   1.858   7.911 -0.0368 -0.5887 -0.1372
  184POPC  H13B21085   3.591   1.880   8.069  0.4130  1.2625  0.0370
  184POPC  H13C21086   3.641   2.021   7.972  0.1516  0.1076  0.6027
  184POPC   C1421087   3.803   1.976   8.187  0.1142 -0.2759  0.2013
  184POPC  H14A21088   3.753   2.071   8.173 -0.0808 -0.3907  0.1159
  184POPC  H14B21089   3.744   1.920   8.257 -2.9026 -0.9925 -2.6704
  184POPC  H14C21090   3.904   1.990   8.222  0.3728 -0.1462 -0.5686
  184POPC   C1521091   3.902   1.967   7.965  0.3625 -0.0217 -0.2450
  184POPC  H15A21092   4.001   1.932   7.993 -0.6859 -4.8213 -1.5452
  184POPC  H15B21093   3.904   2.074   7.975 -0.4848 -0.0909  0.8314
  184POPC  H15C21094   3.887   1.935   7.863  1.0874 -0.1196 -0.3291
  184POPC   C1121095   3.817   1.660   7.952 -0.1608  0.3341 -0.8289
  184POPC  H11A21096   3.871   1.568   7.984  1.1919  1.8336  1.5431
  184POPC  H11B21097   3.864   1.703   7.862  1.3300  1.4759  0.4358
  184POPC     P21098   3.603   1.553   8.019  0.2718 -0.2617  0.2130
  184POPC   O1321099   3.464   1.590   8.043 -0.2183 -0.1850  0.1078
  184POPC   O1421100   3.679   1.533   8.144 -0.4849 -0.0865 -0.1964
  184POPC   O1221101   3.679   1.648   7.929 -0.4964  0.6123  0.5286
  184POPC   O1121102   3.600   1.408   7.956  0.2321 -0.0079  1.0004
  184POPC    C121103   3.702   1.352   7.866  0.7642  0.3259  0.0753
  184POPC    HA21104   3.733   1.252   7.904  3.9786  1.2988  0.3048
  184POPC    HB21105   3.794   1.414   7.860 -0.5627  2.4087  0.2377
  184POPC    C221106   3.653   1.339   7.724  0.2508  0.2718 -0.2743
  184POPC    HS21107   3.721   1.273   7.665 -1.3098  0.1142 -1.9809
  184POPC   O2121108   3.647   1.464   7.654 -0.1462 -0.6070 -0.2288
  184POPC   C2121109   3.743   1.555   7.646 -0.4465  1.0559  0.4111
  184POPC   O2221110   3.863   1.529   7.660 -0.2853 -0.4098  0.3386
  184POPC   C2221111   3.695   1.687   7.596  0.0552  0.3123  0.3830
  184POPC   H2R21112   3.732   1.767   7.664  2.5870 -0.8924  0.5562
  184POPC   H2S21113   3.585   1.679   7.593  0.1440 -0.7486 -0.7855
  184POPC    C321114   3.513   1.261   7.717  0.1784 -0.2158 -0.2995
  184POPC    HX21115   3.445   1.340   7.755  1.2492  0.0220  1.2004
  184POPC    HY21116   3.511   1.180   7.793 -1.0889  1.0706  1.1176
  184POPC   O3121117   3.475   1.212   7.583  0.2224  0.3739  0.1335
  184POPC   C3121118   3.534   1.095   7.554  0.6946  0.1983  0.1843
  184POPC   O3221119   3.622   1.036   7.614 -0.1343 -0.3289 -0.3978
  184POPC   C3221120   3.489   1.047   7.413  0.6855  0.3599  0.1698
  184POPC   H2X21121   3.387   1.086   7.390  0.4714  0.5445  1.3579
  184POPC   H2Y21122   3.484   0.937   7.427  2.5118  0.1912 -0.3317
  184POPC   C2321123   3.755   1.720   7.458  0.3016 -0.0746 -0.2725
  184POPC   H3R21124   3.852   1.770   7.478  0.0232 -0.3469  1.9768
  184POPC   H3S21125   3.687   1.797   7.417  1.5863  1.1428 -0.1994
  184POPC   C2421126   3.772   1.606   7.356  0.0470  0.3344 -0.4582
  184POPC   H4R21127   3.671   1.559   7.356  0.3989 -0.4427 -0.5335
  184POPC   H4S21128   3.840   1.529   7.400  0.2187  0.8510  0.1812
  184POPC   C2521129   3.814   1.648   7.216 -0.5318 -0.0280 -0.4434
  184POPC   H5R21130   3.825   1.554   7.158 -2.3912 -0.4386 -0.1675
  184POPC   H5S21131   3.914   1.696   7.226 -0.3956 -0.7559  2.5214
  184POPC   C2621132   3.718   1.756   7.148  0.0601 -0.0003 -0.7201
  184POPC   H6R21133   3.770   1.785   7.054  1.6269 -1.0670 -0.2210
  184POPC   H6S21134   3.706   1.853   7.200  1.2257  1.0559 -2.3322
  184POPC   C2721135   3.582   1.707   7.094  0.4369 -0.4897  0.0202
  184POPC   H7R21136   3.529   1.792   7.047  0.5903 -0.0144  0.6958
  184POPC   H7S21137   3.533   1.676   7.189 -2.2507  0.0217 -1.0918
  184POPC   C2821138   3.599   1.590   6.999  0.3819  0.0203 -0.3756
  184POPC   H8R21139   3.627   1.494   7.046  0.1675 -0.5336 -1.3421
  184POPC   H8S21140   3.692   1.608   6.940  0.7712  0.8697  0.4717
  184POPC   C2921141   3.481   1.575   6.904  0.4761 -0.6621  0.3077
  184POPC   H9121142   3.414   1.491   6.928  0.5583 -1.1901 -1.2007
  184POPC  C21021143   3.446   1.642   6.799 -0.2887 -0.3049  0.2758
  184POPC  H10121144   3.350   1.626   6.747 -0.3345  2.1196 -0.5274
  184POPC  C21121145   3.523   1.766   6.758 -0.2181 -0.5294 -0.2782
  184POPC  H11R21146   3.602   1.798   6.829 -0.5834  1.4868 -0.7194
  184POPC  H11S21147   3.453   1.849   6.733 -0.2992 -1.1051 -2.1496
  184POPC  C21221148   3.591   1.737   6.621  0.6712 -0.1807 -0.1486
  184POPC  H12R21149   3.664   1.654   6.633 -0.4232 -1.0936  0.3817
  184POPC  H12S21150   3.649   1.826   6.592 -0.8366  0.9203  0.0897
  184POPC  C21321151   3.488   1.713   6.507  0.0740  0.5212 -0.1942
  184POPC  H13R21152   3.422   1.802   6.515 -0.4081  0.0800  0.9850
  184POPC  H13S21153   3.414   1.634   6.535 -0.6044  0.8490 -1.0183
  184POPC  C21421154   3.554   1.686   6.369 -0.2263 -0.3238  0.4140
  184POPC  H14R21155   3.637   1.614   6.386 -0.0215  0.3207  2.4368
  184POPC  H14S21156   3.607   1.773   6.325  1.4138 -1.7226 -0.5555
  184POPC  C21521157   3.450   1.635   6.265 -0.1648 -0.2459  0.1677
  184POPC  H15R21158   3.407   1.550   6.322  1.3315 -0.8115  0.4947
  184POPC  H15S21159   3.500   1.599   6.173 -1.7518 -1.2338 -0.3584
  184POPC  C21621160   3.334   1.734   6.229 -0.1031  0.1910 -0.4108
  184POPC  H16R21161   3.283   1.758   6.324  0.1625  1.9329 -0.6731
  184POPC  H16S21162   3.264   1.677   6.163 -1.4762 -2.0381  2.7241
  184POPC  C21721163   3.378   1.859   6.156  0.4573 -0.5338  0.2636
  184POPC  H17R21164   3.379   1.818   6.052  0.6280 -0.6949  0.3274
  184POPC  H17S21165   3.480   1.888   6.189  0.1587 -1.0034  1.6451
  184POPC  C21821166   3.282   1.980   6.173 -0.0062 -0.4564 -0.5051
  184POPC  H18R21167   3.316   2.062   6.107 -1.7190 -0.6038 -1.6401
  184POPC  H18S21168   3.279   2.006   6.281  1.8561 -1.2913 -0.2173
  184POPC  H18T21169   3.175   1.961   6.152 -0.2934  0.0500  0.4137
  184POPC   C3321170   3.577   1.086   7.294  0.4897 -0.0009  0.6954
  184POPC   H3X21171   3.679   1.081   7.338  0.8966 -2.2642 -0.3781
  184POPC   H3Y21172   3.566   1.188   7.250  0.1657 -0.4645 -0.3389
  184POPC   C3421173   3.570   0.972   7.192  0.0121 -0.1549 -0.6213
  184POPC   H4X21174   3.464   0.941   7.183 -0.6501  1.5459  0.7015
  184POPC   H4Y21175   3.619   0.888   7.245  0.7428  0.7283  0.1475
  184POPC   C3521176   3.642   0.992   7.061 -0.1612  0.2284  0.2270
  184POPC   H5X21177   3.615   1.089   7.013  0.6005 -0.8037 -2.4417
  184POPC   H5Y21178   3.614   0.914   6.987  2.2720  2.7366 -3.7202
  184POPC   C3621179   3.791   1.000   7.078 -0.4092 -0.4479  0.7211
  184POPC   H6X21180   3.837   0.911   7.126  2.4749  0.6904  0.2527
  184POPC   H6Y21181   3.816   1.083   7.147 -0.2008 -0.1495  0.2867
  184POPC   C3721182   3.866   1.038   6.958 -0.2122 -0.0524 -0.2165
  184POPC   H7X21183   3.952   1.105   6.978 -0.8260  0.7831 -0.3281
  184POPC   H7Y21184   3.800   1.103   6.897 -1.6046  0.7429  2.0087
  184POPC   C3821185   3.921   0.911   6.888 -0.3691 -0.2839 -0.2170
  184POPC   H8X21186   3.838   0.860   6.835 -0.7512 -0.7162  0.7770
  184POPC   H8Y21187   3.954   0.850   6.975  1.0682 -1.2373 -1.3721
  184POPC   C3921188   4.039   0.936   6.791  0.1888 -0.7942  0.2200
  184POPC   H9X21189   4.124   0.996   6.830  0.8143 -2.1524  0.9968
  184POPC   H9Y21190   4.006   0.996   6.704  2.5787  0.5681  0.1851
  184POPC  C31021191   4.088   0.798   6.741  0.0890  0.4096 -0.8238
  184POPC  H10X21192   4.001   0.731   6.722  0.4666 -0.4276  0.2768
  184POPC  H10Y21193   4.140   0.762   6.832 -0.8273 -1.4059 -0.9717
  184POPC  C31121194   4.174   0.798   6.614  0.3237 -0.2339 -0.1800
  184POPC  H11X21195   4.221   0.699   6.599 -0.6969 -0.4964 -1.8444
  184POPC  H11Y21196   4.246   0.880   6.634  1.0081 -1.0022  0.5388
  184POPC  C31221197   4.094   0.840   6.483 -0.3808  0.6777 -0.2417
  184POPC  H12X21198   4.035   0.933   6.502 -0.3998  0.9732 -1.6703
  184POPC  H12Y21199   4.014   0.771   6.447  0.4005 -1.5491  1.9851
  184POPC  C31321200   4.201   0.868   6.372 -0.1500 -0.5054 -0.7808
  184POPC  H13X21201   4.285   0.796   6.369 -1.4460 -2.2099  1.1888
  184POPC  H13Y21202   4.241   0.967   6.405  0.0185 -1.2730  1.5606
  184POPC  C31421203   4.142   0.886   6.230 -0.1044 -0.5497  0.2981
  184POPC  H14X21204   4.044   0.935   6.247  0.1583  0.3090 -0.6041
  184POPC  H14Y21205   4.122   0.788   6.180 -2.2786 -0.6494  1.2321
  184POPC  C31521206   4.233   0.976   6.140 -0.3703 -0.4265  0.4621
  184POPC  H15X21207   4.227   1.082   6.173  0.2212 -0.0733 -0.5325
  184POPC  H15Y21208   4.184   0.982   6.040  1.3397  0.1453 -0.3847
  184POPC  C31621209   4.379   0.935   6.136 -0.2814 -0.0254  0.5621
  184POPC  H16X21210   4.392   0.835   6.091 -1.4932  0.5448 -1.1490
  184POPC  H16Y21211   4.420   0.906   6.235 -0.3933 -1.1605  0.2838
  184POPC  H16Z21212   4.435   1.008   6.073 -0.3084 -2.2862 -2.2690
  185POPC     N21213   1.047   3.428   3.471 -0.3135  0.3797 -0.2646
  185POPC   C1221214   0.974   3.482   3.590  0.2131 -0.5427  0.1597
  185POPC  H12A21215   0.999   3.424   3.678  0.6879 -0.9620 -0.2455
  185POPC  H12B21216   0.868   3.477   3.570  0.3605  0.5510 -1.0027
  185POPC   C1321217   1.193   3.428   3.486 -0.3371  0.2835 -0.5524
  185POPC  H13A21218   1.234   3.389   3.394 -2.1368  0.5725 -1.5214
  185POPC  H13B21219   1.226   3.531   3.490  0.8874 -0.0719 -1.3141
  185POPC  H13C21220   1.230   3.366   3.566 -0.1700 -0.7379 -1.4031
  185POPC   C1421221   1.010   3.279   3.451 -0.2081 -0.2538  0.1423
  185POPC  H14A21222   1.029   3.219   3.539  0.9631  0.7234  0.5967
  185POPC  H14B21223   0.906   3.259   3.431 -0.4823 -0.4659  1.6263
  185POPC  H14C21224   1.072   3.242   3.370 -1.4206  0.1025 -0.9691
  185POPC   C1521225   0.995   3.487   3.341 -0.5658 -0.6012  0.6233
  185POPC  H15A21226   1.023   3.426   3.256 -0.8067 -0.3519  0.3619
  185POPC  H15B21227   1.020   3.592   3.338 -2.8925  0.0160  0.4833
  185POPC  H15C21228   0.887   3.492   3.346 -0.5425  0.1191  0.5731
  185POPC   C1121229   1.004   3.631   3.615  0.3042 -0.2818 -0.0266
  185POPC  H11A21230   1.112   3.656   3.608  0.2377 -0.4863 -4.1356
  185POPC  H11B21231   0.966   3.663   3.714 -0.1012  1.0772 -0.5850
  185POPC     P21232   0.789   3.734   3.493  0.5558 -0.3636  0.0367
  185POPC   O1321233   0.727   3.626   3.569  0.0329  0.1782  0.7827
  185POPC   O1421234   0.765   3.746   3.346 -0.7405  0.1140  0.2292
  185POPC   O1221235   0.939   3.718   3.519 -0.1046 -0.6703 -0.5806
  185POPC   O1121236   0.752   3.868   3.570  0.2827  0.1638  0.2128
  185POPC    C121237   0.851   3.963   3.618  0.6032 -0.3873 -0.7139
  185POPC    HA21238   0.865   4.036   3.536 -1.5002 -0.6371 -1.3678
  185POPC    HB21239   0.952   3.916   3.624  1.2965  1.1219 -0.1472
  185POPC    C221240   0.824   4.035   3.752 -0.1081  0.5686 -0.1863
  185POPC    HS21241   0.921   4.081   3.783 -0.4203 -0.4836  2.5901
  185POPC   O2121242   0.759   3.956   3.853  0.3687 -0.2602  0.1690
  185POPC   C2121243   0.816   3.841   3.887  0.3479 -0.5861  0.0095
  185POPC   O2221244   0.932   3.819   3.868 -0.2894  0.4751 -0.4317
  185POPC   C2221245   0.700   3.753   3.945 -0.7072  0.1070 -0.5090
  185POPC   H2R21246   0.628   3.747   3.862 -1.5152 -1.1720  0.2578
  185POPC   H2S21247   0.651   3.799   4.034 -0.9244  0.5208 -0.8433
  185POPC    C321248   0.724   4.159   3.730 -0.5692 -0.0000 -0.3327
  185POPC    HX21249   0.620   4.120   3.727 -0.4331 -0.4319  0.3247
  185POPC    HY21250   0.733   4.198   3.626 -0.5071  1.7336  0.2789
  185POPC   O3121251   0.736   4.262   3.833  0.5229  1.0804 -0.0696
  185POPC   C3121252   0.839   4.341   3.815  0.1428 -0.4010 -0.7252
  185POPC   O3221253   0.906   4.350   3.715 -0.8263 -0.5661 -0.1371
  185POPC   C3221254   0.841   4.441   3.927  0.4971  0.4104 -0.0956
  185POPC   H2X21255   0.828   4.390   4.024 -1.5133  1.0437  0.0133
  185POPC   H2Y21256   0.765   4.521   3.918  2.0683  1.8887 -0.8888
  185POPC   C2321257   0.744   3.608   3.986 -0.1010  0.7514  0.5935
  185POPC   H3R21258   0.814   3.613   4.073 -0.6308 -1.8967  1.2656
  185POPC   H3S21259   0.800   3.553   3.907 -0.7508 -0.5705  1.0169
  185POPC   C2421260   0.635   3.514   4.027 -0.5632  0.6078 -0.1638
  185POPC   H4R21261   0.688   3.418   4.047 -0.9964 -0.0052 -1.7378
  185POPC   H4S21262   0.555   3.500   3.951 -0.3325 -0.5748 -0.2090
  185POPC   C2521263   0.539   3.544   4.147 -0.1369  0.2293 -0.0679
  185POPC   H5R21264   0.458   3.468   4.145  1.3288 -1.3742 -0.7431
  185POPC   H5S21265   0.492   3.641   4.121 -2.6532 -0.8931 -0.0007
  185POPC   C2621266   0.606   3.560   4.284  0.4055 -0.0687 -0.5384
  185POPC   H6R21267   0.686   3.636   4.275 -0.0747  0.4347 -0.6066
  185POPC   H6S21268   0.652   3.464   4.317 -0.9106  0.0326  1.8165
  185POPC   C2721269   0.512   3.623   4.397 -0.2487 -0.2795 -0.0326
  185POPC   H7R21270   0.582   3.634   4.483 -1.8970 -0.2987  1.3701
  185POPC   H7S21271   0.434   3.558   4.442  0.2130 -0.2878  0.7724
  185POPC   C2821272   0.451   3.756   4.352  0.1009  0.2404 -0.3963
  185POPC   H8R21273   0.353   3.740   4.303  0.2872  1.6676 -1.2707
  185POPC   H8S21274   0.514   3.804   4.273 -0.1211  0.5526 -0.3836
  185POPC   C2921275   0.425   3.848   4.467 -0.0403 -0.2697 -0.4384
  185POPC   H9121276   0.321   3.871   4.494  0.1680 -0.2101  0.3375
  185POPC  C21021277   0.515   3.915   4.547 -0.5103  0.5874 -0.1594
  185POPC  H10121278   0.483   3.995   4.614  1.1523  1.7680 -0.7130
  185POPC  C21121279   0.669   3.905   4.533  0.9378 -0.3606 -0.2818
  185POPC  H11R21280   0.697   4.011   4.517  0.2149  0.1875  1.7693
  185POPC  H11S21281   0.691   3.839   4.446 -1.8631 -0.1790 -1.2310
  185POPC  C21221282   0.719   3.842   4.663 -0.4412  1.1280 -0.4093
  185POPC  H12R21283   0.672   3.742   4.681  0.1732  1.0379  0.8744
  185POPC  H12S21284   0.716   3.912   4.750  0.2155 -0.4572  0.9508
  185POPC  C21321285   0.871   3.815   4.658  0.3540 -0.1181 -0.4529
  185POPC  H13R21286   0.922   3.914   4.671 -1.3027  0.8096 -0.7766
  185POPC  H13S21287   0.905   3.771   4.562  2.8422 -0.7632  0.6289
  185POPC  C21421288   0.906   3.725   4.777  0.3189  0.3360  0.0146
  185POPC  H14R21289   0.827   3.650   4.801 -0.4983  1.1197 -0.1729
  185POPC  H14S21290   0.913   3.785   4.870 -1.0805 -0.8716  0.9530
  185POPC  C21521291   1.045   3.659   4.750 -0.2786 -0.4002  0.6216
  185POPC  H15R21292   1.131   3.729   4.741 -0.2320 -0.3290  1.5272
  185POPC  H15S21293   1.042   3.595   4.659 -0.2778 -0.7106  0.8373
  185POPC  C21621294   1.093   3.558   4.856  0.2484 -0.3217 -0.5223
  185POPC  H16R21295   1.177   3.497   4.818  0.5646 -1.0267  1.1992
  185POPC  H16S21296   1.022   3.481   4.893 -1.3769  1.3873  0.0877
  185POPC  C21721297   1.141   3.629   4.978  0.3752 -0.8785  0.1995
  185POPC  H17R21298   1.057   3.689   5.019 -0.0772  0.4731 -2.4906
  185POPC  H17S21299   1.234   3.680   4.944  0.8105 -1.3617  0.6507
  185POPC  C21821300   1.191   3.535   5.087  0.4465 -0.1474  0.3499
  185POPC  H18R21301   1.112   3.467   5.124  0.0997 -0.2322 -0.5264
  185POPC  H18S21302   1.228   3.600   5.169 -0.1152  1.9488 -0.9752
  185POPC  H18T21303   1.278   3.474   5.054 -0.9439 -1.2538 -1.4337
  185POPC   C3321304   0.975   4.512   3.950  0.4003 -0.4383  0.1045
  185POPC   H3X21305   0.958   4.596   4.021  2.0714 -1.2613  1.5743
  185POPC   H3Y21306   1.015   4.547   3.853 -0.5239  0.2270 -0.0456
  185POPC   C3421307   1.086   4.428   4.019  0.3773  0.4665 -1.0457
  185POPC   H4X21308   1.099   4.331   3.967 -1.5186  0.0249 -0.7618
  185POPC   H4Y21309   1.051   4.397   4.120  1.3977  2.0922 -0.1496
  185POPC   C3521310   1.225   4.493   4.022  0.2917  0.1846 -0.4083
  185POPC   H5X21311   1.205   4.577   4.092 -0.7641 -2.0363  2.1374
  185POPC   H5Y21312   1.242   4.530   3.919  1.1896  0.1885 -0.2662
  185POPC   C3621313   1.356   4.414   4.050 -1.0609 -0.4280  0.4982
  185POPC   H6X21314   1.436   4.469   3.995 -3.3587  1.4523 -1.1901
  185POPC   H6Y21315   1.350   4.313   4.003  3.9535 -0.3265 -0.9705
  185POPC   C3721316   1.388   4.384   4.195  0.2005  0.2461 -0.4975
  185POPC   H7X21317   1.302   4.342   4.251 -0.3540  2.2208  0.2296
  185POPC   H7Y21318   1.401   4.483   4.243 -0.4208 -0.4707  1.2308
  185POPC   C3821319   1.502   4.295   4.213 -1.6390  0.4250  0.4694
  185POPC   H8X21320   1.594   4.333   4.166 -0.4062  0.0047  2.4212
  185POPC   H8Y21321   1.476   4.198   4.166 -0.4092 -0.7630  2.0823
  185POPC   C3921322   1.539   4.268   4.361 -0.1926  0.6022 -0.0588
  185POPC   H9X21323   1.589   4.364   4.388  0.3141  0.3805 -0.2015
  185POPC   H9Y21324   1.606   4.180   4.365  0.0823  0.7957 -0.4281
  185POPC  C31021325   1.423   4.234   4.463  0.8577  0.0138  0.8472
  185POPC  H10X21326   1.359   4.147   4.437  0.8378  0.4729 -0.7983
  185POPC  H10Y21327   1.345   4.313   4.468 -2.1624 -2.7170  0.0007
  185POPC  C31121328   1.473   4.221   4.603  0.5627  0.8018  0.1090
  185POPC  H11X21329   1.494   4.322   4.643 -0.8432  1.0496  0.2491
  185POPC  H11Y21330   1.565   4.158   4.595  0.8430  1.2476 -0.2306
  185POPC  C31221331   1.377   4.160   4.703  0.1308 -0.0773 -0.4372
  185POPC  H12X21332   1.342   4.062   4.662  1.6935  0.0466 -2.2229
  185POPC  H12Y21333   1.288   4.225   4.711 -1.3906 -2.1259  0.0929
  185POPC  C31321334   1.450   4.132   4.834  0.2279  0.4336  0.2204
  185POPC  H13X21335   1.462   4.233   4.879  0.3421  1.5545 -2.1685
  185POPC  H13Y21336   1.548   4.081   4.825  0.7384  1.5279 -0.7839
  185POPC  C31421337   1.370   4.055   4.932  0.0954 -0.6065 -0.8235
  185POPC  H14X21338   1.392   3.947   4.919  1.2025 -0.5668  0.4834
  185POPC  H14Y21339   1.262   4.078   4.920 -0.0402  0.8045  2.2025
  185POPC  C31521340   1.419   4.084   5.071 -0.1918 -0.6269  0.2403
  185POPC  H15X21341   1.406   4.194   5.076  1.6994 -0.2921 -1.0227
  185POPC  H15Y21342   1.527   4.060   5.080  0.7144  2.6137 -0.6527
  185POPC  C31621343   1.331   4.037   5.186  0.4239 -0.0030 -0.2745
  185POPC  H16X21344   1.329   3.927   5.200 -0.9651 -0.3994 -2.9934
  185POPC  H16Y21345   1.227   4.075   5.184 -1.0515 -3.5151  1.0955
  185POPC  H16Z21346   1.371   4.084   5.279 -0.0172 -0.6780  0.2639
  186POPC     N21347   4.700   6.445   3.325  0.2715 -0.7021 -0.0109
  186POPC   C1221348   4.634   6.373   3.445  0.2083 -0.2772 -0.1394
  186POPC  H12A21349   4.590   6.277   3.420  0.5676 -0.4350 -0.1799
  186POPC  H12B21350   4.560   6.441   3.485  0.6660  0.1798 -0.0541
  186POPC   C1321351   4.721   6.587   3.369 -0.8353  0.7553  0.1569
  186POPC  H13A21352   4.784   6.587   3.456 -1.6593  1.7853  0.7800
  186POPC  H13B21353   4.777   6.644   3.297 -0.4479  0.3237  0.1136
  186POPC  H13C21354   4.635   6.647   3.395 -0.3367  1.6110 -0.1079
  186POPC   C1421355   4.819   6.384   3.268 -0.0134  0.5338  0.0797
  186POPC  H14A21356   4.901   6.379   3.338 -0.0095  2.5078  0.2929
  186POPC  H14B21357   4.794   6.284   3.237 -2.3285  0.5680  1.6438
  186POPC  H14C21358   4.853   6.442   3.182 -1.5516  1.3246 -0.0340
  186POPC   C1521359   4.591   6.455   3.223 -0.2041 -0.2167  0.3697
  186POPC  H15A21360   4.573   6.351   3.201  2.2255 -0.4223 -0.9860
  186POPC  H15B21361   4.621   6.514   3.138 -2.4666  1.9224  0.9200
  186POPC  H15C21362   4.498   6.501   3.256  0.9844  3.6289 -1.0812
  186POPC   C1121363   4.731   6.339   3.567  0.2997 -0.3968 -0.4795
  186POPC  H11A21364   4.671   6.300   3.651 -0.8368  0.0665 -1.0534
  186POPC  H11B21365   4.774   6.437   3.599 -2.6797  0.9030 -0.1044
  186POPC     P21366   4.792   6.093   3.497  0.1926 -0.4683 -0.0343
  186POPC   O1321367   4.912   6.010   3.490  0.0936  0.6153 -0.2693
  186POPC   O1421368   4.715   6.098   3.369  0.0062  0.4750 -0.0094
  186POPC   O1221369   4.824   6.238   3.540 -0.4190 -0.0581  0.0961
  186POPC   O1121370   4.696   6.041   3.613  0.2296  0.1470 -0.6107
  186POPC    C121371   4.752   6.021   3.746 -0.9756  0.2273  0.4891
  186POPC    HA21372   4.812   6.111   3.772 -1.0140  0.4732 -0.2465
  186POPC    HB21373   4.829   5.941   3.747 -0.4157  0.7153 -0.7300
  186POPC    C221374   4.635   6.003   3.850  0.1216 -0.2032 -0.4360
  186POPC    HS21375   4.568   5.923   3.809 -0.1452 -0.1783 -0.0581
  186POPC   O2121376   4.560   6.135   3.857 -0.2423  0.5883  0.1213
  186POPC   C2121377   4.427   6.133   3.871 -0.1172 -0.7643 -1.4841
  186POPC   O2221378   4.364   6.029   3.894  0.2060 -0.5640 -0.1709
  186POPC   C2221379   4.372   6.275   3.836 -0.5665  0.8330  0.1707
  186POPC   H2R21380   4.363   6.283   3.726  0.3194 -0.0994  0.0168
  186POPC   H2S21381   4.457   6.342   3.862 -0.2637  0.1857  0.8842
  186POPC    C321382   4.683   5.956   3.990  0.1612  0.0892 -0.3015
  186POPC    HX21383   4.763   6.027   4.021 -0.8715  0.2775  2.1507
  186POPC    HY21384   4.737   5.860   3.975  2.0634  1.3149 -1.8794
  186POPC   O3121385   4.577   5.944   4.086  0.2185  0.2519  0.4597
  186POPC   C3121386   4.498   5.844   4.063 -1.2403 -0.0750  0.2251
  186POPC   O3221387   4.523   5.755   3.978 -0.1164 -0.3812 -0.1172
  186POPC   C3221388   4.383   5.841   4.167  0.1457 -0.9068 -0.1187
  186POPC   H2X21389   4.337   5.742   4.146  0.0454 -0.9425  0.2730
  186POPC   H2Y21390   4.324   5.931   4.137 -0.4550 -0.8313  1.2525
  186POPC   C2321391   4.258   6.336   3.915  0.1640 -0.9574 -0.0681
  186POPC   H3R21392   4.155   6.303   3.890 -0.3778  0.3836  0.3028
  186POPC   H3S21393   4.248   6.444   3.888 -0.4655 -1.3283 -1.4249
  186POPC   C2421394   4.273   6.336   4.071 -0.5727  0.0048  0.1190
  186POPC   H4R21395   4.301   6.232   4.099  0.4548  0.2952  0.1978
  186POPC   H4S21396   4.174   6.358   4.119  1.4720  3.8724  3.1983
  186POPC   C2521397   4.359   6.448   4.116 -0.0566 -0.4443 -0.3224
  186POPC   H5R21398   4.298   6.539   4.098  1.5166  0.5182 -1.0121
  186POPC   H5S21399   4.446   6.465   4.049  0.1575 -2.6312 -0.6848
  186POPC   C2621400   4.404   6.426   4.263  0.2119  0.8875  0.7317
  186POPC   H6R21401   4.463   6.513   4.301  0.8421  0.9971 -0.4654
  186POPC   H6S21402   4.477   6.342   4.272 -0.5779 -0.1531 -1.7341
  186POPC   C2721403   4.286   6.390   4.355 -0.3289  0.0691  0.2943
  186POPC   H7R21404   4.250   6.289   4.329  0.1552 -0.4221  1.4485
  186POPC   H7S21405   4.198   6.455   4.334 -2.3261 -2.0219  1.7203
  186POPC   C2821406   4.313   6.371   4.509 -0.2193  0.5855 -0.3021
  186POPC   H8R21407   4.417   6.333   4.506 -0.3125  0.2692  0.3272
  186POPC   H8S21408   4.239   6.301   4.553  0.1119  1.4787  1.7698
  186POPC   C2921409   4.295   6.497   4.591 -0.1497  0.2432 -0.3173
  186POPC   H9121410   4.203   6.556   4.580 -0.8610 -0.2751  2.1670
  186POPC  C21021411   4.382   6.532   4.691 -0.2210 -0.3337  0.1066
  186POPC  H10121412   4.364   6.628   4.740 -1.1812 -0.7825  0.6804
  186POPC  C21121413   4.504   6.449   4.729  0.0903  0.3601  1.1938
  186POPC  H11R21414   4.593   6.503   4.689 -1.3489  0.3456 -2.4248
  186POPC  H11S21415   4.501   6.345   4.690 -0.5599  0.0692  1.9982
  186POPC  C21221416   4.500   6.419   4.881  0.3295  0.3780  0.0666
  186POPC  H12R21417   4.583   6.350   4.905 -1.5735 -1.7146  0.9881
  186POPC  H12S21418   4.407   6.363   4.905 -0.8015  0.9221 -2.6178
  186POPC  C21321419   4.515   6.540   4.975  0.4770 -0.6480  0.3530
  186POPC  H13R21420   4.426   6.606   4.967  0.5213 -0.2240  2.6753
  186POPC  H13S21421   4.602   6.598   4.940  0.2652 -1.7674 -2.3034
  186POPC  C21421422   4.546   6.498   5.120 -0.7044 -0.1649 -0.3867
  186POPC  H14R21423   4.583   6.584   5.180  0.3873 -1.4145  0.8045
  186POPC  H14S21424   4.633   6.430   5.112  1.1280  2.1868 -2.0188
  186POPC  C21521425   4.423   6.445   5.196 -0.5120  0.0858  0.1969
  186POPC  H15R21426   4.396   6.351   5.144 -0.6448  1.6990 -2.8101
  186POPC  H15S21427   4.338   6.516   5.197 -1.1433 -0.6546  0.4587
  186POPC  C21621428   4.453   6.424   5.346  0.4147  0.2586 -0.2180
  186POPC  H16R21429   4.554   6.382   5.361  0.9635  0.6896 -2.4115
  186POPC  H16S21430   4.373   6.352   5.374  0.3131  0.0179 -1.1052
  186POPC  C21721431   4.430   6.552   5.433  0.1301  0.3636 -0.6869
  186POPC  H17R21432   4.323   6.585   5.432 -0.2350 -0.5310  1.4849
  186POPC  H17S21433   4.494   6.634   5.396  0.6063 -0.1796 -1.0709
  186POPC  C21821434   4.459   6.544   5.587 -0.4828 -0.2200  0.6259
  186POPC  H18R21435   4.490   6.642   5.629 -0.3459  0.5957 -1.2549
  186POPC  H18S21436   4.374   6.506   5.648 -0.8973  1.7858  1.3640
  186POPC  H18T21437   4.544   6.474   5.602  1.0841  0.9731 -1.8375
  186POPC   C3321438   4.426   5.848   4.318 -0.1228  0.8366  0.8743
  186POPC   H3X21439   4.512   5.781   4.340 -0.0235  1.0597  1.1536
  186POPC   H3Y21440   4.335   5.814   4.371  0.1460 -1.5296 -0.0376
  186POPC   C3421441   4.464   5.988   4.366  0.3912 -0.0848 -0.3835
  186POPC   H4X21442   4.384   6.054   4.323  0.6345  0.3181 -0.2271
  186POPC   H4Y21443   4.562   6.027   4.332  1.4361 -1.5209  0.8779
  186POPC   C3521444   4.438   6.025   4.521 -0.0850 -0.3070 -0.3147
  186POPC   H5X21445   4.333   6.046   4.552  0.1133  0.2621 -0.0230
  186POPC   H5Y21446   4.497   6.119   4.524 -2.6580  1.3920  0.4774
  186POPC   C3621447   4.503   5.928   4.613  0.1044  0.3542  0.2303
  186POPC   H6X21448   4.611   5.914   4.595  0.6207  2.1810  1.5764
  186POPC   H6Y21449   4.436   5.839   4.619  0.0923  0.4380  1.5275
  186POPC   C3721450   4.515   5.984   4.755 -0.2488 -0.4857 -0.2208
  186POPC   H7X21451   4.410   6.016   4.774 -1.5173 -1.9490 -3.8213
  186POPC   H7Y21452   4.592   6.061   4.773 -1.1860  0.1664  1.2273
  186POPC   C3821453   4.556   5.868   4.852 -0.3014  0.1943 -0.9846
  186POPC   H8X21454   4.649   5.821   4.814 -1.1217 -0.5449 -2.1356
  186POPC   H8Y21455   4.484   5.785   4.867 -0.9041  0.5577 -1.7596
  186POPC   C3921456   4.594   5.936   4.985  0.1647  0.0755 -0.4908
  186POPC   H9X21457   4.649   6.032   4.974  1.4287 -0.3980  1.2307
  186POPC   H9Y21458   4.659   5.869   5.045  0.0346 -0.5120 -0.9945
  186POPC  C31021459   4.476   5.966   5.075 -0.4190 -0.1112 -0.5693
  186POPC  H10X21460   4.420   5.876   5.110  3.4296 -1.9910  1.4771
  186POPC  H10Y21461   4.415   6.039   5.018  0.1273  1.4147  0.7385
  186POPC  C31121462   4.516   6.045   5.199  0.1362  0.1772  0.5607
  186POPC  H11X21463   4.425   6.086   5.248  1.4269  1.1186  2.2321
  186POPC  H11Y21464   4.584   6.127   5.168  1.5645 -2.3800 -4.0086
  186POPC  C31221465   4.599   5.962   5.296 -0.0823  0.4568  0.1532
  186POPC  H12X21466   4.708   5.972   5.276 -0.1152  0.3323 -0.0890
  186POPC  H12Y21467   4.578   5.853   5.293  0.7513  0.2230  1.6703
  186POPC  C31321468   4.589   6.006   5.441 -0.6735 -0.9281  0.1403
  186POPC  H13X21469   4.618   6.113   5.441 -0.8754 -0.8592 -1.1580
  186POPC  H13Y21470   4.663   5.953   5.505 -0.7678 -1.7861 -0.4450
  186POPC  C31421471   4.447   6.017   5.498  0.3707 -0.3287  0.1749
  186POPC  H14X21472   4.389   5.928   5.464  0.3051 -0.6481  1.0921
  186POPC  H14Y21473   4.396   6.103   5.448  1.0680  0.3626  0.6379
  186POPC  C31521474   4.449   6.030   5.652 -0.0456  0.5495  0.5903
  186POPC  H15X21475   4.502   5.942   5.696  0.7310  0.5398 -0.3184
  186POPC  H15Y21476   4.344   6.016   5.685 -0.6130  1.4816 -0.7396
  186POPC  C31621477   4.529   6.148   5.701 -0.0845 -0.0321  0.0083
  186POPC  H16X21478   4.475   6.227   5.645 -0.3889 -1.6910 -2.1444
  186POPC  H16Y21479   4.634   6.170   5.673  0.3267 -0.1510  1.3616
  186POPC  H16Z21480   4.517   6.158   5.811 -0.1101  4.0199 -0.2151
  187POPC     N21481   2.731   3.171   3.448  0.7262  0.0274  0.2880
  187POPC   C1221482   2.778   3.245   3.570 -0.2121 -0.5878  0.1754
  187POPC  H12A21483   2.720   3.336   3.573  1.0197  0.2343 -0.0219
  187POPC  H12B21484   2.878   3.281   3.551 -0.4661  0.1014  0.1151
  187POPC   C1321485   2.586   3.159   3.453 -0.0176  0.0769  0.1078
  187POPC  H13A21486   2.543   3.160   3.552  0.4975 -0.4960  0.3413
  187POPC  H13B21487   2.528   3.238   3.406 -2.5134 -1.3058  0.6766
  187POPC  H13C21488   2.545   3.076   3.397 -0.9708  1.6725 -1.6838
  187POPC   C1421489   2.764   3.248   3.321 -0.0720 -0.8672  0.3450
  187POPC  H14A21490   2.745   3.186   3.235 -0.3798 -0.2562 -0.0316
  187POPC  H14B21491   2.717   3.345   3.315 -1.4374 -1.4811  0.6471
  187POPC  H14C21492   2.867   3.279   3.308 -0.8140  1.5958 -0.0138
  187POPC   C1521493   2.803   3.036   3.428  0.5234 -0.1845 -0.6387
  187POPC  H15A21494   2.809   2.989   3.331  3.4293  1.1248 -1.2194
  187POPC  H15B21495   2.743   2.979   3.497 -0.0233  0.5191 -0.5163
  187POPC  H15C21496   2.899   3.041   3.478  0.1317  0.9551  0.0484
  187POPC   C1121497   2.788   3.177   3.707  0.0716 -0.4066 -0.1343
  187POPC  H11A21498   2.692   3.127   3.735  1.3479 -1.9956  1.6786
  187POPC  H11B21499   2.798   3.246   3.793 -2.1362  0.0487 -0.1862
  187POPC     P21500   3.041   3.140   3.731 -0.1173  0.4520 -0.3552
  187POPC   O1321501   3.047   3.274   3.664 -1.2499  0.1019  0.0788
  187POPC   O1421502   3.140   3.041   3.688 -0.6369 -0.1395  1.2755
  187POPC   O1221503   2.899   3.085   3.700 -0.0403 -0.4263 -0.5589
  187POPC   O1121504   3.038   3.162   3.894 -0.2811 -0.1995 -0.2455
  187POPC    C121505   3.010   3.051   3.977 -0.5672 -0.2011 -0.3030
  187POPC    HA21506   3.095   3.039   4.047 -0.9322  3.5344  0.9978
  187POPC    HB21507   3.014   2.951   3.929 -1.7787 -0.2402 -0.3440
  187POPC    C221508   2.873   3.070   4.053 -0.2572  0.4241 -0.4152
  187POPC    HS21509   2.790   3.073   3.979 -0.4230  1.3482 -0.2079
  187POPC   O2121510   2.889   3.194   4.132 -0.2950 -0.5381 -0.0659
  187POPC   C2121511   2.761   3.237   4.162  0.2711 -0.5381  0.4629
  187POPC   O2221512   2.662   3.176   4.136 -0.2553 -0.3695 -0.4556
  187POPC   C2221513   2.779   3.382   4.206  0.5132  0.1102 -0.1294
  187POPC   H2R21514   2.719   3.433   4.129 -2.1299 -1.0017  1.0693
  187POPC   H2S21515   2.883   3.422   4.205  0.6984 -0.3762 -0.7293
  187POPC    C321516   2.850   2.935   4.144 -0.1530  0.1254  0.5282
  187POPC    HX21517   2.825   2.851   4.075  0.0214  1.2283 -0.9215
  187POPC    HY21518   2.763   2.945   4.213 -0.5274  1.8662 -0.1454
  187POPC   O3121519   2.969   2.898   4.212 -0.1824  0.4075 -0.1827
  187POPC   C3121520   2.971   2.939   4.339  0.4253 -0.4474  0.6691
  187POPC   O3221521   2.875   2.975   4.402 -0.2669 -0.3123 -0.2222
  187POPC   C3221522   3.110   2.967   4.380 -0.1592 -0.0437 -0.7035
  187POPC   H2X21523   3.148   3.059   4.329  0.0341  0.6113  0.5814
  187POPC   H2Y21524   3.164   2.874   4.353  1.0092  0.5583 -0.5325
  187POPC   C2321525   2.721   3.406   4.350  0.1754  0.2599  0.0906
  187POPC   H3R21526   2.642   3.334   4.380  0.6959  0.2240  1.4110
  187POPC   H3S21527   2.694   3.512   4.368  2.1774  0.6087  1.3050
  187POPC   C2421528   2.837   3.387   4.456 -0.0777  0.8066 -0.3574
  187POPC   H4R21529   2.936   3.398   4.406 -0.3407 -0.2336 -1.1338
  187POPC   H4S21530   2.826   3.282   4.489 -0.1941  0.9413  0.0366
  187POPC   C2521531   2.822   3.470   4.586  0.5965 -0.8820  0.0391
  187POPC   H5R21532   2.727   3.462   4.643  0.1833  3.1858  0.2038
  187POPC   H5S21533   2.832   3.577   4.559 -0.4406 -1.2966 -2.1169
  187POPC   C2621534   2.925   3.442   4.690 -0.3960  0.2389  0.3633
  187POPC   H6R21535   3.019   3.416   4.637 -0.4720 -0.3762  0.5168
  187POPC   H6S21536   2.893   3.343   4.730  0.8409 -0.0394  0.7114
  187POPC   C2721537   2.929   3.544   4.799 -0.8895 -0.1648 -0.5465
  187POPC   H7R21538   2.835   3.524   4.854 -1.0674  1.0536 -0.3803
  187POPC   H7S21539   2.933   3.634   4.734  0.9359 -0.6850 -1.2200
  187POPC   C2821540   3.051   3.540   4.878 -0.0597  0.0858  0.3645
  187POPC   H8R21541   3.150   3.544   4.827 -0.4511  0.2921 -0.3879
  187POPC   H8S21542   3.055   3.448   4.940 -1.2141  0.0893  0.4671
  187POPC   C2921543   3.039   3.665   4.977 -0.2171  0.1814 -0.6351
  187POPC   H9121544   3.078   3.759   4.937  0.9590  0.6532  1.4623
  187POPC  C21021545   2.987   3.668   5.101 -0.3122 -0.5072  0.0252
  187POPC  H10121546   2.987   3.763   5.156  1.2935  1.1949 -2.7353
  187POPC  C21121547   2.941   3.552   5.190  0.3482  0.1017  0.0031
  187POPC  H11R21548   3.006   3.540   5.279  0.1458  2.6917  0.6084
  187POPC  H11S21549   2.950   3.452   5.144  1.6276  0.4507 -0.5484
  187POPC  C21221550   2.793   3.570   5.234  0.0961  0.6552 -0.1649
  187POPC  H12R21551   2.732   3.531   5.149  1.9967  0.9945 -1.7799
  187POPC  H12S21552   2.770   3.678   5.247  3.4175  1.8809 -2.7761
  187POPC  C21321553   2.758   3.502   5.373 -0.5273 -0.1195  0.7439
  187POPC  H13R21554   2.827   3.541   5.451 -1.1757  1.2158  0.6842
  187POPC  H13S21555   2.776   3.392   5.375  0.2798 -0.0157 -0.1858
  187POPC  C21421556   2.602   3.507   5.417 -0.0315 -0.5736 -0.4138
  187POPC  H14R21557   2.588   3.465   5.520 -0.2552  1.0322  0.2344
  187POPC  H14S21558   2.535   3.450   5.350  0.4439 -3.2172  1.1986
  187POPC  C21521559   2.557   3.654   5.452  0.4525 -0.0109  0.3995
  187POPC  H15R21560   2.568   3.701   5.352 -1.5662  0.3349  0.3055
  187POPC  H15S21561   2.634   3.706   5.513  2.0868 -1.5585 -0.2421
  187POPC  C21621562   2.415   3.669   5.497  0.2555 -0.5655 -0.6840
  187POPC  H16R21563   2.401   3.708   5.600 -2.6002  0.2525 -1.3002
  187POPC  H16S21564   2.371   3.567   5.504 -0.1155 -0.2930  1.5807
  187POPC  C21721565   2.335   3.763   5.414 -0.0829  0.3373  0.8497
  187POPC  H17R21566   2.332   3.734   5.306  0.7530 -0.3370  0.9928
  187POPC  H17S21567   2.403   3.851   5.412  0.6562 -0.1461 -2.4528
  187POPC  C21821568   2.197   3.792   5.466 -0.7032 -0.3042 -0.0075
  187POPC  H18R21569   2.124   3.727   5.414 -1.0347 -0.7080  0.9408
  187POPC  H18S21570   2.169   3.899   5.451  2.3362  0.5700  0.0287
  187POPC  H18T21571   2.186   3.775   5.576  0.6736  0.8276  0.3324
  187POPC   C3321572   3.118   2.979   4.531 -0.0534  0.0971  0.6613
  187POPC   H3X21573   3.219   2.937   4.552  0.8639 -0.5056 -3.8651
  187POPC   H3Y21574   3.034   2.924   4.579 -1.2309  2.1088  1.0049
  187POPC   C3421575   3.109   3.127   4.576 -0.2088  0.4631  0.4142
  187POPC   H4X21576   3.008   3.160   4.545 -1.7734 -4.2229 -0.3151
  187POPC   H4Y21577   3.196   3.183   4.535  1.0612 -0.2625  2.0069
  187POPC   C3521578   3.120   3.138   4.729 -0.1066  0.4719  0.2506
  187POPC   H5X21579   3.146   3.245   4.749  0.1207  0.4509  0.0765
  187POPC   H5Y21580   3.207   3.078   4.764 -3.6597 -3.2931  3.6504
  187POPC   C3621581   2.994   3.093   4.804 -0.1879 -0.5991 -0.0732
  187POPC   H6X21582   3.008   2.983   4.813  1.1892 -0.6122 -1.7972
  187POPC   H6Y21583   2.905   3.113   4.739  0.8575  2.6545 -0.6934
  187POPC   C3721584   2.973   3.148   4.944  0.4380 -0.2513  0.2302
  187POPC   H7X21585   2.868   3.126   4.976  0.3089  1.6964  1.2833
  187POPC   H7Y21586   2.982   3.258   4.944  1.4446 -0.3213  0.7076
  187POPC   C3821587   3.066   3.085   5.048  0.2943 -1.0660  0.3720
  187POPC   H8X21588   3.167   3.124   5.025  0.4517 -1.5601  0.2019
  187POPC   H8Y21589   3.059   2.974   5.053  2.0534 -1.2505 -0.4591
  187POPC   C3921590   3.021   3.122   5.193 -0.7316  0.2108  0.1611
  187POPC   H9X21591   2.997   3.028   5.247 -1.4112 -1.4922 -2.8733
  187POPC   H9Y21592   2.929   3.184   5.200 -2.3016 -2.0275  0.2105
  187POPC  C31021593   3.126   3.202   5.281 -0.0731  0.1327  0.1727
  187POPC  H10X21594   3.136   3.302   5.233  1.1564 -0.0765 -0.0506
  187POPC  H10Y21595   3.224   3.154   5.261  0.7014  0.8972  1.9127
  187POPC  C31121596   3.090   3.212   5.430 -0.5805 -0.1858  0.1338
  187POPC  H11X21597   2.994   3.268   5.435 -0.7345 -0.4736  0.4174
  187POPC  H11Y21598   3.169   3.273   5.479 -0.6849 -0.3791  0.5479
  187POPC  C31221599   3.067   3.086   5.515 -0.6514 -0.2658 -0.2001
  187POPC  H12X21600   3.144   3.007   5.497 -2.0613 -1.5337 -0.8672
  187POPC  H12Y21601   2.971   3.046   5.475  0.7403 -1.2993 -2.8143
  187POPC  C31321602   3.077   3.119   5.660  0.4365  0.0759  0.2071
  187POPC  H13X21603   3.003   3.197   5.689  1.7795  0.8137  1.8152
  187POPC  H13Y21604   3.168   3.177   5.685 -0.6507  2.5312 -1.0762
  187POPC  C31421605   3.067   3.002   5.760  0.1515  0.6194  0.3288
  187POPC  H14X21606   3.135   2.921   5.726 -0.2469 -0.1177  1.2301
  187POPC  H14Y21607   2.963   2.963   5.762  1.2950 -2.9920 -1.3839
  187POPC  C31521608   3.085   3.040   5.910  0.4095 -0.4004 -0.4293
  187POPC  H15X21609   3.010   3.118   5.934  0.5791 -0.2618 -0.3539
  187POPC  H15Y21610   3.188   3.079   5.924 -0.4025  1.8057 -0.2962
  187POPC  C31621611   3.064   2.927   6.009  0.5075  0.6080 -0.1294
  187POPC  H16X21612   2.973   2.870   5.981  0.4945  0.8036 -0.4900
  187POPC  H16Y21613   3.061   2.959   6.115  1.7138  0.7377 -0.1187
  187POPC  H16Z21614   3.149   2.855   6.009  0.0995  0.0818  1.5336
  188POPC     N21615   3.728   5.252   3.372  0.0592 -1.1729  0.0684
  188POPC   C1221616   3.853   5.293   3.450  0.5498 -0.5190  0.8300
  188POPC  H12A21617   3.900   5.373   3.397  2.3710 -0.8967  1.7904
  188POPC  H12B21618   3.924   5.212   3.455  1.1136 -0.1110 -0.4115
  188POPC   C1321619   3.630   5.366   3.368  0.1942 -0.1186 -0.1619
  188POPC  H13A21620   3.535   5.340   3.323 -0.3842  0.6586  0.5854
  188POPC  H13B21621   3.612   5.392   3.471 -2.3363  0.7761 -0.7591
  188POPC  H13C21622   3.674   5.457   3.329 -1.6668  1.1333  0.5194
  188POPC   C1421623   3.774   5.220   3.232 -0.1525  0.6675 -0.0217
  188POPC  H14A21624   3.860   5.155   3.233  1.8777  3.1071 -2.1449
  188POPC  H14B21625   3.690   5.191   3.170  1.2427 -4.4412  0.0403
  188POPC  H14C21626   3.815   5.304   3.178  0.6480 -0.5036 -1.3191
  188POPC   C1521627   3.667   5.136   3.431 -0.6744  0.4705  0.4122
  188POPC  H15A21628   3.642   5.154   3.535 -0.3082  0.5660  0.4838
  188POPC  H15B21629   3.731   5.049   3.420 -1.1375  0.3354 -1.5029
  188POPC  H15C21630   3.572   5.111   3.386 -0.2695  0.5883 -0.5223
  188POPC   C1121631   3.836   5.366   3.593 -0.0676 -0.9173 -0.6027
  188POPC  H11A21632   3.759   5.446   3.593 -0.0564 -0.8075 -3.2248
  188POPC  H11B21633   3.931   5.420   3.612  0.0620 -1.4451  0.3177
  188POPC     P21634   3.916   5.165   3.737  0.4771 -0.0987  0.2062
  188POPC   O1321635   4.024   5.150   3.637 -0.1179  0.3231  0.3765
  188POPC   O1421636   3.850   5.040   3.782 -0.2006  0.3711 -0.3270
  188POPC   O1221637   3.805   5.267   3.691  0.1884 -0.1713  0.0181
  188POPC   O1121638   3.978   5.242   3.860  0.6213  0.1034 -0.1081
  188POPC    C121639   3.892   5.300   3.962  0.1890 -0.1265  0.0997
  188POPC    HA21640   3.784   5.276   3.957 -0.2666  1.5273  1.1672
  188POPC    HB21641   3.909   5.410   3.949 -0.0136 -0.3140 -2.2903
  188POPC    C221642   3.949   5.259   4.096  0.3983 -0.0779 -0.2757
  188POPC    HS21643   3.888   5.312   4.172 -0.0266  0.8309 -1.2297
  188POPC   O2121644   4.088   5.279   4.118  0.1141 -0.0591 -0.4156
  188POPC   C2121645   4.123   5.400   4.171  0.3095  0.4595  0.5068
  188POPC   O2221646   4.050   5.495   4.192  0.1374 -0.2890  0.0754
  188POPC   C2221647   4.277   5.406   4.197  0.6471 -0.1873 -0.2165
  188POPC   H2R21648   4.321   5.442   4.102 -0.6676  1.6804 -0.1557
  188POPC   H2S21649   4.318   5.303   4.210  0.5034 -0.5265 -2.1643
  188POPC    C321650   3.924   5.111   4.136  0.1536 -0.1036  0.6148
  188POPC    HX21651   3.997   5.043   4.085  0.7853  0.4334  0.7912
  188POPC    HY21652   3.825   5.084   4.093  0.2234  0.3821  0.1419
  188POPC   O3121653   3.909   5.096   4.276 -0.1082 -0.3058 -0.4443
  188POPC   C3121654   4.010   5.054   4.351  0.2778 -0.4658 -0.2897
  188POPC   O3221655   4.113   5.008   4.314  0.0185 -0.3449 -0.2258
  188POPC   C3221656   3.966   5.059   4.498 -0.6194 -0.2126 -0.5642
  188POPC   H2X21657   3.915   4.965   4.529  1.7521 -1.0466  1.1288
  188POPC   H2Y21658   3.896   5.144   4.513 -2.3055 -1.8904  1.9906
  188POPC   C2321659   4.321   5.489   4.310 -0.2915 -0.6207  0.7636
  188POPC   H3R21660   4.280   5.592   4.311 -0.2461 -0.5998  1.7219
  188POPC   H3S21661   4.430   5.510   4.306 -0.6212  1.1248  0.4807
  188POPC   C2421662   4.289   5.421   4.449 -0.1552 -0.0223  0.6736
  188POPC   H4R21663   4.336   5.320   4.446 -3.1062 -1.5103 -0.4537
  188POPC   H4S21664   4.181   5.395   4.451 -0.1386 -0.1061  0.5478
  188POPC   C2521665   4.326   5.509   4.574 -0.0175  0.8587 -0.2853
  188POPC   H5R21666   4.292   5.615   4.565 -2.2514  0.3887  1.5825
  188POPC   H5S21667   4.437   5.506   4.567 -0.0355  1.3663 -0.8569
  188POPC   C2621668   4.269   5.451   4.701 -0.8316  0.3218 -0.3638
  188POPC   H6R21669   4.267   5.340   4.694 -0.6026  0.2228  0.9112
  188POPC   H6S21670   4.164   5.486   4.706 -0.1477  2.6930 -1.4044
  188POPC   C2721671   4.358   5.502   4.819 -0.4282 -0.2920  0.0060
  188POPC   H7R21672   4.344   5.612   4.824  0.9662  0.1491 -3.3169
  188POPC   H7S21673   4.464   5.483   4.790 -0.4295  0.2598 -0.3649
  188POPC   C2821674   4.339   5.434   4.960  0.0513 -0.2665  0.4024
  188POPC   H8R21675   4.420   5.469   5.027 -1.3600  0.8944  1.6036
  188POPC   H8S21676   4.351   5.326   4.936 -2.1965 -0.6129  0.6062
  188POPC   C2921677   4.205   5.450   5.026  0.2535 -0.8440  0.0249
  188POPC   H9121678   4.125   5.434   4.953 -0.8160  3.4334 -0.0272
  188POPC  C21021679   4.186   5.500   5.150 -0.4985  0.1265 -0.1689
  188POPC  H10121680   4.086   5.491   5.194 -0.7953 -2.2300 -1.1776
  188POPC  C21121681   4.290   5.556   5.245  0.0272 -0.3711  0.3409
  188POPC  H11R21682   4.256   5.647   5.298  0.5310  0.4076 -0.6365
  188POPC  H11S21683   4.376   5.595   5.186 -0.9344  0.1592 -0.7490
  188POPC  C21221684   4.340   5.446   5.338  0.6852  0.2642 -0.3427
  188POPC  H12R21685   4.391   5.363   5.285  2.8361  0.5623  1.1028
  188POPC  H12S21686   4.256   5.397   5.391  0.0413 -1.9938 -3.1924
  188POPC  C21321687   4.439   5.503   5.440 -0.2281  0.5332  0.0152
  188POPC  H13R21688   4.385   5.591   5.480 -1.0116  0.7274 -1.3812
  188POPC  H13S21689   4.537   5.528   5.394 -1.4869  1.8993 -2.0910
  188POPC  C21421690   4.476   5.400   5.551  0.9213  0.2078 -0.0453
  188POPC  H14R21691   4.555   5.338   5.504  1.0951  0.8997 -0.6892
  188POPC  H14S21692   4.383   5.343   5.575  0.9897  0.2046  0.2107
  188POPC  C21521693   4.506   5.450   5.693  0.2567 -0.2196 -0.3926
  188POPC  H15R21694   4.408   5.481   5.735 -0.2003  0.5893 -1.9844
  188POPC  H15S21695   4.573   5.539   5.690 -1.1286  0.8350 -0.6244
  188POPC  C21621696   4.580   5.343   5.774 -0.0759  0.2845  0.0197
  188POPC  H16R21697   4.671   5.293   5.736  0.3170  0.2323  1.0080
  188POPC  H16S21698   4.504   5.262   5.787  0.0221  0.3492  1.0861
  188POPC  C21721699   4.622   5.392   5.920  0.3606  0.4699  0.2028
  188POPC  H17R21700   4.549   5.469   5.955 -1.2088 -1.6574  1.8687
  188POPC  H17S21701   4.721   5.441   5.902  1.3301 -2.2365 -2.9154
  188POPC  C21821702   4.650   5.289   6.023 -0.2086 -0.4781 -0.3276
  188POPC  H18R21703   4.563   5.223   6.041 -1.0048  0.4851 -0.5428
  188POPC  H18S21704   4.676   5.338   6.119 -0.2171 -1.5980  0.2574
  188POPC  H18T21705   4.736   5.228   5.989  0.8276  0.6244  0.2240
  188POPC   C3321706   4.083   5.076   4.599 -0.1834  0.1102 -0.4829
  188POPC   H3X21707   4.135   5.172   4.580 -1.7364  0.7594 -1.7264
  188POPC   H3Y21708   4.161   5.000   4.579  1.7097  2.1480 -1.2320
  188POPC   C3421709   4.030   5.066   4.748 -0.0835 -0.1313  0.7765
  188POPC   H4X21710   4.011   4.957   4.758  3.3846 -0.8256  1.1890
  188POPC   H4Y21711   3.944   5.135   4.764  1.2070  2.0885 -1.1728
  188POPC   C3521712   4.129   5.096   4.858  0.2379 -0.5194 -0.8561
  188POPC   H5X21713   4.155   5.204   4.857 -1.9689  0.0409 -1.2177
  188POPC   H5Y21714   4.224   5.039   4.847  0.1660 -1.0443  0.8367
  188POPC   C3621715   4.073   5.064   5.001 -0.9472  0.0609 -0.0428
  188POPC   H6X21716   4.010   4.973   5.008 -1.9973  0.7043 -0.6263
  188POPC   H6Y21717   4.004   5.147   5.028  1.2353  1.4733  1.5194
  188POPC   C3721718   4.186   5.051   5.107  0.0045  0.0022  0.5567
  188POPC   H7X21719   4.247   5.143   5.122  0.3149  0.0121 -0.6150
  188POPC   H7Y21720   4.258   4.982   5.056  0.8284  1.6980 -0.6829
  188POPC   C3821721   4.151   4.976   5.237  0.2742  0.1765  0.3248
  188POPC   H8X21722   4.103   4.880   5.205  0.9043 -0.6247  1.6922
  188POPC   H8Y21723   4.080   5.048   5.283  3.3637  2.2864  2.0971
  188POPC   C3921724   4.272   4.963   5.330  0.2258 -0.5874 -0.2549
  188POPC   H9X21725   4.336   5.054   5.331 -2.4288  1.3677 -0.2193
  188POPC   H9Y21726   4.333   4.878   5.290 -0.6695 -1.4623  0.1949
  188POPC  C31021727   4.236   4.926   5.476  0.1810  0.2350 -0.6743
  188POPC  H10X21728   4.316   4.865   5.522 -0.4934 -0.0048  0.2185
  188POPC  H10Y21729   4.151   4.854   5.469  1.3587 -1.3876  0.7762
  188POPC  C31121730   4.199   5.054   5.562 -0.1794  1.1681 -0.0381
  188POPC  H11X21731   4.091   5.062   5.540 -1.0810 -4.0194  1.2382
  188POPC  H11Y21732   4.253   5.145   5.527 -0.3365  0.9921 -0.7450
  188POPC  C31221733   4.219   5.040   5.720  0.1146 -0.7258 -0.5318
  188POPC  H12X21734   4.328   5.020   5.728  0.1302 -0.4346  0.0223
  188POPC  H12Y21735   4.173   4.947   5.761  1.6164 -0.8046  1.0743
  188POPC  C31321736   4.189   5.170   5.796  0.4239  0.0836  0.1920
  188POPC  H13X21737   4.080   5.190   5.791  0.2788 -0.0287  2.0056
  188POPC  H13Y21738   4.250   5.250   5.749 -1.1085  0.4840 -1.1963
  188POPC  C31421739   4.240   5.173   5.937 -0.2517  0.1481 -0.3214
  188POPC  H14X21740   4.349   5.155   5.924 -0.4939 -0.6170 -1.4715
  188POPC  H14Y21741   4.190   5.093   5.995 -1.4112  1.8176  1.0664
  188POPC  C31521742   4.214   5.301   6.007 -0.1788 -0.4901 -0.6513
  188POPC  H15X21743   4.268   5.382   5.955  2.0071 -0.2957  1.7352
  188POPC  H15Y21744   4.252   5.295   6.111 -2.7900  0.6015  0.4587
  188POPC  C31621745   4.065   5.337   6.024  0.3981  0.0281  0.2227
  188POPC  H16X21746   4.058   5.424   6.092 -4.3204 -1.4292  1.9523
  188POPC  H16Y21747   4.011   5.251   6.068  1.4142 -3.0121 -3.8089
  188POPC  H16Z21748   4.020   5.357   5.924  2.1144 -1.4776 -0.9221
  189SAPI   C1221749   2.881   3.531   8.270 -0.5620 -0.2509 -0.2863
  189SAPI    H221750   2.911   3.566   8.169  1.0521  0.2505  0.3351
  189SAPI    O221751   2.983   3.509   8.363  0.1010  0.0048  0.4569
  189SAPI   HO221752   3.065   3.484   8.320 -0.7963 -1.3602 -0.5418
  189SAPI   C1321753   2.790   3.642   8.312 -0.4414  0.2275  0.2832
  189SAPI    H321754   2.711   3.645   8.235  1.0176 -1.8904 -1.4119
  189SAPI    O321755   2.866   3.765   8.309  0.6654  0.3227 -0.3259
  189SAPI   HO321756   2.861   3.810   8.224 -1.1275  0.3870 -0.2354
  189SAPI   C1421757   2.742   3.626   8.452 -0.0858 -0.3382  0.7557
  189SAPI    H421758   2.829   3.651   8.517  0.4486  1.5047 -0.6051
  189SAPI    O421759   2.641   3.726   8.483 -0.2717  0.7915 -0.1028
  189SAPI   HO421760   2.668   3.809   8.443  0.2339  0.8950  0.4415
  189SAPI   C1521761   2.696   3.487   8.487 -0.1532  0.2214  0.0470
  189SAPI    H521762   2.592   3.482   8.450  0.5382 -0.7004 -1.8848
  189SAPI    O521763   2.692   3.457   8.625 -0.1234 -0.0383 -1.0927
  189SAPI   HO521764   2.783   3.467   8.654 -1.1382  2.2599  1.7973
  189SAPI   C1621765   2.757   3.373   8.406  0.6444 -0.0187  0.0295
  189SAPI    H621766   2.848   3.341   8.461  1.1059 -0.1618 -0.8034
  189SAPI    O621767   2.674   3.254   8.411 -0.1521 -0.5113 -0.1093
  189SAPI   HO621768   2.720   3.180   8.371 -1.2801 -1.0030 -0.5313
  189SAPI   C1121769   2.794   3.408   8.267  0.0327 -0.1240 -0.1752
  189SAPI    H121770   2.698   3.429   8.217  1.3617  0.6258 -2.5443
  189SAPI     P21771   2.845   3.272   8.050 -0.0749 -0.0859 -0.2699
  189SAPI   O1321772   2.704   3.288   8.013 -0.2012  0.1265  0.6892
  189SAPI   O1421773   2.908   3.145   8.021 -1.1434  0.1002 -0.6261
  189SAPI   O1221774   2.870   3.306   8.208  0.2409  0.0836  0.3520
  189SAPI   O1121775   2.918   3.395   7.985 -0.1322 -0.0951 -0.7959
  189SAPI    C121776   3.059   3.397   7.985 -0.7832 -0.7787 -0.1157
  189SAPI    HA21777   3.101   3.490   8.028 -0.8725 -2.0344  2.9675
  189SAPI    HB21778   3.112   3.325   8.051  2.5389  1.8587  0.4115
  189SAPI    C221779   3.119   3.403   7.849 -0.2256  0.9118  0.3748
  189SAPI    HS21780   3.229   3.408   7.864 -0.4424 -0.6164  2.9312
  189SAPI   O2121781   3.070   3.513   7.776 -0.0068  0.3123  0.8957
  189SAPI   C2121782   3.120   3.628   7.804  0.2609 -0.3585  0.7197
  189SAPI   O2221783   3.217   3.647   7.873  0.1973  0.1324 -0.1895
  189SAPI   C2221784   3.037   3.733   7.731 -0.4504 -0.1862 -0.6579
  189SAPI   H2R21785   2.934   3.699   7.705 -0.1111 -0.6787 -1.3588
  189SAPI   H2S21786   3.025   3.820   7.800  0.6967  0.3018 -1.0502
  189SAPI    C321787   3.088   3.270   7.775 -0.4329  0.6921  1.0406
  189SAPI    HX21788   2.983   3.291   7.747  0.0563  0.0863 -1.5000
  189SAPI    HY21789   3.100   3.185   7.846  1.5732  0.8825  0.9931
  189SAPI   O3121790   3.168   3.253   7.653 -0.1306 -0.0983 -0.0871
  189SAPI   C3121791   3.271   3.174   7.666 -0.1154  0.7535  0.5046
  189SAPI   O3221792   3.299   3.113   7.769 -0.1017  0.2930 -0.2909
  189SAPI   C3221793   3.347   3.168   7.528  0.4789 -0.3476 -0.4384
  189SAPI   H2X21794   3.449   3.192   7.566 -0.4794  1.5894  1.1072
  189SAPI   H2Y21795   3.319   3.242   7.450  0.4985 -1.1137 -1.1845
  189SAPI   C2321796   3.117   3.788   7.613  0.2721 -0.7030 -0.3085
  189SAPI   H3R21797   3.209   3.841   7.648 -0.0585 -0.0357 -0.4361
  189SAPI   H3S21798   3.052   3.867   7.569 -1.2377 -2.1448 -0.7425
  189SAPI   C2421799   3.132   3.694   7.494 -0.4613 -0.1315 -0.5850
  189SAPI   H4R21800   3.206   3.615   7.515  0.3828  1.0729  1.3144
  189SAPI   H4S21801   3.168   3.762   7.414 -0.7974  0.9685  0.1600
  189SAPI   C2521802   2.997   3.634   7.459 -0.5980  0.0651  0.5900
  189SAPI   H5R21803   2.915   3.622   7.531 -2.0866  0.6572 -0.9588
  189SAPI   C2621804   2.971   3.614   7.327 -0.1572  1.0089  0.1753
  189SAPI   H6R21805   2.871   3.585   7.292  0.9433 -0.1073 -2.2374
  189SAPI   C2721806   3.065   3.623   7.209  0.2094  0.3755  0.5305
  189SAPI   H7R21807   3.010   3.565   7.132 -2.5281  2.8764  0.4379
  189SAPI   H7S21808   3.162   3.578   7.241  1.4438 -1.3041 -4.6140
  189SAPI   C2821809   3.065   3.761   7.158  0.3387  0.1882 -0.2434
  189SAPI   H8R21810   3.101   3.838   7.228 -3.6450  1.9542  0.1246
  189SAPI   C2921811   3.020   3.803   7.040  0.4319  0.3234 -0.1014
  189SAPI   H9R21812   3.020   3.910   7.014  2.7677  0.2679 -0.5618
  189SAPI  C21021813   2.982   3.709   6.925 -0.3136  0.0646  0.0340
  189SAPI  H10R21814   2.906   3.630   6.946 -1.4139  1.1457  0.2378
  189SAPI  H10S21815   3.077   3.654   6.912 -1.4870 -2.1175  0.1864
  189SAPI  C21121816   2.944   3.795   6.805  0.5163 -0.3214  0.6349
  189SAPI  H11R21817   3.029   3.827   6.742  0.1360  0.4743  0.5147
  189SAPI  C21221818   2.827   3.858   6.790  0.0407  0.2942  0.5767
  189SAPI  H12R21819   2.811   3.920   6.700  1.6501  0.2485  0.2232
  189SAPI  C21321820   2.697   3.836   6.865  0.2207 -0.0881  0.7468
  189SAPI  H13R21821   2.640   3.931   6.868  1.3689  0.8098 -2.4694
  189SAPI  H13S21822   2.726   3.803   6.967 -1.3813 -0.8023  1.0086
  189SAPI  C21421823   2.607   3.730   6.801  0.1711 -0.2849  0.9044
  189SAPI  H14R21824   2.655   3.639   6.763 -0.7514  0.4850 -2.3752
  189SAPI  C21521825   2.476   3.744   6.775 -0.3046  0.3860 -0.8883
  189SAPI  H15R21826   2.420   3.656   6.738  1.2790 -0.3943 -1.5388
  189SAPI  C21621827   2.390   3.867   6.796 -0.4052 -0.3167 -0.0184
  189SAPI  H16R21828   2.321   3.874   6.709 -1.1630 -2.2138  0.3956
  189SAPI  H16S21829   2.451   3.959   6.811  0.0431 -0.2359 -2.0251
  189SAPI  C21721830   2.299   3.839   6.916 -0.5019 -0.4244  0.0377
  189SAPI  H17R21831   2.244   3.745   6.893 -1.3768  0.4931 -1.8257
  189SAPI  H17S21832   2.229   3.925   6.926  0.2749  0.1699  0.5832
  189SAPI  C21821833   2.371   3.831   7.053  0.5500 -0.0040  0.3038
  189SAPI  H18R21834   2.416   3.929   7.079 -0.9328  1.3374 -1.8025
  189SAPI  H18S21835   2.446   3.750   7.049 -1.6507 -2.2303  1.2902
  189SAPI  C21921836   2.273   3.778   7.159  0.4835 -0.6701  0.4203
  189SAPI  H19R21837   2.204   3.704   7.112  0.6423 -0.3978 -0.2589
  189SAPI  H19S21838   2.212   3.858   7.205 -0.7295 -0.4484 -1.4680
  189SAPI  C22021839   2.347   3.719   7.278  0.1912  0.6656 -0.4472
  189SAPI  H20R21840   2.281   3.709   7.368  1.3268 -1.7600  0.1971
  189SAPI  H20S21841   2.427   3.791   7.305 -0.1857  1.5929 -1.7143
  189SAPI  H20T21842   2.392   3.620   7.256  0.7908  0.8886 -0.2403
  189SAPI   C3321843   3.330   3.026   7.468 -0.1448 -0.2148  0.3171
  189SAPI   H3X21844   3.222   2.997   7.468 -0.2377  0.0049  2.4489
  189SAPI   H3Y21845   3.380   2.966   7.546 -1.3058  1.0188  2.0920
  189SAPI   C3421846   3.395   3.014   7.329  0.2012 -0.4241 -0.1004
  189SAPI   H4X21847   3.440   2.913   7.335 -0.9075 -0.9571 -0.5395
  189SAPI   H4Y21848   3.474   3.091   7.314 -0.5776  0.6946  1.2791
  189SAPI   C3521849   3.313   3.002   7.200 -0.8899  0.1673  0.0600
  189SAPI   H5X21850   3.228   3.074   7.196 -0.0415  1.1448 -0.5879
  189SAPI   H5Y21851   3.284   2.895   7.190  2.8433 -0.9846  0.1876
  189SAPI   C3621852   3.413   3.020   7.081 -0.1217  0.3437  0.6473
  189SAPI   H6X21853   3.482   2.933   7.082 -1.7014 -0.9730 -0.4247
  189SAPI   H6Y21854   3.464   3.117   7.102 -2.5451  1.2485  2.8430
  189SAPI   C3721855   3.338   3.018   6.942  0.5069 -0.7721  0.6030
  189SAPI   H7X21856   3.248   3.083   6.939  0.8614 -0.2831  0.4399
  189SAPI   H7Y21857   3.312   2.911   6.929 -1.0185 -0.3492 -0.0709
  189SAPI   C3821858   3.431   3.059   6.825  0.7265  0.2370 -0.6297
  189SAPI   H8X21859   3.521   2.995   6.838  0.7032  0.5522  1.4292
  189SAPI   H8Y21860   3.469   3.163   6.827  0.5715  0.3011  1.6367
  189SAPI   C3921861   3.357   3.029   6.693 -0.3643 -0.3713 -0.2624
  189SAPI   H9X21862   3.246   3.036   6.696 -0.3806 -0.5622 -0.3731
  189SAPI   H9Y21863   3.378   2.923   6.665  1.9184  0.2185 -0.9541
  189SAPI  C31021864   3.403   3.128   6.584  0.2118 -0.4057  0.1071
  189SAPI  H10X21865   3.509   3.108   6.559  0.1882 -0.2779 -0.0987
  189SAPI  H10Y21866   3.390   3.229   6.629 -0.8413 -0.8926  0.9359
  189SAPI  C31121867   3.318   3.125   6.459 -0.2118 -0.2711  0.8058
  189SAPI  H11X21868   3.219   3.168   6.484 -0.2218  1.0381 -1.2587
  189SAPI  H11Y21869   3.312   3.022   6.420 -0.8492 -0.0673  0.3601
  189SAPI  C31221870   3.382   3.211   6.351  0.9624 -0.3455  0.5940
  189SAPI  H12X21871   3.478   3.160   6.328  1.3338  1.2175 -1.5751
  189SAPI  H12Y21872   3.408   3.312   6.388  3.8009 -1.3630  1.6155
  189SAPI  C31321873   3.289   3.228   6.227  0.1093  0.0075 -0.0730
  189SAPI  H13X21874   3.186   3.264   6.246  1.0011  2.9811 -0.3600
  189SAPI  H13Y21875   3.280   3.135   6.168  1.1698 -1.5298  2.0669
  189SAPI  C31421876   3.350   3.338   6.134 -0.1476  0.6842  0.0406
  189SAPI  H14X21877   3.438   3.302   6.076 -0.8887  0.6012 -1.0623
  189SAPI  H14Y21878   3.397   3.421   6.190  1.6613 -0.1396 -0.1853
  189SAPI  C31521879   3.248   3.385   6.036  0.7378  0.0592 -0.8520
  189SAPI  H15X21880   3.164   3.413   6.103  0.7218 -1.5969 -0.1365
  189SAPI  H15Y21881   3.222   3.308   5.960  0.1082 -0.1758 -0.3998
  189SAPI  C31621882   3.287   3.506   5.957  0.9307  0.6533 -0.0303
  189SAPI  H16X21883   3.375   3.491   5.891 -0.4946 -2.7113 -1.4617
  189SAPI  H16Y21884   3.317   3.580   6.034 -2.2287  0.9850  1.0598
  189SAPI  C31721885   3.173   3.556   5.869 -0.0407 -0.1479  0.0148
  189SAPI  H17X21886   3.192   3.659   5.831 -1.1139 -0.1453 -0.5535
  189SAPI  H17Y21887   3.075   3.563   5.921 -0.8612 -1.7914 -1.2489
  189SAPI  C31821888   3.143   3.457   5.756  0.3217  0.1973  0.1286
  189SAPI  H18X21889   3.078   3.508   5.682 -1.4368 -0.2610  1.2972
  189SAPI  H18Y21890   3.097   3.362   5.791  1.0537 -1.2434 -2.5383
  189SAPI  H18Z21891   3.234   3.430   5.698 -1.0791 -2.3495 -1.0752
  190SAPI   C1221892   2.789   4.122   8.408  0.7468  0.5856  0.4081
  190SAPI    H221893   2.854   4.117   8.319 -1.2386 -1.0526 -1.0433
  190SAPI    O221894   2.833   4.013   8.489  0.0075  0.2103 -0.6762
  190SAPI   HO221895   2.844   3.936   8.433 -1.7941 -0.5394 -0.0540
  190SAPI   C1321896   2.798   4.258   8.487 -0.3200  0.5191  0.0326
  190SAPI    H321897   2.792   4.334   8.406  2.2835  0.9076  0.1087
  190SAPI    O321898   2.924   4.295   8.534 -0.3027 -0.2425 -0.3464
  190SAPI   HO321899   2.975   4.333   8.462 -2.6462  1.2322 -1.3200
  190SAPI   C1421900   2.697   4.271   8.600 -0.0747  0.0982 -0.2302
  190SAPI    H421901   2.741   4.218   8.687  0.0176  1.5908  0.6577
  190SAPI    O421902   2.683   4.405   8.650 -0.1351  0.2056  0.3446
  190SAPI   HO421903   2.754   4.420   8.713 -1.1642  1.5907  1.2414
  190SAPI   C1521904   2.555   4.202   8.576 -0.1716  0.8835  0.0185
  190SAPI    H521905   2.484   4.285   8.550 -0.8749  0.0648 -0.7386
  190SAPI    O521906   2.502   4.155   8.702 -0.2757 -0.4577  0.0432
  190SAPI   HO521907   2.550   4.081   8.740 -1.2081 -1.3940 -0.5553
  190SAPI   C1621908   2.540   4.101   8.463 -0.1082 -0.8554  0.1300
  190SAPI    H621909   2.544   4.000   8.508 -2.9147 -1.8550 -1.6107
  190SAPI    O621910   2.414   4.106   8.404 -0.0742  0.1925  0.1824
  190SAPI   HO621911   2.422   4.092   8.310 -1.6607 -0.9484  0.1672
  190SAPI   C1121912   2.650   4.106   8.357 -0.4884  0.0035  0.3360
  190SAPI    H121913   2.636   4.197   8.296  1.9340  0.0389 -0.2662
  190SAPI     P21914   2.574   3.973   8.138 -0.1456 -0.1492 -0.1142
  190SAPI   O1321915   2.442   4.037   8.152  0.3297 -0.3507  0.1508
  190SAPI   O1421916   2.573   3.833   8.096  1.0573  0.2246 -0.4650
  190SAPI   O1221917   2.646   3.983   8.280  0.2579 -1.0198  0.0609
  190SAPI   O1121918   2.666   4.066   8.035 -0.4311 -0.3524 -0.7812
  190SAPI    C121919   2.604   4.174   7.966 -0.2344  0.0264  0.2917
  190SAPI    HA21920   2.543   4.236   8.035  0.8316  0.0797  1.2012
  190SAPI    HB21921   2.677   4.250   7.930  0.9488 -0.4827  1.5651
  190SAPI    C221922   2.534   4.123   7.840  0.2646  0.3073 -0.5423
  190SAPI    HS21923   2.445   4.066   7.873 -0.0996  1.8198  1.2639
  190SAPI   O2121924   2.632   4.047   7.767  0.9100 -0.2154 -0.1439
  190SAPI   C2121925   2.577   3.933   7.721 -0.2304  0.4912 -0.6789
  190SAPI   O2221926   2.462   3.901   7.721 -0.2677  0.3348  0.1434
  190SAPI   C2221927   2.694   3.862   7.657  0.5312  0.5878 -0.7616
  190SAPI   H2R21928   2.793   3.907   7.682  1.3678 -0.5952 -1.7992
  190SAPI   H2S21929   2.690   3.757   7.694  1.2069  0.0337 -2.2001
  190SAPI    C321930   2.476   4.228   7.749 -0.2289  0.1709 -0.3406
  190SAPI    HX21931   2.562   4.286   7.709 -0.7472  1.9087  0.9574
  190SAPI    HY21932   2.419   4.307   7.803  0.7767 -0.5665  1.9184
  190SAPI   O3121933   2.415   4.170   7.628 -0.2365  0.1205 -0.2449
  190SAPI   C3121934   2.291   4.138   7.662  0.0912 -0.3388  0.2171
  190SAPI   O3221935   2.239   4.169   7.768 -0.0409  0.2912  0.2514
  190SAPI   C3221936   2.211   4.076   7.544  0.6510 -0.0293 -0.1956
  190SAPI   H2X21937   2.110   4.076   7.590  0.8589 -1.1844  0.3144
  190SAPI   H2Y21938   2.243   3.969   7.541  1.3241  0.1461  0.4787
  190SAPI   C2321939   2.690   3.870   7.505  0.1154 -0.0541 -0.2588
  190SAPI   H3R21940   2.585   3.876   7.470 -0.0638 -3.8894 -0.7511
  190SAPI   H3S21941   2.738   3.776   7.470  1.2982  0.5956 -0.4359
  190SAPI   C2421942   2.766   3.989   7.438 -0.2055  0.3467  0.0953
  190SAPI   H4R21943   2.873   3.974   7.460  0.1270 -1.2558 -2.2539
  190SAPI   H4S21944   2.738   4.088   7.480 -0.1197  0.4195 -0.0180
  190SAPI   C2521945   2.755   3.980   7.285  0.2366  0.5394  0.4491
  190SAPI   H5R21946   2.829   3.914   7.238 -1.2374 -1.4106  0.7457
  190SAPI   C2621947   2.689   4.066   7.204  0.2416 -0.4846  0.5420
  190SAPI   H6R21948   2.694   4.039   7.098  0.1901  1.2814  0.0727
  190SAPI   C2721949   2.586   4.162   7.264  0.3543  0.8438  0.5172
  190SAPI   H7R21950   2.624   4.266   7.278 -1.7011  1.6598  0.4776
  190SAPI   H7S21951   2.541   4.124   7.358  1.6799  0.5387  1.0525
  190SAPI   C2821952   2.473   4.175   7.153 -0.3646  0.6305  0.1992
  190SAPI   H8R21953   2.385   4.117   7.186  1.2938 -0.6459  2.7436
  190SAPI   C2921954   2.464   4.249   7.042 -0.3287  0.1958  0.0684
  190SAPI   H9R21955   2.369   4.240   6.988 -0.3431  0.3106  0.0736
  190SAPI  C21021956   2.570   4.333   6.974 -0.1342 -0.4243  0.2106
  190SAPI  H10R21957   2.660   4.272   6.950  1.1498  1.6420 -0.5613
  190SAPI  H10S21958   2.606   4.419   7.035  0.2475  1.1430 -2.0848
  190SAPI  C21121959   2.525   4.393   6.844  0.2537 -0.7771  0.8178
  190SAPI  H11R21960   2.493   4.497   6.854 -1.5878 -1.0908 -1.2229
  190SAPI  C21221961   2.514   4.332   6.721 -0.2702  0.7398 -0.7679
  190SAPI  H12R21962   2.480   4.385   6.631  0.2107  1.1793 -0.6916
  190SAPI  C21321963   2.554   4.194   6.697 -0.1521 -0.5510  0.4617
  190SAPI  H13R21964   2.458   4.148   6.665  0.7777 -2.4554  0.2634
  190SAPI  H13S21965   2.593   4.154   6.793  2.1454  1.7582  0.5878
  190SAPI  C21421966   2.657   4.166   6.594  0.5789 -0.0240  0.3331
  190SAPI  H14R21967   2.757   4.204   6.621  1.2238 -0.8084 -0.8308
  190SAPI  C21521968   2.644   4.103   6.479  0.4839 -0.2789  0.7862
  190SAPI  H15R21969   2.729   4.084   6.411 -0.9257  1.0868 -1.4785
  190SAPI  C21621970   2.523   4.036   6.438 -0.0134  0.0988  0.1270
  190SAPI  H16R21971   2.451   4.112   6.400 -0.4910 -1.1816 -1.6855
  190SAPI  H16S21972   2.478   3.976   6.520  0.6553  0.8441  1.0501
  190SAPI  C21721973   2.545   3.936   6.321 -0.4312 -0.0953 -1.1701
  190SAPI  H17R21974   2.592   3.982   6.231  0.7416  0.1210 -0.4705
  190SAPI  H17S21975   2.454   3.887   6.282  0.3957 -1.1372 -1.8462
  190SAPI  C21821976   2.624   3.817   6.371  0.3919 -0.5809 -0.6272
  190SAPI  H18R21977   2.568   3.771   6.455 -1.2389  0.1765 -1.2426
  190SAPI  H18S21978   2.717   3.843   6.426 -0.1372  1.4823 -0.6173
  190SAPI  C21921979   2.644   3.699   6.278 -0.1267  0.2289  0.4942
  190SAPI  H19R21980   2.550   3.642   6.264 -0.8067  2.0327 -3.8012
  190SAPI  H19S21981   2.728   3.640   6.321  0.3804  1.3766  1.1160
  190SAPI  C22021982   2.668   3.752   6.134  0.2884 -0.0663  1.0047
  190SAPI  H20R21983   2.718   3.678   6.067 -1.2337  0.0046 -0.2734
  190SAPI  H20S21984   2.743   3.833   6.143  0.6199 -0.2784  0.2448
  190SAPI  H20T21985   2.578   3.782   6.077  0.1107  0.8819  1.7650
  190SAPI   C3321986   2.212   4.166   7.410 -0.8760  0.5056 -0.6411
  190SAPI   H3X21987   2.309   4.158   7.357 -0.9316  2.3526 -1.0895
  190SAPI   H3Y21988   2.201   4.274   7.428 -0.7979  0.1851  1.5218
  190SAPI   C3421989   2.100   4.124   7.316  1.1904 -0.2781 -0.5852
  190SAPI   H4X21990   2.009   4.118   7.380  1.0204 -0.4197 -0.8366
  190SAPI   H4Y21991   2.124   4.020   7.285  2.1234 -0.4996  0.7977
  190SAPI   C3521992   2.066   4.225   7.199 -0.6558  0.3626 -0.1141
  190SAPI   H5X21993   2.156   4.283   7.172 -0.9734  0.3660 -1.2247
  190SAPI   H5Y21994   1.986   4.294   7.233  0.9635  1.7220  1.0630
  190SAPI   C3621995   2.044   4.146   7.069  0.2901  0.1634 -0.7199
  190SAPI   H6X21996   1.947   4.091   7.066 -0.7504  1.7992  0.8099
  190SAPI   H6Y21997   2.131   4.082   7.044  1.3356  1.8597 -1.6023
  190SAPI   C3721998   2.043   4.251   6.953  0.0092  0.1344 -0.3497
  190SAPI   H7X21999   2.128   4.322   6.966 -1.0718  0.9777  2.9580
  190SAPI   H7Y22000   1.947   4.304   6.971 -0.0070  0.1383 -0.4471
  190SAPI   C3822001   2.038   4.190   6.810  0.1879 -0.6103 -0.2914
  190SAPI   H8X22002   2.138   4.147   6.791  0.2344 -0.0684 -1.3424
  190SAPI   H8Y22003   2.009   4.271   6.741 -0.4188  0.0612  0.7263
  190SAPI   C3922004   1.931   4.083   6.792  0.3195 -1.0655  0.0290
  190SAPI   H9X22005   1.835   4.127   6.826  1.5536  2.1874 -0.3768
  190SAPI   H9Y22006   1.951   3.996   6.858 -1.6622  0.0787  2.2948
  190SAPI  C31022007   1.918   4.062   6.641 -0.0645  0.5663  0.7199
  190SAPI  H10X22008   1.882   4.154   6.590  0.6571  0.4152 -0.0867
  190SAPI  H10Y22009   1.843   3.981   6.624  0.0537  0.5757  0.1402
  190SAPI  C31122010   2.044   4.008   6.564  0.1661  0.2469 -0.5541
  190SAPI  H11X22011   2.081   3.917   6.616 -0.2009 -0.1488 -0.9697
  190SAPI  H11Y22012   2.128   4.079   6.576  0.8227 -0.4508 -0.9492
  190SAPI  C31222013   2.003   3.956   6.425 -0.0276 -0.1395 -0.4044
  190SAPI  H12X22014   1.948   4.041   6.378  2.4420  1.3094 -0.8568
  190SAPI  H12Y22015   1.939   3.866   6.437 -0.8579  0.1884 -1.9789
  190SAPI  C31322016   2.119   3.918   6.337 -0.5214 -0.6358 -0.5781
  190SAPI  H13X22017   2.189   3.865   6.406 -0.4698 -1.2375 -1.0852
  190SAPI  H13Y22018   2.173   4.010   6.307  0.1666 -0.9495 -0.3296
  190SAPI  C31422019   2.077   3.839   6.217  0.6503 -0.3113 -0.3178
  190SAPI  H14X22020   2.012   3.908   6.158 -0.4432 -0.1346  1.0356
  190SAPI  H14Y22021   2.022   3.749   6.251  1.4811  0.1460  2.4756
  190SAPI  C31522022   2.185   3.777   6.128 -0.3713  1.0381 -0.1454
  190SAPI  H15X22023   2.227   3.697   6.194 -1.2561  1.0942  0.5032
  190SAPI  H15Y22024   2.253   3.859   6.097 -1.9628  2.1402 -0.7965
  190SAPI  C31622025   2.136   3.703   6.005 -0.1808  0.0353 -0.0121
  190SAPI  H16X22026   2.035   3.747   5.990 -0.5848 -0.0123  2.1450
  190SAPI  H16Y22027   2.109   3.597   6.025 -0.4520 -0.0957 -1.0547
  190SAPI  C31722028   2.228   3.697   5.891 -0.1434 -0.3233 -0.4186
  190SAPI  H17X22029   2.172   3.653   5.806 -1.5094  1.0523 -0.2949
  190SAPI  H17Y22030   2.320   3.640   5.915 -0.6211 -0.7263  0.5164
  190SAPI  C31822031   2.275   3.835   5.843  0.1529 -0.2577  0.1199
  190SAPI  H18X22032   2.323   3.887   5.929 -0.0559 -1.9588  1.3206
  190SAPI  H18Y22033   2.198   3.905   5.804 -0.3320  0.0359  1.5646
  190SAPI  H18Z22034   2.359   3.828   5.770  0.1932 -1.8095  0.2668
  191SAPI   C1222035   3.846   6.637   3.496  0.4924  0.3126  0.1976
  191SAPI    H222036   3.862   6.662   3.603  0.9892 -0.1657  0.2418
  191SAPI    O222037   3.713   6.593   3.488 -0.4627 -0.1789  0.1148
  191SAPI   HO222038   3.715   6.499   3.506 -1.6184 -0.2972 -0.3156
  191SAPI   C1322039   3.861   6.757   3.407  0.0761 -0.6884  0.1619
  191SAPI    H322040   3.966   6.792   3.422  0.3153 -0.4662 -1.7243
  191SAPI    O322041   3.771   6.861   3.449  1.0128 -0.2485 -0.0545
  191SAPI   HO322042   3.682   6.831   3.463  0.3557  0.1943 -2.7347
  191SAPI   C1422043   3.851   6.734   3.261  0.9851 -0.4608  0.6857
  191SAPI    H422044   3.745   6.707   3.246  1.0536  0.3890 -1.9895
  191SAPI    O422045   3.866   6.849   3.183 -0.0440  0.1099 -0.2634
  191SAPI   HO422046   3.789   6.854   3.126 -0.1382  2.6915 -0.0428
  191SAPI   C1522047   3.935   6.612   3.217  0.3845  0.2270  0.0854
  191SAPI    H522048   4.041   6.644   3.222  0.2332  0.6848  0.3605
  191SAPI    O522049   3.890   6.570   3.080  0.2662  0.4938 -0.6093
  191SAPI   HO522050   3.968   6.552   3.026 -0.8601 -1.7694 -1.5922
  191SAPI   C1622051   3.945   6.496   3.308 -0.2749 -0.5280  0.2595
  191SAPI    H622052   3.848   6.443   3.294 -0.0272 -1.3228  1.3572
  191SAPI    O622053   4.052   6.412   3.270 -0.5453 -0.1876 -0.0389
  191SAPI   HO622054   4.023   6.326   3.301 -1.0094  0.4684  1.4199
  191SAPI   C1122055   3.942   6.524   3.456 -0.8208  0.3493  0.0029
  191SAPI    H122056   4.040   6.562   3.490 -1.2976 -0.3415  2.3481
  191SAPI     P22057   3.965   6.348   3.660 -0.4573  0.0978  0.0190
  191SAPI   O1322058   4.089   6.430   3.686  0.2455 -0.1208  0.7153
  191SAPI   O1422059   3.984   6.203   3.644  0.6466 -0.3387 -0.5861
  191SAPI   O1222060   3.899   6.403   3.525  0.0330 -0.6577  0.2209
  191SAPI   O1122061   3.854   6.380   3.766 -0.0610  0.5462 -0.0772
  191SAPI    C122062   3.721   6.336   3.752 -0.3521  1.0771 -0.0235
  191SAPI    HA22063   3.652   6.422   3.737 -2.7323 -0.5484  0.9766
  191SAPI    HB22064   3.714   6.267   3.666  0.4777  0.0619  0.7022
  191SAPI    C222065   3.670   6.258   3.873 -0.1376  0.3163 -0.5126
  191SAPI    HS22066   3.671   6.326   3.961 -1.6284 -1.7993  1.2430
  191SAPI   O2122067   3.759   6.147   3.899  0.2976  0.5641  0.2450
  191SAPI   C2122068   3.826   6.152   4.013  0.4537  0.4965 -0.1528
  191SAPI   O2222069   3.819   6.230   4.101 -0.0543  0.1154 -0.5033
  191SAPI   C2222070   3.908   6.023   4.017  0.8054  0.8549  0.2926
  191SAPI   H2R22071   3.857   5.941   4.072  0.5253  0.5699 -0.3853
  191SAPI   H2S22072   3.917   5.981   3.915  1.6118 -1.0842  1.1071
  191SAPI    C322073   3.523   6.213   3.854 -0.1617 -0.2324 -0.2600
  191SAPI    HX22074   3.520   6.153   3.760 -0.0385 -1.2566  0.3826
  191SAPI    HY22075   3.462   6.301   3.823 -1.4833 -1.2894 -0.7942
  191SAPI   O3122076   3.465   6.156   3.973 -0.6317  0.2194 -0.1847
  191SAPI   C3122077   3.438   6.021   3.963  0.0481 -0.5740 -0.0316
  191SAPI   O3222078   3.447   5.957   3.863  0.0458  0.0566  0.0229
  191SAPI   C3222079   3.408   5.975   4.107 -0.2831 -0.1188 -0.4033
  191SAPI   H2X22080   3.352   5.879   4.099 -0.9478  0.3046 -0.9731
  191SAPI   H2Y22081   3.339   6.049   4.153 -0.9998 -1.2348  0.3616
  191SAPI   C2322082   4.055   6.028   4.069  0.1157  0.2395  0.1407
  191SAPI   H3R22083   4.097   6.123   4.030  0.9467 -0.0491  0.3139
  191SAPI   H3S22084   4.121   5.948   4.029  0.6274  1.2914 -1.2141
  191SAPI   C2422085   4.064   6.026   4.221  0.0109  0.1201 -0.5504
  191SAPI   H4R22086   4.011   6.115   4.263  1.6340  1.0979 -0.4922
  191SAPI   H4S22087   4.171   6.040   4.247  0.3618  1.7926 -2.6180
  191SAPI   C2522088   4.018   5.894   4.280 -0.9448 -0.0656 -0.5294
  191SAPI   H5R22089   3.997   5.812   4.208 -0.2076 -0.5590 -0.1927
  191SAPI   C2622090   4.027   5.859   4.407 -0.2188  0.1588 -0.6455
  191SAPI   H6R22091   3.964   5.773   4.435 -3.2039  1.6898 -2.1855
  191SAPI   C2722092   4.089   5.928   4.534 -0.0824  0.4335  0.4918
  191SAPI   H7R22093   4.138   6.021   4.497  1.2706 -1.2589 -2.3708
  191SAPI   H7S22094   4.166   5.863   4.581  0.4864  0.6666 -0.1105
  191SAPI   C2822095   3.976   5.975   4.617 -0.3011  0.8243 -0.0987
  191SAPI   H8R22096   3.879   6.001   4.573 -1.4728  1.0106  2.3981
  191SAPI   C2922097   3.987   5.974   4.753 -0.3055  0.1916 -0.1178
  191SAPI   H9R22098   3.903   5.998   4.820 -0.6468  0.7050 -0.7195
  191SAPI  C21022099   4.116   5.952   4.822  0.3490  0.2817 -0.6693
  191SAPI  H10R22100   4.206   5.955   4.756  1.4960 -0.7242  0.7832
  191SAPI  H10S22101   4.117   5.843   4.844  1.5360  0.3671 -0.2214
  191SAPI  C21122102   4.137   6.025   4.952  0.0210 -1.0323 -0.2992
  191SAPI  H11R22103   4.165   6.131   4.940 -1.3517 -0.2714  2.2939
  191SAPI  C21222104   4.135   5.990   5.086 -1.0060  0.1826  0.2296
  191SAPI  H12R22105   4.157   6.072   5.155  0.4301 -0.5269  0.6528
  191SAPI  C21322106   4.117   5.858   5.145  0.1101  0.6835 -0.0648
  191SAPI  H13R22107   4.200   5.836   5.216  0.9300 -0.1650 -1.2289
  191SAPI  H13S22108   4.138   5.784   5.064  3.5436  0.6815  0.6796
  191SAPI  C21422109   3.986   5.836   5.220 -0.2138  0.3040 -0.0719
  191SAPI  H14R22110   3.908   5.792   5.157 -0.5443 -0.3108  0.7594
  191SAPI  C21522111   3.956   5.872   5.344 -0.1200  0.5937  0.6575
  191SAPI  H15R22112   3.856   5.841   5.377  0.8653  0.3203  3.7156
  191SAPI  C21622113   4.051   5.930   5.445  0.0199  0.3872  0.1780
  191SAPI  H16R22114   4.020   6.036   5.459 -0.2822  0.0768  2.1166
  191SAPI  H16S22115   4.155   5.941   5.408 -0.5431  0.2272 -1.5216
  191SAPI  C21722116   4.050   5.866   5.586  0.6056 -0.0926 -0.3994
  191SAPI  H17R22117   3.942   5.844   5.604  0.4118  1.5154  0.6554
  191SAPI  H17S22118   4.071   5.943   5.664 -0.1595  0.6053 -0.8692
  191SAPI  C21822119   4.139   5.745   5.603  0.2374 -1.0128  0.8210
  191SAPI  H18R22120   4.245   5.777   5.594 -0.7864  2.1927 -2.8226
  191SAPI  H18S22121   4.126   5.673   5.519 -0.5446 -0.5588  0.5385
  191SAPI  C21922122   4.115   5.670   5.739 -1.3060  0.1264  1.0630
  191SAPI  H19R22123   4.175   5.577   5.746 -0.1847  0.6795 -0.5630
  191SAPI  H19S22124   4.007   5.646   5.732 -1.1925  0.1861 -2.2713
  191SAPI  C22022125   4.139   5.764   5.855 -0.7216  0.8751  0.3067
  191SAPI  H20R22126   4.052   5.833   5.866 -1.1455  0.3323  0.4340
  191SAPI  H20S22127   4.231   5.822   5.837  1.8063 -2.6503  0.8773
  191SAPI  H20T22128   4.154   5.698   5.944  1.1128 -0.3768 -0.8650
  191SAPI   C3322129   3.529   5.976   4.198 -0.3388 -0.3483  0.7344
  191SAPI   H3X22130   3.578   6.073   4.218 -1.4604  0.1421  1.2088
  191SAPI   H3Y22131   3.608   5.900   4.178 -0.7367 -0.2219 -1.5938
  191SAPI   C3422132   3.475   5.947   4.346  0.3620  0.9733  0.9674
  191SAPI   H4X22133   3.418   5.852   4.358  0.1024  1.3359  2.8942
  191SAPI   H4Y22134   3.390   6.017   4.357  1.9943  3.0230  1.0590
  191SAPI   C3522135   3.566   5.952   4.473 -0.6397 -0.0395  0.6730
  191SAPI   H5X22136   3.594   6.057   4.498 -2.3058 -0.0124  2.6326
  191SAPI   H5Y22137   3.654   5.886   4.454 -0.8645  0.0488 -0.8308
  191SAPI   C3622138   3.488   5.899   4.589 -0.6682 -0.2368 -0.4953
  191SAPI   H6X22139   3.479   5.788   4.588  2.9069 -0.6178 -0.5281
  191SAPI   H6Y22140   3.394   5.957   4.574 -0.2057  0.3231 -1.2485
  191SAPI   C3722141   3.557   5.955   4.718  0.6647 -0.2246  0.8909
  191SAPI   H7X22142   3.563   6.066   4.716 -2.3322  0.0157  0.1048
  191SAPI   H7Y22143   3.655   5.906   4.739 -0.6172 -3.2814  0.3122
  191SAPI   C3822144   3.484   5.896   4.843  0.1836 -0.5716 -0.0883
  191SAPI   H8X22145   3.488   5.785   4.840  0.4390 -0.5768  0.2985
  191SAPI   H8Y22146   3.377   5.922   4.832 -0.0110 -2.3710 -3.7953
  191SAPI   C3922147   3.553   5.951   4.970 -0.7695  0.4931  0.2240
  191SAPI   H9X22148   3.563   6.061   4.981 -0.4079  0.5241 -0.3679
  191SAPI   H9Y22149   3.654   5.905   4.971 -1.5499 -1.4118 -1.5400
  191SAPI  C31022150   3.480   5.914   5.098 -0.3766  0.1388 -0.3951
  191SAPI  H10X22151   3.476   5.803   5.103  0.1093  0.1476  0.2247
  191SAPI  H10Y22152   3.379   5.962   5.099 -1.6672 -2.4334  1.1499
  191SAPI  C31122153   3.558   5.956   5.224  1.0318 -0.0983 -0.1174
  191SAPI  H11X22154   3.580   6.065   5.215 -3.0278  1.0503  1.4172
  191SAPI  H11Y22155   3.658   5.907   5.230  1.1711 -0.1231 -2.1161
  191SAPI  C31222156   3.475   5.947   5.351 -0.0780  0.4659 -0.3467
  191SAPI  H12X22157   3.457   5.837   5.361  0.2152  0.2296 -2.1255
  191SAPI  H12Y22158   3.385   6.008   5.327  0.5777  1.1718 -1.0515
  191SAPI  C31322159   3.555   6.015   5.465 -0.4006  0.5389 -0.2249
  191SAPI  H13X22160   3.546   6.124   5.447 -0.4986  0.5955  0.1435
  191SAPI  H13Y22161   3.660   5.984   5.448  0.1569  0.9166  2.1190
  191SAPI  C31422162   3.497   5.969   5.601 -0.0202 -0.2775 -0.7589
  191SAPI  H14X22163   3.494   5.859   5.612 -0.4762 -0.2137 -0.2179
  191SAPI  H14Y22164   3.393   6.006   5.609  0.3564  1.8135 -3.7174
  191SAPI  C31522165   3.578   6.026   5.713 -0.0679 -0.2597 -0.2305
  191SAPI  H15X22166   3.588   6.136   5.699 -1.4578  0.2637  2.2771
  191SAPI  H15Y22167   3.681   5.986   5.723 -0.5889 -1.3118  1.2278
  191SAPI  C31622168   3.508   6.020   5.851 -0.2324 -0.4840  0.4271
  191SAPI  H16X22169   3.417   6.085   5.852  2.2209  3.2813  2.0289
  191SAPI  H16Y22170   3.571   6.076   5.924 -2.2353  0.0863  1.8146
  191SAPI  C31722171   3.465   5.880   5.896  0.2177  0.2099  0.0342
  191SAPI  H17X22172   3.558   5.821   5.911  1.5199  1.4416 -2.4938
  191SAPI  H17Y22173   3.406   5.833   5.815 -0.2058  2.1756 -0.8775
  191SAPI  C31822174   3.387   5.885   6.029 -0.1292 -0.1041 -0.2479
  191SAPI  H18X22175   3.284   5.925   6.016 -1.8129 -3.6927  0.7731
  191SAPI  H18Y22176   3.440   5.939   6.110  0.7828 -0.4561 -0.5965
  191SAPI  H18Z22177   3.380   5.781   6.067  2.5884 -0.2655  0.0350
  192SAPI   C1222178   3.066   1.603   3.670  0.8607  0.0771 -0.0418
  192SAPI    H222179   3.111   1.653   3.759  1.3378  1.9268 -1.2586
  192SAPI    O222180   2.944   1.677   3.643 -0.2729  0.1007 -0.0053
  192SAPI   HO222181   2.878   1.656   3.709 -1.3882 -1.7775 -1.5996
  192SAPI   C1322182   3.168   1.602   3.563 -0.4360  0.0016  0.5485
  192SAPI    H322183   3.258   1.550   3.602  0.1518  1.3765  1.1119
  192SAPI    O322184   3.215   1.735   3.539  0.5594 -0.1968  0.4814
  192SAPI   HO322185   3.145   1.785   3.497 -1.3083 -1.4845  1.8876
  192SAPI   C1422186   3.117   1.538   3.436  1.0239  0.2372  0.4077
  192SAPI    H422187   3.025   1.591   3.403  0.4607 -0.4000  0.8949
  192SAPI    O422188   3.207   1.535   3.328 -0.5310 -0.0994  0.2387
  192SAPI   HO422189   3.179   1.589   3.254 -0.6127  0.1049  0.4151
  192SAPI   C1522190   3.056   1.399   3.459  0.6062  0.2073 -0.1170
  192SAPI    H522191   3.146   1.335   3.475  0.1017 -0.3607  0.5004
  192SAPI    O522192   3.005   1.346   3.339 -0.3560  0.5992  0.1570
  192SAPI   HO522193   3.052   1.386   3.266 -0.4321  2.1973  0.9510
  192SAPI   C1622194   2.972   1.376   3.581  0.2718  0.0368 -0.8606
  192SAPI    H622195   2.873   1.423   3.567  0.5351  0.0235 -2.9648
  192SAPI    O622196   2.962   1.234   3.605 -0.1125  0.4389  0.0448
  192SAPI   HO622197   3.046   1.207   3.641  0.4282  0.1780 -1.3533
  192SAPI   C1122198   3.020   1.453   3.700 -0.5492 -0.5942  0.8938
  192SAPI    H122199   3.112   1.401   3.735 -0.2154 -0.0625  0.8278
  192SAPI     P22200   2.977   1.442   3.964 -0.5386  0.7098 -0.1705
  192SAPI   O1322201   2.927   1.568   4.026  0.8344 -0.3352  0.3921
  192SAPI   O1422202   3.126   1.410   3.968 -0.4814  0.2622 -0.6513
  192SAPI   O1222203   2.925   1.442   3.810  0.1148  0.5623  0.0747
  192SAPI   O1122204   2.897   1.310   4.011 -0.0489 -0.1224 -0.6562
  192SAPI    C122205   2.761   1.300   4.058  0.2746  0.6769  0.2358
  192SAPI    HA22206   2.700   1.371   3.998  1.0659  1.0200 -0.1728
  192SAPI    HB22207   2.717   1.201   4.034 -0.3890  1.4158 -1.7584
  192SAPI    C222208   2.759   1.317   4.211 -0.9430  0.2257  0.3704
  192SAPI    HS22209   2.804   1.416   4.233  1.2198 -0.8825  1.2243
  192SAPI   O2122210   2.831   1.210   4.283  0.2528  0.0096  0.4565
  192SAPI   C2122211   2.897   1.230   4.390  0.0735 -0.2424  0.4486
  192SAPI   O2222212   2.922   1.335   4.440  0.0889  0.1355 -0.1798
  192SAPI   C2222213   2.952   1.096   4.442  0.0561  0.1998 -0.6505
  192SAPI   H2R22214   2.903   1.010   4.391  0.3568  0.6333 -1.6805
  192SAPI   H2S22215   3.053   1.098   4.396  0.4304 -0.3283  0.1123
  192SAPI    C322216   2.613   1.333   4.262  0.5376 -0.0432 -1.0484
  192SAPI    HX22217   2.550   1.246   4.231 -2.2891  1.2727  0.6337
  192SAPI    HY22218   2.567   1.429   4.228  0.2143  1.6782  3.5840
  192SAPI   O3122219   2.608   1.337   4.402 -0.7710  0.1223 -0.2933
  192SAPI   C3122220   2.588   1.447   4.464  0.1929 -1.0614 -0.2262
  192SAPI   O3222221   2.570   1.558   4.418 -0.3960  0.3571  0.3824
  192SAPI   C3222222   2.603   1.414   4.618 -0.3147  0.3499 -0.0078
  192SAPI   H2X22223   2.679   1.486   4.655 -1.4137  0.8130  1.5014
  192SAPI   H2Y22224   2.635   1.309   4.627 -1.1872  0.1239  0.6956
  192SAPI   C2322225   2.956   1.072   4.593 -0.3703  0.6055  0.3796
  192SAPI   H3R22226   2.963   0.963   4.615  2.3463  0.7917  0.8854
  192SAPI   H3S22227   2.865   1.114   4.640  1.4364  1.9902  2.8633
  192SAPI   C2422228   3.077   1.134   4.663  0.6192 -0.3251  0.3730
  192SAPI   H4R22229   3.085   1.240   4.629  1.7240 -0.2239  0.8931
  192SAPI   H4S22230   3.171   1.091   4.622  3.0460  3.0530  1.8846
  192SAPI   C2522231   3.058   1.123   4.810 -0.1503 -0.2112  0.6092
  192SAPI   H5R22232   3.116   1.035   4.843 -0.6680 -1.1907 -0.9723
  192SAPI   C2622233   3.009   1.212   4.898  0.3112 -0.4519  0.1957
  192SAPI   H6R22234   3.035   1.186   5.001 -0.6040  0.8826  0.8021
  192SAPI   C2722235   2.934   1.336   4.874  0.1161 -0.4213 -0.1070
  192SAPI   H7R22236   2.830   1.335   4.914 -0.0759 -2.0714 -0.5919
  192SAPI   H7S22237   2.928   1.356   4.765 -0.8364  0.7831  0.1418
  192SAPI   C2822238   2.998   1.455   4.946  1.1189  0.0944  0.8694
  192SAPI   H8R22239   3.068   1.508   4.879  1.0905 -1.0648 -0.1259
  192SAPI   C2922240   2.981   1.508   5.066 -0.5141  0.0490  0.3267
  192SAPI   H9R22241   3.026   1.605   5.087 -1.9083  1.2880 -1.9768
  192SAPI  C21022242   2.892   1.457   5.179  0.0819  0.0873  0.2102
  192SAPI  H10R22243   2.927   1.510   5.270 -0.8689  1.3721 -0.1474
  192SAPI  H10S22244   2.923   1.351   5.193  0.6352  0.3169  0.7822
  192SAPI  C21122245   2.740   1.482   5.165  0.6272  0.1169  0.1056
  192SAPI  H11R22246   2.705   1.557   5.093 -0.2567 -0.0062  0.3916
  192SAPI  C21222247   2.644   1.407   5.220 -0.6330 -0.4493 -0.2025
  192SAPI  H12R22248   2.541   1.421   5.184 -1.1559 -2.4433  0.4002
  192SAPI  C21322249   2.647   1.295   5.318  0.2884 -0.0539  0.1990
  192SAPI  H13R22250   2.583   1.321   5.405  0.3680 -0.8335  0.5028
  192SAPI  H13S22251   2.747   1.281   5.364 -0.0589 -0.1858  0.9367
  192SAPI  C21422252   2.614   1.162   5.260 -0.8719 -0.2145 -0.2482
  192SAPI  H14R22253   2.610   1.148   5.151  1.3641 -2.7330 -0.1120
  192SAPI  C21522254   2.594   1.051   5.338  0.7754 -0.3112  0.5278
  192SAPI  H15R22255   2.578   0.953   5.289  0.0830 -0.4208  0.9567
  192SAPI  C21622256   2.598   1.054   5.487  0.3273 -0.7907  0.2176
  192SAPI  H16R22257   2.607   1.151   5.539  0.3151  1.4891 -3.6598
  192SAPI  H16S22258   2.691   1.005   5.521  1.2358  2.2015  2.4551
  192SAPI  C21722259   2.469   0.987   5.543 -0.1952 -1.0239 -0.1768
  192SAPI  H17R22260   2.383   1.041   5.500 -0.4741  0.5819  2.2481
  192SAPI  H17S22261   2.467   1.027   5.647  1.9070  0.7580 -0.7337
  192SAPI  C21822262   2.451   0.833   5.534  0.0763  0.3177 -0.4006
  192SAPI  H18R22263   2.528   0.775   5.590 -1.8018 -1.8145  0.1388
  192SAPI  H18S22264   2.455   0.801   5.427  1.3354 -1.5518  0.1584
  192SAPI  C21922265   2.314   0.792   5.591 -0.8327  1.0071  0.1967
  192SAPI  H19R22266   2.323   0.825   5.697 -0.9384  0.9007  0.2379
  192SAPI  H19S22267   2.307   0.682   5.597 -2.4240  0.9590 -1.5767
  192SAPI  C22022268   2.194   0.862   5.532  0.3945 -0.6421 -0.1658
  192SAPI  H20R22269   2.217   0.889   5.427  0.0290  0.1783 -0.0464
  192SAPI  H20S22270   2.186   0.957   5.590  2.4676 -1.2727  1.2807
  192SAPI  H20T22271   2.098   0.807   5.524  0.2674 -0.1180 -3.4750
  192SAPI   C3322272   2.468   1.446   4.688  0.5131  1.1417  0.7509
  192SAPI   H3X22273   2.483   1.423   4.796 -2.7207 -1.8228  0.7665
  192SAPI   H3Y22274   2.386   1.375   4.662  4.2576 -3.0725 -1.0228
  192SAPI   C3422275   2.425   1.588   4.683  0.2245 -0.6550  0.4871
  192SAPI   H4X22276   2.401   1.621   4.580 -0.5512 -0.7858  0.6150
  192SAPI   H4Y22277   2.507   1.654   4.717  0.1035 -1.6151  2.8322
  192SAPI   C3522278   2.293   1.607   4.767 -0.1954  0.1695  0.5849
  192SAPI   H5X22279   2.218   1.536   4.726  0.2338  1.1397 -2.0996
  192SAPI   H5Y22280   2.268   1.713   4.745  0.4743 -0.1533 -1.9978
  192SAPI   C3622281   2.298   1.608   4.920  0.2857 -0.2562 -0.0901
  192SAPI   H6X22282   2.308   1.505   4.959  1.6457  0.4697  1.6000
  192SAPI   H6Y22283   2.201   1.641   4.962  0.5013  1.8825 -1.1256
  192SAPI   C3722284   2.403   1.698   4.984 -0.0775  0.0358 -0.3127
  192SAPI   H7X22285   2.406   1.796   4.932  0.4428 -0.4207 -1.1627
  192SAPI   H7Y22286   2.503   1.650   4.997 -1.1044 -1.9657  0.7088
  192SAPI   C3822287   2.366   1.733   5.134 -0.4209 -0.7876 -0.0596
  192SAPI   H8X22288   2.330   1.640   5.182  0.1052 -1.6719 -1.3454
  192SAPI   H8Y22289   2.284   1.808   5.148  0.6599  0.0403  2.5421
  192SAPI   C3922290   2.478   1.777   5.222  0.1262  0.2942 -0.9584
  192SAPI   H9X22291   2.522   1.872   5.186  0.2926  0.9768  0.9499
  192SAPI   H9Y22292   2.558   1.705   5.195  0.7169  0.2077  0.8458
  192SAPI  C31022293   2.456   1.767   5.381  0.0627 -0.0032  0.2219
  192SAPI  H10X22294   2.431   1.660   5.397  0.6613 -0.4050 -1.3487
  192SAPI  H10Y22295   2.357   1.806   5.414 -0.1548 -1.7294  1.7703
  192SAPI  C31122296   2.570   1.809   5.463 -0.0199 -0.1453 -0.2351
  192SAPI  H11X22297   2.580   1.918   5.442  0.5503  0.0301  0.8360
  192SAPI  H11Y22298   2.669   1.764   5.441 -0.2497 -0.7141 -0.1217
  192SAPI  C31222299   2.532   1.779   5.615 -0.9927 -0.2863  0.0564
  192SAPI  H12X22300   2.616   1.792   5.687 -1.9965 -0.4144  1.3001
  192SAPI  H12Y22301   2.494   1.675   5.613 -0.0763 -0.6238 -0.3174
  192SAPI  C31322302   2.427   1.872   5.670 -0.2394 -0.3993  0.3145
  192SAPI  H13X22303   2.326   1.854   5.627  0.6810  0.7102 -2.5143
  192SAPI  H13Y22304   2.443   1.979   5.645  1.6775 -1.3505 -3.0581
  192SAPI  C31422305   2.426   1.860   5.822 -0.6060  0.2837  0.1867
  192SAPI  H14X22306   2.528   1.882   5.861  0.4818 -0.2248 -2.2104
  192SAPI  H14Y22307   2.402   1.756   5.853  0.3460 -0.0315 -0.0934
  192SAPI  C31522308   2.321   1.953   5.887  0.1578 -0.2179  0.3152
  192SAPI  H15X22309   2.225   1.915   5.848 -0.9933  1.6255  1.2093
  192SAPI  H15Y22310   2.342   2.057   5.854  0.2742  0.3637  2.0988
  192SAPI  C31622311   2.326   1.937   6.043  0.3073  0.3723 -0.2220
  192SAPI  H16X22312   2.339   1.835   6.085 -0.3923 -0.0053 -0.9013
  192SAPI  H16Y22313   2.220   1.954   6.074  0.0503 -1.0284 -0.2770
  192SAPI  C31722314   2.405   2.043   6.115 -0.3884  0.2637 -1.0661
  192SAPI  H17X22315   2.357   2.058   6.214  2.0174 -0.6548  0.3437
  192SAPI  H17Y22316   2.402   2.140   6.062 -0.8582  1.4159  0.9419
  192SAPI  C31822317   2.548   1.997   6.150  0.0792 -0.1613 -0.2706
  192SAPI  H18X22318   2.610   1.955   6.067  0.8973  0.2902  0.1042
  192SAPI  H18Y22319   2.553   1.919   6.229 -2.6436 -0.6995 -0.5516
  192SAPI  H18Z22320   2.616   2.081   6.179  0.8120 -0.6024 -0.6756
  193SOD    SOD22321   1.411   2.728   0.662 -0.1650 -0.3364  0.6437
  194SOD    SOD22322   1.143   3.050   2.352  0.3197  0.1633  0.0917
  195SOD    SOD22323   4.450   6.861   1.039 -0.0788 -0.1518  0.0862
  196SOD    SOD22324   1.592   6.792   3.029  0.1919 -0.2296 -0.0752
  197SOD    SOD22325   5.792   3.199   1.074  0.0432 -0.0380 -0.2241
  198SOD    SOD22326   1.329   4.998   0.012  0.7192  0.0271  0.1837
  199SOD    SOD22327   3.467   6.664   3.411  0.4755 -0.0824  0.4061
  200SOD    SOD22328   6.425   4.949   8.596  0.0935 -0.3631  0.7345
  201SOD    SOD22329   2.003   4.435   8.380  0.6802 -0.1100  0.0104
  202SOD    SOD22330   6.383   1.341   0.150 -0.0446  0.3904 -0.2496
  203SOD    SOD22331   6.514   5.587   3.578 -0.5522  0.3912 -0.1870
  204SOD    SOD22332   0.595   0.782   8.280 -0.2286  0.3704 -0.3424
  205SOD    SOD22333   3.247   1.547   8.084 -0.3497 -0.1967 -0.4652
  206SOD    SOD22334   5.904   2.263   4.178 -0.8130 -0.5924 -0.0446
  207SOD    SOD22335   3.855   4.725   8.471 -0.1694 -0.2135 -0.1701
  208SOD    SOD22336   2.786   0.608   0.210 -0.1979  0.0340  0.2724
  209SOD    SOD22337   4.557   3.841   4.273  0.2744 -0.6073  0.1273
  210SOD    SOD22338   2.235   3.405   8.624  0.3417 -0.7141 -0.1760
  211SOD    SOD22339   4.108   0.582   1.022 -0.5615 -0.1987  0.7044
  212SOD    SOD22340   4.491   0.740   3.836 -0.2030  0.4018  0.0529
  213SOD    SOD22341   1.693   2.555   3.691  0.0942  0.0230  0.1296
  214SOD    SOD22342   2.998   4.585   2.440  0.5387  0.3527  0.3247
  215SOD    SOD22343   3.416   3.403   3.820 -0.3268  0.4346 -0.0675
  216SOD    SOD22344   5.025   3.772   2.258 -0.0522 -0.4913 -0.2609
  217SOD    SOD22345   6.269   6.045   3.059 -0.1242 -0.1041 -0.0747
  218SOD    SOD22346   1.264   5.587   2.760 -0.4153  0.4258  0.1632
  219SOD    SOD22347   6.277   3.055   3.949  0.6970 -0.6487  0.0283
  220SOD    SOD22348   6.826   3.867   0.133 -0.4347 -0.0986 -0.0692
  221SOD    SOD22349   3.510   4.499   0.721 -0.2008  0.0550 -0.4441
  222SOD    SOD22350   0.936   4.719   3.119 -0.1099 -0.4105 -0.0371
  223SOD    SOD22351   3.177   1.564   0.758  0.2158  0.4912  0.0047
  224SOD    SOD22352   6.086   3.844   0.913  0.2136 -0.2578 -0.1432
  225SOD    SOD22353   2.109   1.299   8.627 -0.5217 -0.0308 -0.2996
  226SOD    SOD22354   5.918   0.551   4.090  0.3051 -0.3713  0.0645
  227SOD    SOD22355   3.851   3.993   1.761 -0.2532 -0.2610  0.2660
  228SOD    SOD22356   0.816   6.141   1.156 -0.3576 -0.7242  0.3860
  229SOD    SOD22357   5.852   6.602   2.520 -0.0704 -0.1252 -0.0145
  230CLA    CLA22358   5.335   3.834   0.842  0.5351  0.2180 -0.0105
  231CLA    CLA22359   0.707   5.638   1.063 -0.1578  0.4387 -0.0381
  232CLA    CLA22360   3.698   5.321   0.808 -0.1204 -0.0580 -0.3000
  233CLA    CLA22361   5.505   0.200   0.980  0.0660  0.0420  0.0209
  234CLA    CLA22362   3.773   0.555   0.680 -0.1421 -0.1551  0.1535
  235CLA    CLA22363   0.072   3.594   3.127  0.0694  0.3552  0.1718
  236CLA    CLA22364   0.268   2.735   1.715  0.2670  0.4001  0.2343
  237CLA    CLA22365   2.441   0.476   2.744 -0.1471  0.1161 -0.0038
  238CLA    CLA22366   0.843   2.097   2.368  0.3753 -0.0476  0.2914
  239CLA    CLA22367   0.876   4.696   8.613  0.0795 -0.0333  0.0800
  240CLA    CLA22368   6.451   0.419   1.345 -0.2598 -0.4940 -0.0737
  241CLA    CLA22369   1.682   4.173   1.423 -0.2954  0.0191 -0.0099
  242CLA    CLA22370   5.756   1.468   3.523 -0.0875  0.3010  0.0741
  243CLA    CLA22371   5.013   4.071   2.697 -0.1345 -0.4554  0.0904
  244CLA    CLA22372   3.477   4.392   3.323 -0.3224 -0.0302  0.4784
  245CLA    CLA22373   3.600   4.771   0.177 -0.3079 -0.0609  0.0606
  246CLA    CLA22374   6.810   3.872   0.948 -0.0441 -0.0329  0.0644
  247TIP3   OH222375   2.643   1.448   0.802 -0.5047 -0.5517 -0.3145
  247TIP3    H122376   2.677   1.510   0.737  0.4318 -1.6239 -0.8878
  247TIP3    H222377   2.605   1.503   0.870  0.9071  0.6753 -0.4680
  248TIP3   OH222378   6.166   5.980   0.918  0.2982 -0.0835  0.2989
  248TIP3    H122379   6.197   6.049   0.860  1.3555 -0.1340  0.7748
  248TIP3    H222380   6.073   5.998   0.931  0.6417  1.5049  0.7582
  249TIP3   OH222381   3.772   0.604   3.039 -0.2096 -0.1517 -0.3736
  249TIP3    H122382   3.800   0.629   2.951  1.3764 -3.4817 -0.9756
  249TIP3    H222383   3.853   0.580   3.084 -1.2515 -1.4706  0.9104
  250TIP3   OH222384   5.263   1.852   3.693  0.3654 -0.3742  0.4300
  250TIP3    H122385   5.222   1.828   3.776  0.0367 -0.0287  0.3703
  250TIP3    H222386   5.339   1.904   3.718  0.1945 -0.1613  0.5163
  251TIP3   OH222387   1.229   3.042   0.109 -0.0891  0.2242 -0.4630
  251TIP3    H122388   1.212   3.043   0.015  0.4070 -1.1052 -0.5874
  251TIP3    H222389   1.308   3.096   0.119  1.1825 -1.4271 -1.1274
  252TIP3   OH222390   1.814   3.429   3.525 -0.4487 -0.0366  0.4132
  252TIP3    H122391   1.845   3.468   3.607 -0.4789  0.6730  0.0903
  252TIP3    H222392   1.719   3.442   3.527 -0.3951  0.4289  0.0384
  253TIP3   OH222393   1.770   5.489   0.934 -0.0680  0.1362 -0.5129
  253TIP3    H122394   1.755   5.399   0.903  0.8512 -0.3842  0.4936
  253TIP3    H222395   1.683   5.525   0.945 -0.4687 -0.8170 -0.4294
  254TIP3   OH222396   1.886   0.539   2.809 -0.1803 -0.3123  0.0995
  254TIP3    H122397   1.900   0.619   2.861  0.2212  0.4128 -1.0819
  254TIP3    H222398   1.952   0.478   2.841 -0.3504 -0.1051  0.8728
  255TIP3   OH222399   2.011   0.313   1.575 -0.3879 -0.3596  0.6349
  255TIP3    H122400   1.954   0.237   1.584 -0.7322 -0.3101 -0.8266
  255TIP3    H222401   1.974   0.378   1.635 -1.5683 -0.5087  0.1022
  256TIP3   OH222402   5.329   6.665   3.690  0.4303  0.4587 -0.0160
  256TIP3    H122403   5.245   6.694   3.725  0.1349 -1.6284  1.1828
  256TIP3    H222404   5.308   6.590   3.635  1.6084 -1.7555  2.3156
  257TIP3   OH222405   1.733   0.298   8.067  0.2868  0.0225 -0.0050
  257TIP3    H122406   1.681   0.369   8.029  0.2005 -0.2155 -0.3334
  257TIP3    H222407   1.823   0.323   8.049  0.2342 -0.2505 -0.6541
  258TIP3   OH222408   4.806   5.497   0.059 -0.7462 -0.2327 -0.0599
  258TIP3    H122409   4.854   5.435   0.003  1.3036  1.5837 -0.4395
  258TIP3    H222410   4.762   5.555  -0.003  1.3181  1.6244  0.1102
  259TIP3   OH222411   1.746   5.543   1.647 -0.6190  0.3669  0.8455
  259TIP3    H122412   1.721   5.600   1.574 -0.6288 -0.7932 -0.0931
  259TIP3    H222413   1.839   5.527   1.634 -0.6701 -0.0279  0.9603
  260TIP3   OH222414   2.106   6.078   2.485 -0.1695  0.1518  0.5144
  260TIP3    H122415   2.025   6.072   2.535  0.2614 -1.1184  1.1011
  260TIP3    H222416   2.169   6.024   2.534  0.8129  0.4894 -0.3355
  261TIP3   OH222417   5.282   2.265   3.825  0.1928 -0.8026 -0.0776
  261TIP3    H122418   5.252   2.312   3.904  1.2575 -0.0999 -0.0669
  261TIP3    H222419   5.203   2.254   3.773 -0.2831  0.0428  0.4326
  262TIP3   OH222420   4.746   5.020   0.481 -0.3384  0.2294  0.1461
  262TIP3    H122421   4.673   4.977   0.436 -0.4056  1.3692 -0.8963
  262TIP3    H222422   4.710   5.105   0.509  0.3811  0.5113  0.2335
  263TIP3   OH222423   4.921   4.607   3.092  0.1278 -0.1353  0.4999
  263TIP3    H122424   4.892   4.662   3.165 -2.4124 -1.7191  0.7985
  263TIP3    H222425   4.985   4.547   3.131  1.8058  1.5362  0.4804
  264TIP3   OH222426   3.863   3.697   8.710  0.7434  0.2177 -0.1983
  264TIP3    H122427   3.939   3.754   8.723  1.0969 -0.5081  1.0527
  264TIP3    H222428   3.799   3.727   8.775  0.3854  0.0852 -0.4824
  265TIP3   OH222429   2.389   3.673   0.558  0.4085 -0.0727 -0.1884
  265TIP3    H122430   2.318   3.631   0.607  1.2356 -0.9606  0.3065
  265TIP3    H222431   2.350   3.699   0.475 -0.3800 -0.9889 -0.1235
  266TIP3   OH222432   3.176   0.032   1.815  0.1731  0.5886  0.3606
  266TIP3    H122433   3.118  -0.006   1.750 -0.8924  0.9043  1.0971
  266TIP3    H222434   3.204  -0.043   1.869  1.2616  0.2894 -0.5791
  267TIP3   OH222435   3.335   5.565   3.165  0.0562  0.1945  0.0416
  267TIP3    H122436   3.299   5.477   3.148 -0.6520  0.4636  0.1067
  267TIP3    H222437   3.258   5.619   3.181  0.4646  0.9357 -0.4478
  268TIP3   OH222438   6.846   0.442   0.841 -0.6088 -0.4168 -0.1708
  268TIP3    H122439   6.782   0.459   0.910  0.1015  1.1423  0.1362
  268TIP3    H222440   6.927   0.422   0.888 -0.8588 -2.5520 -0.5531
  269TIP3   OH222441   0.995   6.036   1.646 -0.5961  0.3052 -0.5732
  269TIP3    H122442   1.022   5.944   1.639  2.8730  1.3049 -3.1155
  269TIP3    H222443   0.911   6.033   1.691 -1.0230 -4.1635 -1.2135
  270TIP3   OH222444   6.064   6.421   0.514 -0.7111  0.3233 -0.3029
  270TIP3    H122445   6.095   6.406   0.424 -0.0642 -2.0009  0.2380
  270TIP3    H222446   5.968   6.422   0.506 -0.6674 -0.1381 -0.9985
  271TIP3   OH222447   0.541   1.719   2.162 -0.7704  0.0296  0.0986
  271TIP3    H122448   0.603   1.745   2.094 -0.2883 -0.3422  0.3930
  271TIP3    H222449   0.455   1.727   2.121 -0.5979  1.4346 -0.0328
  272TIP3   OH222450   3.381   1.578   0.676 -0.4226  0.3019 -0.5795
  272TIP3    H122451   3.439   1.536   0.612  0.7556  1.5233 -0.3580
  272TIP3    H222452   3.406   1.671   0.673 -0.8453  0.4950  1.1307
  273TIP3   OH222453   2.735   3.824   0.324  0.1851 -0.1287 -0.1446
  273TIP3    H122454   2.814   3.776   0.297 -0.7762 -1.4666 -0.6899
  273TIP3    H222455   2.663   3.769   0.294 -0.9593  0.6418  1.1045
  274TIP3   OH222456   3.199   4.278   1.189 -0.2283  0.0244 -0.4049
  274TIP3    H122457   3.225   4.287   1.280 -1.4480 -0.8716  0.0618
  274TIP3    H222458   3.210   4.366   1.152  1.2916  0.1653  0.2976
  275TIP3   OH222459   0.659   4.227   8.436  0.4685 -0.5573 -0.0855
  275TIP3    H122460   0.578   4.199   8.394  0.5597  1.0134 -1.4158
  275TIP3    H222461   0.677   4.313   8.398  1.2833  0.3802  2.2563
  276TIP3   OH222462   0.522   6.685   1.976  0.4552 -0.0123  0.6439
  276TIP3    H122463   0.533   6.622   1.904  1.1438 -1.0115  1.5827
  276TIP3    H222464   0.491   6.765   1.934 -1.0140 -1.1381 -0.5295
  277TIP3   OH222465   4.392   6.063   0.075  0.0715  0.4991 -0.2548
  277TIP3    H122466   4.378   5.995   0.009  3.9178 -1.5404  0.7329
  277TIP3    H222467   4.309   6.069   0.122 -1.5369 -0.7844 -2.6973
  278TIP3   OH222468   4.461   5.702   3.682  0.0626  0.2045 -0.3932
  278TIP3    H122469   4.403   5.778   3.675 -1.4200 -0.7950  0.5456
  278TIP3    H222470   4.508   5.716   3.765  1.3551  1.0949 -1.2312
  279TIP3   OH222471   2.379   0.379   1.629  0.0818  0.5584 -0.1389
  279TIP3    H122472   2.432   0.403   1.704 -0.6999 -0.4610  0.7858
  279TIP3    H222473   2.346   0.462   1.594  0.6840  1.0569  0.4661
  280TIP3   OH222474   2.901   6.081   8.478  0.0481  0.1358  0.2905
  280TIP3    H122475   2.867   6.142   8.413 -1.7267 -0.7170  0.3601
  280TIP3    H222476   2.891   5.995   8.438 -0.4451 -0.3509  1.4041
  281TIP3   OH222477   0.287   0.240   2.207  0.2173 -0.6516  0.1289
  281TIP3    H122478   0.250   0.251   2.294 -0.0600  0.0322 -0.0630
  281TIP3    H222479   0.377   0.213   2.222  0.3816  0.1519  0.6448
  282TIP3   OH222480   2.718   1.938   2.988  0.0167 -0.4444 -0.4306
  282TIP3    H122481   2.646   1.987   2.949  0.7297  1.1368  0.1157
  282TIP3    H222482   2.797   1.984   2.957  0.7770 -1.8786 -0.6926
  283TIP3   OH222483   5.463   2.458   0.938 -0.2172 -0.0940  0.1210
  283TIP3    H122484   5.504   2.503   0.864  0.0854 -0.8847 -0.2110
  283TIP3    H222485   5.499   2.370   0.935 -3.0069 -1.3390 -1.1008
  284TIP3   OH222486   1.715   2.010   2.890  0.2172  0.0007  0.3044
  284TIP3    H122487   1.641   1.983   2.945 -0.4581 -0.9134 -1.0010
  284TIP3    H222488   1.712   2.105   2.892 -0.7443 -0.0220  0.6177
  285TIP3   OH222489   1.977   5.416   8.158 -0.0361 -0.1434 -0.1076
  285TIP3    H122490   2.066   5.391   8.134  0.7012  1.2320  1.0585
  285TIP3    H222491   1.925   5.398   8.080  1.8750  2.2202 -2.1095
  286TIP3   OH222492   4.290   6.618   3.278  0.6122  0.0671 -0.3807
  286TIP3    H122493   4.235   6.542   3.298  1.4207 -0.2740  0.5960
  286TIP3    H222494   4.294   6.667   3.360 -0.0951  1.3148 -1.0657
  287TIP3   OH222495   0.552   2.083   2.701 -0.4480  0.2037  0.0338
  287TIP3    H122496   0.465   2.050   2.679  0.4154 -1.0538 -1.7327
  287TIP3    H222497   0.602   2.005   2.726  0.7173  0.5904 -0.9476
  288TIP3   OH222498   0.707   5.563   2.240  0.2282 -0.2640 -0.5079
  288TIP3    H122499   0.791   5.595   2.272  0.1899 -0.5508 -0.1224
  288TIP3    H222500   0.642   5.603   2.297  0.2974 -3.0300  1.7136
  289TIP3   OH222501   4.881   1.439   8.691  0.4867  0.2123 -0.6916
  289TIP3    H122502   4.926   1.511   8.647  0.5498  0.8784  0.4467
  289TIP3    H222503   4.949   1.396   8.742  0.3511 -0.3861 -0.9991
  290TIP3   OH222504   1.687   0.752   2.415 -0.3689 -0.3120  0.4194
  290TIP3    H122505   1.647   0.774   2.499  0.5402  0.9721  0.5302
  290TIP3    H222506   1.733   0.831   2.389  2.2167 -1.7565  0.3569
  291TIP3   OH222507   0.272   1.454   0.226  0.2025  0.4606 -0.0133
  291TIP3    H122508   0.269   1.358   0.216 -0.0158  0.1319  2.4158
  291TIP3    H222509   0.360   1.477   0.197  1.1883 -0.8857  1.6720
  292TIP3   OH222510   2.798   5.973   2.778 -0.4088  0.0611  0.0117
  292TIP3    H122511   2.773   5.931   2.696 -2.3276  1.7047 -0.3273
  292TIP3    H222512   2.737   5.938   2.843 -0.7411  0.8356  0.1263
  293TIP3   OH222513   0.073   2.352   0.543  0.1011 -0.5610  0.1565
  293TIP3    H122514   0.061   2.290   0.471 -0.4979 -0.4825  0.1855
  293TIP3    H222515   0.066   2.298   0.622 -2.0427 -0.2567  0.2484
  294TIP3   OH222516   3.269   3.896   3.323  0.6736 -0.3952 -0.3764
  294TIP3    H122517   3.284   3.920   3.414  0.8875  3.9328 -1.3436
  294TIP3    H222518   3.344   3.933   3.276 -1.5504  1.4936 -2.7152
  295TIP3   OH222519   2.575   1.655   0.570  0.1742 -0.0503  0.4688
  295TIP3    H122520   2.574   1.748   0.591  2.3175  0.2719 -0.6490
  295TIP3    H222521   2.598   1.651   0.478  0.7238 -1.7071  0.6438
  296TIP3   OH222522   0.622   6.469   1.507 -0.2628  0.6187  0.6128
  296TIP3    H122523   0.686   6.540   1.519 -0.2357  0.4936  1.2384
  296TIP3    H222524   0.671   6.400   1.461 -0.3780  1.1241 -0.2885
  297TIP3   OH222525   4.315   1.248   1.278 -0.3643  0.0713 -0.1451
  297TIP3    H122526   4.320   1.159   1.315  1.0703  0.3373  0.3279
  297TIP3    H222527   4.238   1.286   1.321 -0.4205 -0.6117  0.3896
  298TIP3   OH222528   2.871   5.404   2.130 -0.1998  0.3209 -0.0585
  298TIP3    H122529   2.832   5.362   2.054 -0.9228 -1.0622  1.0268
  298TIP3    H222530   2.962   5.377   2.130 -0.5420 -0.8937  0.3487
  299TIP3   OH222531   6.384   5.618   2.055  0.1386  0.1043 -0.3441
  299TIP3    H122532   6.308   5.662   2.094 -0.0392 -0.1644 -0.3881
  299TIP3    H222533   6.450   5.620   2.123 -0.6620 -1.7363  0.5644
  300TIP3   OH222534   4.930   6.823   0.627 -0.0902 -0.0799  0.1823
  300TIP3    H122535   5.014   6.841   0.586 -1.1668  0.5605 -1.8641
  300TIP3    H222536   4.920   6.728   0.619 -0.2313  0.0220 -0.9775
  301TIP3   OH222537   2.582   3.357   0.212 -0.2787  0.6087 -0.5748
  301TIP3    H122538   2.528   3.347   0.291 -0.0381 -0.0130 -0.4860
  301TIP3    H222539   2.619   3.270   0.197 -0.4548  0.6826 -1.4721
  302TIP3   OH222540   4.037   0.180   1.539  0.2393  0.4547  0.3657
  302TIP3    H122541   4.105   0.227   1.491 -1.5259  1.3469 -1.4234
  302TIP3    H222542   3.974   0.154   1.472 -1.2194 -0.2886  1.9451
  303TIP3   OH222543   6.160   2.347   3.187  0.3006 -0.0457  0.1733
  303TIP3    H122544   6.208   2.327   3.107  0.8600  0.7397  0.3025
  303TIP3    H222545   6.221   2.325   3.257 -0.2756 -0.9592  0.3968
  304TIP3   OH222546   0.618   6.055   0.646  0.2775  0.3433 -0.1851
  304TIP3    H122547   0.621   6.142   0.687 -0.3244  1.0751 -1.6287
  304TIP3    H222548   0.633   6.072   0.553  1.5622 -1.2658 -0.3196
  305TIP3   OH222549   2.599   2.368   1.053  0.4162  0.2923 -0.4871
  305TIP3    H122550   2.679   2.389   1.102  0.0597  0.4316  0.0486
  305TIP3    H222551   2.595   2.434   0.984  0.5424  0.5547 -0.2495
  306TIP3   OH222552   3.146   2.571   1.911  0.6249  0.8376  0.0512
  306TIP3    H122553   3.208   2.501   1.891 -0.7412 -0.3503 -0.1352
  306TIP3    H222554   3.185   2.649   1.871  0.7400 -0.3680 -2.3633
  307TIP3   OH222555   2.525   3.489   8.046 -0.4290 -0.1177 -0.2551
  307TIP3    H122556   2.586   3.417   8.055 -0.3439 -0.0321 -0.1468
  307TIP3    H222557   2.545   3.528   7.961  0.4562  0.6408  0.2826
  308TIP3   OH222558   2.361   2.594   0.389 -0.1574 -0.2033  0.0408
  308TIP3    H122559   2.342   2.669   0.445 -0.8158 -0.8955  0.7701
  308TIP3    H222560   2.444   2.560   0.422 -0.4890 -0.5434  0.5441
  309TIP3   OH222561   6.395   4.958   0.418 -0.3680 -0.1172 -0.7920
  309TIP3    H122562   6.385   4.896   0.490  1.3726 -0.1204 -0.4966
  309TIP3    H222563   6.306   4.985   0.397 -0.9301  0.0990  1.5470
  310TIP3   OH222564   6.394   6.833   2.684 -0.0552  0.2192 -0.6292
  310TIP3    H122565   6.371   6.866   2.771 -1.0310 -0.4510 -0.6091
  310TIP3    H222566   6.470   6.885   2.657  1.4527 -0.8077  1.3852
  311TIP3   OH222567   5.034   2.044   1.773 -0.3953 -0.2704  0.3349
  311TIP3    H122568   5.094   2.063   1.701 -0.1410 -1.7611  0.1131
  311TIP3    H222569   4.955   2.095   1.753 -0.0953 -0.1763 -0.6739
  312TIP3   OH222570   6.553   5.319   2.784 -0.8122 -0.1632 -0.1099
  312TIP3    H122571   6.598   5.358   2.709 -1.1948  2.2906  0.8181
  312TIP3    H222572   6.593   5.233   2.796  0.5419  0.1701 -1.9543
  313TIP3   OH222573   6.403   2.043   0.186 -0.1903 -0.4711 -0.2175
  313TIP3    H122574   6.393   1.948   0.196 -1.2878 -0.2198  1.2684
  313TIP3    H222575   6.314   2.076   0.183  0.1749  0.6810  0.9748
  314TIP3   OH222576   5.811   5.494   2.611 -0.2369  0.8656 -0.2077
  314TIP3    H122577   5.775   5.418   2.565  3.1503 -0.5134 -0.8682
  314TIP3    H222578   5.822   5.465   2.701 -0.2263  1.0748 -0.1406
  315TIP3   OH222579   2.927   1.609   0.775  0.0799 -0.5915 -0.2792
  315TIP3    H122580   2.887   1.537   0.726 -1.0229 -0.4463  0.3722
  315TIP3    H222581   2.853   1.658   0.810  0.8303  0.2164  0.2161
  316TIP3   OH222582   1.636   0.005   1.795 -0.0097  0.5942 -0.2985
  316TIP3    H122583   1.574   0.039   1.729 -0.3203  0.5656 -0.0248
  316TIP3    H222584   1.593   0.023   1.879 -0.3133 -0.7278 -0.1505
  317TIP3   OH222585   0.902   1.181   0.121  0.0881  0.3299  0.5109
  317TIP3    H122586   0.867   1.112   0.065 -1.9855 -1.0369  3.2681
  317TIP3    H222587   0.869   1.262   0.082 -0.0588 -0.4377 -1.0402
  318TIP3   OH222588   4.702   3.229   0.520  0.3743  0.1015  0.2972
  318TIP3    H122589   4.751   3.268   0.448  0.8365 -2.5352 -0.9369
  318TIP3    H222590   4.765   3.175   0.567 -0.5195 -0.3348  1.0488
  319TIP3   OH222591   3.219   3.891   7.974 -0.2809 -0.2089 -0.3616
  319TIP3    H122592   3.257   3.804   7.958 -0.1203  0.0241 -1.2931
  319TIP3    H222593   3.255   3.946   7.904 -0.0243  0.7208  0.4781
  320TIP3   OH222594   2.828   5.309   0.187 -0.5487 -0.6257  0.4057
  320TIP3    H122595   2.796   5.219   0.183  0.6816 -1.0544 -0.2596
  320TIP3    H222596   2.758   5.358   0.230 -0.6444 -2.1765  2.1251
  321TIP3   OH222597   0.127   6.240   0.791 -0.7284 -0.1666  0.0156
  321TIP3    H122598   0.100   6.229   0.700  2.9727 -0.6323 -1.2083
  321TIP3    H222599   0.163   6.329   0.794  0.1624 -0.5429  0.7126
  322TIP3   OH222600   5.936   4.767   8.615  0.5577 -0.4886 -0.2577
  322TIP3    H122601   5.937   4.675   8.640 -0.7977 -0.7170 -0.9599
  322TIP3    H222602   5.977   4.812   8.688 -0.3054 -1.4761  0.8675
  323TIP3   OH222603   1.308   5.000   1.442 -0.6622  0.2240 -0.2530
  323TIP3    H122604   1.244   4.984   1.372 -0.6630  1.0778 -0.4547
  323TIP3    H222605   1.273   5.075   1.490  0.0706  0.5604 -0.2309
  324TIP3   OH222606   1.421   3.421   2.519  0.3918 -0.3703 -0.7904
  324TIP3    H122607   1.443   3.336   2.557  2.5332  0.2574 -0.4635
  324TIP3    H222608   1.476   3.483   2.567  0.1631  0.9675 -2.1920
  325TIP3   OH222609   2.702   3.108   0.216  0.1059 -0.9113 -0.2764
  325TIP3    H122610   2.781   3.162   0.223  1.2642 -2.2657 -1.8802
  325TIP3    H222611   2.728   3.022   0.250 -1.3253 -0.8351  1.1017
  326TIP3   OH222612   3.733   4.918   8.432  0.1025 -0.2392  0.1727
  326TIP3    H122613   3.731   4.993   8.373  0.4286  0.1605  0.6602
  326TIP3    H222614   3.671   4.941   8.502  0.3620 -0.3275  0.4337
  327TIP3   OH222615   0.393   4.093   2.391 -0.0323  0.1701  0.1988
  327TIP3    H122616   0.460   4.028   2.369 -1.2150 -1.5590  1.3573
  327TIP3    H222617   0.316   4.065   2.342 -0.3694  1.1575  0.1409
  328TIP3   OH222618   3.758   1.107   2.322 -0.3428  0.1800  0.0878
  328TIP3    H122619   3.740   1.021   2.360 -0.6036  0.1661 -0.0658
  328TIP3    H222620   3.716   1.105   2.236 -1.1731  0.8017  0.4696
  329TIP3   OH222621   3.488   5.609   2.959  0.3995 -0.4760 -0.1327
  329TIP3    H122622   3.427   5.602   3.032  0.3860 -0.2920 -0.1258
  329TIP3    H222623   3.574   5.599   2.999  0.4089 -0.0719 -0.0459
  330TIP3   OH222624   1.037   0.009   1.074 -0.0793  0.1542 -0.4231
  330TIP3    H122625   1.118   0.030   1.029 -0.4213  0.6084 -0.8358
  330TIP3    H222626   1.048  -0.082   1.104  0.8407  0.4368  0.1159
  331TIP3   OH222627   2.885   5.028   1.821 -0.1085 -0.4035 -0.6235
  331TIP3    H122628   2.875   4.971   1.898 -0.9354 -0.1764 -0.5481
  331TIP3    H222629   2.859   4.974   1.747 -1.2622 -0.0441 -0.5125
  332TIP3   OH222630   2.602   3.279   7.757  0.2818  0.4612 -0.1173
  332TIP3    H122631   2.636   3.276   7.846  1.1147 -0.1808 -0.4443
  332TIP3    H222632   2.632   3.362   7.722 -0.2964  0.8499  0.2837
  333TIP3   OH222633   6.859   6.087   8.508 -0.0392 -0.5143 -0.5968
  333TIP3    H122634   6.779   6.035   8.495  0.1189 -0.8359 -0.2868
  333TIP3    H222635   6.845   6.166   8.455  0.3995 -1.6021 -2.4197
  334TIP3   OH222636   4.095   1.950   2.339 -0.1512  0.1729 -0.2352
  334TIP3    H122637   4.027   1.960   2.405  0.0229  0.1327 -0.0449
  334TIP3    H222638   4.177   1.956   2.389  0.0640  2.5755 -0.7639
  335TIP3   OH222639   5.606   0.738   4.415  0.3036 -0.1218  0.2694
  335TIP3    H122640   5.517   0.763   4.390  0.6382  0.7678 -0.0750
  335TIP3    H222641   5.659   0.814   4.394  1.0596 -0.4146  1.0536
  336TIP3   OH222642   2.319   3.767   1.578  0.6126  0.7201 -0.3233
  336TIP3    H122643   2.282   3.692   1.531  0.5935 -0.9943  2.2558
  336TIP3    H222644   2.246   3.828   1.586 -0.9307 -1.2482  1.9335
  337TIP3   OH222645   3.537   6.596   0.532 -0.1840  0.5051 -0.0237
  337TIP3    H122646   3.557   6.546   0.453 -0.2391  1.1049 -0.4322
  337TIP3    H222647   3.443   6.584   0.545 -0.6031  2.0307 -1.2508
  338TIP3   OH222648   3.810   1.812   1.161  0.1481 -0.1740  0.1372
  338TIP3    H122649   3.822   1.737   1.220 -0.2656 -1.8321 -1.7964
  338TIP3    H222650   3.716   1.818   1.149  0.2296  0.1812 -0.3372
  339TIP3   OH222651   4.465   4.780   2.920 -0.4257  0.0649  0.6657
  339TIP3    H122652   4.428   4.868   2.923 -2.6176 -0.7395 -0.5458
  339TIP3    H222653   4.559   4.793   2.907 -0.5379  2.2054  1.6214
  340TIP3   OH222654   4.261   4.711   3.077 -0.4024  0.1552 -0.1830
  340TIP3    H122655   4.286   4.780   3.140  0.5425  1.4688 -1.9116
  340TIP3    H222656   4.329   4.716   3.009 -1.2298 -1.4226 -1.1536
  341TIP3   OH222657   1.798   3.851   2.512 -0.8342  0.0967 -0.0017
  341TIP3    H122658   1.838   3.862   2.599 -0.1480 -0.4230 -0.2335
  341TIP3    H222659   1.841   3.773   2.477 -2.6162 -0.9516  0.0311
  342TIP3   OH222660   2.630   0.671   2.941  0.3046  0.3708 -0.1786
  342TIP3    H122661   2.585   0.640   2.863  0.0778  0.6007 -0.1383
  342TIP3    H222662   2.574   0.645   3.014  0.5160  0.1561 -0.0867
  343TIP3   OH222663   1.438   5.276   1.916  0.2615 -0.1605 -0.0855
  343TIP3    H122664   1.467   5.311   2.001  2.6669 -0.8971 -0.5345
  343TIP3    H222665   1.390   5.348   1.876  2.0331  1.4322  0.5046
  344TIP3   OH222666   6.056   5.186   3.316  0.2497  0.0036 -0.2456
  344TIP3    H122667   5.993   5.136   3.366 -0.0275 -0.6615 -1.2334
  344TIP3    H222668   6.010   5.266   3.291 -0.5860 -0.9090 -1.8022
  345TIP3   OH222669   5.843   0.734   0.596  0.2794 -0.2006 -0.3085
  345TIP3    H122670   5.869   0.645   0.623  0.1989 -0.7036 -1.8171
  345TIP3    H222671   5.748   0.736   0.606  0.0066 -1.0635 -2.3865
  346TIP3   OH222672   4.197   3.094   3.522 -0.3879 -0.4689  0.0301
  346TIP3    H122673   4.263   3.076   3.590 -0.7358 -2.4375 -0.0697
  346TIP3    H222674   4.125   3.035   3.544 -2.7762  2.5241  0.8886
  347TIP3   OH222675   5.083   2.039   2.632  0.5084  0.2088  0.0282
  347TIP3    H122676   5.055   1.952   2.603  2.7066 -0.4337 -0.3525
  347TIP3    H222677   5.010   2.072   2.684  0.0528 -2.3329  1.1230
  348TIP3   OH222678   2.968   3.400   2.573  0.2816 -0.2271 -0.1657
  348TIP3    H122679   2.875   3.379   2.578  0.4727 -0.8297  1.1080
  348TIP3    H222680   2.972   3.495   2.578 -0.3702 -0.0085 -2.4436
  349TIP3   OH222681   0.464   0.677   2.053 -1.1354 -0.7142  0.6084
  349TIP3    H122682   0.391   0.651   2.109 -0.9540  0.3813  1.3906
  349TIP3    H222683   0.471   0.772   2.066  2.4866 -1.1575  3.0781
  350TIP3   OH222684   4.737   3.768   0.344  0.2445 -0.0989  0.0784
  350TIP3    H122685   4.770   3.759   0.255  1.3013 -0.4929  0.4953
  350TIP3    H222686   4.799   3.826   0.388  0.7876 -1.3471  1.0460
  351TIP3   OH222687   4.377   4.604   1.817 -0.3215 -0.1088  0.4162
  351TIP3    H122688   4.370   4.665   1.744  0.3511 -0.0984  0.3497
  351TIP3    H222689   4.382   4.659   1.895  1.4389 -0.0041  0.2726
  352TIP3   OH222690   4.930   3.630   8.096  0.2918  0.4357  0.5238
  352TIP3    H122691   4.903   3.721   8.084  0.9837  0.8935  2.1162
  352TIP3    H222692   4.974   3.630   8.181 -1.9655 -1.8750  1.8210
  353TIP3   OH222693   5.555   1.044   4.083 -0.1198 -0.0502 -0.0396
  353TIP3    H122694   5.526   1.038   3.992  1.1480 -0.0573 -0.4615
  353TIP3    H222695   5.529   1.132   4.111 -0.1320  0.1065 -0.5361
  354TIP3   OH222696   4.383   4.453   0.316  0.1299 -0.1050  0.7427
  354TIP3    H122697   4.360   4.530   0.368 -1.7726 -0.2038  0.1035
  354TIP3    H222698   4.473   4.470   0.288 -0.6927  2.5955 -0.5659
  355TIP3   OH222699   3.693   0.999   2.806 -0.0984 -0.1921 -0.2165
  355TIP3    H122700   3.765   1.062   2.812  0.9337 -1.2434 -1.1166
  355TIP3    H222701   3.643   1.026   2.730  0.4811 -0.5734 -0.7434
  356TIP3   OH222702   0.489   0.625   8.404 -0.2044  0.1707  0.5741
  356TIP3    H122703   0.472   0.541   8.363 -0.6698  0.3165  0.4622
  356TIP3    H222704   0.428   0.629   8.478 -1.2193  1.0152 -0.2725
  357TIP3   OH222705   5.622   4.837   3.085  0.1390 -0.0217 -0.0893
  357TIP3    H122706   5.709   4.840   3.044  0.0509  1.0881 -0.2353
  357TIP3    H222707   5.607   4.927   3.115 -0.8623 -0.2550  0.1401
  358TIP3   OH222708   3.241   2.550   8.452 -0.8271  0.2072 -0.0176
  358TIP3    H122709   3.290   2.574   8.530  0.4645 -1.7686 -0.1659
  358TIP3    H222710   3.267   2.615   8.386  0.8745 -0.2157  0.1918
  359TIP3   OH222711   1.437   3.267   3.496  0.0718  0.8163 -0.1634
  359TIP3    H122712   1.510   3.212   3.524  0.6080  2.4220  1.8463
  359TIP3    H222713   1.391   3.215   3.431  1.2537 -1.4780  0.7264
  360TIP3   OH222714   5.026   5.231   3.166  0.1929 -0.4907 -0.5990
  360TIP3    H122715   5.062   5.265   3.248  0.3019  1.4422 -1.4003
  360TIP3    H222716   5.060   5.142   3.161  1.6215 -0.0680  0.6157
  361TIP3   OH222717   3.792   4.649   3.188  0.4411 -0.1625  0.6506
  361TIP3    H122718   3.814   4.627   3.097  1.0163  0.6039  0.5980
  361TIP3    H222719   3.777   4.744   3.186  1.2645 -0.0093  1.5246
  362TIP3   OH222720   3.275   4.884   0.847 -0.3412 -0.0374  0.3809
  362TIP3    H122721   3.227   4.899   0.765 -0.0540 -1.8997 -0.1784
  362TIP3    H222722   3.260   4.963   0.899 -2.9679 -0.0309 -0.2783
  363TIP3   OH222723   1.706   5.796   3.383  0.4254  0.6149  0.0908
  363TIP3    H122724   1.623   5.822   3.424  0.4352  2.5888 -1.0081
  363TIP3    H222725   1.689   5.804   3.289  0.9172 -2.1550 -0.3232
  364TIP3   OH222726   4.302   2.198   1.496 -0.2815  0.4820 -0.2251
  364TIP3    H122727   4.247   2.158   1.429 -0.0555  2.3485 -1.6338
  364TIP3    H222728   4.246   2.205   1.573 -0.8765 -0.8001 -0.5260
  365TIP3   OH222729   5.422   0.016   2.665  0.1853 -0.1270  0.1078
  365TIP3    H122730   5.494   0.060   2.619 -0.2065 -0.7928 -1.1988
  365TIP3    H222731   5.367   0.087   2.696  1.2921  0.3874  0.9620
  366TIP3   OH222732   2.197   3.615   0.773 -0.1498 -0.1133 -0.0363
  366TIP3    H122733   2.146   3.697   0.777  0.4303  0.3026 -0.9245
  366TIP3    H222734   2.233   3.606   0.861 -0.4483  0.4409  0.1527
  367TIP3   OH222735   3.168   1.699   1.559 -0.2182  0.6527 -0.1671
  367TIP3    H122736   3.193   1.746   1.638  1.1188  1.5387 -1.0613
  367TIP3    H222737   3.215   1.744   1.488 -2.6039  0.9160 -1.7086
  368TIP3   OH222738   4.885   1.443   2.755 -1.3370  0.4828 -0.0386
  368TIP3    H122739   4.797   1.432   2.793 -1.7257  1.4516 -0.6304
  368TIP3    H222740   4.912   1.530   2.782 -0.1315 -0.1608  0.9409
  369TIP3   OH222741   0.610   1.885   8.415 -0.2672  0.1930  0.5335
  369TIP3    H122742   0.599   1.938   8.336  2.7574  2.0584  1.2022
  369TIP3    H222743   0.650   1.804   8.384 -0.8432  0.1025 -0.0077
  370TIP3   OH222744   6.511   1.225   3.953  0.1472  0.1736 -0.2304
  370TIP3    H122745   6.597   1.249   3.988 -0.2351  0.6162  0.4267
  370TIP3    H222746   6.475   1.307   3.919 -0.2581  0.1078  0.0281
  371TIP3   OH222747   6.019   1.174   2.133 -0.1939 -0.2730  0.4912
  371TIP3    H122748   6.061   1.093   2.105 -1.3406 -0.4379 -0.8519
  371TIP3    H222749   5.926   1.160   2.116 -0.6387  0.6185  2.0453
  372TIP3   OH222750   5.678   2.230   3.207  0.4622  0.2616 -0.3296
  372TIP3    H122751   5.662   2.227   3.113  1.4843 -1.6905 -0.4935
  372TIP3    H222752   5.773   2.225   3.216  0.3892  0.6415  0.7979
  373TIP3   OH222753   3.645   4.232   3.107  0.0907  0.4308 -0.2218
  373TIP3    H122754   3.576   4.229   3.041 -0.3808  0.0036  0.2766
  373TIP3    H222755   3.602   4.267   3.185  0.0837 -1.0607  0.4834
  374TIP3   OH222756   5.263   1.017   3.031  0.3269  0.0174  0.0214
  374TIP3    H122757   5.326   1.024   2.959 -1.4423 -0.1768 -1.6422
  374TIP3    H222758   5.208   1.096   3.022  1.3418  1.1074  2.5269
  375TIP3   OH222759   4.123   5.807   2.608  0.7684 -0.3715  0.8765
  375TIP3    H122760   4.064   5.834   2.679 -1.6869  0.0108 -1.1883
  375TIP3    H222761   4.204   5.857   2.624 -1.1869  3.0572  1.0752
  376TIP3   OH222762   4.030   4.758   1.693 -0.1740  0.9375  0.6113
  376TIP3    H122763   3.996   4.729   1.777  0.6438 -1.3169  0.2300
  376TIP3    H222764   4.123   4.774   1.709 -0.0753  0.7816  0.2098
  377TIP3   OH222765   3.895   3.331   1.951 -0.6161  0.0523  0.1462
  377TIP3    H122766   3.823   3.312   1.891 -0.4619 -1.8434  0.5069
  377TIP3    H222767   3.938   3.246   1.965  1.2170  0.9974  0.5532
  378TIP3   OH222768   4.394   1.122   0.422 -0.1033 -0.1571  0.3592
  378TIP3    H122769   4.377   1.150   0.332 -0.6561 -1.8720 -0.1219
  378TIP3    H222770   4.315   1.149   0.471 -0.0957  0.1824  0.1841
  379TIP3   OH222771   0.416   2.427   2.419  0.3274  0.1952  0.2620
  379TIP3    H122772   0.460   2.343   2.427 -0.1395  0.0302  1.2753
  379TIP3    H222773   0.406   2.458   2.509  1.0353  1.6319 -0.1168
  380TIP3   OH222774   3.281   2.211   0.393  0.3921  0.0993 -0.2676
  380TIP3    H122775   3.279   2.304   0.371 -1.4764  0.1246 -0.0874
  380TIP3    H222776   3.320   2.208   0.481 -0.8751  0.8757  0.3483
  381TIP3   OH222777   5.167   4.484   0.875  0.3612  0.1031 -0.3668
  381TIP3    H122778   5.116   4.535   0.812  0.6042  1.8279  0.7643
  381TIP3    H222779   5.258   4.492   0.844  0.6239  1.8811  0.7465
  382TIP3   OH222780   6.538   0.726   1.407 -0.5559 -0.2792  0.3613
  382TIP3    H122781   6.518   0.634   1.392 -0.3730 -0.2765  0.0916
  382TIP3    H222782   6.605   0.726   1.474  0.4041 -0.4110 -0.5659
  383TIP3   OH222783   0.029   5.172   1.629  0.0265 -0.2257 -0.2650
  383TIP3    H122784   0.003   5.098   1.573 -0.7546  0.3486 -0.6703
  383TIP3    H222785   0.072   5.233   1.569  0.3127 -0.1629 -0.0010
  384TIP3   OH222786   5.600   4.780   0.733  0.2223 -0.2105  0.3644
  384TIP3    H122787   5.604   4.856   0.675  2.9053 -1.4439 -1.2897
  384TIP3    H222788   5.542   4.806   0.804 -1.2118  2.3127 -1.5895
  385TIP3   OH222789   0.249   0.105   1.955  0.2431  0.1319 -0.1073
  385TIP3    H122790   0.241   0.139   2.043 -1.5388 -1.2293  0.3144
  385TIP3    H222791   0.164   0.121   1.915  0.4247 -0.9124 -0.9512
  386TIP3   OH222792   5.895   0.678   3.890 -0.5440 -0.1782 -0.1529
  386TIP3    H122793   5.846   0.760   3.894 -1.1455 -0.5758  1.0461
  386TIP3    H222794   5.970   0.698   3.834 -2.5198  0.1859 -2.8997
  387TIP3   OH222795   2.985   3.113   0.307  0.3928  0.4866 -0.0452
  387TIP3    H122796   3.030   3.070   0.234  0.0598  2.1478 -1.2893
  387TIP3    H222797   2.981   3.046   0.375  3.0376 -0.3395 -0.5704
  388TIP3   OH222798   6.767   4.050   0.273 -0.7044 -0.1775  0.5701
  388TIP3    H122799   6.737   4.088   0.356 -1.9275  0.9568 -0.3314
  388TIP3    H222800   6.713   4.093   0.207  0.4263 -0.8568 -0.8495
  389TIP3   OH222801   3.129   3.202   1.062 -0.0094 -0.2336  0.0625
  389TIP3    H122802   3.080   3.250   0.995 -0.4152  0.4766  0.8643
  389TIP3    H222803   3.214   3.245   1.065 -0.6424  0.9812  1.3455
  390TIP3   OH222804   1.165   2.731   2.074 -0.3195  0.1419 -0.3942
  390TIP3    H122805   1.233   2.730   2.006  0.9902 -3.2225  0.7705
  390TIP3    H222806   1.097   2.672   2.041 -0.2283 -0.5703  0.6413
  391TIP3   OH222807   1.770   1.447   2.519 -0.1141 -0.0049 -0.2122
  391TIP3    H122808   1.799   1.494   2.597  0.0778 -0.7940  0.2019
  391TIP3    H222809   1.733   1.515   2.462 -0.4561  0.5480  0.6540
  392TIP3   OH222810   0.126   0.650   1.496  0.1255  0.2266 -0.0468
  392TIP3    H122811   0.137   0.588   1.567 -0.6114  1.3009  1.0380
  392TIP3    H222812   0.101   0.596   1.421  0.0500 -0.8364  0.7217
  393TIP3   OH222813   6.106   4.041   2.708  0.2197 -0.0479  0.3063
  393TIP3    H122814   6.169   4.048   2.636  0.3068 -1.6371  0.1900
  393TIP3    H222815   6.123   3.956   2.747 -0.2341  0.5283  1.8588
  394TIP3   OH222816   4.291   1.984   1.752  0.5970 -0.5989  0.1226
  394TIP3    H122817   4.301   1.953   1.662  0.8483 -0.7816  0.2104
  394TIP3    H222818   4.244   1.914   1.797  0.2468 -0.3972  0.0742
  395TIP3   OH222819   1.711   6.458   1.383  0.5344  0.2028  0.1101
  395TIP3    H122820   1.737   6.441   1.474  1.4176  1.9595  0.2334
  395TIP3    H222821   1.783   6.421   1.331 -1.0856 -2.9736 -0.0889
  396TIP3   OH222822   2.161   0.481   3.761 -0.3371  0.1000 -0.1906
  396TIP3    H122823   2.243   0.452   3.720  0.1773 -1.9422  1.9989
  396TIP3    H222824   2.152   0.423   3.837 -2.2637  2.2838  1.3557
  397TIP3   OH222825   6.211   0.693   0.159 -0.4029 -0.0895 -0.2724
  397TIP3    H122826   6.119   0.706   0.185  0.2923  0.6387  2.0380
  397TIP3    H222827   6.216   0.732   0.071 -2.0931  0.6694 -0.0834
  398TIP3   OH222828   4.322   0.167   1.012  0.2469  0.3674  0.5039
  398TIP3    H122829   4.283   0.252   1.034  0.0442  0.2380  0.6624
  398TIP3    H222830   4.328   0.167   0.917  0.5405  0.6844  0.5215
  399TIP3   OH222831   3.996   3.605   0.867 -0.1618  0.0234 -0.0226
  399TIP3    H122832   4.045   3.531   0.903 -0.8138  0.0793  1.0129
  399TIP3    H222833   3.975   3.659   0.943  0.9063  1.6641 -0.8281
  400TIP3   OH222834   6.406   3.759   2.020 -0.0648 -0.2377  0.8800
  400TIP3    H122835   6.456   3.822   1.969  1.1362 -0.6659  1.4791
  400TIP3    H222836   6.381   3.807   2.099 -0.8904  0.0722  0.4353
  401TIP3   OH222837   0.201   5.378   0.932  0.2515  0.9346 -0.1165
  401TIP3    H122838   0.282   5.414   0.897  1.8650 -1.7801  0.4920
  401TIP3    H222839   0.180   5.305   0.874 -1.5671  1.3400 -0.0233
  402TIP3   OH222840   3.823   4.084   1.145 -0.0653 -0.0597  0.6645
  402TIP3    H122841   3.751   4.129   1.188  2.0070  2.8831  1.3469
  402TIP3    H222842   3.800   4.083   1.053 -1.1787  0.4112  0.9246
  403TIP3   OH222843   4.929   6.372   2.950  0.0033  0.4854 -0.9532
  403TIP3    H122844   4.851   6.319   2.931 -0.5440  0.7323  0.4815
  403TIP3    H222845   4.999   6.330   2.901 -0.7335 -0.6290 -1.0858
  404TIP3   OH222846   6.679   3.523   0.219 -0.7854  0.6742  0.3858
  404TIP3    H122847   6.743   3.587   0.249  0.2554 -0.3169  0.3336
  404TIP3    H222848   6.677   3.533   0.124 -0.9678  0.9339  0.4153
  405TIP3   OH222849   2.703   1.214   2.683 -0.1544  0.2913  0.4050
  405TIP3    H122850   2.720   1.126   2.650  1.3139  0.0602  1.6884
  405TIP3    H222851   2.757   1.271   2.628 -1.2227  0.4400 -0.5271
  406TIP3   OH222852   3.191   4.932   0.583  0.4328  0.3753  0.5923
  406TIP3    H122853   3.204   4.884   0.501  1.4161  0.4329  0.7027
  406TIP3    H222854   3.098   4.954   0.583  0.6079  1.2976 -1.0102
  407TIP3   OH222855   3.020   2.069   3.954 -0.0472 -0.0484 -0.1072
  407TIP3    H122856   3.094   2.080   4.013 -0.5309  2.4688  0.1474
  407TIP3    H222857   2.978   1.987   3.983  3.0256 -2.0340 -0.8312
  408TIP3   OH222858   5.627   1.920   3.266  0.1595  0.4116 -0.6106
  408TIP3    H122859   5.546   1.912   3.317  0.9460  0.7820  0.7695
  408TIP3    H222860   5.640   2.015   3.257  0.4847  0.3583 -0.7263
  409TIP3   OH222861   2.354   3.599   1.804  0.1120  1.0129  0.2491
  409TIP3    H122862   2.376   3.531   1.740  0.5906  1.3429  0.0562
  409TIP3    H222863   2.303   3.663   1.754 -1.4185  0.2031  0.7165
  410TIP3   OH222864   0.119   2.185   0.348 -0.1046  0.2933  0.2876
  410TIP3    H122865   0.185   2.161   0.413  0.3806  2.0350  0.4995
  410TIP3    H222866   0.140   2.133   0.271  1.4370  0.6981  0.4048
  411TIP3   OH222867   3.475   0.796   2.569 -0.4760  0.2210 -0.0308
  411TIP3    H122868   3.561   0.817   2.533 -0.1291 -1.8813 -0.5615
  411TIP3    H222869   3.430   0.750   2.498 -1.7261  0.5388  0.5286
  412TIP3   OH222870   2.401   5.572   0.102 -0.0992  0.0196  0.5217
  412TIP3    H122871   2.358   5.650   0.065 -1.2167 -0.2691  1.1556
  412TIP3    H222872   2.438   5.527   0.026  0.5885  1.1672  0.1483
  413TIP3   OH222873   0.910   5.694   3.968  0.2283  0.0733  0.3493
  413TIP3    H122874   0.947   5.691   4.056  1.0327 -1.6047 -0.0050
  413TIP3    H222875   0.923   5.785   3.940  5.1033 -0.4576 -0.0820
  414TIP3   OH222876   4.017   2.783   0.730  0.4947 -0.2356 -0.3132
  414TIP3    H122877   4.056   2.725   0.665 -1.5705 -3.2546  0.8928
  414TIP3    H222878   4.057   2.757   0.813  0.4513  0.9849  0.1098
  415TIP3   OH222879   4.138   6.173   2.714  0.0814 -0.1327 -0.9387
  415TIP3    H122880   4.185   6.230   2.653  1.9100 -1.5308 -0.9105
  415TIP3    H222881   4.070   6.132   2.660 -0.5177  1.1791 -1.2160
  416TIP3   OH222882   3.497   4.817   1.917  0.1212 -0.7321  0.0487
  416TIP3    H122883   3.450   4.829   1.834  2.2715 -0.2506 -1.1939
  416TIP3    H222884   3.516   4.907   1.946 -0.6090 -0.9000  1.0809
  417TIP3   OH222885   0.080   0.401   0.344  0.6818 -0.1437 -0.6033
  417TIP3    H122886   0.071   0.462   0.417  0.3971 -1.2003  0.2699
  417TIP3    H222887  -0.011   0.379   0.321  0.7825 -1.1719 -0.0834
  418TIP3   OH222888   2.665   2.822   3.068  0.1018  0.0581 -0.0995
  418TIP3    H122889   2.697   2.808   3.157  0.0221 -2.2529 -0.3841
  418TIP3    H222890   2.609   2.899   3.075  1.3791  0.9048  1.4990
  419TIP3   OH222891   5.580   6.272   1.939  0.0074 -0.3295 -0.0873
  419TIP3    H122892   5.550   6.190   1.979  0.3973 -0.0180  0.8816
  419TIP3    H222893   5.675   6.263   1.934 -0.1414 -1.2458 -2.9849
  420TIP3   OH222894   4.306   0.997   1.402 -1.4289 -0.2506 -0.4316
  420TIP3    H122895   4.353   1.010   1.483  0.0168 -0.0565 -1.2694
  420TIP3    H222896   4.295   0.902   1.395 -0.6643 -0.3357 -0.4984
  421TIP3   OH222897   3.624   4.499   8.251 -0.5757  0.1675 -0.4824
  421TIP3    H122898   3.550   4.438   8.252 -1.0185  0.5990 -2.4377
  421TIP3    H222899   3.701   4.443   8.240 -0.9347 -0.1158 -1.7393
  422TIP3   OH222900   5.093   5.465   0.823  0.6505  0.0179 -0.3040
  422TIP3    H122901   5.000   5.445   0.834  0.4314  1.1579  0.0858
  422TIP3    H222902   5.128   5.390   0.776 -0.4887 -0.3949 -0.5370
  423TIP3   OH222903   3.538   0.534   2.770  0.4418  0.2329 -0.0773
  423TIP3    H122904   3.540   0.537   2.865 -0.7376 -0.7097 -0.0102
  423TIP3    H222905   3.546   0.626   2.743  3.1465  0.3479  0.8272
  424TIP3   OH222906   1.299   5.576   3.946 -0.0528 -0.1988 -0.3290
  424TIP3    H122907   1.313   5.576   4.040 -1.4171  2.1686 -0.0252
  424TIP3    H222908   1.380   5.612   3.910 -0.9081  2.6930  0.3758
  425TIP3   OH222909   5.048   5.307   2.061 -0.0704 -0.2455 -0.6458
  425TIP3    H122910   5.113   5.348   2.119  2.0898 -1.4569 -2.0585
  425TIP3    H222911   5.094   5.232   2.024 -1.5315  0.1553 -3.4999
  426TIP3   OH222912   2.576   0.121   0.817 -0.0417 -0.1617 -0.1483
  426TIP3    H122913   2.538   0.043   0.858  0.0799 -0.8248 -1.2518
  426TIP3    H222914   2.529   0.130   0.734  0.2043  0.7339 -0.1995
  427TIP3   OH222915   5.488   3.817   1.351  0.2974  0.7989 -0.0067
  427TIP3    H122916   5.483   3.728   1.317 -1.4258  0.3937  1.1870
  427TIP3    H222917   5.490   3.873   1.273 -0.2572 -0.2153 -0.7656
  428TIP3   OH222918   2.189   6.200   1.196  0.0081  0.0386 -0.1537
  428TIP3    H122919   2.207   6.146   1.119 -1.1599 -1.6171  0.6560
  428TIP3    H222920   2.245   6.164   1.265  1.9661  2.2849 -0.4380
  429TIP3   OH222921   2.762   2.481   8.005  0.0649 -0.1975  0.0641
  429TIP3    H122922   2.673   2.445   7.999 -0.5634  1.1145  1.0404
  429TIP3    H222923   2.791   2.489   7.914 -0.7966 -0.6880 -0.2613
  430TIP3   OH222924   4.845   6.748   2.376 -0.0082  0.5152  0.1426
  430TIP3    H122925   4.878   6.836   2.360  2.3112 -0.5627 -1.4866
  430TIP3    H222926   4.923   6.694   2.384 -1.3833 -1.5401  0.2985
  431TIP3   OH222927   2.733   2.281   8.432  0.3058  0.0148  0.2108
  431TIP3    H122928   2.715   2.330   8.352 -0.4231 -0.6476 -0.0376
  431TIP3    H222929   2.657   2.224   8.444  0.1096  0.5447  1.7231
  432TIP3   OH222930   3.525   4.320   1.223  0.0785 -0.4760 -0.3228
  432TIP3    H122931   3.557   4.273   1.299 -2.5048 -0.4609  0.8948
  432TIP3    H222932   3.505   4.252   1.159  0.7670 -0.6303 -0.3725
  433TIP3   OH222933   5.378   2.627   4.202  0.8078 -0.1072  0.4631
  433TIP3    H122934   5.298   2.594   4.244  0.2897 -0.1788 -0.5484
  433TIP3    H222935   5.445   2.563   4.227  0.5906  0.0230  1.4292
  434TIP3   OH222936   1.384   0.270   8.727 -0.1853 -0.5115  0.4443
  434TIP3    H122937   1.366   0.359   8.755 -2.6837 -0.7439 -0.1083
  434TIP3    H222938   1.387   0.275   8.631  3.6865 -0.4520  0.4257
  435TIP3   OH222939   3.992   6.645   1.769  0.4013 -0.2893 -0.3046
  435TIP3    H122940   3.952   6.564   1.799 -0.2226  0.0904 -0.0898
  435TIP3    H222941   4.056   6.668   1.836  0.4501 -0.5075 -0.2779
  436TIP3   OH222942   1.669   3.526   2.641  0.1415 -0.3201  0.3544
  436TIP3    H122943   1.706   3.443   2.609 -0.4993 -0.6370  0.4126
  436TIP3    H222944   1.719   3.546   2.720 -0.0018 -0.8843  0.5893
  437TIP3   OH222945   6.175   0.126   2.612  1.0719 -0.1726 -0.3628
  437TIP3    H122946   6.094   0.143   2.565  0.3356 -1.4097  0.4116
  437TIP3    H222947   6.222   0.064   2.556  1.6109  0.7196 -0.9223
  438TIP3   OH222948   6.347   6.100   3.505 -0.6042 -0.0431 -0.3168
  438TIP3    H122949   6.433   6.143   3.506 -0.2326 -0.7609  0.1980
  438TIP3    H222950   6.288   6.164   3.544 -0.2442  0.3559 -0.4134
  439TIP3   OH222951   6.673   0.913   1.187  0.5813  0.0207 -0.0381
  439TIP3    H122952   6.669   0.919   1.283  1.2723  0.9571 -0.0533
  439TIP3    H222953   6.612   0.843   1.165 -1.7891  1.6509  0.9093
  440TIP3   OH222954   1.923   6.022   3.302  0.1418 -0.5227  0.0030
  440TIP3    H122955   1.892   5.950   3.356 -0.0403 -1.0755 -0.8062
  440TIP3    H222956   1.908   5.992   3.212  1.6289 -0.1682 -0.3816
  441TIP3   OH222957   2.285   5.932   2.695 -0.1666  0.2472  0.2288
  441TIP3    H122958   2.195   5.907   2.716 -0.0652  0.4720  0.9798
  441TIP3    H222959   2.313   5.986   2.770  0.3616  0.7477 -0.3146
  442TIP3   OH222960   1.270   6.833   3.293  0.4944  0.9961  0.0372
  442TIP3    H122961   1.271   6.872   3.380  0.0151  0.3042  0.3501
  442TIP3    H222962   1.263   6.739   3.307 -3.9940  1.0300 -0.7422
  443TIP3   OH222963   0.306   3.905   8.441  0.7993 -0.6867  0.0327
  443TIP3    H122964   0.372   3.969   8.413 -1.3253  1.0916 -1.1579
  443TIP3    H222965   0.315   3.902   8.536  2.5069 -0.4266 -0.0809
  444TIP3   OH222966   1.655   5.882   0.945 -0.3224 -0.5403  0.1200
  444TIP3    H122967   1.669   5.953   1.007  0.3378 -0.3260 -0.2634
  444TIP3    H222968   1.699   5.911   0.865 -0.8294 -0.9827 -0.3242
  445TIP3   OH222969   4.219   2.439   3.095 -0.2890  0.0804 -0.5043
  445TIP3    H122970   4.179   2.359   3.129 -0.6197  0.6807  0.5911
  445TIP3    H222971   4.313   2.425   3.105 -0.2705  1.5582  4.3343
  446TIP3   OH222972   5.066   4.951   3.179 -0.4731  0.2576 -0.1055
  446TIP3    H122973   5.139   4.905   3.218 -0.8644  0.0143  0.3423
  446TIP3    H222974   5.077   4.939   3.084 -1.2106 -1.7706  0.0245
  447TIP3   OH222975   1.420   1.461   1.329 -0.3813  0.3300  0.3985
  447TIP3    H122976   1.459   1.392   1.382 -1.9549 -0.8661  0.0716
  447TIP3    H222977   1.337   1.482   1.372 -2.8637 -2.2856 -2.6039
  448TIP3   OH222978   2.823   6.775   1.340 -0.4590 -0.2764 -0.3788
  448TIP3    H122979   2.802   6.811   1.427 -0.3756 -0.2304 -0.3773
  448TIP3    H222980   2.898   6.827   1.311 -0.8629  0.1181 -0.7356
  449TIP3   OH222981   6.592   5.110   8.654 -0.1759  0.0763  0.1280
  449TIP3    H122982   6.568   5.203   8.656 -2.2671 -0.4277  0.0470
  449TIP3    H222983   6.680   5.108   8.692  0.4062  2.2146 -0.9303
  450TIP3   OH222984   0.486   4.958   8.450 -0.1430  0.1134 -0.1622
  450TIP3    H122985   0.391   4.946   8.452 -0.4731  2.0513 -1.4901
  450TIP3    H222986   0.498   5.052   8.441  1.9753  0.0654  1.4004
  451TIP3   OH222987   0.060   2.059   0.634  0.1006 -0.1022  0.2403
  451TIP3    H122988   0.124   1.989   0.619  2.0684  1.8725 -1.1257
  451TIP3    H222989   0.021   2.075   0.548  1.2593  1.8678  0.0266
  452TIP3   OH222990   5.211   5.982   1.915 -0.1380  0.2762  0.6556
  452TIP3    H122991   5.230   5.890   1.930 -1.1989 -0.4368 -1.9203
  452TIP3    H222992   5.185   6.015   2.001  0.7892 -1.6568  1.7425
  453TIP3   OH222993   5.059   2.877   8.391  0.0960 -0.1737 -0.0425
  453TIP3    H122994   5.105   2.814   8.335  0.9246  1.3077 -1.0821
  453TIP3    H222995   4.967   2.852   8.385  0.2596 -0.4976 -1.4600
  454TIP3   OH222996   1.411   3.432   0.866  0.1606 -0.5182  0.0584
  454TIP3    H122997   1.475   3.489   0.907 -1.6900  1.9646 -0.2623
  454TIP3    H222998   1.376   3.379   0.937 -0.3965  1.1085  1.0290
  455TIP3   OH222999   2.553   1.027   3.956  0.2440 -0.3297  0.7262
  455TIP3    H123000   2.459   1.026   3.937  0.2416 -1.4033  0.7542
  455TIP3    H223001   2.577   0.935   3.966  1.5096 -0.1361 -0.2446
  456TIP3   OH223002   2.803   3.473   1.839  0.0773 -0.3914 -0.2680
  456TIP3    H123003   2.842   3.556   1.863  0.0878 -0.7231  0.9089
  456TIP3    H223004   2.805   3.472   1.743 -1.1384  1.5361 -0.3701
  457TIP3   OH223005   0.334   2.071   0.495 -0.6448  0.0398 -0.2241
  457TIP3    H123006   0.364   2.023   0.572 -0.6206  0.9216  0.3307
  457TIP3    H223007   0.407   2.128   0.471 -0.4359 -0.6380 -1.2622
  458TIP3   OH223008   6.447   1.804   3.116 -0.3448 -0.0396 -0.4585
  458TIP3    H123009   6.458   1.709   3.128  0.7081  0.3223  2.0773
  458TIP3    H223010   6.440   1.838   3.205 -0.5137  2.3060 -1.3210
  459TIP3   OH223011   4.612   4.885   1.102  0.3451 -0.1819 -0.1167
  459TIP3    H123012   4.518   4.884   1.084  0.6029  1.2036 -1.8398
  459TIP3    H223013   4.619   4.918   1.192 -0.8042 -0.4802  0.1025
  460TIP3   OH223014   2.202   2.895   3.770 -0.0112 -0.7175 -0.1680
  460TIP3    H123015   2.150   2.965   3.810  0.1952 -1.6237  1.7955
  460TIP3    H223016   2.282   2.939   3.742 -0.1642 -0.0263  0.4178
  461TIP3   OH223017   3.812   4.785   3.706 -0.1420  0.0180 -0.1566
  461TIP3    H123018   3.875   4.729   3.750  2.7167  1.8110 -1.6482
  461TIP3    H223019   3.817   4.869   3.753 -1.8148  0.0728 -0.0227
  462TIP3   OH223020   5.020   6.583   3.100  0.5442 -0.7962  0.1814
  462TIP3    H123021   4.988   6.524   3.032  3.3023 -0.9582 -1.1041
  462TIP3    H223022   5.008   6.671   3.062  1.5438 -0.8559 -0.2915
  463TIP3   OH223023   2.683   1.547   1.245  0.2964  0.2448 -0.5840
  463TIP3    H123024   2.724   1.480   1.299 -0.2887  0.9054  0.7247
  463TIP3    H223025   2.591   1.546   1.271 -0.0855  0.3232 -1.8539
  464TIP3   OH223026   1.531   5.938   0.436 -0.0557 -0.3059 -0.2649
  464TIP3    H123027   1.490   5.979   0.360  1.1089  2.3236  0.4029
  464TIP3    H223028   1.624   5.961   0.429  0.0523  0.2186  2.0546
  465TIP3   OH223029   4.745   3.916   2.927  0.0973  0.8036 -0.7491
  465TIP3    H123030   4.827   3.883   2.890 -0.5348 -0.2023 -1.3027
  465TIP3    H223031   4.728   3.997   2.879  0.8342  1.0914 -0.5317
  466TIP3   OH223032   6.326   0.556   3.261  0.2765 -0.0180  0.3485
  466TIP3    H123033   6.396   0.524   3.319 -0.2817  1.0595  1.6552
  466TIP3    H223034   6.248   0.559   3.316 -1.5476 -3.5290 -1.6163
  467TIP3   OH223035   0.934   1.567   0.447  0.7574  0.1228  0.2727
  467TIP3    H123036   0.957   1.475   0.440 -0.1379 -0.1930  1.2774
  467TIP3    H223037   0.960   1.592   0.535 -2.5261 -0.2560  1.4847
  468TIP3   OH223038   5.602   2.797   2.685  0.5226 -0.2525  0.0252
  468TIP3    H123039   5.522   2.762   2.723  1.5183 -2.2910  0.3888
  468TIP3    H223040   5.671   2.773   2.747  1.7003 -0.4859 -1.3248
  469TIP3   OH223041   3.107   6.140   1.944  0.2739 -0.5350  0.6974
  469TIP3    H123042   3.020   6.108   1.969  0.1496 -2.3894 -1.7477
  469TIP3    H223043   3.145   6.069   1.893  1.0900  2.0887 -2.8015
  470TIP3   OH223044   5.260   1.134   1.426  0.3726 -0.1902 -0.3853
  470TIP3    H123045   5.240   1.227   1.417  0.4562 -0.2015 -0.7189
  470TIP3    H223046   5.356   1.130   1.431  0.3527 -0.2330 -0.0544
  471TIP3   OH223047   1.914   5.256   8.501  0.4003  0.1633  0.4245
  471TIP3    H123048   1.875   5.329   8.453  0.7955  0.8988  1.1935
  471TIP3    H223049   1.986   5.226   8.445  1.2746  1.4378  0.8108
  472TIP3   OH223050   6.449   3.337   2.031 -0.1843 -0.3479  0.0582
  472TIP3    H123051   6.366   3.372   2.063 -0.1667 -0.8677  0.6818
  472TIP3    H223052   6.511   3.410   2.042 -0.1340 -0.5802  1.4163
  473TIP3   OH223053   2.982   4.784   0.717 -0.1656  0.1682 -0.4593
  473TIP3    H123054   3.057   4.737   0.680  0.7482  0.4332  0.9750
  473TIP3    H223055   2.923   4.714   0.745 -0.5930 -0.0418 -1.7765
  474TIP3   OH223056   6.062   1.860   0.507 -0.7681  0.2610  0.1899
  474TIP3    H123057   6.002   1.935   0.518  0.0402  1.2187 -1.4300
  474TIP3    H223058   6.115   1.860   0.586 -0.3561  1.8500 -0.0457
  475TIP3   OH223059   6.577   4.536   2.320  0.3046  0.5539  0.4686
  475TIP3    H123060   6.603   4.452   2.357 -0.8583  0.2286  0.5964
  475TIP3    H223061   6.648   4.560   2.261  0.1072 -1.1158 -0.4823
  476TIP3   OH223062   5.855   4.128   3.342 -0.3292  0.3251 -0.6126
  476TIP3    H123063   5.824   4.042   3.312  0.1894  0.1536 -0.6678
  476TIP3    H223064   5.931   4.108   3.396  2.1351  0.9034 -3.5887
  477TIP3   OH223065   1.014   3.458   2.501 -0.2965 -0.0263 -0.5460
  477TIP3    H123066   1.075   3.484   2.571 -2.7680  1.3086  1.2680
  477TIP3    H223067   1.062   3.392   2.451  2.5797  0.8743  0.7934
  478TIP3   OH223068   6.707   5.596   1.594  1.0532  0.0982  0.6340
  478TIP3    H123069   6.738   5.677   1.635  0.2262  0.3604  0.7584
  478TIP3    H223070   6.779   5.569   1.536  0.8953  1.5361 -0.2758
  479TIP3   OH223071   4.644   1.051   2.138  0.6729 -0.5646  0.4088
  479TIP3    H123072   4.552   1.029   2.150  0.3468  0.1478 -0.6742
  479TIP3    H223073   4.682   1.044   2.225 -0.5445 -0.2102  0.9815
  480TIP3   OH223074   0.089   5.334   7.667 -0.2910 -0.3387  0.7720
  480TIP3    H123075   0.153   5.336   7.738 -0.0114 -0.6039  0.5291
  480TIP3    H223076   0.085   5.424   7.635  0.6351 -0.4933  0.1883
  481TIP3   OH223077   2.762   0.161   1.716 -1.0443 -0.0375 -0.7219
  481TIP3    H123078   2.839   0.193   1.670  0.8302 -1.2117  1.4097
  481TIP3    H223079   2.775   0.187   1.807 -3.2711 -0.1245 -0.3240
  482TIP3   OH223080   5.445   2.116   7.586 -0.0102 -0.5482  0.3777
  482TIP3    H123081   5.493   2.192   7.553  0.1556 -0.5428  0.6226
  482TIP3    H223082   5.389   2.089   7.514 -0.8890  0.4767  0.6698
  483TIP3   OH223083   3.613   0.780   8.469  0.3391  0.0761  0.6904
  483TIP3    H123084   3.637   0.778   8.561  1.6303 -1.0498  0.3641
  483TIP3    H223085   3.615   0.688   8.442  1.6592  0.5266 -0.8651
  484TIP3   OH223086   2.969   1.837   1.859 -0.2772  0.3293  0.2281
  484TIP3    H123087   2.938   1.791   1.937  0.2026 -1.4058 -0.5488
  484TIP3    H223088   2.890   1.862   1.812 -0.5761  1.6647  1.3951
  485TIP3   OH223089   1.240   4.322   1.634  0.2051 -0.0495 -0.3915
  485TIP3    H123090   1.330   4.348   1.613  0.2391  0.7715  0.6572
  485TIP3    H223091   1.185   4.375   1.576  0.3791 -0.1539 -0.6521
  486TIP3   OH223092   3.948   1.591   2.778 -0.2118  0.1124  0.0273
  486TIP3    H123093   3.868   1.633   2.810  0.2864  0.2716  1.1238
  486TIP3    H223094   3.990   1.556   2.857  0.9634  0.3219 -0.4777
  487TIP3   OH223095   6.117   6.070   0.370  0.1740  0.3335 -0.0593
  487TIP3    H123096   6.091   5.995   0.316  0.0323  0.7084 -0.5217
  487TIP3    H223097   6.061   6.065   0.447 -0.3223  0.3604 -0.4179
  488TIP3   OH223098   3.013   1.776   2.159 -0.5042 -0.4772 -0.1244
  488TIP3    H123099   2.922   1.792   2.184 -0.2495  0.2797  0.3598
  488TIP3    H223100   3.015   1.684   2.135 -1.3679 -0.5420 -0.0039
  489TIP3   OH223101   1.855   4.299   0.761 -0.0854  0.0231 -0.0135
  489TIP3    H123102   1.857   4.315   0.855  0.4035 -3.7476  0.7752
  489TIP3    H223103   1.946   4.279   0.738 -0.0805  1.5056 -1.4692
  490TIP3   OH223104   3.921   6.795   2.901 -0.1833  0.0544 -0.6795
  490TIP3    H123105   3.923   6.732   2.973  0.4609 -0.3763 -1.0640
  490TIP3    H223106   4.011   6.828   2.896 -0.7349  1.8261  0.2204
  491TIP3   OH223107   2.937   5.563   0.179 -0.4373  0.0595 -0.0480
  491TIP3    H123108   2.907   5.473   0.173  0.8849 -0.3360 -1.3052
  491TIP3    H223109   2.889   5.600   0.253  0.8013 -2.3577  2.0918
  492TIP3   OH223110   4.368   4.432   3.655  0.5885 -0.2082  0.5701
  492TIP3    H123111   4.458   4.452   3.681  1.0065 -1.0859 -0.1252
  492TIP3    H223112   4.352   4.345   3.692  0.8333 -1.0313 -1.1498
  493TIP3   OH223113   3.466   5.292   0.574  0.1229  0.4574  0.2589
  493TIP3    H123114   3.528   5.308   0.645  3.1715  1.6892 -2.4585
  493TIP3    H223115   3.459   5.197   0.569 -0.3611  0.3258  2.2357
  494TIP3   OH223116   2.493   3.081   2.627  0.6370 -0.3315 -0.4898
  494TIP3    H123117   2.400   3.073   2.611 -0.2967  3.6766  1.6296
  494TIP3    H223118   2.526   3.134   2.555  0.4386  1.3073  0.5740
  495TIP3   OH223119   2.203   6.446   8.286  0.3012  0.4426  0.4920
  495TIP3    H123120   2.149   6.510   8.241  0.8765  0.0031 -0.8880
  495TIP3    H223121   2.291   6.462   8.253  0.3867 -1.3316 -0.2593
  496TIP3   OH223122   2.429   5.760   3.630 -0.5550 -0.1890 -0.1350
  496TIP3    H123123   2.435   5.717   3.716  0.8262 -1.1262 -0.6609
  496TIP3    H223124   2.392   5.846   3.649 -0.5710 -0.4961  1.3627
  497TIP3   OH223125   5.397   0.785   0.383 -0.1954 -0.0821 -0.9752
  497TIP3    H123126   5.346   0.786   0.302 -0.8674 -1.5854 -0.6017
  497TIP3    H223127   5.350   0.845   0.441 -1.8942 -1.8181 -0.4690
  498TIP3   OH223128   4.744   0.113   2.805 -0.1032 -0.2803  0.2555
  498TIP3    H123129   4.811   0.142   2.868 -0.3852  0.4746  0.2247
  498TIP3    H223130   4.762   0.020   2.792  0.4868 -0.2544  0.8070
  499TIP3   OH223131   0.978   2.124   0.110 -0.3270 -0.9057  0.1251
  499TIP3    H123132   1.011   2.213   0.100 -0.6390 -0.8280 -0.2639
  499TIP3    H223133   1.051   2.068   0.083 -0.9875 -0.7048 -2.3233
  500TIP3   OH223134   3.842   1.986   1.578 -0.2945 -0.7545 -0.4526
  500TIP3    H123135   3.766   1.932   1.597 -1.6842  0.6182 -1.7730
  500TIP3    H223136   3.880   2.006   1.663 -1.6644 -1.1240  0.2673
  501TIP3   OH223137   5.708   5.273   3.297 -0.2342 -0.0481  0.2641
  501TIP3    H123138   5.748   5.302   3.215 -1.7214 -0.8611 -0.7895
  501TIP3    H223139   5.767   5.305   3.365  1.9653 -0.7995 -1.1801
  502TIP3   OH223140   2.340   1.400   8.678 -0.0165 -0.8419  0.4784
  502TIP3    H123141   2.421   1.353   8.657 -1.1867 -2.7066 -0.0791
  502TIP3    H223142   2.341   1.476   8.620  1.7588 -0.3037  1.1418
  503TIP3   OH223143   5.378   3.070   1.583  0.2249 -0.0734 -0.5929
  503TIP3    H123144   5.358   3.091   1.674  1.3106  0.8126 -0.5312
  503TIP3    H223145   5.368   2.975   1.577  1.4678 -0.3195  0.7987
  504TIP3   OH223146   4.567   2.545   0.609  0.1635  0.0336  0.1792
  504TIP3    H123147   4.632   2.482   0.641  0.2513  0.3354  0.6064
  504TIP3    H223148   4.483   2.504   0.628  0.2243 -0.1086  0.1413
  505TIP3   OH223149   0.504   5.815   0.059  0.1076  0.3488 -0.0378
  505TIP3    H123150   0.447   5.794   0.133  1.3485  0.2644  0.9417
  505TIP3    H223151   0.570   5.874   0.096  1.4902 -0.6806 -0.7390
  506TIP3   OH223152   3.085   1.629   8.207 -0.3615 -0.2430 -0.0774
  506TIP3    H123153   3.061   1.722   8.201  1.0234  0.1894  0.6184
  506TIP3    H223154   3.005   1.587   8.239 -1.2362  0.5769 -1.0656
  507TIP3   OH223155   1.049   4.031   0.145  0.5106  0.9378  0.1393
  507TIP3    H123156   1.078   3.966   0.209 -2.4288 -1.4256 -0.6830
  507TIP3    H223157   0.983   4.083   0.192 -2.1621 -1.2415 -0.9050
  508TIP3   OH223158   3.048   2.696   2.149 -0.0485  0.1416  0.3643
  508TIP3    H123159   3.058   2.670   2.058  1.2271 -0.3913  0.6311
  508TIP3    H223160   3.137   2.715   2.178 -0.4541  0.4437  1.4644
  509TIP3   OH223161   6.713   6.334   1.574 -0.4044  0.4329 -0.7163
  509TIP3    H123162   6.707   6.405   1.510 -0.0399  0.0905 -1.1374
  509TIP3    H223163   6.776   6.273   1.536  1.6348  1.3230  1.0255
  510TIP3   OH223164   0.114   2.644   1.983  0.2509  0.3654  0.1608
  510TIP3    H123165   0.162   2.673   1.906 -0.2290  2.0021  0.4452
  510TIP3    H223166   0.025   2.676   1.969 -1.4825 -4.2682 -1.3133
  511TIP3   OH223167   0.886   1.145   3.012  0.2231  0.4333  0.1545
  511TIP3    H123168   0.968   1.131   3.059 -0.1640  0.0722  0.7361
  511TIP3    H223169   0.861   1.235   3.034 -0.1435  0.1478  0.9594
  512TIP3   OH223170   2.975   0.377   1.118  0.2573 -0.3655  0.2903
  512TIP3    H123171   2.887   0.339   1.116  0.2703 -0.3470 -0.8896
  512TIP3    H223172   2.972   0.438   1.192 -1.0086  0.2874 -0.2694
  513TIP3   OH223173   0.850   4.059   1.873 -0.0898  0.3113  0.3478
  513TIP3    H123174   0.897   3.993   1.822  0.8521  1.7547 -0.7513
  513TIP3    H223175   0.919   4.116   1.908 -0.8869  1.0322  0.7897
  514TIP3   OH223176   2.662   3.233   2.431 -0.1401  0.0620 -0.6609
  514TIP3    H123177   2.715   3.183   2.369 -0.0203  0.5770 -0.9829
  514TIP3    H223178   2.639   3.313   2.383 -1.0691 -0.0781 -0.4705
  515TIP3   OH223179   0.885   5.689   3.226 -0.5403  0.1478 -0.1883
  515TIP3    H123180   0.892   5.758   3.291 -0.2099 -0.5854  0.5679
  515TIP3    H223181   0.961   5.633   3.242 -0.8902 -0.4754 -0.6807
  516TIP3   OH223182   2.440   0.440   8.699 -0.4368 -0.0776 -0.3603
  516TIP3    H123183   2.532   0.464   8.707 -0.4969  0.8235 -1.8578
  516TIP3    H223184   2.411   0.424   8.788  1.4066 -1.3518  0.0598
  517TIP3   OH223185   1.884   0.585   2.314  0.3709  0.6748 -0.1875
  517TIP3    H123186   1.862   0.634   2.234  2.6901  0.8882 -0.7451
  517TIP3    H223187   1.816   0.612   2.377 -2.4658 -0.6615 -2.4173
  518TIP3   OH223188   2.753   3.970   3.729 -0.8403 -0.3769 -0.9240
  518TIP3    H123189   2.756   4.007   3.817 -0.2188 -1.6790 -0.3743
  518TIP3    H223190   2.765   3.876   3.742  1.6527 -0.3688 -2.5486
  519TIP3   OH223191   6.718   2.583   8.653 -0.6022 -0.2377  0.6119
  519TIP3    H123192   6.706   2.611   8.562 -1.9186 -1.0655  0.5006
  519TIP3    H223193   6.806   2.612   8.676  0.7367 -2.1847 -1.7103
  520TIP3   OH223194   4.890   0.662   0.228  0.2855 -0.4706 -0.1151
  520TIP3    H123195   4.868   0.600   0.297  1.3392  0.0825  0.7558
  520TIP3    H223196   4.806   0.696   0.198 -0.2965 -2.2172 -0.5350
  521TIP3   OH223197   3.360   0.582   1.645  0.3454  0.1006 -0.3519
  521TIP3    H123198   3.305   0.550   1.717  0.0639  0.8567 -0.2289
  521TIP3    H223199   3.447   0.545   1.663  0.3047  0.3882  0.4394
  522TIP3   OH223200   3.025   2.410   1.205  0.7139  0.1235  0.1167
  522TIP3    H123201   3.040   2.316   1.204 -0.6857 -0.2391  2.9545
  522TIP3    H223202   2.930   2.419   1.215  0.9897  1.7082  2.0242
  523TIP3   OH223203   6.109   0.529   1.646 -0.5100 -0.6432  0.1437
  523TIP3    H123204   6.104   0.623   1.633  1.3832 -0.7261 -1.7389
  523TIP3    H223205   6.019   0.503   1.669 -1.0498  1.5764  0.7735
  524TIP3   OH223206   4.820   0.382   2.944 -0.5827  0.2942  0.0962
  524TIP3    H123207   4.886   0.384   2.875  0.0415 -0.0255  0.6734
  524TIP3    H223208   4.812   0.473   2.972 -1.0789  0.4810 -0.6010
  525TIP3   OH223209   0.799   2.418   2.310 -0.0629 -0.1051 -0.1493
  525TIP3    H123210   0.817   2.326   2.324  1.3633  0.2783  0.7044
  525TIP3    H223211   0.885   2.460   2.306 -0.6645  1.1205 -1.0633
  526TIP3   OH223212   3.568   3.427   0.500  0.7697 -0.3440 -0.3433
  526TIP3    H123213   3.624   3.424   0.577  0.3660  2.7070  0.1767
  526TIP3    H223214   3.594   3.506   0.453 -1.6693  0.0648 -1.1680
  527TIP3   OH223215   3.942   2.659   1.942 -0.4749 -0.0003 -0.1524
  527TIP3    H123216   3.934   2.585   1.883 -1.7581  0.9654 -1.2645
  527TIP3    H223217   3.878   2.723   1.910  0.2549  1.4077  1.0335
  528TIP3   OH223218   3.918   5.424   0.031 -0.5032  0.0733  0.5812
  528TIP3    H123219   3.834   5.395   0.066 -0.9501  1.6984  0.9481
  528TIP3    H223220   3.978   5.351   0.050 -1.3915 -0.3163  2.0970
  529TIP3   OH223221   4.737   6.721   8.568  0.0065 -0.1030 -0.2096
  529TIP3    H123222   4.754   6.638   8.612  0.7430  0.4385  0.5760
  529TIP3    H223223   4.670   6.763   8.621  0.3530  0.2292 -0.0293
  530TIP3   OH223224   5.589   4.448   2.323 -0.3955 -0.4112  0.0127
  530TIP3    H123225   5.662   4.451   2.384 -2.2260 -1.0936  2.3835
  530TIP3    H223226   5.610   4.376   2.264 -0.0622 -1.9518  1.9331
  531TIP3   OH223227   6.154   0.783   1.628  0.2263  0.2167 -0.0711
  531TIP3    H123228   6.104   0.863   1.645  0.2439  0.5478 -1.4543
  531TIP3    H223229   6.245   0.812   1.624  0.1597  0.3415 -1.5248
  532TIP3   OH223230   2.067   2.532   4.048  0.2914  0.0744  0.2604
  532TIP3    H123231   2.105   2.446   4.064 -1.9804 -1.0050  0.2106
  532TIP3    H223232   2.077   2.546   3.953  0.0730 -0.4398  0.1606
  533TIP3   OH223233   0.831   5.653   2.846 -0.4284 -0.4454  0.6038
  533TIP3    H123234   0.831   5.749   2.844 -0.3358 -0.4326  1.1937
  533TIP3    H223235   0.766   5.631   2.913 -0.7222 -0.8024  0.2032
  534TIP3   OH223236   4.840   6.508   2.038  0.0783 -0.4452 -0.0367
  534TIP3    H123237   4.849   6.519   1.944 -0.0561  0.3349  0.0355
  534TIP3    H223238   4.804   6.591   2.069 -0.6425 -0.9758  0.5973
  535TIP3   OH223239   0.899   4.414   0.087  0.2663 -0.4533 -0.0235
  535TIP3    H123240   0.952   4.471   0.143  0.3905  1.3898 -1.8860
  535TIP3    H223241   0.963   4.363   0.037  0.1960 -0.6414  0.0757
  536TIP3   OH223242   5.523   1.522   2.170  0.0625 -0.3608  0.1857
  536TIP3    H123243   5.477   1.527   2.254  0.4142 -0.6661  0.3974
  536TIP3    H223244   5.546   1.429   2.160  1.5306 -0.0668  0.5700
  537TIP3   OH223245   4.054   4.167   1.253 -0.3153 -0.0757  0.2687
  537TIP3    H123246   4.115   4.110   1.207 -0.4252 -1.3447  1.5900
  537TIP3    H223247   3.968   4.145   1.217 -0.6084 -2.2255  2.0327
  538TIP3   OH223248   6.310   1.813   1.131  0.0381 -0.3247  0.2821
  538TIP3    H123249   6.357   1.782   1.053  0.5542 -2.7578  1.4683
  538TIP3    H223250   6.373   1.867   1.177  0.8193 -1.3916  0.5140
  539TIP3   OH223251   2.306   6.847   2.419  0.3992 -0.0008 -0.3080
  539TIP3    H123252   2.373   6.889   2.473 -1.2517 -0.2336  2.0656
  539TIP3    H223253   2.237   6.912   2.411  0.5936  0.0391 -2.2700
  540TIP3   OH223254   1.202   2.319   8.696  0.6327  0.1036 -0.0906
  540TIP3    H123255   1.296   2.312   8.708  0.8446  2.2005 -0.1281
  540TIP3    H223256   1.190   2.348   8.606 -0.2160 -2.1446 -0.7801
  541TIP3   OH223257   5.339   2.125   2.653  0.3341 -0.0346 -0.0117
  541TIP3    H123258   5.383   2.096   2.573  0.6989  0.5033 -0.0076
  541TIP3    H223259   5.248   2.100   2.641  0.1077  1.2512 -1.1923
  542TIP3   OH223260   5.081   0.002   0.956 -0.3770 -0.0017 -0.1283
  542TIP3    H123261   5.133   0.026   1.033 -0.1836 -2.0161  0.4229
  542TIP3    H223262   5.145  -0.029   0.892 -0.7314 -0.5327 -0.2273
  543TIP3   OH223263   4.063   5.527   2.799  0.6995  0.0102  0.0868
  543TIP3    H123264   4.063   5.623   2.802  1.1755  0.0090  0.1937
  543TIP3    H223265   4.022   5.500   2.881  2.3146  0.1067  0.9529
  544TIP3   OH223266   1.369   0.275   8.439 -0.1189 -0.3457  0.1163
  544TIP3    H123267   1.317   0.194   8.437 -0.6612  0.0106 -0.5623
  544TIP3    H223268   1.403   0.284   8.350 -2.0081  1.4079 -0.4854
  545TIP3   OH223269   3.021   4.218   1.876  0.6849 -0.2723  0.0893
  545TIP3    H123270   3.024   4.135   1.829 -0.8030 -1.7061  2.3639
  545TIP3    H223271   3.090   4.212   1.942 -0.1488 -0.2072  0.9932
  546TIP3   OH223272   0.021   6.032   2.049  0.6072 -0.1262  0.8162
  546TIP3    H123273  -0.054   5.982   2.080  0.2618 -0.1422  0.0015
  546TIP3    H223274   0.003   6.122   2.075  1.3967 -0.4531  2.5898
  547TIP3   OH223275   5.069   1.491   1.188 -0.1855  0.1375  0.1361
  547TIP3    H123276   5.079   1.555   1.117  0.4963  0.0765  0.1669
  547TIP3    H223277   5.009   1.426   1.154  1.0552 -0.5318 -0.8573
  548TIP3   OH223278   2.530   4.830   2.648 -0.1450  0.0653  0.2944
  548TIP3    H123279   2.510   4.753   2.595 -0.0963 -0.5847  1.1986
  548TIP3    H223280   2.485   4.902   2.604 -1.6968 -0.7856  0.4299
  549TIP3   OH223281   1.098   2.261   1.972  0.1688  0.0421  1.0865
  549TIP3    H123282   1.007   2.282   1.993  0.1695  0.4732  0.6925
  549TIP3    H223283   1.111   2.172   2.004 -0.5686 -0.2446  0.6024
  550TIP3   OH223284   1.590   6.172   3.485  0.0633 -0.2475 -0.0483
  550TIP3    H123285   1.657   6.104   3.492  1.6384  1.2915  0.4458
  550TIP3    H223286   1.535   6.161   3.563  1.2566  0.0076  0.8445
  551TIP3   OH223287   2.810   6.012   3.398 -0.6680 -0.1289 -0.2138
  551TIP3    H123288   2.741   5.951   3.423 -1.4442  1.3346  1.4277
  551TIP3    H223289   2.766   6.097   3.392  1.0620  0.9650  1.4802
  552TIP3   OH223290   5.810   4.975   3.278  0.3498 -0.2134 -0.0157
  552TIP3    H123291   5.737   4.979   3.340  1.0762  0.5627  0.8253
  552TIP3    H223292   5.886   4.956   3.332  1.0961  1.0955 -0.5543
  553TIP3   OH223293   2.759   5.013   0.146 -0.2166 -0.2874  0.5390
  553TIP3    H123294   2.721   4.934   0.185 -0.1728 -1.2252 -1.2078
  553TIP3    H223295   2.842   4.983   0.108  0.0193  0.7133  0.2345
  554TIP3   OH223296   6.279   1.285   8.289 -0.0090 -0.5450  0.3530
  554TIP3    H123297   6.364   1.248   8.310 -0.7603 -2.8008 -0.2754
  554TIP3    H223298   6.263   1.350   8.357  0.2854 -3.2614  3.1993
  555TIP3   OH223299   6.278   4.032   2.499  0.0795  0.5438 -0.1264
  555TIP3    H123300   6.354   3.986   2.535 -1.4729 -0.6625  1.8346
  555TIP3    H223301   6.310   4.120   2.481  2.2059 -0.2299 -0.4337
  556TIP3   OH223302   0.209   2.407   1.820 -0.3219 -0.1820  0.5576
  556TIP3    H123303   0.243   2.385   1.733 -1.3890  0.9269 -0.1690
  556TIP3    H223304   0.201   2.503   1.819  3.2194  0.3374  3.2349
  557TIP3   OH223305   5.118   1.348   0.143 -0.1533 -0.5008 -0.0060
  557TIP3    H123306   5.053   1.324   0.209 -0.0821 -0.6702  0.0019
  557TIP3    H223307   5.168   1.268   0.127 -0.5216 -0.6032 -0.6702
  558TIP3   OH223308   1.015   0.710   2.116  0.4057  0.2401 -0.1914
  558TIP3    H123309   0.931   0.682   2.152  0.6182 -0.7669 -0.4309
  558TIP3    H223310   1.076   0.702   2.189  1.1553 -3.3071 -1.0293
  559TIP3   OH223311   5.641   3.097   2.134  0.3209 -0.4116  0.0712
  559TIP3    H123312   5.720   3.076   2.183 -0.1319 -1.4052  0.4160
  559TIP3    H223313   5.585   3.020   2.145 -1.0929  0.6514  0.6308
  560TIP3   OH223314   6.064   4.898   7.965  0.1884 -0.0992 -0.0367
  560TIP3    H123315   5.974   4.868   7.973  1.0095 -3.6647 -1.8601
  560TIP3    H223316   6.067   4.947   7.884  0.0454 -0.9006 -0.5393
  561TIP3   OH223317   5.843   6.802   2.654  0.2030 -0.2453  0.0530
  561TIP3    H123318   5.932   6.808   2.689  0.7667  1.1482 -1.4931
  561TIP3    H223319   5.801   6.883   2.682 -1.3231 -1.7672  2.5085
  562TIP3   OH223320   6.187   0.473   0.509  0.3040 -0.0491 -0.0820
  562TIP3    H123321   6.230   0.391   0.485  0.7756  0.5842 -1.5818
  562TIP3    H223322   6.253   0.540   0.490 -0.5486  0.7666 -0.2055
  563TIP3   OH223323   5.862   3.811   1.361 -0.1144 -0.6296  0.5546
  563TIP3    H123324   5.925   3.795   1.432  1.2713  0.7698 -0.2881
  563TIP3    H223325   5.810   3.885   1.392  1.0837  0.5776 -0.1821
  564TIP3   OH223326   4.816   3.327   0.266 -0.2643  0.7680  0.4692
  564TIP3    H123327   4.738   3.368   0.230 -0.8262 -0.1723  0.5876
  564TIP3    H223328   4.888   3.362   0.213 -0.7681  1.5585  0.2950
  565TIP3   OH223329   3.955   0.752   8.412  0.1718  0.3427  0.4937
  565TIP3    H123330   3.894   0.679   8.421  0.3069  0.0265 -0.9339
  565TIP3    H223331   3.977   0.777   8.502  1.0883 -2.2112  1.0619
  566TIP3   OH223332   5.214   1.218   0.392 -0.3472 -0.2160  0.4639
  566TIP3    H123333   5.269   1.142   0.414 -0.1203 -0.2539 -0.2010
  566TIP3    H223334   5.126   1.192   0.417 -0.1965 -0.5110  0.6985
  567TIP3   OH223335   2.619   5.414   0.719 -0.5143  0.0522 -0.1788
  567TIP3    H123336   2.538   5.382   0.679 -1.3726  0.3129  1.2478
  567TIP3    H223337   2.689   5.373   0.669 -1.5390 -0.9910 -0.8159
  568TIP3   OH223338   3.069   5.949   3.338  0.5986  0.3438  0.1391
  568TIP3    H123339   3.099   5.984   3.422 -0.2247  0.4040  0.4138
  568TIP3    H223340   2.977   5.973   3.334  0.2303 -1.0300 -0.0578
  569TIP3   OH223341   0.997   2.621   1.886  0.4625 -0.2021 -0.2330
  569TIP3    H123342   0.913   2.653   1.918  1.3303  0.8379  1.1027
  569TIP3    H223343   0.976   2.539   1.840 -1.2365 -0.0502  0.2225
  570TIP3   OH223344   4.338   3.087   3.759  0.2915  0.0307  0.7999
  570TIP3    H123345   4.361   3.058   3.848  2.2924 -3.5978 -0.6587
  570TIP3    H223346   4.413   3.140   3.731  0.2671  0.0948  0.8557
  571TIP3   OH223347   6.396   3.854   1.351 -0.2129  0.5626  0.1698
  571TIP3    H123348   6.459   3.842   1.280 -2.5777  0.4112 -2.0620
  571TIP3    H223349   6.428   3.929   1.400  3.2099 -1.2498  1.0182
  572TIP3   OH223350   3.931   1.431   2.536  1.0934 -0.1888  0.0672
  572TIP3    H123351   3.885   1.349   2.552  0.1897 -0.0507 -1.6436
  572TIP3    H223352   3.948   1.466   2.624 -2.4122 -0.0495  0.8334
  573TIP3   OH223353   0.106   4.170   8.318 -0.3118  0.3178  0.7271
  573TIP3    H123354   0.157   4.249   8.336  1.2328 -0.2762 -0.7376
  573TIP3    H223355   0.137   4.141   8.233 -1.6437 -1.2711  0.7384
  574TIP3   OH223356   2.496   6.280   2.936  0.7241 -0.3542 -0.7502
  574TIP3    H123357   2.521   6.213   3.000 -0.5487 -0.0957  0.0420
  574TIP3    H223358   2.536   6.360   2.968  0.4562 -0.3119 -0.5223
  575TIP3   OH223359   6.052   5.979   8.299  0.0298 -0.3050 -0.0670
  575TIP3    H123360   6.122   6.027   8.344 -0.8884 -0.6668  1.8568
  575TIP3    H223361   6.098   5.914   8.246  1.1584 -0.2842  0.8366
  576TIP3   OH223362   5.431   4.431   8.658  1.1633 -0.5429  0.0193
  576TIP3    H123363   5.337   4.440   8.675  0.8439 -0.7103 -1.4731
  576TIP3    H223364   5.473   4.488   8.723  0.0035 -0.0438  0.3601
  577TIP3   OH223365   6.773   5.099   0.983  0.1105 -0.1001 -0.1948
  577TIP3    H123366   6.682   5.078   1.003  0.3813  1.5093  3.5261
  577TIP3    H223367   6.820   5.016   0.992 -0.3673 -0.1364  3.1276
  578TIP3   OH223368   0.707   0.845   0.282  0.0832 -0.1106  0.3951
  578TIP3    H123369   0.688   0.849   0.376  1.1554  1.1892  0.5777
  578TIP3    H223370   0.794   0.883   0.273 -1.2997  3.0363 -1.5018
  579TIP3   OH223371   6.587   0.196   2.421 -0.1967  0.3677 -0.1697
  579TIP3    H123372   6.657   0.243   2.376  1.6048 -0.0839  1.9871
  579TIP3    H223373   6.520   0.263   2.438  1.1607  1.6001  0.5587
  580TIP3   OH223374   6.027   1.542   1.734 -0.0881 -0.5865 -0.3127
  580TIP3    H123375   5.998   1.541   1.825 -0.9426 -0.3289 -0.5721
  580TIP3    H223376   6.080   1.462   1.725 -1.8135 -1.7943 -0.1621
  581TIP3   OH223377   4.878   5.631   3.738 -0.2254 -0.4390  0.1353
  581TIP3    H123378   4.871   5.684   3.818  1.7523 -2.6055  1.8936
  581TIP3    H223379   4.950   5.570   3.756  0.6868 -0.6916 -3.5505
  582TIP3   OH223380   5.854   5.751   8.229  0.8982 -0.1158 -0.2058
  582TIP3    H123381   5.831   5.660   8.209  1.0540 -0.7472  2.1317
  582TIP3    H223382   5.935   5.767   8.181  0.3540 -0.8682 -1.4089
  583TIP3   OH223383   5.901   5.876   2.801 -0.0510  0.1752 -0.1315
  583TIP3    H123384   5.874   5.796   2.846 -2.6739  0.2359 -1.3763
  583TIP3    H223385   5.909   5.850   2.709  2.3498  0.6703 -0.1146
  584TIP3   OH223386   2.113   0.097   0.055 -0.7372 -0.3113 -0.5483
  584TIP3    H123387   2.189   0.079  -0.001 -0.6640 -1.2387 -0.1830
  584TIP3    H223388   2.127   0.185   0.088  0.1756 -0.4655 -0.5063
  585TIP3   OH223389   2.269   2.588   1.091  0.5155  0.2459  0.4266
  585TIP3    H123390   2.200   2.565   1.028  1.7299 -3.9648  0.3612
  585TIP3    H223391   2.225   2.648   1.152 -2.1036  0.6122 -1.5806
  586TIP3   OH223392   3.183   3.869   1.994 -0.5782 -0.2066  0.5964
  586TIP3    H123393   3.154   3.810   2.063 -2.0677 -0.5166 -0.2592
  586TIP3    H223394   3.196   3.953   2.038  0.3435 -0.8418  1.5800
  587TIP3   OH223395   6.865   4.520   3.240 -0.1416  0.0992  0.8966
  587TIP3    H123396   6.861   4.536   3.334  1.4758 -1.6911  1.3215
  587TIP3    H223397   6.902   4.433   3.232 -1.3187 -0.2612 -1.4020
  588TIP3   OH223398   6.138   0.833   0.445 -0.2457  0.5006 -0.0127
  588TIP3    H123399   6.206   0.783   0.400 -0.1508  1.0961 -0.5509
  588TIP3    H223400   6.066   0.771   0.457 -0.4370  0.4315 -1.3692
  589TIP3   OH223401   6.362   3.440   3.160 -0.0855 -0.6808  0.6399
  589TIP3    H123402   6.401   3.383   3.094 -0.3739 -1.1589  0.8838
  589TIP3    H223403   6.295   3.490   3.112 -1.2408 -1.9901  0.8340
  590TIP3   OH223404   5.139   5.552   3.457 -0.2138  0.0529 -0.6237
  590TIP3    H123405   5.168   5.550   3.366  2.2373  0.3840  0.0727
  590TIP3    H223406   5.100   5.638   3.468  0.0102  0.2344 -1.2180
  591TIP3   OH223407   1.700   6.397   0.328  0.0142  0.1212  0.3708
  591TIP3    H123408   1.745   6.359   0.403 -0.1430 -1.3366 -0.2391
  591TIP3    H223409   1.744   6.360   0.252 -0.8444  0.3198 -0.2387
  592TIP3   OH223410   4.714   5.731   8.670 -0.2371  0.0472 -0.0462
  592TIP3    H123411   4.702   5.825   8.660  0.5454  0.2117  0.4350
  592TIP3    H223412   4.654   5.692   8.607 -1.3076  0.8486  0.4449
  593TIP3   OH223413   3.184   1.488   1.169 -0.3954 -0.4441 -0.1554
  593TIP3    H123414   3.103   1.539   1.164  0.2077  0.3954 -1.5111
  593TIP3    H223415   3.251   1.550   1.197  0.6063 -0.0735 -3.0217
  594TIP3   OH223416   2.232   4.173   8.049 -0.1833  0.1785 -0.0151
  594TIP3    H123417   2.252   4.179   7.956 -1.7674  0.9495 -0.3303
  594TIP3    H223418   2.313   4.141   8.089  0.4823 -0.2581 -1.6560
  595TIP3   OH223419   3.519   6.763   0.738  0.3279  0.1898  0.0612
  595TIP3    H123420   3.461   6.827   0.697 -2.0937 -0.9702  1.4475
  595TIP3    H223421   3.546   6.706   0.667 -0.5229  0.5686 -0.5864
  596TIP3   OH223422   4.369   5.027   2.862 -0.5598  0.3730 -0.4592
  596TIP3    H123423   4.449   5.071   2.889  0.6502 -1.9461 -0.0139
  596TIP3    H223424   4.313   5.097   2.830  0.7822  2.3495  1.2492
  597TIP3   OH223425   5.928   4.735   1.314 -0.2112  0.1899 -0.7494
  597TIP3    H123426   6.022   4.720   1.325 -0.3854 -0.6793 -0.3757
  597TIP3    H223427   5.887   4.687   1.387 -1.0270 -0.6424 -1.7191
  598TIP3   OH223428   5.007   4.586   2.300 -0.4530  0.3196  0.2089
  598TIP3    H123429   4.924   4.609   2.341 -0.7528 -0.4737  0.0548
  598TIP3    H223430   4.984   4.558   2.212 -0.0986 -0.5701  0.3928
  599TIP3   OH223431   3.968   6.064   2.539  0.2087  0.0004 -0.1621
  599TIP3    H123432   4.010   6.024   2.463 -0.5050 -0.2777 -0.4148
  599TIP3    H223433   3.888   6.014   2.552  0.9947 -0.8662  1.6486
  600TIP3   OH223434   2.388   3.666   8.200 -0.4790  0.5970  0.0740
  600TIP3    H123435   2.432   3.587   8.167 -0.4747 -0.3218  2.0750
  600TIP3    H223436   2.438   3.739   8.164  0.3667 -0.3517 -0.7306
  601TIP3   OH223437   3.553   5.183   0.313  0.7680  0.2502  0.1047
  601TIP3    H123438   3.629   5.132   0.339  0.3182 -0.8565 -0.6780
  601TIP3    H223439   3.521   5.222   0.394  0.3308 -1.8074  0.9627
  602TIP3   OH223440   1.509   2.867   2.116  0.0813 -0.1294  0.0994
  602TIP3    H123441   1.520   2.960   2.094  1.8692 -0.6804 -1.6360
  602TIP3    H223442   1.467   2.830   2.038  1.7788 -1.2268 -0.3248
  603TIP3   OH223443   1.320   0.657   1.680 -0.2957 -0.2615  0.5397
  603TIP3    H123444   1.312   0.712   1.602  0.9017  1.1526  1.3579
  603TIP3    H223445   1.260   0.695   1.743 -0.6167 -0.8671  0.6082
  604TIP3   OH223446   4.762   6.758   1.594 -0.1407  0.6620  0.4122
  604TIP3    H123447   4.734   6.726   1.508  1.7285  1.0219 -0.3883
  604TIP3    H223448   4.779   6.679   1.645  0.1084  0.4154 -0.0463
  605TIP3   OH223449   6.678   5.794   0.237 -0.7232  0.7903  0.2281
  605TIP3    H123450   6.736   5.719   0.246 -1.4386 -0.1814 -2.4210
  605TIP3    H223451   6.716   5.846   0.167 -2.1267  1.0038 -0.4199
  606TIP3   OH223452   6.388   2.241   1.121 -0.0007 -0.1779  0.6250
  606TIP3    H123453   6.425   2.171   1.175 -1.4066 -0.0705  1.8206
  606TIP3    H223454   6.427   2.321   1.156  0.3606 -0.2309  0.3504
  607TIP3   OH223455   5.077   2.768   2.591  0.0123 -0.1028 -0.1129
  607TIP3    H123456   5.117   2.815   2.664 -0.4000  0.9514 -0.5495
  607TIP3    H223457   5.105   2.677   2.603  2.6067  0.5691 -0.4322
  608TIP3   OH223458   2.263   2.737   8.524 -0.2419  0.3176 -0.4807
  608TIP3    H123459   2.343   2.716   8.572 -0.5868 -0.1553 -0.0980
  608TIP3    H223460   2.281   2.713   8.434 -1.0141 -2.8852  0.0960
  609TIP3   OH223461   0.707   6.276   8.045  0.1562 -0.6315  0.5097
  609TIP3    H123462   0.621   6.249   8.078 -1.2358  1.3349 -1.2449
  609TIP3    H223463   0.708   6.371   8.057  0.7761 -0.2082 -2.2826
  610TIP3   OH223464   2.105   0.244   4.051 -0.2051 -0.1439 -0.1090
  610TIP3    H123465   2.131   0.332   4.076  1.5519 -0.8141  0.5869
  610TIP3    H223466   2.171   0.216   3.987  0.3634 -1.6094  1.0611
  611TIP3   OH223467   2.906   0.640   2.389  0.1114  0.4006  0.6599
  611TIP3    H123468   2.812   0.650   2.403  0.0523  0.5086  0.2004
  611TIP3    H223469   2.946   0.683   2.464 -0.2269 -1.4737  1.9721
  612TIP3   OH223470   1.263   3.273   0.385 -0.6369 -0.6166 -0.2345
  612TIP3    H123471   1.252   3.293   0.478 -2.7052 -2.8237  0.0853
  612TIP3    H223472   1.270   3.178   0.381  2.3803 -0.4702 -2.1684
  613TIP3   OH223473   2.651   0.714   8.549  0.0714  0.3585  0.2000
  613TIP3    H123474   2.665   0.620   8.560 -1.0592 -0.1207 -1.8439
  613TIP3    H223475   2.732   0.747   8.511  0.6882  0.3482  1.4703
  614TIP3   OH223476   3.491   5.136   3.675 -0.1382  0.4636  0.1015
  614TIP3    H123477   3.568   5.130   3.731 -0.8094  2.4242  1.3415
  614TIP3    H223478   3.421   5.095   3.727 -0.1570 -0.5001 -0.6469
  615TIP3   OH223479   1.328   1.579   8.278 -0.0056 -0.3792 -0.1947
  615TIP3    H123480   1.291   1.667   8.272 -0.2310 -0.4396  0.2510
  615TIP3    H223481   1.336   1.549   8.188  0.0694  0.0972 -0.3461
  616TIP3   OH223482   6.811   2.963   0.855  0.2338 -0.6755 -0.0260
  616TIP3    H123483   6.796   2.886   0.801 -3.9049  0.7613 -1.3240
  616TIP3    H223484   6.745   2.957   0.924  0.8258  0.9403  0.7497
  617TIP3   OH223485   5.763   2.855   3.252  0.4563 -0.2882  0.5539
  617TIP3    H123486   5.853   2.882   3.273  0.8968 -1.2387 -0.0525
  617TIP3    H223487   5.734   2.918   3.186  1.0801 -0.6191 -0.0468
  618TIP3   OH223488   4.505   5.619   8.583 -0.3315  0.3133  0.2845
  618TIP3    H123489   4.499   5.530   8.550 -2.2383  0.9712 -1.3479
  618TIP3    H223490   4.478   5.614   8.674  2.1575 -1.1216  1.0192
  619TIP3   OH223491   3.125   3.181   0.694  0.0834 -0.2835 -0.0025
  619TIP3    H123492   3.142   3.257   0.749  1.3154 -0.3972 -0.1998
  619TIP3    H223493   3.208   3.133   0.693 -0.5472 -1.4059 -0.2259
  620TIP3   OH223494   6.863   2.608   0.436 -0.1607 -0.1516  0.2993
  620TIP3    H123495   6.870   2.512   0.442  0.6667 -0.0536  1.0330
  620TIP3    H223496   6.953   2.639   0.437 -0.4195  0.6388 -0.1002
  621TIP3   OH223497   1.705   5.457   0.420 -0.2645 -0.1931 -0.5182
  621TIP3    H123498   1.702   5.500   0.506 -2.6172  0.9288 -1.0625
  621TIP3    H223499   1.690   5.528   0.358 -0.6365 -1.2818 -1.7085
  622TIP3   OH223500   2.195   0.731   3.415 -0.9663  0.3195  0.2513
  622TIP3    H123501   2.102   0.737   3.435 -1.1179  0.5223 -0.4900
  622TIP3    H223502   2.237   0.793   3.475 -1.4360  1.0774 -0.1873
  623TIP3   OH223503   1.917   6.307   1.215 -0.2244 -0.0081  0.6446
  623TIP3    H123504   2.006   6.279   1.232 -0.1755  0.1693  0.6828
  623TIP3    H223505   1.904   6.292   1.121  1.0856  3.3450 -0.2180
  624TIP3   OH223506   3.727   3.167   1.799 -0.1883  0.2147  0.6616
  624TIP3    H123507   3.777   3.127   1.728  0.3959  0.5381  0.8768
  624TIP3    H223508   3.651   3.207   1.757  0.5805  1.1225  0.1035
  625TIP3   OH223509   6.278   0.244   3.400 -0.6218 -0.0164 -0.6908
  625TIP3    H123510   6.228   0.320   3.432  0.9622 -0.1230  2.4669
  625TIP3    H223511   6.369   0.270   3.412 -0.0286 -1.9937 -0.6455
  626TIP3   OH223512   3.805   5.643   1.249 -0.0309 -0.2569  0.2641
  626TIP3    H123513   3.720   5.673   1.216 -0.6560 -1.1889  0.9648
  626TIP3    H223514   3.840   5.718   1.298 -1.1393 -0.3204  1.2027
  627TIP3   OH223515   2.277   2.942   2.285 -0.3056 -0.2134 -0.5658
  627TIP3    H123516   2.196   2.938   2.336  0.3256  0.0446  0.4866
  627TIP3    H223517   2.341   2.893   2.336  0.4931  0.5218 -0.8200
  628TIP3   OH223518   2.226   6.499   2.789 -0.1619 -0.0372  0.5230
  628TIP3    H123519   2.305   6.550   2.772 -0.0676 -0.2384  0.3573
  628TIP3    H223520   2.202   6.521   2.879  0.4417 -0.4547  0.7948
  629TIP3   OH223521   2.084   6.838   3.542 -0.0597 -0.6944 -0.2293
  629TIP3    H123522   2.100   6.854   3.635 -1.2164 -0.7394 -0.0026
  629TIP3    H223523   2.166   6.861   3.499  0.0598  0.6421  0.6506
  630TIP3   OH223524   4.812   5.266   1.316 -0.3845 -0.8557 -0.2692
  630TIP3    H123525   4.887   5.325   1.308 -1.3601  0.3915 -0.6171
  630TIP3    H223526   4.847   5.188   1.359  0.8917  0.0842  0.4732
  631TIP3   OH223527   1.894   3.280   2.814 -0.4397 -0.3238 -0.2048
  631TIP3    H123528   1.895   3.186   2.831  0.1586 -0.0612  1.3470
  631TIP3    H223529   1.884   3.321   2.900  2.4345  1.0750 -0.3944
  632TIP3   OH223530   4.591   6.104   0.267 -0.5166  0.0629 -0.9166
  632TIP3    H123531   4.513   6.096   0.212 -0.1943 -0.6069 -1.2783
  632TIP3    H223532   4.664   6.109   0.206 -0.3198  1.5591 -0.6118
  633TIP3   OH223533   1.849   4.832   1.284  0.4088 -0.4700  0.0969
  633TIP3    H123534   1.767   4.784   1.270  1.2406 -2.0549  0.4944
  633TIP3    H223535   1.821   4.918   1.317 -1.2798  0.6619 -3.7059
  634TIP3   OH223536   3.965   0.972   2.583  0.1762 -0.6697 -0.2477
  634TIP3    H123537   4.060   0.964   2.595  0.1883  1.1902  1.2237
  634TIP3    H223538   3.932   0.883   2.599  1.4443 -0.8184  1.9300
  635TIP3   OH223539   5.391   5.291   2.459 -0.3183  0.2072  0.1294
  635TIP3    H123540   5.468   5.253   2.417  0.4350 -1.0972  2.5126
  635TIP3    H223541   5.323   5.224   2.449 -0.3145  0.1550  0.4525
  636TIP3   OH223542   6.156   2.697   0.749 -0.0583 -0.2737  0.3748
  636TIP3    H123543   6.099   2.625   0.777  1.0689 -1.5416 -0.4597
  636TIP3    H223544   6.213   2.658   0.682  0.8951  1.2816  0.2278
  637TIP3   OH223545   6.018   4.031   0.174 -0.0181  0.3965  0.3192
  637TIP3    H123546   5.927   4.001   0.175  0.0487  0.1796  1.9664
  637TIP3    H223547   6.018   4.105   0.114 -1.0523 -0.2702 -0.5478
  638TIP3   OH223548   4.473   2.504   1.711 -0.2796  0.6852  0.3911
  638TIP3    H123549   4.563   2.536   1.722 -0.1079 -0.3887  2.5211
  638TIP3    H223550   4.483   2.428   1.652  0.1741  0.6971  0.4458
  639TIP3   OH223551   2.016   5.161   0.020 -0.2327  0.1791 -0.2468
  639TIP3    H123552   1.962   5.194  -0.052 -0.3370 -0.4747 -0.4805
  639TIP3    H223553   1.955   5.109   0.074  0.1505 -0.5614 -0.5096
  640TIP3   OH223554   6.384   2.889   8.648 -0.0172  0.6094 -0.1328
  640TIP3    H123555   6.367   2.815   8.707  0.0362 -0.3192 -1.2319
  640TIP3    H223556   6.423   2.849   8.571  0.9808  1.9337 -0.3463
  641TIP3   OH223557   2.320   2.642   3.096  0.3408 -0.3164  0.0687
  641TIP3    H123558   2.297   2.728   3.129  0.4664 -0.0328 -0.5599
  641TIP3    H223559   2.352   2.594   3.173  2.2128  0.8663  0.1021
  642TIP3   OH223560   5.881   6.384   0.014 -0.3395 -0.0819  0.6860
  642TIP3    H123561   5.795   6.415  -0.013  0.0622  0.3351 -0.1550
  642TIP3    H223562   5.874   6.288   0.009 -0.0581 -0.0579 -1.8268
  643TIP3   OH223563   5.334   4.379   3.243  0.1638 -0.8076  0.1007
  643TIP3    H123564   5.287   4.434   3.306  0.8265  1.5580 -1.3256
  643TIP3    H223565   5.272   4.370   3.170  0.4051 -1.1970 -0.0534
  644TIP3   OH223566   2.917   0.881   0.957  0.2490  0.0659 -0.2982
  644TIP3    H123567   2.910   0.927   1.041 -1.5129 -0.6512 -0.0121
  644TIP3    H223568   2.860   0.929   0.898  0.0978 -0.4680 -0.5976
  645TIP3   OH223569   2.602   1.194   0.896 -0.2846 -0.2194  0.1363
  645TIP3    H123570   2.572   1.237   0.977  1.4247  0.6078  0.3912
  645TIP3    H223571   2.604   1.264   0.831 -1.5406 -0.8592 -0.6324
  646TIP3   OH223572   2.527   2.506   1.685  0.1239  0.0157 -0.1199
  646TIP3    H123573   2.530   2.546   1.772  0.4118 -1.4314  0.5739
  646TIP3    H223574   2.435   2.480   1.674  0.2518 -0.5543  0.1236
  647TIP3   OH223575   3.736   5.635   3.126 -0.0513  0.1422 -0.2097
  647TIP3    H123576   3.751   5.729   3.119  0.3692  0.0409 -0.7061
  647TIP3    H223577   3.822   5.596   3.111 -0.4088 -0.3571 -1.0099
  648TIP3   OH223578   3.114   4.678   8.643  0.2915  0.1978  0.1546
  648TIP3    H123579   3.153   4.697   8.558 -0.5493  1.0570 -0.0593
  648TIP3    H223580   3.187   4.681   8.704  1.0227 -1.0981 -0.6072
  649TIP3   OH223581   1.479   2.648   1.381 -0.0138  0.3222  0.0555
  649TIP3    H123582   1.514   2.576   1.329 -0.7234 -0.2298  0.3179
  649TIP3    H223583   1.497   2.727   1.329  0.1699 -0.1146 -0.5526
  650TIP3   OH223584   6.747   0.392   2.270 -0.6764 -0.0330 -0.7393
  650TIP3    H123585   6.806   0.358   2.203  1.5868  0.4825  0.8734
  650TIP3    H223586   6.801   0.396   2.349 -2.6336  1.4082  0.6015
  651TIP3   OH223587   6.636   4.989   8.256  0.3728  0.2195 -0.1072
  651TIP3    H123588   6.620   5.083   8.257 -1.1998 -0.0174  1.2500
  651TIP3    H223589   6.591   4.958   8.177 -1.2632  0.3178  0.7414
  652TIP3   OH223590   5.488   0.138   3.426  0.0460  0.1446 -0.1966
  652TIP3    H123591   5.510   0.070   3.490 -0.1555 -0.5664 -0.8681
  652TIP3    H223592   5.492   0.220   3.476 -0.9238 -0.4627  0.9403
  653TIP3   OH223593   4.398   1.367   2.118  0.1325 -0.6371 -0.3382
  653TIP3    H123594   4.357   1.449   2.089  0.9617 -0.6934 -1.7734
  653TIP3    H223595   4.411   1.379   2.212 -1.0522  0.3030 -0.2640
  654TIP3   OH223596   0.850   2.227   2.070 -0.5832 -0.3683  0.2726
  654TIP3    H123597   0.777   2.287   2.055 -1.5822 -1.9717 -1.7939
  654TIP3    H223598   0.829   2.182   2.152  0.4258  2.2590  2.1479
  655TIP3   OH223599   1.720   2.394   3.279  0.4447  0.5377 -0.2144
  655TIP3    H123600   1.767   2.321   3.238  2.0422  0.5347  1.4561
  655TIP3    H223601   1.749   2.471   3.231 -2.5170  0.0830 -3.1008
  656TIP3   OH223602   2.620   2.629   2.673 -0.3976 -0.3001 -0.2754
  656TIP3    H123603   2.644   2.582   2.753  0.3693 -0.4019 -0.5608
  656TIP3    H223604   2.613   2.720   2.699  0.0692 -0.3025 -0.1378
  657TIP3   OH223605   3.274   3.606   0.159 -0.0114 -0.3360 -0.3443
  657TIP3    H123606   3.245   3.515   0.164 -2.3070  0.2001 -2.2491
  657TIP3    H223607   3.243   3.646   0.240 -1.0221 -0.7543 -0.5103
  658TIP3   OH223608   3.277   2.746   2.285 -0.2522 -0.2230  0.5016
  658TIP3    H123609   3.328   2.827   2.278  1.8318 -1.5606 -1.3361
  658TIP3    H223610   3.247   2.744   2.375  1.4280  1.5857  1.1741
  659TIP3   OH223611   6.175   0.501   1.185  0.0714  0.2515 -0.0922
  659TIP3    H123612   6.261   0.496   1.228 -0.0162  0.1821  0.0734
  659TIP3    H223613   6.147   0.592   1.198  0.5917  0.5645 -1.0554
  660TIP3   OH223614   1.899   4.657   1.499  0.2211  0.5634 -0.4897
  660TIP3    H123615   1.919   4.708   1.420  0.5026  0.0521 -0.7551
  660TIP3    H223616   1.954   4.696   1.567  0.8553  0.2688 -0.8207
  661TIP3   OH223617   2.213   6.783   3.058  0.2510 -0.1487 -0.5772
  661TIP3    H123618   2.267   6.712   3.092 -0.5562 -0.1390  0.7873
  661TIP3    H223619   2.273   6.858   3.053  0.1158  0.3196  2.4972
  662TIP3   OH223620   0.481   6.585   2.827 -0.1573  0.1488 -0.7585
  662TIP3    H123621   0.410   6.578   2.763  0.5388 -0.8454 -1.4344
  662TIP3    H223622   0.491   6.679   2.841 -0.4069  0.3740 -2.0146
  663TIP3   OH223623   4.806   2.940   2.391  0.2416 -0.4316 -0.1167
  663TIP3    H123624   4.721   2.983   2.386  0.0796 -0.7338  0.0156
  663TIP3    H223625   4.788   2.855   2.430  0.5654 -0.6099 -0.3520
  664TIP3   OH223626   2.145   5.421   3.150 -0.2204 -0.2952  0.4231
  664TIP3    H123627   2.107   5.351   3.097 -1.9095  0.2290  0.8524
  664TIP3    H223628   2.105   5.409   3.237  1.5102 -0.3751  1.2533
  665TIP3   OH223629   5.126   4.364   3.058 -0.4175  0.4422  0.5029
  665TIP3    H123630   5.176   4.390   2.981  1.0717  0.7476  1.5133
  665TIP3    H223631   5.114   4.269   3.048  0.5652  0.3230  0.3230
  666TIP3   OH223632   2.705   2.260   8.709  0.7320 -0.2143  0.0368
  666TIP3    H123633   2.671   2.171   8.697 -0.3135  0.0697  0.7651
  666TIP3    H223634   2.725   2.290   8.621 -0.7558 -0.4672 -0.4146
  667TIP3   OH223635   0.868   0.933   1.735 -0.2381  0.1722  0.6374
  667TIP3    H123636   0.800   0.993   1.704 -1.6309 -1.0122  1.2663
  667TIP3    H223637   0.863   0.939   1.831 -0.1008 -0.6217  0.6971
  668TIP3   OH223638   3.112   1.242   1.424  0.4583  0.2075  0.2086
  668TIP3    H123639   3.167   1.200   1.489  1.0415  1.6258  0.6635
  668TIP3    H223640   3.120   1.186   1.346 -0.6956 -1.8362  1.4538
  669TIP3   OH223641   3.967   6.812   2.047  0.3363  0.3175 -0.1983
  669TIP3    H123642   3.899   6.870   2.079 -0.5301 -1.4979  1.4994
  669TIP3    H223643   3.921   6.737   2.011  1.4269  0.2102 -1.4608
  670TIP3   OH223644   1.892   4.081   1.208 -0.3512 -0.7160 -0.0654
  670TIP3    H123645   1.977   4.126   1.212 -1.5576  1.8218 -0.8001
  670TIP3    H223646   1.848   4.106   1.289 -1.9518  1.5438 -1.5231
  671TIP3   OH223647   0.376   2.769   8.677  0.5501 -0.1315 -0.2489
  671TIP3    H123648   0.425   2.748   8.597 -0.9998  0.8116 -1.5070
  671TIP3    H223649   0.365   2.684   8.721 -0.4733 -1.0553 -2.1707
  672TIP3   OH223650   1.293   5.965   1.261 -0.6518  0.3159 -0.4020
  672TIP3    H123651   1.294   6.034   1.195  0.9013 -0.9234 -1.7596
  672TIP3    H223652   1.266   5.886   1.214  0.7361 -0.6508  0.3371
  673TIP3   OH223653   5.453   4.237   1.192 -0.6507  0.2194  0.7122
  673TIP3    H123654   5.544   4.217   1.212 -0.7959  0.5443  1.7500
  673TIP3    H223655   5.454   4.260   1.099  0.5296  1.3215  0.9545
  674TIP3   OH223656   5.949   1.593   2.007 -0.4121 -0.2856  0.0495
  674TIP3    H123657   6.030   1.598   2.058  0.6616 -0.3894 -1.5669
  674TIP3    H223658   5.905   1.514   2.039  0.1087 -0.2206  0.9538
  675TIP3   OH223659   0.711   5.543   1.679  0.2320  0.4537  0.3661
  675TIP3    H123660   0.758   5.559   1.761  1.1275 -1.2054  0.2190
  675TIP3    H223661   0.665   5.626   1.661  2.1929  1.7762  1.1054
  676TIP3   OH223662   5.714   2.507   8.691 -0.3011 -0.4624  0.6601
  676TIP3    H123663   5.670   2.423   8.704 -0.4408 -0.3823  0.7122
  676TIP3    H223664   5.792   2.502   8.746 -1.1706  0.0907  1.9917
  677TIP3   OH223665   4.499   1.837   4.020  0.2266 -0.4109 -0.7585
  677TIP3    H123666   4.570   1.773   4.015  0.7794  0.0480  0.6663
  677TIP3    H223667   4.476   1.840   4.113  0.1264  1.3376 -0.7952
  678TIP3   OH223668   5.851   0.026   1.627 -0.1372 -0.5724  0.2235
  678TIP3    H123669   5.845  -0.034   1.553 -0.9223 -0.6247  0.3159
  678TIP3    H223670   5.825  -0.027   1.703  0.3389 -0.4313  0.4892
  679TIP3   OH223671   6.663   6.660   2.870 -0.2157 -0.4919  0.3462
  679TIP3    H123672   6.744   6.610   2.877 -0.5418 -0.8801  1.8372
  679TIP3    H223673   6.630   6.664   2.960 -0.5168  1.8880  0.1821
  680TIP3   OH223674   0.815   3.764   0.739  0.3672  0.6787  0.2097
  680TIP3    H123675   0.806   3.837   0.800 -0.0666  0.4966  0.3698
  680TIP3    H223676   0.762   3.694   0.777  0.0863  0.5660 -0.3745
  681TIP3   OH223677   0.984   2.318   2.727 -0.5669  0.3615 -0.3121
  681TIP3    H123678   0.995   2.239   2.674  1.3006  0.2307  0.1992
  681TIP3    H223679   0.914   2.367   2.683 -0.8633 -0.9528 -1.3730
  682TIP3   OH223680   3.631   1.243   2.948  0.1837 -0.2069 -0.0451
  682TIP3    H123681   3.626   1.319   2.890 -0.4620  0.0481  0.3338
  682TIP3    H223682   3.541   1.230   2.978  0.4622 -0.5025  0.6812
  683TIP3   OH223683   0.290   4.180   1.628  0.5256  0.3407  0.3781
  683TIP3    H123684   0.282   4.100   1.577 -1.3183  1.6926 -1.6592
  683TIP3    H223685   0.241   4.162   1.709  0.6062 -0.7503  0.1942
  684TIP3   OH223686   3.499   4.523   3.019  0.2877 -0.2096  0.1861
  684TIP3    H123687   3.544   4.546   3.101 -0.8531  0.0890  0.7435
  684TIP3    H223688   3.448   4.445   3.041 -0.8753  0.4971  0.0717
  685TIP3   OH223689   5.389   5.289   8.449  0.3979  0.3422  0.7719
  685TIP3    H123690   5.383   5.198   8.480  2.0150  0.0165  0.1857
  685TIP3    H223691   5.307   5.303   8.400 -0.1836 -0.5554  1.4550
  686TIP3   OH223692   1.081   0.309   8.204  0.6385 -0.0290 -0.0306
  686TIP3    H123693   1.010   0.374   8.204  1.2852  0.7835 -2.5093
  686TIP3    H223694   1.036   0.225   8.215 -0.5208  0.6045  0.2903
  687TIP3   OH223695   6.383   0.478   1.655  0.9045 -0.7061  0.1240
  687TIP3    H123696   6.290   0.494   1.670  0.7000 -0.9700 -0.8410
  687TIP3    H223697   6.393   0.482   1.560  1.6570 -1.8944  0.1357
  688TIP3   OH223698   6.636   0.301   1.823 -0.1363 -0.7354 -0.3690
  688TIP3    H123699   6.582   0.366   1.869 -0.4487 -1.8713  0.9724
  688TIP3    H223700   6.717   0.348   1.801  1.0591 -0.5867  3.4601
  689TIP3   OH223701   0.028   4.950   1.280  0.0986 -0.2524  0.2424
  689TIP3    H123702   0.095   4.978   1.217 -0.2928 -2.4723 -1.2888
  689TIP3    H223703   0.059   4.865   1.311 -1.5347 -0.8850  0.2195
  690TIP3   OH223704   2.238   1.153   1.127  0.0603  0.1116  0.4237
  690TIP3    H123705   2.232   1.091   1.054 -0.9133  0.2777  0.3526
  690TIP3    H223706   2.283   1.104   1.196  0.3273 -0.2908 -0.0271
  691TIP3   OH223707   4.721   1.536   3.122  0.4616  0.6101  0.3686
  691TIP3    H123708   4.773   1.615   3.107  0.3100  0.6063 -0.2181
  691TIP3    H223709   4.692   1.510   3.035  0.5618 -0.1314  0.5509
  692TIP3   OH223710   5.035   4.832   1.401 -0.7529 -0.3463  0.3359
  692TIP3    H123711   5.093   4.782   1.343 -0.3899  1.0365 -0.5386
  692TIP3    H223712   5.011   4.769   1.470  0.4514 -1.4378 -0.1829
  693TIP3   OH223713   1.069   1.082   1.368 -0.0583 -0.3359 -0.0729
  693TIP3    H123714   1.120   1.077   1.448 -0.5938 -0.7751  0.2462
  693TIP3    H223715   1.000   1.146   1.386 -1.1150 -1.5542  0.3719
  694TIP3   OH223716   2.022   2.390   2.851 -0.0970 -0.2266 -0.1613
  694TIP3    H123717   2.037   2.469   2.800 -2.9254  0.5314  0.0125
  694TIP3    H223718   2.016   2.421   2.941 -0.4970 -0.7514 -0.0041
  695TIP3   OH223719   3.780   2.764   1.754  0.7024  0.1903  0.2490
  695TIP3    H123720   3.710   2.740   1.814  1.1038 -1.8007 -0.0211
  695TIP3    H223721   3.735   2.799   1.677  0.1002  0.6711  0.8092
  696TIP3   OH223722   2.428   1.787   4.033  0.0617  0.1890  0.0814
  696TIP3    H123723   2.515   1.746   4.035 -0.9127 -2.0020 -0.6061
  696TIP3    H223724   2.381   1.749   4.107 -0.9723 -0.2046 -0.7521
  697TIP3   OH223725   3.401   2.969   0.426 -0.4528 -0.0704 -0.0938
  697TIP3    H123726   3.412   3.024   0.503  0.5408  0.6563 -0.7446
  697TIP3    H223727   3.324   3.005   0.381  0.8904  1.5918 -1.1518
  698TIP3   OH223728   3.586   0.445   4.279 -0.4615  0.3320 -0.5816
  698TIP3    H123729   3.578   0.539   4.262  0.8321  0.7974  1.1146
  698TIP3    H223730   3.496   0.415   4.288 -0.9185  2.2424  2.7498
  699TIP3   OH223731   0.252   0.916   1.550  0.0428 -0.1525  0.3518
  699TIP3    H123732   0.230   0.824   1.541  0.6161 -0.2775  0.2479
  699TIP3    H223733   0.347   0.920   1.539  0.2372  0.2386  1.9231
  700TIP3   OH223734   6.280   6.598   2.654  0.2821  0.4592  0.0769
  700TIP3    H123735   6.332   6.678   2.664 -0.3332  0.8627  0.0625
  700TIP3    H223736   6.295   6.549   2.735  1.5073  0.0735 -0.3509
  701TIP3   OH223737   5.875   3.483   1.448  0.4228 -0.5220  0.0067
  701TIP3    H123738   5.818   3.510   1.520 -0.6384 -0.8944 -0.6828
  701TIP3    H223739   5.867   3.388   1.445 -1.3271 -0.3663 -2.0297
  702TIP3   OH223740   4.158   3.289   2.253  0.1557 -0.1640  0.6654
  702TIP3    H123741   4.119   3.288   2.341  0.9934  0.0865  1.0442
  702TIP3    H223742   4.251   3.270   2.268  0.2068 -0.6537 -0.2187
  703TIP3   OH223743   0.967   2.807   0.986  0.9652 -0.3538  0.0701
  703TIP3    H123744   1.049   2.773   0.950  1.9481 -0.6891  2.4596
  703TIP3    H223745   0.984   2.900   1.002  0.2245  0.0061 -1.1330
  704TIP3   OH223746   6.633   2.678   1.606  0.3624 -0.6991  0.8723
  704TIP3    H123747   6.593   2.743   1.548 -1.3080 -3.1407 -0.9149
  704TIP3    H223748   6.560   2.645   1.658  0.5748 -2.8658 -0.0812
  705TIP3   OH223749   1.816   3.969   3.088  0.2403  0.4465 -0.0176
  705TIP3    H123750   1.860   4.051   3.068  1.0608  0.4869  1.8087
  705TIP3    H223751   1.880   3.901   3.064 -0.3652  0.3050 -1.3479
  706TIP3   OH223752   1.866   2.081   8.370  0.7646 -0.0589  0.3121
  706TIP3    H123753   1.822   2.008   8.414  1.8423 -0.0981  1.3533
  706TIP3    H223754   1.918   2.039   8.301 -0.8928  0.0008 -1.0515
  707TIP3   OH223755   0.674   1.679   1.761  0.3575 -0.1041  0.0799
  707TIP3    H123756   0.695   1.673   1.854  2.3465  0.1693 -0.3232
  707TIP3    H223757   0.738   1.739   1.725  0.3858 -1.1242 -1.6976
  708TIP3   OH223758   6.845   4.844   0.905 -0.2285  0.0327  0.1474
  708TIP3    H123759   6.787   4.859   0.831 -2.3603  0.0312  1.7309
  708TIP3    H223760   6.788   4.810   0.974  1.8771 -1.1408  1.4244
  709TIP3   OH223761   3.163   0.596   3.559 -0.4302 -0.1206 -0.5912
  709TIP3    H123762   3.182   0.503   3.558 -0.6590 -0.2629  1.9668
  709TIP3    H223763   3.238   0.637   3.516  1.9333 -1.2114  2.1531
  710TIP3   OH223764   1.005   1.015   1.956 -0.1975  0.2569  0.0481
  710TIP3    H123765   0.980   0.972   2.037 -1.0059  1.3719  0.4155
  710TIP3    H223766   1.013   1.108   1.979  0.3101  0.4898 -0.9747
  711TIP3   OH223767   2.675   4.226   2.047 -0.9882 -0.5964 -0.0120
  711TIP3    H123768   2.694   4.223   2.141 -1.5735 -0.7075  0.1075
  711TIP3    H223769   2.724   4.302   2.015  1.7757 -2.3261 -0.2278
  712TIP3   OH223770   2.749   0.814   1.659  0.1889 -0.3845 -0.0027
  712TIP3    H123771   2.801   0.806   1.739 -0.4959 -6.4617  0.2401
  712TIP3    H223772   2.813   0.805   1.588  0.3005  0.6895 -0.0578
  713TIP3   OH223773   2.203   2.620   1.706  0.4505  0.4802  0.2135
  713TIP3    H123774   2.201   2.672   1.786  0.7256  0.6606  0.1047
  713TIP3    H223775   2.227   2.532   1.735  0.8969  0.6261  0.2892
  714TIP3   OH223776   4.915   5.709   1.729 -0.8360 -0.2549 -0.0257
  714TIP3    H123777   4.940   5.660   1.651  0.4785  0.5640 -0.1555
  714TIP3    H223778   4.820   5.717   1.724 -0.8505 -0.9484 -1.0859
  715TIP3   OH223779   4.904   0.138   2.320  0.3680 -0.4539  0.6922
  715TIP3    H123780   4.966   0.185   2.264 -1.7035  0.5723 -0.8843
  715TIP3    H223781   4.927   0.166   2.409  0.7698  1.6994 -0.0142
  716TIP3   OH223782   2.896   3.930   2.970 -0.1764 -0.1486 -0.0343
  716TIP3    H123783   2.876   3.851   2.921  1.1071 -0.6943  0.2803
  716TIP3    H223784   2.989   3.923   2.991 -0.3321  0.8255  1.1168
  717TIP3   OH223785   4.521   6.876   2.513 -0.0203 -0.3682  0.0444
  717TIP3    H123786   4.449   6.882   2.451  0.5269 -0.2777 -0.5886
  717TIP3    H223787   4.600   6.883   2.460  0.4532  1.5166  0.9214
  718TIP3   OH223788   4.414   6.815   2.766 -0.6070 -0.4987 -0.1001
  718TIP3    H123789   4.486   6.826   2.829 -0.6909  2.9434 -0.3990
  718TIP3    H223790   4.454   6.833   2.681 -1.2057 -1.6622 -0.6421
  719TIP3   OH223791   3.851   2.928   2.249  0.5399 -0.5569 -0.0225
  719TIP3    H123792   3.788   2.979   2.199 -0.4852 -1.1455  0.6242
  719TIP3    H223793   3.932   2.934   2.200  0.0746  0.5371 -0.6778
  720TIP3   OH223794   5.493   2.879   2.172  0.1821  0.4383 -0.1086
  720TIP3    H123795   5.533   2.818   2.234  0.4685 -2.3379 -2.7944
  720TIP3    H223796   5.402   2.885   2.200 -0.5056 -3.2248 -0.9537
  721TIP3   OH223797   1.446   1.743   8.511  0.0628 -0.2525 -0.2271
  721TIP3    H123798   1.501   1.667   8.492 -0.2382 -1.3213  2.6168
  721TIP3    H223799   1.487   1.783   8.587 -0.9968  1.1941 -0.3893
  722TIP3   OH223800   6.560   2.062   1.292 -0.2222  0.5733 -0.0725
  722TIP3    H123801   6.618   1.994   1.257 -0.5481 -0.8174  1.9280
  722TIP3    H223802   6.608   2.097   1.367 -1.1002  0.8851  0.3473
  723TIP3   OH223803   1.330   3.666   3.344 -0.4139 -0.4964  1.2960
  723TIP3    H123804   1.379   3.748   3.345  0.0175 -0.6796 -0.6686
  723TIP3    H223805   1.248   3.688   3.300 -0.7701 -0.8898  1.7510
  724TIP3   OH223806   3.049   0.030   3.026 -0.1854  0.6192 -0.0385
  724TIP3    H123807   3.071   0.119   2.998  0.7776  0.0936 -1.0406
  724TIP3    H223808   3.027   0.038   3.119  1.8547  1.5941  0.4032
  725TIP3   OH223809   3.851   0.936   3.108  0.1516 -0.0095 -0.6435
  725TIP3    H123810   3.815   0.848   3.097 -0.2500 -0.1308  1.2568
  725TIP3    H223811   3.929   0.937   3.052 -1.8732 -0.2531 -3.6918
  726TIP3   OH223812   5.044   2.576   8.613  0.1115  0.0055 -0.2137
  726TIP3    H123813   4.976   2.624   8.566  0.0344  0.0699 -0.0400
  726TIP3    H223814   5.112   2.641   8.629  0.4854 -0.2086 -0.9244
  727TIP3   OH223815   4.125   0.789   0.217 -0.2093  0.6568 -0.0658
  727TIP3    H123816   4.066   0.814   0.287 -0.2266  1.5783 -0.3982
  727TIP3    H223817   4.135   0.694   0.226 -1.1233  0.6074  0.4611
  728TIP3   OH223818   3.971   2.817   1.398 -0.5661 -0.2940 -0.2718
  728TIP3    H123819   3.964   2.807   1.303 -2.4796 -1.3461 -0.0727
  728TIP3    H223820   4.034   2.749   1.425 -1.4300 -1.2627 -0.6266
  729TIP3   OH223821   5.290   3.958   1.933 -0.1353  0.2288 -0.2136
  729TIP3    H123822   5.381   3.961   1.905  0.0184  1.6896  0.3246
  729TIP3    H223823   5.248   3.897   1.873  1.2385 -0.6544 -0.3243
  730TIP3   OH223824   5.337   6.030   2.430 -0.7794 -0.0078 -0.0292
  730TIP3    H123825   5.412   6.086   2.449 -1.5001  1.2406 -0.6697
  730TIP3    H223826   5.362   5.944   2.461  1.6109 -0.0311 -1.7863
  731TIP3   OH223827   2.508   2.797   2.317 -0.8769  0.4351 -0.5540
  731TIP3    H123828   2.445   2.730   2.342  1.0737 -0.9697  0.9609
  731TIP3    H223829   2.593   2.758   2.336  0.4189  2.7718 -1.1393
  732TIP3   OH223830   6.333   3.512   0.505 -1.2107 -0.1074 -0.0464
  732TIP3    H123831   6.292   3.538   0.423 -1.3648  3.3534  0.9465
  732TIP3    H223832   6.427   3.516   0.488 -1.2454  0.0358 -0.2077
  733TIP3   OH223833   1.230   6.558   1.217  0.1721  0.4761 -0.4391
  733TIP3    H123834   1.198   6.579   1.129 -0.4523  1.3188 -0.0189
  733TIP3    H223835   1.241   6.643   1.259 -0.3038  0.0448  0.5734
  734TIP3   OH223836   3.534   5.907   2.043  0.7100  0.0024  0.3499
  734TIP3    H123837   3.501   5.959   1.970  0.3553 -0.4896  0.1540
  734TIP3    H223838   3.580   5.970   2.099  0.0755  0.5743  0.2452
  735TIP3   OH223839   2.041   4.514   7.924 -0.1313  0.6194 -0.6699
  735TIP3    H123840   1.956   4.546   7.955 -0.3805 -0.4962 -0.1388
  735TIP3    H223841   2.075   4.585   7.870 -1.3439  1.1332 -0.7924
  736TIP3   OH223842   3.434   4.288   8.228  0.0295 -0.7987 -0.3415
  736TIP3    H123843   3.419   4.214   8.169 -0.6790 -1.5818  0.7776
  736TIP3    H223844   3.375   4.272   8.302 -0.1631  0.9110 -0.0783
  737TIP3   OH223845   0.697   5.261   1.596  0.2618  0.1554 -0.2732
  737TIP3    H123846   0.643   5.217   1.662  0.4465  0.0250 -0.2060
  737TIP3    H223847   0.704   5.351   1.627 -1.7651  0.7781 -1.4284
  738TIP3   OH223848   2.291   1.101   3.005  0.1545 -0.6965  0.3466
  738TIP3    H123849   2.235   1.090   2.928  0.7457 -4.0047  0.2389
  738TIP3    H223850   2.230   1.117   3.077 -0.7542 -1.5747 -0.2005
  739TIP3   OH223851   3.556   2.315   0.939 -0.0639 -0.0715  0.4222
  739TIP3    H123852   3.549   2.221   0.951  2.1319 -0.1507  1.7674
  739TIP3    H223853   3.480   2.351   0.985 -1.6139 -1.1741 -1.1561
  740TIP3   OH223854   2.482   0.288   4.001 -0.5314  1.1815  0.0614
  740TIP3    H123855   2.507   0.309   4.091  0.5976  0.9851 -0.1969
  740TIP3    H223856   2.563   0.257   3.961 -1.1171  0.9172 -0.9177
  741TIP3   OH223857   2.053   6.409   4.201 -0.1347 -0.0975  0.0518
  741TIP3    H123858   2.066   6.347   4.129 -0.0446 -0.5241  0.4319
  741TIP3    H223859   2.023   6.489   4.158 -1.6863 -0.8439 -0.3307
  742TIP3   OH223860   1.256   3.831   0.911  0.3559  0.2171  0.0516
  742TIP3    H123861   1.324   3.766   0.933  0.8455  0.0472 -1.7706
  742TIP3    H223862   1.174   3.787   0.931  0.7242 -0.1019  0.9545
  743TIP3   OH223863   0.387   1.758   2.771  0.5275  0.4056  0.2996
  743TIP3    H123864   0.337   1.832   2.737  2.9611  1.3455 -1.4645
  743TIP3    H223865   0.471   1.763   2.727  1.3776 -2.4922  1.3656
  744TIP3   OH223866   2.068   2.963   0.033  0.0301  0.2063 -0.2095
  744TIP3    H123867   2.064   2.874   0.068  0.7674  0.5103  0.6988
  744TIP3    H223868   1.985   2.974  -0.013  0.8519 -1.7508 -2.3667
  745TIP3   OH223869   3.163   6.525   2.158 -0.1643  0.8779  0.3927
  745TIP3    H123870   3.083   6.476   2.140  0.4698 -0.1457  0.2749
  745TIP3    H223871   3.134   6.601   2.208 -1.5327  1.9369 -1.8731
  746TIP3   OH223872   2.420   4.522   8.280 -0.3337 -0.6304 -0.2158
  746TIP3    H123873   2.375   4.459   8.336  0.0327 -1.6930 -1.0804
  746TIP3    H223874   2.368   4.602   8.287  0.6927 -0.1025  3.0599
  747TIP3   OH223875   5.781   3.983   0.517  0.0113 -0.1822  0.3921
  747TIP3    H123876   5.755   3.892   0.532 -2.2379 -0.6740 -4.5581
  747TIP3    H223877   5.703   4.034   0.540  1.0806  0.5735  2.6245
  748TIP3   OH223878   5.251   5.868   0.457 -0.8462  0.2532 -0.0839
  748TIP3    H123879   5.337   5.827   0.468 -1.6035 -1.7576 -1.1715
  748TIP3    H223880   5.269   5.962   0.452  1.0749  0.0453  1.5947
  749TIP3   OH223881   4.400   4.114   0.837  0.1936  0.0685 -0.6622
  749TIP3    H123882   4.479   4.068   0.809 -0.2617 -1.7133  0.7531
  749TIP3    H223883   4.428   4.163   0.915  0.2564  0.7177 -1.0907
  750TIP3   OH223884   2.276   6.032   7.586 -0.5419  0.1997 -0.2632
  750TIP3    H123885   2.365   6.002   7.573 -1.1445 -2.1099  0.5387
  750TIP3    H223886   2.284   6.110   7.641  0.9137 -1.0390  1.3723
  751TIP3   OH223887   3.522   2.069   8.522 -0.6516 -0.1567 -0.3341
  751TIP3    H123888   3.538   2.151   8.476  0.6670  0.0531  0.4641
  751TIP3    H223889   3.475   2.094   8.601 -0.2918 -0.1751 -0.1144
  752TIP3   OH223890   4.610   2.770   1.987  0.6869  0.2183  0.1920
  752TIP3    H123891   4.636   2.859   1.963 -0.2665  0.4418 -0.0781
  752TIP3    H223892   4.631   2.717   1.911  0.2636  0.4176 -0.0681
  753TIP3   OH223893   5.997   3.666   0.159  0.0034 -0.4041  0.0769
  753TIP3    H123894   5.941   3.601   0.201  0.8699 -1.6321 -0.6008
  753TIP3    H223895   5.937   3.734   0.129 -0.8919 -0.7095  1.0917
  754TIP3   OH223896   1.865   4.395   0.117 -0.2459 -0.3080 -0.0796
  754TIP3    H123897   1.884   4.386   0.024  0.6819 -2.1916  0.2356
  754TIP3    H223898   1.870   4.489   0.134  4.1604 -0.1759 -1.0431
  755TIP3   OH223899   3.773   1.449   2.183  0.3274 -0.6691 -0.3279
  755TIP3    H123900   3.842   1.383   2.172  0.2178 -0.4949 -2.4780
  755TIP3    H223901   3.817   1.532   2.167 -0.3635 -0.5660 -1.8078
  756TIP3   OH223902   6.346   1.410   0.369 -0.7385  0.7384 -0.4059
  756TIP3    H123903   6.380   1.492   0.406  0.5654  0.8262 -1.7401
  756TIP3    H223904   6.275   1.385   0.429 -1.1607  2.8223  0.0487
  757TIP3   OH223905   2.121   0.675   3.157  0.3326  0.3336 -0.1480
  757TIP3    H123906   2.144   0.693   3.248 -1.4960  0.7491  0.2790
  757TIP3    H223907   2.096   0.582   3.156 -0.0997  0.4480 -0.1190
  758TIP3   OH223908   0.879   3.987   2.874  0.4483  0.5970 -0.3706
  758TIP3    H123909   0.923   3.956   2.953 -0.2375  1.5375  0.4102
  758TIP3    H223910   0.834   3.910   2.840  3.2305 -0.6264 -1.6555
  759TIP3   OH223911   0.655   6.651   2.217  0.2305  0.0412  0.0707
  759TIP3    H123912   0.585   6.662   2.153 -0.6249 -1.7117  0.6422
  759TIP3    H223913   0.652   6.558   2.241  2.5098 -0.0162  0.4143
  760TIP3   OH223914   0.926   3.382   1.819 -0.2198  0.0123 -0.4605
  760TIP3    H123915   0.916   3.403   1.726 -1.1018  0.9717 -0.1798
  760TIP3    H223916   1.004   3.430   1.847  0.5903 -1.0118 -0.8850
  761TIP3   OH223917   3.570   1.942   1.629 -0.1359 -0.0272  0.1485
  761TIP3    H123918   3.547   1.930   1.721 -0.2350 -1.3300 -0.0268
  761TIP3    H223919   3.495   1.908   1.581  0.0232  0.4088 -0.4207
  762TIP3   OH223920   1.450   5.972   3.043  0.0013 -0.1394  0.0998
  762TIP3    H123921   1.505   6.004   3.114  1.8843  0.2893 -1.4640
  762TIP3    H223922   1.510   5.927   2.984 -1.2231  0.6610 -1.8756
  763TIP3   OH223923   0.794   4.907   0.147 -0.3234  0.1642 -0.3307
  763TIP3    H123924   0.813   4.867   0.062  1.1161  0.2487 -0.0774
  763TIP3    H223925   0.817   4.839   0.211 -0.1408  0.5620  0.0299
  764TIP3   OH223926   4.679   0.785   3.164  0.1174 -0.6089 -0.2066
  764TIP3    H123927   4.635   0.790   3.249  0.2365 -0.4738 -0.1528
  764TIP3    H223928   4.722   0.699   3.164  1.8588  0.2029  0.7303
  765TIP3   OH223929   6.060   0.242   1.944 -0.4705 -0.0429  0.2867
  765TIP3    H123930   6.129   0.307   1.956 -0.2645 -0.1594 -0.2566
  765TIP3    H223931   6.107   0.159   1.934 -0.5656  0.1245 -2.0522
  766TIP3   OH223932   4.263   3.591   0.631  0.2098 -0.1437 -0.1044
  766TIP3    H123933   4.210   3.655   0.583 -1.4622 -1.1368  0.3436
  766TIP3    H223934   4.304   3.538   0.563  1.7786  1.4851 -0.4856
  767TIP3   OH223935   3.272   1.182   4.014 -0.1805  0.1822  0.1318
  767TIP3    H123936   3.351   1.231   4.034 -0.2633  0.9071 -1.1706
  767TIP3    H223937   3.211   1.247   3.980 -0.5386 -0.7008 -1.0029
  768TIP3   OH223938   6.050   4.563   2.666  0.7410 -0.2469  0.1630
  768TIP3    H123939   6.101   4.545   2.745  1.2600  0.1384 -0.0798
  768TIP3    H223940   6.111   4.548   2.594  0.9972  1.7268 -0.0908
  769TIP3   OH223941   2.759   0.208   4.104  0.2970 -0.1684  0.2227
  769TIP3    H123942   2.711   0.227   4.184  0.3485 -1.0361  0.4712
  769TIP3    H223943   2.817   0.283   4.092  0.3241 -0.0578  1.0184
  770TIP3   OH223944   1.658   1.368   2.078  0.0191  0.2308  0.1110
  770TIP3    H123945   1.705   1.292   2.111  0.1527 -0.1708 -0.9795
  770TIP3    H223946   1.624   1.411   2.157 -1.2303 -1.6920  0.6701
  771TIP3   OH223947   1.637   5.577   1.916  0.8229  0.3026  0.2918
  771TIP3    H123948   1.680   5.570   1.831 -0.3911 -0.5106 -0.2794
  771TIP3    H223949   1.693   5.527   1.975  0.4388 -1.2049 -0.5508
  772TIP3   OH223950   5.595   2.716   2.371  0.1481  0.4941 -0.0811
  772TIP3    H123951   5.586   2.760   2.456  2.6469  3.2210 -1.0508
  772TIP3    H223952   5.674   2.662   2.381 -0.5702 -0.5856 -0.1588
  773TIP3   OH223953   3.700   1.693   2.816  0.1492 -0.1742  0.6375
  773TIP3    H123954   3.676   1.691   2.723  2.3821 -0.2326 -0.0071
  773TIP3    H223955   3.667   1.777   2.847 -1.3256 -0.4951  0.0278
  774TIP3   OH223956   5.750   4.902   1.200 -0.1564 -0.4034 -0.2724
  774TIP3    H123957   5.807   4.954   1.144 -2.1932  3.0973  0.5988
  774TIP3    H223958   5.806   4.832   1.234  2.1724 -0.1990 -3.3248
  775TIP3   OH223959   5.787   4.067   4.263  0.2669 -0.4895 -1.2077
  775TIP3    H123960   5.774   4.126   4.189 -1.4040  0.3372 -0.2938
  775TIP3    H223961   5.742   3.986   4.237 -1.0077  0.0715 -0.7957
  776TIP3   OH223962   5.155   1.636   1.584  0.3501 -0.4814  0.0783
  776TIP3    H123963   5.168   1.687   1.664  1.5894  1.0156 -1.0195
  776TIP3    H223964   5.066   1.603   1.591  0.3019 -0.0973  1.8964
  777TIP3   OH223965   5.865   4.141   4.001 -0.5430 -0.0009  0.1715
  777TIP3    H123966   5.907   4.105   3.923 -0.9885  1.0812 -0.5939
  777TIP3    H223967   5.840   4.230   3.976  0.5464  0.8807  1.9977
  778TIP3   OH223968   4.886   5.717   1.415 -0.2422  0.3817  0.6630
  778TIP3    H123969   4.927   5.741   1.332 -0.9599  1.4752  0.6077
  778TIP3    H223970   4.937   5.642   1.446  0.3689  0.2941 -0.4969
  779TIP3   OH223971   2.083   4.163   2.734  0.1758  0.1165  0.7229
  779TIP3    H123972   2.174   4.156   2.760  0.0572 -1.7452  0.8169
  779TIP3    H223973   2.081   4.234   2.669  1.7206  0.0126  0.5246
  780TIP3   OH223974   4.742   6.445   8.444 -0.2922 -0.3395  0.2485
  780TIP3    H123975   4.753   6.540   8.441 -1.0950 -0.2300  0.5380
  780TIP3    H223976   4.704   6.422   8.360 -0.3784 -0.3663  0.2942
  781TIP3   OH223977   2.756   3.514   7.779 -0.2154  0.4138  0.4527
  781TIP3    H123978   2.808   3.458   7.836 -0.6002 -1.2890 -0.7753
  781TIP3    H223979   2.759   3.600   7.820  2.0719 -0.0299  1.3533
  782TIP3   OH223980   2.684   3.423   2.637 -0.4600 -0.4893  0.1164
  782TIP3    H123981   2.648   3.359   2.576  1.4168 -0.7588 -0.7792
  782TIP3    H223982   2.644   3.506   2.612  0.6249 -0.5090 -1.8496
  783TIP3   OH223983   6.059   3.793   1.909  0.5227  0.1842  0.1282
  783TIP3    H123984   6.100   3.788   1.822 -0.6332  1.2735 -0.5121
  783TIP3    H223985   6.075   3.883   1.938 -0.6632  0.3861  0.2182
  784TIP3   OH223986   1.474   5.667   0.453 -0.1081 -0.2568 -0.0289
  784TIP3    H123987   1.501   5.756   0.429 -0.6126 -0.1441 -0.2057
  784TIP3    H223988   1.388   5.657   0.411 -0.4732 -0.4890  0.7601
  785TIP3   OH223989   4.310   0.248   2.799 -0.2807  0.3799  0.1663
  785TIP3    H123990   4.321   0.233   2.705 -1.0715  0.3370  0.0717
  785TIP3    H223991   4.394   0.282   2.828  0.4006 -0.8734 -0.2987
  786TIP3   OH223992   3.124   0.587   2.213  0.0653 -0.5832 -0.7163
  786TIP3    H123993   3.068   0.616   2.285  1.5635 -0.0777  0.2805
  786TIP3    H223994   3.108   0.651   2.143 -0.1677 -0.1052 -0.2325
  787TIP3   OH223995   6.052   4.355   3.030  0.2562  0.2609  0.0957
  787TIP3    H123996   6.074   4.280   3.085 -1.4237  1.1576  2.1211
  787TIP3    H223997   6.024   4.316   2.947 -0.4002 -1.3511  1.0280
  788TIP3   OH223998   0.675   0.552   8.621 -0.5829  0.2211  0.3642
  788TIP3    H123999   0.611   0.588   8.559  0.2831  1.1333 -0.0257
  788TIP3    H224000   0.643   0.580   8.707 -1.9653 -1.3157  0.4038
  789TIP3   OH224001   2.305   6.809   0.540 -0.3355 -0.2052  0.1708
  789TIP3    H124002   2.319   6.886   0.486  1.9587 -1.7762 -1.7206
  789TIP3    H224003   2.284   6.843   0.627  1.9465  2.5693 -0.2293
  790TIP3   OH224004   5.241   0.822   8.364 -0.4039 -0.4679 -0.6017
  790TIP3    H124005   5.277   0.857   8.283 -1.1004 -0.0337 -0.7357
  790TIP3    H224006   5.155   0.864   8.373  1.0866  2.4108  2.2678
  791TIP3   OH224007   3.591   1.863   1.903 -0.0220  0.1012 -0.4803
  791TIP3    H124008   3.516   1.827   1.952 -0.5016 -0.3004 -1.4853
  791TIP3    H224009   3.618   1.939   1.954  0.4632 -1.1563  1.2336
  792TIP3   OH224010   6.160   0.849   2.693  0.3650 -0.2523 -0.9093
  792TIP3    H124011   6.229   0.840   2.627  0.6772  0.6448 -0.7227
  792TIP3    H224012   6.155   0.763   2.734  1.2190 -0.3954 -1.0873
  793TIP3   OH224013   5.202   4.857   4.325  0.5698 -0.0671  0.0777
  793TIP3    H124014   5.113   4.864   4.288  0.4339 -0.8228  0.2419
  793TIP3    H224015   5.246   4.936   4.295  0.9186 -1.2780 -2.9436
  794TIP3   OH224016   5.834   1.566   0.991 -0.5514 -0.3163 -0.5259
  794TIP3    H124017   5.780   1.593   1.066 -0.5458  1.8624 -1.2455
  794TIP3    H224018   5.771   1.535   0.926 -0.6945 -0.5694 -0.2682
  795TIP3   OH224019   3.354   1.221   3.013  0.2045 -0.6632  0.2348
  795TIP3    H124020   3.365   1.273   3.092 -0.8454  0.1005 -0.1079
  795TIP3    H224021   3.283   1.161   3.032 -0.1795 -0.3502 -0.1820
  796TIP3   OH224022   2.480   6.238   0.565 -0.3488 -0.1374 -0.6905
  796TIP3    H124023   2.414   6.170   0.567  0.3753 -0.8495 -0.1867
  796TIP3    H224024   2.444   6.306   0.508 -1.5185 -0.4832 -0.3726
  797TIP3   OH224025   6.063   6.755   0.524  0.2301  0.2949 -0.4068
  797TIP3    H124026   6.013   6.751   0.443 -0.7717 -2.0929  0.2346
  797TIP3    H224027   5.996   6.763   0.592  0.9856  1.0465  0.2749
  798TIP3   OH224028   4.517   3.489   2.122  0.1999 -0.0279 -0.1280
  798TIP3    H124029   4.524   3.540   2.203 -1.1425 -1.3469  0.8727
  798TIP3    H224030   4.544   3.550   2.054 -0.6429  1.8209  1.0861
  799TIP3   OH224031   2.882   5.823   8.395  0.2836  0.0703 -0.5590
  799TIP3    H124032   2.941   5.750   8.379 -0.2952 -0.6282  0.4452
  799TIP3    H224033   2.816   5.816   8.325  1.4827  1.0178 -1.8562
  800TIP3   OH224034   3.160   6.306   1.022  0.2668  0.2672 -0.9708
  800TIP3    H124035   3.130   6.383   0.974  0.2621  1.4924  0.9007
  800TIP3    H224036   3.235   6.337   1.072  0.0894 -0.8664  0.0426
  801TIP3   OH224037   4.760   4.827   4.057 -0.0268  0.0398 -0.0662
  801TIP3    H124038   4.725   4.739   4.045 -0.1217 -0.0982  1.1149
  801TIP3    H224039   4.700   4.884   4.008  0.7993 -0.6511 -1.9990
  802TIP3   OH224040   2.242   6.121   3.479 -0.1261  0.4233  0.8494
  802TIP3    H124041   2.243   6.140   3.385  0.3162  2.8193  1.2772
  802TIP3    H224042   2.335   6.119   3.504 -0.1711  3.6990  1.8298
  803TIP3   OH224043   3.085   3.225   8.411 -0.4898 -0.0295  0.0873
  803TIP3    H124044   3.157   3.210   8.350  0.9928  2.6674  0.9868
  803TIP3    H224045   3.012   3.255   8.357 -0.2458 -0.6761 -0.6134
  804TIP3   OH224046   2.122   4.562   2.401 -0.1319  0.4249 -0.8463
  804TIP3    H124047   2.063   4.614   2.457  0.6059 -0.8925  1.2969
  804TIP3    H224048   2.082   4.475   2.400 -0.3085  0.4954 -2.7413
  805TIP3   OH224049   0.243   0.894   3.002  0.0546 -0.4397 -0.3156
  805TIP3    H124050   0.204   0.982   3.005  0.2752 -0.3685  1.9350
  805TIP3    H224051   0.301   0.897   2.925 -0.7449  1.0211 -0.9075
  806TIP3   OH224052   4.930   0.544   8.451 -0.4938  0.7151  0.1754
  806TIP3    H124053   4.883   0.481   8.396 -0.9849  0.6725  0.6312
  806TIP3    H224054   4.883   0.626   8.439 -1.2395  0.4841  1.2838
  807TIP3   OH224055   1.450   6.307   0.404  0.1508 -0.5444  0.9129
  807TIP3    H124056   1.523   6.325   0.345 -1.3982 -0.8064 -1.1813
  807TIP3    H224057   1.425   6.392   0.439  0.1127 -0.1536 -0.0396
  808TIP3   OH224058   0.745   0.809   3.696  0.7435 -0.0646  0.5521
  808TIP3    H124059   0.822   0.825   3.641 -0.0759  1.2277 -0.2927
  808TIP3    H224060   0.780   0.798   3.784  1.9636 -0.4966  0.0325
  809TIP3   OH224061   4.768   2.705   3.060 -0.6128  0.4716 -0.4434
  809TIP3    H124062   4.837   2.770   3.075 -0.9722  0.5675  0.8599
  809TIP3    H224063   4.749   2.712   2.966 -0.8559  2.4795 -0.2893
  810TIP3   OH224064   3.138   1.340   0.807 -0.4394  0.0238  0.2928
  810TIP3    H124065   3.115   1.310   0.895 -1.6249  0.7441  0.2608
  810TIP3    H224066   3.064   1.312   0.753 -0.0463  0.1912 -0.3413
  811TIP3   OH224067   1.519   1.612   1.120  0.2421 -0.4474 -0.2379
  811TIP3    H124068   1.480   1.557   1.189 -0.8358  0.4269 -0.1206
  811TIP3    H224069   1.446   1.665   1.087  1.4434  1.7255  0.4072
  812TIP3   OH224070   4.157   4.487   8.414  0.4539  0.1228 -0.5759
  812TIP3    H124071   4.195   4.516   8.331 -0.1393 -0.0460 -0.9110
  812TIP3    H224072   4.131   4.569   8.458  2.0770  0.3112  0.1060
  813TIP3   OH224073   0.363   0.360   1.660  0.4421 -0.2008  0.1360
  813TIP3    H124074   0.414   0.286   1.627  3.1096  2.1484 -1.5245
  813TIP3    H224075   0.423   0.405   1.720 -0.8086  1.0701  0.4817
  814TIP3   OH224076   6.597   1.436   8.240 -0.1598  0.5167 -0.0239
  814TIP3    H124077   6.544   1.503   8.197  0.6740  1.4042  0.2939
  814TIP3    H224078   6.669   1.420   8.180 -0.1913  0.1163  0.0415
  815TIP3   OH224079   1.237   3.096   2.843  0.2749  0.3162 -0.1182
  815TIP3    H124080   1.213   3.183   2.813 -1.6085  0.8137  2.4766
  815TIP3    H224081   1.161   3.041   2.823  0.7116 -0.3192 -0.0829
  816TIP3   OH224082   4.770   2.894   3.765  0.3305  0.3125  0.4554
  816TIP3    H124083   4.684   2.876   3.804  0.0485 -0.8525 -0.6169
  816TIP3    H224084   4.750   2.936   3.681  0.6482 -1.9985 -0.8649
  817TIP3   OH224085   5.633   6.806   2.921 -0.2858 -0.2277 -0.0373
  817TIP3    H124086   5.549   6.830   2.881 -0.7265 -0.8623  0.4843
  817TIP3    H224087   5.619   6.819   3.015  0.4546  0.4043 -0.0111
  818TIP3   OH224088   3.223   5.964   3.017  0.0759 -0.7552 -0.7586
  818TIP3    H124089   3.168   5.985   2.942 -0.9068 -0.2283  0.0697
  818TIP3    H224090   3.194   5.876   3.044 -0.9260 -0.1840  0.1216
  819TIP3   OH224091   6.104   2.576   8.048  0.5767 -0.3512  0.2654
  819TIP3    H124092   6.176   2.577   7.985 -0.1400 -1.3335 -0.6012
  819TIP3    H224093   6.052   2.653   8.024 -0.8413 -1.8480 -1.7817
  820TIP3   OH224094   1.635   6.212   4.208  0.1534  0.2736 -0.1754
  820TIP3    H124095   1.560   6.268   4.189 -0.2296 -0.2885 -0.3324
  820TIP3    H224096   1.665   6.241   4.294 -0.6450  0.0717  0.1807
  821TIP3   OH224097   5.096   2.048   0.894 -0.2872  0.1432 -0.2350
  821TIP3    H124098   5.052   2.097   0.825 -1.6912  4.2285  3.1372
  821TIP3    H224099   5.054   2.077   0.975  2.4008 -2.9156  2.5537
  822TIP3   OH224100   4.433   4.344   0.656  0.4192 -0.1974  0.2847
  822TIP3    H124101   4.422   4.342   0.752 -1.2425  1.2066  0.1759
  822TIP3    H224102   4.404   4.257   0.627  1.8642 -0.9873  1.0988
  823TIP3   OH224103   0.245   4.237   0.751 -0.5514  0.4335 -0.0798
  823TIP3    H124104   0.181   4.308   0.751 -1.0971  0.0100  1.9919
  823TIP3    H224105   0.322   4.273   0.707 -1.2132  1.9100 -0.0651
  824TIP3   OH224106   2.682   6.828   1.110 -0.3565  0.5479 -0.1023
  824TIP3    H124107   2.617   6.870   1.166  0.4346  0.3954  0.9616
  824TIP3    H224108   2.746   6.792   1.171 -0.4699 -1.3273 -1.0214
  825TIP3   OH224109   0.186   1.888   3.065  0.4174  0.1403 -0.6690
  825TIP3    H124110   0.131   1.930   3.132 -0.3771 -1.2391 -0.4201
  825TIP3    H224111   0.154   1.923   2.982 -0.5147 -0.2637 -0.4925
  826TIP3   OH224112   3.677   4.050   2.193 -0.5717  0.6471 -0.7258
  826TIP3    H124113   3.752   4.082   2.244 -1.3964  2.2859 -0.4754
  826TIP3    H224114   3.659   3.963   2.229  1.5178 -0.0156 -1.1480
  827TIP3   OH224115   0.119   5.289   1.161  0.1789  0.2041  0.0649
  827TIP3    H124116   0.139   5.331   1.078 -1.5382 -1.5575 -1.3542
  827TIP3    H224117   0.101   5.198   1.138 -0.2382 -0.3859  2.4065
  828TIP3   OH224118   1.513   0.860   8.697  0.3077  0.0753  0.4733
  828TIP3    H124119   1.471   0.908   8.768 -1.2132  2.2676 -1.7350
  828TIP3    H224120   1.457   0.877   8.621  3.1742 -0.0179 -1.8289
  829TIP3   OH224121   1.371   1.085   1.142  0.0135  0.2058 -0.2840
  829TIP3    H124122   1.412   0.999   1.135  0.1299  0.0585  1.6661
  829TIP3    H224123   1.444   1.146   1.154 -0.1687  0.2110  1.0048
  830TIP3   OH224124   6.812   6.848   2.704  0.3705  0.3526  0.0931
  830TIP3    H124125   6.735   6.903   2.714 -0.2680 -0.4978 -0.0002
  830TIP3    H224126   6.783   6.761   2.733  1.3355  0.0522  0.2032
  831TIP3   OH224127   3.992   2.410   8.570 -0.3305 -0.2709 -0.9234
  831TIP3    H124128   3.990   2.468   8.494 -1.5915 -2.3827 -2.6166
  831TIP3    H224129   3.900   2.394   8.591 -0.0236  0.4428  1.2767
  832TIP3   OH224130   5.679   6.631   8.051  0.2565  0.2477 -1.0830
  832TIP3    H124131   5.642   6.571   8.116 -0.2045 -0.8662 -2.3262
  832TIP3    H224132   5.670   6.717   8.091  0.4071 -0.4299  0.5118
  833TIP3   OH224133   6.471   4.316   3.025  0.0639 -0.4570 -0.2234
  833TIP3    H124134   6.559   4.326   3.063  0.0577 -0.7116 -0.1370
  833TIP3    H224135   6.441   4.231   3.057 -0.2838 -0.2950 -0.1203
  834TIP3   OH224136   3.142   2.067   3.690 -0.3729 -0.6117 -0.3781
  834TIP3    H124137   3.120   2.090   3.780 -0.8240  2.3298 -1.1469
  834TIP3    H224138   3.059   2.037   3.652 -0.4522 -0.6473 -0.1790
  835TIP3   OH224139   3.375   3.045   4.066  0.1981  0.2884 -0.6130
  835TIP3    H124140   3.360   2.996   3.986  1.1855  1.4624 -1.5583
  835TIP3    H224141   3.470   3.043   4.078  0.0955  0.4395  0.3320
  836TIP3   OH224142   2.592   6.202   2.649 -0.0305  0.0456  0.4991
  836TIP3    H124143   2.523   6.238   2.593 -0.0498 -0.8371 -0.0604
  836TIP3    H224144   2.546   6.169   2.726 -0.4027 -1.5187 -0.3458
  837TIP3   OH224145   4.661   5.504   3.636 -0.2088  0.3132 -0.0842
  837TIP3    H124146   4.595   5.571   3.619 -0.8478 -0.6063 -1.3842
  837TIP3    H224147   4.736   5.553   3.671 -0.1717  1.9049 -2.1662
  838TIP3   OH224148   4.177   0.508   0.193 -0.2107  0.1759 -0.5636
  838TIP3    H124149   4.193   0.511   0.098 -1.7875  1.2727 -0.8482
  838TIP3    H224150   4.203   0.420   0.219  1.6051  0.3214 -1.7430
  839TIP3   OH224151   0.886   1.645   3.197  0.0367 -0.0894  0.1000
  839TIP3    H124152   0.845   1.688   3.272 -0.7274  1.4411 -1.1230
  839TIP3    H224153   0.974   1.624   3.226  0.1190  1.4628  1.0875
  840TIP3   OH224154   6.224   1.300   1.700  0.4611  0.1775  0.1645
  840TIP3    H124155   6.286   1.279   1.631  2.2689 -1.2909  2.1019
  840TIP3    H224156   6.164   1.225   1.702 -0.1227  0.6152 -0.3148
  841TIP3   OH224157   5.055   4.696   0.727 -0.1547 -0.2890 -0.2490
  841TIP3    H124158   4.964   4.725   0.714  0.2678  0.5864 -1.4822
  841TIP3    H224159   5.100   4.724   0.647  1.2209 -0.6504  0.3764
  842TIP3   OH224160   1.641   1.590   0.340 -0.2574 -0.5224  0.1340
  842TIP3    H124161   1.696   1.516   0.366  0.1474  0.6778  3.1894
  842TIP3    H224162   1.567   1.586   0.402 -0.3269  1.4572  0.2295
  843TIP3   OH224163   0.447   1.607   0.554  0.1798  0.1198 -0.1607
  843TIP3    H124164   0.455   1.702   0.541  0.9916  0.3486  1.6173
  843TIP3    H224165   0.537   1.576   0.558  0.1452  0.0156  3.4656
  844TIP3   OH224166   3.728   4.028   2.865 -0.2605  0.2267 -0.0538
  844TIP3    H124167   3.809   4.052   2.910 -0.7042  0.8029  0.4529
  844TIP3    H224168   3.694   3.953   2.914  0.5654 -0.7901 -0.9847
  845TIP3   OH224169   4.595   6.027   0.888  0.1794  0.1072  0.0468
  845TIP3    H124170   4.546   6.014   0.970  0.5828 -1.2220  0.1119
  845TIP3    H224171   4.608   5.938   0.855  1.1820  0.5483 -0.7737
  846TIP3   OH224172   5.404   5.448   4.111 -0.1683 -0.2354  0.0588
  846TIP3    H124173   5.401   5.361   4.071  2.0166 -0.4459  0.1955
  846TIP3    H224174   5.497   5.471   4.111 -0.5448  1.5423  1.2426
  847TIP3   OH224175   5.119   6.316   1.095  0.4014 -0.0870  0.6030
  847TIP3    H124176   5.049   6.279   1.041 -0.4117  0.2510  1.3869
  847TIP3    H224177   5.078   6.390   1.140  1.2047 -0.0088  1.2345
  848TIP3   OH224178   1.495   1.906   3.004  0.2842  0.4750 -0.5260
  848TIP3    H124179   1.444   1.837   2.963  0.9571  0.3389 -1.1483
  848TIP3    H224180   1.445   1.986   2.987 -1.8341 -0.0805  2.3578
  849TIP3   OH224181   0.709   0.033   3.247  0.1375  0.0812  0.1108
  849TIP3    H124182   0.766   0.108   3.230  2.1934 -1.1824  1.0357
  849TIP3    H224183   0.733   0.005   3.336 -0.0125 -2.1244 -0.4918
  850TIP3   OH224184   2.913   6.600   2.334 -0.2846  0.3538  0.6240
  850TIP3    H124185   2.819   6.601   2.321 -0.1921  0.8948 -0.0522
  850TIP3    H224186   2.929   6.523   2.389 -1.2976  1.1491  2.1286
  851TIP3   OH224187   4.426   0.879   1.125 -0.1867  0.4877  0.9492
  851TIP3    H124188   4.436   0.907   1.034 -1.8066 -0.8575  0.3139
  851TIP3    H224189   4.515   0.886   1.162  0.9065 -0.7064 -1.2688
  852TIP3   OH224190   1.680   3.882   1.931 -0.3596  0.1426 -0.0019
  852TIP3    H124191   1.629   3.804   1.910 -0.9013  0.1760  1.0902
  852TIP3    H224192   1.639   3.953   1.881 -0.6491 -0.0476 -0.0360
  853TIP3   OH224193   4.831   4.009   1.381 -0.9497  0.2716  0.1333
  853TIP3    H124194   4.865   3.920   1.368  0.5707  0.7403  0.7138
  853TIP3    H224195   4.859   4.057   1.304 -2.5902  0.0617 -0.6454
  854TIP3   OH224196   3.954   6.411   1.406 -0.0057 -0.5354  0.5397
  854TIP3    H124197   4.013   6.469   1.357 -0.9202 -1.6104 -1.9994
  854TIP3    H224198   3.969   6.324   1.369 -2.6608 -0.9580  0.2343
  855TIP3   OH224199   1.419   6.880   0.610 -0.2495  0.1041  0.2328
  855TIP3    H124200   1.386   6.896   0.521  0.8186  1.3022  0.0286
  855TIP3    H224201   1.494   6.822   0.598  0.4918  1.0480  0.2463
  856TIP3   OH224202   1.129   0.484   2.580  0.2112  0.2445 -0.3412
  856TIP3    H124203   1.174   0.400   2.588  1.4032  0.8190 -0.8089
  856TIP3    H224204   1.110   0.509   2.670 -1.0833 -0.9924 -0.2370
  857TIP3   OH224205   6.866   4.595   3.530  0.3078 -0.0796 -0.5152
  857TIP3    H124206   6.816   4.676   3.523  1.3294  0.6112 -0.0126
  857TIP3    H224207   6.806   4.534   3.573 -0.8029  0.0943 -1.7402
  858TIP3   OH224208   4.666   6.046   1.662  0.5088  0.7010  0.3669
  858TIP3    H124209   4.585   6.072   1.619 -0.2828 -0.7227  0.9285
  858TIP3    H224210   4.668   5.951   1.655  1.3957  0.5899  1.6624
  859TIP3   OH224211   2.113   2.697   0.084 -0.4026  0.4112 -0.9267
  859TIP3    H124212   2.064   2.642   0.023 -1.2232 -0.8668  0.8287
  859TIP3    H224213   2.108   2.652   0.168  2.1554  1.2348 -0.2188
  860TIP3   OH224214   0.753   1.061   0.899  0.1335 -0.2216 -0.1589
  860TIP3    H124215   0.659   1.075   0.906  0.1293 -0.7088  0.9299
  860TIP3    H224216   0.766   0.969   0.923  1.0594  0.3211  1.6495
  861TIP3   OH224217   1.429   1.806   2.630 -0.6662 -0.1911 -0.1641
  861TIP3    H124218   1.398   1.729   2.583 -1.3100  0.0932 -0.2097
  861TIP3    H224219   1.396   1.795   2.719 -2.5602  1.0280 -0.6607
  862TIP3   OH224220   2.801   4.725   2.620 -0.1569  0.1009  0.2384
  862TIP3    H124221   2.722   4.774   2.593 -1.8180 -2.1137  0.8162
  862TIP3    H224222   2.785   4.704   2.712  0.4569 -1.5539 -0.0125
  863TIP3   OH224223   5.194   6.622   1.803  0.4418 -0.4385  0.1713
  863TIP3    H124224   5.101   6.643   1.796 -0.0414 -2.8321 -2.8876
  863TIP3    H224225   5.230   6.689   1.861 -3.2429  0.2266  1.9344
  864TIP3   OH224226   0.197   2.516   0.822  0.0522 -0.0682  0.2931
  864TIP3    H124227   0.275   2.497   0.769  1.2569  0.6749  1.7220
  864TIP3    H224228   0.156   2.430   0.835  1.7019 -0.7838  1.0839
  865TIP3   OH224229   5.349   1.924   1.302  0.2641 -0.0719 -0.4158
  865TIP3    H124230   5.294   1.878   1.239  1.5054  0.4326 -1.9409
  865TIP3    H224231   5.349   1.868   1.380  1.2570 -2.4013 -1.9736
  866TIP3   OH224232   4.432   1.351   1.037 -0.1994 -0.3471 -0.4037
  866TIP3    H124233   4.416   1.361   1.131  0.4052 -1.3700 -0.1851
  866TIP3    H224234   4.457   1.439   1.008  2.1334 -0.5076  0.8926
  867TIP3   OH224235   6.134   6.069   1.858 -0.0967  0.3136 -0.1518
  867TIP3    H124236   6.167   6.126   1.927  0.0341 -1.0978  1.0008
  867TIP3    H224237   6.202   6.071   1.790  0.7882  0.0379  0.7110
  868TIP3   OH224238   2.557   0.507   2.131 -0.6429  0.0323 -0.7139
  868TIP3    H124239   2.520   0.486   2.217 -2.5953 -2.5993 -2.0836
  868TIP3    H224240   2.647   0.476   2.136 -0.3643  0.9303  0.6802
  869TIP3   OH224241   6.348   1.934   2.114 -0.2592  0.5546 -0.1604
  869TIP3    H124242   6.397   1.876   2.056  2.7897 -0.7440  3.3080
  869TIP3    H224243   6.265   1.889   2.129  0.8764 -1.5325  0.2056
  870TIP3   OH224244   4.389   2.253   2.465  0.4312  0.2145  0.2439
  870TIP3    H124245   4.451   2.259   2.538  0.1687  1.1822  0.3938
  870TIP3    H224246   4.373   2.343   2.439 -0.7285 -0.0329  0.0401
  871TIP3   OH224247   0.447   0.858   0.893 -0.2886  0.5378 -0.7451
  871TIP3    H124248   0.358   0.832   0.866 -1.0145  0.3549  1.5872
  871TIP3    H224249   0.461   0.943   0.851 -2.2219  1.3181  0.0814
  872TIP3   OH224250   3.319   5.800   1.696 -0.0310  0.6323 -0.4051
  872TIP3    H124251   3.265   5.834   1.767  0.3001  2.5089 -0.9752
  872TIP3    H224252   3.260   5.747   1.643 -0.3544 -0.5236  1.0668
  873TIP3   OH224253   5.163   1.552   0.315  0.9688 -0.1016 -0.0588
  873TIP3    H124254   5.155   1.503   0.233  0.1862 -0.5678  0.2877
  873TIP3    H224255   5.214   1.495   0.372  1.0946  0.0142 -0.0538
  874TIP3   OH224256   4.321   2.384   2.810 -0.0802  0.7106  0.4828
  874TIP3    H124257   4.247   2.329   2.836  1.0585 -0.8106  0.5834
  874TIP3    H224258   4.325   2.452   2.877 -2.0811  1.5406 -0.1552
  875TIP3   OH224259   6.443   6.829   3.737  0.0931  0.1376 -0.3179
  875TIP3    H124260   6.399   6.819   3.821 -1.2220  1.4000 -0.8101
  875TIP3    H224261   6.533   6.801   3.753 -0.3138 -0.3204  1.3139
  876TIP3   OH224262   6.383   1.114   0.179  0.6784  0.4545 -0.3942
  876TIP3    H124263   6.366   1.090   0.270  0.9578  0.9973 -0.1933
  876TIP3    H224264   6.408   1.032   0.137 -0.4940  0.0070 -0.2370
  877TIP3   OH224265   4.261   3.413   3.631 -0.0406 -0.0907  0.3489
  877TIP3    H124266   4.347   3.441   3.661  0.9269 -0.4467 -1.8844
  877TIP3    H224267   4.257   3.442   3.540 -1.8279 -1.0721  0.0694
  878TIP3   OH224268   1.857   6.049   8.574  0.0771 -0.1976  0.4122
  878TIP3    H124269   1.922   6.001   8.523  1.8096  1.1723  1.2129
  878TIP3    H224270   1.867   6.140   8.547 -0.6311  0.2128  1.4514
  879TIP3   OH224271   1.643   5.751   2.163 -0.3513  0.2633  0.3825
  879TIP3    H124272   1.552   5.754   2.132 -0.8633  0.1285  1.8089
  879TIP3    H224273   1.689   5.699   2.097 -1.0980  1.0766 -0.8319
  880TIP3   OH224274   6.236   3.575   1.687 -0.3603 -0.3563  0.5597
  880TIP3    H124275   6.192   3.625   1.618 -1.6897 -0.0307  1.6119
  880TIP3    H224276   6.317   3.623   1.703 -0.2741 -0.1517 -0.4153
  881TIP3   OH224277   0.340   2.841   2.011 -0.7594 -0.4277 -0.1583
  881TIP3    H124278   0.307   2.796   1.933 -1.3899  0.1517 -0.2310
  881TIP3    H224279   0.317   2.933   1.997 -1.2136 -0.3720  0.8918
  882TIP3   OH224280   0.943   5.504   1.170 -0.5869  0.7602  0.0464
  882TIP3    H124281   0.862   5.548   1.145 -0.2273  1.4152 -0.0141
  882TIP3    H224282   0.995   5.501   1.089 -1.1782 -1.1164 -0.3079
  883TIP3   OH224283   4.880   3.296   1.030 -0.6354  0.0511 -0.5865
  883TIP3    H124284   4.948   3.277   0.965 -1.6318  0.8689 -1.9097
  883TIP3    H224285   4.800   3.305   0.980 -1.2606  1.7591  0.6220
  884TIP3   OH224286   5.392   2.954   3.447  0.3835 -0.1467 -0.0449
  884TIP3    H124287   5.465   2.975   3.388  1.1881 -1.1314  0.5642
  884TIP3    H224288   5.415   2.998   3.529 -0.6268  1.0411 -0.3633
  885TIP3   OH224289   3.452   2.871   0.896  0.4596  0.5356 -0.7221
  885TIP3    H124290   3.419   2.783   0.913  0.8011  0.4097 -0.7003
  885TIP3    H224291   3.545   2.858   0.877  0.7211  0.9873  0.1891
  886TIP3   OH224292   3.448   4.833   8.410  0.0117  0.9655 -0.0017
  886TIP3    H124293   3.440   4.925   8.437  1.6475  1.0012  0.4802
  886TIP3    H224294   3.501   4.793   8.479  0.8199  0.0860 -1.0980
  887TIP3   OH224295   2.664   0.069   3.280  0.0501  0.0325  0.2651
  887TIP3    H124296   2.682   0.083   3.373  0.9798  0.7875 -0.0163
  887TIP3    H224297   2.630   0.153   3.249 -0.4381 -0.2718 -0.0465
  888TIP3   OH224298   1.868   5.804   1.868 -0.6373  0.2996  0.5048
  888TIP3    H124299   1.773   5.806   1.857 -0.4077  1.4433 -1.8766
  888TIP3    H224300   1.883   5.834   1.957 -2.5204 -0.6347  1.1823
  889TIP3   OH224301   6.683   2.431   3.243  0.3577 -0.6005  0.0914
  889TIP3    H124302   6.755   2.373   3.217  0.3690 -0.1341 -0.9705
  889TIP3    H224303   6.716   2.519   3.229 -0.7062 -0.3759 -1.3309
  890TIP3   OH224304   0.687   1.827   7.560 -0.3143 -0.2023 -0.1836
  890TIP3    H124305   0.706   1.738   7.529 -1.3139  0.2829 -2.4330
  890TIP3    H224306   0.759   1.880   7.526 -0.8367  0.1695 -0.7383
  891TIP3   OH224307   3.785   5.090   2.331  0.3338  0.0568 -0.7463
  891TIP3    H124308   3.775   5.150   2.405  1.1293  0.7547 -1.1892
  891TIP3    H224309   3.703   5.040   2.329  0.1931  0.2257  0.4262
  892TIP3   OH224310   1.045   5.070   3.439 -0.0077  0.2635 -0.4974
  892TIP3    H124311   1.016   4.986   3.402  0.2495  0.0802 -0.2778
  892TIP3    H224312   0.978   5.092   3.504  0.9386 -0.7379  0.8539
  893TIP3   OH224313   3.919   0.068   1.310 -0.2918  0.4875  0.4400
  893TIP3    H124314   3.998   0.048   1.259 -0.5827  0.6305 -0.0724
  893TIP3    H224315   3.852   0.009   1.276 -0.1427 -0.4073  1.6236
  894TIP3   OH224316   0.189   1.723   0.149  0.3623  0.2590  0.1211
  894TIP3    H124317   0.186   1.630   0.173  2.1565 -0.2694 -1.5048
  894TIP3    H224318   0.253   1.761   0.209  1.6248 -0.1543 -0.9242
  895TIP3   OH224319   2.275   3.092   3.099  0.0666 -0.5434  0.8011
  895TIP3    H124320   2.234   3.145   3.166 -0.1393  0.1152  0.1643
  895TIP3    H224321   2.233   3.119   3.017  1.2653 -0.3569  0.2296
  896TIP3   OH224322   5.439   6.821   2.343  0.5834  0.1562  0.5318
  896TIP3    H124323   5.387   6.790   2.269  0.5702  0.3636  0.4529
  896TIP3    H224324   5.396   6.784   2.420  0.4228  0.1835  0.4562
  897TIP3   OH224325   5.989   0.557   2.421 -0.2737 -0.3592  0.0202
  897TIP3    H124326   6.074   0.599   2.413 -0.1192 -0.8520 -1.0179
  897TIP3    H224327   5.999   0.473   2.377 -1.7638  0.2681 -1.6230
  898TIP3   OH224328   4.117   4.966   0.957  0.2224  0.0175 -0.3145
  898TIP3    H124329   4.025   4.959   0.981  0.0737  1.5997 -0.3388
  898TIP3    H224330   4.119   5.030   0.886  1.3121 -0.2238 -0.5277
  899TIP3   OH224331   3.413   3.553   8.055 -0.0640 -0.1368 -0.1123
  899TIP3    H124332   3.359   3.572   7.978 -0.1426  0.5818  0.1146
  899TIP3    H224333   3.479   3.491   8.022  0.3079  0.6688 -0.9244
  900TIP3   OH224334   0.522   1.505   2.341 -0.1058 -0.0338  0.0886
  900TIP3    H124335   0.513   1.575   2.277 -3.4974 -1.1100 -0.8200
  900TIP3    H224336   0.613   1.477   2.334  0.3026  1.6630 -2.3412
  901TIP3   OH224337   1.675   6.141   1.614 -0.0633 -0.3731  0.0550
  901TIP3    H124338   1.740   6.084   1.572 -0.8757  0.0641 -1.9284
  901TIP3    H224339   1.599   6.139   1.555 -0.0541  2.9181 -0.2628
  902TIP3   OH224340   1.078   3.032   7.815  0.1197 -0.0705  0.1332
  902TIP3    H124341   1.138   3.093   7.858 -0.5198  1.6060 -1.2056
  902TIP3    H224342   1.034   3.086   7.749 -1.7033 -1.6135  0.0113
  903TIP3   OH224343   2.168   5.637   8.640  0.5597 -0.5749  0.2934
  903TIP3    H124344   2.098   5.579   8.668  0.6654 -0.9602 -0.2199
  903TIP3    H224345   2.223   5.582   8.584  0.5108  0.0787 -0.4179
  904TIP3   OH224346   3.276   4.992   3.772  0.1088 -0.1378 -0.3153
  904TIP3    H124347   3.209   4.960   3.833 -0.1902 -0.3005 -0.7176
  904TIP3    H224348   3.234   4.984   3.686  0.2242  0.8576 -0.4719
  905TIP3   OH224349   6.358   1.839   1.622 -0.2433 -0.0873 -0.4064
  905TIP3    H124350   6.411   1.782   1.567  0.3311 -2.0601  2.0475
  905TIP3    H224351   6.278   1.855   1.570  0.8853 -0.5452 -2.3923
  906TIP3   OH224352   5.376   0.441   2.920 -0.4410 -0.4063  0.4577
  906TIP3    H124353   5.312   0.467   2.987 -0.4000 -1.6079  1.0059
  906TIP3    H224354   5.435   0.381   2.966  0.7399  0.2241 -0.1947
  907TIP3   OH224355   0.080   0.431   3.024 -0.2012 -0.2939  0.0486
  907TIP3    H124356  -0.004   0.470   3.052 -1.1211 -0.3407 -2.4235
  907TIP3    H224357   0.144   0.499   3.044 -1.2060  0.8327 -0.3805
  908TIP3   OH224358   4.862   6.284   2.506 -0.1688  0.5454 -0.1026
  908TIP3    H124359   4.861   6.315   2.415 -1.0646  0.6495 -0.0606
  908TIP3    H224360   4.939   6.227   2.511  0.4426  1.3094 -0.6687
  909TIP3   OH224361   3.898   2.449   1.067  0.3843 -0.3564  0.1058
  909TIP3    H124362   3.864   2.430   0.979  0.9018  0.9732 -0.4069
  909TIP3    H224363   3.955   2.374   1.086  0.7145 -0.3957 -0.9380
  910TIP3   OH224364   1.956   0.946   3.367  0.4607 -0.1067 -0.3404
  910TIP3    H124365   1.975   0.944   3.461 -1.3571  1.6772  0.1413
  910TIP3    H224366   1.918   0.860   3.348  1.0909 -0.5797  0.4991
  911TIP3   OH224367   0.815   2.964   0.151 -0.2158 -0.0325 -0.0254
  911TIP3    H124368   0.759   2.963   0.073  0.5842 -1.0235 -0.6144
  911TIP3    H224369   0.815   3.055   0.179 -1.1843  0.1985 -0.6965
  912TIP3   OH224370   2.675   5.740   2.629  0.0654 -0.6644  0.3749
  912TIP3    H124371   2.695   5.651   2.599 -0.1398 -0.7933  0.6110
  912TIP3    H224372   2.628   5.780   2.556  1.6419 -0.1691 -0.4095
  913TIP3   OH224373   3.883   5.776   0.053  0.0136 -0.5459 -0.7980
  913TIP3    H124374   3.926   5.694   0.078 -0.3866 -1.1743 -2.0763
  913TIP3    H224375   3.790   5.760   0.068 -0.1053 -0.4811 -1.4544
  914TIP3   OH224376   2.161   2.710   3.482  0.1888  0.1549  0.0727
  914TIP3    H124377   2.237   2.673   3.525 -1.1449 -0.5426  1.9364
  914TIP3    H224378   2.126   2.774   3.544 -0.3843  0.9670 -1.0302
  915TIP3   OH224379   6.506   3.592   8.268  0.4652  0.0761 -0.1888
  915TIP3    H124380   6.471   3.511   8.231 -1.7246  1.6977 -1.9078
  915TIP3    H224381   6.601   3.581   8.263  0.2386 -1.8916 -1.4809
  916TIP3   OH224382   3.889   1.957   1.857 -0.3926 -0.4768 -0.1620
  916TIP3    H124383   3.874   1.961   1.952 -2.5534  0.1931 -0.4895
  916TIP3    H224384   3.939   1.876   1.845  0.0936 -0.4862  1.5495
  917TIP3   OH224385   1.598   6.470   8.389  0.4162  0.0397 -0.7307
  917TIP3    H124386   1.570   6.416   8.315  1.6529 -0.1020 -1.1170
  917TIP3    H224387   1.669   6.524   8.354  1.4279 -0.4548  0.4801
  918TIP3   OH224388   3.595   5.728   3.581  0.4184 -0.1751  0.1923
  918TIP3    H124389   3.531   5.729   3.510 -0.9052  0.4373  1.3415
  918TIP3    H224390   3.572   5.650   3.632  0.3457  0.2260  0.7903
  919TIP3   OH224391   5.413   0.542   0.888 -0.0916  0.2467  0.5256
  919TIP3    H124392   5.492   0.526   0.939 -0.1050  0.5582  0.6514
  919TIP3    H224393   5.365   0.459   0.890 -0.0650  0.2376  0.9758
  920TIP3   OH224394   0.931   6.802   3.398 -0.6989  0.0902  0.2365
  920TIP3    H124395   0.878   6.724   3.417  0.0319 -0.8036 -1.2673
  920TIP3    H224396   0.950   6.796   3.305  0.2198  1.5534  0.3063
  921TIP3   OH224397   6.237   0.622   7.942 -0.5634 -0.2692 -0.6882
  921TIP3    H124398   6.218   0.604   8.035 -0.8781  0.1395 -0.6689
  921TIP3    H224399   6.330   0.642   7.940 -0.7146  0.5125 -0.3275
  922TIP3   OH224400   6.682   6.128   2.862 -0.0393 -0.2836 -0.0910
  922TIP3    H124401   6.615   6.189   2.830 -0.6518 -0.5216  0.6920
  922TIP3    H224402   6.697   6.069   2.788 -0.4316 -0.0058 -0.4011
  923TIP3   OH224403   3.774   6.037   0.048 -0.2177  0.0254  0.4027
  923TIP3    H124404   3.807   6.116   0.089 -0.1151  0.7967 -1.0855
  923TIP3    H224405   3.839   5.970   0.068 -0.4557  0.2313  1.9234
  924TIP3   OH224406   4.106   0.456   1.232 -0.8061  0.0729  0.2413
  924TIP3    H124407   4.041   0.388   1.216  1.1081 -1.9680  0.6124
  924TIP3    H224408   4.149   0.430   1.314  0.9019  0.9498 -0.3078
  925TIP3   OH224409   2.540   4.769   2.921  0.3239 -0.0113 -0.3936
  925TIP3    H124410   2.508   4.783   2.832 -0.3613  1.1547  0.0170
  925TIP3    H224411   2.636   4.775   2.914  0.2597  0.3509 -1.0068
  926TIP3   OH224412   5.514   0.163   8.197 -0.1738 -0.6079 -0.0172
  926TIP3    H124413   5.542   0.253   8.212  0.3704 -0.6299 -0.8201
  926TIP3    H224414   5.481   0.163   8.107  1.3421 -1.5440 -0.6143
  927TIP3   OH224415   1.037   2.933   8.636  0.2406  0.1137 -0.0205
  927TIP3    H124416   0.986   2.866   8.589  0.0571 -1.2060  1.9221
  927TIP3    H224417   0.971   2.992   8.673  0.4184  1.7882 -2.1707
  928TIP3   OH224418   5.048   2.772   3.632 -0.2727 -0.1541  0.3092
  928TIP3    H124419   5.008   2.824   3.563  0.5713  0.5811  0.3590
  928TIP3    H224420   4.975   2.724   3.672 -1.3312  2.1141  1.2601
  929TIP3   OH224421   4.679   1.945   1.516  0.4677 -0.2612 -0.4431
  929TIP3    H124422   4.587   1.970   1.522  0.1416 -1.5233  0.1313
  929TIP3    H224423   4.727   2.019   1.553 -0.3892 -0.0636  0.2966
  930TIP3   OH224424   4.696   1.655   4.000  0.2458  0.0921 -0.2173
  930TIP3    H124425   4.782   1.695   3.993  1.0267 -1.4508 -0.0397
  930TIP3    H224426   4.714   1.562   4.017 -1.4476 -0.0126  1.3550
  931TIP3   OH224427   4.245   6.021   2.940  0.1225  0.4032  0.1947
  931TIP3    H124428   4.199   6.081   2.882  1.2052  1.4564  0.3643
  931TIP3    H224429   4.199   6.029   3.024 -0.5412 -0.0112 -0.1223
  932TIP3   OH224430   6.722   2.059   0.451 -0.0986 -0.2318 -0.0333
  932TIP3    H124431   6.665   2.115   0.503  0.8178 -1.3169  2.2867
  932TIP3    H224432   6.671   1.979   0.437 -0.5071  0.2170 -1.2615
  933TIP3   OH224433   0.867   2.164   0.700 -0.8225  0.0010  0.6003
  933TIP3    H124434   0.879   2.169   0.605  1.2262 -0.4003  0.7747
  933TIP3    H224435   0.773   2.176   0.714 -1.7172 -3.0471 -1.7089
  934TIP3   OH224436   4.671   1.827   4.279  0.0709 -0.3757 -0.0365
  934TIP3    H124437   4.744   1.842   4.219 -0.0011 -3.1813 -0.9761
  934TIP3    H224438   4.609   1.897   4.260  0.9601 -0.0081 -1.8016
  935TIP3   OH224439   4.180   6.292   0.071 -0.2892  0.0006 -0.4120
  935TIP3    H124440   4.220   6.371   0.107  2.6400 -1.2642 -0.5881
  935TIP3    H224441   4.186   6.303  -0.024  0.2870 -0.4835 -0.4378
  936TIP3   OH224442   5.005   2.220   2.446  0.2288 -0.4394 -0.2777
  936TIP3    H124443   4.922   2.246   2.485 -0.4210 -1.4172 -0.9329
  936TIP3    H224444   5.049   2.169   2.514  0.8196  0.9947  0.4603
  937TIP3   OH224445   2.914   6.493   7.864  0.5196 -0.3081 -0.0664
  937TIP3    H124446   2.864   6.411   7.856  0.9503 -0.5472 -0.3717
  937TIP3    H224447   2.851   6.561   7.840  0.5658 -0.6754 -1.3221
  938TIP3   OH224448   3.645   6.591   1.046 -0.3001 -0.0833  0.8232
  938TIP3    H124449   3.650   6.515   1.104 -0.4707  0.8583  2.1323
  938TIP3    H224450   3.579   6.568   0.981  1.2138 -1.9088 -0.1694
  939TIP3   OH224451   3.297   4.451   2.175  0.0653  0.2885  0.0064
  939TIP3    H124452   3.364   4.519   2.168  1.0705 -0.5662  0.9714
  939TIP3    H224453   3.329   4.392   2.242 -0.2682 -1.7265 -1.5097
  940TIP3   OH224454   6.622   1.383   0.209 -0.2928  0.3198 -0.0694
  940TIP3    H124455   6.674   1.462   0.200  1.0338 -0.5309 -0.1588
  940TIP3    H224456   6.658   1.322   0.144 -1.5177 -0.2422 -0.2574
  941TIP3   OH224457   5.290   1.985   3.233  0.2391 -0.1342  0.3752
  941TIP3    H124458   5.237   2.040   3.291  0.1945  0.4483 -0.2012
  941TIP3    H224459   5.351   1.940   3.291 -0.8948 -0.8374  1.0594
  942TIP3   OH224460   4.521   3.008   0.085  0.2338 -0.3488 -0.1137
  942TIP3    H124461   4.442   3.056   0.062 -0.0275 -1.4718 -1.6889
  942TIP3    H224462   4.499   2.916   0.070  0.4254 -1.1753  3.5869
  943TIP3   OH224463   0.992   6.817   8.404  0.4009 -0.0948  0.0802
  943TIP3    H124464   0.943   6.857   8.476  0.2494  3.5781 -1.8308
  943TIP3    H224465   0.925   6.780   8.347  0.3533 -0.7456  0.5454
  944TIP3   OH224466   1.819   3.615   2.877  0.0333  0.0748  0.1512
  944TIP3    H124467   1.726   3.638   2.878  0.4774  2.4586 -2.1723
  944TIP3    H224468   1.863   3.693   2.912  1.1527 -1.5447  2.5554
  945TIP3   OH224469   0.070   0.184   0.148 -0.3700  0.3239  0.4226
  945TIP3    H124470   0.007   0.210   0.081  1.1590  1.6115 -0.5693
  945TIP3    H224471   0.055   0.245   0.221 -0.0231  0.8842  0.0302
  946TIP3   OH224472   3.184   4.281   0.034 -0.2288  0.4175  0.2283
  946TIP3    H124473   3.160   4.206  -0.019  1.0837  0.7342 -0.8576
  946TIP3    H224474   3.259   4.252   0.085 -1.0469  0.3382  1.4209
  947TIP3   OH224475   0.368   6.050   3.273  0.2571  0.3965  0.4096
  947TIP3    H124476   0.448   6.097   3.251 -0.5084  0.6143 -2.2941
  947TIP3    H224477   0.398   5.964   3.302  1.4819  0.6766  0.0369
  948TIP3   OH224478   1.440   4.871   3.615  0.4679 -0.1062 -0.0377
  948TIP3    H124479   1.463   4.921   3.694  2.3317  0.4202 -0.8592
  948TIP3    H224480   1.448   4.780   3.642  1.3916  0.0690  0.3355
  949TIP3   OH224481   3.432   4.340   0.575 -0.3152  0.1710 -0.3939
  949TIP3    H124482   3.371   4.341   0.502 -1.4016 -0.6719  0.4560
  949TIP3    H224483   3.448   4.247   0.592  0.1430  0.3588  0.2597
  950TIP3   OH224484   6.578   0.441   0.194 -0.0941 -0.0488 -0.5263
  950TIP3    H124485   6.542   0.448   0.105 -1.5323 -0.0336  0.0274
  950TIP3    H224486   6.578   0.347   0.212  0.4874 -0.0735 -0.6542
  951TIP3   OH224487   6.716   2.693   3.155  0.2548  0.3215  0.4109
  951TIP3    H124488   6.668   2.663   3.078  2.1850 -0.3663 -0.5937
  951TIP3    H224489   6.701   2.787   3.159 -1.8691  0.0095  0.6774
  952TIP3   OH224490   4.101   2.326   2.328  0.9948  0.1400  0.4359
  952TIP3    H124491   4.159   2.387   2.374  1.9734  1.5733 -2.4385
  952TIP3    H224492   4.082   2.369   2.245 -2.2162 -1.4365  0.1817
  953TIP3   OH224493   4.077   0.758   3.791 -0.1274 -0.6149 -0.5774
  953TIP3    H124494   4.083   0.687   3.726 -0.2514 -1.2529  0.0873
  953TIP3    H224495   3.992   0.744   3.833 -0.2947  0.1374 -0.6620
  954TIP3   OH224496   2.934   5.728   2.253  0.2564  0.0885 -0.0851
  954TIP3    H124497   2.888   5.676   2.319  0.7641  1.4984  1.4534
  954TIP3    H224498   2.879   5.804   2.240 -0.1154 -0.4430 -1.7616
  955TIP3   OH224499   0.619   1.321   1.227 -0.5047 -0.0288  0.3084
  955TIP3    H124500   0.656   1.241   1.264  0.5597  0.1730 -0.2995
  955TIP3    H224501   0.654   1.326   1.138 -1.4563  0.5301 -0.0498
  956TIP3   OH224502   3.506   3.795   0.598  0.4684  0.3937 -0.0425
  956TIP3    H124503   3.598   3.788   0.626  0.0729  1.3519  1.6278
  956TIP3    H224504   3.511   3.806   0.503  2.0342 -0.4491 -0.0882
  957TIP3   OH224505   6.050   1.938   3.940  0.4445  0.1089 -0.4757
  957TIP3    H124506   6.011   1.894   3.865  0.4611  0.9587 -0.9909
  957TIP3    H224507   6.132   1.892   3.956 -0.2800 -1.0628 -0.0038
  958TIP3   OH224508   2.327   4.634   0.794  0.1146  0.1449 -0.0616
  958TIP3    H124509   2.416   4.646   0.825 -0.6679 -0.7138  2.7736
  958TIP3    H224510   2.274   4.694   0.846 -1.2061 -0.8235 -0.2068
  959TIP3   OH224511   2.796   3.674   2.370  0.0460 -0.7673 -0.4641
  959TIP3    H124512   2.715   3.630   2.396 -0.3020 -0.6076 -1.2286
  959TIP3    H224513   2.773   3.767   2.368  0.8039 -0.5217  1.2342
  960TIP3   OH224514   4.945   3.867   0.878  0.0234  0.2879 -0.1578
  960TIP3    H124515   5.040   3.860   0.873 -0.1385 -2.3997 -0.8728
  960TIP3    H224516   4.913   3.800   0.818 -2.3068  0.2534  1.0255
  961TIP3   OH224517   6.206   1.908   3.031 -0.1710  0.1754  0.4582
  961TIP3    H124518   6.205   1.970   2.959 -2.2972  2.4054  2.2463
  961TIP3    H224519   6.299   1.895   3.050  0.3899  3.2660  0.3432
  962TIP3   OH224520   2.014   3.806   2.969  0.1245 -0.2652 -0.1486
  962TIP3    H124521   2.063   3.731   2.934 -1.0672 -1.0315 -0.2107
  962TIP3    H224522   2.065   3.834   3.046 -0.0236 -1.8856  0.5745
  963TIP3   OH224523   5.492   3.636   1.891  0.0855 -0.0887  0.5659
  963TIP3    H124524   5.564   3.593   1.937  0.9556 -1.2366 -1.7336
  963TIP3    H224525   5.506   3.729   1.908  1.8930 -0.3138  0.5328
  964TIP3   OH224526   0.793   2.318   4.301  0.7883  0.6826  0.1242
  964TIP3    H124527   0.717   2.348   4.250  0.3697  1.0953  0.9804
  964TIP3    H224528   0.758   2.246   4.354  0.8833  1.1679  0.8519
  965TIP3   OH224529   6.498   4.672   0.315  0.3060 -0.1922 -0.2792
  965TIP3    H124530   6.411   4.706   0.339  0.9848  0.7500  0.9573
  965TIP3    H224531   6.533   4.637   0.397  1.7160  0.8652 -0.3993
  966TIP3   OH224532   2.627   4.283   1.107  0.2412 -0.2512  0.2000
  966TIP3    H124533   2.695   4.218   1.090  0.2025 -0.1543 -0.3374
  966TIP3    H224534   2.604   4.270   1.199 -0.6804 -1.8785 -0.2098
  967TIP3   OH224535   5.042   1.110   2.886 -0.4188  0.1352  0.2437
  967TIP3    H124536   4.957   1.120   2.844  0.0003  0.0505 -0.6583
  967TIP3    H224537   5.085   1.195   2.875 -0.8959  0.6259  1.9172
  968TIP3   OH224538   3.053   6.849   0.140  0.0797 -0.3756  0.2440
  968TIP3    H124539   3.076   6.906   0.066 -0.0697 -1.0240 -0.3102
  968TIP3    H224540   2.958   6.840   0.135  0.2085 -1.4965 -0.2860
  969TIP3   OH224541   6.101   3.498   2.520 -0.7813 -0.0224  0.2101
  969TIP3    H124542   6.074   3.431   2.457  2.0079 -0.6595 -0.4496
  969TIP3    H224543   6.188   3.524   2.491 -0.8259  2.2313  1.8294
  970TIP3   OH224544   4.342   4.051   4.048 -0.4651  0.0680 -0.0979
  970TIP3    H124545   4.312   3.975   3.998 -1.3074  1.0032 -1.0525
  970TIP3    H224546   4.341   4.022   4.139  0.3327 -1.4201 -0.5258
  971TIP3   OH224547   5.887   4.752   1.674  0.3362 -0.0396 -0.2789
  971TIP3    H124548   5.927   4.834   1.704 -0.8819  0.3900  0.2446
  971TIP3    H224549   5.875   4.765   1.580 -2.3761  1.5896  0.1832
  972TIP3   OH224550   3.188   5.710   0.731  0.1176  0.2173 -0.7370
  972TIP3    H124551   3.250   5.755   0.788 -0.9770  1.0217 -0.1373
  972TIP3    H224552   3.217   5.619   0.733  1.1263  0.5263 -0.2777
  973TIP3   OH224553   0.121   4.440   1.764  0.0583 -0.7049  0.2475
  973TIP3    H124554   0.047   4.487   1.801 -0.0964 -0.7457 -0.0050
  973TIP3    H224555   0.152   4.383   1.834  1.0777  0.7231  0.9970
  974TIP3   OH224556   5.982   2.690   8.286 -0.5672 -0.0669  0.0270
  974TIP3    H124557   6.033   2.640   8.222  1.1310 -0.4745  1.6211
  974TIP3    H224558   5.979   2.779   8.252  2.6891  0.3752  0.6254
  975TIP3   OH224559   1.844   0.544   1.176 -0.0676 -0.2738  0.1264
  975TIP3    H124560   1.786   0.594   1.233 -0.1563  0.1450 -0.3269
  975TIP3    H224561   1.808   0.455   1.176 -0.1037 -0.2596  0.6652
  976TIP3   OH224562   3.013   1.814   8.449 -0.2403 -0.2256 -0.5588
  976TIP3    H124563   2.973   1.829   8.363  0.9418  0.4593 -0.9992
  976TIP3    H224564   3.106   1.806   8.432  0.0818  0.5076  0.7398
  977TIP3   OH224565   3.493   1.003   0.766 -0.1757  0.5101  0.8949
  977TIP3    H124566   3.564   1.044   0.717  0.0299  0.1106  0.8584
  977TIP3    H224567   3.524   0.915   0.786 -1.4539 -0.4280 -0.9536
  978TIP3   OH224568   3.129   1.500   3.050 -0.2665  0.1665  0.2625
  978TIP3    H124569   3.073   1.430   3.017  0.1845 -0.0394 -0.0834
  978TIP3    H224570   3.211   1.489   3.003  0.0342  0.5211  0.6915
  979TIP3   OH224571   2.125   0.787   1.523  0.0009  0.2181  0.2393
  979TIP3    H124572   2.092   0.706   1.484 -0.3893  0.3868  0.2207
  979TIP3    H224573   2.058   0.852   1.504  0.9063  0.8610 -0.8938
  980TIP3   OH224574   1.186   6.162   1.424 -0.3830  0.0483 -0.1185
  980TIP3    H124575   1.233   6.099   1.370  0.6866  0.7085  0.0101
  980TIP3    H224576   1.120   6.110   1.470  0.3309 -0.9372 -0.1791
  981TIP3   OH224577   2.869   3.341   0.151  0.1392  0.2399  0.4695
  981TIP3    H124578   2.887   3.421   0.102 -1.0168 -0.0414 -0.4548
  981TIP3    H224579   2.935   3.278   0.121  1.3432  0.9391  1.5310
  982TIP3   OH224580   0.924   0.835   3.049 -0.3326  0.2036  0.1785
  982TIP3    H124581   1.002   0.891   3.044 -0.1771 -0.0565 -0.4899
  982TIP3    H224582   0.956   0.748   3.027 -0.4208 -0.3310  2.0080
  983TIP3   OH224583   0.736   2.914   2.957 -0.5820  0.5367 -0.3550
  983TIP3    H124584   0.827   2.935   2.979 -0.2825 -0.3692 -0.6628
  983TIP3    H224585   0.727   2.942   2.866 -1.1495  2.2352  0.2028
  984TIP3   OH224586   6.878   3.258   1.017  0.0491 -0.6107  0.6202
  984TIP3    H124587   6.814   3.304   1.071  1.4713  1.0188  1.0165
  984TIP3    H224588   6.960   3.263   1.066  0.8298 -1.3064 -0.5476
  985TIP3   OH224589   2.219   4.040   0.578 -0.5094  0.3739 -0.2171
  985TIP3    H124590   2.197   3.980   0.648  2.8158 -2.6348 -1.4559
  985TIP3    H224591   2.166   4.012   0.503 -1.0260  0.9094 -0.0660
  986TIP3   OH224592   0.397   4.674   1.324 -0.2934  0.2879 -0.0861
  986TIP3    H124593   0.381   4.761   1.359  0.6731  0.6189 -0.4485
  986TIP3    H224594   0.426   4.622   1.398 -0.9848  0.2288  0.1541
  987TIP3   OH224595   3.096   3.307   2.112  0.2515 -0.8719 -0.3924
  987TIP3    H124596   3.073   3.362   2.187  1.4612 -0.1036 -0.5482
  987TIP3    H224597   3.189   3.288   2.125  0.6204 -0.2852 -1.9568
  988TIP3   OH224598   5.537   4.567   1.061  0.0099  0.2914  0.2290
  988TIP3    H124599   5.541   4.620   0.982  1.2381  2.2583  1.5251
  988TIP3    H224600   5.459   4.514   1.051  1.0436 -0.8264 -3.0617
  989TIP3   OH224601   2.086   2.636   2.724  0.3087  0.0684  0.2442
  989TIP3    H124602   2.029   2.708   2.749  0.1454 -0.1839  0.6028
  989TIP3    H224603   2.171   2.658   2.764  0.4119  0.3387 -0.1157
  990TIP3   OH224604   6.589   2.159   0.010 -0.1979 -0.6086  0.1407
  990TIP3    H124605   6.649   2.191   0.077 -0.6865 -0.1782  0.3757
  990TIP3    H224606   6.507   2.144   0.056 -0.7565  0.4009 -0.4886
  991TIP3   OH224607   0.559   4.533   1.506 -0.0727 -0.3990  0.4283
  991TIP3    H124608   0.530   4.548   1.596  0.0611  0.2303  0.3767
  991TIP3    H224609   0.644   4.578   1.501 -1.1060  1.5820 -0.6419
  992TIP3   OH224610   5.058   0.846   0.392 -0.6753 -0.2575  0.4991
  992TIP3    H124611   5.005   0.907   0.443 -0.3781  0.4463 -0.0181
  992TIP3    H224612   4.993   0.788   0.351 -1.0107  0.1676  0.4154
  993TIP3   OH224613   3.613   1.219   2.112  0.4937 -0.0975  0.3392
  993TIP3    H124614   3.648   1.304   2.139  1.1901 -0.1709 -0.2975
  993TIP3    H224615   3.519   1.227   2.126  0.6221  0.5421  0.9246
  994TIP3   OH224616   0.093   5.460   0.491  0.4644 -0.4240 -0.7968
  994TIP3    H124617   0.178   5.439   0.528  0.3020  1.7713  1.0190
  994TIP3    H224618   0.037   5.386   0.515  1.5201 -1.2724 -0.8877
  995TIP3   OH224619   5.977   3.209   1.456  0.5486  0.4323  0.0276
  995TIP3    H124620   5.989   3.122   1.494 -0.2633  0.0699 -0.5130
  995TIP3    H224621   6.059   3.226   1.410  0.3671 -0.4576 -0.6480
  996TIP3   OH224622   2.523   6.101   3.502  0.3175  0.1585 -0.2603
  996TIP3    H124623   2.552   6.190   3.522 -1.7414  0.7823  0.1667
  996TIP3    H224624   2.505   6.062   3.587 -0.8997  0.0985 -0.5357
  997TIP3   OH224625   1.947   6.493   0.684  0.1448  0.5584 -0.0316
  997TIP3    H124626   1.989   6.549   0.619 -1.1626  2.1076  0.4079
  997TIP3    H224627   1.900   6.428   0.631 -1.5880  2.2910 -0.7534
  998TIP3   OH224628   0.719   0.254   8.641  0.4789 -0.1634  0.1559
  998TIP3    H124629   0.656   0.296   8.700  0.3435 -1.2718  0.8148
  998TIP3    H224630   0.699   0.292   8.555 -0.0662  0.6336  0.6141
  999TIP3   OH224631   5.618   1.541   0.821  0.1533  0.3672 -0.8272
  999TIP3    H124632   5.613   1.536   0.725 -0.7583  3.6399 -1.0682
  999TIP3    H224633   5.550   1.604   0.845  2.0837  1.6629  1.7270
 1000TIP3   OH224634   4.018   3.953   2.702 -0.9210 -0.8410 -0.3335
 1000TIP3    H124635   4.045   3.992   2.785 -0.6697  0.5335 -1.0399
 1000TIP3    H224636   4.081   3.986   2.638 -1.3976 -1.4977 -1.1662
 1001TIP3   OH224637   2.861   2.257   0.737 -0.3265 -0.0804 -0.0709
 1001TIP3    H124638   2.800   2.330   0.741  0.9551  1.1567 -1.6108
 1001TIP3    H224639   2.864   2.233   0.644  1.4622 -0.0969 -0.0520
 1002TIP3   OH224640   0.925   5.383   8.004 -0.6752  0.1981  0.1204
 1002TIP3    H124641   0.830   5.373   7.990 -0.6469 -0.2264  0.2256
 1002TIP3    H224642   0.956   5.294   8.020 -0.5149  0.5214  1.7580
 1003TIP3   OH224643   0.162   5.598   1.709 -0.1321  0.3885 -0.0463
 1003TIP3    H124644   0.159   5.663   1.640 -1.3560  0.1165 -0.2625
 1003TIP3    H224645   0.244   5.551   1.695 -0.7666 -0.2387 -1.8491
 1004TIP3   OH224646   3.686   0.204   1.507  0.1337  0.1558 -0.1425
 1004TIP3    H124647   3.642   0.128   1.470  1.5793 -1.2952  0.9436
 1004TIP3    H224648   3.701   0.181   1.598 -0.8544  2.4748  0.6947
 1005TIP3   OH224649   3.712   6.839   0.319  0.0995 -0.4013  0.2107
 1005TIP3    H124650   3.655   6.762   0.317  0.7683 -0.9657  1.5635
 1005TIP3    H224651   3.653   6.913   0.332 -0.5199 -0.7049 -0.7835
 1006TIP3   OH224652   5.563   3.929   1.942 -0.2955 -0.4061 -0.5088
 1006TIP3    H124653   5.589   4.021   1.948 -0.4593 -0.3095 -1.2513
 1006TIP3    H224654   5.612   3.886   2.012  0.0761  0.1819 -0.4028
 1007TIP3   OH224655   1.152   1.501   0.879  0.2202 -0.0798  0.6932
 1007TIP3    H124656   1.084   1.563   0.856  0.5572  0.2067  0.4513
 1007TIP3    H224657   1.229   1.556   0.898  0.2376 -0.3652  1.4799
 1008TIP3   OH224658   3.228   1.333   2.033 -0.9143  0.2300 -0.2723
 1008TIP3    H124659   3.322   1.323   2.019 -0.4176  1.5959  1.6324
 1008TIP3    H224660   3.199   1.392   1.963 -0.2168  0.3951 -0.4262
 1009TIP3   OH224661   4.354   4.799   0.843 -0.2015  0.0721  0.3809
 1009TIP3    H124662   4.442   4.824   0.816 -0.6601  2.7491  0.9926
 1009TIP3    H224663   4.365   4.762   0.931  0.2977  0.9424  0.7033
 1010TIP3   OH224664   1.419   3.905   2.698  0.1980 -0.2038 -0.2828
 1010TIP3    H124665   1.465   3.985   2.720  0.2524 -0.4919  0.7003
 1010TIP3    H224666   1.443   3.887   2.607  0.0659  0.9607 -0.5641
 1011TIP3   OH224667   2.622   0.905   1.070  0.2122  0.5147 -0.0422
 1011TIP3    H124668   2.712   0.936   1.081  0.7644 -0.9197 -0.3143
 1011TIP3    H224669   2.627   0.811   1.084 -1.7164  0.6941  2.6838
 1012TIP3   OH224670   6.639   5.396   3.641  0.0458 -0.0026 -0.0709
 1012TIP3    H124671   6.710   5.430   3.696 -0.5559  1.1893  0.0093
 1012TIP3    H224672   6.591   5.336   3.698 -0.1039  0.6237  0.4876
 1013TIP3   OH224673   6.154   5.425   2.346  0.5797 -0.0158 -0.0376
 1013TIP3    H124674   6.248   5.437   2.349  0.8146 -1.8373  0.8491
 1013TIP3    H224675   6.141   5.330   2.346 -1.2656  0.1869  0.5452
 1014TIP3   OH224676   1.052   5.511   2.754 -0.1512 -0.0592 -0.3797
 1014TIP3    H124677   1.007   5.427   2.749 -0.7211  0.2587 -0.6342
 1014TIP3    H224678   1.004   5.560   2.821 -0.4674  0.4459 -0.9686
 1015TIP3   OH224679   4.680   1.289   0.341 -0.4234  0.7221 -0.3159
 1015TIP3    H124680   4.649   1.334   0.262 -2.3534  0.0170 -0.0047
 1015TIP3    H224681   4.606   1.234   0.368  0.4494  0.4215  1.5964
 1016TIP3   OH224682   6.335   1.540   1.311 -0.2048  0.0133  0.0473
 1016TIP3    H124683   6.397   1.613   1.304  2.7676 -2.3726 -0.6822
 1016TIP3    H224684   6.269   1.571   1.373  0.8836  3.2927 -0.2294
 1017TIP3   OH224685   1.068   1.333   1.859 -0.2828  0.5455  0.1548
 1017TIP3    H124686   0.981   1.325   1.820  0.1263 -0.9511 -0.5265
 1017TIP3    H224687   1.128   1.310   1.789  0.7884  3.0705  0.1710
 1018TIP3   OH224688   3.146   4.623   0.558 -0.7241 -0.4524 -0.2474
 1018TIP3    H124689   3.155   4.685   0.486  1.0666  0.0702  0.3820
 1018TIP3    H224690   3.125   4.540   0.516 -0.3504 -0.0270 -1.3165
 1019TIP3   OH224691   6.263   2.955   2.109 -1.1227 -0.1500  0.6202
 1019TIP3    H124692   6.317   2.877   2.117 -1.4614 -0.4658 -0.0587
 1019TIP3    H224693   6.181   2.933   2.153 -1.3181 -0.2808  0.1979
 1020TIP3   OH224694   1.383   0.663   2.427  0.1844  0.1115  0.1750
 1020TIP3    H124695   1.287   0.669   2.424  0.1951 -0.0466 -1.6442
 1020TIP3    H224696   1.402   0.570   2.413  0.5918 -0.3427  3.1839
 1021TIP3   OH224697   1.336   5.586   8.573  0.0128 -0.3526 -0.2362
 1021TIP3    H124698   1.334   5.681   8.566 -0.8858 -0.3528 -0.0984
 1021TIP3    H224699   1.428   5.563   8.559  0.4301  0.6090  0.7312
 1022TIP3   OH224700   5.887   3.528   3.028 -0.1019 -0.0539  0.2144
 1022TIP3    H124701   5.807   3.477   3.039 -0.0803 -0.1881 -0.2097
 1022TIP3    H224702   5.905   3.523   2.934  0.5485 -0.2557  0.3423
 1023TIP3   OH224703   5.707   3.040   2.606  0.2817  0.1848  0.5878
 1023TIP3    H124704   5.704   3.100   2.680  0.5957 -0.0071  0.7561
 1023TIP3    H224705   5.655   2.965   2.635  0.1337  0.2469  0.4877
 1024TIP3   OH224706   0.635   2.808   1.779 -0.4458 -0.3352  0.0490
 1024TIP3    H124707   0.640   2.797   1.684  1.6486  2.5127 -0.3011
 1024TIP3    H224708   0.554   2.857   1.793 -0.0738  0.4518 -0.4710
 1025TIP3   OH224709   0.621   6.078   8.451  0.6686 -0.0937  0.2490
 1025TIP3    H124710   0.602   6.006   8.392  0.6373  0.7937 -0.8584
 1025TIP3    H224711   0.685   6.042   8.513  0.2462 -1.2118  0.0512
 1026TIP3   OH224712   3.037   2.841   3.533 -0.3869 -0.1657 -0.0483
 1026TIP3    H124713   3.075   2.908   3.589 -1.3991 -0.0807  0.5760
 1026TIP3    H224714   3.029   2.764   3.590  0.5844 -0.7771 -0.7017
 1027TIP3   OH224715   1.954   2.834   3.021  0.2699  0.0774 -0.0637
 1027TIP3    H124716   2.032   2.794   3.059  0.4223  1.9164  1.6957
 1027TIP3    H224717   1.907   2.872   3.095 -0.8014  1.5319 -1.4244
 1028TIP3   OH224718   5.100   4.461   1.145  0.1672  0.1191 -0.5302
 1028TIP3    H124719   5.088   4.367   1.158  1.0503  0.1325  0.5318
 1028TIP3    H224720   5.106   4.472   1.050  1.0997 -1.0319 -0.6230
 1029TIP3   OH224721   2.191   0.249   0.790 -0.0373 -0.1662  0.2620
 1029TIP3    H124722   2.241   0.168   0.779 -0.7197 -0.6116  0.3605
 1029TIP3    H224723   2.116   0.238   0.732  0.2522  0.7265 -0.2927
 1030TIP3   OH224724   5.953   1.224   3.720  0.0420 -0.8839  0.1663
 1030TIP3    H124725   5.975   1.265   3.636 -2.2221  0.3975  0.1067
 1030TIP3    H224726   5.913   1.141   3.696 -0.4870 -0.5764 -0.0312
 1031TIP3   OH224727   1.340   2.111   2.443 -0.3488  0.0088 -0.3368
 1031TIP3    H124728   1.426   2.105   2.484 -0.6492  1.3296  0.5393
 1031TIP3    H224729   1.354   2.082   2.353  0.5075 -2.1483  0.4233
 1032TIP3   OH224730   2.019   6.813   0.280  0.3967 -0.3133 -0.7342
 1032TIP3    H124731   1.955   6.764   0.229  0.3767 -0.1985 -0.8192
 1032TIP3    H224732   2.057   6.875   0.218 -2.3278  2.5441  0.1956
 1033TIP3   OH224733   1.906   4.667   4.144 -0.2297 -0.5064 -0.2203
 1033TIP3    H124734   1.846   4.618   4.087  0.0605 -1.2946  0.1277
 1033TIP3    H224735   1.881   4.641   4.232  0.0553 -0.1585 -0.0350
 1034TIP3   OH224736   6.599   4.977   1.228 -0.2897  0.1390  0.1790
 1034TIP3    H124737   6.672   5.035   1.250  0.4354 -0.5730 -0.3044
 1034TIP3    H224738   6.542   4.980   1.305  0.3328  0.5699  0.6322
 1035TIP3   OH224739   5.949   5.622   1.354 -0.4509  0.4213 -0.1006
 1035TIP3    H124740   5.899   5.625   1.436  0.1882  1.0443  0.2747
 1035TIP3    H224741   5.979   5.531   1.347  0.7871  0.6942  1.1663
 1036TIP3   OH224742   0.668   0.586   2.553 -0.0349  0.2133 -0.3314
 1036TIP3    H124743   0.718   0.505   2.554 -0.2901  0.0395 -1.2134
 1036TIP3    H224744   0.717   0.645   2.611 -0.9817 -1.2138  2.1069
 1037TIP3   OH224745   3.897   4.311   3.935  0.1632 -0.3491  0.1148
 1037TIP3    H124746   3.898   4.280   3.844 -2.3573 -1.6051  0.4438
 1037TIP3    H224747   3.805   4.310   3.960  0.5773  1.8608  2.1067
 1038TIP3   OH224748   5.567   6.673   2.034  0.1155  0.5550 -0.2739
 1038TIP3    H124749   5.503   6.735   1.997 -0.7371 -1.4602 -2.4158
 1038TIP3    H224750   5.641   6.678   1.973 -0.4729 -1.3521 -1.2133
 1039TIP3   OH224751   2.342   1.785   1.621 -0.4672  0.5037  0.0842
 1039TIP3    H124752   2.367   1.843   1.693 -0.7107 -0.1794  0.7338
 1039TIP3    H224753   2.266   1.738   1.654  0.0549 -0.5823 -0.2126
 1040TIP3   OH224754   2.570   6.179   3.185 -0.0673  0.2574  0.2239
 1040TIP3    H124755   2.655   6.209   3.217  0.1963 -0.4347  0.2007
 1040TIP3    H224756   2.508   6.205   3.252  0.0030  1.6890 -0.2392
 1041TIP3   OH224757   4.005   4.651   1.256  0.2544  0.2354  0.5988
 1041TIP3    H124758   4.050   4.567   1.249 -0.1060  0.1583 -1.7655
 1041TIP3    H224759   4.068   4.708   1.299  0.9781 -0.9295  1.1308
 1042TIP3   OH224760   5.838   1.871   0.059 -0.2223 -0.3020  0.2303
 1042TIP3    H124761   5.921   1.841   0.024 -0.5551 -0.6633 -0.2657
 1042TIP3    H224762   5.805   1.797   0.111 -0.4127 -0.3072  0.1051
 1043TIP3   OH224763   6.667   4.712   1.494 -0.4015  0.1232 -0.8002
 1043TIP3    H124764   6.748   4.739   1.450 -0.5526  0.4311 -0.8949
 1043TIP3    H224765   6.622   4.795   1.511 -0.2692  0.0232  0.0744
 1044TIP3   OH224766   5.003   1.838   0.281  0.6861 -0.7606  0.0333
 1044TIP3    H124767   5.060   1.772   0.244  1.1884 -0.1083 -0.3715
 1044TIP3    H224768   4.991   1.811   0.372  2.5277 -0.3423  0.4421
 1045TIP3   OH224769   4.080   1.378   0.551  0.3283 -0.1836 -0.5096
 1045TIP3    H124770   4.126   1.304   0.590 -0.0488  0.0532  0.4174
 1045TIP3    H224771   4.109   1.454   0.602  1.7235  0.5385 -2.2908
 1046TIP3   OH224772   5.475   2.475   3.009  0.5357 -0.0254  0.0137
 1046TIP3    H124773   5.405   2.428   3.053  1.5938 -0.1614  1.6264
 1046TIP3    H224774   5.455   2.568   3.023 -0.4117  0.0002 -1.3402
 1047TIP3   OH224775   0.467   1.313   3.811  0.2726  0.4541 -0.1912
 1047TIP3    H124776   0.376   1.340   3.794  0.4586  1.9667  1.0329
 1047TIP3    H224777   0.519   1.367   3.752  0.4147 -0.2184 -0.6942
 1048TIP3   OH224778   3.356   1.051   1.417 -0.0579 -0.4516  0.3825
 1048TIP3    H124779   3.430   1.102   1.385 -1.1117  1.4083  0.7597
 1048TIP3    H224780   3.294   1.051   1.344 -0.6652  0.0516  0.8913
 1049TIP3   OH224781   3.525   4.895   3.282 -0.4300  0.8794  0.3102
 1049TIP3    H124782   3.445   4.871   3.327  0.1717 -0.2701  0.8192
 1049TIP3    H224783   3.595   4.852   3.331  0.3929  0.8814 -0.7991
 1050TIP3   OH224784   0.263   2.839   2.459 -0.0798 -1.3225  0.0529
 1050TIP3    H124785   0.207   2.780   2.409  0.6000 -1.5570 -0.4381
 1050TIP3    H224786   0.257   2.922   2.412 -1.0048 -0.9874  0.7213
 1051TIP3   OH224787   4.982   0.475   1.632  0.1593 -0.2377 -0.5877
 1051TIP3    H124788   5.071   0.506   1.650 -0.2975  0.3203  0.8348
 1051TIP3    H224789   4.946   0.454   1.718 -1.2883  0.1067 -1.0837
 1052TIP3   OH224790   5.944   1.153   1.106 -0.4372  0.1439 -0.5143
 1052TIP3    H124791   5.931   1.064   1.141 -0.7959 -0.2268 -1.5579
 1052TIP3    H224792   5.942   1.209   1.184  1.4485 -0.9004  0.3474
 1053TIP3   OH224793   4.462   3.245   3.427 -0.2952 -0.5770  0.3914
 1053TIP3    H124794   4.369   3.226   3.433 -0.6443  1.0876  0.7163
 1053TIP3    H224795   4.486   3.276   3.514  0.5327 -0.8348  0.2646
 1054TIP3   OH224796   6.735   3.938   1.257 -0.0967  0.0617 -0.0655
 1054TIP3    H124797   6.823   3.920   1.291 -1.3031 -1.6004  2.4228
 1054TIP3    H224798   6.739   3.911   1.165  1.4746 -1.9368  0.5130
 1055TIP3   OH224799   1.794   5.976   4.120 -0.1883  0.1497  0.2242
 1055TIP3    H124800   1.837   5.957   4.204 -0.8405 -0.0864  0.5102
 1055TIP3    H224801   1.741   6.054   4.137 -0.6881 -0.1747  0.1585
 1056TIP3   OH224802   2.764   2.171   0.249 -0.3520  0.3539 -0.9151
 1056TIP3    H124803   2.763   2.180   0.154 -1.9665 -1.2944 -1.1083
 1056TIP3    H224804   2.752   2.077   0.264 -0.0093  0.5683  0.9159
 1057TIP3   OH224805   6.740   6.697   3.432 -0.0768  0.3925  0.6859
 1057TIP3    H124806   6.702   6.705   3.519 -1.7272  1.9217 -0.1027
 1057TIP3    H224807   6.818   6.752   3.434 -0.3454  0.7650  1.0929
 1058TIP3   OH224808   3.618   2.605   0.728 -0.3833  0.2726  0.0089
 1058TIP3    H124809   3.584   2.550   0.657  0.0480  1.0095 -0.7865
 1058TIP3    H224810   3.560   2.586   0.802 -0.6236 -0.7767 -0.4280
 1059TIP3   OH224811   5.230   5.826   2.909 -0.4928 -0.1861 -0.2624
 1059TIP3    H124812   5.180   5.774   2.845 -3.1989  1.3961  0.3776
 1059TIP3    H224813   5.294   5.873   2.857 -0.0918 -1.7706 -1.2641
 1060TIP3   OH224814   0.083   5.845   1.490  0.0192 -0.4222 -0.1668
 1060TIP3    H124815   0.084   5.787   1.414 -0.3715  0.0631 -0.5435
 1060TIP3    H224816  -0.002   5.830   1.531  0.1705 -0.5754  0.0993
 1061TIP3   OH224817   6.659   5.909   2.178 -0.2658  0.3905  0.4896
 1061TIP3    H124818   6.599   5.954   2.238  0.2729  4.0029 -1.3951
 1061TIP3    H224819   6.607   5.896   2.098  0.3369 -0.0906  0.1723
 1062TIP3   OH224820   0.972   1.031   0.588 -0.3832 -0.2400  0.4018
 1062TIP3    H124821   1.008   0.988   0.510 -0.2693 -1.5655  1.1483
 1062TIP3    H224822   0.941   0.958   0.643 -0.7649  0.6823  1.4461
 1063TIP3   OH224823   4.099   3.223   2.521 -0.1251 -0.1524 -0.0363
 1063TIP3    H124824   4.014   3.226   2.566 -0.0307  1.6743  0.0842
 1063TIP3    H224825   4.158   3.272   2.578  0.2309  1.3793 -1.6236
 1064TIP3   OH224826   5.758   2.870   1.464  0.2922 -0.1853 -0.3436
 1064TIP3    H124827   5.777   2.868   1.370  2.0043 -1.1084 -0.0172
 1064TIP3    H224828   5.722   2.783   1.483 -0.1979  0.0527 -0.1617
 1065TIP3   OH224829   2.348   0.462   3.424 -0.5798 -0.3148  0.3697
 1065TIP3    H124830   2.291   0.524   3.471  1.2183  1.5468  0.2216
 1065TIP3    H224831   2.429   0.461   3.474  0.1752 -0.9200 -0.8261
 1066TIP3   OH224832   4.429   0.993   0.883 -0.4018  0.4724 -0.3085
 1066TIP3    H124833   4.373   0.969   0.809 -0.9629  0.5707  0.0800
 1066TIP3    H224834   4.470   1.075   0.856 -0.3638  0.3470 -0.6365
 1067TIP3   OH224835   4.149   5.464   0.982  0.1902 -0.1051  0.0212
 1067TIP3    H124836   4.119   5.425   0.899  0.2882 -0.6576  0.2381
 1067TIP3    H224837   4.100   5.417   1.049  0.0624  0.3925  0.2751
 1068TIP3   OH224838   6.612   2.515   0.536 -0.1090  0.1090 -0.2218
 1068TIP3    H124839   6.637   2.441   0.590  0.6052  0.6084  0.1519
 1068TIP3    H224840   6.694   2.557   0.511 -0.5155  1.2798  0.3006
 1069TIP3   OH224841   1.946   2.401   1.170 -0.0455 -0.3044 -0.7259
 1069TIP3    H124842   1.932   2.441   1.084  1.7550  1.4599 -0.2701
 1069TIP3    H224843   1.891   2.453   1.230  0.8330  0.2860 -0.4174
 1070TIP3   OH224844   6.139   1.962   0.765 -0.1388  0.5191  0.2467
 1070TIP3    H124845   6.056   1.947   0.810 -0.7706  0.5536 -0.8491
 1070TIP3    H224846   6.170   2.046   0.798 -0.4051  0.3721  0.8709
 1071TIP3   OH224847   1.305   1.232   0.483 -0.0163  0.4681 -0.1112
 1071TIP3    H124848   1.323   1.140   0.500 -1.0057  0.4896  1.1760
 1071TIP3    H224849   1.330   1.245   0.392  1.4385 -0.7312  0.0718
 1072TIP3   OH224850   1.323   6.438   7.997 -0.2452 -0.5148  0.2500
 1072TIP3    H124851   1.240   6.458   7.953 -1.0341 -1.0044  1.4633
 1072TIP3    H224852   1.346   6.518   8.043  0.4541 -0.0797 -0.8431
 1073TIP3   OH224853   3.913   0.099   0.635  0.3392  0.2792  0.4422
 1073TIP3    H124854   3.912   0.078   0.729  0.4247  1.6399  0.7748
 1073TIP3    H224855   3.976   0.171   0.628 -0.3847  0.8395 -0.4982
 1074TIP3   OH224856   2.075   4.018   0.336  0.6126 -0.6007 -0.0194
 1074TIP3    H124857   2.063   3.955   0.265 -0.9902 -0.3887  0.0258
 1074TIP3    H224858   1.986   4.043   0.361  1.1925  1.2592  0.3418
 1075TIP3   OH224859   5.943   2.682   0.963  0.4413 -0.1167 -0.2867
 1075TIP3    H124860   5.924   2.731   0.882 -0.1711 -0.3152 -0.2697
 1075TIP3    H224861   5.957   2.592   0.933 -0.4565 -0.3240 -0.1073
 1076TIP3   OH224862   1.918   3.472   3.072 -0.2510 -0.1242 -0.3869
 1076TIP3    H124863   1.830   3.453   3.103 -0.3322  1.9731  0.8252
 1076TIP3    H224864   1.905   3.519   2.990 -0.2489  0.0370 -0.2944
 1077TIP3   OH224865   1.759   0.391   1.982 -0.2035  0.1443 -0.2906
 1077TIP3    H124866   1.672   0.354   1.972 -0.7229  0.7543  1.6238
 1077TIP3    H224867   1.798   0.343   2.055  0.4771  0.9372 -0.1133
 1078TIP3   OH224868   3.242   2.082   1.909  0.0835 -0.4432  0.6791
 1078TIP3    H124869   3.332   2.100   1.937  0.3802 -1.1727  0.2131
 1078TIP3    H224870   3.189   2.141   1.963  0.8047 -0.2606  1.2182
 1079TIP3   OH224871   0.515   1.258   0.552 -0.0191 -0.4084 -0.5664
 1079TIP3    H124872   0.553   1.341   0.581  0.7679 -1.1054  0.4708
 1079TIP3    H224873   0.565   1.235   0.474  0.1445 -0.1854 -0.5287
 1080TIP3   OH224874   3.348   6.373   0.339  0.2772  0.1631 -0.1572
 1080TIP3    H124875   3.394   6.327   0.269 -0.4502  0.5089 -0.8791
 1080TIP3    H224876   3.297   6.440   0.294 -2.2025 -1.2088  0.4203
 1081TIP3   OH224877   6.158   3.795   8.524 -0.3592  0.7404 -0.4219
 1081TIP3    H124878   6.214   3.803   8.446 -1.6931  0.3852 -1.4525
 1081TIP3    H224879   6.069   3.801   8.490 -0.9720  2.0389  1.2600
 1082TIP3   OH224880   2.894   0.134   0.813  0.4657 -0.1650 -0.2427
 1082TIP3    H124881   2.897   0.040   0.831  2.4483  0.1437  1.4885
 1082TIP3    H224882   2.842   0.170   0.884 -2.5117 -0.0997 -2.2732
 1083TIP3   OH224883   1.930   2.061   0.497  0.4096 -0.0905 -0.0460
 1083TIP3    H124884   1.928   2.068   0.402 -0.5128  1.3730  0.0456
 1083TIP3    H224885   1.958   2.147   0.527  1.1804 -0.6820  1.0102
 1084TIP3   OH224886   4.214   2.376   1.204  0.4450  0.5205  0.0546
 1084TIP3    H124887   4.202   2.300   1.261 -2.5340 -0.0910 -1.1514
 1084TIP3    H224888   4.194   2.342   1.116  2.3110  1.9942 -0.9955
 1085TIP3   OH224889   6.085   1.533   2.317  0.8658 -0.2115 -0.4368
 1085TIP3    H124890   6.125   1.470   2.257 -0.2946 -0.7405 -0.7017
 1085TIP3    H224891   6.140   1.530   2.395  1.4044 -0.8215 -0.8298
 1086TIP3   OH224892   3.465   1.143   3.442  0.5045 -0.3393 -0.2956
 1086TIP3    H124893   3.379   1.125   3.405  0.4780 -1.0020  0.0746
 1086TIP3    H224894   3.525   1.135   3.368  0.0339  2.4800 -1.1044
 1087TIP3   OH224895   3.538   2.416   3.021  0.1426  0.4890  0.0089
 1087TIP3    H124896   3.508   2.339   3.069  0.5311  0.3083 -0.0399
 1087TIP3    H224897   3.485   2.417   2.942  0.7588 -0.2383 -0.4196
 1088TIP3   OH224898   2.698   6.553   0.408 -0.1964 -0.1339  1.0520
 1088TIP3    H124899   2.790   6.534   0.391 -0.7937 -2.3489 -0.2135
 1088TIP3    H224900   2.669   6.602   0.331  0.0717  1.2051  1.7878
 1089TIP3   OH224901   3.330   3.523   0.526  0.1188 -0.1607 -0.0820
 1089TIP3    H124902   3.423   3.502   0.523  0.4148  1.0994 -0.4414
 1089TIP3    H224903   3.285   3.440   0.508  1.1482 -0.9124  0.6985
 1090TIP3   OH224904   6.258   4.508   2.481 -0.3856 -0.0149 -0.3308
 1090TIP3    H124905   6.280   4.570   2.412  0.2583  1.0988  0.8309
 1090TIP3    H224906   6.342   4.472   2.508 -0.2583  1.6561  1.7437
 1091TIP3   OH224907   2.752   2.576   4.028 -0.3347  0.2401 -0.0928
 1091TIP3    H124908   2.722   2.666   4.015  0.4456  0.4272 -0.6590
 1091TIP3    H224909   2.842   2.576   3.997  0.3995 -0.2156  1.8829
 1092TIP3   OH224910   4.792   0.624   8.168  0.1942 -0.2264 -0.6932
 1092TIP3    H124911   4.865   0.562   8.164 -0.3566 -1.0965  1.5018
 1092TIP3    H224912   4.816   0.685   8.237 -1.5292 -1.0887  0.7440
 1093TIP3   OH224913   5.371   2.167   4.456 -0.3244 -0.4272  0.3926
 1093TIP3    H124914   5.436   2.121   4.403 -0.2754 -0.1863  0.2433
 1093TIP3    H224915   5.391   2.142   4.546 -1.4423 -2.1699  0.2043
 1094TIP3   OH224916   1.780   0.670   0.388  0.4288  0.3925  0.5147
 1094TIP3    H124917   1.807   0.745   0.441 -1.6513  1.2765  0.4126
 1094TIP3    H224918   1.858   0.615   0.383  1.6037  1.8536  1.7791
 1095TIP3   OH224919   4.068   5.081   0.707 -0.0305  0.0060 -0.4072
 1095TIP3    H124920   4.121   5.006   0.680  0.2251 -1.1748  2.9157
 1095TIP3    H224921   3.978   5.048   0.707 -0.0093 -0.0710  0.2370
 1096TIP3   OH224922   0.913   1.813   1.442 -0.0950 -0.1681  0.0104
 1096TIP3    H124923   0.954   1.798   1.527 -1.6460  0.0779  0.8315
 1096TIP3    H224924   0.840   1.872   1.460  0.3372  0.9781 -1.7197
 1097TIP3   OH224925   5.980   5.343   1.359 -0.2113 -0.4806  0.2780
 1097TIP3    H124926   6.053   5.282   1.353 -0.8319 -1.1176 -1.4663
 1097TIP3    H224927   5.953   5.339   1.451  0.7350 -1.6708  0.5325
 1098TIP3   OH224928   2.666   0.999   0.284 -0.8361 -0.0549 -0.1183
 1098TIP3    H124929   2.747   1.036   0.319 -0.4382 -0.1521 -0.9015
 1098TIP3    H224930   2.693   0.955   0.203 -1.5131 -0.9060  0.0967
 1099TIP3   OH224931   4.148   0.011   1.155 -0.0746  0.0472 -0.0941
 1099TIP3    H124932   4.201   0.074   1.107 -1.1515 -1.2213 -3.2094
 1099TIP3    H224933   4.211  -0.048   1.196  0.8984  1.6312  0.8045
 1100TIP3   OH224934   0.007   1.180   0.194  0.5232 -0.5100  0.0877
 1100TIP3    H124935  -0.030   1.234   0.125  0.9169  0.3100  0.5079
 1100TIP3    H224936   0.099   1.170   0.169  1.6237  2.7844  2.2380
 1101TIP3   OH224937   4.301   0.026   7.983  0.4078 -0.4506  0.2932
 1101TIP3    H124938   4.353   0.060   7.911 -2.6968 -0.8383 -2.3740
 1101TIP3    H224939   4.305  -0.070   7.973  0.7521 -0.5631  1.3255
 1102TIP3   OH224940   2.638   5.465   2.276 -0.6111  0.2695 -0.2386
 1102TIP3    H124941   2.721   5.430   2.243 -1.8028 -0.9998 -2.0216
 1102TIP3    H224942   2.638   5.557   2.249  1.2044  0.9854  1.8559
 1103TIP3   OH224943   3.842   0.761   2.811 -0.1627 -0.0780 -0.4063
 1103TIP3    H124944   3.912   0.808   2.857 -1.5618 -0.4024  2.2036
 1103TIP3    H224945   3.766   0.819   2.818 -1.1900 -1.4794  0.4160
 1104TIP3   OH224946   3.599   5.344   8.044 -0.1553  0.3163  0.3401
 1104TIP3    H124947   3.510   5.323   8.014  0.2908  1.4851 -2.0492
 1104TIP3    H224948   3.592   5.434   8.077  0.0753  0.2952  0.4454
 1105TIP3   OH224949   1.401   1.924   8.317 -0.0959 -0.0877 -0.2303
 1105TIP3    H124950   1.425   1.873   8.394  1.2910 -0.6852 -1.0300
 1105TIP3    H224951   1.341   1.868   8.268 -0.2533 -0.0670 -0.0681
 1106TIP3   OH224952   5.711   0.586   1.947  0.2800 -0.6969  0.2114
 1106TIP3    H124953   5.775   0.545   1.888 -0.6612 -0.3045 -1.1210
 1106TIP3    H224954   5.626   0.561   1.911 -0.3199 -0.7835  1.6590
 1107TIP3   OH224955   0.103   4.765   1.487 -0.8886  0.5183  0.5799
 1107TIP3    H124956   0.120   4.675   1.459 -1.9179 -0.0027  1.5357
 1107TIP3    H224957   0.167   4.781   1.557  1.1592  1.5490 -1.3977
 1108TIP3   OH224958   5.353   0.254   0.687 -0.2692  0.1886 -0.4569
 1108TIP3    H124959   5.279   0.293   0.734 -0.9816 -2.3314  0.6812
 1108TIP3    H224960   5.421   0.243   0.754  0.0688 -0.1632 -0.8524
 1109TIP3   OH224961   0.217   0.194   2.470  0.6970  0.3000  0.4710
 1109TIP3    H124962   0.208   0.123   2.535 -0.5281  0.0165  0.0044
 1109TIP3    H224963   0.156   0.261   2.499  1.8116  1.1690  0.8740
 1110TIP3   OH224964   6.785   2.780   3.468 -0.2965 -0.3153 -0.9971
 1110TIP3    H124965   6.698   2.820   3.470 -0.5009 -0.7711 -0.6863
 1110TIP3    H224966   6.773   2.699   3.419 -0.0087 -0.2940 -1.1030
 1111TIP3   OH224967   6.846   3.587   8.027 -0.5471 -0.0906 -0.1603
 1111TIP3    H124968   6.827   3.610   8.118 -1.6968  1.0141 -0.6612
 1111TIP3    H224969   6.761   3.585   7.984  0.0361  0.1176 -1.3722
 1112TIP3   OH224970   1.813   3.738   8.200  0.0803  0.2469  0.7179
 1112TIP3    H124971   1.721   3.761   8.216 -0.3978 -1.1027  0.0177
 1112TIP3    H224972   1.853   3.820   8.171 -0.7146  1.0248  1.7361
 1113TIP3   OH224973   2.511   0.960   2.682  0.1071  0.0212  0.2805
 1113TIP3    H124974   2.509   0.968   2.778  1.5783  1.6046  0.2441
 1113TIP3    H224975   2.592   0.912   2.665 -0.0747 -0.1214 -0.1695
 1114TIP3   OH224976   2.880   4.336   3.272 -0.0139 -0.1088 -0.1511
 1114TIP3    H124977   2.954   4.354   3.329 -0.4662  0.9086  0.1244
 1114TIP3    H224978   2.834   4.263   3.314  0.4306 -0.2710  0.0506
 1115TIP3   OH224979   4.342   1.271   8.582  0.1241  0.5325 -0.0549
 1115TIP3    H124980   4.303   1.184   8.575  1.3404  0.0452 -1.2159
 1115TIP3    H224981   4.295   1.313   8.653 -1.4889 -0.5445 -0.4421
 1116TIP3   OH224982   3.725   5.145   8.159  0.3602 -1.2508  0.1897
 1116TIP3    H124983   3.688   5.208   8.096  4.2898  0.6116 -0.6018
 1116TIP3    H224984   3.715   5.060   8.116 -2.1161 -0.8146 -0.2591
 1117TIP3   OH224985   2.059   2.976   0.936  0.3966 -0.1262  0.0473
 1117TIP3    H124986   2.049   2.897   0.990 -0.6885 -0.8984 -1.2261
 1117TIP3    H224987   2.050   3.048   0.998  0.3956 -0.9846  1.0903
 1118TIP3   OH224988   1.977   5.721   0.381 -0.5870 -0.2953  0.2170
 1118TIP3    H124989   1.951   5.719   0.289 -0.5708  2.5763  0.0698
 1118TIP3    H224990   1.998   5.630   0.402 -0.4973 -1.0112 -2.6328
 1119TIP3   OH224991   4.870   4.857   1.007 -0.1172 -0.0300  0.0222
 1119TIP3    H124992   4.786   4.895   1.033  0.6345  1.4168  0.4176
 1119TIP3    H224993   4.856   4.830   0.916 -1.3682 -0.9758  0.4541
 1120TIP3   OH224994   5.947   5.849   0.311  0.1216  0.2034 -0.4952
 1120TIP3    H124995   5.895   5.897   0.376 -0.5149 -2.6039  1.2270
 1120TIP3    H224996   5.882   5.810   0.253  0.5504  0.1841 -0.9644
 1121TIP3   OH224997   4.499   3.577   8.011 -0.5451  0.4435 -0.2617
 1121TIP3    H124998   4.543   3.645   7.960 -0.0683 -1.1476 -2.1240
 1121TIP3    H224999   4.417   3.562   7.964 -0.2524 -0.8393 -0.3933
 1122TIP3   OH225000   1.425   6.737   3.625 -0.1255 -0.1541  0.4881
 1122TIP3    H125001   1.394   6.651   3.598  1.7187 -0.9100  0.6158
 1122TIP3    H225002   1.358   6.798   3.594 -1.7618 -1.6690  0.9165
 1123TIP3   OH225003   4.662   1.407   0.112 -0.2636 -0.4655  0.1959
 1123TIP3    H125004   4.736   1.414   0.053  0.3670 -0.6106  0.9591
 1123TIP3    H225005   4.621   1.493   0.111 -0.4940 -0.5766 -0.7425
 1124TIP3   OH225006   3.098   0.982   0.216  0.1697 -0.0008  0.3388
 1124TIP3    H125007   3.098   1.075   0.192  0.2782  0.5729  2.3795
 1124TIP3    H225008   3.154   0.978   0.294 -1.8993 -1.3261  1.8399
 1125TIP3   OH225009   1.961   4.251   7.792 -0.1359  1.0413 -0.4380
 1125TIP3    H125010   1.954   4.345   7.808  1.1628  1.1543 -0.4086
 1125TIP3    H225011   2.049   4.228   7.822  0.0087  0.0490 -1.5425
 1126TIP3   OH225012   5.987   4.493   0.332  0.5324 -0.2367  0.4431
 1126TIP3    H125013   5.956   4.459   0.248  0.1569 -0.1980  0.5636
 1126TIP3    H225014   6.057   4.553   0.309  2.0935 -2.0269  0.2847
 1127TIP3   OH225015   1.765   2.623   3.105  0.2695 -0.3078  0.2489
 1127TIP3    H125016   1.778   2.677   3.183 -1.5088  1.2735 -0.4977
 1127TIP3    H225017   1.844   2.636   3.053  1.0062 -0.5496  1.2748
 1128TIP3   OH225018   4.506   2.718   0.184  0.2777 -0.5292  0.4221
 1128TIP3    H125019   4.583   2.724   0.128  0.4519  1.6101  0.8128
 1128TIP3    H225020   4.528   2.649   0.247  2.6403  1.1371  1.5892
 1129TIP3   OH225021   0.070   5.143   0.800 -0.6069  0.5269  0.0582
 1129TIP3    H125022   0.024   5.207   0.746 -0.0218  1.5883  0.7995
 1129TIP3    H225023   0.000   5.098   0.848 -1.1386 -0.3968 -1.4722
 1130TIP3   OH225024   3.796   2.714   3.938  0.1865 -0.7072 -0.3875
 1130TIP3    H125025   3.812   2.635   3.886 -0.6073 -1.8234  1.0275
 1130TIP3    H225026   3.701   2.722   3.942  0.2454 -0.2691  0.3487
 1131TIP3   OH225027   0.422   3.272   8.729  0.5252 -0.0207  0.3914
 1131TIP3    H125028   0.429   3.287   8.823  0.1905 -0.8952  0.5727
 1131TIP3    H225029   0.415   3.176   8.721 -1.6714  0.1407 -0.3583
 1132TIP3   OH225030   1.444   5.932   0.154 -0.1802  0.4690 -0.0419
 1132TIP3    H125031   1.531   5.968   0.139  0.9329 -1.6657  0.8819
 1132TIP3    H225032   1.457   5.838   0.156 -2.2753  0.1393  1.4946
 1133TIP3   OH225033   2.363   1.672   3.692  0.5270  0.1544 -0.1516
 1133TIP3    H125034   2.419   1.643   3.764  2.3196  3.4468 -0.0361
 1133TIP3    H225035   2.304   1.735   3.731  0.5036  0.8701 -1.2932
 1134TIP3   OH225036   6.359   3.709   2.432 -0.3366  0.3172 -0.1410
 1134TIP3    H125037   6.368   3.798   2.398  2.9323 -0.4655 -1.7093
 1134TIP3    H225038   6.433   3.699   2.492 -2.4347 -0.4219  2.5077
 1135TIP3   OH225039   5.841   6.735   1.426 -0.3752 -0.1249 -0.4510
 1135TIP3    H125040   5.911   6.683   1.387 -0.7390  0.1183 -1.4647
 1135TIP3    H225041   5.763   6.711   1.376 -0.6800  0.8777 -0.4795
 1136TIP3   OH225042   3.684   6.760   2.230 -0.5081 -0.2127  0.3840
 1136TIP3    H125043   3.744   6.819   2.276 -1.5133  0.6813  0.5720
 1136TIP3    H225044   3.671   6.688   2.291 -1.4233  0.7100  1.3280
 1137TIP3   OH225045   6.093   0.972   8.695 -0.2537 -0.1235  0.0221
 1137TIP3    H125046   6.052   0.969   8.781 -2.8605 -1.6143 -1.1687
 1137TIP3    H225047   6.076   1.060   8.663 -1.9822 -0.4821 -0.1339
 1138TIP3   OH225048   1.701   4.657   8.612 -0.0160  0.1969  0.2195
 1138TIP3    H125049   1.646   4.616   8.678  1.0539 -1.9294 -0.1139
 1138TIP3    H225050   1.665   4.627   8.529  1.1210 -0.5869 -0.0197
 1139TIP3   OH225051   0.724   4.172   0.996  0.2416  0.3686 -0.1682
 1139TIP3    H125052   0.723   4.238   0.927  1.2869 -0.2339 -0.7874
 1139TIP3    H225053   0.737   4.221   1.077 -0.5423  1.0448 -0.4348
 1140TIP3   OH225054   4.979   0.303   0.592  0.5188  0.8173  0.5342
 1140TIP3    H125055   5.040   0.230   0.580 -2.1359 -1.4914  0.0405
 1140TIP3    H225056   5.001   0.339   0.678  1.2070 -1.3420  1.3241
 1141TIP3   OH225057   1.302   3.624   1.097 -0.1683 -0.5988  0.2931
 1141TIP3    H125058   1.213   3.642   1.129 -1.5492  0.0152 -3.3648
 1141TIP3    H225059   1.301   3.531   1.075 -0.0177 -0.5356  0.0174
 1142TIP3   OH225060   5.555   5.063   3.194 -0.1679 -0.0711 -0.4147
 1142TIP3    H125061   5.584   5.145   3.234 -1.8597 -0.0229  0.7804
 1142TIP3    H225062   5.481   5.087   3.139  0.6636 -0.5017 -1.7585
 1143TIP3   OH225063   0.487   4.571   8.688 -0.8444 -0.0531  0.2074
 1143TIP3    H125064   0.478   4.666   8.692 -0.6668  0.3853 -4.3847
 1143TIP3    H225065   0.398   4.538   8.697 -0.8316  0.4006  2.5077
 1144TIP3   OH225066   3.316   4.164   2.262  0.1040  0.0810 -0.2017
 1144TIP3    H125067   3.396   4.129   2.301  0.9823  1.9161 -0.2076
 1144TIP3    H225068   3.247   4.145   2.325  1.1444  1.3011  1.3953
 1145TIP3   OH225069   1.211   3.879   0.639 -0.2886 -0.8546  0.6103
 1145TIP3    H125070   1.223   3.840   0.725  2.6300  3.7280  2.7133
 1145TIP3    H225071   1.130   3.929   0.646 -0.3806 -0.9864  0.4828
 1146TIP3   OH225072   2.390   2.399   2.742 -0.1227 -0.1182  0.3972
 1146TIP3    H125073   2.352   2.386   2.829 -1.2529 -1.9303 -0.3216
 1146TIP3    H225074   2.391   2.494   2.730 -0.5523  0.1318  2.1090
 1147TIP3   OH225075   4.341   6.230   3.396 -0.0554  0.0501 -0.2026
 1147TIP3    H125076   4.361   6.290   3.467 -0.8468  0.1106 -0.0214
 1147TIP3    H225077   4.299   6.155   3.439  1.4712 -0.9331 -0.3417
 1148TIP3   OH225078   4.465   2.212   0.715 -0.0912 -0.5033 -0.3175
 1148TIP3    H125079   4.550   2.169   0.709 -0.6073 -1.5416 -0.4381
 1148TIP3    H225080   4.484   2.297   0.754  1.1128 -0.3687 -1.1374
 1149TIP3   OH225081   3.096   1.709   0.289  0.0205  0.5437 -0.0454
 1149TIP3    H125082   3.025   1.678   0.233 -0.1932 -0.2291  0.6346
 1149TIP3    H225083   3.084   1.804   0.292 -1.4073  0.3836  0.5802
 1150TIP3   OH225084   5.712   1.953   2.508  0.3837 -0.3777  0.4470
 1150TIP3    H125085   5.676   1.975   2.594  3.8154  0.9183  1.7472
 1150TIP3    H225086   5.705   1.858   2.503 -2.0415 -0.2770  1.0507
 1151TIP3   OH225087   2.298   1.597   3.441 -0.0318 -0.0275  0.2767
 1151TIP3    H125088   2.349   1.520   3.416 -0.4204 -0.8256  1.8379
 1151TIP3    H225089   2.337   1.626   3.524 -0.9566  0.4560  0.5535
 1152TIP3   OH225090   5.557   6.569   1.119 -0.3899 -0.2894  0.3026
 1152TIP3    H125091   5.490   6.512   1.081 -1.5932  1.9619 -1.1427
 1152TIP3    H225092   5.518   6.656   1.118  1.1634  0.5449  2.9311
 1153TIP3   OH225093   5.207   2.331   0.363 -0.3396 -0.5014  0.5416
 1153TIP3    H125094   5.194   2.306   0.454 -0.9227  0.8359  0.8453
 1153TIP3    H225095   5.118   2.345   0.329 -0.1308 -0.9966 -0.2416
 1154TIP3   OH225096   5.731   4.877   2.084 -0.0083  0.5058 -0.2367
 1154TIP3    H125097   5.701   4.827   2.008 -0.7126 -0.6381  0.7629
 1154TIP3    H225098   5.695   4.965   2.070  0.5929  0.5666 -1.6287
 1155TIP3   OH225099   1.740   1.041   0.741 -0.4787  0.0481  0.1617
 1155TIP3    H125100   1.661   0.986   0.744 -0.1925 -0.3981 -0.2558
 1155TIP3    H225101   1.725   1.109   0.807 -0.8310 -0.5468  0.7060
 1156TIP3   OH225102   4.400   3.915   2.193  0.2245 -0.0620  0.1060
 1156TIP3    H125103   4.469   3.962   2.147 -0.1940  0.0112 -0.4494
 1156TIP3    H225104   4.436   3.899   2.281  0.5070  0.9577  0.1807
 1157TIP3   OH225105   4.470   6.281   0.796  0.3880  0.8528 -0.4089
 1157TIP3    H125106   4.514   6.200   0.826 -1.8757 -0.6359 -0.8670
 1157TIP3    H225107   4.477   6.278   0.701 -0.1200  0.9271 -0.4516
 1158TIP3   OH225108   4.043   6.671   1.335  0.0006  0.1554  0.0307
 1158TIP3    H125109   4.036   6.688   1.241 -0.0668  0.1040  0.0263
 1158TIP3    H225110   3.953   6.657   1.363  0.0991 -0.8422 -0.0857
 1159TIP3   OH225111   1.095   5.758   3.453  0.5240  0.4292  0.1739
 1159TIP3    H125112   1.068   5.801   3.534  1.1340  0.8820  0.1479
 1159TIP3    H225113   1.151   5.822   3.409 -0.6609  0.5943 -1.1357
 1160TIP3   OH225114   1.623   2.623   8.089 -0.7558 -0.0753 -0.4627
 1160TIP3    H125115   1.651   2.703   8.135 -0.9050  0.6671 -1.6175
 1160TIP3    H225116   1.529   2.634   8.078 -1.3519 -1.8619  2.0673
 1161TIP3   OH225117   6.601   3.865   2.466 -0.0784 -0.5501 -0.1341
 1161TIP3    H125118   6.657   3.792   2.494  3.7478  1.0911 -2.6564
 1161TIP3    H225119   6.626   3.938   2.524 -0.3251 -0.0116 -0.6938
 1162TIP3   OH225120   0.311   3.343   1.686  0.5298 -0.6186 -0.4819
 1162TIP3    H125121   0.376   3.358   1.754 -1.7600 -1.3761  2.0541
 1162TIP3    H225122   0.227   3.362   1.728 -1.0420 -1.1324 -3.1226
 1163TIP3   OH225123   4.866   2.746   3.394 -0.6047  0.2087  0.1664
 1163TIP3    H125124   4.772   2.744   3.416 -0.1357 -1.6663  2.4754
 1163TIP3    H225125   4.894   2.655   3.403  1.6729  0.9073  0.6414
 1164TIP3   OH225126   6.571   5.440   3.105  0.3484 -0.2432 -0.2799
 1164TIP3    H125127   6.617   5.414   3.185  0.3927 -1.5607 -0.7260
 1164TIP3    H225128   6.494   5.383   3.101 -2.0174  2.5287  0.9830
 1165TIP3   OH225129   3.216   3.468   1.906  0.1993 -0.4450 -0.1437
 1165TIP3    H125130   3.159   3.477   1.830  1.3095 -1.7269 -1.1871
 1165TIP3    H225131   3.176   3.399   1.959  0.1569 -0.5194 -0.2730
 1166TIP3   OH225132   4.096   3.142   0.262  0.8336 -0.8471  0.0375
 1166TIP3    H125133   4.047   3.133   0.180 -0.7262 -0.2239  0.8560
 1166TIP3    H225134   4.107   3.052   0.293  1.0088 -1.0539 -0.6135
 1167TIP3   OH225135   3.386   0.896   1.059  0.1256  0.7554 -0.0042
 1167TIP3    H125136   3.456   0.955   1.031 -0.2339  0.6814 -1.1200
 1167TIP3    H225137   3.401   0.816   1.008 -0.2676  0.4268  0.3905
 1168TIP3   OH225138   1.883   5.607   2.673 -0.4461 -0.0037  0.5975
 1168TIP3    H125139   1.845   5.616   2.586 -1.6969 -2.4375  0.8021
 1168TIP3    H225140   1.974   5.581   2.657 -0.1362  1.3470  0.0645
 1169TIP3   OH225141   0.393   3.182   2.993  0.5318  0.1850  0.3687
 1169TIP3    H125142   0.353   3.099   3.021  0.4387  0.1317  0.0829
 1169TIP3    H225143   0.333   3.216   2.927  1.4238 -0.3593 -0.7559
 1170TIP3   OH225144   0.450   0.845   4.081 -0.1252  0.3311  0.0432
 1170TIP3    H125145   0.518   0.798   4.129 -1.5426 -0.1340  1.6863
 1170TIP3    H225146   0.452   0.934   4.117 -0.9417  0.0800  0.7554
 1171TIP3   OH225147   4.821   3.382   1.997  0.2335 -0.0998 -0.2175
 1171TIP3    H125148   4.867   3.462   1.971 -0.1243  0.5279  0.9789
 1171TIP3    H225149   4.884   3.334   2.051  0.7550 -1.0857 -1.6430
 1172TIP3   OH225150   2.264   4.866   1.003  0.3524 -0.0073  0.3708
 1172TIP3    H125151   2.337   4.867   1.066 -0.6435  0.1183  1.5534
 1172TIP3    H225152   2.192   4.826   1.051 -0.0853 -1.0879 -1.1237
 1173TIP3   OH225153   3.075   1.550   0.547 -0.7569 -0.2874  0.0199
 1173TIP3    H125154   3.110   1.576   0.461  1.0580 -1.0773  0.4863
 1173TIP3    H225155   3.003   1.612   0.562  0.6296  1.6524 -0.8382
 1174TIP3   OH225156   6.131   3.121   2.488 -0.0788  0.2663 -0.4711
 1174TIP3    H125157   6.087   3.037   2.501  1.4940 -0.6561 -0.8237
 1174TIP3    H225158   6.074   3.185   2.531 -2.4395 -0.6321 -2.0948
 1175TIP3   OH225159   5.757   0.178   2.645  0.0220 -0.2057 -0.4779
 1175TIP3    H125160   5.802   0.233   2.709  1.4645 -0.9050 -0.8196
 1175TIP3    H225161   5.759   0.229   2.564 -0.0752 -0.0952 -0.4090
 1176TIP3   OH225162   0.674   0.722   4.208  0.2819 -0.4259 -0.7634
 1176TIP3    H125163   0.634   0.636   4.222  0.0169 -0.1938 -0.0696
 1176TIP3    H225164   0.745   0.726   4.273  0.2322 -0.0813 -0.7314
 1177TIP3   OH225165   4.083   1.490   2.108  0.0506  0.2396  0.3377
 1177TIP3    H125166   4.081   1.400   2.140  4.2519 -0.5178 -0.9268
 1177TIP3    H225167   4.139   1.537   2.170  1.1726  0.9211 -1.1382
 1178TIP3   OH225168   3.405   4.281   0.238  0.2996  0.1591  0.0864
 1178TIP3    H125169   3.499   4.295   0.252  1.2152 -1.8406 -2.9822
 1178TIP3    H225170   3.391   4.189   0.261 -0.5454  0.0051 -0.9863
 1179TIP3   OH225171   3.775   1.033   1.582 -0.6079 -0.1778 -0.6508
 1179TIP3    H125172   3.728   0.976   1.522 -1.0631  0.1181 -0.5763
 1179TIP3    H225173   3.754   1.000   1.669 -1.0917  0.2645 -0.5954
 1180TIP3   OH225174   6.725   1.646   2.324  0.3396  0.4154 -0.2447
 1180TIP3    H125175   6.652   1.588   2.346  0.3542 -0.2939 -1.9016
 1180TIP3    H225176   6.801   1.607   2.368 -0.1923  0.9980  1.2524
 1181TIP3   OH225177   0.164   0.400   8.520  0.3728  0.0011  0.5007
 1181TIP3    H125178   0.195   0.489   8.506 -1.9667  1.1984  2.2597
 1181TIP3    H225179   0.176   0.385   8.614  0.0729 -1.2494  0.3515
 1182TIP3   OH225180   4.945   3.284   3.331  0.3990 -0.6889  0.1498
 1182TIP3    H125181   4.852   3.262   3.343  0.2036 -1.2815 -1.9962
 1182TIP3    H225182   4.944   3.363   3.278  1.1327 -0.7919 -0.0218
 1183TIP3   OH225183   0.210   1.178   2.934  0.3740  0.9166  0.0693
 1183TIP3    H125184   0.177   1.254   2.981  0.3756  0.1246  1.4186
 1183TIP3    H225185   0.162   1.177   2.851  1.4953  3.2408 -0.6710
 1184TIP3   OH225186   3.289   4.924   3.068  0.2511  0.4253 -0.1869
 1184TIP3    H125187   3.287   4.853   3.003 -1.4782 -0.1934  0.4877
 1184TIP3    H225188   3.376   4.918   3.107  0.0441 -1.5749  0.1019
 1185TIP3   OH225189   6.885   2.219   4.095  0.2359 -0.1154 -0.1240
 1185TIP3    H125190   6.837   2.164   4.033  0.0461  1.5882 -1.5839
 1185TIP3    H225191   6.822   2.240   4.163 -0.5360  0.5548 -1.0281
 1186TIP3   OH225192   3.304   3.025   2.000  0.2459  0.4248  0.0985
 1186TIP3    H125193   3.240   2.971   1.955  0.5031 -0.0002  0.2426
 1186TIP3    H225194   3.357   3.063   1.929  0.4834 -0.0360  0.0257
 1187TIP3   OH225195   3.979   2.150   0.016 -0.0919 -0.1961  0.2470
 1187TIP3    H125196   4.016   2.086   0.076  0.4176 -0.6654 -0.5380
 1187TIP3    H225197   4.044   2.221   0.014 -0.5298  0.2275  0.9153
 1188TIP3   OH225198   2.392   6.627   1.284 -0.2558  0.5962 -0.1222
 1188TIP3    H125199   2.442   6.545   1.286 -1.0256  0.0755  2.3327
 1188TIP3    H225200   2.433   6.682   1.350  1.5210  3.1382 -3.0851
 1189TIP3   OH225201   2.501   6.020   0.067  0.4315  0.1703  0.0526
 1189TIP3    H125202   2.595   6.022   0.084  0.4732 -0.2664 -0.0984
 1189TIP3    H225203   2.477   6.111   0.052  0.9469  0.2280 -0.5046
 1190TIP3   OH225204   5.718   5.826   3.197  0.0678  0.2377 -0.1420
 1190TIP3    H125205   5.757   5.852   3.113  0.4534 -0.4780 -0.1935
 1190TIP3    H225206   5.718   5.906   3.249  0.4494  0.5386 -0.5916
 1191TIP3   OH225207   1.819   2.414   3.547  0.7552  0.1067 -0.1569
 1191TIP3    H125208   1.760   2.389   3.476 -1.2280  1.7406  0.8143
 1191TIP3    H225209   1.813   2.341   3.610 -1.0183  0.6342  0.3490
 1192TIP3   OH225210   4.704   6.576   2.968 -0.2413 -0.3234  0.1573
 1192TIP3    H125211   4.781   6.519   2.964  2.0446  2.5849 -0.6858
 1192TIP3    H225212   4.666   6.572   2.880 -0.2485 -0.6808  0.1727
 1193TIP3   OH225213   2.099   4.874   4.032  0.3457  0.5960 -0.4540
 1193TIP3    H125214   2.024   4.825   4.064  0.0479  1.1305 -0.3242
 1193TIP3    H225215   2.128   4.827   3.954  0.6020 -0.2774  0.1618
 1194TIP3   OH225216   3.412   1.348   3.248 -0.4983 -0.2312  0.1597
 1194TIP3    H125217   3.343   1.395   3.294  0.1348 -0.8018  1.7809
 1194TIP3    H225218   3.470   1.316   3.318  1.1170 -0.2173 -1.1075
 1195TIP3   OH225219   3.735   5.888   2.493  0.7315  0.6188  0.0856
 1195TIP3    H125220   3.670   5.823   2.520 -0.0448  1.4595  0.2613
 1195TIP3    H225221   3.750   5.870   2.400 -0.2460  0.8481 -0.1164
 1196TIP3   OH225222   0.597   5.222   0.072 -0.0226  0.2093 -0.1904
 1196TIP3    H125223   0.512   5.179   0.077 -0.5246  1.2889  2.5690
 1196TIP3    H225224   0.659   5.156   0.104 -0.0615 -0.0579 -0.6670
 1197TIP3   OH225225   5.294   4.474   7.849  0.1451  0.4862  0.4764
 1197TIP3    H125226   5.341   4.395   7.821  0.1761  1.0671 -1.2120
 1197TIP3    H225227   5.203   4.457   7.826  0.3061  1.3313 -0.8655
 1198TIP3   OH225228   2.599   4.742   8.002  0.5026 -0.0481  0.1796
 1198TIP3    H125229   2.631   4.816   7.949  2.5981 -1.2373 -0.3234
 1198TIP3    H225230   2.509   4.767   8.025 -0.1482  1.0621 -2.9644
 1199TIP3   OH225231   3.241   6.554   1.527 -0.3964 -0.3070 -0.3303
 1199TIP3    H125232   3.156   6.555   1.571 -0.3967 -0.6812 -0.3192
 1199TIP3    H225233   3.220   6.532   1.436 -0.1201 -3.0036  0.1490
 1200TIP3   OH225234   4.924   2.968   2.099 -0.0974 -0.0531 -0.8780
 1200TIP3    H125235   4.928   2.899   2.166 -1.2994  2.7085  2.3482
 1200TIP3    H225236   4.856   2.938   2.038 -1.1057 -1.4253  0.8139
 1201TIP3   OH225237   1.650   5.316   3.183  0.2827  0.0444  0.3746
 1201TIP3    H125238   1.610   5.402   3.177 -0.1936 -0.0443  1.8859
 1201TIP3    H225239   1.658   5.287   3.092  0.6834  1.7691 -0.1774
 1202TIP3   OH225240   1.036   5.845   8.008 -0.0462  0.2875  0.6892
 1202TIP3    H125241   1.114   5.880   7.965  1.5657 -2.6840  0.9298
 1202TIP3    H225242   1.028   5.756   7.974 -2.8610  0.1962  1.3691
 1203TIP3   OH225243   0.880   2.662   0.719  0.1904  0.1122 -0.3998
 1203TIP3    H125244   0.844   2.671   0.808  3.2412  1.1610  0.8587
 1203TIP3    H225245   0.834   2.730   0.669 -0.5528  0.4986  0.7394
 1204TIP3   OH225246   4.910   6.850   1.912 -0.3954 -0.5661 -0.4739
 1204TIP3    H125247   4.854   6.860   1.989  0.9380  1.1614  0.3411
 1204TIP3    H225248   4.997   6.835   1.948  0.4440  1.3481 -1.5993
 1205TIP3   OH225249   6.370   6.233   2.621  0.4085 -0.1284 -0.1484
 1205TIP3    H125250   6.405   6.321   2.639 -0.0456 -0.3977  2.3727
 1205TIP3    H225251   6.279   6.248   2.598  0.0213  0.0088  1.4110
 1206TIP3   OH225252   6.463   3.654   2.687  0.6217 -0.5155  0.0042
 1206TIP3    H125253   6.514   3.655   2.768  0.4701 -0.8699  0.1075
 1206TIP3    H225254   6.456   3.561   2.664  2.3291 -0.3348 -1.4914
 1207TIP3   OH225255   1.134   5.759   1.097 -0.2667  0.1541 -0.1656
 1207TIP3    H125256   1.107   5.688   1.039  2.0334 -0.9492 -0.0216
 1207TIP3    H225257   1.064   5.824   1.091 -1.0673 -0.8283 -2.5719
 1208TIP3   OH225258   6.835   5.759   3.068 -0.0598  0.1802  0.6281
 1208TIP3    H125259   6.740   5.770   3.058 -0.5730 -2.5831  1.7396
 1208TIP3    H225260   6.855   5.678   3.021  1.6958  0.4798  0.7936
 1209TIP3   OH225261   2.394   4.281   0.199  0.5457  1.0245 -0.7939
 1209TIP3    H125262   2.395   4.214   0.130 -1.4186  0.7146 -0.5841
 1209TIP3    H225263   2.473   4.332   0.185  1.1039 -0.1602 -2.1569
 1210TIP3   OH225264   3.966   5.833   1.345 -0.6611  0.5497  0.2747
 1210TIP3    H125265   4.035   5.779   1.383 -1.2911  0.5597  1.5056
 1210TIP3    H225266   3.922   5.873   1.421 -0.4098  2.5711 -0.5748
 1211TIP3   OH225267   6.053   5.445   1.617 -0.4763  0.1252  0.4028
 1211TIP3    H125268   6.035   5.528   1.662 -3.3287  0.0655 -0.4291
 1211TIP3    H225269   6.131   5.462   1.566 -0.8484  2.2541  0.4523
 1212TIP3   OH225270   4.723   2.425   2.172  0.0601 -0.1436 -0.5178
 1212TIP3    H125271   4.638   2.380   2.172  0.9236 -1.8829 -0.1760
 1212TIP3    H225272   4.755   2.413   2.262  2.0884 -2.4772 -1.4435
 1213TIP3   OH225273   4.849   6.320   0.453  0.9120 -0.2521  0.4515
 1213TIP3    H125274   4.775   6.311   0.393  0.4976  3.7497  0.0614
 1213TIP3    H225275   4.832   6.257   0.523 -2.4001 -0.1414 -0.0950
 1214TIP3   OH225276   3.248   0.211   1.141 -0.3858 -0.4864  0.0916
 1214TIP3    H125277   3.275   0.218   1.233  1.1423 -1.9504 -0.1947
 1214TIP3    H225278   3.167   0.262   1.136  0.5536  1.3206  1.7954
 1215TIP3   OH225279   5.528   3.180   0.773  0.3900  0.4019  0.7265
 1215TIP3    H125280   5.551   3.255   0.718 -0.5438  0.8392  0.9029
 1215TIP3    H225281   5.452   3.142   0.728  1.0743 -0.6615  0.4428
 1216TIP3   OH225282   1.785   2.160   3.675 -0.1782  0.0208 -0.1488
 1216TIP3    H125283   1.756   2.223   3.741 -0.2070 -1.3783  1.2417
 1216TIP3    H225284   1.844   2.101   3.722  0.4491 -0.5517 -1.5814
 1217TIP3   OH225285   2.572   5.215   0.099 -0.4355  0.2335  0.2100
 1217TIP3    H125286   2.627   5.138   0.086  0.0343  0.6526 -0.3442
 1217TIP3    H225287   2.496   5.182   0.146 -0.8550 -0.8201 -1.1468
 1218TIP3   OH225288   0.793   0.335   2.220  0.1707  0.3776 -0.1777
 1218TIP3    H125289   0.736   0.284   2.162 -0.3695 -0.0931  0.7359
 1218TIP3    H225290   0.851   0.270   2.259  0.3610  0.6527 -0.0025
 1219TIP3   OH225291   1.460   4.596   1.837  0.1371 -0.1455 -0.6560
 1219TIP3    H125292   1.506   4.558   1.761  0.6076  0.4158 -0.6626
 1219TIP3    H225293   1.379   4.630   1.800  0.8236  1.0521 -1.1243
 1220TIP3   OH225294   2.369   4.698   1.479  0.2178 -1.0507  0.2774
 1220TIP3    H125295   2.279   4.728   1.473  0.4817 -0.4559 -0.9124
 1220TIP3    H225296   2.367   4.607   1.450  0.0208 -0.9895  0.1016
 1221TIP3   OH225297   4.556   0.874   8.172 -0.1821  0.1751  0.0246
 1221TIP3    H125298   4.539   0.810   8.241 -1.3538 -1.4294 -1.6797
 1221TIP3    H225299   4.651   0.889   8.177 -0.1627 -0.2178  1.6519
 1222TIP3   OH225300   6.024   5.522   0.172  0.1552 -0.2942  0.0776
 1222TIP3    H125301   6.047   5.542   0.263 -0.5825  0.4877  0.1060
 1222TIP3    H225302   6.025   5.607   0.128 -0.6932 -0.5017 -0.3603
 1223TIP3   OH225303   6.703   5.068   2.878  0.0878 -0.5298 -0.0453
 1223TIP3    H125304   6.742   4.985   2.852  0.7964 -0.2090 -0.0364
 1223TIP3    H225305   6.685   5.058   2.972  0.0038 -0.7319 -0.0820
 1224TIP3   OH225306   5.658   3.071   3.053 -0.2768  0.2116  0.2803
 1224TIP3    H125307   5.563   3.070   3.042 -0.3294 -2.2528  0.5720
 1224TIP3    H225308   5.691   3.104   2.969 -1.3231 -1.9208 -1.0656
 1225TIP3   OH225309   4.197   4.946   0.194 -0.0899 -0.7612 -0.3556
 1225TIP3    H125310   4.139   5.001   0.141  0.7542  0.8193  0.2857
 1225TIP3    H225311   4.146   4.867   0.212 -1.3851 -0.1507 -1.2441
 1226TIP3   OH225312   4.565   6.537   0.516 -0.2977  0.3826 -0.0610
 1226TIP3    H125313   4.526   6.572   0.596  0.4733  0.1355  0.4388
 1226TIP3    H225314   4.509   6.464   0.492 -1.5198  1.4974 -0.7245
 1227TIP3   OH225315   4.614   2.747   3.516  0.0550  0.3940 -0.0936
 1227TIP3    H125316   4.526   2.784   3.520  0.4513  1.2195  3.1378
 1227TIP3    H225317   4.623   2.697   3.597  2.6228  0.4778 -0.2531
 1228TIP3   OH225318   4.468   3.647   2.925  0.8188  0.3911  0.1078
 1228TIP3    H125319   4.532   3.656   2.854  0.2354 -0.8811 -0.6099
 1228TIP3    H225320   4.393   3.698   2.896  1.6011  2.1731  1.1095
 1229TIP3   OH225321   4.613   3.340   8.138 -0.7823 -0.3062 -0.5640
 1229TIP3    H125322   4.532   3.315   8.181 -0.7138 -0.0019 -0.2578
 1229TIP3    H225323   4.590   3.417   8.086 -0.5514  0.1597  0.0127
 1230TIP3   OH225324   6.447   4.845   2.827 -0.2958 -0.5400 -0.3258
 1230TIP3    H125325   6.516   4.833   2.761  0.7142 -0.1325  0.6310
 1230TIP3    H225326   6.445   4.762   2.874  0.2861 -0.1969  0.3229
 1231TIP3   OH225327   6.744   3.921   0.567 -0.3398 -0.2910  0.4124
 1231TIP3    H125328   6.669   3.874   0.603 -0.0909 -0.8192  0.2659
 1231TIP3    H225329   6.739   4.009   0.604 -1.1811 -0.2397  0.1871
 1232TIP3   OH225330   5.785   0.642   1.456 -0.1929  0.0882 -0.4600
 1232TIP3    H125331   5.841   0.698   1.401  0.2416 -0.0774 -0.1865
 1232TIP3    H225332   5.705   0.693   1.467 -0.0736  0.3577 -0.7959
 1233TIP3   OH225333   4.244   1.115   1.771 -0.3761  0.3392 -0.2269
 1233TIP3    H125334   4.170   1.065   1.737 -3.0229  2.0149  2.6335
 1233TIP3    H225335   4.210   1.203   1.786  2.1979  1.2192  1.1698
 1234TIP3   OH225336   4.404   1.534   3.499 -0.5360 -0.5649  0.0738
 1234TIP3    H125337   4.443   1.581   3.426  0.2631 -1.7570 -0.2982
 1234TIP3    H225338   4.319   1.504   3.466 -0.2618 -0.9286 -0.3131
 1235TIP3   OH225339   1.598   0.459   1.381 -0.0026  0.4221  0.1026
 1235TIP3    H125340   1.643   0.391   1.330 -1.4631 -0.3457 -0.1995
 1235TIP3    H225341   1.660   0.481   1.450  0.6727 -0.9237 -0.0324
 1236TIP3   OH225342   1.581   2.273   0.692  0.2858 -0.0604  0.7876
 1236TIP3    H125343   1.561   2.190   0.647  1.6593 -0.0973  0.1993
 1236TIP3    H225344   1.526   2.271   0.770 -0.4405 -1.0678  0.2802
 1237TIP3   OH225345   3.638   2.932   0.203 -0.6406  0.3101  0.6299
 1237TIP3    H125346   3.673   2.992   0.270 -0.6943  0.3346  0.6361
 1237TIP3    H225347   3.658   2.845   0.237  1.6240  0.3201 -0.5182
 1238TIP3   OH225348   1.155   3.371   2.759  0.2384  0.1468  0.7141
 1238TIP3    H125349   1.218   3.444   2.762 -1.5735  1.8967 -0.8270
 1238TIP3    H225350   1.092   3.390   2.828  0.0765 -0.2960  0.6936
 1239TIP3   OH225351   2.531   2.066   2.307  0.1725 -0.2434  0.0726
 1239TIP3    H125352   2.481   2.000   2.259 -1.6722  1.0656  0.1112
 1239TIP3    H225353   2.466   2.128   2.339  1.8748  2.2189 -0.8638
 1240TIP3   OH225354   3.284   5.336   8.014  0.3018  0.7098  0.1838
 1240TIP3    H125355   3.257   5.402   7.950 -2.6824  0.4871  1.0107
 1240TIP3    H225356   3.212   5.336   8.078  0.9771 -2.2017  1.0742
 1241TIP3   OH225357   2.500   0.537   0.635 -0.2897 -0.0351 -0.5948
 1241TIP3    H125358   2.574   0.534   0.695 -0.7071  0.4601 -0.0483
 1241TIP3    H225359   2.511   0.619   0.588 -2.1497  1.6492  1.6828
 1242TIP3   OH225360   2.619   0.348   8.250 -0.1120  0.1480 -0.4845
 1242TIP3    H125361   2.698   0.401   8.264 -0.0276  0.6658 -2.5409
 1242TIP3    H225362   2.651   0.258   8.245  0.2934  0.3021 -0.7584
 1243TIP3   OH225363   6.114   4.555   3.579 -0.0015 -0.5015 -0.7756
 1243TIP3    H125364   6.209   4.550   3.566  0.0766  0.7088 -0.7681
 1243TIP3    H225365   6.087   4.464   3.590  1.3353 -0.7808  0.5058
 1244TIP3   OH225366   2.262   0.247   1.426 -0.2705  0.0467 -1.0201
 1244TIP3    H125367   2.180   0.246   1.476  0.4347 -2.2835  0.2464
 1244TIP3    H225368   2.328   0.271   1.491  0.2524  0.3742 -1.6703
 1245TIP3   OH225369   6.506   2.537   4.352 -0.5529  0.0774 -0.0290
 1245TIP3    H125370   6.543   2.449   4.346 -0.0477  0.2663  0.2508
 1245TIP3    H225371   6.570   2.593   4.308  0.1503  0.5956  1.5969
 1246TIP3   OH225372   0.299   5.087   2.742 -0.4122 -0.2024  0.2771
 1246TIP3    H125373   0.282   5.000   2.777 -2.8560  0.5532  1.1878
 1246TIP3    H225374   0.388   5.083   2.709 -0.0292 -2.6724  1.4138
 1247TIP3   OH225375   3.115   5.374   2.400  0.4702 -0.4644  0.1216
 1247TIP3    H125376   3.165   5.294   2.383  1.0543 -0.5750  2.0839
 1247TIP3    H225377   3.145   5.436   2.334  0.2147 -1.7674 -1.2620
 1248TIP3   OH225378   1.226   6.291   0.898  0.0106 -0.1851 -0.1478
 1248TIP3    H125379   1.131   6.280   0.905  0.0406  0.4005  1.5231
 1248TIP3    H225380   1.238   6.342   0.817 -1.2751  1.5899  0.7064
 1249TIP3   OH225381   0.819   5.980   8.599 -0.6025  0.2389  0.4623
 1249TIP3    H125382   0.859   5.893   8.601  1.9139  1.2614 -0.8584
 1249TIP3    H225383   0.834   6.016   8.686  1.5163  0.5985 -0.0039
 1250TIP3   OH225384   5.666   6.096   1.057  0.2892 -0.7534  0.2366
 1250TIP3    H125385   5.617   6.015   1.048 -0.0188 -0.7446  1.5167
 1250TIP3    H225386   5.629   6.155   0.991  1.4855 -2.0581 -1.6895
 1251TIP3   OH225387   6.677   4.467   0.793 -0.1101  0.5524 -0.9773
 1251TIP3    H125388   6.772   4.477   0.781 -0.2929  3.1816 -0.6900
 1251TIP3    H225389   6.668   4.380   0.834  2.3557  1.0026  0.7742
 1252TIP3   OH225390   6.634   5.279   8.276  0.3361  0.1778 -0.1541
 1252TIP3    H125391   6.722   5.266   8.311  0.5361 -0.2445 -0.7925
 1252TIP3    H225392   6.619   5.373   8.283 -0.3397 -0.0579  2.7028
 1253TIP3   OH225393   6.044   2.896   3.289 -0.1252 -0.2819  0.0683
 1253TIP3    H125394   6.126   2.869   3.331 -0.4697  1.1989  1.8043
 1253TIP3    H225395   6.047   2.991   3.288 -2.9613  0.0460  2.8736
 1254TIP3   OH225396   5.874   4.277   2.341 -0.3424  0.3855  0.0846
 1254TIP3    H125397   5.966   4.292   2.321 -0.2628 -0.5184 -0.3071
 1254TIP3    H225398   5.838   4.238   2.261 -0.8073 -0.2308  0.5792
 1255TIP3   OH225399   3.119   2.144   1.236  0.0768 -0.0907 -0.2277
 1255TIP3    H125400   3.195   2.156   1.294 -0.4212 -0.2542  0.4785
 1255TIP3    H225401   3.060   2.088   1.286 -0.4725 -0.0303 -0.8030
 1256TIP3   OH225402   5.075   5.540   1.475 -0.9137 -0.3708 -0.0180
 1256TIP3    H125403   5.098   5.474   1.410 -1.2314  1.4600 -2.1215
 1256TIP3    H225404   5.159   5.583   1.497 -0.8285 -0.8863  0.7149
 1257TIP3   OH225405   0.786   3.763   2.116  0.3395  0.4866 -0.2206
 1257TIP3    H125406   0.862   3.728   2.163  1.0433  3.3359  0.9550
 1257TIP3    H225407   0.817   3.776   2.027  0.6408 -0.1038 -0.2078
 1258TIP3   OH225408   1.013   5.111   0.612 -0.2619 -0.5367  0.0218
 1258TIP3    H125409   0.930   5.152   0.634  0.0653 -0.0471  0.3336
 1258TIP3    H225410   1.066   5.181   0.575  1.1484 -0.0676  2.6760
 1259TIP3   OH225411   6.422   6.130   1.377 -0.5915  0.6229  0.8116
 1259TIP3    H125412   6.403   6.154   1.286 -1.9357 -0.2493  0.8405
 1259TIP3    H225413   6.440   6.213   1.421  1.5221  0.9732 -0.5301
 1260TIP3   OH225414   5.294   4.770   1.774 -0.2472 -0.1257 -0.5038
 1260TIP3    H125415   5.268   4.783   1.865 -0.2793 -2.6063 -0.0742
 1260TIP3    H225416   5.238   4.699   1.743 -0.4274  0.8482 -2.5800
 1261TIP3   OH225417   2.484   2.310   2.111 -0.4296 -0.3070  0.0977
 1261TIP3    H125418   2.434   2.270   2.181  0.9581  3.3958  3.6069
 1261TIP3    H225419   2.422   2.369   2.067 -0.7429 -0.8508 -0.1914
 1262TIP3   OH225420   4.151   1.718   2.582 -0.2433 -0.0966  0.8755
 1262TIP3    H125421   4.141   1.800   2.630  2.5999 -0.1530  1.7832
 1262TIP3    H225422   4.099   1.654   2.632 -0.6826  0.6939  1.4487
 1263TIP3   OH225423   0.943   5.454   8.687 -0.6324 -0.0113 -0.0829
 1263TIP3    H125424   0.906   5.377   8.643  0.5876  0.2738 -1.6877
 1263TIP3    H225425   1.038   5.445   8.675 -0.2046  0.0262  2.6461
 1264TIP3   OH225426   4.753   6.835   2.121  0.3113 -0.2198 -0.1071
 1264TIP3    H125427   4.703   6.915   2.137  2.4474  1.0543  0.6143
 1264TIP3    H225428   4.756   6.791   2.206  0.1549 -0.4394 -0.2160
 1265TIP3   OH225429   0.505   6.682   0.196 -0.5664  0.1757  0.1318
 1265TIP3    H125430   0.571   6.661   0.262  0.6948  0.1687 -1.0987
 1265TIP3    H225431   0.536   6.762   0.154  0.4467 -1.5215 -2.6580
 1266TIP3   OH225432   0.799   4.087   2.467 -0.3351  0.2753  0.1563
 1266TIP3    H125433   0.857   4.053   2.535 -1.7599 -2.6752  0.0760
 1266TIP3    H225434   0.848   4.078   2.385  0.3939  1.2840  0.4734
 1267TIP3   OH225435   0.589   0.705   0.083  0.7199  0.8234 -0.2621
 1267TIP3    H125436   0.620   0.780   0.135  0.6631  0.7634 -0.1425
 1267TIP3    H225437   0.567   0.639   0.148 -1.8090  1.6522 -0.1873
 1268TIP3   OH225438   2.294   1.554   0.178  0.0938 -0.0779 -0.0844
 1268TIP3    H125439   2.291   1.622   0.110  1.1943 -0.4095 -0.4838
 1268TIP3    H225440   2.278   1.472   0.130  0.6178 -0.2870  0.1011
 1269TIP3   OH225441   3.263   2.422   3.257  0.2569  0.0667 -0.0371
 1269TIP3    H125442   3.263   2.517   3.245 -0.8287  0.1120  0.2701
 1269TIP3    H225443   3.223   2.388   3.177 -1.7753  0.0441  0.9283
 1270TIP3   OH225444   1.609   3.716   0.720 -0.3542 -0.1642 -0.0299
 1270TIP3    H125445   1.641   3.680   0.637 -3.1658 -1.9406 -0.4706
 1270TIP3    H225446   1.553   3.790   0.693 -0.3791 -0.0349  0.3750
 1271TIP3   OH225447   4.781   2.167   1.729  0.1494 -0.7965  0.7127
 1271TIP3    H125448   4.707   2.200   1.678  1.2943 -1.1587 -1.2895
 1271TIP3    H225449   4.741   2.117   1.800 -1.5953  2.1705  2.0462
 1272TIP3   OH225450   0.097   0.536   0.624  0.2232  0.9290  0.8630
 1272TIP3    H125451   0.075   0.628   0.637 -2.5355  0.6800 -1.1263
 1272TIP3    H225452   0.033   0.488   0.676 -1.0418  0.1729 -1.2577
 1273TIP3   OH225453   1.087   3.630   0.314 -0.0129 -0.1267  0.4217
 1273TIP3    H125454   1.101   3.724   0.303 -1.4917  0.0967  0.2581
 1273TIP3    H225455   1.154   3.590   0.259  0.3499  0.8318  0.1357
 1274TIP3   OH225456   4.598   4.129   1.865  0.0177  0.6535  0.4331
 1274TIP3    H125457   4.558   4.134   1.778  0.7213  0.7119  0.1105
 1274TIP3    H225458   4.663   4.060   1.858 -0.8861 -0.3163  1.3166
 1275TIP3   OH225459   2.666   4.753   0.181 -0.3429 -0.0850  0.2948
 1275TIP3    H125460   2.578   4.716   0.191 -0.6159  0.3139 -0.5525
 1275TIP3    H225461   2.725   4.678   0.187 -0.6873 -0.2833  1.4954
 1276TIP3   OH225462   2.115   1.895   8.309  0.3567  0.0929 -0.4502
 1276TIP3    H125463   2.086   1.907   8.219  0.2341 -0.8962 -0.5575
 1276TIP3    H225464   2.183   1.961   8.321  0.1801  0.4204 -1.1724
 1277TIP3   OH225465   2.319   6.134   2.130 -0.0369  0.2111  0.2966
 1277TIP3    H125466   2.405   6.093   2.120 -0.0618 -0.1047  1.2813
 1277TIP3    H225467   2.271   6.109   2.052  0.6786  0.1644 -0.1368
 1278TIP3   OH225468   3.679   2.942   8.584  0.9552  0.4181 -0.1768
 1278TIP3    H125469   3.617   2.987   8.527  2.3417  0.6192 -1.5876
 1278TIP3    H225470   3.725   2.880   8.526  0.8007 -1.0788  1.2115
 1279TIP3   OH225471   6.234   0.127   0.342  1.0463  0.0967 -0.3358
 1279TIP3    H125472   6.157   0.116   0.398  2.3684  0.4946  1.6914
 1279TIP3    H225473   6.201   0.171   0.264 -0.9620 -0.8506 -0.0886
 1280TIP3   OH225474   3.573   1.176   1.307 -0.1647  0.3677  0.8934
 1280TIP3    H125475   3.529   1.245   1.256 -2.3045 -1.5383 -0.0336
 1280TIP3    H225476   3.659   1.169   1.266 -1.1699  0.1377 -1.3808
 1281TIP3   OH225477   5.781   2.093   1.727  0.1586  0.3839  0.1699
 1281TIP3    H125478   5.752   2.022   1.670  0.8605 -0.0160  0.2945
 1281TIP3    H225479   5.701   2.137   1.754 -0.2780 -0.3280  0.0465
 1282TIP3   OH225480   4.286   3.527   8.587 -0.6419  0.0978 -0.3426
 1282TIP3    H125481   4.224   3.509   8.658 -0.6599 -3.5023 -1.0815
 1282TIP3    H225482   4.239   3.502   8.507  1.3597 -1.7549 -1.0155
 1283TIP3   OH225483   0.696   4.152   1.649 -0.3457 -0.2166  1.4157
 1283TIP3    H125484   0.638   4.215   1.689  0.1134  0.5572  0.8872
 1283TIP3    H225485   0.738   4.107   1.723  0.3334  1.0405  1.8215
 1284TIP3   OH225486   1.453   0.315   0.310  0.1759 -0.5845 -0.0947
 1284TIP3    H125487   1.537   0.346   0.346 -0.2852  1.4879 -0.6712
 1284TIP3    H225488   1.477   0.270   0.229  0.7983 -0.5791  0.0803
 1285TIP3   OH225489   5.940   0.736   0.202  0.2308  0.4085 -0.4494
 1285TIP3    H125490   5.933   0.831   0.200  2.1211  0.6534  1.5157
 1285TIP3    H225491   5.855   0.707   0.236 -0.7552  1.2542 -2.0425
 1286TIP3   OH225492   1.225   2.194   1.350  0.0475 -0.7454  0.0796
 1286TIP3    H125493   1.224   2.171   1.443  0.1395 -1.4008 -0.0742
 1286TIP3    H225494   1.286   2.131   1.310  1.9491  1.0615 -0.0462
 1287TIP3   OH225495   2.828   3.356   0.405  0.3982 -0.1252 -0.7736
 1287TIP3    H125496   2.785   3.439   0.427  1.7378  0.2214  0.8058
 1287TIP3    H225497   2.828   3.354   0.310 -0.4620  1.2547 -0.8436
 1288TIP3   OH225498   0.383   4.627   0.910  0.1668  0.5082  0.3684
 1288TIP3    H125499   0.290   4.635   0.934  0.1638  1.2474  0.1439
 1288TIP3    H225500   0.417   4.559   0.968 -0.5222  0.2103  0.4358
 1289TIP3   OH225501   5.520   2.859   0.885 -0.0261  0.3493  0.3346
 1289TIP3    H125502   5.534   2.782   0.830  0.6857 -0.2226  1.2868
 1289TIP3    H225503   5.425   2.863   0.896 -0.1200  0.0170 -0.2898
 1290TIP3   OH225504   5.571   1.421   2.524 -0.1222  0.3626  0.0968
 1290TIP3    H125505   5.483   1.416   2.563 -0.5024 -2.0793 -0.8508
 1290TIP3    H225506   5.622   1.358   2.575  0.5299  0.3329 -0.5860
 1291TIP3   OH225507   0.183   3.426   8.393 -1.0787 -0.0548  0.1581
 1291TIP3    H125508   0.191   3.434   8.298  0.1392 -1.3418  0.1019
 1291TIP3    H225509   0.113   3.486   8.417 -2.2178 -0.5493 -1.6988
 1292TIP3   OH225510   0.949   2.696   2.849  0.1398 -0.2502 -0.3137
 1292TIP3    H125511   0.904   2.662   2.772 -0.5592  0.6020 -0.2870
 1292TIP3    H225512   0.956   2.790   2.834 -1.0910  0.1150  1.2060
 1293TIP3   OH225513   2.398   6.589   3.228 -0.2682 -0.0311 -0.2600
 1293TIP3    H125514   2.350   6.564   3.307  0.1162 -2.7816 -0.7688
 1293TIP3    H225515   2.488   6.602   3.257 -0.0044 -1.6108 -0.2491
 1294TIP3   OH225516   5.932   0.339   2.846  0.1555 -0.1453  0.2531
 1294TIP3    H125517   5.904   0.263   2.897  0.3898  0.8336  1.8927
 1294TIP3    H225518   6.023   0.322   2.825  0.2617 -0.2301  0.7762
 1295TIP3   OH225519   3.861   6.052   1.557  0.3184 -0.0241 -0.1602
 1295TIP3    H125520   3.845   5.968   1.599  2.3038 -0.9896 -1.1793
 1295TIP3    H225521   3.900   6.106   1.625  1.0662 -0.6924 -0.0431
 1296TIP3   OH225522   3.645   3.902   8.251  0.2493  0.2612 -0.1651
 1296TIP3    H125523   3.635   3.896   8.156  0.7675  1.2020 -0.2895
 1296TIP3    H225524   3.557   3.891   8.285 -0.0026  0.3074 -0.7781
 1297TIP3   OH225525   1.372   6.502   2.679 -0.1601 -0.5418  0.1622
 1297TIP3    H125526   1.357   6.427   2.736 -0.4744 -0.1964  0.5338
 1297TIP3    H225527   1.371   6.465   2.591  1.4797 -1.2761  0.4046
 1298TIP3   OH225528   1.809   6.729   1.295 -0.1189  0.1995 -0.6181
 1298TIP3    H125529   1.821   6.701   1.386  1.8270 -1.7422 -1.4082
 1298TIP3    H225530   1.717   6.708   1.276  0.0030 -1.3146  0.2823
 1299TIP3   OH225531   0.916   6.648   3.037  0.3781  0.2353  0.1692
 1299TIP3    H125532   0.930   6.742   3.037  0.3232  0.2833 -1.8305
 1299TIP3    H225533   0.830   6.636   2.998  0.5357 -0.6627  0.0656
 1300TIP3   OH225534   1.579   3.418   0.147 -0.1388  0.7021  0.0281
 1300TIP3    H125535   1.630   3.393   0.070 -1.8477 -0.8181 -0.6750
 1300TIP3    H225536   1.645   3.431   0.216  1.2145 -2.3931 -0.4860
 1301TIP3   OH225537   0.070   2.295   3.523  0.1160  0.4349 -0.4273
 1301TIP3    H125538   0.080   2.386   3.493 -1.1813  0.8036  0.1820
 1301TIP3    H225539  -0.022   2.275   3.507  0.3410 -0.7055 -0.3377
 1302TIP3   OH225540   1.822   1.540   2.779 -0.1859 -0.2092 -0.6801
 1302TIP3    H125541   1.858   1.629   2.786 -0.5916  0.0696 -1.8468
 1302TIP3    H225542   1.795   1.517   2.868  1.4508  0.1721 -0.0518
 1303TIP3   OH225543   6.386   4.132   0.107 -0.2468 -0.4695 -0.0127
 1303TIP3    H125544   6.334   4.057   0.134 -1.5702  0.1556 -0.7336
 1303TIP3    H225545   6.385   4.130   0.011  2.1225 -1.1323 -0.1047
 1304TIP3   OH225546   4.496   5.125   1.968 -0.0974  0.3439 -0.4354
 1304TIP3    H125547   4.517   5.036   1.997 -0.0532  1.5822  4.1623
 1304TIP3    H225548   4.569   5.178   2.000 -0.7421  2.2395 -1.9210
 1305TIP3   OH225549   0.431   4.879   2.387 -0.0778  0.2522  0.3403
 1305TIP3    H125550   0.347   4.839   2.407 -0.0264 -0.4063 -0.6838
 1305TIP3    H225551   0.410   4.945   2.320  0.2148  0.0583  0.0536
 1306TIP3   OH225552   3.104   1.110   2.638 -0.0592  0.1820  0.1783
 1306TIP3    H125553   3.075   1.086   2.725 -1.5159 -0.8945 -0.5600
 1306TIP3    H225554   3.171   1.045   2.616 -1.5185 -1.1782 -0.4554
 1307TIP3   OH225555   4.836   1.260   3.654 -0.3524  0.2048  0.5617
 1307TIP3    H125556   4.806   1.349   3.672 -0.7233  0.0994  0.4845
 1307TIP3    H225557   4.755   1.211   3.638 -0.0619  0.3801 -1.8359
 1308TIP3   OH225558   2.592   6.439   1.289 -0.1781  0.1266 -0.3094
 1308TIP3    H125559   2.556   6.427   1.201 -1.8969  0.7295  0.2668
 1308TIP3    H225560   2.683   6.463   1.275 -0.7581  1.5408 -1.9804
 1309TIP3   OH225561   4.545   4.614   0.990 -0.1369 -0.3808 -0.2379
 1309TIP3    H125562   4.602   4.562   0.933  1.3243 -2.3962  2.7866
 1309TIP3    H225563   4.605   4.672   1.037 -1.1227  0.3621  0.1319
 1310TIP3   OH225564   2.930   6.700   2.906 -0.0785 -0.1561  0.5960
 1310TIP3    H125565   3.000   6.637   2.918 -0.3616 -1.0565 -1.8698
 1310TIP3    H225566   2.968   6.784   2.932  1.8566 -0.6479 -0.4607
 1311TIP3   OH225567   2.237   0.731   2.773  0.1248  0.3563 -0.8789
 1311TIP3    H125568   2.290   0.799   2.732  1.0473  0.6848  0.7440
 1311TIP3    H225569   2.297   0.657   2.782  0.5320  0.8806  1.3843
 1312TIP3   OH225570   6.189   3.642   3.049 -0.4944 -0.3552 -0.4137
 1312TIP3    H125571   6.129   3.591   2.996 -1.9668 -0.7667  1.5149
 1312TIP3    H225572   6.152   3.730   3.049 -0.1329 -0.2017 -0.5922
 1313TIP3   OH225573   5.486   0.150   0.393  0.2234 -0.6487 -0.1150
 1313TIP3    H125574   5.488   0.100   0.311  0.3966  2.7552 -2.3778
 1313TIP3    H225575   5.546   0.223   0.379 -1.0132  1.0144  2.4142
 1314TIP3   OH225576   1.292   2.731   8.409  0.4499  0.1334  0.2259
 1314TIP3    H125577   1.247   2.687   8.338  0.9935  0.9812 -0.6757
 1314TIP3    H225578   1.372   2.767   8.369  0.1815  1.6521  0.9609
 1315TIP3   OH225579   1.870   0.345   2.466  0.7222 -0.3180 -0.2115
 1315TIP3    H125580   1.869   0.396   2.385  0.9067 -1.4761 -0.9654
 1315TIP3    H225581   1.804   0.387   2.521  1.5265  1.3129 -0.4156
 1316TIP3   OH225582   1.067   3.022   0.561  0.7369  0.2660 -0.3128
 1316TIP3    H125583   1.002   3.086   0.588  1.8229  0.8819  0.9872
 1316TIP3    H225584   1.071   3.030   0.466 -1.1431  0.1164 -0.4424
 1317TIP3   OH225585   1.639   0.247   0.554 -0.1012 -0.0154  0.3828
 1317TIP3    H125586   1.577   0.247   0.626  0.2359  2.1635  0.7299
 1317TIP3    H225587   1.635   0.157   0.519 -2.3836 -0.3188  1.2496
 1318TIP3   OH225588   5.307   6.664   8.152 -0.2627 -0.2832  0.6887
 1318TIP3    H125589   5.301   6.680   8.058  2.3654 -0.6778  0.3596
 1318TIP3    H225590   5.366   6.588   8.159 -0.0907 -0.0121  2.6521
 1319TIP3   OH225591   5.431   1.709   0.897  0.5963  0.1792 -0.1590
 1319TIP3    H125592   5.357   1.654   0.923  0.1238  1.0805  0.4209
 1319TIP3    H225593   5.480   1.723   0.978  0.1620  1.4261 -0.0880
 1320TIP3   OH225594   0.090   2.265   0.809 -0.0964  0.0220 -0.0922
 1320TIP3    H125595   0.020   2.279   0.874 -0.9500  0.4031 -1.0721
 1320TIP3    H225596   0.066   2.183   0.766 -0.2922  0.4843 -0.8721
 1321TIP3   OH225597   4.698   2.032   2.001 -0.0710  0.8374 -0.0849
 1321TIP3    H125598   4.661   1.962   1.948  1.0255 -1.6833  2.2711
 1321TIP3    H225599   4.636   2.045   2.072 -0.2576  2.3195 -0.4816
 1322TIP3   OH225600   3.793   0.124   0.089  0.0361 -0.5898  0.0108
 1322TIP3    H125601   3.734   0.086   0.024  0.8083 -1.6863 -0.0642
 1322TIP3    H225602   3.782   0.070   0.167  0.6861 -0.6047  0.1022
 1323TIP3   OH225603   3.518   5.707   2.514  0.4738 -0.0621 -0.6696
 1323TIP3    H125604   3.438   5.718   2.565  1.1457  1.7128  0.0821
 1323TIP3    H225605   3.503   5.759   2.435  0.4750 -0.6447 -1.0626
 1324TIP3   OH225606   4.555   2.649   2.666 -0.6455  0.5352 -0.4080
 1324TIP3    H125607   4.506   2.728   2.641 -1.0264  0.2386 -0.6108
 1324TIP3    H225608   4.647   2.674   2.658 -0.7551  0.6369 -1.5009
 1325TIP3   OH225609   5.246   2.464   1.106 -0.1685 -0.5200  0.0436
 1325TIP3    H125610   5.306   2.453   1.180 -0.3045  0.6182  0.3300
 1325TIP3    H225611   5.302   2.494   1.034 -0.5677  1.8678  0.6793
 1326TIP3   OH225612   1.143   6.507   2.469  0.2847  0.3203 -0.1252
 1326TIP3    H125613   1.134   6.429   2.524 -1.0801  0.3971 -0.2289
 1326TIP3    H225614   1.163   6.472   2.382 -0.0360  0.1006 -0.1106
 1327TIP3   OH225615   6.248   6.623   0.169  0.5722  0.2881  0.1093
 1327TIP3    H125616   6.313   6.552   0.170 -0.0493 -0.3247 -1.0652
 1327TIP3    H225617   6.167   6.581   0.196  0.1153  0.4517 -0.9708
 1328TIP3   OH225618   3.867   3.577   1.645  0.5388  0.2606  0.0654
 1328TIP3    H125619   3.885   3.584   1.739  0.9734 -0.0537  0.0085
 1328TIP3    H225620   3.804   3.647   1.628 -0.8589 -0.7375  0.9202
 1329TIP3   OH225621   3.390   5.090   8.433 -0.3064 -0.9142 -0.0426
 1329TIP3    H125622   3.468   5.145   8.438 -0.4917 -0.6010 -0.4731
 1329TIP3    H225623   3.354   5.108   8.346 -1.0423 -0.7975  0.2771
 1330TIP3   OH225624   6.437   1.324   2.656  0.3822  0.3328 -1.0285
 1330TIP3    H125625   6.390   1.321   2.739  0.1818  1.9547 -1.0517
 1330TIP3    H225626   6.502   1.394   2.667  2.3125 -1.3397 -1.2594
 1331TIP3   OH225627   2.436   1.516   2.886 -0.7175 -0.4853 -0.5387
 1331TIP3    H125628   2.530   1.532   2.880 -0.8289  0.3930 -0.0758
 1331TIP3    H225629   2.428   1.420   2.886 -0.0385 -0.6452 -3.4651
 1332TIP3   OH225630   0.835   0.013   8.646 -0.6522 -0.6264  0.5118
 1332TIP3    H125631   0.894   0.022   8.721 -0.9060 -0.0038  0.6364
 1332TIP3    H225632   0.776   0.088   8.652 -0.0425  0.0008 -0.8795
 1333TIP3   OH225633   4.046   6.346   2.899 -0.1263 -0.3247 -0.1346
 1333TIP3    H125634   4.070   6.287   2.827  0.7817 -1.6900  1.2307
 1333TIP3    H225635   4.001   6.289   2.962  1.5417  0.2223  1.6236
 1334TIP3   OH225636   2.272   6.884   8.513  0.0498  0.0074 -0.0076
 1334TIP3    H125637   2.182   6.909   8.492 -0.3077 -1.0639  0.1418
 1334TIP3    H225638   2.278   6.792   8.485  1.8161  0.6926 -2.1607
 1335TIP3   OH225639   4.775   0.105   0.463 -0.3183  0.3232 -0.3615
 1335TIP3    H125640   4.732   0.154   0.534 -0.3401  1.3719 -1.0787
 1335TIP3    H225641   4.851   0.065   0.505 -0.4341  0.7671  0.2971
 1336TIP3   OH225642   4.035   4.912   3.480 -0.0926 -0.4133  0.0039
 1336TIP3    H125643   4.029   4.986   3.540 -0.5132  0.6588 -1.3261
 1336TIP3    H225644   4.008   4.837   3.533  0.9316  0.2441  1.5612
 1337TIP3   OH225645   0.712   5.041   3.296  0.0392  0.5275  0.1454
 1337TIP3    H125646   0.750   5.067   3.212  0.0624 -0.3546 -0.1239
 1337TIP3    H225647   0.750   5.102   3.359 -0.3063  1.4775 -0.5368
 1338TIP3   OH225648   4.054   5.699   4.012  0.0431 -0.4375 -0.2515
 1338TIP3    H125649   4.054   5.647   4.092  1.0264  0.5463  0.4197
 1338TIP3    H225650   3.962   5.705   3.987 -0.4462  0.3501  1.5606
 1339TIP3   OH225651   3.961   0.407   1.691 -0.3236 -0.0979  0.3174
 1339TIP3    H125652   3.871   0.376   1.701 -0.4198 -0.0996 -0.5047
 1339TIP3    H225653   4.009   0.333   1.654 -0.1610  0.1517  0.0196
 1340TIP3   OH225654   4.941   1.230   0.313  0.5558  0.1676  0.1896
 1340TIP3    H125655   4.847   1.239   0.330  0.2907  0.0422 -1.1394
 1340TIP3    H225656   4.949   1.149   0.264  1.3732  0.1611  0.3185
 1341TIP3   OH225657   3.607   0.471   1.246 -0.0567 -0.4491  0.2658
 1341TIP3    H125658   3.535   0.517   1.289  0.8090  1.2697 -0.0337
 1341TIP3    H225659   3.565   0.417   1.179 -1.1803 -0.9108  1.3070
 1342TIP3   OH225660   3.423   4.253   2.951  0.0245 -0.1872 -0.1881
 1342TIP3    H125661   3.345   4.307   2.958 -0.0068  0.0441 -1.7766
 1342TIP3    H225662   3.402   4.173   2.998 -0.5199  0.5507  0.8541
 1343TIP3   OH225663   3.329   1.765   2.893 -0.2396  0.8270 -0.1035
 1343TIP3    H125664   3.365   1.677   2.900 -0.4130  0.7792  0.2395
 1343TIP3    H225665   3.302   1.774   2.802  2.1525  1.4654 -0.8233
 1344TIP3   OH225666   4.020   0.398   2.238  0.2061  0.3912  0.0297
 1344TIP3    H125667   3.937   0.393   2.285  0.3447 -0.9783  0.1595
 1344TIP3    H225668   3.997   0.379   2.147  0.4143 -0.3820  0.1296
 1345TIP3   OH225669   1.392   6.673   8.123  0.2637 -0.1663 -0.0594
 1345TIP3    H125670   1.480   6.705   8.141 -0.5841  1.1272  2.1012
 1345TIP3    H225671   1.337   6.751   8.122 -1.0102 -1.0172 -0.5791
 1346TIP3   OH225672   2.842   6.003   1.981  0.4491  0.3848  0.1684
 1346TIP3    H125673   2.799   5.990   2.065  1.9702  1.6413  1.2181
 1346TIP3    H225674   2.830   5.920   1.934 -0.1964 -0.4457  1.7262
 1347TIP3   OH225675   4.986   2.353   2.840  0.0630  0.3887  0.2302
 1347TIP3    H125676   5.047   2.307   2.897  2.2124 -0.6778 -2.6817
 1347TIP3    H225677   4.902   2.307   2.852  0.7343 -0.5758  1.5283
 1348TIP3   OH225678   4.489   0.544   1.388 -0.3604 -0.4200  0.4322
 1348TIP3    H125679   4.458   0.633   1.375 -1.0174 -0.6267  0.5882
 1348TIP3    H225680   4.582   0.554   1.411 -0.5036  0.2310  0.7286
 1349TIP3   OH225681   1.259   5.282   1.604  0.5800 -0.0262 -0.6052
 1349TIP3    H125682   1.173   5.271   1.644  1.0010 -0.0099  0.3331
 1349TIP3    H225683   1.254   5.366   1.559 -0.5826 -0.9940 -2.3876
 1350TIP3   OH225684   0.821   0.396   1.892  0.1881  0.5268 -0.3050
 1350TIP3    H125685   0.914   0.399   1.912  0.0055 -0.7993  0.8618
 1350TIP3    H225686   0.786   0.478   1.928  0.3724 -0.4775  2.3466
 1351TIP3   OH225687   4.337   5.269   0.764 -0.1982  0.3102 -0.1253
 1351TIP3    H125688   4.290   5.341   0.722 -1.8132  0.2485  1.4537
 1351TIP3    H225689   4.393   5.234   0.695 -0.8025  1.8515 -1.4659
 1352TIP3   OH225690   5.625   3.351   0.412  0.6323  0.1571 -0.2745
 1352TIP3    H125691   5.616   3.399   0.329  2.2991  0.8051 -0.1261
 1352TIP3    H225692   5.598   3.262   0.391 -0.1518  0.5945 -1.1959
 1353TIP3   OH225693   4.308   4.031   1.728  0.2559  0.1185 -0.4812
 1353TIP3    H125694   4.334   3.964   1.791  0.2003 -0.6611 -1.2729
 1353TIP3    H225695   4.391   4.068   1.697  0.2734  1.2194  0.7652
 1354TIP3   OH225696   2.462   0.154   8.663 -0.4582 -0.4607  0.0956
 1354TIP3    H125697   2.424   0.241   8.656  0.3703 -0.1196 -0.3464
 1354TIP3    H225698   2.406   0.098   8.610 -1.3471 -0.3289  0.8741
 1355TIP3   OH225699   2.165   5.342   2.685 -0.5497 -0.2756  0.0414
 1355TIP3    H125700   2.209   5.403   2.744 -1.0811 -0.7290  0.9392
 1355TIP3    H225701   2.151   5.263   2.738 -1.7246 -0.4257 -0.4555
 1356TIP3   OH225702   3.680   5.212   2.556  0.4693 -0.4542 -0.6386
 1356TIP3    H125703   3.586   5.213   2.578  0.1108  0.4631 -2.0097
 1356TIP3    H225704   3.725   5.220   2.640 -0.7635  1.5239 -0.0872
 1357TIP3   OH225705   5.173   5.298   1.623 -1.0654  1.1725 -0.3163
 1357TIP3    H125706   5.234   5.348   1.676 -1.3559  0.7139  0.4726
 1357TIP3    H225707   5.086   5.320   1.659 -1.1268 -0.9483  1.0444
 1358TIP3   OH225708   1.296   2.775   0.224 -0.3104 -0.0978 -0.4361
 1358TIP3    H125709   1.292   2.858   0.273 -0.4718 -0.9847  1.1149
 1358TIP3    H225710   1.285   2.801   0.133  1.3449  1.7704 -0.1783
 1359TIP3   OH225711   3.981   0.792   0.462  0.3232 -0.3649 -0.5753
 1359TIP3    H125712   3.913   0.781   0.528 -0.8379 -0.3405 -1.7371
 1359TIP3    H225713   4.032   0.867   0.493 -2.3589  1.9668 -1.4402
 1360TIP3   OH225714   4.407   5.497   0.054  0.3936  0.1146  0.3860
 1360TIP3    H125715   4.325   5.450   0.071  0.4327  0.2574  0.9898
 1360TIP3    H225716   4.473   5.450   0.106  0.6735  0.0773  0.0017
 1361TIP3   OH225717   5.742   3.377   0.922 -0.4009  0.0335 -0.3010
 1361TIP3    H125718   5.756   3.357   0.829 -1.0693  0.4753 -0.5088
 1361TIP3    H225719   5.705   3.466   0.922  1.8638  1.0609  0.5365
 1362TIP3   OH225720   3.259   4.087   7.783 -0.0121  0.3285 -0.0502
 1362TIP3    H125721   3.311   4.163   7.809 -0.9894  0.7133  0.8675
 1362TIP3    H225722   3.173   4.101   7.823 -0.8084 -0.3455 -1.4092
 1363TIP3   OH225723   6.248   3.530   2.091 -0.3918  0.4446  0.1830
 1363TIP3    H125724   6.306   3.595   2.051  0.9876 -0.9200 -0.1089
 1363TIP3    H225725   6.170   3.531   2.035  0.7860 -0.1596 -1.5801
 1364TIP3   OH225726   5.533   1.664   3.689 -0.1377 -0.2356 -0.2000
 1364TIP3    H125727   5.447   1.665   3.647 -0.2306  0.4843 -0.0089
 1364TIP3    H225728   5.589   1.619   3.626 -0.2253  1.0367 -1.2306
 1365TIP3   OH225729   5.970   3.822   4.155  0.2297  0.0326 -0.4232
 1365TIP3    H125730   5.925   3.905   4.139  0.9459  1.0260  2.2900
 1365TIP3    H225731   6.062   3.846   4.166  0.1848 -0.7356  2.4582
 1366TIP3   OH225732   5.809   6.166   7.806  0.1053  0.5267  0.2264
 1366TIP3    H125733   5.791   6.201   7.893  0.2228  0.1493  0.4074
 1366TIP3    H225734   5.900   6.135   7.812  0.1036  0.4783 -0.0225
 1367TIP3   OH225735   0.200   1.819   1.665 -0.1165  0.9455 -0.4216
 1367TIP3    H125736   0.155   1.845   1.746  0.2052  0.8988 -0.2259
 1367TIP3    H225737   0.130   1.806   1.602 -0.4016  0.6518 -0.0532
 1368TIP3   OH225738   3.363   0.586   0.954 -0.3971 -0.1135  0.4575
 1368TIP3    H125739   3.274   0.601   0.986 -0.8498 -0.5940 -0.5364
 1368TIP3    H225740   3.356   0.507   0.901 -0.3159  2.1349 -3.1884
 1369TIP3   OH225741   1.449   4.804   1.586 -0.0688 -0.3709 -0.6368
 1369TIP3    H125742   1.372   4.752   1.608 -0.4698 -0.7126 -2.6321
 1369TIP3    H225743   1.418   4.864   1.518  0.7311  1.5382  0.5952
 1370TIP3   OH225744   1.665   6.130   8.301  0.0996  0.1296  0.2379
 1370TIP3    H125745   1.581   6.086   8.287  0.0052  0.3779  0.0012
 1370TIP3    H225746   1.722   6.096   8.231 -0.1844  0.9015 -0.3845
 1371TIP3   OH225747   0.183   1.086   3.237 -0.0779 -0.2673 -0.1878
 1371TIP3    H125748   0.157   1.178   3.235 -1.0218 -0.4921  0.6870
 1371TIP3    H225749   0.268   1.084   3.194  0.4474  1.1769  0.7159
 1372TIP3   OH225750   4.710   4.596   8.244  0.1968 -0.1940 -0.1619
 1372TIP3    H125751   4.736   4.689   8.240  2.5778 -0.8009 -0.6012
 1372TIP3    H225752   4.681   4.576   8.155  0.0020  0.0400 -0.1534
 1373TIP3   OH225753   5.773   0.525   8.148  0.5505 -0.0294  0.2921
 1373TIP3    H125754   5.805   0.615   8.155  0.9979 -0.1041 -0.6705
 1373TIP3    H225755   5.838   0.481   8.093  1.3470 -1.4218  2.1905
 1374TIP3   OH225756   3.090   2.917   2.737 -0.2754 -0.1625  1.0934
 1374TIP3    H125757   3.013   2.972   2.724  0.6064  1.3137  1.8448
 1374TIP3    H225758   3.160   2.979   2.758  0.6858 -1.6124  2.3198
 1375TIP3   OH225759   0.713   4.761   2.011 -0.5718 -0.3978  0.4219
 1375TIP3    H125760   0.790   4.729   1.965 -0.4374  1.2754 -0.6291
 1375TIP3    H225761   0.639   4.717   1.969 -0.3999  0.6161 -1.0148
 1376TIP3   OH225762   6.263   5.702   0.688 -0.3461  0.0098  0.0630
 1376TIP3    H125763   6.257   5.790   0.725 -1.8719  0.1745 -0.5179
 1376TIP3    H225764   6.206   5.649   0.744  0.4695 -0.6059  0.3394
 1377TIP3   OH225765   6.378   2.126   0.585 -0.4361 -0.1817 -0.3934
 1377TIP3    H125766   6.406   2.173   0.664 -0.9353 -1.2618  0.4414
 1377TIP3    H225767   6.374   2.194   0.518  1.2291  0.5375  0.1793
 1378TIP3   OH225768   1.366   5.411   2.879 -0.2250  0.4726 -0.0245
 1378TIP3    H125769   1.363   5.331   2.931  0.0527 -0.3563 -1.2505
 1378TIP3    H225770   1.455   5.415   2.845 -0.7353  0.3269 -1.4437
 1379TIP3   OH225771   4.934   0.334   2.523  0.5884 -0.0888 -0.5486
 1379TIP3    H125772   4.847   0.351   2.559  0.2197  0.4055 -1.6494
 1379TIP3    H225773   4.992   0.342   2.599  0.0128  2.4789 -0.2875
 1380TIP3   OH225774   0.165   5.412   8.558 -0.3712 -0.1936 -0.4153
 1380TIP3    H125775   0.161   5.316   8.561 -0.4303 -0.2242 -1.1962
 1380TIP3    H225776   0.258   5.431   8.550 -0.4870 -0.2785 -2.2987
 1381TIP3   OH225777   2.030   6.327   2.782  0.4086 -1.3372  0.0941
 1381TIP3    H125778   1.945   6.371   2.779  1.3299  0.5078 -2.5762
 1381TIP3    H225779   2.094   6.398   2.783  2.0153 -2.6617  3.0305
 1382TIP3   OH225780   6.084   1.948   3.277  0.4805  0.0597 -0.2398
 1382TIP3    H125781   6.009   1.889   3.286  2.1425 -2.0761  0.7081
 1382TIP3    H225782   6.131   1.914   3.200  2.0884 -0.6870  1.0091
 1383TIP3   OH225783   5.286   3.056   2.540  0.5943  0.6561  0.0007
 1383TIP3    H125784   5.244   3.002   2.473  1.6551  0.6387 -0.6815
 1383TIP3    H225785   5.294   3.142   2.501  0.2788  0.9208  0.5106
 1384TIP3   OH225786   4.160   0.048   2.852 -0.2496 -0.9866  0.4491
 1384TIP3    H125787   4.221  -0.025   2.847  0.9826  0.0492 -0.0208
 1384TIP3    H225788   4.214   0.126   2.841 -1.4834  0.0328  1.2996
 1385TIP3   OH225789   5.717   2.120   8.469  0.1067 -0.7209  0.6089
 1385TIP3    H125790   5.658   2.085   8.535 -0.8389  1.5935  1.0818
 1385TIP3    H225791   5.800   2.073   8.484 -0.5083 -1.3107  2.4591
 1386TIP3   OH225792   0.527   6.121   3.645  0.1076 -0.0230 -0.1544
 1386TIP3    H125793   0.570   6.070   3.576  1.3881 -2.5696  2.3135
 1386TIP3    H225794   0.595   6.134   3.711 -1.0078  2.4965  0.6144
 1387TIP3   OH225795   4.675   0.095   1.742 -0.0633  0.4130 -0.5568
 1387TIP3    H125796   4.611   0.032   1.708 -2.6586  0.7769  3.0364
 1387TIP3    H225797   4.751   0.042   1.767  0.2046 -0.3632 -2.7916
 1388TIP3   OH225798   0.214   2.285   0.046 -0.3796  0.2656 -0.4366
 1388TIP3    H125799   0.201   2.203   0.094 -2.0522  0.8903  0.2417
 1388TIP3    H225800   0.142   2.288  -0.017 -0.1404  1.0651 -0.6824
 1389TIP3   OH225801   2.219   0.119   1.196 -0.1308  0.7560  0.4507
 1389TIP3    H125802   2.158   0.168   1.141 -0.4009  1.7048  1.5728
 1389TIP3    H225803   2.218   0.164   1.280  0.8465 -0.2231  1.0152
 1390TIP3   OH225804   6.488   3.791   0.645  0.3137 -0.2488  0.0721
 1390TIP3    H125805   6.477   3.828   0.733 -1.1736 -2.5541  0.9577
 1390TIP3    H225806   6.400   3.790   0.608  0.6407 -0.9134 -0.7363
 1391TIP3   OH225807   6.270   4.234   8.096 -0.2910  0.4040  0.0944
 1391TIP3    H125808   6.190   4.184   8.113  0.1530 -0.5861 -0.6630
 1391TIP3    H225809   6.331   4.206   8.164 -0.4407  0.8435  0.4137
 1392TIP3   OH225810   1.278   3.669   2.529 -0.1368  0.2371 -0.0589
 1392TIP3    H125811   1.298   3.728   2.602  0.0012  1.0210 -0.7063
 1392TIP3    H225812   1.323   3.588   2.550  2.2184  1.3232 -0.5633
 1393TIP3   OH225813   0.821   4.111   8.637  0.4370 -0.4306 -0.1450
 1393TIP3    H125814   0.902   4.074   8.603 -0.9140 -2.2293 -1.6524
 1393TIP3    H225815   0.791   4.171   8.570  0.3464 -0.0231  0.2559
 1394TIP3   OH225816   4.529   0.159   0.323 -0.0916 -0.2492 -0.3772
 1394TIP3    H125817   4.591   0.179   0.393  1.0337 -1.8582 -0.8443
 1394TIP3    H225818   4.567   0.199   0.245 -1.3881  1.6193 -0.1146
 1395TIP3   OH225819   3.917   4.042   1.976 -0.0455 -0.0393 -0.3032
 1395TIP3    H125820   3.874   4.123   2.003 -0.2867 -0.5780  1.0018
 1395TIP3    H225821   3.976   4.020   2.048  0.9699 -0.3557 -1.2037
 1396TIP3   OH225822   2.173   1.126   1.958  0.4693  0.7984  0.3677
 1396TIP3    H125823   2.131   1.067   1.895 -0.7379  1.0196  0.9246
 1396TIP3    H225824   2.173   1.077   2.041  1.8825  0.5756  0.2513
 1397TIP3   OH225825   3.609   1.275   0.054  0.2718  0.2734 -0.1534
 1397TIP3    H125826   3.561   1.249  -0.025  1.6250 -1.8686 -0.3339
 1397TIP3    H225827   3.545   1.267   0.125 -0.2368 -0.4274 -0.6785
 1398TIP3   OH225828   1.296   2.502   0.260 -0.2910  0.3030  0.1910
 1398TIP3    H125829   1.385   2.513   0.227 -0.1834 -1.0478 -0.0273
 1398TIP3    H225830   1.255   2.588   0.250  1.0719  1.0246  0.5721
 1399TIP3   OH225831   5.611   2.186   0.345  0.4258  0.0725  0.3904
 1399TIP3    H125832   5.590   2.193   0.439 -0.6746  1.6310  0.0706
 1399TIP3    H225833   5.526   2.192   0.302  0.9249 -0.6302 -0.7262
 1400TIP3   OH225834   0.330   1.089   1.095 -0.5630 -0.1467  0.1361
 1400TIP3    H125835   0.261   1.061   1.035  1.1220  2.8932 -3.6582
 1400TIP3    H225836   0.393   1.017   1.094 -0.3593 -0.0176 -2.2623
 1401TIP3   OH225837   2.104   2.887   2.503  0.3108  0.3102  0.3152
 1401TIP3    H125838   2.023   2.892   2.554 -1.1035 -0.6446 -1.6711
 1401TIP3    H225839   2.119   2.793   2.493  0.3267  0.4480 -1.2558
 1402TIP3   OH225840   3.585   5.952   3.285 -0.4281 -0.5195  0.2562
 1402TIP3    H125841   3.566   6.028   3.340  2.8703 -0.0223  0.9423
 1402TIP3    H225842   3.568   5.983   3.196 -0.6442  0.4888  0.6322
 1403TIP3   OH225843   0.541   4.318   2.307  0.0558 -0.4200  0.2131
 1403TIP3    H125844   0.523   4.234   2.350 -1.5166 -0.0738  0.2932
 1403TIP3    H225845   0.632   4.336   2.329 -0.4798 -0.5549  2.9554
 1404TIP3   OH225846   2.866   1.734   0.487  0.2301 -0.1628 -0.1284
 1404TIP3    H125847   2.843   1.734   0.394 -0.4382 -0.8650  0.0314
 1404TIP3    H225848   2.804   1.794   0.528 -0.0583 -0.5489  0.0024
 1405TIP3   OH225849   0.982   6.574   1.364  0.3442  0.6697  0.1107
 1405TIP3    H125850   1.067   6.575   1.320  1.1127  1.8052  1.5273
 1405TIP3    H225851   0.935   6.649   1.327  0.3310  0.6175  0.0210
 1406TIP3   OH225852   3.172   4.117   0.304  0.6690 -0.6931 -0.2634
 1406TIP3    H125853   3.238   4.049   0.286  0.9825 -0.1925 -1.0531
 1406TIP3    H225854   3.088   4.072   0.296  0.8927 -1.1755  0.0445
 1407TIP3   OH225855   6.142   0.429   3.082  0.2169  0.2496 -0.2334
 1407TIP3    H125856   6.223   0.441   3.132  0.7712 -0.7818 -0.8510
 1407TIP3    H225857   6.171   0.422   2.991 -0.4196 -1.3492 -0.3469
 1408TIP3   OH225858   5.595   3.421   8.078 -0.0022  0.0410  0.2251
 1408TIP3    H125859   5.611   3.329   8.059 -0.5748 -0.1999  0.8531
 1408TIP3    H225860   5.560   3.457   7.996 -0.0137 -0.3624  0.0491
 1409TIP3   OH225861   4.122   3.444   1.369 -0.6007  0.1221 -0.2965
 1409TIP3    H125862   4.141   3.478   1.457 -2.5483  1.2269 -0.2487
 1409TIP3    H225863   4.090   3.355   1.385 -2.1848  0.7559  0.2876
 1410TIP3   OH225864   4.254   6.851   8.253 -0.5219 -0.1137  0.2465
 1410TIP3    H125865   4.238   6.935   8.210 -0.1338 -0.3160 -0.3019
 1410TIP3    H225866   4.276   6.792   8.181 -0.5051 -0.6121  0.6630
 1411TIP3   OH225867   5.513   0.059   8.486 -0.2954 -0.1655  0.3130
 1411TIP3    H125868   5.486   0.039   8.397  0.4725  0.5084 -0.0782
 1411TIP3    H225869   5.607   0.077   8.480 -0.2882  0.1715  1.2086
 1412TIP3   OH225870   5.320   6.534   3.014 -0.0744 -0.0613  0.0840
 1412TIP3    H125871   5.277   6.463   3.062  0.9124  0.3690  1.6994
 1412TIP3    H225872   5.391   6.563   3.072  0.8982  0.8236 -1.4510
 1413TIP3   OH225873   6.850   1.254   2.460 -0.1210  0.0231  0.4207
 1413TIP3    H125874   6.790   1.265   2.387  0.4438  0.0776 -0.0368
 1413TIP3    H225875   6.859   1.159   2.470  0.9981  0.0066 -0.5794
 1414TIP3   OH225876   6.127   2.125   8.427 -0.1818  0.3190  0.3026
 1414TIP3    H125877   6.127   2.160   8.338  0.0278  0.0567  0.1970
 1414TIP3    H225878   6.076   2.045   8.422 -0.4603  0.4798  0.4943
 1415TIP3   OH225879   4.430   5.839   2.388  0.1083 -0.4537  0.0881
 1415TIP3    H125880   4.405   5.860   2.478  1.2164  2.6832 -0.2282
 1415TIP3    H225881   4.523   5.861   2.383 -0.1817  0.5247 -2.0673
 1416TIP3   OH225882   2.797   1.174   3.389 -0.3680  0.6616  0.3793
 1416TIP3    H125883   2.841   1.172   3.474  1.8951 -0.4287 -0.7321
 1416TIP3    H225884   2.827   1.256   3.349 -1.2576  1.0646  0.5030
 1417TIP3   OH225885   5.404   2.351   2.010  0.0589 -0.0480 -0.1547
 1417TIP3    H125886   5.437   2.440   2.028  0.8208  0.5004 -3.5459
 1417TIP3    H225887   5.316   2.365   1.975  0.4696 -0.4876 -1.4356
 1418TIP3   OH225888   4.703   4.132   0.616 -0.0940  0.5091 -0.2257
 1418TIP3    H125889   4.614   4.155   0.589 -0.4472  1.0928  1.3120
 1418TIP3    H225890   4.691   4.067   0.685  0.6583  0.7084  0.1053
 1419TIP3   OH225891   0.642   4.411   3.257 -0.0276  0.3504 -0.1322
 1419TIP3    H125892   0.691   4.332   3.280 -0.5664 -0.2358 -0.9318
 1419TIP3    H225893   0.610   4.444   3.341 -0.3794 -0.6886  0.1653
 1420TIP3   OH225894   0.755   5.486   0.485 -0.0963  0.4032 -0.1021
 1420TIP3    H125895   0.687   5.537   0.530  1.1227  1.0741  1.0485
 1420TIP3    H225896   0.833   5.541   0.490  0.7597 -0.7415 -0.6016
 1421TIP3   OH225897   3.460   3.556   1.000 -0.2023  0.1577 -0.2943
 1421TIP3    H125898   3.402   3.602   0.938  0.2128  0.0692 -0.7526
 1421TIP3    H225899   3.535   3.615   1.010 -0.0082 -0.0870 -0.3105
 1422TIP3   OH225900   3.209   4.535   1.087  0.3237 -0.5450  0.2298
 1422TIP3    H125901   3.229   4.515   0.996  2.7407 -0.7615  0.7213
 1422TIP3    H225902   3.272   4.603   1.111  0.3301 -1.0908  1.9513
 1423TIP3   OH225903   2.486   5.049   0.856  0.2220 -1.0678  0.7919
 1423TIP3    H125904   2.415   5.113   0.865 -0.0111 -1.1072 -0.6242
 1423TIP3    H225905   2.545   5.069   0.929  0.2447  0.8732  0.3111
 1424TIP3   OH225906   3.186   5.353   0.301  0.0303 -1.0829  0.2206
 1424TIP3    H125907   3.134   5.363   0.380 -0.3688  0.5372 -0.2174
 1424TIP3    H225908   3.147   5.278   0.256 -0.6270 -1.1463  0.8773
 1425TIP3   OH225909   6.191   5.272   0.309 -0.2414  0.2031  0.0055
 1425TIP3    H125910   6.248   5.278   0.386 -0.3487 -0.1337  0.1153
 1425TIP3    H225911   6.223   5.340   0.250  1.0763 -0.7848 -0.4723
 1426TIP3   OH225912   4.935   0.994   0.580  0.0170  0.2310 -0.0476
 1426TIP3    H125913   4.922   1.086   0.603 -1.3908 -0.4760  2.3338
 1426TIP3    H225914   4.984   0.957   0.654 -0.1592 -1.1100 -0.5606
 1427TIP3   OH225915   5.439   3.492   0.211  0.4829 -0.8487 -0.2089
 1427TIP3    H125916   5.357   3.514   0.166  0.1426 -0.6383  0.4854
 1427TIP3    H225917   5.466   3.575   0.251  0.7936 -1.0210 -0.0623
 1428TIP3   OH225918   2.452   0.585   3.172 -0.3548 -0.2128 -0.1944
 1428TIP3    H125919   2.496   0.658   3.215  0.7727 -0.2237 -1.2728
 1428TIP3    H225920   2.393   0.549   3.239 -0.2861  1.1277  0.6139
 1429TIP3   OH225921   3.164   0.151   0.817 -0.0028 -0.3806  0.1953
 1429TIP3    H125922   3.176   0.246   0.825  0.3352 -0.2505 -1.3728
 1429TIP3    H225923   3.069   0.139   0.816 -0.0933  0.1819 -1.4852
 1430TIP3   OH225924   4.685   3.904   3.373 -0.3804 -0.4524  0.1490
 1430TIP3    H125925   4.659   3.866   3.289 -0.6792  0.9609 -0.4293
 1430TIP3    H225926   4.609   3.954   3.401  0.4772  0.9231  0.1289
 1431TIP3   OH225927   2.765   6.530   1.559 -0.3335 -0.7676  0.3918
 1431TIP3    H125928   2.756   6.610   1.611 -0.3263  0.4177 -1.3278
 1431TIP3    H225929   2.677   6.514   1.525 -0.2292 -1.2001  0.3183
 1432TIP3   OH225930   2.159   3.468   1.252  0.3547 -0.2067  0.5097
 1432TIP3    H125931   2.210   3.420   1.316 -1.1957 -0.7727  1.3748
 1432TIP3    H225932   2.214   3.543   1.229  1.8142 -1.1188  0.9110
 1433TIP3   OH225933   4.948   6.297   8.329 -0.7757  0.1917 -1.1303
 1433TIP3    H125934   4.868   6.318   8.378 -1.5521  1.9255 -3.0160
 1433TIP3    H225935   4.926   6.314   8.238  1.7156  0.5528 -1.7365
 1434TIP3   OH225936   4.023   5.149   2.985 -0.2081 -0.1107 -0.4350
 1434TIP3    H125937   3.976   5.185   2.909 -0.3311 -0.0156 -0.3169
 1434TIP3    H225938   4.111   5.186   2.978  0.0186 -0.7224 -0.9588
 1435TIP3   OH225939   4.943   2.427   3.964 -0.1279  0.1912  0.0182
 1435TIP3    H125940   4.910   2.340   3.985  1.6319 -0.5045 -0.0078
 1435TIP3    H225941   5.037   2.422   3.978  0.0844  1.9323 -0.5373
 1436TIP3   OH225942   5.267   1.457   0.874  0.6107 -0.2477 -0.0188
 1436TIP3    H125943   5.184   1.471   0.829  0.3326 -1.0662  0.2100
 1436TIP3    H225944   5.295   1.370   0.846  1.0545 -0.2497  0.4178
 1437TIP3   OH225945   0.533   1.181   2.164 -0.4166  0.3955  0.4858
 1437TIP3    H125946   0.565   1.217   2.081  0.4055  0.4052  0.7961
 1437TIP3    H225947   0.463   1.241   2.191 -1.7245 -0.4171 -0.9203
 1438TIP3   OH225948   4.229   5.958   0.932  0.0581  0.4517 -0.0992
 1438TIP3    H125949   4.169   6.022   0.971  1.4255  1.2304  0.8039
 1438TIP3    H225950   4.204   5.874   0.970 -1.7158  0.4179 -1.2400
 1439TIP3   OH225951   5.183   6.248   2.533 -0.1880  0.3356  0.1229
 1439TIP3    H125952   5.223   6.168   2.498 -2.9583 -1.9026  1.5994
 1439TIP3    H225953   5.231   6.264   2.615 -0.1936 -0.4082  0.2868
 1440TIP3   OH225954   2.350   0.853   0.309 -0.4594  0.1162 -0.2978
 1440TIP3    H125955   2.297   0.932   0.321 -1.0848  0.0729 -2.4181
 1440TIP3    H225956   2.379   0.830   0.397 -3.3196  0.6044  0.8815
 1441TIP3   OH225957   1.879   3.276   1.388  0.4350 -0.0566  0.0310
 1441TIP3    H125958   1.945   3.344   1.379  0.0820  0.0763 -2.0203
 1441TIP3    H225959   1.900   3.213   1.319 -2.1709  0.5679 -1.4894
 1442TIP3   OH225960   2.737   3.124   0.534  0.1469  0.3549  0.4609
 1442TIP3    H125961   2.728   3.197   0.595 -0.7293  0.8979 -0.2787
 1442TIP3    H225962   2.777   3.163   0.456 -0.6727  0.1485 -0.0781
 1443TIP3   OH225963   2.649   3.809   3.040  0.3729 -0.0797  0.2054
 1443TIP3    H125964   2.689   3.724   3.061  0.2693 -0.8283 -2.3068
 1443TIP3    H225965   2.714   3.873   3.070 -0.0796 -0.8939  3.2876
 1444TIP3   OH225966   2.708   1.831   1.411 -0.0550 -0.4461  0.3546
 1444TIP3    H125967   2.715   1.890   1.487 -0.0048  0.5648 -0.4061
 1444TIP3    H225968   2.791   1.784   1.410 -0.3924 -1.0935  1.4148
 1445TIP3   OH225969   6.047   6.772   2.988  0.0794 -0.1848 -0.0629
 1445TIP3    H125970   5.990   6.696   2.976  0.4268 -0.2826 -1.2344
 1445TIP3    H225971   6.112   6.742   3.053 -0.4602 -0.4841  0.3511
 1446TIP3   OH225972   2.286   0.237   3.820 -0.5094 -0.0561  0.6674
 1446TIP3    H125973   2.343   0.254   3.895  0.5364  1.8256 -0.4757
 1446TIP3    H225974   2.346   0.211   3.750 -1.0221  1.6917 -0.4766
 1447TIP3   OH225975   0.697   2.529   0.431  0.2431 -0.0361 -0.4152
 1447TIP3    H125976   0.617   2.505   0.385  0.1165 -2.7567  1.0461
 1447TIP3    H225977   0.764   2.472   0.394  1.6036  2.1422 -1.5519
 1448TIP3   OH225978   1.184   0.301   2.179  0.3144  0.1616  0.1780
 1448TIP3    H125979   1.273   0.335   2.172 -0.4198  2.1588 -0.3630
 1448TIP3    H225980   1.194   0.214   2.216  2.6281 -0.4496 -1.6377
 1449TIP3   OH225981   2.998   2.162   2.417  0.5715 -0.0456  0.2184
 1449TIP3    H125982   3.017   2.243   2.371 -0.4503  0.5767  0.8384
 1449TIP3    H225983   2.959   2.105   2.351 -1.4850  1.0669  0.3784
 1450TIP3   OH225984   2.826   5.732   3.031 -0.3620 -0.6892 -0.0649
 1450TIP3    H125985   2.748   5.731   3.086  1.5598 -1.1593  2.8873
 1450TIP3    H225986   2.866   5.817   3.046 -0.4158 -0.3222 -1.7877
 1451TIP3   OH225987   0.394   3.305   1.437 -0.1995  0.6169  0.5000
 1451TIP3    H125988   0.482   3.325   1.469  0.2914 -1.1008  0.3429
 1451TIP3    H225989   0.340   3.306   1.516 -0.1423  2.0953  0.5427
 1452TIP3   OH225990   5.933   5.384   1.092 -0.5573  0.0029  0.0520
 1452TIP3    H125991   5.952   5.372   1.185  0.4223  1.1375  0.0146
 1452TIP3    H225992   5.841   5.411   1.090 -0.8717 -0.9678  0.5995
 1453TIP3   OH225993   0.855   0.260   0.244  0.0473 -0.2399 -0.7548
 1453TIP3    H125994   0.766   0.257   0.207  0.1612 -1.4385 -0.9633
 1453TIP3    H225995   0.869   0.352   0.264 -1.3624 -0.0618 -0.4496
 1454TIP3   OH225996   2.312   5.856   0.255  0.5292  0.0029  0.0733
 1454TIP3    H125997   2.239   5.890   0.203  0.1819 -1.9955 -0.8595
 1454TIP3    H225998   2.391   5.888   0.211  0.2358 -1.5763 -1.7366
 1455TIP3   OH225999   2.589   6.397   7.672  0.1007  0.1331  0.0243
 1455TIP3    H126000   2.616   6.477   7.625 -0.2497  0.7159  0.7978
 1455TIP3    H226001   2.620   6.410   7.761 -1.5153  0.2219  0.6124
 1456TIP3   OH226002   2.642   4.815   8.623  0.5337  0.0218  0.2635
 1456TIP3    H126003   2.644   4.822   8.719 -0.7203  0.0093  0.3082
 1456TIP3    H226004   2.578   4.881   8.596 -1.4373 -2.0137 -0.3327
 1457TIP3   OH226005   5.049   4.630   1.581  0.0240 -0.0508  0.2333
 1457TIP3    H126006   5.077   4.543   1.551  1.2490  0.3817  0.0481
 1457TIP3    H226007   4.957   4.619   1.605 -0.4843 -0.8714 -1.8738
 1458TIP3   OH226008   2.524   4.918   1.661 -0.4844  0.0540  0.4317
 1458TIP3    H126009   2.563   4.882   1.741  0.3474  2.2655  1.0781
 1458TIP3    H226010   2.505   4.841   1.607  2.4055 -1.2853  1.1762
 1459TIP3   OH226011   3.061   4.687   3.240  0.2630 -0.6954 -0.2545
 1459TIP3    H126012   3.156   4.681   3.254  0.3494 -0.2169 -0.6367
 1459TIP3    H226013   3.024   4.633   3.310  0.8445 -1.6416 -0.6408
 1460TIP3   OH226014   3.532   1.654   3.353 -0.0576 -0.1877  0.0789
 1460TIP3    H126015   3.440   1.641   3.373 -0.5809  2.7895  0.1075
 1460TIP3    H226016   3.542   1.623   3.263 -1.1450 -0.2690 -0.0212
 1461TIP3   OH226017   0.319   6.751   3.327 -0.3932 -0.4339 -0.3159
 1461TIP3    H126018   0.408   6.725   3.301  0.1591  0.5772  0.4692
 1461TIP3    H226019   0.321   6.748   3.423 -1.2010 -0.3738 -0.2973
 1462TIP3   OH226020   3.423   2.569   2.104 -0.3076 -0.2518  0.1517
 1462TIP3    H126021   3.388   2.519   2.030 -0.2566  1.5588 -1.1785
 1462TIP3    H226022   3.347   2.582   2.161 -0.0216 -3.0000  1.3033
 1463TIP3   OH226023   6.114   5.258   2.659  0.5467  0.2525  0.4188
 1463TIP3    H126024   6.135   5.167   2.676  1.0719  0.0785 -1.0862
 1463TIP3    H226025   6.198   5.304   2.664  0.4411  0.4823  0.1037
 1464TIP3   OH226026   1.192   3.149   8.334 -0.4927  0.1049 -0.0143
 1464TIP3    H126027   1.158   3.232   8.300  3.9651  2.0797 -0.4162
 1464TIP3    H226028   1.238   3.109   8.260 -0.2699 -1.3573  0.8728
 1465TIP3   OH226029   4.967   0.876   1.700 -0.4372 -0.2382  0.6938
 1465TIP3    H126030   4.896   0.813   1.714 -0.0986 -0.7760  0.0586
 1465TIP3    H226031   4.955   0.942   1.768 -1.5005 -0.3662  0.6405
 1466TIP3   OH226032   0.835   0.537   0.250 -0.2694 -0.0858  0.5647
 1466TIP3    H126033   0.892   0.606   0.285  0.7391 -1.2909  1.3967
 1466TIP3    H226034   0.747   0.564   0.273  0.1223  0.8553  1.0073
 1467TIP3   OH226035   3.738   0.194   7.830 -0.3664 -0.3519  0.7087
 1467TIP3    H126036   3.771   0.170   7.744  0.1629  0.8239  0.5567
 1467TIP3    H226037   3.757   0.288   7.838  0.0138 -0.5202  2.2728
 1468TIP3   OH226038   4.046   5.364   0.744 -0.6038 -0.4446  0.1201
 1468TIP3    H126039   4.062   5.270   0.749 -0.4420 -0.3580  1.9498
 1468TIP3    H226040   3.971   5.373   0.685 -0.6160 -1.7150 -0.0823
 1469TIP3   OH226041   1.539   5.435   8.469  0.3454 -0.4329 -0.0050
 1469TIP3    H126042   1.600   5.402   8.535 -0.8295 -2.4155  0.1882
 1469TIP3    H226043   1.506   5.356   8.426 -0.8934  0.6661 -1.1741
 1470TIP3   OH226044   0.470   1.175   2.939 -0.5396  0.4517 -0.1823
 1470TIP3    H126045   0.478   1.270   2.949 -2.0735  0.4933  1.1946
 1470TIP3    H226046   0.378   1.161   2.917 -0.7729 -0.7802  1.3715
 1471TIP3   OH226047   5.463   2.227   4.108 -0.3074 -0.2352  0.1839
 1471TIP3    H126048   5.388   2.169   4.118  0.3407 -1.4382 -1.4743
 1471TIP3    H226049   5.433   2.311   4.143 -1.6428 -1.2557  1.6146
 1472TIP3   OH226050   0.018   3.291   3.165 -0.2752  0.2658  1.0747
 1472TIP3    H126051  -0.065   3.275   3.121  0.7340 -0.2636 -0.7236
 1472TIP3    H226052   0.028   3.387   3.162 -0.3745  0.2617  0.4233
 1473TIP3   OH226053   0.127   1.343   3.312  0.6716 -0.4953 -0.1981
 1473TIP3    H126054   0.049   1.380   3.352 -0.5105 -2.5017 -0.5094
 1473TIP3    H226055   0.196   1.356   3.376 -0.1688  0.2856  0.5733
 1474TIP3   OH226056   5.265   4.597   0.453 -0.2656 -0.1873  0.1593
 1474TIP3    H126057   5.278   4.580   0.360 -0.4532 -0.4998  0.1889
 1474TIP3    H226058   5.184   4.551   0.475 -0.2949 -0.0020  0.4467
 1475TIP3   OH226059   6.075   4.153   8.604 -0.1481  0.0343 -0.5023
 1475TIP3    H126060   6.147   4.093   8.588  0.1444  0.4964 -0.9504
 1475TIP3    H226061   6.000   4.113   8.561 -0.6673 -1.4478  1.6150
 1476TIP3   OH226062   3.050   0.407   8.664 -0.5077  0.0165  0.3185
 1476TIP3    H126063   3.051   0.487   8.716  0.8328 -0.3885  0.9585
 1476TIP3    H226064   3.112   0.423   8.593  1.3281 -1.0927  1.5564
 1477TIP3   OH226065   1.808   6.286   0.070 -0.2742  0.0058 -0.2796
 1477TIP3    H126066   1.736   6.326   0.021 -0.4810  0.8268  0.6645
 1477TIP3    H226067   1.886   6.301   0.015 -0.6266  0.1796 -0.7364
 1478TIP3   OH226068   4.466   6.280   0.486 -0.6366 -0.6356 -0.5168
 1478TIP3    H126069   4.495   6.226   0.412 -1.9344 -2.9661  0.5698
 1478TIP3    H226070   4.372   6.264   0.492 -0.9749  1.3627  0.2459
 1479TIP3   OH226071   6.697   4.246   1.193  0.3578 -0.3040 -0.2772
 1479TIP3    H126072   6.774   4.189   1.195  0.7395  0.1899 -0.5739
 1479TIP3    H226073   6.681   4.262   1.101  0.8106  0.7820 -0.1904
 1480TIP3   OH226074   0.455   0.510   2.824 -0.5411  0.2478 -0.2022
 1480TIP3    H126075   0.543   0.540   2.847 -0.0970 -0.6965 -0.5845
 1480TIP3    H226076   0.430   0.564   2.749 -0.2897  0.5216 -0.0911
 1481TIP3   OH226077   3.563   1.111   2.595  0.0129  0.0894  0.5456
 1481TIP3    H126078   3.532   1.036   2.545  3.0897  0.0559 -1.5954
 1481TIP3    H226079   3.494   1.177   2.586 -0.6889 -0.8610 -1.5554
 1482TIP3   OH226080   4.007   1.153   1.591 -0.1800  0.3133 -0.1662
 1482TIP3    H126081   3.916   1.124   1.582 -0.0694 -0.8921  1.8723
 1482TIP3    H226082   4.060   1.075   1.573  0.4833  0.9855 -1.2585
 1483TIP3   OH226083   5.742   5.181   0.859 -0.1538 -0.6424 -0.5862
 1483TIP3    H126084   5.796   5.116   0.904  0.1198 -1.4275 -2.0147
 1483TIP3    H226085   5.661   5.185   0.911  0.8158 -0.2136  0.9740
 1484TIP3   OH226086   0.229   3.731   2.115 -0.0981  0.4167 -0.4888
 1484TIP3    H126087   0.281   3.764   2.042 -0.7936  0.9568 -0.7553
 1484TIP3    H226088   0.160   3.679   2.074  0.0966 -0.1082 -0.1547
 1485TIP3   OH226089   2.655   4.395   1.533  1.2389  0.6014 -0.8250
 1485TIP3    H126090   2.692   4.335   1.468 -2.0427 -0.0156 -2.3030
 1485TIP3    H226091   2.687   4.361   1.617 -0.8164 -3.7600 -1.5048
 1486TIP3   OH226092   2.369   2.843   0.517 -0.4385  0.0710 -0.1485
 1486TIP3    H126093   2.395   2.901   0.446 -1.4525  2.7503  1.5192
 1486TIP3    H226094   2.423   2.870   0.591 -0.1296 -1.9512  0.4431
 1487TIP3   OH226095   2.328   3.255   1.949 -0.0926 -1.1172  0.5488
 1487TIP3    H126096   2.364   3.227   1.865  2.6216  1.0679  0.8121
 1487TIP3    H226097   2.401   3.246   2.011 -0.7248  1.1113  1.7503
 1488TIP3   OH226098   0.150   6.714   8.628  0.1910  0.4268  0.8884
 1488TIP3    H126099   0.111   6.793   8.591  0.8575  0.0930 -0.6197
 1488TIP3    H226100   0.150   6.729   8.722 -0.5612  1.8122  0.6956
 1489TIP3   OH226101   4.469   0.629   2.971  0.2808  0.1935  0.3133
 1489TIP3    H126102   4.510   0.585   2.896  0.6015  0.0850  0.5515
 1489TIP3    H226103   4.511   0.590   3.048 -0.2080  0.1431  0.5577
 1490TIP3   OH226104   5.405   4.781   0.919  0.7149 -0.4298  0.4274
 1490TIP3    H126105   5.332   4.818   0.869  0.5193 -1.3699 -0.0068
 1490TIP3    H226106   5.394   4.816   1.007  0.2002  0.0660  0.1740
 1491TIP3   OH226107   2.317   6.040   1.592 -0.6273 -0.5063  0.1670
 1491TIP3    H126108   2.292   5.998   1.510 -0.4890  0.7664 -0.5439
 1491TIP3    H226109   2.253   6.008   1.656 -0.9242 -1.2628 -0.4913
 1492TIP3   OH226110   0.697   1.469   0.552  0.3850  0.2094 -0.6899
 1492TIP3    H126111   0.759   1.482   0.624 -0.2023  1.1611 -0.3340
 1492TIP3    H226112   0.731   1.393   0.504  1.0784 -0.1082  0.2757
 1493TIP3   OH226113   1.387   0.894   1.963 -0.6746 -0.0909 -0.0831
 1493TIP3    H126114   1.469   0.847   1.948  0.7529  2.7839 -2.2791
 1493TIP3    H226115   1.390   0.918   2.056  1.6454  0.9815 -0.3766
 1494TIP3   OH226116   3.548   4.706   0.539 -0.2167  0.1824 -0.3082
 1494TIP3    H126117   3.546   4.746   0.452  2.5571 -0.4426 -0.7594
 1494TIP3    H226118   3.639   4.715   0.567 -0.7401 -0.8785  1.9598
 1495TIP3   OH226119   1.534   5.332   2.158  0.2680  0.5838 -0.3979
 1495TIP3    H126120   1.528   5.242   2.189  0.3742  0.7974  0.2595
 1495TIP3    H226121   1.625   5.357   2.176 -0.5154  1.8610  2.4268
 1496TIP3   OH226122   1.404   5.168   3.253 -0.2053  0.2628 -0.2338
 1496TIP3    H126123   1.451   5.086   3.269  0.8698  0.4536 -2.1314
 1496TIP3    H226124   1.473   5.233   3.242 -0.9814  0.9774 -0.9756
 1497TIP3   OH226125   1.214   4.907   8.417 -0.1854 -0.4132 -0.0387
 1497TIP3    H126126   1.220   4.972   8.347  0.0791 -0.3077  0.0801
 1497TIP3    H226127   1.288   4.849   8.403 -0.2038 -0.4661  0.0777
 1498TIP3   OH226128   5.759   4.151   8.042  0.1130  0.1518  0.1891
 1498TIP3    H126129   5.831   4.209   8.014  0.4520  0.1733  1.0684
 1498TIP3    H226130   5.801   4.067   8.058 -0.0371  0.1871  0.7941
 1499TIP3   OH226131   3.942   0.181   0.341 -0.8050 -0.0678  0.7148
 1499TIP3    H126132   3.955   0.124   0.417  2.7727 -1.4122 -0.7055
 1499TIP3    H226133   3.871   0.240   0.367  0.6243 -0.0014  5.3475
 1500TIP3   OH226134   0.179   3.219   3.401 -0.1685 -0.0519 -0.5831
 1500TIP3    H126135   0.122   3.244   3.329  0.6646 -0.6311 -1.4648
 1500TIP3    H226136   0.263   3.197   3.360  0.7607  0.9469  0.6899
 1501TIP3   OH226137   3.046   2.695   7.888  0.0257 -0.8224  0.3222
 1501TIP3    H126138   3.000   2.633   7.832 -0.7702  0.4264 -0.4645
 1501TIP3    H226139   3.115   2.732   7.832 -1.7836  1.6264 -0.4690
 1502TIP3   OH226140   5.128   0.367   0.299 -0.3240  0.5993 -0.2433
 1502TIP3    H126141   5.039   0.343   0.327 -0.7157  3.9053  1.8595
 1502TIP3    H226142   5.158   0.429   0.365  2.9492  0.9011 -1.8213
 1503TIP3   OH226143   0.339   6.706   3.603 -0.3369  0.8108  0.6042
 1503TIP3    H126144   0.430   6.733   3.609  0.5129 -1.3913 -1.1136
 1503TIP3    H226145   0.333   6.629   3.661 -1.2124  1.1285  0.9594
 1504TIP3   OH226146   0.579   5.467   3.325  0.5401 -0.2715 -0.3026
 1504TIP3    H126147   0.572   5.427   3.239 -0.2831  1.5250 -1.1143
 1504TIP3    H226148   0.636   5.408   3.374 -0.2198 -2.1365 -1.5623
 1505TIP3   OH226149   5.849   0.755   2.275 -0.5325 -0.3010 -0.2296
 1505TIP3    H126150   5.919   0.730   2.335  0.4510  0.3494 -1.0672
 1505TIP3    H226151   5.783   0.687   2.285  0.9271 -1.8366 -0.5725
 1506TIP3   OH226152   6.225   6.316   3.645 -0.7754  0.0825 -0.2760
 1506TIP3    H126153   6.151   6.368   3.613  0.0550  0.6006 -1.4494
 1506TIP3    H226154   6.299   6.377   3.641  0.1729 -1.0872 -1.4030
 1507TIP3   OH226155   4.970   3.553   2.259 -0.0087 -0.0622  0.3652
 1507TIP3    H126156   5.005   3.467   2.234 -0.1372  0.0744 -0.3201
 1507TIP3    H226157   4.898   3.534   2.318 -0.4812 -0.4652 -0.3298
 1508TIP3   OH226158   0.764   5.100   1.404 -0.1823  0.5632 -0.2745
 1508TIP3    H126159   0.791   5.185   1.369  0.4611  0.4306 -0.1176
 1508TIP3    H226160   0.751   5.115   1.498  0.8240  0.2909 -0.0809
 1509TIP3   OH226161   6.497   4.902   8.018 -0.3277  0.1023 -0.2359
 1509TIP3    H126162   6.476   4.821   7.972 -0.8190 -0.7739  1.4438
 1509TIP3    H226163   6.518   4.964   7.949 -1.0381 -1.1386 -1.6215
 1510TIP3   OH226164   0.224   3.193   2.763  0.2599 -0.0718  0.2056
 1510TIP3    H126165   0.251   3.242   2.685  1.3385  0.5931  0.9647
 1510TIP3    H226166   0.134   3.222   2.780 -0.4587 -1.1699 -1.4962
 1511TIP3   OH226167   2.573   0.243   1.503  0.2427  0.1659 -0.1221
 1511TIP3    H126168   2.501   0.279   1.556  0.0488 -1.5328  0.8483
 1511TIP3    H226169   2.648   0.242   1.562  1.0977  1.8141 -1.0971
 1512TIP3   OH226170   0.947   3.054   3.138  0.2256 -0.0721  0.7170
 1512TIP3    H126171   1.021   2.996   3.156  2.0006  1.7344 -0.3060
 1512TIP3    H226172   0.883   3.035   3.206  0.3080 -3.7775 -0.0701
 1513TIP3   OH226173   4.832   6.165   1.004  0.2355 -0.2975 -0.4505
 1513TIP3    H126174   4.748   6.128   0.978  0.4692 -0.2702 -1.2789
 1513TIP3    H226175   4.841   6.141   1.097 -1.3863  1.0350  0.1108
 1514TIP3   OH226176   6.217   1.842   4.303 -0.4247  0.0095  0.0096
 1514TIP3    H126177   6.170   1.758   4.304 -2.7399  1.2085  0.6865
 1514TIP3    H226178   6.185   1.888   4.380  3.0948  0.4198  1.3862
 1515TIP3   OH226179   3.370   0.763   3.432 -0.3373 -0.2967  0.2631
 1515TIP3    H126180   3.426   0.787   3.505  0.5885 -0.9912 -0.1943
 1515TIP3    H226181   3.418   0.792   3.354 -1.4241  0.6722 -0.0827
 1516TIP3   OH226182   0.961   6.880   1.433 -0.1620  0.4176 -0.3809
 1516TIP3    H126183   0.940   6.818   1.503 -2.3160  1.6078  0.1272
 1516TIP3    H226184   0.878   6.923   1.414  1.1603  2.9008 -0.9530
 1517TIP3   OH226185   1.032   4.612   0.629 -0.7265  0.3025  0.2625
 1517TIP3    H126186   1.049   4.564   0.710 -1.9024 -0.5104  0.0599
 1517TIP3    H226187   1.042   4.704   0.653  0.7034  0.0102  0.8766
 1518TIP3   OH226188   5.929   4.035   2.478  0.4201  0.0414  0.5477
 1518TIP3    H126189   5.909   4.124   2.449 -1.6310 -0.5223  0.1194
 1518TIP3    H226190   5.986   4.048   2.555  0.0290  1.7162  0.5978
 1519TIP3   OH226191   0.279   0.760   0.400  0.8515  0.0522 -0.2278
 1519TIP3    H126192   0.261   0.842   0.446  0.5225  0.7950 -1.6437
 1519TIP3    H226193   0.192   0.724   0.381  0.9909 -0.8397  0.7042
 1520TIP3   OH226194   2.468   5.288   2.155 -0.5751 -0.0367  0.7045
 1520TIP3    H126195   2.524   5.289   2.078 -1.4647 -0.9488  0.0196
 1520TIP3    H226196   2.501   5.359   2.210 -0.6132  1.3534 -1.0101
 1521TIP3   OH226197   6.263   1.793   4.043  0.2973 -0.1286 -0.0754
 1521TIP3    H126198   6.238   1.815   4.133 -0.8881  2.4699 -0.9323
 1521TIP3    H226199   6.353   1.824   4.034  1.1749 -2.2589  0.7286
 1522TIP3   OH226200   4.865   4.079   1.114  0.5361 -0.2514 -0.0199
 1522TIP3    H126201   4.858   3.998   1.064 -0.2164 -0.8070  0.9295
 1522TIP3    H226202   4.888   4.146   1.050  0.4161 -1.0821 -0.9502
 1523TIP3   OH226203   5.107   2.529   2.693 -0.4466  0.8568  0.2165
 1523TIP3    H126204   5.197   2.503   2.714 -0.2090  1.2352 -0.3145
 1523TIP3    H226205   5.052   2.470   2.746  0.0700 -0.8490 -1.0553
 1524TIP3   OH226206   5.375   2.553   2.468 -0.1451 -0.1551 -0.1866
 1524TIP3    H126207   5.388   2.516   2.555 -0.7778 -0.1589 -0.0912
 1524TIP3    H226208   5.449   2.613   2.456  1.5028 -2.1915 -0.7534
 1525TIP3   OH226209   6.307   1.103   3.409 -0.0602  0.5122 -0.0381
 1525TIP3    H126210   6.277   1.161   3.480 -0.4213  0.2806 -0.0008
 1525TIP3    H226211   6.381   1.149   3.371  0.3323  0.4987  0.6924
 1526TIP3   OH226212   1.976   2.126   1.555 -0.4389 -0.1025 -0.1492
 1526TIP3    H126213   1.952   2.035   1.538 -0.6234  0.0833 -0.9679
 1526TIP3    H226214   1.894   2.168   1.580 -0.3487 -0.1670  0.2546
 1527TIP3   OH226215   1.844   2.611   0.036 -0.5655  0.2766  0.0356
 1527TIP3    H126216   1.824   2.692  -0.012  1.5981  0.4500 -0.6605
 1527TIP3    H226217   1.839   2.543  -0.031 -0.6063  0.0765  0.2439
 1528TIP3   OH226218   4.221   1.115   3.241  0.2303 -0.3898 -0.2249
 1528TIP3    H126219   4.186   1.179   3.303  1.0056 -0.8611  0.7464
 1528TIP3    H226220   4.180   1.137   3.158 -1.9349 -0.6008  0.7175
 1529TIP3   OH226221   0.581   1.568   3.241  0.0476 -0.1621  0.0475
 1529TIP3    H126222   0.666   1.598   3.273 -0.5164  0.4886  0.9823
 1529TIP3    H226223   0.529   1.552   3.320 -0.5936 -0.8759 -0.5005
 1530TIP3   OH226224   1.191   3.295   2.345 -0.1231 -0.5644 -0.4225
 1530TIP3    H126225   1.206   3.368   2.285 -0.0567 -1.5150 -1.5850
 1530TIP3    H226226   1.267   3.296   2.403 -1.0984  1.5403  0.9352
 1531TIP3   OH226227   6.488   0.508   1.975 -0.1279  0.1085  0.6396
 1531TIP3    H126228   6.463   0.501   2.067 -0.4066 -1.4663  0.4756
 1531TIP3    H226229   6.545   0.584   1.972  0.1926 -0.0234  2.1892
 1532TIP3   OH226230   0.744   6.642   3.492  0.1093  0.0297 -0.5244
 1532TIP3    H126231   0.758   6.548   3.503 -0.1950  0.0894  0.4786
 1532TIP3    H226232   0.689   6.667   3.567  0.8110  1.1328 -0.3548
 1533TIP3   OH226233   6.786   3.039   7.980 -0.0700 -0.6670 -0.2231
 1533TIP3    H126234   6.707   3.088   8.004 -0.8274 -1.3559 -1.2216
 1533TIP3    H226235   6.846   3.105   7.946 -0.3050 -0.1700  0.3060
 1534TIP3   OH226236   3.388   5.026   0.158 -0.0954 -1.0181  0.2050
 1534TIP3    H126237   3.423   5.079   0.229  0.6825  0.4863 -1.2228
 1534TIP3    H226238   3.426   4.939   0.171  2.0773 -0.1135  0.2218
 1535TIP3   OH226239   5.419   5.959   3.073 -0.2265 -0.4696  0.0168
 1535TIP3    H126240   5.396   5.866   3.074  0.2976 -0.6261 -0.9643
 1535TIP3    H226241   5.487   5.966   3.005  0.6092  0.4327  0.9160
 1536TIP3   OH226242   0.292   5.755   0.879 -0.1373 -0.6153 -0.1634
 1536TIP3    H126243   0.314   5.801   0.798 -1.5812  0.7017  0.1523
 1536TIP3    H226244   0.335   5.670   0.870  1.3209  0.2058 -1.4455
 1537TIP3   OH226245   6.185   0.105   3.949 -0.2241  0.1386 -0.0290
 1537TIP3    H126246   6.227   0.019   3.950 -0.7480 -0.1199  0.2186
 1537TIP3    H226247   6.242   0.159   3.894  0.3822 -0.2262  0.2263
 1538TIP3   OH226248   3.089   3.719   3.172  0.1486 -0.4040  0.5793
 1538TIP3    H126249   3.138   3.763   3.242  0.5249  0.9084 -0.4599
 1538TIP3    H226250   3.104   3.774   3.095 -1.4695 -0.9894 -0.1931
 1539TIP3   OH226251   1.402   4.152   2.132 -0.2961 -0.5917 -0.0177
 1539TIP3    H126252   1.362   4.175   2.048  1.5860  1.3001 -0.4724
 1539TIP3    H226253   1.378   4.223   2.191  2.2462  0.6678 -0.3266
 1540TIP3   OH226254   1.928   3.665   1.049 -0.2177  0.1034 -0.0055
 1540TIP3    H126255   1.970   3.734   1.101  0.5337 -0.0553 -0.3814
 1540TIP3    H226256   1.892   3.605   1.114 -2.2383  1.6019  0.3649
 1541TIP3   OH226257   2.952   2.035   0.889  0.0629  0.3630  0.0562
 1541TIP3    H126258   2.871   2.039   0.940 -0.0144  0.1754 -0.0538
 1541TIP3    H226259   2.937   2.096   0.817 -0.0180  0.2539 -0.0193
 1542TIP3   OH226260   4.404   5.217   1.486  0.0645  0.2575 -0.3426
 1542TIP3    H126261   4.348   5.257   1.553  0.7920 -0.6575  0.8736
 1542TIP3    H226262   4.487   5.263   1.493  0.1441  0.1596 -0.6275
 1543TIP3   OH226263   5.903   6.538   3.182 -0.6603  0.0996  0.2470
 1543TIP3    H126264   5.831   6.563   3.241  1.3163 -0.0771  2.9444
 1543TIP3    H226265   5.911   6.443   3.193  0.5415  0.2386  0.7610
 1544TIP3   OH226266   0.514   1.470   0.092 -0.2785 -0.1321 -0.7631
 1544TIP3    H126267   0.568   1.502   0.164 -1.1292 -1.5098  0.5629
 1544TIP3    H226268   0.518   1.539   0.026  1.3191  0.7434  0.1928
 1545TIP3   OH226269   5.990   6.410   1.681  0.9129 -0.5672  0.2639
 1545TIP3    H126270   6.069   6.414   1.628  0.1495  0.4924 -0.8630
 1545TIP3    H226271   5.981   6.499   1.716  0.3200 -0.7263  0.5306
 1546TIP3   OH226272   4.336   5.866   1.269 -0.3038  0.0814 -1.0939
 1546TIP3    H126273   4.290   5.812   1.333 -2.0951  2.1814 -0.4838
 1546TIP3    H226274   4.395   5.806   1.224  2.4153 -1.3250  3.6203
 1547TIP3   OH226275   2.825   5.342   8.261 -0.2584  0.4889  0.0571
 1547TIP3    H126276   2.910   5.385   8.253  0.2738 -0.6366 -0.5344
 1547TIP3    H226277   2.837   5.257   8.218 -1.1934 -0.3801  1.4438
 1548TIP3   OH226278   3.340   4.678   0.050  0.1530  0.0038  0.0007
 1548TIP3    H126279   3.430   4.705   0.072  0.1551 -0.0061  0.0046
 1548TIP3    H226280   3.351   4.600  -0.004  0.1767  0.6310 -0.9209
 1549TIP3   OH226281   2.942   2.540   8.369 -0.0585  0.0807 -0.3386
 1549TIP3    H126282   2.887   2.495   8.433 -1.9109 -0.5567 -2.2525
 1549TIP3    H226283   2.981   2.613   8.417 -1.1548 -0.5090  1.5482
 1550TIP3   OH226284   1.989   5.473   0.062 -0.7105 -0.1042  0.6318
 1550TIP3    H126285   1.898   5.461   0.036 -1.4091 -0.2882  2.9654
 1550TIP3    H226286   2.023   5.384   0.070 -0.5716 -0.0575  0.5609
 1551TIP3   OH226287   2.888   0.580   3.186 -0.2941 -0.2275 -0.3750
 1551TIP3    H126288   2.858   0.607   3.099  1.4603 -0.1073 -0.9922
 1551TIP3    H226289   2.978   0.612   3.190 -0.9283  1.5716  2.3065
 1552TIP3   OH226290   5.872   5.208   1.583  0.2615 -0.1073 -0.6694
 1552TIP3    H126291   5.798   5.195   1.524  1.6726 -1.9167 -2.1895
 1552TIP3    H226292   5.851   5.155   1.660  1.1470 -3.1536 -2.3373
 1553TIP3   OH226293   0.737   5.534   3.803 -0.7773  0.3912 -0.0742
 1553TIP3    H126294   0.811   5.581   3.842  0.0673 -0.7148 -0.3265
 1553TIP3    H226295   0.776   5.475   3.739 -1.9890  0.7238 -1.1603
 1554TIP3   OH226296   5.587   6.193   2.807  0.5967 -0.1703  0.0501
 1554TIP3    H126297   5.679   6.207   2.783  0.2873  3.0670  0.2280
 1554TIP3    H226298   5.579   6.233   2.894 -1.1073  0.3193 -0.2934
 1555TIP3   OH226299   0.046   5.951   0.433 -0.2387 -0.3167  0.3741
 1555TIP3    H126300   0.122   6.008   0.440 -0.3307  0.1474 -1.6330
 1555TIP3    H226301   0.078   5.865   0.460  1.3883 -0.4081 -1.5997
 1556TIP3   OH226302   4.413   6.762   0.279 -0.5217  0.5568 -0.3378
 1556TIP3    H126303   4.474   6.706   0.231 -0.1183 -0.6412  1.4772
 1556TIP3    H226304   4.464   6.841   0.298  0.0775  0.0806  0.0912
 1557TIP3   OH226305   5.476   0.678   2.982 -0.1152 -0.1887  0.0336
 1557TIP3    H126306   5.567   0.657   3.002 -0.0895  0.3468  0.5093
 1557TIP3    H226307   5.438   0.596   2.952  1.1201  0.0534 -2.4395
 1558TIP3   OH226308   2.228   1.277   0.289 -0.1070  0.1746 -0.4159
 1558TIP3    H126309   2.242   1.371   0.285 -0.9960  0.3405  0.1355
 1558TIP3    H226310   2.316   1.239   0.276  0.5850  1.1235  1.1563
 1559TIP3   OH226311   4.881   5.220   2.749 -0.0311  0.2217  0.5476
 1559TIP3    H126312   4.970   5.188   2.765 -0.0883 -0.0948  0.2307
 1559TIP3    H226313   4.894   5.299   2.695 -0.0165 -0.9329 -1.2226
 1560TIP3   OH226314   1.638   2.190   3.948 -0.4537  0.2978 -0.1831
 1560TIP3    H126315   1.620   2.110   3.898  0.5036  1.0528 -1.8240
 1560TIP3    H226316   1.552   2.225   3.970 -0.8863 -0.4683 -0.6086
 1561TIP3   OH226317   3.979   6.418   8.512 -0.1599 -0.8730  0.1353
 1561TIP3    H126318   4.020   6.335   8.486  0.7063 -0.2973 -0.4096
 1561TIP3    H226319   4.053   6.475   8.534 -0.6324  0.2579 -1.0605
 1562TIP3   OH226320   4.058   1.066   0.247 -0.0088  0.3203  0.0829
 1562TIP3    H126321   4.105   0.993   0.206 -1.6142 -1.0390  0.5015
 1562TIP3    H226322   4.115   1.141   0.236  1.6416 -0.9585 -0.5640
 1563TIP3   OH226323   1.385   5.414   0.558 -0.0787 -1.0708 -0.4396
 1563TIP3    H126324   1.457   5.354   0.580  0.2155 -0.8155 -0.7070
 1563TIP3    H226325   1.425   5.500   0.555 -0.8910 -0.5215  2.0479
 1564TIP3   OH226326   6.772   4.370   8.498 -0.3596 -0.4355 -0.5276
 1564TIP3    H126327   6.852   4.319   8.516 -0.0663  0.7469  1.9327
 1564TIP3    H226328   6.710   4.306   8.463 -0.2199 -2.7741  3.0066
 1565TIP3   OH226329   3.202   4.719   1.358 -0.3955  0.1361  0.0820
 1565TIP3    H126330   3.231   4.737   1.447  1.6514 -0.1188 -0.4769
 1565TIP3    H226331   3.281   4.725   1.305 -1.0748 -2.1435 -1.3545
 1566TIP3   OH226332   3.744   4.998   0.345 -0.4357 -0.3247  0.5218
 1566TIP3    H126333   3.712   4.944   0.272  0.4894  0.9496 -0.8779
 1566TIP3    H226334   3.789   4.935   0.402  1.9724 -0.9625 -1.8237
 1567TIP3   OH226335   5.139   0.328   3.685  0.0950 -0.0245 -0.4212
 1567TIP3    H126336   5.082   0.260   3.649  0.7943 -0.0908 -1.4494
 1567TIP3    H226337   5.182   0.366   3.608  2.1689 -0.6525  0.3633
 1568TIP3   OH226338   6.222   4.745   1.321 -0.2977 -0.2493  0.1575
 1568TIP3    H126339   6.312   4.715   1.311  0.4698  2.0449 -0.4422
 1568TIP3    H226340   6.226   4.814   1.387 -1.5470  0.1545 -0.1538
 1569TIP3   OH226341   4.623   4.475   0.139 -0.7036  0.1374 -0.5038
 1569TIP3    H126342   4.707   4.448   0.177 -0.8996 -0.1672 -0.2909
 1569TIP3    H226343   4.625   4.441   0.050 -0.5022  0.3312 -0.5752
 1570TIP3   OH226344   0.094   5.856   3.534 -0.4685 -0.5687  0.3895
 1570TIP3    H126345   0.006   5.893   3.530 -0.4874 -0.4952  1.2363
 1570TIP3    H226346   0.123   5.852   3.443 -1.2238 -0.2991  0.1303
 1571TIP3   OH226347   5.060   3.417   0.133 -0.0706 -0.3661 -0.3257
 1571TIP3    H126348   5.114   3.491   0.159  2.2609 -1.2383 -2.2699
 1571TIP3    H226349   5.036   3.436   0.042 -1.1694 -1.0457 -0.1948
 1572TIP3   OH226350   0.854   0.379   2.574  0.0011  0.4171 -0.4129
 1572TIP3    H126351   0.851   0.285   2.559 -0.4925  0.8239 -3.6154
 1572TIP3    H226352   0.942   0.405   2.545 -0.4931  1.1456 -1.2900
 1573TIP3   OH226353   6.156   0.739   2.006 -0.3509  0.0556 -0.1242
 1573TIP3    H126354   6.183   0.762   2.095  0.7286  0.5007 -0.5457
 1573TIP3    H226355   6.152   0.643   2.006 -1.1095  0.0821  0.6061
 1574TIP3   OH226356   4.653   5.642   2.689  0.0787  0.0401 -0.4869
 1574TIP3    H126357   4.660   5.711   2.624  2.0830  0.8282  0.4805
 1574TIP3    H226358   4.560   5.616   2.687 -0.1185  0.6468 -2.9503
 1575TIP3   OH226359   3.561   4.357   1.683  0.1634 -0.5978 -0.1309
 1575TIP3    H126360   3.583   4.407   1.761 -0.3316  0.2697 -0.5269
 1575TIP3    H226361   3.595   4.410   1.610 -1.9710  0.1470 -0.6760
 1576TIP3   OH226362   2.388   2.814   0.026 -0.1710 -0.0776 -0.0708
 1576TIP3    H126363   2.293   2.803   0.030 -0.2080  0.6213  1.1608
 1576TIP3    H226364   2.422   2.724   0.025 -0.8175 -0.3279 -0.2111
 1577TIP3   OH226365   5.516   2.391   3.750 -0.5817  0.0560 -0.1135
 1577TIP3    H126366   5.518   2.325   3.681 -0.9388  0.0145 -0.0852
 1577TIP3    H226367   5.434   2.375   3.796 -0.7885  0.6736 -0.2547
 1578TIP3   OH226368   6.082   5.154   8.395 -0.5397  0.0578 -0.0285
 1578TIP3    H126369   6.045   5.219   8.335  1.7342 -0.6104 -2.3295
 1578TIP3    H226370   6.048   5.070   8.362  1.3087 -0.3782 -0.9406
 1579TIP3   OH226371   1.393   2.139   2.879 -0.0876 -0.0526  0.1536
 1579TIP3    H126372   1.384   2.190   2.798 -0.8623 -2.6341 -1.5240
 1579TIP3    H226373   1.302   2.117   2.903 -0.0508  2.2050  2.9059
 1580TIP3   OH226374   4.451   6.833   1.607  0.0767 -0.1246  0.2108
 1580TIP3    H126375   4.480   6.743   1.593  1.0061  0.4493 -1.9233
 1580TIP3    H226376   4.361   6.835   1.574 -0.2999 -0.4679  1.1732
 1581TIP3   OH226377   1.958   0.955   3.639 -0.3345  0.3094  0.2814
 1581TIP3    H126378   1.992   0.993   3.720 -1.1680  2.1780 -0.1954
 1581TIP3    H226379   1.865   0.941   3.657 -0.2085 -0.7662  0.1570
 1582TIP3   OH226380   5.389   2.822   4.030 -0.5164  0.1555 -0.4907
 1582TIP3    H126381   5.348   2.785   3.951  1.3686 -1.7137 -0.6774
 1582TIP3    H226382   5.370   2.759   4.099 -0.5431  0.8269  0.1270
 1583TIP3   OH226383   4.136   4.155   2.515 -0.1708 -0.3187 -0.1238
 1583TIP3    H126384   4.194   4.167   2.591  0.1376 -1.5589 -0.1354
 1583TIP3    H226385   4.170   4.214   2.448  1.7887 -1.8201 -0.5084
 1584TIP3   OH226386   3.299   2.932   8.568  0.4279 -0.0718  0.1691
 1584TIP3    H126387   3.340   2.985   8.500  0.0283  1.7901  1.3098
 1584TIP3    H226388   3.355   2.944   8.645 -0.0211 -0.8403  0.6326
 1585TIP3   OH226389   3.497   3.404   1.973  0.2764 -0.1010  0.0240
 1585TIP3    H126390   3.415   3.359   1.950  0.0894  0.2838 -0.0594
 1585TIP3    H226391   3.545   3.340   2.025  0.1978 -0.5618 -0.4545
 1586TIP3   OH226392   1.100   4.868   0.721  0.1694  0.4063 -0.0409
 1586TIP3    H126393   1.165   4.907   0.778 -0.6105 -0.1735  1.2917
 1586TIP3    H226394   1.044   4.941   0.694  0.2459  0.6083  0.3463
 1587TIP3   OH226395   2.210   2.126   8.570  0.1355 -0.6991  0.4473
 1587TIP3    H126396   2.282   2.087   8.520 -1.0882 -2.0902 -0.3079
 1587TIP3    H226397   2.176   2.195   8.513 -0.6682 -1.6749 -0.2967
 1588TIP3   OH226398   5.709   0.838   0.353  0.0528 -0.1350 -0.3334
 1588TIP3    H126399   5.782   0.872   0.404  1.6628 -2.6113 -0.8047
 1588TIP3    H226400   5.639   0.822   0.417 -0.2215  2.4231  0.0961
 1589TIP3   OH226401   4.123   3.665   2.540  0.3196 -0.2645  0.7265
 1589TIP3    H126402   4.167   3.619   2.468 -0.6047 -0.2445  0.1339
 1589TIP3    H226403   4.154   3.755   2.534  2.0671 -0.7511  1.8340
 1590TIP3   OH226404   3.490   2.127   2.003  0.0113  1.0372  0.4401
 1590TIP3    H126405   3.535   2.140   2.087  0.5781  0.7509  0.1887
 1590TIP3    H226406   3.557   2.146   1.938 -0.7024  2.2530  0.0349
 1591TIP3   OH226407   1.451   5.280   2.475 -0.0295  0.1312  0.3167
 1591TIP3    H126408   1.478   5.210   2.534 -2.0885  0.4671  1.7456
 1591TIP3    H226409   1.431   5.235   2.392 -0.9597 -0.9573  1.0990
 1592TIP3   OH226410   6.647   4.739   1.079 -0.2569  0.2996  0.1888
 1592TIP3    H126411   6.682   4.662   1.125  1.2258  1.2753  0.7829
 1592TIP3    H226412   6.632   4.803   1.148  0.0107  1.0676 -0.4521
 1593TIP3   OH226413   2.967   4.121   3.885  0.3353  0.1285 -0.2953
 1593TIP3    H126414   2.974   4.190   3.951 -0.5007 -1.2608  1.3104
 1593TIP3    H226415   3.053   4.079   3.886  0.4467  0.3498 -0.3776
 1594TIP3   OH226416   3.885   0.659   1.794  0.1068  0.2305 -0.2268
 1594TIP3    H126417   3.921   0.581   1.752 -1.5287 -2.2927  2.6998
 1594TIP3    H226418   3.956   0.691   1.850  0.0222 -0.6217  0.3762
 1595TIP3   OH226419   4.110   4.296   8.702  0.5708 -0.2641 -0.0998
 1595TIP3    H126420   4.197   4.322   8.673 -0.8299  1.9857 -2.6756
 1595TIP3    H226421   4.088   4.221   8.646  0.1190  0.3918 -0.8075
 1596TIP3   OH226422   4.114   4.461   0.172 -0.3046  0.2781  0.1317
 1596TIP3    H126423   4.199   4.443   0.211 -0.2696  0.1666  0.0051
 1596TIP3    H226424   4.104   4.394   0.105 -1.6381 -1.3796  1.8915
 1597TIP3   OH226425   6.582   2.104   2.072 -0.2873 -0.3067 -0.0158
 1597TIP3    H126426   6.507   2.052   2.102 -2.5177  1.8678 -1.4847
 1597TIP3    H226427   6.544   2.170   2.015  2.9308  0.2341 -1.7373
 1598TIP3   OH226428   5.029   0.446   3.347 -0.0022  0.1296 -0.3608
 1598TIP3    H126429   5.112   0.445   3.393 -0.0957  1.5476 -0.1178
 1598TIP3    H226430   5.021   0.359   3.309  1.2882 -0.2208  0.1427
 1599TIP3   OH226431   6.671   2.262   0.642  0.5432 -0.6754  0.1370
 1599TIP3    H126432   6.697   2.322   0.712  0.4726  0.5788 -0.8932
 1599TIP3    H226433   6.688   2.175   0.679 -0.7060 -0.1124  2.2074
 1600TIP3   OH226434   1.532   1.196   1.561  0.1327  0.0000 -0.1143
 1600TIP3    H126435   1.619   1.198   1.522  0.6388  1.4441  0.9977
 1600TIP3    H226436   1.543   1.239   1.646 -1.5619 -0.2650  0.2744
 1601TIP3   OH226437   5.872   1.542   3.820 -0.4557 -0.1728 -0.5130
 1601TIP3    H126438   5.854   1.519   3.729 -0.7476 -1.6249 -0.1074
 1601TIP3    H226439   5.806   1.496   3.871 -0.6802  1.1068  0.4143
 1602TIP3   OH226440   4.420   4.391   0.937  0.2947  0.0866  0.4650
 1602TIP3    H126441   4.444   4.476   0.973  0.5421  0.0285  0.4446
 1602TIP3    H226442   4.442   4.329   1.007  0.1908  0.0336  0.4504
 1603TIP3   OH226443   2.984   2.562   3.251  0.2802 -0.3809 -0.4320
 1603TIP3    H126444   3.078   2.567   3.232 -0.1644 -0.6078 -3.0890
 1603TIP3    H226445   2.953   2.488   3.200 -1.3958 -0.1882  0.2418
 1604TIP3   OH226446   1.534   2.917   0.598  0.0733 -0.4122 -0.5678
 1604TIP3    H126447   1.519   2.991   0.657 -2.9357  0.8236 -2.6288
 1604TIP3    H226448   1.623   2.929   0.565  0.3288  1.1788  0.5922
 1605TIP3   OH226449   2.639   4.467   2.665  0.2689 -0.2238 -0.1990
 1605TIP3    H126450   2.730   4.463   2.636  0.8488  0.2904  1.4090
 1605TIP3    H226451   2.645   4.469   2.761 -1.5106 -1.7667 -0.0039
 1606TIP3   OH226452   6.602   1.048   1.481 -0.1194  0.3958  0.4077
 1606TIP3    H126453   6.689   1.080   1.462  0.4988 -0.9635  0.7995
 1606TIP3    H226454   6.547   1.126   1.485  0.7710  1.1568 -1.3353
 1607TIP3   OH226455   3.026   3.745   1.555 -0.3840  0.3114 -0.7573
 1607TIP3    H126456   3.058   3.721   1.467 -0.1258 -0.9850 -0.3414
 1607TIP3    H226457   3.102   3.729   1.612 -0.7893  0.3745 -0.1984
 1608TIP3   OH226458   1.627   4.179   1.085 -0.0740 -0.0576 -0.8519
 1608TIP3    H126459   1.643   4.170   1.179  0.3379  1.1025 -0.7990
 1608TIP3    H226460   1.678   4.256   1.059 -2.3870  1.3721 -1.4545
 1609TIP3   OH226461   0.359   5.431   0.565 -0.3866 -0.4885  0.3304
 1609TIP3    H126462   0.375   5.407   0.474  0.7088 -0.5592  0.5302
 1609TIP3    H226463   0.383   5.353   0.615  1.3901  0.3431  0.8491
 1610TIP3   OH226464   1.986   2.296   8.500 -0.0458  0.4616  0.2659
 1610TIP3    H126465   1.971   2.218   8.446  1.6559  1.7760 -2.3729
 1610TIP3    H226466   1.900   2.318   8.536 -1.3927 -0.4295 -2.1705
 1611TIP3   OH226467   0.122   4.462   0.657  0.3984  0.0901 -0.1952
 1611TIP3    H126468   0.117   4.555   0.683  0.3480  0.6706 -2.1362
 1611TIP3    H226469   0.107   4.463   0.563 -0.1582 -1.9787 -0.1725
 1612TIP3   OH226470   6.408   1.577   0.027 -0.3522 -0.4976 -0.1038
 1612TIP3    H126471   6.473   1.536  -0.031  0.5653  0.0015  0.5446
 1612TIP3    H226472   6.329   1.583  -0.026  0.2547 -0.7276 -1.0588
 1613TIP3   OH226473   6.818   1.976   0.110  0.2722 -0.1821 -0.4494
 1613TIP3    H126474   6.821   1.977   0.014  2.1340 -1.2501 -0.4487
 1613TIP3    H226475   6.910   1.974   0.137 -0.1968  0.8557  1.4016
 1614TIP3   OH226476   6.102   1.923   1.537 -0.0298  0.3478  0.4836
 1614TIP3    H126477   6.110   1.911   1.632  0.8690  0.1370  0.3916
 1614TIP3    H226478   6.125   2.015   1.522 -2.0720  0.9380  0.6569
 1615TIP3   OH226479   1.113   4.435   0.860 -0.0127 -0.1804 -0.4605
 1615TIP3    H126480   1.128   4.474   0.946 -0.0104  0.4543 -0.7476
 1615TIP3    H226481   1.061   4.357   0.879 -0.0572 -0.0202  0.1127
 1616TIP3   OH226482   0.656   1.711   3.702  0.5491  0.8767  0.0782
 1616TIP3    H126483   0.679   1.756   3.783  0.3226  2.6780 -0.8029
 1616TIP3    H226484   0.575   1.753   3.674  0.3091 -0.1257 -0.7833
 1617TIP3   OH226485   3.129   4.350   0.783  0.2833 -0.4632 -0.0003
 1617TIP3    H126486   3.169   4.433   0.756 -1.7790  0.8550  0.8281
 1617TIP3    H226487   3.099   4.311   0.701  2.3204 -1.0473 -0.5371
 1618TIP3   OH226488   6.195   0.802   1.207 -0.3805  0.3211 -0.6184
 1618TIP3    H126489   6.190   0.843   1.121  0.5623 -0.6427 -1.1532
 1618TIP3    H226490   6.277   0.834   1.245 -0.8832  0.8947  0.0245
 1619TIP3   OH226491   3.259   3.277   3.943 -0.3561  0.1030 -0.0507
 1619TIP3    H126492   3.167   3.249   3.943  0.0342 -1.2748 -0.1239
 1619TIP3    H226493   3.298   3.229   4.016  0.2608  0.8498  0.1144
 1620TIP3   OH226494   2.254   6.141   2.868 -0.3545 -0.4827  0.3925
 1620TIP3    H126495   2.194   6.214   2.852  0.5948  0.0872 -0.7079
 1620TIP3    H226496   2.338   6.182   2.885 -0.0673 -1.2959  0.9952
 1621TIP3   OH226497   2.214   0.290   2.647 -0.1296 -0.1446 -0.1414
 1621TIP3    H126498   2.305   0.315   2.661 -0.2651  1.7929 -2.1922
 1621TIP3    H226499   2.164   0.347   2.706 -0.1203 -0.0198 -0.2561
 1622TIP3   OH226500   3.887   4.219   1.686  0.5158  0.6241  0.4152
 1622TIP3    H126501   3.904   4.284   1.617  0.3050  2.8893  2.3519
 1622TIP3    H226502   3.951   4.241   1.754  0.1393 -0.9674  1.3127
 1623TIP3   OH226503   3.789   3.099   0.028 -0.1170  0.2847  0.2502
 1623TIP3    H126504   3.751   3.064   0.109 -0.1520  0.2921  0.2373
 1623TIP3    H226505   3.757   3.040  -0.041  0.5497 -0.1898  0.3402
 1624TIP3   OH226506   6.430   2.497   3.358  0.0839 -0.2918  0.1232
 1624TIP3    H126507   6.405   2.408   3.384 -1.9858  0.1367 -0.2865
 1624TIP3    H226508   6.520   2.487   3.326 -0.4460 -2.4598 -0.9441
 1625TIP3   OH226509   2.133   6.015   1.960  0.0215 -0.1543  0.1091
 1625TIP3    H126510   2.066   5.981   2.019 -1.2042  1.5219 -0.2686
 1625TIP3    H226511   2.093   6.011   1.873  1.9734 -3.0606 -0.8285
 1626TIP3   OH226512   0.616   1.146   0.045  0.0403  0.7124 -0.2115
 1626TIP3    H126513   0.526   1.178   0.053  0.0868  0.8644 -0.2937
 1626TIP3    H226514   0.620   1.107  -0.043  0.7612  2.9726 -1.2469
 1627TIP3   OH226515   0.305   4.081   3.590 -0.6457  0.3167  0.4253
 1627TIP3    H126516   0.358   4.007   3.621 -0.4077 -0.4214 -1.6328
 1627TIP3    H226517   0.233   4.041   3.542 -1.2229  1.4045  0.3599
 1628TIP3   OH226518   3.994   6.287   8.172  0.0774 -0.0141  0.0087
 1628TIP3    H126519   4.041   6.308   8.091  0.1380  1.3152  0.3620
 1628TIP3    H226520   4.056   6.235   8.223 -0.8512 -3.1624 -1.8029
 1629TIP3   OH226521   5.554   3.702   0.324 -0.3675 -0.4793 -0.6536
 1629TIP3    H126522   5.511   3.735   0.403 -0.5161 -0.8855 -0.5627
 1629TIP3    H226523   5.546   3.774   0.261 -0.1516 -0.1103 -0.2669
 1630TIP3   OH226524   2.153   2.105   3.941 -0.9759  0.8735 -0.5070
 1630TIP3    H126525   2.188   2.192   3.961 -0.4210  0.3166  1.0867
 1630TIP3    H226526   2.097   2.084   4.016 -2.3213  0.4687 -1.5923
 1631TIP3   OH226527   4.597   2.831   3.957 -0.2159  0.2045  0.2571
 1631TIP3    H126528   4.619   2.742   3.984 -0.2472  0.8844  2.7247
 1631TIP3    H226529   4.628   2.887   4.028 -0.7962  2.1330 -0.9091
 1632TIP3   OH226530   6.774   3.597   0.667  0.2874  0.5622  0.0789
 1632TIP3    H126531   6.711   3.630   0.731  0.3879  1.7816 -0.4162
 1632TIP3    H226532   6.838   3.668   0.657  0.1626  0.4963 -1.5050
 1633TIP3   OH226533   3.657   0.022   2.986 -0.0389  0.5898  0.0987
 1633TIP3    H126534   3.569   0.010   2.952 -0.6991 -1.3016  2.1808
 1633TIP3    H226535   3.714  -0.013   2.918 -1.2257 -2.0603  0.3124
 1634TIP3   OH226536   3.512   3.123   3.333  0.3159 -0.2912  0.3941
 1634TIP3    H126537   3.496   3.184   3.261 -0.0347  0.1309  0.8213
 1634TIP3    H226538   3.461   3.158   3.406  0.8824 -0.5639  0.9309
 1635TIP3   OH226539   5.189   2.165   3.419 -0.1254 -0.0795  0.3684
 1635TIP3    H126540   5.173   2.169   3.513  0.1895 -0.5859  0.4520
 1635TIP3    H226541   5.191   2.256   3.391  0.6540  0.1219  1.0139
 1636TIP3   OH226542   2.263   1.343   2.599  0.4209  0.2722 -0.1836
 1636TIP3    H126543   2.181   1.348   2.649  1.0393  0.0343  0.8852
 1636TIP3    H226544   2.330   1.322   2.665  1.1778 -0.6261 -1.2105
 1637TIP3   OH226545   2.953   6.385   0.443 -0.0145  0.5238 -0.0282
 1637TIP3    H126546   3.026   6.397   0.381 -0.3912 -0.5749 -0.7080
 1637TIP3    H226547   2.992   6.398   0.529  0.5133  2.1477 -0.4673
 1638TIP3   OH226548   5.237   1.938   2.067  0.0339  0.0934 -0.3634
 1638TIP3    H126549   5.308   1.941   2.131 -0.3769 -0.6724  0.1542
 1638TIP3    H226550   5.215   2.030   2.051 -0.8726  0.3096  1.7802
 1639TIP3   OH226551   2.452   6.391   0.810  0.0636 -0.1111 -0.4185
 1639TIP3    H126552   2.359   6.370   0.800  0.6006 -2.7888 -0.6813
 1639TIP3    H226553   2.470   6.458   0.744 -1.7700  0.8790  0.0340
 1640TIP3   OH226554   4.803   5.472   0.925  0.2993 -0.3058  0.1440
 1640TIP3    H126555   4.757   5.460   0.842  3.6547 -0.7926 -1.8485
 1640TIP3    H226556   4.785   5.392   0.974 -2.9387  0.6178  0.6658
 1641TIP3   OH226557   4.767   1.869   0.109  0.3185  0.3388 -0.1407
 1641TIP3    H126558   4.764   1.804   0.040 -0.0504  1.0419 -0.8059
 1641TIP3    H226559   4.850   1.854   0.153  0.4352 -0.2894 -0.5619
 1642TIP3   OH226560   2.887   1.407   1.371 -0.6097 -0.3879  0.0186
 1642TIP3    H126561   2.911   1.498   1.390 -0.3779 -0.5616  0.5573
 1642TIP3    H226562   2.957   1.355   1.409 -1.8620 -0.9117  1.7505
 1643TIP3   OH226563   6.035   6.780   0.078  0.5657  0.4410 -0.2056
 1643TIP3    H126564   6.013   6.713   0.013  0.8735  1.0644 -0.9613
 1643TIP3    H226565   6.129   6.770   0.092  1.4758  3.0862 -3.1590
 1644TIP3   OH226566   0.015   4.875   2.801  0.0271  0.0883  0.1235
 1644TIP3    H126567   0.032   4.820   2.878 -0.2621 -0.4052 -0.1546
 1644TIP3    H226568  -0.064   4.836   2.762 -1.3760  1.8721  1.0131
 1645TIP3   OH226569   6.577   5.599   0.420  0.5175 -0.0369  0.4263
 1645TIP3    H126570   6.580   5.604   0.516  0.4904  0.7552  0.3943
 1645TIP3    H226571   6.633   5.671   0.391  1.0990 -0.7140 -0.1561
 1646TIP3   OH226572   4.708   0.896   1.182 -0.0023 -0.6742  0.2546
 1646TIP3    H126573   4.727   0.816   1.132 -0.4407  0.0543 -1.1453
 1646TIP3    H226574   4.793   0.940   1.189 -0.0198 -0.5264 -0.3527
 1647TIP3   OH226575   2.150   3.399   2.189  0.2596  0.3735  0.1049
 1647TIP3    H126576   2.148   3.454   2.111  1.3153 -0.3442 -0.4411
 1647TIP3    H226577   2.224   3.340   2.176 -1.1911 -1.6171  0.3858
 1648TIP3   OH226578   3.249   1.740   2.646 -0.1953  0.5829  0.3404
 1648TIP3    H126579   3.198   1.660   2.657  0.3039  0.3343  0.8911
 1648TIP3    H226580   3.216   1.779   2.565  0.6401 -0.9789 -0.7930
 1649TIP3   OH226581   3.692   5.923   3.725 -0.3167 -0.1267 -0.0714
 1649TIP3    H126582   3.608   5.959   3.755  0.3818  1.8481 -0.3622
 1649TIP3    H226583   3.667   5.850   3.668 -1.7574 -1.1546  1.7407
 1650TIP3   OH226584   4.151   2.230   1.717  0.7016 -0.0337 -0.3329
 1650TIP3    H126585   4.088   2.212   1.787  1.5472 -1.5738  0.0810
 1650TIP3    H226586   4.226   2.174   1.737  1.2600  0.0222 -2.0799
 1651TIP3   OH226587   4.583   0.814   1.437 -0.6709  0.1146  0.0978
 1651TIP3    H126588   4.573   0.892   1.491  2.5878  0.4289  0.4671
 1651TIP3    H226589   4.606   0.848   1.350 -1.0168 -0.4333 -0.2122
 1652TIP3   OH226590   5.517   6.020   2.017  0.0504  0.2092  0.7654
 1652TIP3    H126591   5.508   5.942   2.071 -2.0853  0.0798  0.3189
 1652TIP3    H226592   5.516   5.987   1.927  2.4007  0.5203  0.5736
 1653TIP3   OH226593   1.919   4.487   8.599 -0.1406 -0.7754 -0.3253
 1653TIP3    H126594   1.873   4.568   8.576  2.2338 -0.3276 -4.4408
 1653TIP3    H226595   1.998   4.516   8.643 -0.6490 -1.1170  0.8495
 1654TIP3   OH226596   1.040   4.108   0.936  0.4871 -0.0577 -0.1026
 1654TIP3    H126597   0.961   4.114   0.990 -0.3802  0.6609 -1.3794
 1654TIP3    H226598   1.077   4.022   0.956  0.7723  0.5547  2.3286
 1655TIP3   OH226599   6.257   3.893   0.210  0.1504  0.3575 -0.6484
 1655TIP3    H126600   6.170   3.916   0.176 -0.4684  1.1860  1.3389
 1655TIP3    H226601   6.255   3.798   0.217  0.1548  0.1908 -2.4357
 1656TIP3   OH226602   1.269   5.619   0.276  0.0624 -0.1831 -0.2358
 1656TIP3    H126603   1.205   5.688   0.255 -0.8784 -1.1945 -0.7577
 1656TIP3    H226604   1.216   5.541   0.293  1.1958 -1.3675 -1.8944
 1657TIP3   OH226605   1.900   0.107   3.967 -0.2437 -0.0353 -0.4493
 1657TIP3    H126606   1.954   0.042   3.921 -0.6945 -0.4102 -0.4504
 1657TIP3    H226607   1.964   0.167   4.007  0.1611  0.8033 -2.2563
 1658TIP3   OH226608   3.327   1.924   0.377 -0.3566 -0.1423 -0.4063
 1658TIP3    H126609   3.239   1.903   0.408  0.1220  0.3339  1.4109
 1658TIP3    H226610   3.333   2.019   0.385  0.3110 -0.1705 -0.5183
 1659TIP3   OH226611   3.278   4.770   0.316  0.0156  0.2259 -0.0501
 1659TIP3    H126612   3.371   4.763   0.293  0.3887  1.9568  0.7085
 1659TIP3    H226613   3.234   4.784   0.232  0.5740  0.3386 -0.3332
 1660TIP3   OH226614   5.089   1.493   3.389  0.2366  0.1528 -0.1256
 1660TIP3    H126615   5.030   1.518   3.460  0.5744  0.2991  0.1036
 1660TIP3    H226616   5.043   1.422   3.344 -1.6735  2.4020 -2.0070
 1661TIP3   OH226617   6.701   4.236   0.507  0.4958  0.0062  0.7282
 1661TIP3    H126618   6.715   4.302   0.439 -1.5896  0.7031  0.9128
 1661TIP3    H226619   6.779   4.243   0.563  1.5498  0.4403 -0.7383
 1662TIP3   OH226620   5.251   3.755   3.350 -0.3474  0.3070  0.0787
 1662TIP3    H126621   5.277   3.668   3.322  0.2114  0.5595 -0.2091
 1662TIP3    H226622   5.194   3.787   3.280  2.8522  1.8413 -2.0945
 1663TIP3   OH226623   5.500   4.935   0.147  0.2210 -0.1990  0.4255
 1663TIP3    H126624   5.409   4.956   0.123 -0.1061 -1.2977  0.6352
 1663TIP3    H226625   5.552   4.999   0.099 -0.6125 -0.2338 -0.5726
 1664TIP3   OH226626   1.714   6.613   2.525 -0.2282 -0.3723  0.2334
 1664TIP3    H126627   1.791   6.667   2.543  1.4053 -2.5887  0.3501
 1664TIP3    H226628   1.687   6.637   2.437 -0.5653  1.6989  0.8466
 1665TIP3   OH226629   4.173   2.820   8.717  0.1214 -0.2608 -0.1221
 1665TIP3    H126630   4.164   2.913   8.698 -3.0148 -0.6404 -0.9320
 1665TIP3    H226631   4.204   2.782   8.634  0.0639 -0.1352 -0.2017
 1666TIP3   OH226632   3.517   1.785   1.059  0.1883  0.2102  0.5596
 1666TIP3    H126633   3.509   1.693   1.034  1.6122 -0.0192  0.8751
 1666TIP3    H226634   3.452   1.797   1.129  2.5036 -1.5964  3.2375
 1667TIP3   OH226635   0.380   1.342   1.094 -0.1859 -0.0354 -0.1247
 1667TIP3    H126636   0.356   1.250   1.088  0.6511 -0.2490 -0.3239
 1667TIP3    H226637   0.433   1.348   1.174  1.8992 -0.2366 -1.4399
 1668TIP3   OH226638   6.479   6.386   3.306 -0.4868  0.0859 -0.1577
 1668TIP3    H126639   6.424   6.445   3.357  0.4362  0.7356  0.1278
 1668TIP3    H226640   6.495   6.312   3.365 -1.1917 -0.1908 -0.3083
 1669TIP3   OH226641   0.652   0.329   3.289  0.2910 -0.4181 -0.3325
 1669TIP3    H126642   0.562   0.360   3.281  0.4787  0.0680 -0.6389
 1669TIP3    H226643   0.657   0.292   3.377 -0.4197 -1.1680 -0.5922
 1670TIP3   OH226644   5.683   4.104   2.715 -0.1026  0.1389 -0.5094
 1670TIP3    H126645   5.626   4.118   2.639 -0.8421  0.0375  0.0137
 1670TIP3    H226646   5.635   4.144   2.788  1.6508  2.3523 -0.4631
 1671TIP3   OH226647   2.555   3.165   0.936  0.6513 -0.4963  0.0064
 1671TIP3    H126648   2.532   3.148   1.028 -0.4854 -0.6187 -0.2830
 1671TIP3    H226649   2.489   3.227   0.906  1.9846  0.8372 -0.2877
 1672TIP3   OH226650   2.259   1.208   1.424  0.3454 -0.4208 -0.0543
 1672TIP3    H126651   2.264   1.298   1.392 -0.7923 -0.8714 -1.6364
 1672TIP3    H226652   2.349   1.177   1.425  0.5690  0.1456 -1.3274
 1673TIP3   OH226653   5.802   4.405   0.907 -0.0852 -0.6672  0.4995
 1673TIP3    H126654   5.821   4.491   0.869  1.1470 -1.5100 -0.9202
 1673TIP3    H226655   5.744   4.423   0.981  0.2289  1.3808  0.2956
 1674TIP3   OH226656   1.382   6.282   8.501  0.2958  0.3010 -0.1088
 1674TIP3    H126657   1.430   6.201   8.519 -0.0207 -0.2938 -1.7698
 1674TIP3    H226658   1.381   6.288   8.406 -0.2350  1.9519 -0.0262
 1675TIP3   OH226659   4.092   2.863   2.094  0.4058 -0.2760 -0.3297
 1675TIP3    H126660   4.034   2.789   2.074  0.5347 -0.1447 -1.2200
 1675TIP3    H226661   4.171   2.845   2.044  0.7708  0.0323  0.1360
 1676TIP3   OH226662   6.271   6.722   8.071  0.4648 -0.5005  0.2497
 1676TIP3    H126663   6.237   6.721   7.981 -0.9903 -1.3189  0.7733
 1676TIP3    H226664   6.365   6.709   8.061  0.2930 -0.8628 -1.1469
 1677TIP3   OH226665   6.616   0.032   3.165  0.2086 -0.3131 -0.2821
 1677TIP3    H126666   6.603  -0.058   3.192  0.1172  0.0312  0.8724
 1677TIP3    H226667   6.708   0.050   3.182  0.1117 -0.0410 -0.0232
 1678TIP3   OH226668   2.954   1.346   1.701  0.0151 -1.2660  0.1083
 1678TIP3    H126669   2.987   1.306   1.621 -0.5874 -0.9694 -0.3003
 1678TIP3    H226670   2.858   1.337   1.694 -0.1794  0.6038 -0.2193
 1679TIP3   OH226671   4.560   6.581   3.680 -0.1849 -0.4988 -0.3616
 1679TIP3    H126672   4.595   6.628   3.756 -1.5869 -0.1985  0.1293
 1679TIP3    H226673   4.572   6.642   3.607  0.4519 -0.4724 -0.2424
 1680TIP3   OH226674   2.032   3.035   3.918  0.2624 -0.1703  0.5708
 1680TIP3    H126675   2.017   2.940   3.924 -0.8167 -0.0929 -0.5226
 1680TIP3    H226676   1.957   3.073   3.963  0.3481  0.1626  0.4311
 1681TIP3   OH226677   6.151   6.347   2.880 -0.0518  0.0872  0.3927
 1681TIP3    H126678   6.181   6.418   2.937  0.6586 -1.1061  1.5649
 1681TIP3    H226679   6.114   6.282   2.940  0.6026 -1.1509 -0.5028
 1682TIP3   OH226680   5.106   1.795   1.841  0.8974 -0.6009 -0.0887
 1682TIP3    H126681   5.064   1.880   1.826  1.5350  0.0678  1.6426
 1682TIP3    H226682   5.181   1.816   1.897 -1.3474 -2.7811  4.1657
 1683TIP3   OH226683   5.078   1.060   2.551  0.5568  0.2663  0.3502
 1683TIP3    H126684   5.159   1.081   2.597  1.8291 -1.7849 -0.7803
 1683TIP3    H226685   5.104   1.046   2.460 -1.4072  1.3452 -0.4458
 1684TIP3   OH226686   6.332   6.169   1.105 -0.2331  0.2206  0.2673
 1684TIP3    H126687   6.270   6.240   1.122  0.2828  0.0002  3.8651
 1684TIP3    H226688   6.279   6.089   1.110  0.1859  0.0064  3.7147
 1685TIP3   OH226689   0.967   2.261   4.100 -0.0510  0.1251  0.1264
 1685TIP3    H126690   0.936   2.182   4.055 -0.5334  0.5133 -0.2359
 1685TIP3    H226691   0.911   2.269   4.177  0.6758 -0.4541  0.7382
 1686TIP3   OH226692   4.588   6.565   2.119  0.7968 -1.0273 -0.5200
 1686TIP3    H126693   4.556   6.637   2.065  0.4901 -1.9152 -1.5565
 1686TIP3    H226694   4.535   6.490   2.093 -0.0330 -1.2848  1.7408
 1687TIP3   OH226695   2.167   1.981   1.824  0.3207 -0.0339 -0.0336
 1687TIP3    H126696   2.231   2.003   1.757 -0.8689  1.3395 -0.7883
 1687TIP3    H226697   2.212   1.920   1.882  1.4961 -0.9947 -1.8757
 1688TIP3   OH226698   3.088   6.326   0.146 -0.2219  0.4091 -0.3649
 1688TIP3    H126699   3.124   6.241   0.171  0.1358  0.5300 -0.4577
 1688TIP3    H226700   2.993   6.316   0.155 -0.1081  1.2059  3.6898
 1689TIP3   OH226701   2.836   5.176   3.129 -0.2879 -0.4911  0.2517
 1689TIP3    H126702   2.755   5.224   3.112 -0.6325 -0.8943  0.7242
 1689TIP3    H226703   2.900   5.244   3.149 -0.2992 -0.1190 -0.9159
 1690TIP3   OH226704   0.566   3.167   0.588  0.1992 -0.1999 -0.1766
 1690TIP3    H126705   0.583   3.089   0.536  1.8370 -0.1301  0.2195
 1690TIP3    H226706   0.554   3.237   0.523  1.2135 -0.3060 -0.4868
 1691TIP3   OH226707   3.168   0.442   8.424  0.5967  0.3317  0.4649
 1691TIP3    H126708   3.241   0.502   8.433  0.8330  0.2410 -0.6571
 1691TIP3    H226709   3.154   0.436   8.329 -0.0189 -0.6579  0.6058
 1692TIP3   OH226710   3.036   4.867   3.957  0.3342  0.1702  0.1112
 1692TIP3    H126711   2.986   4.798   3.914  1.4288 -0.4275 -0.2376
 1692TIP3    H226712   3.017   4.856   4.051 -1.2690  0.8516 -0.0858
 1693TIP3   OH226713   6.258   4.950   8.126  0.4957  0.1934 -0.1236
 1693TIP3    H126714   6.331   4.939   8.066  0.3378 -2.8899  0.0882
 1693TIP3    H226715   6.180   4.941   8.071  0.2076  2.5650 -0.2024
 1694TIP3   OH226716   0.334   6.214   1.317  0.9189 -0.3393 -0.7461
 1694TIP3    H126717   0.345   6.145   1.382  1.1599  0.7349  0.3815
 1694TIP3    H226718   0.243   6.207   1.289  0.8689 -0.9266 -0.4466
 1695TIP3   OH226719   0.057   1.131   0.834  0.0428  0.4617  0.0999
 1695TIP3    H126720  -0.027   1.150   0.874  0.9947  0.6600  2.1121
 1695TIP3    H226721   0.052   1.038   0.809 -2.3237  1.4535 -3.9977
 1696TIP3   OH226722   5.643   5.105   0.413  0.6075  0.0141 -0.4063
 1696TIP3    H126723   5.707   5.157   0.364 -1.4794  2.0689 -1.1432
 1696TIP3    H226724   5.568   5.096   0.353 -1.0956  0.5588  1.5309
 1697TIP3   OH226725   3.198   1.448   2.568  0.1753  0.0420 -0.2157
 1697TIP3    H126726   3.124   1.465   2.511  0.3498  0.0379 -0.4458
 1697TIP3    H226727   3.181   1.361   2.605 -1.1421  1.0233  1.6260
 1698TIP3   OH226728   1.682   4.837   2.720  0.1730  0.6487  0.5898
 1698TIP3    H126729   1.616   4.769   2.704  0.0359  0.9058  0.0633
 1698TIP3    H226730   1.763   4.800   2.684  0.4053  0.1839  1.5523
 1699TIP3   OH226731   5.800   3.463   2.693 -0.0206 -0.1714 -0.1393
 1699TIP3    H126732   5.748   3.520   2.636 -1.3855 -1.7027 -0.4776
 1699TIP3    H226733   5.871   3.520   2.724 -0.2426  1.2004 -1.9295
 1700TIP3   OH226734   1.052   1.288   0.471 -0.0795 -0.8058 -0.9546
 1700TIP3    H126735   1.009   1.216   0.517 -0.1168 -0.7856 -0.9582
 1700TIP3    H226736   1.146   1.268   0.478 -0.1322 -1.8976 -2.5928
 1701TIP3   OH226737   1.102   1.452   1.163  0.0685  0.2329 -0.0142
 1701TIP3    H126738   1.112   1.474   1.070  0.5860 -0.5192 -0.1480
 1701TIP3    H226739   1.114   1.357   1.166  1.2587  0.4002  0.9850
 1702TIP3   OH226740   0.470   3.461   1.895  0.1869 -0.3612  0.1336
 1702TIP3    H126741   0.564   3.448   1.881 -0.1406 -1.9735 -0.8244
 1702TIP3    H226742   0.448   3.537   1.841  0.9470  0.1050  0.4630
 1703TIP3   OH226743   4.155   6.345   7.975  0.1843 -0.3452 -0.0236
 1703TIP3    H126744   4.119   6.290   7.905  1.0703 -1.4191  0.3288
 1703TIP3    H226745   4.218   6.401   7.930 -0.1315 -0.1793 -0.2664
 1704TIP3   OH226746   5.086   3.020   1.613  0.0438  0.3657  0.3520
 1704TIP3    H126747   5.147   2.953   1.581  1.0830  0.4329  2.0558
 1704TIP3    H226748   5.140   3.099   1.622  0.0815  0.1197  3.0436
 1705TIP3   OH226749   1.376   6.274   0.095 -0.3982 -0.0582  0.2173
 1705TIP3    H126750   1.439   6.299   0.027 -1.6445  1.9738 -0.2794
 1705TIP3    H226751   1.421   6.208   0.147  3.4786  3.5565  1.9229
 1706TIP3   OH226752   3.136   4.091   8.561  0.4381 -0.8901  0.0882
 1706TIP3    H126753   3.060   4.149   8.552  0.6948 -0.6927 -0.8121
 1706TIP3    H226754   3.136   4.039   8.481  0.5191 -1.7762  0.6562
 1707TIP3   OH226755   1.326   2.746   2.952 -0.5180  0.2112 -0.6109
 1707TIP3    H126756   1.396   2.695   2.910  0.4194  0.4390  0.6354
 1707TIP3    H226757   1.276   2.783   2.878  1.8284  1.6485 -1.6055
 1708TIP3   OH226758   2.006   5.467   0.442 -0.2767 -0.2110  0.3357
 1708TIP3    H126759   1.920   5.447   0.406 -0.0931 -0.0910 -0.1727
 1708TIP3    H226760   2.068   5.438   0.375  0.1492 -1.7343  1.3509
 1709TIP3   OH226761   1.317   5.019   1.811 -0.2050  0.3213  0.4161
 1709TIP3    H126762   1.343   5.088   1.872 -1.6698  0.5087  0.8640
 1709TIP3    H226763   1.288   5.066   1.733  0.8747  0.1099 -0.1350
 1710TIP3   OH226764   5.740   2.733   2.904  0.6639  0.2980 -0.2346
 1710TIP3    H126765   5.752   2.641   2.928  2.2336  0.5214 -0.0515
 1710TIP3    H226766   5.756   2.781   2.986 -1.7783  0.6836  0.0778
 1711TIP3   OH226767   6.882   5.514   1.401 -0.0884 -0.1897 -0.1082
 1711TIP3    H126768   6.961   5.476   1.439 -0.8719 -0.6271  1.1277
 1711TIP3    H226769   6.872   5.467   1.318  0.7825 -0.3216 -0.1578
 1712TIP3   OH226770   5.929   5.015   1.014  0.1323 -0.5996 -0.1407
 1712TIP3    H126771   5.972   4.934   1.042  0.4273 -0.9346 -1.5296
 1712TIP3    H226772   5.995   5.083   1.026  0.5339 -0.8724 -0.8180
 1713TIP3   OH226773   5.738   1.595   2.724  0.1583 -0.5419 -0.0050
 1713TIP3    H126774   5.713   1.644   2.646  1.2807  3.2107  1.7368
 1713TIP3    H226775   5.656   1.575   2.768 -0.3936  2.2655  0.4599
 1714TIP3   OH226776   6.751   2.726   0.704 -0.4213  0.0353 -0.0558
 1714TIP3    H126777   6.808   2.735   0.627  0.2753  1.1574  0.5656
 1714TIP3    H226778   6.670   2.769   0.678 -1.0683 -1.6115 -0.9620
 1715TIP3   OH226779   2.998   3.488   2.310  0.9533  0.0638  0.6444
 1715TIP3    H126780   2.978   3.474   2.402 -0.3346 -2.8459  0.0387
 1715TIP3    H226781   2.936   3.556   2.282  0.3245 -0.1032  1.5836
 1716TIP3   OH226782   3.329   1.829   3.975  0.0237 -0.2683  1.2606
 1716TIP3    H126783   3.247   1.791   4.005 -0.7504 -1.4905 -2.0121
 1716TIP3    H226784   3.306   1.919   3.951 -1.1785 -1.3166 -2.0722
 1717TIP3   OH226785   5.857   1.227   0.617  0.1551 -0.2285 -0.3114
 1717TIP3    H126786   5.884   1.287   0.686  0.0278  1.0298 -1.3050
 1717TIP3    H226787   5.900   1.144   0.638  0.1643  0.1378  1.2153
 1718TIP3   OH226788   4.006   0.273   0.039  0.3659  0.5779  0.0712
 1718TIP3    H126789   3.920   0.238   0.057  1.2189 -0.7320  1.8945
 1718TIP3    H226790   4.061   0.241   0.110  2.1373  2.2455 -0.4389
 1719TIP3   OH226791   2.259   3.273   3.739 -0.3752  0.2164 -0.2225
 1719TIP3    H126792   2.240   3.357   3.697  0.4667  0.4522 -0.1447
 1719TIP3    H226793   2.246   3.288   3.832 -2.1637 -0.2859 -0.3425
 1720TIP3   OH226794   4.603   2.765   2.255 -0.3437  0.7768  0.1431
 1720TIP3    H126795   4.620   2.762   2.161  0.4208 -0.4159  0.2933
 1720TIP3    H226796   4.535   2.831   2.265 -0.4001  0.9593 -1.2439
 1721TIP3   OH226797   1.938   4.428   3.732  0.1541  0.2486  0.2179
 1721TIP3    H126798   1.974   4.453   3.818 -1.1005 -2.0414  1.5099
 1721TIP3    H226799   1.946   4.508   3.679  1.2602  1.6637  2.3392
 1722TIP3   OH226800   3.725   5.801   1.599 -0.3667 -0.3206 -0.2375
 1722TIP3    H126801   3.678   5.813   1.682  0.8218 -2.2800  0.7597
 1722TIP3    H226802   3.665   5.749   1.546  0.0735 -1.6128  0.5102
 1723TIP3   OH226803   4.939   0.092   8.708 -0.4899  0.1919  0.2892
 1723TIP3    H126804   4.855   0.045   8.703  0.1317 -1.0897  1.4133
 1723TIP3    H226805   5.005   0.025   8.693  0.4308  0.7088  1.7885
 1724TIP3   OH226806   2.614   1.516   2.406 -0.3619  0.0818 -0.0578
 1724TIP3    H126807   2.535   1.524   2.352 -0.6031  0.0318  0.2873
 1724TIP3    H226808   2.648   1.605   2.413 -0.0213  0.0161 -0.7470
 1725TIP3   OH226809   1.160   0.819   1.841 -0.0934 -0.0584  0.3608
 1725TIP3    H126810   1.233   0.856   1.890 -0.2190  1.7793 -0.7218
 1725TIP3    H226811   1.082   0.863   1.876 -0.3867 -0.1514 -0.1523
 1726TIP3   OH226812   3.169   1.125   1.692  0.1297 -0.3365  0.2581
 1726TIP3    H126813   3.239   1.181   1.726  0.2040 -0.0813 -0.3033
 1726TIP3    H226814   3.186   1.039   1.730  0.5460 -0.1911  0.4025
 1727TIP3   OH226815   2.405   5.522   2.005  0.1414  0.0494 -0.0019
 1727TIP3    H126816   2.324   5.474   2.025 -1.1263  2.0493 -0.0108
 1727TIP3    H226817   2.376   5.612   1.993  2.6302  1.1790  1.7727
 1728TIP3   OH226818   2.729   1.031   8.428 -0.5016  0.0826  0.4589
 1728TIP3    H126819   2.637   1.016   8.407 -0.2941  0.8822 -1.2232
 1728TIP3    H226820   2.773   1.034   8.343  0.8326  1.2841  1.1449
 1729TIP3   OH226821   4.354   6.491   1.205  0.0401 -0.1790  0.3918
 1729TIP3    H126822   4.423   6.456   1.148  0.6810  0.6295  0.6452
 1729TIP3    H226823   4.360   6.439   1.285  1.4144  0.8727  1.0166
 1730TIP3   OH226824   4.397   4.010   3.383  0.5031  0.0923 -0.4830
 1730TIP3    H126825   4.449   4.065   3.324 -0.6420 -0.6459 -2.2493
 1730TIP3    H226826   4.333   3.968   3.327  0.0437 -1.5104  1.1396
 1731TIP3   OH226827   1.966   6.425   0.312 -0.1897 -0.1520  0.6164
 1731TIP3    H126828   2.013   6.467   0.384 -0.8963  0.6432  0.6315
 1731TIP3    H226829   1.921   6.497   0.268  0.3657 -0.5869 -0.7354
 1732TIP3   OH226830   6.455   3.749   1.662 -0.2177  0.1061  0.2095
 1732TIP3    H126831   6.496   3.803   1.729 -0.9060  0.8224  0.0627
 1732TIP3    H226832   6.525   3.730   1.600  0.0781  0.6298  0.3850
 1733TIP3   OH226833   6.855   1.980   1.371 -0.2160 -0.0009  0.1270
 1733TIP3    H126834   6.875   2.025   1.453 -0.8030 -0.4751  0.5448
 1733TIP3    H226835   6.895   2.034   1.303  0.7985  0.0792  0.7721
 1734TIP3   OH226836   5.509   0.405   0.485 -0.0445  0.3818  0.1018
 1734TIP3    H126837   5.563   0.418   0.563  2.7011 -1.7703 -1.2539
 1734TIP3    H226838   5.440   0.345   0.514  0.5093  0.1678  1.0387
 1735TIP3   OH226839   3.815   5.692   3.417 -0.4465 -0.5434 -0.5526
 1735TIP3    H126840   3.768   5.716   3.497  1.5066  0.6829  0.3151
 1735TIP3    H226841   3.771   5.741   3.347  0.0378  1.2716  0.3673
 1736TIP3   OH226842   2.535   5.733   2.288 -0.6752  0.5943 -0.6778
 1736TIP3    H126843   2.493   5.793   2.350 -0.6805  0.7032 -0.7876
 1736TIP3    H226844   2.490   5.749   2.205 -0.1434  1.0021 -0.8958
 1737TIP3   OH226845   1.443   0.570   2.779  0.1409  0.5650 -0.3984
 1737TIP3    H126846   1.383   0.607   2.844  2.1887  1.7329  0.9326
 1737TIP3    H226847   1.406   0.483   2.760  0.1042 -0.4592  3.3754
 1738TIP3   OH226848   4.503   3.752   1.451  0.2675 -0.1976  0.1639
 1738TIP3    H126849   4.518   3.717   1.539  0.4640  0.9163  0.5802
 1738TIP3    H226850   4.570   3.709   1.397  0.6889 -0.2480  0.7150
 1739TIP3   OH226851   4.160   2.196   3.168  0.1663  0.2475 -0.1746
 1739TIP3    H126852   4.164   2.124   3.230  0.9651  0.5335  0.1186
 1739TIP3    H226853   4.071   2.193   3.132 -0.6455  0.6883  1.7003
 1740TIP3   OH226854   1.762   4.568   8.004 -0.5314 -0.0937  0.5895
 1740TIP3    H126855   1.783   4.489   8.053 -1.7615 -0.2390  0.9270
 1740TIP3    H226856   1.671   4.588   8.028 -1.4230 -0.5113 -2.0565
 1741TIP3   OH226857   2.147   2.364   1.346  0.5912  0.4497 -0.0054
 1741TIP3    H126858   2.081   2.365   1.276 -0.0748  1.5649  0.6212
 1741TIP3    H226859   2.121   2.291   1.402 -0.4769  1.2324  0.5554
 1742TIP3   OH226860   3.642   2.594   2.261  0.4163  0.4411 -0.4380
 1742TIP3    H126861   3.567   2.590   2.202  0.3592 -1.2945 -0.2942
 1742TIP3    H226862   3.618   2.660   2.326 -1.8696 -1.4212  0.7597
 1743TIP3   OH226863   3.794   2.425   0.822 -0.2009 -0.2006 -0.3014
 1743TIP3    H126864   3.770   2.511   0.788  1.2157  0.1997 -0.3440
 1743TIP3    H226865   3.711   2.387   0.852 -0.9285  0.9314 -0.8119
 1744TIP3   OH226866   1.849   6.631   0.195 -0.2143 -0.3550 -0.1444
 1744TIP3    H126867   1.765   6.655   0.234 -0.7643  0.0125 -1.4952
 1744TIP3    H226868   1.828   6.608   0.104  1.0307 -1.0497 -0.2865
 1745TIP3   OH226869   2.989   4.898   1.345  0.2707  0.2786 -0.0812
 1745TIP3    H126870   3.050   4.826   1.362 -0.1764 -0.0910 -0.0173
 1745TIP3    H226871   3.042   4.964   1.300  0.6890 -0.0879 -0.1389
 1746TIP3   OH226872   1.504   2.870   3.672  0.5115  0.4262 -0.1927
 1746TIP3    H126873   1.544   2.809   3.610 -0.2453  3.1812 -3.7384
 1746TIP3    H226874   1.411   2.868   3.651  0.1510  1.1029  1.2419
 1747TIP3   OH226875   3.442   5.746   3.366 -0.0801 -0.1910 -0.1151
 1747TIP3    H126876   3.431   5.692   3.288  1.8636 -0.8043  0.0027
 1747TIP3    H226877   3.484   5.826   3.335 -1.7476  0.7639 -0.0746
 1748TIP3   OH226878   6.487   2.055   8.181  0.7125  0.2971  0.3052
 1748TIP3    H126879   6.402   2.024   8.211  1.5397 -0.8781  1.5730
 1748TIP3    H226880   6.488   2.039   8.087 -0.3782  0.1364  0.3113
 1749TIP3   OH226881   6.339   2.766   7.962  0.1935 -0.1412 -0.2097
 1749TIP3    H126882   6.315   2.811   8.043 -1.0658  0.0195 -0.6513
 1749TIP3    H226883   6.429   2.734   7.978  0.2763  0.5987  0.9244
 1750TIP3   OH226884   5.886   6.764   0.313 -0.4750 -0.1199 -0.3292
 1750TIP3    H126885   5.921   6.791   0.228  0.3089  1.2146  0.3921
 1750TIP3    H226886   5.849   6.844   0.350 -1.2396 -0.7951  0.3966
 1751TIP3   OH226887   5.538   2.228   3.546  0.1032  0.2240 -0.7283
 1751TIP3    H126888   5.515   2.318   3.522 -0.9811  1.0921  2.9307
 1751TIP3    H226889   5.626   2.215   3.511  0.2943  2.6926 -1.3225
 1752TIP3   OH226890   0.164   3.907   0.137  0.3445  0.3129  0.3087
 1752TIP3    H126891   0.208   3.910   0.052  3.1348 -0.8958  1.6003
 1752TIP3    H226892   0.221   3.956   0.196 -0.7913 -0.0831  1.8181
 1753TIP3   OH226893   5.855   1.803   8.148 -0.0931 -0.1857 -0.2321
 1753TIP3    H126894   5.929   1.793   8.088 -0.8821  2.7584 -1.8774
 1753TIP3    H226895   5.784   1.753   8.107  0.1306 -0.4550 -0.2933
 1754TIP3   OH226896   4.363   5.887   3.266 -0.0156  0.9376  0.2989
 1754TIP3    H126897   4.452   5.904   3.295  0.7255 -0.4889 -1.0147
 1754TIP3    H226898   4.343   5.799   3.298 -1.2479  1.4878  1.1694
 1755TIP3   OH226899   4.450   6.335   2.049 -0.0295  0.8465  0.4121
 1755TIP3    H126900   4.398   6.319   2.128  0.8457  0.8654  1.0047
 1755TIP3    H226901   4.521   6.272   2.053 -0.9370 -0.3651 -1.2905
 1756TIP3   OH226902   6.554   2.894   0.643 -0.3044 -0.1030  0.2346
 1756TIP3    H126903   6.614   2.911   0.571 -0.1127  0.4946  0.5235
 1756TIP3    H226904   6.470   2.928   0.613 -0.5788 -1.2222 -0.2921
 1757TIP3   OH226905   0.441   3.935   0.247 -0.2868  0.4912 -0.0559
 1757TIP3    H126906   0.396   3.923   0.330  0.0739  0.7357  0.1771
 1757TIP3    H226907   0.532   3.954   0.271  0.1955 -1.0589 -0.5446
 1758TIP3   OH226908   0.103   5.954   1.794 -0.0212 -0.2469 -0.2789
 1758TIP3    H126909   0.077   5.983   1.882 -0.3665 -0.5700 -0.2714
 1758TIP3    H226910   0.197   5.940   1.801 -0.0432 -0.2540  0.0405
 1759TIP3   OH226911   6.523   4.602   8.573 -0.3192 -0.0294 -0.3115
 1759TIP3    H126912   6.526   4.637   8.662  1.2938  0.6795 -0.6209
 1759TIP3    H226913   6.614   4.592   8.548 -0.7507 -1.1477 -1.5519
 1760TIP3   OH226914   3.329   5.279   1.112 -0.3832 -0.4537  0.4060
 1760TIP3    H126915   3.318   5.366   1.073 -0.7865  0.2294  2.0000
 1760TIP3    H226916   3.370   5.227   1.042 -1.6992  0.5275 -1.1763
 1761TIP3   OH226917   4.818   4.211   3.072  0.0321  0.3190 -0.0169
 1761TIP3    H126918   4.882   4.141   3.076  0.0009  0.1783 -1.4601
 1761TIP3    H226919   4.852   4.272   3.007  0.5014  2.1447  1.8146
 1762TIP3   OH226920   2.007   5.603   1.729  0.4778  0.1208 -0.2669
 1762TIP3    H126921   1.967   5.675   1.777 -1.4581 -0.5440 -0.7736
 1762TIP3    H226922   2.050   5.645   1.655 -0.8132  0.7889 -0.6826
 1763TIP3   OH226923   0.537   4.828   1.120 -0.2454  0.4819  0.1450
 1763TIP3    H126924   0.501   4.752   1.166 -1.4182  1.6590  1.2642
 1763TIP3    H226925   0.626   4.837   1.153 -0.0107 -0.5231 -0.1777
 1764TIP3   OH226926   5.586   6.184   2.525 -0.0497 -0.3121  0.3006
 1764TIP3    H126927   5.619   6.095   2.512  0.3688 -0.2137  0.6544
 1764TIP3    H226928   5.581   6.193   2.620 -0.6802 -0.1664  0.2586
 1765TIP3   OH226929   6.261   4.013   0.937  0.0770  0.6178  0.3990
 1765TIP3    H126930   6.265   4.104   0.967  0.4612  0.2712  1.4244
 1765TIP3    H226931   6.352   3.990   0.918 -0.0734  0.5874 -0.3307
 1766TIP3   OH226932   0.485   5.141   2.958 -0.3589  0.3171  0.1938
 1766TIP3    H126933   0.559   5.086   2.933  0.0489  1.2990 -0.7926
 1766TIP3    H226934   0.414   5.113   2.901 -0.7533 -0.5603  1.0766
 1767TIP3   OH226935   3.673   5.244   8.451 -0.5414 -0.1773 -0.0299
 1767TIP3    H126936   3.616   5.313   8.419 -0.4477  0.4702  1.1313
 1767TIP3    H226937   3.755   5.257   8.404 -0.2668  1.0088  0.7298
 1768TIP3   OH226938   1.878   3.174   3.732 -0.3754  0.3344  0.9126
 1768TIP3    H126939   1.965   3.209   3.752 -0.2099 -0.1041  0.9887
 1768TIP3    H226940   1.819   3.224   3.787 -0.2259  0.9538  0.5184
 1769TIP3   OH226941   6.183   5.135   1.580  0.5000 -0.3577  0.0536
 1769TIP3    H126942   6.184   5.143   1.675 -0.7329 -0.9168  0.1310
 1769TIP3    H226943   6.095   5.161   1.554 -0.2483 -3.2021 -0.6090
 1770TIP3   OH226944   1.628   1.855   2.284 -0.3756  0.3233 -0.0763
 1770TIP3    H126945   1.588   1.892   2.363  0.4816 -2.2279  1.6928
 1770TIP3    H226946   1.721   1.847   2.305 -0.3875 -2.0328 -0.5680
 1771TIP3   OH226947   1.718   0.869   3.149 -0.0229 -0.3562 -0.4092
 1771TIP3    H126948   1.773   0.814   3.093 -0.6432 -0.0751 -1.3078
 1771TIP3    H226949   1.751   0.957   3.136 -0.1312 -0.2947 -0.2714
 1772TIP3   OH226950   6.010   2.498   2.577  0.2977 -0.0253  0.3899
 1772TIP3    H126951   5.963   2.429   2.623  2.0450 -1.2233  0.4668
 1772TIP3    H226952   6.010   2.572   2.638  0.8223 -0.9051  1.4908
 1773TIP3   OH226953   4.250   2.265   3.477  0.4551  0.0253  0.1257
 1773TIP3    H126954   4.301   2.326   3.425  0.5990 -1.1285 -1.1433
 1773TIP3    H226955   4.303   2.250   3.556  1.5214 -0.2165 -0.6110
 1774TIP3   OH226956   2.338   4.019   1.280 -0.0083 -0.2197 -1.1273
 1774TIP3    H126957   2.274   4.076   1.322 -0.2192 -0.4950 -1.0694
 1774TIP3    H226958   2.353   4.059   1.194 -0.2805 -0.1670 -1.1522
 1775TIP3   OH226959   4.886   0.751   2.219 -0.0903 -0.2160  0.6105
 1775TIP3    H126960   4.887   0.795   2.135 -2.1027  0.4161  0.8836
 1775TIP3    H226961   4.794   0.731   2.235  0.2407 -0.2748  2.6838
 1776TIP3   OH226962   6.384   1.779   0.230 -0.0103  0.2785  0.2043
 1776TIP3    H126963   6.411   1.704   0.177 -0.6857 -0.0572  0.3242
 1776TIP3    H226964   6.291   1.764   0.247 -0.0050  0.8288  0.7474
 1777TIP3   OH226965   4.156   1.631   3.324  0.0617  0.3481 -0.3694
 1777TIP3    H126966   4.200   1.716   3.319 -1.9893  1.3970 -1.3507
 1777TIP3    H226967   4.079   1.647   3.378  0.9829 -1.5624  1.6677
 1778TIP3   OH226968   3.477   0.753   2.120 -0.0437 -0.0890 -0.4554
 1778TIP3    H126969   3.470   0.689   2.049  0.5154  0.3159 -0.8869
 1778TIP3    H226970   3.470   0.701   2.200  1.8109 -0.9181 -0.7629
 1779TIP3   OH226971   4.482   5.677   1.111 -0.7986  0.1432  0.3078
 1779TIP3    H126972   4.471   5.613   1.040 -0.2362 -3.5100  3.1913
 1779TIP3    H226973   4.576   5.678   1.129 -0.9264  1.0553  0.9987
 1780TIP3   OH226974   4.887   1.245   0.649  0.5276  0.0579 -0.8133
 1780TIP3    H126975   4.871   1.332   0.685 -0.0313  0.8881 -2.8858
 1780TIP3    H226976   4.892   1.259   0.554 -1.1408 -2.3699 -1.3696
 1781TIP3   OH226977   0.031   1.818   2.203 -0.2587  0.5760 -0.0827
 1781TIP3    H126978  -0.012   1.898   2.174 -0.0255  0.8614  0.3450
 1781TIP3    H226979  -0.040   1.762   2.234 -0.4283  0.5887 -0.4410
 1782TIP3   OH226980   6.462   3.683   1.122 -0.3589 -0.6456 -0.1483
 1782TIP3    H126981   6.451   3.638   1.039 -1.2979 -0.6403 -0.0298
 1782TIP3    H226982   6.374   3.707   1.149  0.0906  1.3511 -0.2491
 1783TIP3   OH226983   1.192   4.402   3.701  0.2796 -0.3055  0.8731
 1783TIP3    H126984   1.234   4.319   3.721 -0.1213 -1.0062 -1.0172
 1783TIP3    H226985   1.099   4.381   3.691  0.2471  0.2462 -0.1601
 1784TIP3   OH226986   2.771   2.760   2.478 -0.0464  0.5086 -0.2833
 1784TIP3    H126987   2.865   2.743   2.491  0.0073  0.7668 -0.3224
 1784TIP3    H226988   2.727   2.700   2.538  0.0999 -0.5456 -1.2183
 1785TIP3   OH226989   0.798   4.747   8.306  0.8866 -0.9062 -0.7344
 1785TIP3    H126990   0.808   4.764   8.400 -1.6394 -0.6793 -0.4397
 1785TIP3    H226991   0.746   4.821   8.274  0.7488 -1.5717 -2.0922
 1786TIP3   OH226992   3.311   5.269   3.202 -0.0655  0.5301 -0.3117
 1786TIP3    H126993   3.326   5.223   3.285 -0.5883  1.6235  0.4106
 1786TIP3    H226994   3.221   5.300   3.207  0.2589  1.6064 -0.7776
 1787TIP3   OH226995   4.346   0.331   3.779 -0.7195  0.1111 -0.0671
 1787TIP3    H126996   4.305   0.276   3.846 -0.5661 -0.1320 -0.1699
 1787TIP3    H226997   4.274   0.382   3.742 -0.5605  1.6311  1.5520
 1788TIP3   OH226998   1.530   3.184   2.599  0.4697 -0.1375 -0.3454
 1788TIP3    H126999   1.625   3.199   2.600  0.3340  0.8378  0.8136
 1788TIP3    H227000   1.512   3.142   2.682 -0.2088  0.3155 -0.2629
 1789TIP3   OH227001   1.140   1.696   1.944  0.3210 -0.3987  0.2227
 1789TIP3    H127002   1.098   1.625   1.896  1.4458 -0.2625 -1.0036
 1789TIP3    H227003   1.233   1.681   1.932  0.5801  1.5987 -0.5167
 1790TIP3   OH227004   0.695   4.771   0.509 -0.6779 -0.2489 -0.6251
 1790TIP3    H127005   0.652   4.697   0.552 -1.8437  0.7076 -0.0591
 1790TIP3    H227006   0.732   4.735   0.429 -2.1765 -1.2432 -0.9102
 1791TIP3   OH227007   2.393   6.444   0.396  0.0298 -0.0031  0.2067
 1791TIP3    H127008   2.473   6.484   0.362 -0.3209 -1.0443 -2.0551
 1791TIP3    H227009   2.323   6.504   0.369 -0.2390 -0.7455 -0.7845
 1792TIP3   OH227010   2.792   6.298   3.312 -0.8369 -0.2468  0.4325
 1792TIP3    H127011   2.817   6.373   3.257  0.5682 -0.7440  0.3464
 1792TIP3    H227012   2.861   6.294   3.379 -1.5366 -0.7689  1.1360
 1793TIP3   OH227013   2.799   4.070   0.910 -0.0721  0.2754  0.2359
 1793TIP3    H127014   2.877   4.126   0.918 -0.5015  0.6880  2.0974
 1793TIP3    H227015   2.791   4.053   0.817  1.6876  1.0320 -0.0962
 1794TIP3   OH227016   1.393   4.288   0.668  0.1774 -0.2403 -0.2472
 1794TIP3    H127017   1.379   4.210   0.614 -1.1730 -0.6820  0.6896
 1794TIP3    H227018   1.431   4.255   0.749  1.0608  0.2763 -0.4390
 1795TIP3   OH227019   5.525   0.305   1.407  0.0589 -0.0374  0.2761
 1795TIP3    H127020   5.510   0.211   1.403  2.3546 -0.4446  0.2049
 1795TIP3    H227021   5.588   0.317   1.478  2.9797  0.9225 -2.2616
 1796TIP3   OH227022   3.604   2.922   2.869  0.4094  0.1874  0.1322
 1796TIP3    H127023   3.511   2.942   2.853  0.2381  0.6439  1.5595
 1796TIP3    H227024   3.616   2.938   2.962  2.2039  1.2340 -0.2287
 1797TIP3   OH227025   1.198   4.690   2.447 -0.2085 -0.5713  0.1394
 1797TIP3    H127026   1.159   4.754   2.387 -1.1542 -1.0346  0.2369
 1797TIP3    H227027   1.290   4.686   2.422 -0.7102 -1.2801 -1.7615
 1798TIP3   OH227028   3.275   4.689   2.939 -0.0438  0.3256 -0.9630
 1798TIP3    H127029   3.349   4.628   2.944  0.0916  0.2218 -3.1115
 1798TIP3    H227030   3.210   4.655   3.000  1.3460 -0.0286  0.3792
 1799TIP3   OH227031   3.925   3.496   2.177  0.1383  0.0654 -0.3533
 1799TIP3    H127032   3.907   3.436   2.249  1.0715 -1.3343 -1.2215
 1799TIP3    H227033   3.948   3.438   2.103  1.7675  1.4838 -1.0393
 1800TIP3   OH227034   0.612   6.148   3.004  0.4573 -0.4809  0.1860
 1800TIP3    H127035   0.610   6.243   2.987 -1.6843 -0.4027  0.6164
 1800TIP3    H227036   0.697   6.134   3.046  0.5783  1.3606  0.6751
 1801TIP3   OH227037   2.585   5.116   8.263  0.2626 -0.5320 -0.9115
 1801TIP3    H127038   2.537   5.188   8.224  2.0744  0.1836 -1.9380
 1801TIP3    H227039   2.519   5.050   8.281 -1.2936  0.9696 -0.8816
 1802TIP3   OH227040   3.777   0.380   2.365  0.1320  0.3959 -0.4046
 1802TIP3    H127041   3.712   0.364   2.434 -1.4616  0.0568 -1.9262
 1802TIP3    H227042   3.728   0.422   2.295  1.2579 -1.0641 -2.1372
 1803TIP3   OH227043   1.236   2.806   2.669  0.0698  0.2945  0.1574
 1803TIP3    H127044   1.307   2.807   2.605 -2.2296  1.7654 -2.6197
 1803TIP3    H227045   1.194   2.720   2.657 -2.0626  1.5708 -2.5795
 1804TIP3   OH227046   4.751   1.719   0.528  0.6350 -0.6476 -0.5272
 1804TIP3    H127047   4.793   1.659   0.467  1.5101  0.0247 -0.6085
 1804TIP3    H227048   4.756   1.805   0.485  0.2040 -0.3667 -0.0313
 1805TIP3   OH227049   2.892   4.723   1.120  0.0286  0.3670 -0.5376
 1805TIP3    H127050   2.908   4.753   1.210 -1.2948 -0.4186 -0.0075
 1805TIP3    H227051   2.973   4.676   1.097 -0.0404 -0.4256  0.7010
 1806TIP3   OH227052   5.434   2.344   1.278 -0.0356 -0.0629  0.3870
 1806TIP3    H127053   5.481   2.279   1.225 -0.8095 -0.3241  0.0037
 1806TIP3    H227054   5.448   2.315   1.368 -0.5133 -0.8675  0.2122
 1807TIP3   OH227055   3.456   6.056   1.770 -0.7472  0.1673  0.4095
 1807TIP3    H127056   3.394   6.121   1.737 -1.6657  0.1754  2.0593
 1807TIP3    H227057   3.421   5.972   1.739 -1.3194  0.2136  0.9150
 1808TIP3   OH227058   1.723   3.108   0.546 -0.3144 -0.0036  0.0042
 1808TIP3    H127059   1.777   3.060   0.608  0.3085  1.5844  0.7583
 1808TIP3    H227060   1.707   3.192   0.588  0.2634  1.2039 -2.0323
 1809TIP3   OH227061   6.231   4.212   1.284 -0.7118  0.1098 -0.1724
 1809TIP3    H127062   6.223   4.148   1.354 -0.8422 -1.3090 -1.4232
 1809TIP3    H227063   6.213   4.296   1.325  1.2226 -0.4210  1.9190
 1810TIP3   OH227064   1.731   6.022   0.721  0.3520 -0.1920 -0.3695
 1810TIP3    H127065   1.823   5.995   0.727 -0.4188 -2.7040  1.4465
 1810TIP3    H227066   1.704   5.993   0.634  1.0621 -0.1572 -0.6091
 1811TIP3   OH227067   0.008   2.115   2.525 -0.4401  0.0704  0.0308
 1811TIP3    H127068   0.070   2.068   2.470 -1.7250 -2.2409  0.4559
 1811TIP3    H227069  -0.025   2.186   2.470  0.7795 -0.1188 -0.9875
 1812TIP3   OH227070   5.529   2.628   0.707  0.1753 -0.0220  0.7142
 1812TIP3    H127071   5.486   2.570   0.644  1.4199  0.4811 -0.6927
 1812TIP3    H227072   5.604   2.664   0.658  0.2674  1.6471  1.9861
 1813TIP3   OH227073   2.645   6.794   3.025 -0.0011 -0.2882 -0.5697
 1813TIP3    H127074   2.740   6.787   3.033 -0.0277  0.5567  0.6181
 1813TIP3    H227075   2.616   6.831   3.108 -1.5301 -1.8315 -0.3507
 1814TIP3   OH227076   0.476   1.066   3.196  0.5642  0.0700 -0.5077
 1814TIP3    H127077   0.570   1.071   3.210  0.2560  0.2280  1.8296
 1814TIP3    H227078   0.464   1.097   3.106  2.7146  0.0867 -0.8446
 1815TIP3   OH227079   1.612   4.400   1.981  0.5610 -0.3202 -0.0071
 1815TIP3    H127080   1.629   4.483   1.935  0.3413 -0.3017 -0.0548
 1815TIP3    H227081   1.649   4.414   2.069 -1.2955  0.5961  0.6788
 1816TIP3   OH227082   2.504   0.113   1.269 -0.1718 -0.7958 -0.0393
 1816TIP3    H127083   2.518   0.148   1.357 -2.6682 -2.4694  1.1527
 1816TIP3    H227084   2.409   0.114   1.257  0.1157  1.4210 -3.6841
 1817TIP3   OH227085   4.064   1.854   1.426 -0.0854  0.4872 -0.2970
 1817TIP3    H127086   4.086   1.763   1.408 -0.1509  0.1889  1.0713
 1817TIP3    H227087   3.983   1.850   1.477 -1.1333  1.4026 -1.8002
 1818TIP3   OH227088   5.839   2.046   0.542  0.5313  0.0537  1.0131
 1818TIP3    H127089   5.812   1.957   0.564  0.5463  0.3085  2.1407
 1818TIP3    H227090   5.832   2.050   0.447 -0.8941 -0.6943  1.0542
 1819TIP3   OH227091   1.519   3.906   2.143 -0.2344  0.0346 -0.4252
 1819TIP3    H127092   1.603   3.906   2.097 -0.3948 -0.8635 -0.7289
 1819TIP3    H227093   1.495   3.999   2.148  1.0980  0.3670  0.2766
 1820TIP3   OH227094   3.004   4.240   1.001  0.4826  0.3585  0.2522
 1820TIP3    H127095   3.048   4.273   0.922 -0.0905 -0.6307 -0.5079
 1820TIP3    H227096   3.064   4.261   1.072  2.6731 -1.7022 -0.8317
 1821TIP3   OH227097   6.660   4.883   0.676  0.0911  0.4140  0.4583
 1821TIP3    H127098   6.610   4.955   0.714 -0.1453  0.4808  0.0265
 1821TIP3    H227099   6.595   4.816   0.656  0.2503  0.2646  0.4363
 1822TIP3   OH227100   2.637   1.168   0.601  0.1521 -0.3385  0.2199
 1822TIP3    H127101   2.548   1.157   0.633  0.1608  1.4087  0.9320
 1822TIP3    H227102   2.628   1.212   0.517  0.3128 -1.4692 -0.4198
 1823TIP3   OH227103   1.720   3.843   0.119 -0.0171 -0.2974  0.7816
 1823TIP3    H127104   1.687   3.796   0.195  1.2585 -3.0531 -0.2476
 1823TIP3    H227105   1.756   3.775   0.062  2.0130  1.9415 -0.8204
 1824TIP3   OH227106   6.138   5.196   1.040 -0.0617 -0.4556  0.2651
 1824TIP3    H127107   6.071   5.264   1.049 -0.0952 -0.5625  0.8625
 1824TIP3    H227108   6.173   5.185   1.129 -0.1130 -1.2710  0.1903
 1825TIP3   OH227109   5.075   0.187   1.441 -0.1017  0.1520 -0.2800
 1825TIP3    H127110   5.118   0.149   1.518 -0.5988  0.9149  0.3830
 1825TIP3    H227111   4.982   0.173   1.455 -0.1097 -2.0213 -1.9957
 1826TIP3   OH227112   4.126   1.003   0.960 -0.7666 -0.0346  0.7173
 1826TIP3    H127113   4.143   1.097   0.956 -0.6957 -0.0562  0.5162
 1826TIP3    H227114   4.210   0.962   0.940 -0.1062 -0.1629  3.3842
 1827TIP3   OH227115   3.050   4.807   2.511 -0.3019 -0.3369  0.3488
 1827TIP3    H127116   3.114   4.861   2.558 -0.0630 -0.8079  0.5730
 1827TIP3    H227117   2.975   4.804   2.570 -0.0704 -0.7785  0.6248
 1828TIP3   OH227118   6.570   0.300   3.160 -0.4151  0.0029  0.2382
 1828TIP3    H127119   6.617   0.216   3.163  0.2762  0.1762 -2.7362
 1828TIP3    H227120   6.492   0.286   3.214 -1.7155 -3.4935 -2.2138
 1829TIP3   OH227121   2.130   3.050   1.767 -0.1048 -0.4015 -0.2314
 1829TIP3    H127122   2.218   3.012   1.767 -0.0177 -0.2070  0.0157
 1829TIP3    H227123   2.071   2.976   1.758  0.0654 -0.5881  0.1543
 1830TIP3   OH227124   0.964   3.292   3.823 -0.3089  0.0713 -1.0318
 1830TIP3    H127125   1.040   3.237   3.804  0.2380  0.7946 -0.9729
 1830TIP3    H227126   0.889   3.238   3.799  0.2366 -0.5092 -1.4580
 1831TIP3   OH227127   4.977   4.273   8.151 -0.0311  0.2457  0.1440
 1831TIP3    H127128   4.916   4.208   8.184 -0.9723  1.2713  0.4823
 1831TIP3    H227129   5.000   4.242   8.063 -1.3328  0.0216 -0.1350
 1832TIP3   OH227130   0.395   4.968   0.396 -0.4004 -0.2226 -0.2698
 1832TIP3    H127131   0.343   5.014   0.462  0.2447  2.3011 -1.3702
 1832TIP3    H227132   0.481   5.010   0.400  0.2438 -1.3598 -1.3728
 1833TIP3   OH227133   2.967   3.936   2.252  0.0697 -0.2139 -0.0259
 1833TIP3    H127134   2.885   3.935   2.301  0.3368  0.9802  0.4816
 1833TIP3    H227135   2.943   3.972   2.166 -0.1379 -0.9989 -0.3125
 1834TIP3   OH227136   5.166   0.539   8.002 -0.4811  0.0756  0.4662
 1834TIP3    H127137   5.201   0.475   7.941 -0.7170 -0.3007  0.7203
 1834TIP3    H227138   5.096   0.493   8.048 -0.6628  0.5187  0.6438
 1835TIP3   OH227139   1.602   1.986   2.526  0.2203  0.7393 -0.2220
 1835TIP3    H127140   1.558   1.925   2.585  1.4898 -2.2761 -2.1458
 1835TIP3    H227141   1.692   1.955   2.522  0.6480  2.0465 -2.2147
 1836TIP3   OH227142   3.176   5.833   0.490  0.3749  0.3296 -0.2991
 1836TIP3    H127143   3.165   5.926   0.507 -2.8858  0.1987 -0.9619
 1836TIP3    H227144   3.193   5.795   0.576 -0.5099  1.3286  0.3481
 1837TIP3   OH227145   2.124   4.808   1.432 -0.4463  0.0832 -0.2953
 1837TIP3    H127146   2.104   4.857   1.512  0.4885 -0.0453  0.0251
 1837TIP3    H227147   2.087   4.862   1.362  0.3856  1.1776  0.0655
 1838TIP3   OH227148   2.579   2.177   2.673  0.6708 -0.2736  0.3575
 1838TIP3    H127149   2.508   2.114   2.662 -0.3541  0.9783 -0.5132
 1838TIP3    H227150   2.535   2.262   2.681  2.0431  1.0185 -3.5787
 1839TIP3   OH227151   0.181   4.755   2.425  0.0437  0.4089 -0.3019
 1839TIP3    H127152   0.184   4.693   2.498  1.2170  0.2094 -0.5092
 1839TIP3    H227153   0.159   4.838   2.466  0.6824  0.2971  0.2893
 1840TIP3   OH227154   4.593   2.823   0.612 -0.1199 -0.4869  0.1371
 1840TIP3    H127155   4.582   2.729   0.597 -0.4553 -0.4238  0.0064
 1840TIP3    H227156   4.670   2.847   0.561 -1.4218 -0.2027 -1.7735
 1841TIP3   OH227157   0.696   3.475   3.226  0.5964 -0.1019  0.2384
 1841TIP3    H127158   0.697   3.491   3.321  1.1184 -0.7060  0.3374
 1841TIP3    H227159   0.662   3.557   3.189  1.2181  0.4669  0.8888
 1842TIP3   OH227160   3.863   4.349   2.695 -0.3270 -0.3058  0.4511
 1842TIP3    H127161   3.854   4.350   2.791 -0.0853  0.2968  0.4727
 1842TIP3    H227162   3.778   4.378   2.663 -0.8905 -1.8680  0.4268
 1843TIP3   OH227163   0.751   1.119   8.481 -0.0717 -0.5105 -0.0073
 1843TIP3    H127164   0.712   1.034   8.503 -0.8112  0.1205  1.2091
 1843TIP3    H227165   0.677   1.175   8.462  0.3913 -0.0114 -0.3434
 1844TIP3   OH227166   1.228   6.686   1.668  0.0398  0.3427  0.3108
 1844TIP3    H127167   1.321   6.661   1.669  0.3133  1.3450  0.3382
 1844TIP3    H227168   1.225   6.764   1.612 -1.2221 -1.3527 -2.2018
 1845TIP3   OH227169   0.347   4.339   2.843 -0.0653 -0.0103 -0.4183
 1845TIP3    H127170   0.378   4.270   2.901 -1.0415 -0.6247 -0.5951
 1845TIP3    H227171   0.277   4.297   2.792 -2.0942  1.6262  0.8630
 1846TIP3   OH227172   4.685   3.653   2.736 -0.1478  0.2048  0.1961
 1846TIP3    H127173   4.700   3.603   2.656  0.1016  1.0607 -0.3087
 1846TIP3    H227174   4.769   3.694   2.755 -0.4455  0.7578  0.3606
 1847TIP3   OH227175   1.056   3.311   3.068  0.0117  0.5734 -0.2883
 1847TIP3    H127176   0.974   3.340   3.028 -0.8924 -0.1456  0.9626
 1847TIP3    H227177   1.048   3.215   3.072  1.1561  0.4413 -0.6255
 1848TIP3   OH227178   1.789   0.926   2.846 -0.2022  0.5758 -0.2135
 1848TIP3    H127179   1.760   0.976   2.923  0.0478 -1.4664  1.3136
 1848TIP3    H227180   1.876   0.893   2.871  0.0953  0.2577 -1.5943
 1849TIP3   OH227181   1.054   4.638   8.234 -0.5907  0.3576 -0.4016
 1849TIP3    H127182   1.013   4.715   8.275 -2.1697 -0.6958  0.1106
 1849TIP3    H227183   1.058   4.660   8.141 -0.7315  1.1797 -0.2238
 1850TIP3   OH227184   5.039   6.812   2.965  0.5730 -0.5240  0.4051
 1850TIP3    H127185   5.036   6.908   2.966  3.0557 -0.3737  0.9028
 1850TIP3    H227186   5.021   6.788   2.875 -0.4895  0.3726  0.3573
 1851TIP3   OH227187   4.809   2.628   1.457 -0.8068  0.0564  0.5882
 1851TIP3    H127188   4.731   2.576   1.441 -3.3846  3.2678  1.4850
 1851TIP3    H227189   4.864   2.572   1.512 -2.1416 -2.5365 -0.5232
 1852TIP3   OH227190   4.124   5.706   1.526  0.1275 -0.6654  0.3536
 1852TIP3    H127191   4.107   5.662   1.609  1.0829  0.1373  1.0052
 1852TIP3    H227192   4.146   5.636   1.466 -0.6052 -1.2638  0.7639
 1853TIP3   OH227193   5.940   6.206   0.992 -0.3299  0.4525 -0.4236
 1853TIP3    H127194   5.934   6.164   1.077 -1.6513 -1.6838 -1.4786
 1853TIP3    H227195   5.923   6.299   1.009  3.8804  1.0271  2.2003
 1854TIP3   OH227196   4.532   1.475   8.137 -0.4913  0.3872  0.2863
 1854TIP3    H127197   4.513   1.471   8.043 -2.6511  2.8415  0.4941
 1854TIP3    H227198   4.446   1.474   8.179  0.4330 -3.1988  2.5408
 1855TIP3   OH227199   5.968   1.196   3.390 -0.4658 -0.4851  0.0712
 1855TIP3    H127200   5.875   1.209   3.408 -0.2681 -0.5202  1.2147
 1855TIP3    H227201   6.011   1.271   3.433 -0.0297  0.1057 -1.3203
 1856TIP3   OH227202   2.117   5.251   3.397 -0.2468  0.1853 -0.1829
 1856TIP3    H127203   2.133   5.172   3.345 -1.9095  1.2027 -2.4010
 1856TIP3    H227204   2.197   5.262   3.450  1.2744 -1.3013 -2.0283
 1857TIP3   OH227205   0.411   3.377   1.172 -0.0369 -0.1197  0.4251
 1857TIP3    H127206   0.431   3.340   1.258  1.0131 -1.8682 -0.5285
 1857TIP3    H227207   0.331   3.333   1.145 -0.5056  0.6133  0.5900
 1858TIP3   OH227208   1.532   4.412   2.483  0.1073  0.3798  0.9808
 1858TIP3    H127209   1.533   4.490   2.428 -1.4550  0.7861  1.4943
 1858TIP3    H227210   1.526   4.339   2.421 -1.8511  0.8385  0.5877
 1859TIP3   OH227211   3.394   3.070   0.689  0.3913  0.2920  0.5600
 1859TIP3    H127212   3.390   2.997   0.750  2.8127 -0.3233  0.0781
 1859TIP3    H227213   3.478   3.112   0.707  0.7006  0.7190 -1.6306
 1860TIP3   OH227214   3.000   5.069   2.166 -0.0672 -0.0001  0.3217
 1860TIP3    H127215   2.961   5.014   2.098  2.7506 -0.8823 -0.7310
 1860TIP3    H227216   2.999   5.157   2.130  2.5672 -0.6418 -1.5647
 1861TIP3   OH227217   3.304   4.612   0.783 -0.2556 -0.0053 -0.2354
 1861TIP3    H127218   3.307   4.700   0.818  1.7609  0.2039 -0.8219
 1861TIP3    H227219   3.266   4.622   0.695 -0.8757  0.1264  0.0408
 1862TIP3   OH227220   1.783   6.449   2.891  0.5252 -0.3602 -0.3584
 1862TIP3    H127221   1.849   6.497   2.942 -1.0442 -0.5791  1.9883
 1862TIP3    H227222   1.725   6.517   2.858 -0.5573 -0.4351  1.2987
 1863TIP3   OH227223   4.191   4.554   2.727  0.4313 -0.1292  0.5982
 1863TIP3    H127224   4.212   4.646   2.744 -0.2678 -0.0297  0.9202
 1863TIP3    H227225   4.274   4.508   2.741  0.8468  0.4770  0.1870
 1864TIP3   OH227226   2.309   4.353   0.896  0.4284 -0.3820 -0.1058
 1864TIP3    H127227   2.316   4.447   0.878  2.2538 -0.4789 -0.0480
 1864TIP3    H227228   2.365   4.312   0.831  0.6628 -1.3393  0.6860
 1865TIP3   OH227229   5.122   1.743   2.282 -0.3065 -0.4129  0.2280
 1865TIP3    H127230   5.169   1.705   2.208  0.2061 -0.7544  0.7157
 1865TIP3    H227231   5.068   1.812   2.244 -0.5185 -0.9959 -0.5427
 1866TIP3   OH227232   4.321   6.352   1.447  0.3824  0.1831 -0.0134
 1866TIP3    H127233   4.325   6.355   1.543  0.0842  1.1199 -0.0201
 1866TIP3    H227234   4.260   6.281   1.428  1.1767 -0.6395  0.4655
 1867TIP3   OH227235   2.065   3.413   1.008 -0.3839 -0.0775  0.0265
 1867TIP3    H127236   2.081   3.507   1.000  1.1225 -0.4126 -1.5380
 1867TIP3    H227237   2.106   3.389   1.091 -0.5127  0.5877  0.2919
 1868TIP3   OH227238   2.065   6.288   3.941 -0.0971 -0.6869  0.6176
 1868TIP3    H127239   2.125   6.223   3.904 -0.4931 -1.7781  1.7730
 1868TIP3    H227240   2.049   6.350   3.871  1.5216 -0.9860 -0.0496
 1869TIP3   OH227241   6.506   6.874   0.334 -0.3644 -0.5055  0.0988
 1869TIP3    H127242   6.410   6.884   0.337 -0.6014 -2.4581  0.1719
 1869TIP3    H227243   6.522   6.788   0.372  1.4134 -0.3622 -0.2647
 1870TIP3   OH227244   0.425   4.454   1.092 -0.3455 -0.0605  0.2651
 1870TIP3    H127245   0.363   4.396   1.048 -0.2793  1.1811 -1.5639
 1870TIP3    H227246   0.394   4.460   1.182 -1.8946 -0.7835 -0.1993
 1871TIP3   OH227247   3.675   0.763   1.178 -0.0780  0.4380  0.7727
 1871TIP3    H127248   3.594   0.764   1.129  0.5327 -2.6853 -0.5182
 1871TIP3    H227249   3.664   0.692   1.242  1.6093 -0.0919  0.5327
 1872TIP3   OH227250   2.264   0.522   0.163 -0.3075  0.8058 -0.0977
 1872TIP3    H127251   2.179   0.494   0.127 -0.2671 -0.0047  0.4038
 1872TIP3    H227252   2.243   0.557   0.249  0.0972 -1.7705  1.1553
 1873TIP3   OH227253   6.193   1.312   0.624 -0.1190 -0.3367 -0.1124
 1873TIP3    H127254   6.203   1.293   0.717  0.6530  1.3746  0.2042
 1873TIP3    H227255   6.136   1.389   0.622 -0.3314 -0.5097 -1.0729
 1874TIP3   OH227256   6.561   6.806   1.779 -0.0842  0.3320  0.4674
 1874TIP3    H127257   6.512   6.749   1.720 -0.8834  2.1278 -0.7020
 1874TIP3    H227258   6.652   6.780   1.768 -0.4768 -1.2464  0.6197
 1875TIP3   OH227259   4.030   5.275   2.023  0.0505 -0.0850 -0.1735
 1875TIP3    H127260   4.035   5.362   1.984 -0.9819 -0.1085 -0.3999
 1875TIP3    H227261   4.098   5.225   1.978  1.0817  0.7526  0.4074
 1876TIP3   OH227262   5.954   1.800   3.735 -0.3017  0.9290  0.4554
 1876TIP3    H127263   5.998   1.795   3.650 -0.9068  0.5261  0.1612
 1876TIP3    H227264   5.907   1.717   3.742 -3.2731  2.3913 -0.4810
 1877TIP3   OH227265   0.456   5.830   8.056  0.3461 -0.0792  0.4517
 1877TIP3    H127266   0.434   5.739   8.039 -0.1759  0.1896 -0.3409
 1877TIP3    H227267   0.411   5.880   7.988  3.1857  0.5176 -1.1693
 1878TIP3   OH227268   1.184   4.049   1.542  0.3273 -0.0806 -0.9046
 1878TIP3    H127269   1.264   4.014   1.579 -0.8200 -1.3523  0.5088
 1878TIP3    H227270   1.164   4.127   1.595 -1.1023 -1.6756  1.0620
 1879TIP3   OH227271   0.013   6.081   1.324  0.0390 -0.2231  0.4190
 1879TIP3    H127272   0.049   6.061   1.238  1.7586  1.6742  0.6103
 1879TIP3    H227273  -0.072   6.038   1.326  0.1950 -0.7530 -2.0096
 1880TIP3   OH227274   2.267   5.363   4.016  0.2263  0.1422  0.0680
 1880TIP3    H127275   2.222   5.282   3.991  1.3220 -0.0910 -1.2484
 1880TIP3    H227276   2.342   5.368   3.958  0.8944  1.4690  0.9867
 1881TIP3   OH227277   2.878   3.707   3.456 -0.5492 -0.5667  0.4029
 1881TIP3    H127278   2.809   3.641   3.447 -0.9302 -0.3976  1.8755
 1881TIP3    H227279   2.859   3.772   3.389 -0.1090 -1.9745 -1.1528
 1882TIP3   OH227280   0.326   1.567   8.327  0.5771 -0.1761  0.4016
 1882TIP3    H127281   0.259   1.511   8.366  1.3232 -2.6014 -1.5861
 1882TIP3    H227282   0.285   1.602   8.248  0.8850  0.3143  0.4532
 1883TIP3   OH227283   1.439   5.752   0.758  0.5199  0.4710  0.5896
 1883TIP3    H127284   1.493   5.720   0.686  1.6480 -0.6456  1.8767
 1883TIP3    H227285   1.501   5.795   0.817 -0.1268 -0.0469  1.6605
 1884TIP3   OH227286   2.471   5.921   2.512  0.0978 -0.3189 -0.0463
 1884TIP3    H127287   2.406   5.904   2.581 -1.4067  0.9844 -1.0565
 1884TIP3    H227288   2.518   5.999   2.543 -0.3314  0.0469 -0.2913
 1885TIP3   OH227289   1.370   4.605   3.709 -0.3170  0.6070  0.4675
 1885TIP3    H127290   1.432   4.556   3.762  3.0089  3.0858 -0.7852
 1885TIP3    H227291   1.294   4.547   3.701  1.3284 -2.1842  3.0273
 1886TIP3   OH227292   2.332   6.659   0.058 -0.2217 -0.4437  1.1530
 1886TIP3    H127293   2.303   6.637  -0.030 -0.0688  1.1151  0.6843
 1886TIP3    H227294   2.265   6.622   0.115 -2.3530  1.6488  0.1845
 1887TIP3   OH227295   1.670   6.711   8.159 -0.5245 -0.3118  0.6309
 1887TIP3    H127296   1.747   6.669   8.198 -0.4325 -0.5925  0.1586
 1887TIP3    H227297   1.707   6.778   8.101 -0.5638 -1.5989 -0.9299
 1888TIP3   OH227298   2.103   0.007   3.808 -0.0776  0.5151  0.4599
 1888TIP3    H127299   2.158  -0.061   3.846 -0.3980 -0.0463 -0.0672
 1888TIP3    H227300   2.155   0.087   3.817  0.2005  0.2509  1.2977
 1889TIP3   OH227301   4.214   1.966   3.332 -0.5291 -0.6729  0.0675
 1889TIP3    H127302   4.167   1.920   3.402 -0.7664  1.7995  1.6528
 1889TIP3    H227303   4.296   1.993   3.373  0.3166 -1.0364 -1.3147
 1890TIP3   OH227304   1.387   1.183   1.947 -0.0449 -0.1004  0.4887
 1890TIP3    H127305   1.382   1.099   1.902  0.5982 -0.5562  1.2511
 1890TIP3    H227306   1.393   1.248   1.877  1.1124 -0.8047 -0.0782
 1891TIP3   OH227307   0.931   0.637   4.332  0.4443  0.0350 -0.8630
 1891TIP3    H127308   1.005   0.600   4.283  2.3504 -0.2190  2.0045
 1891TIP3    H227309   0.952   0.621   4.424 -3.0695  0.2572  0.1195
 1892TIP3   OH227310   6.825   3.957   2.095 -0.0995 -0.6868 -0.7407
 1892TIP3    H127311   6.769   3.888   2.132 -2.5130  2.5112  2.2918
 1892TIP3    H227312   6.764   4.018   2.055  1.5681  1.1713 -0.5800
 1893TIP3   OH227313   1.880   1.916   1.777  0.3309 -0.5867 -0.3486
 1893TIP3    H127314   1.975   1.929   1.777  0.0626  1.8346 -0.5433
 1893TIP3    H227315   1.854   1.924   1.869  0.3061 -1.1845 -0.3024
 1894TIP3   OH227316   2.075   3.743   8.341 -0.2414 -0.5739  0.3123
 1894TIP3    H127317   2.120   3.782   8.267 -0.1939  0.2807  0.7830
 1894TIP3    H227318   2.033   3.665   8.305 -2.7838  1.3978 -1.3716
 1895TIP3   OH227319   0.193   2.616   8.085  0.0825 -0.9756  0.1669
 1895TIP3    H127320   0.124   2.672   8.050  0.9137  0.1823  0.3552
 1895TIP3    H227321   0.166   2.527   8.060 -0.8191 -0.4358 -0.8658
 1896TIP3   OH227322   1.658   2.035   3.469  0.4562  0.5998 -0.4049
 1896TIP3    H127323   1.688   2.108   3.523 -0.3242  0.0575  0.8126
 1896TIP3    H227324   1.718   1.964   3.489  0.2389  0.4342 -0.3287
 1897TIP3   OH227325   1.655   4.869   1.766  0.0821  0.4288 -0.3006
 1897TIP3    H127326   1.635   4.939   1.828  1.5629 -0.4242  1.2174
 1897TIP3    H227327   1.578   4.865   1.709 -1.4050  1.1639  1.5485
 1898TIP3   OH227328   4.171   2.942   2.569 -0.3122  0.5460  0.2574
 1898TIP3    H127329   4.160   3.032   2.540  0.4028  0.7804  0.6912
 1898TIP3    H227330   4.094   2.896   2.536  0.0295  0.9893 -1.2565
 1899TIP3   OH227331   6.565   1.266   3.351  0.2520 -0.0800 -0.5227
 1899TIP3    H127332   6.621   1.248   3.275 -0.2149  1.9013 -1.3897
 1899TIP3    H227333   6.586   1.356   3.376 -0.4919 -0.2784  0.9525
 1900TIP3   OH227334   0.463   4.648   2.009 -0.4421 -0.5167 -0.6429
 1900TIP3    H127335   0.402   4.704   2.057  1.0437  0.8236 -0.2298
 1900TIP3    H227336   0.440   4.559   2.035 -0.3829  0.1015  1.7558
 1901TIP3   OH227337   2.777   6.038   0.091  0.1078 -0.0654  0.8743
 1901TIP3    H127338   2.801   5.958   0.044 -0.2990  1.1514 -1.5675
 1901TIP3    H227339   2.843   6.047   0.159  0.4237 -2.2166  0.9222
 1902TIP3   OH227340   5.790   3.704   1.799 -0.1530  0.7063  0.5024
 1902TIP3    H127341   5.851   3.708   1.873 -0.3642  0.3247  0.7005
 1902TIP3    H227342   5.767   3.611   1.792 -0.8795  0.8797  0.5664
 1903TIP3   OH227343   2.941   1.356   0.394  0.2005 -0.0830 -0.1811
 1903TIP3    H127344   2.990   1.283   0.356 -1.4604 -0.8253 -0.9902
 1903TIP3    H227345   2.985   1.372   0.478  1.1286 -1.4379 -0.3659
 1904TIP3   OH227346   4.230   4.050   1.089 -0.2168  0.1216  0.2259
 1904TIP3    H127347   4.315   4.090   1.108 -0.6057  0.1625  2.1317
 1904TIP3    H227348   4.250   3.975   1.034  0.9594  0.6308 -0.0602
 1905TIP3   OH227349   4.048   0.876   2.939  0.5307 -0.4988 -0.2460
 1905TIP3    H127350   4.100   0.955   2.926 -0.6151  0.0855 -1.5025
 1905TIP3    H227351   4.112   0.807   2.959  1.7876  0.1729 -1.8116
 1906TIP3   OH227352   3.889   0.864   1.294  0.2589  0.6312 -0.2047
 1906TIP3    H127353   3.806   0.824   1.269  0.2561 -0.1653  0.9940
 1906TIP3    H227354   3.919   0.813   1.369  2.7603 -0.3322 -1.7216
 1907TIP3   OH227355   2.252   4.941   1.697 -0.1610 -0.0941 -0.3362
 1907TIP3    H127356   2.222   5.030   1.678 -1.2985 -0.3853 -0.0176
 1907TIP3    H227357   2.346   4.950   1.712 -0.4699  1.2977  1.0796
 1908TIP3   OH227358   2.377   1.645   4.250 -0.8489 -0.8039  0.0657
 1908TIP3    H127359   2.459   1.635   4.299 -1.3808 -0.5452  1.0469
 1908TIP3    H227360   2.308   1.628   4.315 -1.5869 -0.2855 -0.5589
 1909TIP3   OH227361   0.060   5.886   0.165  0.2857 -0.3675  0.2239
 1909TIP3    H127362   0.056   5.963   0.108 -1.7701 -0.7228 -0.2299
 1909TIP3    H227363   0.060   5.921   0.254  5.4545  0.2699  0.2247
 1910TIP3   OH227364   4.377   3.026   2.719  0.0378 -0.2071 -0.0860
 1910TIP3    H127365   4.311   2.981   2.666 -0.9102 -0.1450  1.0188
 1910TIP3    H227366   4.328   3.066   2.790  1.1989  0.3711  0.4162
 1911TIP3   OH227367   5.870   6.412   2.359 -0.4958 -0.1044 -0.3136
 1911TIP3    H127368   5.811   6.454   2.296  0.0047 -0.8751 -1.3333
 1911TIP3    H227369   5.940   6.376   2.305  0.0121 -0.7005  0.7128
 1912TIP3   OH227370   2.051   2.117   0.272  0.3669  0.7605 -0.4483
 1912TIP3    H127371   2.109   2.138   0.345 -1.0800  2.7191  0.2403
 1912TIP3    H227372   2.072   2.183   0.206 -0.5504  1.0459 -0.4703
 1913TIP3   OH227373   0.723   0.115   2.580 -0.0544  0.0409  0.0040
 1913TIP3    H127374   0.671   0.195   2.577  1.0029  0.7423 -0.5058
 1913TIP3    H227375   0.660   0.044   2.576 -1.1413  0.8071  2.0329
 1914TIP3   OH227376   0.522   1.356   0.870  0.4047 -0.0005 -0.3510
 1914TIP3    H127377   0.466   1.370   0.946  0.5982 -2.1193  0.2454
 1914TIP3    H227378   0.464   1.364   0.795 -0.1885  0.1587  0.1191
 1915TIP3   OH227379   0.196   2.503   2.254  0.2236  0.1678  0.0647
 1915TIP3    H127380   0.280   2.525   2.293  1.0419 -0.2921 -1.3389
 1915TIP3    H227381   0.131   2.548   2.308  1.4017  0.9340  0.8885
 1916TIP3   OH227382   4.386   0.890   1.946  0.5064  0.1616 -0.1697
 1916TIP3    H127383   4.327   0.944   1.892 -0.5375 -1.2195 -0.4756
 1916TIP3    H227384   4.398   0.940   2.026  0.3792  1.2971 -0.8415
 1917TIP3   OH227385   6.225   6.687   8.545 -0.4622  0.4249  0.6178
 1917TIP3    H127386   6.134   6.662   8.564 -0.4952 -1.1581 -1.2689
 1917TIP3    H227387   6.220   6.734   8.462  0.4451  0.1280  0.3831
 1918TIP3   OH227388   4.458   2.483   3.444 -0.0996  0.1098  0.6726
 1918TIP3    H127389   4.524   2.532   3.395  0.6103  0.8709  2.3287
 1918TIP3    H227390   4.507   2.412   3.485 -0.6319 -0.3291  0.5645
 1919TIP3   OH227391   5.333   5.264   0.545  0.1160 -0.0061  0.1209
 1919TIP3    H127392   5.401   5.210   0.585  0.5084  1.2267  1.1877
 1919TIP3    H227393   5.254   5.210   0.548  0.7008 -0.8820  0.2419
 1920TIP3   OH227394   3.702   4.736   3.441  0.1568  0.4647  0.5963
 1920TIP3    H127395   3.740   4.748   3.528  1.4785 -2.5883  0.5590
 1920TIP3    H227396   3.767   4.684   3.393 -1.6223 -0.0585 -1.4145
 1921TIP3   OH227397   6.639   3.747   2.200 -0.2137 -0.1129  0.0264
 1921TIP3    H127398   6.550   3.745   2.163 -0.1042 -0.5575 -0.2188
 1921TIP3    H227399   6.633   3.810   2.272 -0.6916 -0.0286 -0.0795
 1922TIP3   OH227400   5.138   3.150   3.205 -0.8090 -0.0762 -0.4458
 1922TIP3    H127401   5.114   3.057   3.209  0.0758 -0.3180 -0.5061
 1922TIP3    H227402   5.070   3.195   3.254  0.3225 -1.0731  2.2348
 1923TIP3   OH227403   0.143   1.532   2.795 -0.2349  0.4823  0.6368
 1923TIP3    H127404   0.157   1.573   2.880 -0.4498 -0.3164  1.0651
 1923TIP3    H227405   0.231   1.515   2.761 -0.1498  0.6574  0.7682
 1924TIP3   OH227406   1.170   4.843   2.667  0.1757 -0.3729 -0.2852
 1924TIP3    H127407   1.207   4.793   2.594  2.3008  0.2648  0.2594
 1924TIP3    H227408   1.174   4.783   2.741 -0.3067 -0.4314 -0.3029
 1925TIP3   OH227409   6.351   1.522   3.057 -0.0831  0.3311  0.6230
 1925TIP3    H127410   6.298   1.583   3.005  0.9905  0.3773 -0.4638
 1925TIP3    H227411   6.348   1.440   3.008  2.0555  0.7430 -0.3242
 1926TIP3   OH227412   2.865   4.046   1.443  0.4050  0.3357 -0.6384
 1926TIP3    H127413   2.890   4.025   1.353  0.3000  0.6233 -0.7349
 1926TIP3    H227414   2.938   4.097   1.477  1.2646 -1.2644  0.0248
 1927TIP3   OH227415   2.017   0.122   2.858  0.3039  0.2450 -0.0288
 1927TIP3    H127416   2.057   0.182   2.921  1.1594  0.6159 -0.9153
 1927TIP3    H227417   2.085   0.058   2.838 -0.3015 -0.4952  0.1954
 1928TIP3   OH227418   0.982   4.745   1.865  0.7705 -0.4142  0.9079
 1928TIP3    H127419   0.975   4.665   1.917  2.2797 -0.3101  1.3316
 1928TIP3    H227420   1.061   4.788   1.899 -0.3384  1.5643  1.1232
 1929TIP3   OH227421   4.595   3.827   2.511 -0.3467  0.8523  0.1165
 1929TIP3    H127422   4.602   3.780   2.594 -1.3466  0.2020 -0.1459
 1929TIP3    H227423   4.538   3.772   2.457 -0.0843  1.4889 -0.8457
 1930TIP3   OH227424   1.899   3.026   3.237  0.0039 -0.0976  0.0675
 1930TIP3    H127425   1.808   3.039   3.263 -0.1095  0.2927 -0.5028
 1930TIP3    H227426   1.947   3.093   3.285 -0.1951  0.5809 -0.6687
 1931TIP3   OH227427   1.409   6.776   0.047 -0.2999  0.2446 -0.8184
 1931TIP3    H127428   1.467   6.823  -0.012  0.0653  1.6561  0.5963
 1931TIP3    H227429   1.325   6.772   0.000 -0.0153  1.2857 -1.4424
 1932TIP3   OH227430   3.579   6.501   1.817 -0.0478  0.1353  0.6734
 1932TIP3    H127431   3.556   6.421   1.864 -1.2112  0.5051  0.7512
 1932TIP3    H227432   3.617   6.470   1.734 -1.7948 -0.5197  0.0712
 1933TIP3   OH227433   6.787   6.211   8.253  0.1762  0.4776 -0.8639
 1933TIP3    H127434   6.701   6.173   8.236 -0.3048  1.5142 -0.8634
 1933TIP3    H227435   6.794   6.284   8.190  0.4496  1.2817  0.0719
 1934TIP3   OH227436   4.522   0.775   3.391  0.6987 -0.1042  0.7743
 1934TIP3    H127437   4.551   0.750   3.479  2.8756 -0.4597  0.0345
 1934TIP3    H227438   4.459   0.845   3.405 -0.2464 -1.2504  2.6611
 1935TIP3   OH227439   6.450   5.405   1.842 -0.1436  0.3854  0.2854
 1935TIP3    H127440   6.424   5.442   1.926  2.0398 -1.2092  1.7695
 1935TIP3    H227441   6.545   5.420   1.837  0.2515 -1.9518 -0.5634
 1936TIP3   OH227442   3.699   6.502   1.574 -0.4747  0.0482  0.3245
 1936TIP3    H127443   3.712   6.594   1.596 -0.1547  0.2497 -0.6596
 1936TIP3    H227444   3.775   6.479   1.520 -0.1558 -1.0108  1.1839
 1937TIP3   OH227445   4.606   1.760   2.393 -0.0560  0.0624  0.0209
 1937TIP3    H127446   4.665   1.686   2.406  0.5481  0.5005 -0.2210
 1937TIP3    H227447   4.608   1.776   2.299 -0.2188  0.3629  0.0683
 1938TIP3   OH227448   3.104   3.661   0.651  0.1447  0.1874  0.1968
 1938TIP3    H127449   3.016   3.649   0.686 -0.8858  3.0260 -1.1215
 1938TIP3    H227450   3.130   3.574   0.621 -1.1822 -1.1862  2.7257
 1939TIP3   OH227451   3.828   3.239   0.839  0.5846  0.2499 -0.2439
 1939TIP3    H127452   3.802   3.201   0.755  0.1269 -0.4319  0.2003
 1939TIP3    H227453   3.899   3.184   0.870  0.0699 -0.1259  0.2943
 1940TIP3   OH227454   6.605   4.864   8.488  0.6123 -0.3812  0.4331
 1940TIP3    H127455   6.614   4.929   8.418  0.9991  0.5237  1.2965
 1940TIP3    H227456   6.655   4.788   8.457  1.3998  0.2737  0.0434
 1941TIP3   OH227457   0.227   3.516   8.138  0.0214 -0.3140 -0.0566
 1941TIP3    H127458   0.274   3.595   8.165 -0.0839 -0.6408  1.1727
 1941TIP3    H227459   0.141   3.548   8.111  0.4873  0.1449 -1.0474
 1942TIP3   OH227460   6.525   1.235   1.196  0.2517  0.0685  0.1765
 1942TIP3    H127461   6.521   1.329   1.176  0.1413 -0.0368 -0.3085
 1942TIP3    H227462   6.598   1.227   1.257  1.3244  0.2574 -1.0249
 1943TIP3   OH227463   0.220   4.734   2.143 -0.3459  0.1042  0.2235
 1943TIP3    H127464   0.130   4.753   2.119 -0.6957 -1.4879  0.1248
 1943TIP3    H227465   0.215   4.702   2.233 -0.1002 -1.3224 -0.2351
 1944TIP3   OH227466   3.958   4.355   1.432 -0.2793  0.2247  0.6442
 1944TIP3    H127467   4.002   4.287   1.380  1.7197  0.9439  1.3000
 1944TIP3    H227468   4.028   4.417   1.453 -2.2107  3.1398 -0.8863
 1945TIP3   OH227469   3.546   5.515   1.199  0.1603 -0.4116 -0.0311
 1945TIP3    H127470   3.466   5.514   1.146  0.4376  0.6712 -0.4960
 1945TIP3    H227471   3.616   5.493   1.139  0.5020  1.0202 -0.2071
 1946TIP3   OH227472   4.889   5.089   1.791 -0.3936 -0.4496  0.1622
 1946TIP3    H127473   4.915   5.031   1.862  0.2295  1.4610  1.6003
 1946TIP3    H227474   4.940   5.169   1.806  1.2183 -0.5829 -3.5331
 1947TIP3   OH227475   5.560   0.414   8.275 -0.1066 -0.8242 -0.0214
 1947TIP3    H127476   5.634   0.462   8.238 -0.4641  0.1102  0.4361
 1947TIP3    H227477   5.484   0.470   8.258 -0.2243 -0.0661  2.5449
 1948TIP3   OH227478   5.306   2.924   4.327 -0.3014  0.2887 -0.1785
 1948TIP3    H127479   5.365   2.897   4.256 -1.2237 -0.3406 -0.7346
 1948TIP3    H227480   5.364   2.962   4.393  0.5891  0.9672 -1.2939
 1949TIP3   OH227481   3.670   3.334   0.045  0.0567  0.3336 -0.4531
 1949TIP3    H127482   3.605   3.297  -0.015 -0.6821  0.6592  0.1320
 1949TIP3    H227483   3.732   3.262   0.059 -0.7404 -0.3289 -0.2132
 1950TIP3   OH227484   5.607   1.806   1.118 -0.0860  0.3453 -0.0304
 1950TIP3    H127485   5.540   1.869   1.145  1.6610  2.0201  0.5702
 1950TIP3    H227486   5.637   1.767   1.200 -1.3098 -1.5338 -0.4084
 1951TIP3   OH227487   5.977   3.575   3.359  0.9738 -0.0193 -0.1723
 1951TIP3    H127488   5.981   3.498   3.303  3.6254 -0.6282  0.6990
 1951TIP3    H227489   5.979   3.649   3.298  1.0167 -0.6554 -0.9613
 1952TIP3   OH227490   4.115   0.888   1.624  0.5253  0.6638 -0.4044
 1952TIP3    H127491   4.187   0.826   1.639  1.4817  1.1968 -2.4762
 1952TIP3    H227492   4.048   0.836   1.580  0.2834  0.5422  0.0978
 1953TIP3   OH227493   6.411   1.639   0.501  0.1756 -0.1089 -0.0586
 1953TIP3    H127494   6.384   1.669   0.588  0.9985  0.1287  0.1309
 1953TIP3    H227495   6.434   1.719   0.454 -0.5611 -0.2128 -0.6059
 1954TIP3   OH227496   1.743   4.162   2.526  0.0584 -0.2120  0.4950
 1954TIP3    H127497   1.716   4.078   2.563  0.8611 -0.5991  0.2174
 1954TIP3    H227498   1.719   4.156   2.433  0.8637 -0.4618  0.3007
 1955TIP3   OH227499   4.751   6.681   1.311  0.4167 -0.0373  0.0343
 1955TIP3    H127500   4.811   6.742   1.267 -1.4593  1.4231 -0.6361
 1955TIP3    H227501   4.696   6.647   1.240 -0.4739 -0.2493  0.8173
 1956TIP3   OH227502   2.380   3.693   3.176 -0.1900 -0.2561 -0.0294
 1956TIP3    H127503   2.407   3.705   3.266 -0.0413 -0.9532  0.0222
 1956TIP3    H227504   2.411   3.606   3.152 -0.1194 -0.0324 -0.7928
 1957TIP3   OH227505   2.801   2.854   3.785  0.2566  0.0536  0.9943
 1957TIP3    H127506   2.873   2.792   3.775  1.0793  1.1676 -0.4773
 1957TIP3    H227507   2.843   2.940   3.776 -1.3700  0.7147 -1.2565
 1958TIP3   OH227508   3.422   5.813   0.878 -0.2991  0.0576  0.1737
 1958TIP3    H127509   3.354   5.873   0.910 -0.3515 -0.7092  1.5633
 1958TIP3    H227510   3.503   5.846   0.916 -0.3058 -0.6446  0.8182
 1959TIP3   OH227511   3.457   1.147   3.728  0.4110 -0.6392 -0.2798
 1959TIP3    H127512   3.473   1.236   3.760  0.9694 -1.4720  1.9515
 1959TIP3    H227513   3.497   1.145   3.642  1.0910  1.0318 -0.0491
 1960TIP3   OH227514   0.911   4.518   1.247 -0.3064  0.3809 -0.3573
 1960TIP3    H127515   0.842   4.552   1.190 -0.6297 -0.9026 -0.7644
 1960TIP3    H227516   0.992   4.540   1.202 -0.5054  0.6482 -0.5876
 1961TIP3   OH227517   0.795   6.301   2.427 -0.7456 -0.1706  0.0571
 1961TIP3    H127518   0.797   6.384   2.474 -1.0908 -0.2978  0.3022
 1961TIP3    H227519   0.747   6.241   2.485  1.2545 -1.1256  0.8257
 1962TIP3   OH227520   0.713   4.207   2.874  0.3118  0.1999  0.2869
 1962TIP3    H127521   0.665   4.222   2.793 -0.4285 -0.5598  0.5612
 1962TIP3    H227522   0.758   4.123   2.859  3.5661  1.9909 -0.8679
 1963TIP3   OH227523   1.382   1.266   2.367 -0.1611 -0.1605 -0.7867
 1963TIP3    H127524   1.457   1.260   2.426 -0.3803 -1.0403 -0.5881
 1963TIP3    H227525   1.358   1.176   2.349 -2.1535  0.0757  0.4032
 1964TIP3   OH227526   5.885   5.092   3.521  0.1178 -0.2442  0.5281
 1964TIP3    H127527   5.853   5.180   3.541 -1.7461 -0.5103 -1.0388
 1964TIP3    H227528   5.864   5.041   3.600 -3.4822 -0.3762 -0.3154
 1965TIP3   OH227529   2.613   2.136   1.814 -0.2904 -0.0676  0.2738
 1965TIP3    H127530   2.682   2.140   1.880 -0.8362  0.8473  0.8204
 1965TIP3    H227531   2.594   2.228   1.794  0.5598 -0.3224 -1.9302
 1966TIP3   OH227532   5.214   3.909   0.152 -0.0591 -0.2454  0.4446
 1966TIP3    H127533   5.142   3.888   0.092 -1.0934  0.3096  1.4549
 1966TIP3    H227534   5.214   3.838   0.216 -1.5467  1.1089  2.0526
 1967TIP3   OH227535   6.797   2.499   1.369 -0.5887  0.1813 -0.2114
 1967TIP3    H127536   6.865   2.561   1.396 -0.2890 -0.5547  0.7644
 1967TIP3    H227537   6.730   2.506   1.436 -1.6779  1.1646 -1.3626
 1968TIP3   OH227538   2.103   1.951   2.853  0.0195  0.5432  0.5035
 1968TIP3    H127539   2.085   1.997   2.935  1.4386  1.1342  0.5187
 1968TIP3    H227540   2.141   1.868   2.880  0.1047  0.5671  0.4588
 1969TIP3   OH227541   2.889   3.715   1.948 -0.2441  0.3225 -0.1601
 1969TIP3    H127542   2.864   3.801   1.915  0.0698  0.9506  1.1612
 1969TIP3    H227543   2.885   3.724   2.044 -0.8742 -1.3347  0.0044
 1970TIP3   OH227544   6.727   4.271   3.134 -0.2298  0.0722  0.1426
 1970TIP3    H127545   6.716   4.261   3.229 -0.4307 -0.7907  0.0374
 1970TIP3    H227546   6.802   4.217   3.112 -0.0875  0.3927 -0.1762
 1971TIP3   OH227547   1.932   6.685   4.093  0.1321 -0.5651 -0.6489
 1971TIP3    H127548   1.872   6.736   4.040 -0.1446 -0.5194 -0.2978
 1971TIP3    H227549   1.958   6.744   4.164 -0.6666 -1.0850  0.1058
 1972TIP3   OH227550   5.883   4.788   2.706  0.1919  0.2176  0.0115
 1972TIP3    H127551   5.897   4.832   2.790 -1.2840 -1.3507  1.1663
 1972TIP3    H227552   5.943   4.714   2.707 -1.4421 -1.1696  0.8165
 1973TIP3   OH227553   1.005   0.959   0.306  0.4092 -0.2262 -0.0696
 1973TIP3    H127554   1.063   0.901   0.257 -0.1759 -1.5154  0.7043
 1973TIP3    H227555   0.992   1.034   0.248  0.3123 -1.3631 -1.5893
 1974TIP3   OH227556   5.513   6.235   3.131 -0.5669  0.1912 -0.4200
 1974TIP3    H127557   5.492   6.143   3.147 -2.1547  0.6287  0.1943
 1974TIP3    H227558   5.515   6.275   3.218  2.0005  0.4235 -0.4872
 1975TIP3   OH227559   4.227   5.271   2.808  0.2261  0.0866  0.3047
 1975TIP3    H127560   4.274   5.347   2.843  0.3296 -0.2677  0.9660
 1975TIP3    H227561   4.176   5.305   2.735  0.2079  0.8044  0.6466
 1976TIP3   OH227562   4.010   0.372   0.679  0.2598 -0.2137 -0.1578
 1976TIP3    H127563   3.942   0.434   0.706  1.7999  1.3940  0.1627
 1976TIP3    H227564   4.065   0.421   0.618  0.6915 -1.7416 -1.0420
 1977TIP3   OH227565   0.202   6.797   0.166  0.0955  0.1156 -0.1374
 1977TIP3    H127566   0.232   6.879   0.128  2.1786 -0.4086  0.2452
 1977TIP3    H227567   0.281   6.754   0.198 -0.7895 -2.4591 -1.1025
 1978TIP3   OH227568   5.334   1.681   2.441  0.4214  0.3768 -0.3598
 1978TIP3    H127569   5.271   1.735   2.392  0.9417  0.9695 -0.3934
 1978TIP3    H227570   5.280   1.635   2.505  0.2621  3.8657  2.3452
 1979TIP3   OH227571   3.642   2.574   3.258  0.1067 -1.1497 -0.2932
 1979TIP3    H127572   3.568   2.634   3.247  1.4354  0.5220 -0.4182
 1979TIP3    H227573   3.623   2.502   3.198 -1.2063 -0.5476 -0.6480
 1980TIP3   OH227574   2.845   0.874   3.431  0.5620  0.2262  0.4430
 1980TIP3    H127575   2.810   0.961   3.410  0.3157 -0.3264 -1.5777
 1980TIP3    H227576   2.931   0.873   3.389  0.5256 -0.5511  0.3880
 1981TIP3   OH227577   4.491   5.834   0.264 -0.3690 -0.1871  0.5506
 1981TIP3    H127578   4.529   5.899   0.205 -2.6374  0.9122  0.1993
 1981TIP3    H227579   4.537   5.847   0.347 -0.1791  1.2835  0.2395
 1982TIP3   OH227580   2.507   6.755   2.187  0.2725 -0.2637  0.1186
 1982TIP3    H127581   2.424   6.779   2.147 -0.1792  2.6079  2.4006
 1982TIP3    H227582   2.487   6.744   2.280  2.3834  0.6511  0.7716
 1983TIP3   OH227583   3.418   0.332   0.824  0.3984 -0.0423 -0.1256
 1983TIP3    H127584   3.461   0.253   0.793 -0.4751 -0.3711 -0.5419
 1983TIP3    H227585   3.455   0.403   0.771 -1.0336 -0.5893 -1.9426
 1984TIP3   OH227586   6.862   6.647   1.818  0.0082 -0.1971 -0.0945
 1984TIP3    H127587   6.879   6.686   1.732  0.6766  2.0621  0.9778
 1984TIP3    H227588   6.896   6.558   1.811  4.8511  1.3720 -0.7825
 1985TIP3   OH227589   0.991   3.899   1.704 -0.1065  0.0864 -0.3478
 1985TIP3    H127590   0.998   3.820   1.757 -1.0380  0.1961 -0.0302
 1985TIP3    H227591   1.061   3.891   1.639  0.3405 -0.5858  0.2007
 1986TIP3   OH227592   4.492   1.144   3.356  0.0977  0.0607  0.0045
 1986TIP3    H127593   4.557   1.192   3.306 -0.5958  1.7120  0.5974
 1986TIP3    H227594   4.421   1.126   3.293  1.2410 -2.1431 -0.7578
 1987TIP3   OH227595   3.189   2.376   3.011  0.6910 -0.0716  0.0687
 1987TIP3    H127596   3.119   2.432   2.975  1.2356  0.7995  0.3280
 1987TIP3    H227597   3.229   2.336   2.934 -0.7388 -1.4008 -0.0281
 1988TIP3   OH227598   5.263   3.616   0.037 -0.2147 -0.2137  0.7566
 1988TIP3    H127599   5.229   3.694  -0.006  0.9449 -0.1351 -0.0541
 1988TIP3    H227600   5.294   3.560  -0.034 -1.6766 -1.7640  1.2641
 1989TIP3   OH227601   3.776   5.167   8.733  0.3411 -0.3044 -0.2162
 1989TIP3    H127602   3.729   5.086   8.714  2.8210 -1.4931 -1.7459
 1989TIP3    H227603   3.786   5.209   8.648 -0.5341  1.4571  0.5050
 1990TIP3   OH227604   4.756   0.633   1.084 -0.5066 -0.2076  0.1427
 1990TIP3    H127605   4.809   0.674   1.015 -2.2723  1.2457 -0.4376
 1990TIP3    H227606   4.817   0.576   1.131  1.6623  1.7120 -0.1726
 1991TIP3   OH227607   4.909   4.301   2.210 -0.8854 -0.2456 -0.4562
 1991TIP3    H127608   4.837   4.356   2.241  1.3388  0.9774  3.2686
 1991TIP3    H227609   4.932   4.247   2.285  2.3752 -0.1777 -1.2625
 1992TIP3   OH227610   4.212   6.691   2.557 -0.0222  0.2328 -0.2808
 1992TIP3    H127611   4.210   6.704   2.651  1.6439  0.9070 -0.3043
 1992TIP3    H227612   4.174   6.770   2.520  0.0074  0.2876 -0.1928
 1993TIP3   OH227613   3.746   4.716   1.576  0.1291 -0.2214  0.0205
 1993TIP3    H127614   3.708   4.707   1.663  1.0683 -1.2895  0.3383
 1993TIP3    H227615   3.832   4.757   1.592 -0.1913  0.7001 -0.5318
 1994TIP3   OH227616   6.275   0.246   0.912 -0.0757  0.8774 -0.0375
 1994TIP3    H127617   6.282   0.216   0.821 -0.6049  0.6178  0.0070
 1994TIP3    H227618   6.185   0.277   0.921 -0.0536  0.8151  0.4241
 1995TIP3   OH227619   5.601   6.006   8.145 -0.8415  0.1032  0.7355
 1995TIP3    H127620   5.549   5.941   8.098  0.0899  0.7456 -1.2748
 1995TIP3    H227621   5.556   6.089   8.128  0.5324  0.6048 -0.6777
 1996TIP3   OH227622   3.670   3.663   0.382 -0.8474  0.5244  0.3767
 1996TIP3    H127623   3.736   3.728   0.356  0.3821 -0.9445 -0.2956
 1996TIP3    H227624   3.638   3.627   0.300  1.8274 -2.9364  0.6033
 1997TIP3   OH227625   3.977   5.452   1.187  0.1422  0.2393  0.0850
 1997TIP3    H127626   3.993   5.427   1.278 -0.9595 -1.9613 -0.2697
 1997TIP3    H227627   3.920   5.529   1.193 -1.2939 -0.8602  1.2950
 1998TIP3   OH227628   3.148   2.749   1.177  0.3549 -0.2124  0.4486
 1998TIP3    H127629   3.089   2.803   1.230 -0.4429 -1.7509  1.1964
 1998TIP3    H227630   3.215   2.810   1.146 -2.5078  2.0364 -1.9222
 1999TIP3   OH227631   1.065   6.276   2.606  0.5068 -0.0287  0.3269
 1999TIP3    H127632   0.978   6.273   2.646  0.2720 -0.1118 -0.1787
 1999TIP3    H227633   1.078   6.188   2.570  1.0018 -0.1608  0.8072
 2000TIP3   OH227634   0.379   1.353   1.962 -0.0267  0.3065  0.0172
 2000TIP3    H127635   0.398   1.437   1.920  0.9219 -0.4322 -1.1082
 2000TIP3    H227636   0.355   1.295   1.889  2.6809 -1.3068  0.2675
 2001TIP3   OH227637   0.623   3.769   1.378  0.1137  0.5093  0.4513
 2001TIP3    H127638   0.687   3.811   1.435  0.7260  2.0194 -1.2474
 2001TIP3    H227639   0.659   3.682   1.362  1.2013  0.9385  0.4289
 2002TIP3   OH227640   2.060   5.961   1.708  0.2447 -0.7075 -0.3340
 2002TIP3    H127641   2.092   5.875   1.680  1.9442 -0.1835 -0.1184
 2002TIP3    H227642   1.978   5.973   1.660  0.8037 -1.7605 -1.6206
 2003TIP3   OH227643   2.029   3.135   2.050  0.0271 -0.5379  0.0911
 2003TIP3    H127644   2.025   3.112   1.957  0.2171 -2.7598  0.5791
 2003TIP3    H227645   2.119   3.167   2.063  0.2515 -0.9813 -0.3397
 2004TIP3   OH227646   2.383   1.595   1.863 -0.2581  0.3122  0.4874
 2004TIP3    H127647   2.372   1.595   1.768 -0.2352  0.6872  0.4826
 2004TIP3    H227648   2.352   1.509   1.891 -0.4832  0.2880  0.1662
 2005TIP3   OH227649   1.903   2.990   0.711  0.3312  0.2161 -0.2028
 2005TIP3    H127650   1.958   3.021   0.639  0.9714  0.4232  0.3647
 2005TIP3    H227651   1.961   2.989   0.787 -0.3594  0.0993  0.3366
 2006TIP3   OH227652   2.440   1.815   2.128 -0.2485  0.4574  0.4162
 2006TIP3    H127653   2.431   1.720   2.122  0.8218  0.2307  1.8757
 2006TIP3    H227654   2.351   1.847   2.139 -0.7475 -0.2484 -1.1712
 2007TIP3   OH227655   0.693   1.200   0.327  0.4133  0.0406 -0.5608
 2007TIP3    H127656   0.786   1.181   0.329  0.3936 -0.4630 -2.5910
 2007TIP3    H227657   0.666   1.183   0.237 -1.6099  0.3461 -0.0793
 2008TIP3   OH227658   4.810   4.865   8.300 -0.2942 -0.0657 -0.0487
 2008TIP3    H127659   4.793   4.958   8.290  0.5909  0.2094  0.8777
 2008TIP3    H227660   4.900   4.854   8.268 -0.7553 -0.7921 -1.1433
 2009TIP3   OH227661   0.374   4.925   0.915 -0.2377  0.4995 -0.5128
 2009TIP3    H127662   0.464   4.948   0.891  0.2836 -0.5278  0.3868
 2009TIP3    H227663   0.376   4.831   0.929 -1.0852  0.6811  1.0454
 2010TIP3   OH227664   3.817   5.773   0.406  0.4488  0.1184  0.1978
 2010TIP3    H127665   3.828   5.868   0.403  2.0917 -0.0392  0.0618
 2010TIP3    H227666   3.871   5.741   0.333 -1.7659 -0.8176 -1.1214
 2011TIP3   OH227667   0.116   2.290   2.055 -0.2142 -0.2201  0.0224
 2011TIP3    H127668   0.083   2.372   2.093 -0.8934 -1.4640  2.2850
 2011TIP3    H227669   0.150   2.316   1.969 -1.0413  2.3001  0.3617
 2012TIP3   OH227670   5.452   5.475   1.712  0.1316  0.0982 -0.4670
 2012TIP3    H127671   5.490   5.389   1.699  3.4292  1.0893  1.3356
 2012TIP3    H227672   5.432   5.507   1.624 -0.5283 -2.1870 -1.1979
 2013TIP3   OH227673   3.714   2.218   8.712  0.5057 -1.1007  0.0215
 2013TIP3    H127674   3.803   2.188   8.730  0.3694 -2.0648 -0.7978
 2013TIP3    H227675   3.724   2.285   8.644  0.6852 -0.4440  0.6900
 2014TIP3   OH227676   4.209   2.815   3.995  0.1288  0.4251  0.7584
 2014TIP3    H127677   4.242   2.736   3.952 -0.8749  0.1395  0.4946
 2014TIP3    H227678   4.277   2.838   4.059  0.2839 -0.8466  1.0750
 2015TIP3   OH227679   6.435   6.402   0.203 -0.0975 -0.4596 -0.1649
 2015TIP3    H127680   6.375   6.340   0.244  0.0422  0.3054  1.2828
 2015TIP3    H227681   6.521   6.361   0.211  0.2427  0.5555  2.3112
 2016TIP3   OH227682   4.648   2.547   3.245  0.2747  0.1052 -0.1083
 2016TIP3    H127683   4.704   2.474   3.221 -0.7848 -0.5024 -0.8107
 2016TIP3    H227684   4.669   2.615   3.181 -1.4576 -0.9816 -1.9856
 2017TIP3   OH227685   5.956   2.322   0.365 -0.1913 -0.2402  0.3361
 2017TIP3    H127686   5.992   2.366   0.442  0.3774 -0.1170  0.0059
 2017TIP3    H227687   5.888   2.264   0.400 -0.2041  0.1018  0.8875
 2018TIP3   OH227688   0.130   0.676   7.969 -0.3836 -0.2739 -0.0578
 2018TIP3    H127689   0.189   0.619   8.018 -1.6189 -2.1533 -0.6358
 2018TIP3    H227690   0.145   0.763   8.005  1.9168 -0.8655  0.5522
 2019TIP3   OH227691   3.868   3.817   1.161  0.6860  0.4212 -0.1358
 2019TIP3    H127692   3.914   3.782   1.237 -0.1000 -0.3516 -0.0048
 2019TIP3    H227693   3.833   3.901   1.192 -0.6409 -0.4087  0.7767
 2020TIP3   OH227694   4.661   5.758   1.655 -0.5789  0.4001 -0.0890
 2020TIP3    H127695   4.665   5.726   1.564  2.4742 -1.1542  0.4493
 2020TIP3    H227696   4.579   5.723   1.689 -1.4773  0.4746 -2.0554
 2021TIP3   OH227697   4.138   6.060   3.232  0.0831 -0.0181  0.7107
 2021TIP3    H127698   4.197   5.989   3.255 -0.9802 -1.2551 -0.2602
 2021TIP3    H227699   4.189   6.140   3.250  1.6415 -1.0104  0.9005
 2022TIP3   OH227700   6.682   0.694   2.014 -0.4600 -0.0486 -0.2993
 2022TIP3    H127701   6.719   0.732   1.934 -0.1576 -1.7459 -1.0139
 2022TIP3    H227702   6.753   0.641   2.050 -1.0450 -0.4099  0.3432
 2023TIP3   OH227703   5.641   2.723   7.981 -0.5651  0.0006  0.6519
 2023TIP3    H127704   5.579   2.696   7.913 -0.2569  0.5367  0.1584
 2023TIP3    H227705   5.587   2.730   8.060 -0.7287 -1.6848  0.7210
 2024TIP3   OH227706   0.387   3.897   8.717  0.1304  0.1612  0.1421
 2024TIP3    H127707   0.396   3.907   8.812 -0.0612  1.2285  0.0615
 2024TIP3    H227708   0.476   3.902   8.683  0.2344 -0.6068  0.2953
 2025TIP3   OH227709   5.398   3.308   2.774  0.3920 -0.0155  0.1366
 2025TIP3    H127710   5.303   3.309   2.772  0.2226 -2.4560  2.0318
 2025TIP3    H227711   5.421   3.383   2.829 -0.3617  0.8216 -0.6463
 2026TIP3   OH227712   6.304   4.060   1.744  0.1962 -0.5099  0.8658
 2026TIP3    H127713   6.303   4.155   1.742 -1.3914 -0.4665  2.1974
 2026TIP3    H227714   6.395   4.038   1.765  0.8118  0.6408 -0.3960
 2027TIP3   OH227715   1.355   2.566   1.029 -0.4254 -0.0686 -0.5976
 2027TIP3    H127716   1.268   2.527   1.037 -0.0651 -0.4304  4.1108
 2027TIP3    H227717   1.413   2.503   1.072  1.9339  0.9816 -2.0517
 2028TIP3   OH227718   2.563   3.547   1.992  0.0305  0.1430  0.3348
 2028TIP3    H127719   2.644   3.509   1.958 -0.5803 -3.5951  2.5192
 2028TIP3    H227720   2.496   3.525   1.928 -0.0432 -1.3086  0.8695
 2029TIP3   OH227721   2.590   5.469   0.282 -0.3648  0.1439  0.4241
 2029TIP3    H127722   2.538   5.399   0.323 -1.7306  0.5553 -0.5174
 2029TIP3    H227723   2.544   5.488   0.200  1.4900  0.3206 -0.6332
 2030TIP3   OH227724   6.468   0.193   0.094  0.1002 -0.0906 -1.2547
 2030TIP3    H127725   6.436   0.103   0.095  0.4969 -0.3045  1.6440
 2030TIP3    H227726   6.390   0.247   0.107  0.2686 -0.3111  0.9442
 2031TIP3   OH227727   2.779   3.454   1.175 -0.0936  0.0297  0.0872
 2031TIP3    H127728   2.737   3.415   1.098  0.4130  0.6074 -0.4894
 2031TIP3    H227729   2.814   3.537   1.144 -1.6439  1.2680  1.4002
 2032TIP3   OH227730   2.191   0.549   8.012 -0.1408  0.2803  0.1200
 2032TIP3    H127731   2.277   0.508   8.022 -0.0606  0.8370  1.9913
 2032TIP3    H227732   2.197   0.632   8.059 -1.5372  0.5916 -0.1891
 2033TIP3   OH227733   0.223   0.593   1.841 -0.3453 -0.3230 -0.1214
 2033TIP3    H127734   0.276   0.516   1.823 -0.6929 -0.6769  0.3309
 2033TIP3    H227735   0.278   0.646   1.900 -0.1745 -0.3073 -0.2948
 2034TIP3   OH227736   5.054   4.006   1.573  0.5660 -0.1225  0.2011
 2034TIP3    H127737   5.141   4.013   1.532  1.6954  0.0441  2.4606
 2034TIP3    H227738   4.994   3.991   1.500  2.6547 -1.5681 -1.3304
 2035TIP3   OH227739   5.839   1.008   1.397  0.3500 -0.0204  0.6395
 2035TIP3    H127740   5.869   0.921   1.370  0.0391 -0.3993  1.4583
 2035TIP3    H227741   5.918   1.061   1.401  0.7153 -0.5922  1.2798
 2036TIP3   OH227742   0.818   0.411   3.773  0.4675 -0.3369 -0.0907
 2036TIP3    H127743   0.751   0.474   3.743  1.5040  0.4919 -0.7181
 2036TIP3    H227744   0.812   0.415   3.869 -0.5411 -0.4617 -0.1333
 2037TIP3   OH227745   5.490   6.655   3.200  0.0170 -0.0815 -0.0351
 2037TIP3    H127746   5.550   6.608   3.258 -0.3694 -1.7907 -0.9625
 2037TIP3    H227747   5.510   6.748   3.215  2.0076 -0.5594  0.5915
 2038TIP3   OH227748   4.508   4.141   1.588 -0.6897  0.1341  0.2273
 2038TIP3    H127749   4.597   4.175   1.579 -0.7579  1.1895  2.7358
 2038TIP3    H227750   4.453   4.206   1.545 -0.3786  0.5042  0.3783
 2039TIP3   OH227751   1.426   0.241   0.721 -0.0476  0.1802  0.2823
 2039TIP3    H127752   1.356   0.288   0.674  0.5603  0.9036  0.0726
 2039TIP3    H227753   1.415   0.150   0.695 -0.9771  0.2706  0.3316
 2040TIP3   OH227754   6.110   3.909   1.660  1.1623 -0.6407 -0.5134
 2040TIP3    H127755   6.041   3.972   1.682  0.7270 -1.5457  0.8106
 2040TIP3    H227756   6.191   3.953   1.684  0.8575 -0.5999  0.4742
 2041TIP3   OH227757   2.050   6.627   1.860  0.7667  0.0730  0.3511
 2041TIP3    H127758   2.020   6.685   1.931  0.1549  0.2107 -0.0119
 2041TIP3    H227759   2.004   6.544   1.877 -0.3738  0.4865 -0.5860
 2042TIP3   OH227760   3.548   6.225   0.954  0.0158  0.0260  0.1800
 2042TIP3    H127761   3.640   6.239   0.977 -0.5207  0.4971  2.2588
 2042TIP3    H227762   3.524   6.302   0.902  0.7666 -0.0929 -0.3626
 2043TIP3   OH227763   1.899   3.546   1.302  0.4324 -0.4129  0.3259
 2043TIP3    H127764   1.880   3.544   1.396 -0.1641 -0.9915  0.1988
 2043TIP3    H227765   1.995   3.541   1.296  0.4045 -2.0330  0.8622
 2044TIP3   OH227766   4.928   5.987   1.505  0.0164  0.3849  0.1077
 2044TIP3    H127767   4.917   5.894   1.485  0.9645  0.1899  0.4245
 2044TIP3    H227768   4.842   6.015   1.538 -1.0086  0.2378 -2.2257
 2045TIP3   OH227769   5.301   2.558   2.205 -0.4515  0.2967  0.1644
 2045TIP3    H127770   5.288   2.468   2.175 -0.4796 -0.0048  1.0336
 2045TIP3    H227771   5.330   2.549   2.296 -0.8371  1.1786  0.3896
 2046TIP3   OH227772   5.295   2.054   4.211  0.0929 -0.1596 -0.2047
 2046TIP3    H127773   5.313   2.025   4.300 -0.4536  0.7090  0.1983
 2046TIP3    H227774   5.232   1.991   4.177  0.9581 -0.9986 -0.2938
 2047TIP3   OH227775   6.662   1.140   1.806 -0.5920 -0.2925  0.0948
 2047TIP3    H127776   6.607   1.212   1.773 -1.0232  0.0364  1.4643
 2047TIP3    H227777   6.689   1.169   1.893  0.9847 -0.8808 -0.1738
 2048TIP3   OH227778   2.730   6.664   2.680 -0.0228 -0.3815 -0.1035
 2048TIP3    H127779   2.788   6.658   2.756 -0.1933 -0.3571  0.0272
 2048TIP3    H227780   2.643   6.644   2.714 -0.1011 -0.3584 -0.2900
 2049TIP3   OH227781   5.814   1.877   2.204  0.4318  0.5626 -0.1465
 2049TIP3    H127782   5.837   1.814   2.273  1.0489 -0.8212 -1.5433
 2049TIP3    H227783   5.844   1.961   2.237  0.4230 -0.0048  1.3964
 2050TIP3   OH227784   6.763   6.368   0.231  0.2409 -0.2622 -0.1961
 2050TIP3    H127785   6.779   6.348   0.323 -1.9708 -1.2174  0.0486
 2050TIP3    H227786   6.778   6.463   0.224  0.5096 -0.1960  1.1217
 2051TIP3   OH227787   3.562   5.264   1.345  0.1520  0.0582 -0.1217
 2051TIP3    H127788   3.603   5.348   1.326  3.0329 -1.1367  0.2430
 2051TIP3    H227789   3.583   5.247   1.436 -2.8262  0.1270  0.6722
 2052TIP3   OH227790   3.253   5.985   0.960 -0.2689  0.1928 -0.2803
 2052TIP3    H127791   3.261   6.053   0.893 -2.7664  1.0458  0.1596
 2052TIP3    H227792   3.240   6.034   1.042 -1.1999 -0.7936  0.1867
 2053TIP3   OH227793   6.128   2.047   0.222 -0.5813  0.0632  0.3023
 2053TIP3    H127794   6.095   1.988   0.290 -0.5061 -1.4270 -0.8826
 2053TIP3    H227795   6.050   2.090   0.186 -0.6621  0.5273  1.0173
 2054TIP3   OH227796   3.206   0.853   1.837 -0.3893  0.3814  0.3559
 2054TIP3    H127797   3.285   0.826   1.789 -0.2983  2.3566 -0.7514
 2054TIP3    H227798   3.239   0.912   1.905 -0.5807 -1.9678  2.6042
 2055TIP3   OH227799   2.877   6.494   3.670  0.0342  0.1044  0.2514
 2055TIP3    H127800   2.829   6.546   3.606 -0.0844  0.8750  0.9522
 2055TIP3    H227801   2.904   6.416   3.621  0.5219  0.9695 -0.9247
 2056TIP3   OH227802   2.435   3.335   0.456 -0.4757 -0.1171 -0.1548
 2056TIP3    H127803   2.378   3.330   0.533  0.3663 -0.5459  0.4515
 2056TIP3    H227804   2.522   3.312   0.489  0.1790  1.1356 -0.9399
 2057TIP3   OH227805   3.121   3.681   1.072 -0.5086 -0.6112  0.0056
 2057TIP3    H127806   3.142   3.669   1.164 -1.4170  1.1312  0.4931
 2057TIP3    H227807   3.205   3.701   1.030 -0.4177  1.4109  1.0182
 2058TIP3   OH227808   5.723   0.373   2.441 -0.2970 -0.4330  0.2854
 2058TIP3    H127809   5.752   0.441   2.501 -0.0576 -0.5571  0.3117
 2058TIP3    H227810   5.716   0.417   2.356 -3.4442  0.4678  0.9116
 2059TIP3   OH227811   0.046   0.685   0.189 -0.4896 -0.1053  0.2131
 2059TIP3    H127812  -0.030   0.631   0.210 -1.8994  1.3396 -0.8904
 2059TIP3    H227813   0.011   0.774   0.183  1.5322  0.7876  0.8753
 2060TIP3   OH227814   3.097   4.185   1.505 -0.2598  0.4680  0.0176
 2060TIP3    H127815   3.115   4.275   1.480 -0.6207  0.7318  0.6894
 2060TIP3    H227816   3.150   4.170   1.583 -0.9366  0.4161  0.4767
 2061TIP3   OH227817   4.984   1.729   2.819 -0.5840 -0.4109 -0.0364
 2061TIP3    H127818   4.897   1.740   2.857 -0.2464  0.3512  0.5597
 2061TIP3    H227819   5.028   1.812   2.838 -0.4357  0.0609 -2.2121
 2062TIP3   OH227820   3.248   4.165   2.010 -0.8359  0.8421 -0.9015
 2062TIP3    H127821   3.261   4.210   2.094 -0.4587  0.0873 -0.5452
 2062TIP3    H227822   3.336   4.145   1.980 -0.9912  0.6274 -1.2145
 2063TIP3   OH227823   5.871   6.037   0.497 -0.8153 -0.3223  0.3261
 2063TIP3    H127824   5.850   6.112   0.441  0.5161 -0.9836 -1.1516
 2063TIP3    H227825   5.843   6.064   0.585  0.1080  2.1350 -0.0429
 2064TIP3   OH227826   1.419   2.806   2.464  0.5054 -0.2796 -0.0156
 2064TIP3    H127827   1.415   2.890   2.418  0.4395  0.2909  1.0128
 2064TIP3    H227828   1.421   2.741   2.394  1.1016  0.5982 -0.8414
 2065TIP3   OH227829   1.457   0.009   1.570 -0.6637 -0.0203 -0.8717
 2065TIP3    H127830   1.410   0.076   1.619 -0.6915 -1.8391  1.7582
 2065TIP3    H227831   1.454   0.040   1.479 -0.9756  3.3203  0.1240
 2066TIP3   OH227832   6.417   4.366   0.266 -0.5452  0.5966  0.2928
 2066TIP3    H127833   6.425   4.276   0.236 -1.8552  0.4018  0.4744
 2066TIP3    H227834   6.496   4.409   0.235  1.6464 -1.3050  2.7870
 2067TIP3   OH227835   0.777   2.906   2.184 -0.5898  0.1051  0.1583
 2067TIP3    H127836   0.685   2.934   2.186 -0.8734 -0.6746 -0.9901
 2067TIP3    H227837   0.777   2.828   2.129  0.6395 -0.4095  0.8566
 2068TIP3   OH227838   2.081   0.948   0.196 -0.2017 -0.1472  0.5267
 2068TIP3    H127839   2.074   0.882   0.127  0.7888 -1.6287  1.7837
 2068TIP3    H227840   2.084   0.898   0.277  1.5138  1.3669  1.4719
 2069TIP3   OH227841   6.857   3.754   0.347 -0.6350  0.2499 -0.3467
 2069TIP3    H127842   6.928   3.708   0.391 -0.4920  1.8963  1.2562
 2069TIP3    H227843   6.821   3.813   0.413 -2.5035  0.5733 -1.5562
 2070TIP3   OH227844   4.290   5.734   0.097 -0.2668 -0.0165 -0.3240
 2070TIP3    H127845   4.299   5.639   0.095  1.4141  0.0965  0.4355
 2070TIP3    H227846   4.367   5.765   0.144 -0.9389  1.7160 -0.2692
 2071TIP3   OH227847   4.948   2.862   8.665 -0.0809 -0.3930 -0.0502
 2071TIP3    H127848   4.987   2.946   8.690  0.9873 -1.0393  0.5227
 2071TIP3    H227849   4.925   2.873   8.573 -0.0914  0.5686  0.0525
 2072TIP3   OH227850   0.594   3.673   0.383 -0.5699  0.0354 -0.1078
 2072TIP3    H127851   0.643   3.662   0.301 -0.7096 -3.7516  0.1621
 2072TIP3    H227852   0.627   3.755   0.420  2.9399 -0.4873 -1.6866
 2073TIP3   OH227853   6.415   4.688   0.952 -0.1983  0.1886  0.5514
 2073TIP3    H127854   6.390   4.752   0.885 -1.0428 -2.3877 -1.8377
 2073TIP3    H227855   6.503   4.712   0.978  0.4394  0.9592 -2.0530
 2074TIP3   OH227856   6.766   3.820   3.049  0.2893  0.2738 -0.0985
 2074TIP3    H127857   6.823   3.746   3.072  1.6324  1.1013 -0.6618
 2074TIP3    H227858   6.763   3.819   2.953 -0.9448  0.0500 -0.0811
 2075TIP3   OH227859   5.302   4.493   2.181  0.4993 -0.4334  0.3770
 2075TIP3    H127860   5.238   4.508   2.250  1.4840 -0.7531  1.4001
 2075TIP3    H227861   5.384   4.476   2.228  1.1333 -0.9564 -0.8661
 2076TIP3   OH227862   6.804   3.500   2.233 -0.1297  0.1696 -0.2470
 2076TIP3    H127863   6.739   3.433   2.251 -1.3455  0.9059 -1.6449
 2076TIP3    H227864   6.762   3.582   2.260  1.8242  0.3298  2.6978
 2077TIP3   OH227865   1.515   6.427   3.417 -0.2782 -0.3017  0.1644
 2077TIP3    H127866   1.554   6.344   3.442 -0.5498 -1.1660 -2.0432
 2077TIP3    H227867   1.589   6.483   3.392 -0.2001 -0.5944 -0.2718
 2078TIP3   OH227868   1.617   1.173   1.150  0.0631 -0.5771 -0.4279
 2078TIP3    H127869   1.655   1.086   1.146 -0.5435 -0.8269 -0.9190
 2078TIP3    H227870   1.681   1.230   1.108  0.8821 -0.6245  0.7126
 2079TIP3   OH227871   5.247   6.286   0.193  0.0773 -0.3371 -0.3454
 2079TIP3    H127872   5.343   6.282   0.192  0.2755  2.4548 -0.2717
 2079TIP3    H227873   5.222   6.233   0.269  1.4812 -1.7100 -0.7896
 2080TIP3   OH227874   4.444   2.232   8.088  0.5161  0.3176 -0.0805
 2080TIP3    H127875   4.368   2.276   8.049  1.5971  1.0321 -1.4684
 2080TIP3    H227876   4.406   2.177   8.157 -1.4981 -0.8843 -1.9919
 2081TIP3   OH227877   4.814   3.679   0.722 -0.1725  0.3774 -0.4816
 2081TIP3    H127878   4.751   3.705   0.653 -1.9700 -0.9698  0.5616
 2081TIP3    H227879   4.814   3.584   0.719 -0.5107  0.2770  1.5412
 2082TIP3   OH227880   4.341   2.932   2.280 -0.0249  0.1576  0.0987
 2082TIP3    H127881   4.278   2.943   2.209 -0.6830  2.5359  0.9391
 2082TIP3    H227882   4.289   2.911   2.356  0.5482 -1.0309  0.1839
 2083TIP3   OH227883   4.261   3.538   1.102 -0.0685  0.0785 -0.1240
 2083TIP3    H127884   4.334   3.490   1.141 -0.0021 -1.6588 -2.2236
 2083TIP3    H227885   4.192   3.534   1.168  0.5929 -1.2785  0.5205
 2084TIP3   OH227886   5.104   3.857   4.256 -0.3893  0.3607 -0.3618
 2084TIP3    H127887   5.052   3.836   4.178 -0.6056  0.1756 -0.1676
 2084TIP3    H227888   5.055   3.927   4.300  0.1736  1.0738 -0.8445
 2085TIP3   OH227889   4.366   6.832   2.308 -0.4615 -0.2428  0.0545
 2085TIP3    H127890   4.337   6.746   2.337 -0.6399 -0.7042 -1.4255
 2085TIP3    H227891   4.296   6.863   2.250  1.1228 -0.6091 -2.1607
 2086TIP3   OH227892   3.094   3.670   2.598 -0.0034  0.6300  0.4803
 2086TIP3    H127893   3.034   3.726   2.646  0.9157  0.8271  1.4187
 2086TIP3    H227894   3.148   3.629   2.665 -1.5681 -2.5381 -0.0136
 2087TIP3   OH227895   0.754   4.141   3.325 -0.0140 -0.1754  0.6554
 2087TIP3    H127896   0.660   4.124   3.330  0.0034 -0.3806  0.3595
 2087TIP3    H227897   0.795   4.056   3.343  0.0426 -1.0310 -2.8266
 2088TIP3   OH227898   4.806   5.326   3.033  0.4484 -0.0774  0.3462
 2088TIP3    H127899   4.795   5.308   2.939  0.5841  1.0891  0.0910
 2088TIP3    H227900   4.870   5.261   3.062  2.7759  1.4358 -1.0842
 2089TIP3   OH227901   4.733   3.767   4.101  0.1546 -0.0020  0.1142
 2089TIP3    H127902   4.826   3.789   4.109 -0.1294  1.4030 -0.2744
 2089TIP3    H227903   4.733   3.680   4.061  1.2953  0.5790 -1.2326
 2090TIP3   OH227904   3.326   2.216   4.176  0.2927 -0.2852 -0.3067
 2090TIP3    H127905   3.398   2.278   4.165 -0.3105  0.2698 -1.2223
 2090TIP3    H227906   3.280   2.245   4.255  0.4194  0.0213 -0.3472
 2091TIP3   OH227907   2.206   3.399   3.426  0.4095  1.3973 -0.9133
 2091TIP3    H127908   2.301   3.394   3.417  0.2631 -0.3359 -1.8929
 2091TIP3    H227909   2.192   3.463   3.496  2.3361  0.6111  0.2706
 2092TIP3   OH227910   5.663   6.548   3.373  0.7705  0.5647  0.6190
 2092TIP3    H127911   5.596   6.501   3.422 -0.0203  3.3986  2.4893
 2092TIP3    H227912   5.731   6.567   3.437  1.2176  1.6114 -0.1372
 2093TIP3   OH227913   5.596   3.085   3.318  0.2188 -0.0691 -0.1118
 2093TIP3    H127914   5.673   3.057   3.368  0.7310  2.6447  0.7478
 2093TIP3    H227915   5.630   3.107   3.231  0.4438  1.1487  0.2740
 2094TIP3   OH227916   1.968   3.517   0.567  0.1064  0.5303  0.4198
 2094TIP3    H127917   1.961   3.460   0.644 -1.6276  1.2228  0.8382
 2094TIP3    H227918   1.963   3.606   0.603  2.7949  1.0073 -0.2151
 2095TIP3   OH227919   4.522   4.535   2.457  0.5228  0.2624 -0.2966
 2095TIP3    H127920   4.576   4.499   2.527  0.1201  1.7939  0.8606
 2095TIP3    H227921   4.542   4.629   2.457 -1.7092  0.8096 -0.1549
 2096TIP3   OH227922   0.160   4.989   2.518 -0.1819 -0.2015 -0.4150
 2096TIP3    H127923   0.073   5.020   2.543 -0.1185  0.3410 -0.8596
 2096TIP3    H227924   0.216   5.015   2.591 -0.3291 -0.2746 -0.2723
 2097TIP3   OH227925   2.922   3.905   8.082 -0.0029 -0.2263 -0.0561
 2097TIP3    H127926   2.890   3.988   8.047  0.4510  1.2851  2.7702
 2097TIP3    H227927   3.017   3.910   8.073 -0.0286 -0.8698 -0.7187
 2098TIP3   OH227928   5.083   4.739   0.166  0.5343 -0.2587 -0.7045
 2098TIP3    H127929   5.083   4.659   0.113 -0.6450 -1.2488  0.7133
 2098TIP3    H227930   5.032   4.717   0.244  2.7778  0.8784  1.2539
 2099TIP3   OH227931   2.137   2.708   0.604  0.2562  0.0549  0.1295
 2099TIP3    H127932   2.199   2.772   0.567  0.7823 -0.7586 -0.4436
 2099TIP3    H227933   2.051   2.738   0.575  0.4361  0.8371  0.3815
 2100TIP3   OH227934   3.067   0.278   1.919  0.0955  0.0157 -0.0978
 2100TIP3    H127935   2.973   0.262   1.923  0.1002 -0.0268 -0.1539
 2100TIP3    H227936   3.102   0.207   1.865  0.6380 -2.0338  2.7008
 2101TIP3   OH227937   2.828   1.889   0.264 -0.5848  0.4858  0.1989
 2101TIP3    H127938   2.828   1.852   0.176  0.4354 -2.1305  1.1895
 2101TIP3    H227939   2.910   1.937   0.270 -0.8864  1.0947 -0.4036
 2102TIP3   OH227940   5.408   2.634   1.351  0.5422 -0.7059 -0.4549
 2102TIP3    H127941   5.432   2.555   1.303  1.3735 -0.4126 -0.5393
 2102TIP3    H227942   5.443   2.706   1.298  0.2441 -0.3101 -0.1207
 2103TIP3   OH227943   2.716   0.319   3.753 -0.6113 -0.2360  0.0304
 2103TIP3    H127944   2.713   0.367   3.835  1.2114 -2.2318  1.3941
 2103TIP3    H227945   2.801   0.342   3.714 -1.2072  0.2461 -1.0403
 2104TIP3   OH227946   6.548   3.181   3.635 -0.0210 -0.2498  0.6302
 2104TIP3    H127947   6.507   3.263   3.609 -0.4012 -0.3875  0.7876
 2104TIP3    H227948   6.606   3.205   3.708 -0.4427 -0.1886  0.9443
 2105TIP3   OH227949   3.288   0.894   2.720 -0.3223  0.7993  0.7930
 2105TIP3    H127950   3.357   0.869   2.658 -0.8202  1.4613 -0.0524
 2105TIP3    H227951   3.336   0.924   2.798  0.2960 -1.7875  1.4822
 2106TIP3   OH227952   4.637   4.519   1.307 -0.0104 -0.0447  0.4821
 2106TIP3    H127953   4.632   4.615   1.303  1.8116  0.0504 -0.0561
 2106TIP3    H227954   4.691   4.502   1.384 -0.6509 -0.6650  0.7984
 2107TIP3   OH227955   4.508   1.865   3.209  0.0416 -0.4888  0.0436
 2107TIP3    H127956   4.453   1.863   3.130 -0.3868  0.4367  0.3019
 2107TIP3    H227957   4.523   1.773   3.230 -0.7945 -0.7592 -0.4663
 2108TIP3   OH227958   2.834   6.775   8.035  0.0361  0.1156  0.3210
 2108TIP3    H127959   2.915   6.817   8.064  0.6077 -0.5231 -0.3223
 2108TIP3    H227960   2.843   6.684   8.063 -1.5115  0.5098  2.3573
 2109TIP3   OH227961   3.681   4.977   3.061  0.0629 -0.5032  0.4066
 2109TIP3    H127962   3.627   4.953   3.136  0.2399 -2.4765 -0.0354
 2109TIP3    H227963   3.767   4.997   3.098 -0.6840  1.9550  1.0323
 2110TIP3   OH227964   5.591   5.376   0.100 -0.0267 -0.1396 -0.6180
 2110TIP3    H127965   5.528   5.304   0.109 -0.4712  0.3884  0.8681
 2110TIP3    H227966   5.548   5.438   0.041 -1.2940  0.5717  0.9718
 2111TIP3   OH227967   5.571   4.213   0.422  0.0966  0.7338  0.1314
 2111TIP3    H127968   5.620   4.293   0.439 -1.0307  1.8276 -1.4622
 2111TIP3    H227969   5.560   4.173   0.508 -2.0197  3.9581  1.5758
 2112TIP3   OH227970   3.225   3.443   8.266  0.0706  0.5108  0.5530
 2112TIP3    H127971   3.267   3.472   8.186  0.7466 -0.2395  0.6186
 2112TIP3    H227972   3.244   3.349   8.270  0.2666  0.5874  1.7168
 2113TIP3   OH227973   4.612   1.545   8.450 -0.4471 -0.0218  0.3117
 2113TIP3    H127974   4.623   1.640   8.447 -0.1685  0.0187  1.7184
 2113TIP3    H227975   4.517   1.532   8.452 -0.4808  0.2556  0.5647
 2114TIP3   OH227976   2.819   0.132   3.511  0.1691  0.3455 -0.0942
 2114TIP3    H127977   2.815   0.223   3.482 -0.4870  0.5209  0.5202
 2114TIP3    H227978   2.886   0.131   3.580 -1.5696  0.9012  1.6864
 2115TIP3   OH227979   2.578   5.205   1.063  0.1380  0.6771 -0.2059
 2115TIP3    H127980   2.624   5.247   1.135 -0.2821 -1.9747  1.7546
 2115TIP3    H227981   2.493   5.248   1.059  0.2453  0.9892  0.7285
 2116TIP3   OH227982   0.093   1.913   1.904 -0.1131  0.5018  0.2221
 2116TIP3    H127983   0.132   1.928   1.990 -1.0654  3.5709  0.2313
 2116TIP3    H227984  -0.001   1.908   1.921 -0.2732  0.5906 -0.5925
 2117TIP3   OH227985   4.535   0.400   8.619  0.2316  0.1193 -0.0651
 2117TIP3    H127986   4.462   0.338   8.614 -0.3049  0.6044  1.0946
 2117TIP3    H227987   4.571   0.403   8.531 -1.1709 -0.1343 -0.6720
 2118TIP3   OH227988   6.625   1.132   2.657 -0.1411  0.2164 -0.0779
 2118TIP3    H127989   6.549   1.183   2.628 -2.0285 -1.9862  0.6753
 2118TIP3    H227990   6.619   1.134   2.752  0.3550 -0.5556 -0.0307
 2119TIP3   OH227991   1.095   2.742   1.596  0.1400 -0.3076  0.0833
 2119TIP3    H127992   1.086   2.688   1.674  0.7348 -0.6819 -0.0996
 2119TIP3    H227993   1.007   2.747   1.559 -0.5637  1.5247  1.8536
 2120TIP3   OH227994   5.668   2.708   1.774 -0.0924  0.1053  0.5827
 2120TIP3    H127995   5.646   2.626   1.729  2.1561 -0.8748  1.1202
 2120TIP3    H227996   5.584   2.749   1.793 -1.3575 -2.5364  1.1043
 2121TIP3   OH227997   3.307   2.405   1.066  0.0434 -0.1038  0.0525
 2121TIP3    H127998   3.254   2.482   1.083  0.5687  0.3007 -0.1308
 2121TIP3    H227999   3.244   2.336   1.044 -0.3919  0.4373 -0.4072
 2122TIP3   OH228000   2.454   1.947   2.900 -0.5932 -0.1533 -0.5139
 2122TIP3    H128001   2.415   1.861   2.886 -0.3072 -0.4237  0.2835
 2122TIP3    H228002   2.468   1.982   2.812  0.8413 -1.6291 -0.9197
 2123TIP3   OH228003   6.843   2.481   1.102 -0.5860 -0.1366  0.1764
 2123TIP3    H128004   6.891   2.562   1.087 -0.1087 -0.1806  1.3623
 2123TIP3    H228005   6.825   2.481   1.196  0.5511 -2.0070  0.4484
 2124TIP3   OH228006   0.931   1.894   0.642  0.4043  0.1199  0.2101
 2124TIP3    H128007   0.899   1.981   0.667  0.3754  0.1903 -0.0714
 2124TIP3    H228008   0.927   1.894   0.546  1.2968  0.1476  0.1646
 2125TIP3   OH228009   2.646   4.469   2.977 -0.2161  0.2363 -0.2447
 2125TIP3    H128010   2.604   4.468   3.064  1.1169  0.8521  0.4365
 2125TIP3    H228011   2.709   4.541   2.982 -0.5566  0.7018 -1.9588
 2126TIP3   OH228012   5.106   4.096   7.968 -0.1710  0.5855 -0.1752
 2126TIP3    H128013   5.083   4.024   7.910  0.9735  1.4802 -1.7887
 2126TIP3    H228014   5.187   4.069   8.011  0.5560  1.1001 -1.1878
 2127TIP3   OH228015   5.101   0.403   3.948 -0.2092 -0.3968  0.1153
 2127TIP3    H128016   5.153   0.483   3.955  1.1156 -1.3534  2.1914
 2127TIP3    H228017   5.133   0.360   3.869  0.8851 -0.0734  0.3619
 2128TIP3   OH228018   0.273   6.430   0.229 -0.3768  0.1995 -0.6223
 2128TIP3    H128019   0.263   6.459   0.139 -0.6288 -3.5484 -1.9814
 2128TIP3    H228020   0.365   6.406   0.237 -0.5315 -0.2668 -0.1673
 2129TIP3   OH228021   1.074   5.342   0.895  0.0662 -0.2225  0.0668
 2129TIP3    H128022   1.023   5.419   0.873 -0.9812 -0.5146  1.3165
 2129TIP3    H228023   1.057   5.280   0.825 -1.4977 -0.3823  0.5463
 2130TIP3   OH228024   1.182   1.131   2.776 -0.6263 -0.2450 -0.1309
 2130TIP3    H128025   1.201   1.101   2.687  0.0967 -0.4418  0.0812
 2130TIP3    H228026   1.090   1.158   2.773 -0.4773  0.2180 -1.0645
 2131TIP3   OH228027   0.661   4.687   2.284 -0.3637 -0.0396 -0.1197
 2131TIP3    H128028   0.666   4.703   2.190  0.7390 -0.9724 -0.2240
 2131TIP3    H228029   0.584   4.738   2.312 -1.8713 -1.2689 -1.8243
 2132TIP3   OH228030   5.388   3.333   0.954  0.2874 -0.1737  0.3584
 2132TIP3    H128031   5.444   3.285   0.894 -1.7546 -0.1088 -1.7288
 2132TIP3    H228032   5.414   3.425   0.944 -1.1653  0.0568 -1.8248
 2133TIP3   OH228033   3.074   1.948   0.496 -0.1319 -0.2716  0.1785
 2133TIP3    H128034   3.030   2.032   0.477 -0.2032 -0.4785 -0.5994
 2133TIP3    H228035   3.012   1.882   0.467  0.2809 -0.5840  0.0088
 2134TIP3   OH228036   6.392   2.675   0.085 -0.4395 -0.1905 -0.1161
 2134TIP3    H128037   6.447   2.608   0.045 -0.6547 -0.0419 -0.6724
 2134TIP3    H228038   6.414   2.672   0.178 -1.0867 -1.6565  0.0245
 2135TIP3   OH228039   0.328   3.274   3.906  0.3966 -0.2823  0.4403
 2135TIP3    H128040   0.303   3.363   3.929  0.8468 -0.3797  1.3404
 2135TIP3    H228041   0.349   3.278   3.813  1.6759  0.8452  0.7547
 2136TIP3   OH228042   0.167   5.130   7.895 -0.0804 -0.9183  0.1752
 2136TIP3    H128043   0.205   5.211   7.864  2.2365 -1.6886  0.8154
 2136TIP3    H228044   0.106   5.104   7.826 -0.4195  1.0136 -0.3144
 2137TIP3   OH228045   2.194   2.369   0.728  0.2738 -0.1344  0.3231
 2137TIP3    H128046   2.213   2.448   0.677 -0.6167 -0.7953 -1.0919
 2137TIP3    H228047   2.279   2.325   0.734  0.6371  0.5693  0.4997
 2138TIP3   OH228048   6.549   5.841   0.873  0.4215  0.1888 -0.0366
 2138TIP3    H128049   6.491   5.907   0.834  2.0923  1.0390 -1.2301
 2138TIP3    H228050   6.609   5.892   0.929 -1.3537 -0.9111  3.1012
 2139TIP3   OH228051   0.773   0.813   1.067 -0.1043 -0.2687 -0.0419
 2139TIP3    H128052   0.859   0.781   1.038 -0.5034  0.2683 -2.0146
 2139TIP3    H228053   0.722   0.734   1.082  0.8529 -0.6030  1.6254
 2140TIP3   OH228054   4.211   3.432   0.861 -0.0309  0.2467  0.4542
 2140TIP3    H128055   4.223   3.486   0.939 -1.3816  0.8490  0.2738
 2140TIP3    H228056   4.203   3.495   0.789  1.2436 -0.3055 -0.2010
 2141TIP3   OH228057   6.537   5.634   0.688 -1.0098 -0.3705 -0.0449
 2141TIP3    H128058   6.573   5.700   0.747 -0.5666  0.8441 -1.6145
 2141TIP3    H228059   6.444   5.654   0.684 -1.1364 -0.7815  0.6097
 2142TIP3   OH228060   0.746   3.749   2.863 -0.1081 -0.5722 -0.0524
 2142TIP3    H128061   0.692   3.716   2.934 -1.6330 -0.0266 -0.9003
 2142TIP3    H228062   0.756   3.675   2.803  0.1377 -0.6939  0.1404
 2143TIP3   OH228063   4.241   4.339   3.017  0.2624 -0.1709 -0.0166
 2143TIP3    H128064   4.290   4.419   2.998  1.0697 -0.1324  1.9415
 2143TIP3    H228065   4.210   4.351   3.107 -0.9136 -1.4256 -0.2278
 2144TIP3   OH228066   3.646   5.884   0.648  0.3886  0.1774 -0.3512
 2144TIP3    H128067   3.605   5.844   0.726  0.1073  0.0003 -0.5865
 2144TIP3    H228068   3.693   5.812   0.607 -0.5478 -0.0512 -1.0625
 2145TIP3   OH228069   5.269   3.588   0.599  0.0369  0.0052 -0.5865
 2145TIP3    H128070   5.208   3.523   0.634 -0.8420  0.5101 -1.1330
 2145TIP3    H228071   5.289   3.645   0.673  1.7602 -1.5320  0.2190
 2146TIP3   OH228072   6.057   2.869   1.887  0.2864  0.1435  0.4056
 2146TIP3    H128073   5.980   2.913   1.852  0.0216 -1.0895 -0.6211
 2146TIP3    H228074   6.120   2.940   1.902 -0.5363  0.9950 -0.0860
 2147TIP3   OH228075   3.041   0.088   8.633 -0.2846 -0.4066  0.1110
 2147TIP3    H128076   3.021   0.181   8.638  1.6242  0.0151  0.7086
 2147TIP3    H228077   2.986   0.055   8.562 -0.7366  1.2403 -0.3322
 2148TIP3   OH228078   6.867   0.060   3.285  0.5104 -0.5064 -0.4827
 2148TIP3    H128079   6.938   0.111   3.247  1.8530  0.1452  2.5915
 2148TIP3    H228080   6.900   0.031   3.370 -1.9974 -2.3868 -0.0072
 2149TIP3   OH228081   0.249   3.523   3.942 -0.5534 -0.2508 -0.0559
 2149TIP3    H128082   0.231   3.593   4.004  0.1791 -0.9005  0.9262
 2149TIP3    H228083   0.279   3.567   3.862 -1.0131  0.5738  0.2185
 2150TIP3   OH228084   3.478   0.925   0.146 -0.0585  0.3690  0.2891
 2150TIP3    H128085   3.482   0.920   0.242 -1.2590 -1.6455  0.2860
 2150TIP3    H228086   3.554   0.876   0.116 -1.8891 -2.7395  0.2928
 2151TIP3   OH228087   1.268   5.822   2.558  0.4067  0.0647 -0.1918
 2151TIP3    H128088   1.256   5.880   2.634 -1.0343 -1.4367  0.8093
 2151TIP3    H228089   1.183   5.823   2.514  0.6512 -0.5725 -0.6887
 2152TIP3   OH228090   5.024   0.557   0.742  0.3491 -0.1749 -0.6146
 2152TIP3    H128091   5.072   0.634   0.712  0.7594  0.2882  1.1395
 2152TIP3    H228092   4.944   0.592   0.782 -0.7772 -0.8529 -2.1354
 2153TIP3   OH228093   4.630   5.166   1.720  0.1632 -0.5149 -0.6371
 2153TIP3    H128094   4.710   5.117   1.738 -0.0216 -0.6730 -0.2303
 2153TIP3    H228095   4.563   5.122   1.773 -0.3451 -0.8407 -1.5250
 2154TIP3   OH228096   3.941   2.588   2.408  0.1546 -0.2348 -0.6394
 2154TIP3    H128097   3.892   2.572   2.327  1.5748  1.0159 -1.8158
 2154TIP3    H228098   4.030   2.560   2.388  0.4413 -0.3039  0.6484
 2155TIP3   OH228099   6.819   1.081   3.390 -0.5608  0.0827  0.1791
 2155TIP3    H128100   6.825   1.118   3.478 -1.8520  1.4543 -0.2625
 2155TIP3    H228101   6.889   1.123   3.341  1.2339 -1.8947  0.8835
 2156TIP3   OH228102   3.957   4.327   1.988 -0.3343  0.3023 -0.3737
 2156TIP3    H128103   3.981   4.419   1.980 -0.7161  0.3869 -0.5246
 2156TIP3    H228104   3.893   4.325   2.059  1.2365 -0.1244  1.1018
 2157TIP3   OH228105   0.672   1.498   8.515 -0.5732 -0.3492 -0.4645
 2157TIP3    H128106   0.634   1.410   8.518 -2.4155  0.4036 -0.1634
 2157TIP3    H228107   0.672   1.521   8.422  0.9169 -1.0313 -0.6688
 2158TIP3   OH228108   5.323   6.629   2.160 -0.1442  0.1255 -0.2258
 2158TIP3    H128109   5.404   6.622   2.110 -0.0050 -0.6821  0.0962
 2158TIP3    H228110   5.325   6.554   2.220 -0.1464  1.2229  1.2222
 2159TIP3   OH228111   4.954   2.331   0.249  0.4125  0.7918  0.0541
 2159TIP3    H128112   4.892   2.347   0.320  1.0327  1.9739  0.3428
 2159TIP3    H228113   4.915   2.374   0.173 -0.8673 -1.4978 -0.7042
 2160TIP3   OH228114   3.953   3.000   0.529  0.3423  0.0422  0.3264
 2160TIP3    H128115   3.998   2.959   0.603  0.1521 -0.4003  0.2033
 2160TIP3    H228116   3.981   3.091   0.531  0.0649  0.1177  1.1582
 2161TIP3   OH228117   2.553   1.576   8.394  0.0243  0.1351  0.6860
 2161TIP3    H128118   2.500   1.510   8.348  1.4802 -0.7154  0.1381
 2161TIP3    H228119   2.633   1.529   8.419  1.2454  1.7585  0.0201
 2162TIP3   OH228120   5.392   2.152   2.176 -0.5788  0.4275  0.1060
 2162TIP3    H128121   5.425   2.209   2.107 -3.6881  1.3207 -0.7825
 2162TIP3    H228122   5.305   2.185   2.195 -0.2168 -0.3590  3.8862
 2163TIP3   OH228123   3.638   6.151   2.171  0.1151 -0.4323  0.4439
 2163TIP3    H128124   3.555   6.179   2.211 -0.1004 -1.9956  1.1556
 2163TIP3    H228125   3.704   6.205   2.214 -0.3295 -0.6249  1.3930
 2164TIP3   OH228126   4.299   6.361   1.757  1.0975  0.2008  0.3982
 2164TIP3    H128127   4.213   6.394   1.782  1.4252  1.8143 -0.4341
 2164TIP3    H228128   4.331   6.316   1.835 -0.0309  0.5790  1.1047
 2165TIP3   OH228129   2.934   5.199   0.613 -0.0827  0.2345  0.7378
 2165TIP3    H128130   2.844   5.218   0.586  0.0169 -0.4043 -0.1010
 2165TIP3    H228131   2.964   5.131   0.552  0.8543  0.1882  1.2184
 2166TIP3   OH228132   3.659   5.367   2.150 -0.3882 -0.1228 -0.2761
 2166TIP3    H128133   3.581   5.353   2.096 -0.5608 -1.8117  0.3687
 2166TIP3    H228134   3.624   5.378   2.239  0.0069  0.9651 -0.2433
 2167TIP3   OH228135   6.367   3.377   1.491 -0.0319 -0.1989 -0.2240
 2167TIP3    H128136   6.403   3.357   1.578  0.1981  0.1067 -0.2453
 2167TIP3    H228137   6.311   3.454   1.506  0.1731 -0.0192 -0.3855
 2168TIP3   OH228138   6.810   6.336   0.955 -0.4654  0.0159 -0.8100
 2168TIP3    H128139   6.746   6.343   0.884 -0.5970 -0.3335 -0.7323
 2168TIP3    H228140   6.885   6.292   0.916 -0.3894  0.1618 -0.8276
 2169TIP3   OH228141   5.887   1.699   2.410  0.1562 -0.2998  0.0322
 2169TIP3    H128142   5.978   1.667   2.405  0.1746 -0.5111  1.3349
 2169TIP3    H228143   5.844   1.636   2.468 -0.9021 -0.3483 -0.7866
 2170TIP3   OH228144   2.561   1.272   8.573 -0.7495  0.1636  0.0312
 2170TIP3    H128145   2.637   1.293   8.520 -0.9776 -0.2057 -0.4526
 2170TIP3    H228146   2.590   1.201   8.631 -0.8816 -0.3689 -0.5470
 2171TIP3   OH228147   5.836   5.418   1.864 -0.7801 -0.4139  0.2528
 2171TIP3    H128148   5.847   5.509   1.837 -0.8799 -0.5539 -0.2726
 2171TIP3    H228149   5.891   5.409   1.942  0.8188 -0.4159 -0.8272
 2172TIP3   OH228150   5.685   0.451   0.688 -0.2852  0.4510 -0.1907
 2172TIP3    H128151   5.780   0.460   0.680 -0.3237  2.0739  0.9421
 2172TIP3    H228152   5.673   0.369   0.736  0.5903  0.8816  0.7832
 2173TIP3   OH228153   1.361   6.322   1.666  0.0644  0.2667  0.1466
 2173TIP3    H128154   1.366   6.405   1.619 -0.1611  0.2718  0.1307
 2173TIP3    H228155   1.399   6.258   1.606  1.2640  0.5411  0.5984
 2174TIP3   OH228156   5.769   1.846   3.016 -0.2986  0.1839  0.0903
 2174TIP3    H128157   5.755   1.847   3.111 -2.8895 -1.0564 -0.1929
 2174TIP3    H228158   5.840   1.782   3.003  1.5398  1.8751  1.2536
 2175TIP3   OH228159   2.034   6.611   2.362 -0.0137  0.3235  0.0889
 2175TIP3    H128160   2.098   6.579   2.299 -0.5008 -2.9767  1.0614
 2175TIP3    H228161   2.060   6.572   2.446 -2.9920 -0.9093  0.5995
 2176TIP3   OH228162   2.549   6.212   2.318 -0.1840 -0.1841  0.2943
 2176TIP3    H128163   2.464   6.192   2.358  0.0624 -0.4274  0.7085
 2176TIP3    H228164   2.536   6.296   2.274 -0.7044 -0.3316  0.1560
 2177TIP3   OH228165   4.695   0.676   1.664 -0.4415  0.8068 -0.3169
 2177TIP3    H128166   4.638   0.733   1.612 -2.4821 -0.0227  0.8978
 2177TIP3    H228167   4.725   0.610   1.602  0.8291  2.3255 -1.4162
 2178TIP3   OH228168   0.189   0.199   3.158  0.3319  0.0174  0.1384
 2178TIP3    H128169   0.258   0.156   3.107  0.7927  1.1067 -0.1942
 2178TIP3    H228170   0.136   0.245   3.092 -3.0658 -3.7664 -0.1177
 2179TIP3   OH228171   4.332   2.857   0.308  0.0056 -0.2185  0.1944
 2179TIP3    H128172   4.388   2.810   0.246 -1.0971  0.8538 -1.7349
 2179TIP3    H228173   4.385   2.932   0.336 -0.1801  0.4718 -1.1730
 2180TIP3   OH228174   4.818   0.156   1.078  0.0522 -0.5632  0.3907
 2180TIP3    H128175   4.729   0.145   1.110  0.0175 -1.3302  0.0516
 2180TIP3    H228176   4.809   0.167   0.983  0.1466  1.7779  0.5962
 2181TIP3   OH228177   2.647   4.395   0.253 -0.1898 -0.2626 -0.2936
 2181TIP3    H128178   2.732   4.390   0.209 -0.0386 -1.6698  0.0966
 2181TIP3    H228179   2.665   4.364   0.342 -1.1857 -1.0284 -0.3370
 2182TIP3   OH228180   2.519   2.989   0.719  0.5010  0.1745  0.0962
 2182TIP3    H128181   2.589   3.028   0.666  1.2552 -0.0548  0.9103
 2182TIP3    H228182   2.528   3.029   0.805  0.5847 -0.9420  0.6304
 2183TIP3   OH228183   0.431   5.206   8.377 -0.2347 -0.2268  0.6497
 2183TIP3    H128184   0.382   5.197   8.459 -2.1821  0.8657 -0.3071
 2183TIP3    H228185   0.410   5.294   8.346  0.5125 -0.5740 -0.9666
 2184TIP3   OH228186   6.580   4.458   8.232 -0.1481  0.3810  0.3089
 2184TIP3    H128187   6.598   4.370   8.265 -1.4382  0.3867  1.0875
 2184TIP3    H228188   6.623   4.517   8.294  0.9791  0.3010 -0.3861
 2185TIP3   OH228189   6.459   4.348   8.579 -0.1550  0.6931 -0.0127
 2185TIP3    H128190   6.513   4.426   8.566  0.1649  0.3839 -0.5850
 2185TIP3    H228191   6.498   4.282   8.521 -2.1767  0.9483 -1.7976
 2186TIP3   OH228192   4.097   0.147   2.398  0.3486 -0.1204  0.3829
 2186TIP3    H128193   4.168   0.210   2.392 -1.5441  1.9975 -1.4108
 2186TIP3    H228194   4.056   0.165   2.483  0.0194  0.8941  0.0234
 2187TIP3   OH228195   5.938   6.479   8.151 -0.2384  0.0823 -0.7556
 2187TIP3    H128196   6.008   6.444   8.207  0.1174  1.7332 -0.0764
 2187TIP3    H228197   5.909   6.558   8.197 -1.2462  0.4565 -1.9849
 2188TIP3   OH228198   5.688   1.624   8.018 -0.3146  0.1663  0.6447
 2188TIP3    H128199   5.609   1.569   8.013 -1.3409  1.6524 -0.1790
 2188TIP3    H228200   5.687   1.676   7.938  0.1644  1.9756  1.7387
 2189TIP3   OH228201   6.078   5.484   3.377 -0.8822  0.0931 -0.0115
 2189TIP3    H128202   6.032   5.564   3.354 -1.7927 -0.2023  0.6831
 2189TIP3    H228203   6.010   5.428   3.417 -0.0297 -0.5575  0.5766
 2190TIP3   OH228204   5.728   3.538   8.290  0.0988 -0.5462  0.3531
 2190TIP3    H128205   5.801   3.584   8.249  0.8161 -1.5797  0.4380
 2190TIP3    H228206   5.682   3.496   8.217 -1.1642  1.0777  0.1497
 2191TIP3   OH228207   2.143   4.142   0.044 -0.3589  0.1365  0.0127
 2191TIP3    H128208   2.056   4.109   0.067 -0.5566  0.8474  0.3075
 2191TIP3    H228209   2.125   4.222  -0.006  0.1212  2.1096  2.7829
 2192TIP3   OH228210   2.169   5.472   0.659  0.3599  0.0197 -0.4527
 2192TIP3    H128211   2.196   5.559   0.632  1.5147  0.0427  0.6680
 2192TIP3    H228212   2.089   5.454   0.609  1.5146  0.6603 -2.6218
 2193TIP3   OH228213   2.256   0.955   2.180  0.2677 -0.5464  0.2903
 2193TIP3    H128214   2.276   1.030   2.237  0.6173 -1.3479  1.2626
 2193TIP3    H228215   2.212   0.893   2.238 -0.4739 -0.8987 -0.6260
 2194TIP3   OH228216   4.163   5.612   3.640  0.0652  0.0476 -0.1635
 2194TIP3    H128217   4.240   5.619   3.583  0.5838  1.3517  0.6366
 2194TIP3    H228218   4.173   5.684   3.702 -1.7687  0.1744  0.0384
 2195TIP3   OH228219   3.374   3.938   8.348  0.4264  0.3794 -0.2354
 2195TIP3    H128220   3.355   3.980   8.264  0.0857 -1.4389 -1.1226
 2195TIP3    H228221   3.300   3.879   8.363  0.1562  1.1501  1.7013
 2196TIP3   OH228222   2.671   5.740   0.198  0.5781  0.1688 -0.2466
 2196TIP3    H128223   2.628   5.665   0.239 -1.3959  1.6226  0.5276
 2196TIP3    H228224   2.738   5.766   0.260 -0.9565  1.0297  1.1256
 2197TIP3   OH228225   5.402   0.586   1.858  0.1085  0.4109 -0.4892
 2197TIP3    H128226   5.389   0.525   1.785 -1.8645 -0.6037  0.6312
 2197TIP3    H228227   5.341   0.658   1.839 -1.9638 -0.8030  1.0441
 2198TIP3   OH228228   6.203   3.133   0.853  0.7214  0.4330  0.0270
 2198TIP3    H128229   6.173   3.073   0.785  1.9922 -0.7369  0.4327
 2198TIP3    H228230   6.220   3.215   0.808 -0.8463  0.4397 -0.5854
 2199TIP3   OH228231   2.570   3.983   2.117 -0.1856 -0.1511  0.5894
 2199TIP3    H128232   2.585   3.942   2.033 -0.8171  0.1746  0.3052
 2199TIP3    H228233   2.595   4.075   2.104  0.2849 -0.2281  0.9324
 2200TIP3   OH228234   5.818   0.528   1.698 -0.2022  0.3627 -0.3094
 2200TIP3    H128235   5.810   0.582   1.620  0.2267 -0.1718 -0.7378
 2200TIP3    H228236   5.765   0.450   1.680 -0.0809  0.2242 -0.0859
 2201TIP3   OH228237   5.147   2.223   3.016 -0.0411 -0.2159  0.3643
 2201TIP3    H128238   5.144   2.130   2.992  0.4071  0.0372 -0.7428
 2201TIP3    H228239   5.239   2.238   3.041 -0.2102 -0.1637  0.9770
 2202TIP3   OH228240   5.831   6.631   8.396  0.3107  0.2557 -0.0798
 2202TIP3    H128241   5.866   6.715   8.367 -0.2790  0.6854  0.4443
 2202TIP3    H228242   5.741   6.630   8.365  0.7662 -0.8883 -1.4983
 2203TIP3   OH228243   4.874   2.082   2.802 -0.7193  0.0474  0.1584
 2203TIP3    H128244   4.903   2.038   2.882 -1.0761  3.4722  2.3982
 2203TIP3    H228245   4.779   2.069   2.801 -0.6080 -0.7928 -0.2759
 2204TIP3   OH228246   4.771   2.991   1.552  0.2243  0.6524  0.1491
 2204TIP3    H128247   4.819   3.074   1.560 -0.9601  1.7040 -2.4726
 2204TIP3    H228248   4.834   2.931   1.512  0.9670  0.3521  1.7006
 2205TIP3   OH228249   4.913   0.714   1.366  0.3861 -0.1339  0.3452
 2205TIP3    H128250   4.915   0.762   1.448  0.5556 -1.2454  1.0048
 2205TIP3    H228251   4.823   0.723   1.334  0.2270  0.0029  0.8329
 2206TIP3   OH228252   3.271   6.334   2.952 -0.4508  0.4709  0.5983
 2206TIP3    H128253   3.290   6.245   2.922 -2.1947  0.3739 -0.4221
 2206TIP3    H228254   3.246   6.324   3.044 -0.0467 -0.0061  0.6593
 2207TIP3   OH228255   2.805   0.538   8.321  0.3935 -0.1510 -0.4421
 2207TIP3    H128256   2.761   0.609   8.273  0.1996  0.5952  0.7873
 2207TIP3    H228257   2.857   0.583   8.388  0.2860 -1.1595  0.3493
 2208TIP3   OH228258   5.421   5.967   2.760  0.1167  0.2825 -0.3243
 2208TIP3    H128259   5.508   5.930   2.772 -0.3930 -0.3385  1.7216
 2208TIP3    H228260   5.431   6.060   2.782  0.1373  0.0710  0.5883
 2209TIP3   OH228261   5.143   3.225   0.915 -0.6243  0.2968 -0.1170
 2209TIP3    H128262   5.235   3.252   0.925 -0.3223 -0.6574 -0.2412
 2209TIP3    H228263   5.134   3.149   0.973 -1.4953  0.7283  0.3280
 2210TIP3   OH228264   3.602   4.089   1.705  0.1811  0.0661 -0.0150
 2210TIP3    H128265   3.618   4.177   1.671  0.4214  0.5488  1.2690
 2210TIP3    H228266   3.549   4.103   1.784  0.2121 -0.9349  0.1984
 2211TIP3   OH228267   5.574   4.138   2.251 -0.1674 -0.1938  0.0346
 2211TIP3    H128268   5.506   4.156   2.186  0.1689 -0.3964 -0.3802
 2211TIP3    H228269   5.655   4.163   2.208  0.3185 -2.5405 -0.5510
 2212TIP3   OH228270   1.898   2.408   2.467  0.1864  0.2736 -0.5847
 2212TIP3    H128271   1.836   2.479   2.484 -1.2693 -0.8034 -1.1595
 2212TIP3    H228272   1.856   2.331   2.506  1.6603 -0.3089 -0.0999
 2213TIP3   OH228273   3.737   4.491   0.079  0.5661 -0.8935  0.0879
 2213TIP3    H128274   3.663   4.446   0.039 -0.1406  1.4666 -1.4787
 2213TIP3    H228275   3.701   4.574   0.109  2.3119 -0.2252  0.4470
 2214TIP3   OH228276   4.877   2.255   1.377 -0.1959  0.5143 -0.3230
 2214TIP3    H128277   4.791   2.223   1.349 -0.9813  2.8223 -0.7839
 2214TIP3    H228278   4.925   2.268   1.296  0.4747 -0.3528 -0.0864
 2215TIP3   OH228279   0.123   0.971   2.287 -0.1989 -0.2689 -0.4492
 2215TIP3    H128280   0.095   0.913   2.358 -0.2724  1.2031  0.7546
 2215TIP3    H228281   0.132   1.057   2.327  1.7343  0.2214 -1.7754
 2216TIP3   OH228282   6.815   4.192   1.719  0.2357  0.3241  0.4180
 2216TIP3    H128283   6.862   4.189   1.635 -0.5950  1.0892 -0.0959
 2216TIP3    H228284   6.881   4.171   1.784  0.4271 -2.6106 -0.5800
 2217TIP3   OH228285   1.703   1.865   0.535 -0.1887 -0.3822 -0.1863
 2217TIP3    H128286   1.794   1.891   0.527  0.4610 -2.6499 -1.0531
 2217TIP3    H228287   1.687   1.860   0.629  0.7584 -0.5104 -0.0281
 2218TIP3   OH228288   2.443   3.790   2.801  0.2267 -0.2612 -0.3370
 2218TIP3    H128289   2.532   3.800   2.835 -0.6553  1.0560  1.8659
 2218TIP3    H228290   2.441   3.842   2.721  1.5155 -0.5833 -0.5852
 2219TIP3   OH228291   4.980   5.721   8.577 -0.2878  0.0285 -0.0913
 2219TIP3    H128292   5.018   5.804   8.607  2.1573 -1.3230  0.8649
 2219TIP3    H228293   4.896   5.715   8.623  1.2682  0.2156  3.0358
 2220TIP3   OH228294   1.133   4.863   8.674  0.0030 -0.3093 -0.0307
 2220TIP3    H128295   1.073   4.788   8.674 -0.4426  0.0417  0.0349
 2220TIP3    H228296   1.151   4.880   8.581 -2.4593  1.5037 -0.2630
 2221TIP3   OH228297   1.541   2.302   0.396  0.4342 -0.0129 -0.2301
 2221TIP3    H128298   1.506   2.323   0.483  0.0314  0.6465 -0.5435
 2221TIP3    H228299   1.521   2.209   0.384 -1.4152  0.3891 -0.4812
 2222TIP3   OH228300   5.636   0.490   1.061  0.2011  0.3723 -0.5007
 2222TIP3    H128301   5.600   0.404   1.040 -0.0962  0.6878 -1.3208
 2222TIP3    H228302   5.683   0.477   1.143 -2.3108  0.0801  1.0113
 2223TIP3   OH228303   4.661   2.963   0.839 -0.4316 -0.2533  0.7419
 2223TIP3    H128304   4.735   2.908   0.866 -0.1852  0.2586  1.1237
 2223TIP3    H228305   4.624   2.918   0.763 -0.7475 -1.3978  1.5400
 2224TIP3   OH228306   0.656   6.419   2.935 -0.0236 -1.0815 -0.2730
 2224TIP3    H128307   0.709   6.465   2.870  0.2705 -1.2853 -0.1786
 2224TIP3    H228308   0.597   6.486   2.969  1.4609 -0.3707  1.0066
 2225TIP3   OH228309   0.559   0.395   1.329 -0.4997 -0.3148 -0.0297
 2225TIP3    H128310   0.549   0.469   1.388 -0.3429 -0.2736 -0.0531
 2225TIP3    H228311   0.564   0.435   1.242  0.1657 -0.3082  0.0065
 2226TIP3   OH228312   4.113   2.579   1.480 -0.1973 -0.3886 -0.2476
 2226TIP3    H128313   4.058   2.550   1.553 -0.7685 -0.9666 -0.9010
 2226TIP3    H228314   4.105   2.510   1.415  0.7914 -0.1677 -0.6218
 2227TIP3   OH228315   1.308   0.731   8.263 -0.2082 -0.8893 -0.2198
 2227TIP3    H128316   1.312   0.664   8.195 -2.6878  0.3432 -1.7131
 2227TIP3    H228317   1.215   0.755   8.268  0.4187  1.5775  1.0882
 2228TIP3   OH228318   1.139   6.626   2.773  0.0346  0.4589 -0.2827
 2228TIP3    H128319   1.222   6.594   2.738  0.3865  0.8559  0.1737
 2228TIP3    H228320   1.133   6.716   2.743 -0.6998  0.1470 -1.1193
 2229TIP3   OH228321   0.629   2.793   1.215 -0.3276 -0.5672  0.5558
 2229TIP3    H128322   0.563   2.827   1.155  0.4888 -1.3781 -0.8588
 2229TIP3    H228323   0.599   2.704   1.236  0.1627 -0.8540  0.0884
 2230TIP3   OH228324   0.126   6.409   0.494  0.6495  0.1305 -0.4541
 2230TIP3    H128325   0.114   6.315   0.477  0.9202  0.0857 -0.3935
 2230TIP3    H228326   0.133   6.448   0.407 -0.2613  0.2036 -0.5079
 2231TIP3   OH228327   2.609   2.453   8.240  0.1659  0.7697  0.8648
 2231TIP3    H128328   2.672   2.489   8.177  1.2448 -1.1685  0.7430
 2231TIP3    H228329   2.621   2.505   8.319  2.0238  0.4024  0.8643
 2232TIP3   OH228330   4.990   3.562   8.643 -0.1899  0.0427  0.0965
 2232TIP3    H128331   4.902   3.543   8.612  0.3565  1.2278 -2.4177
 2232TIP3    H228332   4.986   3.651   8.678 -0.0763 -0.0630  0.3858
 2233TIP3   OH228333   6.337   1.804   2.766 -0.0242  0.3247 -0.7565
 2233TIP3    H128334   6.312   1.721   2.809  1.2465  1.1113  1.6436
 2233TIP3    H228335   6.260   1.826   2.713 -1.4744 -1.0521  0.6327
 2234TIP3   OH228336   0.614   3.533   1.091 -0.4169 -0.1933  0.1868
 2234TIP3    H128337   0.563   3.601   1.135 -1.4942 -0.8285 -0.0527
 2234TIP3    H228338   0.552   3.461   1.078 -0.2950  0.0707 -2.6455
 2235TIP3   OH228339   3.769   0.641   8.145  0.5675  0.4527  0.0581
 2235TIP3    H128340   3.850   0.690   8.155  1.4454 -0.8585 -0.3553
 2235TIP3    H228341   3.746   0.615   8.234  0.2420  1.3664  0.2476
 2236TIP3   OH228342   5.307   4.882   1.144  0.1596  0.4560  0.3339
 2236TIP3    H128343   5.225   4.929   1.157 -0.0817 -0.3819  2.0742
 2236TIP3    H228344   5.302   4.808   1.204  1.8075 -0.1244 -0.1930
 2237TIP3   OH228345   2.977   1.966   1.480 -0.0343 -0.6503 -0.3482
 2237TIP3    H128346   3.001   1.965   1.573  1.3811  1.2495 -0.6131
 2237TIP3    H228347   2.934   2.051   1.468 -3.2685 -2.1989 -0.8315
 2238TIP3   OH228348   6.329   6.032   2.838  0.4662 -0.1646  1.4581
 2238TIP3    H128349   6.342   5.950   2.789 -0.9661 -0.1903  1.0781
 2238TIP3    H228350   6.351   6.101   2.775  2.0733 -0.2257  1.9019
 2239TIP3   OH228351   3.291   2.258   2.779 -1.1991 -0.4218  0.2167
 2239TIP3    H128352   3.279   2.164   2.788  0.2112 -0.5097  1.6685
 2239TIP3    H228353   3.381   2.268   2.750 -0.9579  0.4904  1.1991
 2240TIP3   OH228354   1.665   3.434   3.159  0.4038  0.1053 -0.0793
 2240TIP3    H128355   1.682   3.473   3.245  1.6954  0.6390 -0.5506
 2240TIP3    H228356   1.569   3.426   3.155  0.3319 -0.3139  1.5593
 2241TIP3   OH228357   5.143   6.364   1.957 -0.4041  0.1994  0.1943
 2241TIP3    H128358   5.171   6.450   1.924  1.2595 -0.3769  0.0293
 2241TIP3    H228359   5.149   6.306   1.882  0.2368 -0.4378  0.7327
 2242TIP3   OH228360   6.802   2.293   1.779 -0.2936 -0.1780  0.2151
 2242TIP3    H128361   6.747   2.358   1.822  0.2304  0.0617  0.5351
 2242TIP3    H228362   6.891   2.327   1.788 -0.3087  1.0460 -3.0130
 2243TIP3   OH228363   4.260   0.836   8.176 -0.4418  0.0817 -0.4935
 2243TIP3    H128364   4.346   0.876   8.164 -1.2697  2.2793  0.4878
 2243TIP3    H228365   4.279   0.749   8.212  1.4398 -0.7648 -3.2175
 2244TIP3   OH228366   5.330   3.447   2.083 -0.0378  0.5961 -0.3205
 2244TIP3    H128367   5.420   3.478   2.073 -0.1968  0.9727 -0.5846
 2244TIP3    H228368   5.334   3.355   2.057  0.5926  0.1408  1.2611
 2245TIP3   OH228369   5.447   2.819   1.858 -0.1350 -0.4230  0.2757
 2245TIP3    H128370   5.375   2.882   1.865 -0.8018 -0.8738 -1.9064
 2245TIP3    H228371   5.435   2.760   1.933 -2.3783 -0.7900 -0.3161
 2246TIP3   OH228372   0.682   0.684   8.098 -0.3686  0.3011 -0.3011
 2246TIP3    H128373   0.597   0.689   8.055  0.4046 -1.5894 -2.2364
 2246TIP3    H228374   0.742   0.729   8.038  0.4224 -0.7416 -0.3262
 2247TIP3   OH228375   3.546   2.832   3.386 -0.3403 -0.1105  0.1446
 2247TIP3    H128376   3.508   2.918   3.368 -0.3236 -0.1297  0.0147
 2247TIP3    H228377   3.631   2.851   3.424  0.2366 -0.0697 -1.1311
 2248TIP3   OH228378   2.302   3.835   3.812  0.1418 -0.2354 -0.0234
 2248TIP3    H128379   2.373   3.812   3.872  0.6540  2.1706  0.3951
 2248TIP3    H228380   2.230   3.777   3.837  1.4965 -1.8000  0.4485
 2249TIP3   OH228381   0.089   6.159   1.576 -1.0140  0.4870 -0.2846
 2249TIP3    H128382   0.114   6.079   1.622 -2.3601  1.3865  2.2259
 2249TIP3    H228383   0.058   6.130   1.491 -0.8215 -1.5852  0.3109
 2250TIP3   OH228384   3.895   4.421   0.998  0.9836  0.5027 -0.3780
 2250TIP3    H128385   3.812   4.419   1.046 -0.0842 -1.9847 -2.1154
 2250TIP3    H228386   3.962   4.412   1.066 -0.1925  1.5120  0.9751
 2251TIP3   OH228387   5.110   1.402   2.209  0.1340  0.6369 -0.6953
 2251TIP3    H128388   5.052   1.468   2.171 -1.8860 -0.2197  0.6902
 2251TIP3    H228389   5.090   1.403   2.303  3.6171  1.4356  0.1953
 2252TIP3   OH228390   2.809   6.534   0.026  0.1942  0.3320  0.2590
 2252TIP3    H128391   2.735   6.583   0.060 -0.5449  0.6035 -1.6337
 2252TIP3    H228392   2.810   6.453   0.078 -2.0890 -0.1556 -0.3652
 2253TIP3   OH228393   4.524   0.286   2.978  0.0899  0.8835  0.6739
 2253TIP3    H128394   4.595   0.308   2.919  1.2005  0.2895  1.7392
 2253TIP3    H228395   4.565   0.282   3.065 -1.0646 -0.2471  1.2016
 2254TIP3   OH228396   2.361   4.156   2.768 -0.0864  0.4684 -0.0728
 2254TIP3    H128397   2.406   4.108   2.698  1.1656  4.3027 -2.1925
 2254TIP3    H228398   2.412   4.137   2.847  2.6636  1.1339 -1.5558
 2255TIP3   OH228399   3.776   5.415   1.708  0.2070  0.2264 -0.3592
 2255TIP3    H128400   3.774   5.321   1.692  0.9782  0.2038 -0.3588
 2255TIP3    H228401   3.684   5.443   1.701  0.0052 -0.4805 -0.5921
 2256TIP3   OH228402   6.052   0.179   0.561 -0.7315  0.0966 -0.5529
 2256TIP3    H128403   6.047   0.199   0.655 -1.0429  0.2804 -0.6073
 2256TIP3    H228404   6.135   0.133   0.551 -0.3010  0.8164 -0.3224
 2257TIP3   OH228405   6.306   6.854   2.425 -0.0633 -0.3073 -0.6843
 2257TIP3    H128406   6.372   6.831   2.360  0.1443  1.0066 -0.9758
 2257TIP3    H228407   6.350   6.842   2.509  0.5023  0.3856 -0.8735
 2258TIP3   OH228408   5.556   3.590   0.929 -0.4758 -0.5694 -0.5302
 2258TIP3    H128409   5.537   3.666   0.983 -1.0451 -0.9256 -0.2262
 2258TIP3    H228410   5.553   3.622   0.839 -0.3652 -0.1625 -0.3899
 2259TIP3   OH228411   3.032   4.962   2.944  0.0870  0.0091 -0.1999
 2259TIP3    H128412   3.016   5.035   2.884 -1.0049  0.4663  0.6025
 2259TIP3    H228413   3.127   4.952   2.946  0.4970  2.9667  1.4372
 2260TIP3   OH228414   2.760   2.892   8.199 -0.4989  0.4527  0.1054
 2260TIP3    H128415   2.695   2.824   8.213  1.0075 -1.1092 -0.1104
 2260TIP3    H228416   2.784   2.922   8.287  0.2822 -0.7637  0.3241
 2261TIP3   OH228417   5.663   6.820   8.236  0.0015 -0.2035 -0.4207
 2261TIP3    H128418   5.747   6.853   8.269  0.4704 -0.4452 -1.3333
 2261TIP3    H228419   5.615   6.898   8.210  0.6483 -0.1547 -1.5056
 2262TIP3   OH228420   2.500   0.098   3.698  0.1367 -0.0877  0.6172
 2262TIP3    H128421   2.584   0.144   3.703  1.3750 -1.9955 -1.0658
 2262TIP3    H228422   2.512   0.021   3.753  0.1775 -1.2853 -0.9905
 2263TIP3   OH228423   3.121   6.437   8.611  0.1899  0.0249  0.4203
 2263TIP3    H128424   3.094   6.415   8.700 -1.8870  0.2230 -0.1013
 2263TIP3    H228425   3.171   6.518   8.620 -2.3487  1.6275  1.2225
 2264TIP3   OH228426   1.206   4.266   1.313 -0.1920 -0.0611  0.5636
 2264TIP3    H128427   1.297   4.248   1.337  0.0848 -0.3410 -0.6543
 2264TIP3    H228428   1.210   4.290   1.221 -1.3703 -0.1958  0.4685
 2265TIP3   OH228429   0.188   3.714   1.065  0.3404  0.2930 -0.2172
 2265TIP3    H128430   0.217   3.638   1.015  2.7753  1.2983 -0.5045
 2265TIP3    H228431   0.109   3.744   1.020  1.3636  0.0017 -2.3394
 2266TIP3   OH228432   6.043   4.361   1.581 -0.0949  0.4690  0.8305
 2266TIP3    H128433   6.122   4.350   1.632  0.3785 -0.2256 -0.0106
 2266TIP3    H228434   6.073   4.398   1.498 -0.8314  1.4892  0.9965
 2267TIP3   OH228435   1.010   0.813   0.774  0.0715  0.2976  0.3538
 2267TIP3    H128436   1.096   0.850   0.794  0.3697 -0.1174 -0.1509
 2267TIP3    H228437   0.971   0.794   0.860  0.9717 -0.6403  0.5684
 2268TIP3   OH228438   4.663   6.282   1.801 -0.1290 -0.0608  0.3027
 2268TIP3    H128439   4.662   6.192   1.768  3.2784 -0.4182  0.7878
 2268TIP3    H228440   4.681   6.273   1.894 -0.1231  1.0950  0.4201
 2269TIP3   OH228441   2.066   3.796   2.188 -0.4601 -0.5945 -0.0470
 2269TIP3    H128442   2.069   3.774   2.095  1.6018 -1.8153  0.2344
 2269TIP3    H228443   2.051   3.712   2.232 -0.0005 -0.2665  0.7586
 2270TIP3   OH228444   0.508   2.697   1.506 -0.1959  0.6151 -0.3359
 2270TIP3    H128445   0.471   2.768   1.453  2.4239  0.9298 -1.8789
 2270TIP3    H228446   0.443   2.684   1.576 -1.9241  2.8362 -1.3845
 2271TIP3   OH228447   5.490   5.995   4.019  0.3833  0.2980  0.4381
 2271TIP3    H128448   5.445   5.978   4.102  0.5884 -0.6860  0.3544
 2271TIP3    H228449   5.462   6.084   3.994 -2.6258 -0.7380 -0.2965
 2272TIP3   OH228450   3.814   6.563   1.994  0.5070  0.1008  1.0441
 2272TIP3    H128451   3.739   6.533   1.943  0.9239 -0.6462  0.8480
 2272TIP3    H228452   3.803   6.522   2.079  0.8905 -0.3381  0.8895
 2273TIP3   OH228453   0.652   3.316   1.552 -0.3780  0.3793 -0.2606
 2273TIP3    H128454   0.706   3.341   1.478  0.9548 -1.0590  0.1978
 2273TIP3    H228455   0.678   3.227   1.573 -0.2403  0.9449  2.3309
 2274TIP3   OH228456   4.295   5.075   0.436 -0.7589  0.1417  0.1386
 2274TIP3    H128457   4.252   5.159   0.450 -1.2117  0.3798 -2.1625
 2274TIP3    H228458   4.253   5.040   0.357  0.9810 -1.1853 -0.2684
 2275TIP3   OH228459   5.175   4.928   0.834  0.1131  0.2122  0.0749
 2275TIP3    H128460   5.104   4.871   0.803  0.1136  0.8715 -1.1755
 2275TIP3    H228461   5.135   4.979   0.904 -0.2761 -0.3320  0.2587
 2276TIP3   OH228462   0.583   2.851   3.185 -0.5491  0.0562  0.0512
 2276TIP3    H128463   0.640   2.880   3.113 -2.0435  2.3016 -0.3216
 2276TIP3    H228464   0.563   2.760   3.164 -0.9808  0.6589 -2.4671
 2277TIP3   OH228465   6.611   5.895   3.006 -0.5688 -0.0445  0.4565
 2277TIP3    H128466   6.566   5.829   2.953 -0.3082  0.4448 -0.3885
 2277TIP3    H228467   6.610   5.974   2.953 -0.0171  0.3760  1.0478
 2278TIP3   OH228468   5.519   0.759   1.521 -0.2936 -0.4658 -0.1285
 2278TIP3    H128469   5.496   0.728   1.433  1.5761 -1.0797 -0.4428
 2278TIP3    H228470   5.480   0.696   1.580 -2.3586  0.4446 -0.4195
 2279TIP3   OH228471   3.329   4.633   3.287  0.1072 -0.1311  0.0276
 2279TIP3    H128472   3.372   4.665   3.366  0.6971 -0.4165 -0.1721
 2279TIP3    H228473   3.369   4.547   3.271 -0.1547 -0.1662 -0.4637
 2280TIP3   OH228474   5.231   3.678   2.213 -0.5199  0.2167 -0.1307
 2280TIP3    H128475   5.311   3.731   2.215 -0.1492 -0.3331 -0.2161
 2280TIP3    H228476   5.251   3.606   2.152  0.1480 -1.8110  2.2999
 2281TIP3   OH228477   0.144   1.779   0.637  0.2508  0.4928  0.7241
 2281TIP3    H128478   0.070   1.737   0.594  1.2486 -1.0281  0.4140
 2281TIP3    H228479   0.134   1.756   0.730 -0.8829  2.2129  1.0633
 2282TIP3   OH228480   4.100   1.362   3.335 -0.3209  0.4958 -0.6234
 2282TIP3    H128481   4.122   1.455   3.340  0.5839  0.2482  0.2028
 2282TIP3    H228482   4.008   1.361   3.308  0.0471  1.5937 -2.0151
 2283TIP3   OH228483   4.740   6.885   0.218 -0.1324  0.4474  0.3839
 2283TIP3    H128484   4.724   6.792   0.235  0.0532  0.3076 -0.1886
 2283TIP3    H228485   4.748   6.923   0.305  0.5040 -0.2044  0.6276
 2284TIP3   OH228486   2.241   6.861   0.810  0.3039 -0.6325 -0.0559
 2284TIP3    H128487   2.155   6.819   0.802  0.6403 -1.0216 -2.1347
 2284TIP3    H228488   2.272   6.834   0.897 -0.6590 -2.4725 -0.2176
 2285TIP3   OH228489   1.936   6.612   1.077  0.0369 -0.5182  0.6313
 2285TIP3    H128490   1.895   6.668   1.143 -2.7110  0.3962 -1.6492
 2285TIP3    H228491   2.027   6.643   1.073 -0.5481  1.5607  1.7687
 2286TIP3   OH228492   2.196   5.731   1.993 -0.1753  0.4471 -0.1597
 2286TIP3    H128493   2.110   5.689   1.994 -0.2291  0.2861 -3.1289
 2286TIP3    H228494   2.177   5.821   1.965  0.7091 -0.1816 -3.1120
 2287TIP3   OH228495   5.543   1.515   0.545  0.0030 -0.1881 -0.6977
 2287TIP3    H128496   5.595   1.447   0.502 -0.9021 -0.6700 -1.0523
 2287TIP3    H228497   5.556   1.593   0.491  1.1793 -0.0147 -0.1959
 2288TIP3   OH228498   3.428   6.220   8.067 -0.0359  0.2974  0.0324
 2288TIP3    H128499   3.401   6.303   8.028 -0.0260 -0.2863 -1.2677
 2288TIP3    H228500   3.374   6.212   8.146 -0.8730  0.9776 -0.4530
 2289TIP3   OH228501   4.101   0.508   8.662  0.4015 -0.4849  0.1174
 2289TIP3    H128502   4.079   0.415   8.675 -0.8088 -0.3245 -0.6165
 2289TIP3    H228503   4.169   0.507   8.594  0.3250 -0.8382  0.0432
 2290TIP3   OH228504   6.633   5.916   8.704  0.5933  0.1255  0.1000
 2290TIP3    H128505   6.676   6.000   8.721  2.1092 -0.2782 -1.4895
 2290TIP3    H228506   6.637   5.906   8.608 -1.0603 -0.9953  0.1108
 2291TIP3   OH228507   3.321   3.686   2.424 -0.0831  0.3943 -0.2846
 2291TIP3    H128508   3.290   3.722   2.340 -2.3606  0.3679  0.4734
 2291TIP3    H228509   3.243   3.647   2.463  1.5797 -2.4912  0.4346
 2292TIP3   OH228510   0.568   0.328   0.130  0.2730  0.5005 -0.5345
 2292TIP3    H128511   0.478   0.307   0.104  0.3579  0.5558 -0.8763
 2292TIP3    H228512   0.558   0.383   0.208  0.0592 -1.4179  0.8706
 2293TIP3   OH228513   6.262   4.543   0.115 -0.1928  0.2918 -0.0395
 2293TIP3    H128514   6.249   4.504   0.028 -2.9458  1.0493 -0.0306
 2293TIP3    H228515   6.295   4.470   0.168 -0.4631 -0.7341 -1.2203
 2294TIP3   OH228516   0.490   5.853   1.866  1.0700  0.3895 -0.2258
 2294TIP3    H128517   0.458   5.913   1.934 -2.7204  0.2202 -1.6278
 2294TIP3    H228518   0.526   5.779   1.915 -0.4003  0.8000  1.6077
 2295TIP3   OH228519   6.680   0.704   3.407  0.3380 -0.3011  0.4978
 2295TIP3    H128520   6.675   0.795   3.377  0.8263 -0.5671 -0.4410
 2295TIP3    H228521   6.693   0.653   3.327  0.6979 -1.1390  1.0744
 2296TIP3   OH228522   5.009   0.951   8.681 -0.0572 -0.6785 -0.0170
 2296TIP3    H128523   5.019   0.857   8.694 -0.4879 -0.6550  0.4980
 2296TIP3    H228524   4.998   0.960   8.586 -0.6056 -1.2039 -0.0086
 2297TIP3   OH228525   6.642   5.622   3.399 -0.1304  0.1742 -0.4314
 2297TIP3    H128526   6.736   5.610   3.400  0.0216  0.7867 -2.5170
 2297TIP3    H228527   6.627   5.689   3.332 -1.9063  1.5825  1.2240
 2298TIP3   OH228528   0.012   2.333   2.808  0.0369  0.0385  0.2929
 2298TIP3    H128529   0.094   2.284   2.807  0.5269  0.7963 -2.3171
 2298TIP3    H228530  -0.055   2.269   2.782  0.2270  0.0707 -0.2747
 2299TIP3   OH228531   0.394   5.391   0.307  0.5948 -0.3948  0.3014
 2299TIP3    H128532   0.323   5.410   0.245  1.0515 -1.2788 -0.5240
 2299TIP3    H228533   0.472   5.424   0.264  0.4707  2.7598  2.2390
 2300TIP3   OH228534   1.125   3.469   7.695  0.1350 -0.2043  0.7273
 2300TIP3    H128535   1.151   3.496   7.783  1.0694  1.2746  0.0402
 2300TIP3    H228536   1.207   3.452   7.649 -0.3423 -0.9650  0.1257
 2301TIP3   OH228537   4.123   0.677   0.717  0.1026 -0.1608  0.2883
 2301TIP3    H128538   4.102   0.615   0.647 -0.0516  1.1055 -0.8259
 2301TIP3    H228539   4.152   0.756   0.671  0.9021  0.3872  1.6850
 2302TIP3   OH228540   6.520   5.946   3.802  0.2191  0.3016  0.3049
 2302TIP3    H128541   6.575   6.024   3.795  1.1603  0.0664  3.4187
 2302TIP3    H228542   6.433   5.979   3.823  0.3818  0.5615  0.5812
 2303TIP3   OH228543   5.883   5.387   3.111 -0.0304  0.2270  0.1864
 2303TIP3    H128544   5.880   5.453   3.181  0.6517  2.1939 -1.5431
 2303TIP3    H228545   5.977   5.376   3.094 -0.1264 -1.4017  0.5839
 2304TIP3   OH228546   5.197   6.044   1.038  0.2185 -0.2593 -0.0502
 2304TIP3    H128547   5.176   6.132   1.072 -0.7238 -0.0502 -1.1251
 2304TIP3    H228548   5.129   6.027   0.974  0.3473 -1.8353  0.2084
 2305TIP3   OH228549   3.027   0.040   3.726  0.3709 -0.3519  0.3451
 2305TIP3    H128550   3.012  -0.045   3.767  1.6603 -0.2523  1.0720
 2305TIP3    H228551   3.118   0.061   3.746  0.2689  0.9027 -0.3841
 2306TIP3   OH228552   5.325   3.437   7.704  0.3976 -0.1602  0.5216
 2306TIP3    H128553   5.253   3.397   7.753 -2.0462 -0.4772 -2.9738
 2306TIP3    H228554   5.397   3.375   7.714 -1.4190 -2.4731  0.1534
 2307TIP3   OH228555   3.887   4.254   0.214  0.1007  0.3217  0.2757
 2307TIP3    H128556   3.820   4.260   0.282  1.4334 -0.2765  1.7101
 2307TIP3    H228557   3.891   4.342   0.176  0.4016  1.1337  2.0756
 2308TIP3   OH228558   3.385   5.853   2.322 -0.1733  0.1658 -0.2058
 2308TIP3    H128559   3.361   5.931   2.272 -0.9728  0.5787  0.7965
 2308TIP3    H228560   3.419   5.792   2.256 -0.8499  0.8264 -1.1949
 2309TIP3   OH228561   4.997   5.770   3.974  0.1064 -0.9067 -0.4737
 2309TIP3    H128562   5.021   5.838   4.037  0.0111 -1.6597  0.3957
 2309TIP3    H228563   5.080   5.733   3.946  0.1242 -2.2792  1.1648
 2310TIP3   OH228564   4.327   3.321   1.676 -0.3454 -0.2687  0.2128
 2310TIP3    H128565   4.379   3.268   1.614 -1.4990  0.0056 -1.0420
 2310TIP3    H228566   4.260   3.261   1.708  0.4544 -0.5015  1.4937
 2311TIP3   OH228567   2.843   0.957   1.232 -0.0366  0.1677  0.0536
 2311TIP3    H128568   2.838   1.017   1.306  1.0714 -1.3233  1.4097
 2311TIP3    H228569   2.852   0.870   1.272  2.1584 -0.5570 -1.7730
 2312TIP3   OH228570   2.457   2.998   8.570 -0.6560 -0.0680  0.5201
 2312TIP3    H128571   2.434   2.929   8.632  0.2393 -0.3503  0.5540
 2312TIP3    H228572   2.413   2.973   8.489 -0.1097 -0.8462  0.4498
 2313TIP3   OH228573   1.851   4.008   1.627  0.0540  0.3204 -0.1986
 2313TIP3    H128574   1.828   4.029   1.537 -2.0351 -1.8519 -0.2640
 2313TIP3    H228575   1.767   3.998   1.672  0.9288 -1.9914  1.1226
 2314TIP3   OH228576   4.711   1.597   1.394  0.2135  0.0462 -0.5379
 2314TIP3    H128577   4.618   1.578   1.409 -0.1680  2.8930  1.4714
 2314TIP3    H228578   4.755   1.512   1.405 -1.7343 -0.6962  2.8513
 2315TIP3   OH228579   5.812   4.938   2.490  0.2468 -0.1978  0.3224
 2315TIP3    H128580   5.722   4.912   2.473 -0.0278  1.2186 -0.5510
 2315TIP3    H228581   5.833   4.898   2.575 -0.9999 -1.0037  0.2723
 2316TIP3   OH228582   6.699   1.554   1.422  0.3345 -0.3201  0.3402
 2316TIP3    H128583   6.741   1.478   1.462 -1.1177 -1.2351  0.2329
 2316TIP3    H228584   6.661   1.520   1.340  0.5025  0.7617 -0.2067
 2317TIP3   OH228585   5.171   4.286   0.653  0.0368 -0.7064 -0.0629
 2317TIP3    H128586   5.190   4.210   0.597 -1.1698 -0.7670 -0.4231
 2317TIP3    H228587   5.140   4.248   0.735 -2.0227 -0.6490 -0.7603
 2318TIP3   OH228588   4.189   3.716   1.627 -0.4280 -0.2418  0.2955
 2318TIP3    H128589   4.230   3.656   1.690  3.6143  1.8221 -0.0067
 2318TIP3    H228590   4.251   3.719   1.554 -1.1981  3.0882 -0.3510
 2319TIP3   OH228591   0.359   4.104   1.230 -0.1277  0.2910  0.0819
 2319TIP3    H128592   0.436   4.153   1.258  0.7626 -0.2404 -1.3165
 2319TIP3    H228593   0.326   4.152   1.154 -0.2242 -0.3413 -0.2874
 2320TIP3   OH228594   0.575   2.979   0.389  0.3881  0.7329 -0.1455
 2320TIP3    H128595   0.522   2.997   0.311  0.4930  0.9492 -0.1673
 2320TIP3    H228596   0.662   2.959   0.354  0.2260 -0.0066 -0.1344
 2321TIP3   OH228597   5.858   5.117   2.268 -0.3367  0.2039  0.0763
 2321TIP3    H128598   5.928   5.144   2.327 -0.2631 -0.7446  0.4507
 2321TIP3    H228599   5.844   5.025   2.289  0.3186 -0.4408 -1.9852
 2322TIP3   OH228600   4.469   0.438   1.723 -0.0670  0.3995 -0.1019
 2322TIP3    H128601   4.448   0.448   1.815  0.9165  0.8453  0.0907
 2322TIP3    H228602   4.546   0.380   1.722 -0.2220  0.1932 -0.6524
 2323TIP3   OH228603   2.359   4.122   1.041 -0.2276  0.1829  0.0527
 2323TIP3    H128604   2.430   4.084   0.989 -1.7032 -0.9243 -1.2591
 2323TIP3    H228605   2.356   4.214   1.015  0.0696 -0.0045 -0.6605
 2324TIP3   OH228606   4.072   0.001   8.598 -0.2601 -0.0876  0.0192
 2324TIP3    H128607   4.017  -0.077   8.595 -1.4084  0.7246 -1.0019
 2324TIP3    H228608   4.011   0.072   8.620  0.4922  0.7355 -0.5010
 2325TIP3   OH228609   1.893   0.006   0.495  0.0211  0.0356  0.4180
 2325TIP3    H128610   1.966  -0.005   0.434 -0.3695 -0.2360 -0.0080
 2325TIP3    H228611   1.816   0.010   0.439 -0.2884  0.3826  0.8611
 2326TIP3   OH228612   6.740   0.249   8.726 -0.0374  0.0002 -0.5195
 2326TIP3    H128613   6.662   0.194   8.732  0.3841 -0.6108 -0.5695
 2326TIP3    H228614   6.705   0.338   8.716 -0.7680  0.0878  2.0175
 2327TIP3   OH228615   3.792   0.461   1.435  0.0566  0.3501 -0.3051
 2327TIP3    H128616   3.787   0.366   1.439 -0.3926  0.4040  3.0000
 2327TIP3    H228617   3.738   0.485   1.359 -1.9807 -1.9398  0.3068
 2328TIP3   OH228618   5.433   5.649   1.098  0.0680  0.0334  0.4356
 2328TIP3    H128619   5.350   5.622   1.138  0.3186  0.3071  1.1567
 2328TIP3    H228620   5.453   5.579   1.035  0.4945 -1.3233  1.9739
 2329TIP3   OH228621   5.945   3.549   4.163 -0.3832  0.3617 -0.0159
 2329TIP3    H128622   5.866   3.560   4.216 -0.2757  1.2132 -0.0272
 2329TIP3    H228623   5.969   3.637   4.136 -0.9324 -0.1089 -2.2398
 2330TIP3   OH228624   4.334   4.353   1.404 -0.0442  0.2600  0.9360
 2330TIP3    H128625   4.386   4.380   1.480  1.0437  1.0861 -0.0581
 2330TIP3    H228626   4.255   4.406   1.408  0.6602  1.3631  0.7346
 2331TIP3   OH228627   0.981   5.945   2.499 -0.3644  0.0978 -0.1180
 2331TIP3    H128628   0.887   5.964   2.503 -0.3746 -0.1014  1.0146
 2331TIP3    H228629   0.990   5.860   2.542  0.4417  0.5987  0.7390
 2332TIP3   OH228630   0.575   4.582   0.695 -0.0197 -0.0079 -0.0449
 2332TIP3    H128631   0.548   4.499   0.655  1.7593 -0.7473  0.2168
 2332TIP3    H228632   0.508   4.599   0.761  0.4829 -2.1392  1.0949
 2333TIP3   OH228633   3.603   1.129   8.122  0.2540 -0.0687  0.0678
 2333TIP3    H128634   3.658   1.078   8.063  0.7600  0.1845  0.3147
 2333TIP3    H228635   3.628   1.220   8.106  0.1848  0.0229  0.4615
 2334TIP3   OH228636   2.492   5.798   3.218  0.1554  0.0989  0.0471
 2334TIP3    H128637   2.432   5.726   3.238 -0.9711  1.0274  0.1733
 2334TIP3    H228638   2.516   5.833   3.304  0.6323 -0.0705 -0.0157
 2335TIP3   OH228639   1.692   0.123   2.471 -0.3060 -0.5371  0.0422
 2335TIP3    H128640   1.754   0.194   2.453 -0.2530 -0.5075  0.3296
 2335TIP3    H228641   1.743   0.043   2.461 -0.0610 -0.4929  0.8717
 2336TIP3   OH228642   4.995   1.148   1.531 -0.3717 -0.3567 -0.0361
 2336TIP3    H128643   5.089   1.162   1.518 -0.4224 -0.1209 -0.1594
 2336TIP3    H228644   4.980   1.057   1.505  0.0714 -0.8495  1.3377
 2337TIP3   OH228645   1.571   4.857   0.699  0.0877 -0.5147 -0.0886
 2337TIP3    H128646   1.550   4.765   0.718  0.1202 -0.4873  0.0761
 2337TIP3    H228647   1.665   4.864   0.716  0.2974 -0.6992 -1.0652
 2338TIP3   OH228648   2.383   0.329   8.456  0.0264  0.4754  0.1557
 2338TIP3    H128649   2.416   0.375   8.533 -0.5018  0.1004  0.6187
 2338TIP3    H228650   2.455   0.332   8.393  0.2498  1.3180  0.4337
 2339TIP3   OH228651   4.677   6.199   2.917  0.1415  0.2507 -0.0125
 2339TIP3    H128652   4.608   6.256   2.884 -0.2868 -0.7515 -0.8749
 2339TIP3    H228653   4.645   6.170   3.002 -1.7753 -2.2681 -1.4725
 2340TIP3   OH228654   5.737   0.956   4.295  0.3073  0.1434 -0.4537
 2340TIP3    H128655   5.692   0.956   4.211 -1.6156  0.6326  0.5219
 2340TIP3    H228656   5.717   1.042   4.333  1.5789  0.1376  0.3011
 2341TIP3   OH228657   1.877   0.087   1.719  0.3948  0.1668  0.6333
 2341TIP3    H128658   1.826   0.026   1.772  1.4859 -0.6010  0.8421
 2341TIP3    H228659   1.817   0.159   1.699 -0.8563 -0.8761  0.5567
 2342TIP3   OH228660   1.001   1.191   3.256  0.1317  0.0680 -0.4653
 2342TIP3    H128661   1.087   1.220   3.286 -0.8166  2.1648  0.4550
 2342TIP3    H228662   0.955   1.167   3.336 -0.4679 -0.0631 -0.8479
 2343TIP3   OH228663   0.639   3.923   8.671  0.2907 -0.0932 -0.2018
 2343TIP3    H128664   0.696   3.998   8.658 -0.1206  0.3333  0.4195
 2343TIP3    H228665   0.693   3.847   8.647  0.8960  0.3537 -0.2655
 2344TIP3   OH228666   2.065   4.656   8.404 -0.1441  0.1100 -0.3539
 2344TIP3    H128667   2.097   4.711   8.475  0.7229  1.0442 -1.4282
 2344TIP3    H228668   2.142   4.641   8.349 -0.6623 -1.1053 -0.7722
 2345TIP3   OH228669   0.171   3.242   8.083  0.2095 -0.1183 -0.1240
 2345TIP3    H128670   0.239   3.309   8.094  0.4172 -0.3006 -0.2979
 2345TIP3    H228671   0.107   3.283   8.024  0.4126 -0.1267 -0.3526
 2346TIP3   OH228672   5.282   2.809   1.555  0.9589  0.9422 -0.6511
 2346TIP3    H128673   5.263   2.750   1.628 -0.6181  3.0871  0.8140
 2346TIP3    H228674   5.333   2.756   1.494  1.9418 -1.1147  1.7503
 2347TIP3   OH228675   2.769   1.907   3.837 -0.2988  0.0342  0.0133
 2347TIP3    H128676   2.690   1.927   3.786 -0.7882  0.2314  0.8388
 2347TIP3    H228677   2.766   1.967   3.911  1.4910  1.2020 -0.7939
 2348TIP3   OH228678   4.207   5.263   8.522  0.2077  0.3617 -0.0034
 2348TIP3    H128679   4.239   5.225   8.604  2.2554  3.1776  0.6242
 2348TIP3    H228680   4.285   5.300   8.481 -1.2516  1.5753 -1.8058
 2349TIP3   OH228681   3.001   2.395   8.118 -0.1255  0.1167 -0.0268
 2349TIP3    H128682   3.002   2.431   8.206  0.5465  2.0402 -0.7570
 2349TIP3    H228683   2.917   2.424   8.081 -0.4287 -0.7232 -0.0284
 2350TIP3   OH228684   5.892   3.986   4.503 -0.2956  0.2756  0.5302
 2350TIP3    H128685   5.847   4.018   4.425  0.4388 -0.8099 -0.3719
 2350TIP3    H228686   5.977   4.030   4.502  0.1810 -0.6038  0.0301
 2351TIP3   OH228687   3.111   0.845   3.328 -0.0298 -0.3181  0.1844
 2351TIP3    H128688   3.167   0.794   3.386 -0.6434 -1.6346 -0.3404
 2351TIP3    H228689   3.143   0.823   3.240 -1.1647 -0.8472 -0.1063
 2352TIP3   OH228690   6.452   3.271   1.770  0.3801  0.0316  0.2717
 2352TIP3    H128691   6.445   3.317   1.854 -0.1302 -0.7895  0.7004
 2352TIP3    H228692   6.542   3.285   1.742  0.9088 -0.6140  1.5360
 2353TIP3   OH228693   2.626   4.576   1.899 -0.1337 -0.0169 -0.4421
 2353TIP3    H128694   2.584   4.554   1.816 -0.9003 -0.2884  0.0095
 2353TIP3    H228695   2.712   4.533   1.895 -1.1194 -2.1220 -0.0766
 2354TIP3   OH228696   6.143   0.985   3.227 -0.2846  0.1619 -0.1011
 2354TIP3    H128697   6.066   1.043   3.235  1.3116  2.3930  0.0882
 2354TIP3    H228698   6.208   1.025   3.285  1.2000 -1.3754 -0.6495
 2355TIP3   OH228699   0.599   5.567   0.696  0.7200 -0.1475  0.2338
 2355TIP3    H128700   0.513   5.551   0.657  0.8336 -0.3692  0.0688
 2355TIP3    H228701   0.587   5.548   0.789  1.0338 -1.9826 -0.0643
 2356TIP3   OH228702   3.636   3.518   3.421  0.6340 -0.3920  0.2573
 2356TIP3    H128703   3.639   3.605   3.382  2.8842 -0.2877  0.5696
 2356TIP3    H228704   3.720   3.508   3.466 -0.5755 -1.7326  2.4286
 2357TIP3   OH228705   4.557   6.119   3.150 -0.5259 -0.2466 -0.1330
 2357TIP3    H128706   4.589   6.120   3.240 -1.2833  0.4193  0.1387
 2357TIP3    H228707   4.463   6.137   3.157 -0.6454 -0.4557 -1.0355
 2358TIP3   OH228708   1.373   0.998   0.159 -0.0718  0.0443 -0.4388
 2358TIP3    H128709   1.306   1.066   0.158 -0.6385 -0.4600  0.8298
 2358TIP3    H228710   1.440   1.032   0.219 -1.0255 -1.0745  1.3485
 2359TIP3   OH228711   3.493   3.284   1.383 -0.5060 -0.0844  0.0465
 2359TIP3    H128712   3.576   3.332   1.388 -0.9518  0.6183  1.2345
 2359TIP3    H228713   3.474   3.279   1.289  1.0921 -0.6755 -0.2771
 2360TIP3   OH228714   5.545   3.565   2.901 -0.2175 -0.3026  0.3198
 2360TIP3    H128715   5.535   3.652   2.941 -1.1360 -0.4197  0.3804
 2360TIP3    H228716   5.538   3.582   2.807 -0.3184 -0.2957  0.3279
 2361TIP3   OH228717   1.524   5.623   3.772  0.2461  0.2261  0.5469
 2361TIP3    H128718   1.598   5.589   3.822 -0.1852 -1.9433 -0.2098
 2361TIP3    H228719   1.510   5.559   3.703 -1.1196  1.5940 -0.5051
 2362TIP3   OH228720   2.792   1.535   7.958 -0.5132 -0.3854 -0.8057
 2362TIP3    H128721   2.718   1.592   7.980 -0.0710 -0.4029  0.8349
 2362TIP3    H228722   2.867   1.595   7.951 -0.5130 -0.4707 -1.6143
 2363TIP3   OH228723   1.594   3.111   2.063 -0.0982 -0.4644 -0.1279
 2363TIP3    H128724   1.604   3.160   2.145 -0.6747 -0.4351 -0.0736
 2363TIP3    H228725   1.647   3.159   2.000 -0.8331  0.3597 -0.1304
 2364TIP3   OH228726   5.060   2.883   3.197  0.5287 -0.2705 -0.1196
 2364TIP3    H128727   4.993   2.829   3.239 -0.9089  0.7119 -1.0612
 2364TIP3    H228728   5.092   2.829   3.124  0.1880 -0.4306 -0.1508
 2365TIP3   OH228729   0.654   6.673   1.319 -0.1191 -0.5285 -0.0917
 2365TIP3    H128730   0.669   6.729   1.395  0.5594 -1.5752  0.5705
 2365TIP3    H228731   0.573   6.707   1.280 -0.8262 -0.3596  1.4462
 2366TIP3   OH228732   1.438   0.302   3.042 -0.1820  0.1547  0.5700
 2366TIP3    H128733   1.371   0.302   2.974 -0.1792  0.0268  0.5673
 2366TIP3    H228734   1.492   0.378   3.023  0.8363 -0.8217 -0.5648
 2367TIP3   OH228735   5.904   5.693   1.786 -0.2606 -0.2376  0.8812
 2367TIP3    H128736   5.989   5.733   1.803 -0.7356  0.9295  0.6380
 2367TIP3    H228737   5.896   5.693   1.691 -0.8115  0.2987  0.9196
 2368TIP3   OH228738   4.036   2.978   3.860  0.1258 -0.0987  0.4352
 2368TIP3    H128739   4.062   2.943   3.774  1.2344  0.5982  0.4603
 2368TIP3    H228740   4.102   2.942   3.920  0.0469  0.3618  0.7952
 2369TIP3   OH228741   6.020   4.583   3.175  0.4640  0.8739 -0.2026
 2369TIP3    H128742   6.107   4.583   3.214 -0.6067 -1.9147  2.6407
 2369TIP3    H228743   6.022   4.514   3.109  0.3374  0.5012  0.1754
 2370TIP3   OH228744   6.487   0.881   2.819 -0.3681 -0.1057 -0.5610
 2370TIP3    H128745   6.435   0.925   2.886 -0.9839  1.4954 -2.0396
 2370TIP3    H228746   6.577   0.888   2.851 -0.8213 -1.2848  1.1193
 2371TIP3   OH228747   2.148   6.284   1.827  0.1956  0.1054 -0.5728
 2371TIP3    H128748   2.223   6.236   1.862  1.5022  1.7006 -1.0497
 2371TIP3    H228749   2.171   6.302   1.736 -0.7937  0.5885 -0.7449
 2372TIP3   OH228750   1.528   0.831   3.509 -0.3259  0.2605 -0.0955
 2372TIP3    H128751   1.554   0.918   3.537  1.6398 -0.3895  0.2213
 2372TIP3    H228752   1.528   0.778   3.589 -1.8304  0.0030 -0.2253
 2373TIP3   OH228753   1.866   1.882   2.708 -0.0981  0.4691  0.1770
 2373TIP3    H128754   1.932   1.915   2.769  0.1208  3.2915 -1.4147
 2373TIP3    H228755   1.784   1.888   2.756  0.2410  1.2906  0.6854
 2374TIP3   OH228756   0.468   1.911   1.820  0.0528 -0.3129  0.0997
 2374TIP3    H128757   0.420   1.831   1.802 -2.1996  0.9986 -0.1773
 2374TIP3    H228758   0.474   1.915   1.915  0.5084 -0.9889  0.0987
 2375TIP3   OH228759   3.492   0.542   1.944  0.4378 -0.4553  0.5534
 2375TIP3    H128760   3.494   0.455   1.903 -1.4113 -1.0530  1.5846
 2375TIP3    H228761   3.526   0.601   1.878  0.4579 -1.7991 -0.6859
 2376TIP3   OH228762   3.505   3.886   1.227  0.4873  0.3742 -0.3720
 2376TIP3    H128763   3.410   3.879   1.238  0.5542  0.0142 -0.0272
 2376TIP3    H228764   3.540   3.805   1.265  1.0006  0.9524  0.4262
 2377TIP3   OH228765   5.650   0.817   0.919  0.3284 -0.1897  0.0120
 2377TIP3    H128766   5.660   0.722   0.926 -0.0279 -0.5010 -2.6167
 2377TIP3    H228767   5.734   0.847   0.884 -0.2326  0.1523 -1.0898
 2378TIP3   OH228768   3.552   3.802   2.530  0.0464 -0.1422 -0.3804
 2378TIP3    H128769   3.481   3.754   2.486 -0.7343  1.7105 -1.2312
 2378TIP3    H228770   3.621   3.809   2.464  0.0951  0.0332 -0.3124
 2379TIP3   OH228771   5.272   2.961   2.802 -0.1980  0.2206  0.2024
 2379TIP3    H128772   5.316   3.014   2.868 -0.3362 -0.2981  0.7200
 2379TIP3    H228773   5.266   3.018   2.725  3.0348 -0.2817 -0.5479
 2380TIP3   OH228774   5.760   0.539   0.382  0.6207 -0.1859 -0.1987
 2380TIP3    H128775   5.691   0.503   0.438 -1.0311  2.4186 -0.3796
 2380TIP3    H228776   5.804   0.604   0.436  0.5381  0.7167 -1.1847
 2381TIP3   OH228777   2.754   0.660   0.435 -1.2068  0.2876  0.0316
 2381TIP3    H128778   2.698   0.715   0.490  0.5978  0.9336  1.3063
 2381TIP3    H228779   2.817   0.621   0.495 -0.0903 -0.1845 -1.3746
 2382TIP3   OH228780   6.058   3.994   0.465 -0.0223 -0.1200 -0.0186
 2382TIP3    H128781   5.969   3.983   0.496 -0.4175  0.2454 -0.9840
 2382TIP3    H228782   6.052   3.983   0.370  0.9861 -0.2457 -0.0812
 2383TIP3   OH228783   4.272   1.753   1.139 -0.0280  0.2911 -0.6492
 2383TIP3    H128784   4.233   1.702   1.067  0.5316  0.8646 -1.3808
 2383TIP3    H228785   4.247   1.706   1.218 -0.2372 -0.6507 -1.2539
 2384TIP3   OH228786   6.471   0.458   0.869  0.2673  0.3832 -0.1331
 2384TIP3    H128787   6.542   0.454   0.933  1.2981  1.7335 -1.1443
 2384TIP3    H228788   6.436   0.369   0.867  1.6346 -0.2130  0.7048
 2385TIP3   OH228789   3.002   5.220   2.825 -0.0127  0.7053 -0.2647
 2385TIP3    H128790   3.043   5.285   2.768 -1.2114  0.0807 -1.8864
 2385TIP3    H228791   2.967   5.272   2.898 -0.2737  1.7964 -1.1396
 2386TIP3   OH228792   1.545   6.284   0.676 -0.5699  0.4515 -0.1492
 2386TIP3    H128793   1.515   6.291   0.585 -1.1188  2.0171  0.1197
 2386TIP3    H228794   1.523   6.369   0.715 -0.0570 -0.0814  1.3677
 2387TIP3   OH228795   1.096   1.859   1.211 -0.0665 -0.6098  0.0391
 2387TIP3    H128796   1.124   1.861   1.302  1.3054  0.6771 -0.3678
 2387TIP3    H228797   1.007   1.824   1.214 -0.6943  0.9381  2.0492
 2388TIP3   OH228798   3.763   0.543   8.402 -0.0518 -0.0354  0.1349
 2388TIP3    H128799   3.808   0.468   8.363 -0.6348  0.0376 -0.7011
 2388TIP3    H228800   3.704   0.504   8.467 -1.5403 -0.4980 -1.4031
 2389TIP3   OH228801   0.825   4.617   1.570 -0.0874  0.2391  0.4312
 2389TIP3    H128802   0.899   4.556   1.562  0.2153  0.6587 -0.0291
 2389TIP3    H228803   0.853   4.694   1.521 -0.6481  0.5790  0.6476
 2390TIP3   OH228804   2.078   2.562   0.884 -0.2808  0.2656 -0.2610
 2390TIP3    H128805   2.064   2.624   0.812 -1.3552  0.1468 -0.1725
 2390TIP3    H228806   2.079   2.476   0.843 -0.3477  0.2342 -0.1975
 2391TIP3   OH228807   1.769   2.094   2.264 -0.4298  0.1602 -0.0198
 2391TIP3    H128808   1.855   2.075   2.227  0.6161  2.9156  0.7048
 2391TIP3    H228809   1.719   2.014   2.251  2.0041 -1.3104 -1.1214
 2392TIP3   OH228810   6.315   3.690   3.289  0.9537  0.0800 -0.2421
 2392TIP3    H128811   6.371   3.613   3.278  1.1885  0.2781 -0.4098
 2392TIP3    H228812   6.258   3.689   3.212  1.1074  0.2054 -0.3549
 2393TIP3   OH228813   1.754   3.217   1.862  0.0223 -0.3000 -0.2737
 2393TIP3    H128814   1.786   3.175   1.783  2.7894  0.9764  0.0434
 2393TIP3    H228815   1.761   3.311   1.844  0.6600  0.0209  1.4363
 2394TIP3   OH228816   2.078   5.693   2.346 -0.4565 -0.3674  0.2018
 2394TIP3    H128817   2.104   5.773   2.300  0.2484 -0.6845  0.0350
 2394TIP3    H228818   2.006   5.721   2.403  0.2131  0.5386  0.6321
 2395TIP3   OH228819   2.397   1.278   3.616  0.0829  0.2235  0.3869
 2395TIP3    H128820   2.474   1.334   3.617  0.2043  0.0940  1.9390
 2395TIP3    H228821   2.419   1.207   3.677 -1.2892  0.2458  0.9498
 2396TIP3   OH228822   5.860   2.353   1.618  0.2744 -0.0326 -0.1576
 2396TIP3    H128823   5.954   2.363   1.604  0.2561 -0.3597 -0.5143
 2396TIP3    H228824   5.850   2.264   1.651  0.2162  0.4113  1.0849
 2397TIP3   OH228825   3.263   0.522   2.683  0.2351  0.6697  0.0911
 2397TIP3    H128826   3.251   0.600   2.628  2.6145  1.5278  0.6647
 2397TIP3    H228827   3.273   0.451   2.620 -0.0206  1.1458 -0.5031
 2398TIP3   OH228828   3.579   1.314   1.572 -0.1907  0.5668  0.4284
 2398TIP3    H128829   3.500   1.352   1.534  0.1565  0.5889 -0.2854
 2398TIP3    H228830   3.615   1.259   1.503  1.6543  2.3233 -0.1307
 2399TIP3   OH228831   0.913   0.297   2.866  0.4456 -0.0611  0.7418
 2399TIP3    H128832   0.827   0.293   2.909  1.2175 -0.0757  2.3490
 2399TIP3    H228833   0.903   0.364   2.799 -1.0000 -0.5004  0.4860
 2400TIP3   OH228834   0.379   1.637   1.807  0.3552  0.4981 -0.1892
 2400TIP3    H128835   0.317   1.680   1.748 -2.3888 -0.7008  1.6241
 2400TIP3    H228836   0.453   1.614   1.750 -0.0370  3.4234 -2.1414
 2401TIP3   OH228837   1.115   5.616   1.990 -0.4240 -0.3248  0.3682
 2401TIP3    H128838   1.162   5.632   2.072  0.9694 -0.4138 -0.3789
 2401TIP3    H228839   1.184   5.598   1.926 -1.5511 -1.9665 -0.4690
 2402TIP3   OH228840   1.185   4.709   1.350 -0.2192  0.4299 -0.1557
 2402TIP3    H128841   1.270   4.733   1.315 -0.5789  0.2305 -1.1770
 2402TIP3    H228842   1.151   4.790   1.388 -0.9513  1.3199 -2.5905
 2403TIP3   OH228843   0.589   1.498   1.488  0.1165 -0.2548 -0.2057
 2403TIP3    H128844   0.577   1.456   1.403 -0.5854 -1.5350  0.4987
 2403TIP3    H228845   0.623   1.428   1.545 -0.2148  0.3594  0.7742
 2404TIP3   OH228846   6.230   0.851   3.004  0.2875 -0.0263  0.2304
 2404TIP3    H128847   6.167   0.863   2.932  1.3442 -2.5755 -1.2286
 2404TIP3    H228848   6.190   0.897   3.078 -2.1503  0.4397 -1.2539
 2405TIP3   OH228849   4.263   4.552   3.430 -0.6293 -0.2214 -0.4478
 2405TIP3    H128850   4.313   4.508   3.498  0.9060 -1.0860 -2.0434
 2405TIP3    H228851   4.321   4.621   3.399 -0.0907 -1.5880 -2.7118
 2406TIP3   OH228852   4.216   1.192   2.377 -1.3496 -0.0744 -0.0533
 2406TIP3    H128853   4.266   1.126   2.328  0.8850  0.5838  1.1880
 2406TIP3    H228854   4.192   1.148   2.459  1.0111  0.8060  1.2230
 2407TIP3   OH228855   4.739   3.207   0.041  0.4914 -0.8329  0.1486
 2407TIP3    H128856   4.679   3.137   0.063  0.4497 -0.9201 -0.2287
 2407TIP3    H228857   4.777   3.234   0.125 -0.6222 -0.2680  0.4848
 2408TIP3   OH228858   3.926   2.702   3.133 -0.2697 -0.3590 -0.3317
 2408TIP3    H128859   3.856   2.637   3.126 -1.6079  1.1885 -2.4543
 2408TIP3    H228860   3.895   2.764   3.198  0.2324 -0.9250  0.4559
 2409TIP3   OH228861   0.237   2.401   1.300  0.1581 -1.0766 -0.0147
 2409TIP3    H128862   0.285   2.448   1.232 -0.7095 -0.3909 -0.1774
 2409TIP3    H228863   0.198   2.471   1.354  0.3542 -1.6121  0.8414
 2410TIP3   OH228864   5.946   1.321   0.864 -0.0233  0.6587 -0.3628
 2410TIP3    H128865   5.996   1.395   0.901  0.6249 -0.6846  1.6282
 2410TIP3    H228866   5.939   1.259   0.936  0.2079 -1.6269 -2.1882
 2411TIP3   OH228867   2.988   2.341   4.116  0.1936  0.2055 -0.1445
 2411TIP3    H128868   2.981   2.254   4.079  0.1416 -0.1442  0.6580
 2411TIP3    H228869   2.981   2.400   4.041 -1.7977 -0.4089 -0.4924
 2412TIP3   OH228870   2.596   0.770   3.321 -0.0141  0.0964  0.3969
 2412TIP3    H128871   2.691   0.762   3.305  0.1100 -3.2364  1.8369
 2412TIP3    H228872   2.588   0.841   3.384  1.4606  0.8217 -0.1750
 2413TIP3   OH228873   3.431   1.960   3.280  0.5642 -0.0349 -0.5572
 2413TIP3    H128874   3.438   1.920   3.367  1.3260  2.1760  0.4739
 2413TIP3    H228875   3.356   1.915   3.239 -0.0238 -0.9084  1.3486
 2414TIP3   OH228876   3.616   3.663   1.396  0.3794 -0.1723 -0.2705
 2414TIP3    H128877   3.586   3.723   1.464 -2.3182 -0.6055 -0.9556
 2414TIP3    H228878   3.558   3.587   1.405  0.6029 -0.6494 -2.3958
 2415TIP3   OH228879   1.985   2.088   2.069 -0.9456  0.0671 -0.2359
 2415TIP3    H128880   2.052   2.157   2.066 -2.0435  1.1898  0.1453
 2415TIP3    H228881   1.921   2.114   2.002 -2.1628  0.2852  0.9637
 2416TIP3   OH228882   4.277   0.761   3.954  0.1653 -0.0527  0.3974
 2416TIP3    H128883   4.196   0.768   3.903 -0.1658  1.7738  1.0896
 2416TIP3    H228884   4.296   0.851   3.981  1.4493 -0.6940  1.7694
 2417TIP3   OH228885   2.458   6.737   1.527 -0.2761  1.2175 -0.2798
 2417TIP3    H128886   2.421   6.682   1.597 -0.5026 -0.0896 -1.3826
 2417TIP3    H228887   2.532   6.782   1.568 -0.1344  0.1485  0.6817
 2418TIP3   OH228888   1.302   0.526   0.035  0.1603  0.1167 -0.0752
 2418TIP3    H128889   1.247   0.590   0.081 -0.2300  0.6475 -1.2355
 2418TIP3    H228890   1.353   0.578  -0.026 -0.2937 -0.6795 -1.1719
 2419TIP3   OH228891   0.465   2.798   0.867 -0.0404  0.7988  0.3048
 2419TIP3    H128892   0.431   2.862   0.930 -1.3149 -2.0232  2.6857
 2419TIP3    H228893   0.389   2.770   0.816  0.0096 -0.4856  0.8990
 2420TIP3   OH228894   2.751   6.454   1.909 -0.1679  0.3866  0.1841
 2420TIP3    H128895   2.693   6.406   1.851  0.2576 -0.4105  0.4034
 2420TIP3    H228896   2.708   6.538   1.923 -0.5603  0.3558 -0.8022
 2421TIP3   OH228897   3.173   2.385   2.563  0.0204 -0.0464  0.1698
 2421TIP3    H128898   3.251   2.366   2.511 -0.3756 -0.8388 -0.1316
 2421TIP3    H228899   3.198   2.360   2.652  0.8631  1.7489  0.4918
 2422TIP3   OH228900   4.880   6.124   1.271 -0.5500  0.3199 -0.0818
 2422TIP3    H128901   4.821   6.184   1.318 -0.6014  0.5104 -0.3872
 2422TIP3    H228902   4.904   6.058   1.336  0.2519  1.1935  0.5341
 2423TIP3   OH228903   0.997   2.009   3.571  0.4882 -0.2727 -0.2897
 2423TIP3    H128904   0.902   2.006   3.585  0.5859  0.3841  0.6087
 2423TIP3    H228905   1.013   2.097   3.536  0.6842 -0.6505 -1.1762
 2424TIP3   OH228906   1.131   0.376   1.735 -0.1496  0.3276  0.0131
 2424TIP3    H128907   1.097   0.391   1.823  1.0064 -1.5023  0.8483
 2424TIP3    H228908   1.179   0.455   1.714  1.9487 -0.2199  2.2611
 2425TIP3   OH228909   0.591   0.263   0.959 -0.3646  0.0917 -0.1149
 2425TIP3    H128910   0.499   0.274   0.984 -0.0878 -0.7342  1.3453
 2425TIP3    H228911   0.629   0.210   1.028  0.5742 -1.9547 -2.0696
 2426TIP3   OH228912   0.820   1.405   0.021  0.1925  0.0592 -0.1711
 2426TIP3    H128913   0.820   1.496  -0.009 -0.1334  0.1475  0.0951
 2426TIP3    H228914   0.736   1.394   0.065  0.1016 -0.4611 -0.4709
 2427TIP3   OH228915   0.138   3.781   7.958  0.1363  0.1472 -0.1327
 2427TIP3    H128916   0.075   3.709   7.961  0.7590 -0.3803  0.9954
 2427TIP3    H228917   0.208   3.749   7.900  0.8028 -0.5210  0.9978
 2428TIP3   OH228918   2.985   6.065   0.263 -0.1593 -0.3070 -0.0193
 2428TIP3    H128919   3.002   6.117   0.342  0.3144 -0.0362 -0.2903
 2428TIP3    H228920   3.070   6.025   0.242 -0.9519 -3.0197  1.4410
 2429TIP3   OH228921   2.366   3.445   2.786  0.1365  0.0827 -0.1651
 2429TIP3    H128922   2.395   3.421   2.698 -1.6177  0.1859 -0.8161
 2429TIP3    H228923   2.425   3.514   2.813  1.6666 -1.0028 -0.6141
 2430TIP3   OH228924   0.292   1.300   1.449 -0.0464  0.0350 -0.3562
 2430TIP3    H128925   0.224   1.289   1.383 -0.5725 -1.1977  0.3596
 2430TIP3    H228926   0.273   1.385   1.489 -0.9544 -0.1421 -0.3921
 2431TIP3   OH228927   1.035   3.629   2.928 -0.0471 -0.4668  0.1550
 2431TIP3    H128928   0.988   3.706   2.960  0.9208  0.2753 -0.1389
 2431TIP3    H228929   0.975   3.556   2.942 -1.0368  0.3583  0.3302
 2432TIP3   OH228930   1.668   2.285   2.959 -0.0028  0.3310 -0.0226
 2432TIP3    H128931   1.686   2.338   2.881 -1.0324  1.1876  0.3047
 2432TIP3    H228932   1.573   2.287   2.968  0.1113  0.3626  1.3538
 2433TIP3   OH228933   4.552   5.498   4.032 -0.8992 -0.3075 -0.4326
 2433TIP3    H128934   4.536   5.585   3.995  1.4684  0.1314 -0.5832
 2433TIP3    H228935   4.637   5.506   4.075 -1.0543 -2.3249  0.3490
 2434TIP3   OH228936   4.610   1.847   8.361 -0.7131  0.0039 -0.4019
 2434TIP3    H128937   4.680   1.845   8.296 -1.3472 -0.8736 -1.0787
 2434TIP3    H228938   4.656   1.840   8.445  0.0830  0.6784 -0.7657
 2435TIP3   OH228939   4.717   2.629   1.732  0.8261  0.1877 -0.3151
 2435TIP3    H128940   4.757   2.668   1.654 -0.3009  0.4289 -0.7877
 2435TIP3    H228941   4.791   2.601   1.785  1.6216  0.5867 -1.1868
 2436TIP3   OH228942   0.765   1.766   2.350 -0.2597 -0.5228 -0.4128
 2436TIP3    H128943   0.808   1.732   2.272  1.4678  0.7521 -0.0654
 2436TIP3    H228944   0.791   1.858   2.354 -2.8959  0.3023 -0.0544
 2437TIP3   OH228945   6.785   1.324   3.140  0.3293  0.2365  0.2020
 2437TIP3    H128946   6.763   1.411   3.108  0.2964 -0.0347 -0.5401
 2437TIP3    H228947   6.846   1.339   3.212  0.7297  0.8547 -0.2517
 2438TIP3   OH228948   6.253   1.981   3.766 -0.5223  0.1630 -0.2895
 2438TIP3    H128949   6.319   1.944   3.824 -1.0357  0.1768  0.3173
 2438TIP3    H228950   6.191   1.909   3.751 -0.9209  0.4448 -0.0172
 2439TIP3   OH228951   0.970   1.258   8.424 -1.2594 -0.5039  0.6617
 2439TIP3    H128952   0.934   1.296   8.345 -1.3682 -0.8754  0.5289
 2439TIP3    H228953   0.896   1.215   8.466 -1.2442 -0.1342  1.0695
 2440TIP3   OH228954   4.468   5.355   8.511  0.3407  0.3431  0.2774
 2440TIP3    H128955   4.523   5.308   8.574  0.6611 -0.7356 -0.7567
 2440TIP3    H228956   4.503   5.330   8.426 -0.1338  1.7015 -0.3465
 2441TIP3   OH228957   5.531   0.037   3.162  0.2471 -0.6166  0.0402
 2441TIP3    H128958   5.505   0.060   3.251  0.0028  2.9889 -0.7843
 2441TIP3    H228959   5.448   0.020   3.117  0.2787 -1.2008  0.1971
 2442TIP3   OH228960   0.201   3.019   3.135  0.4886 -0.0152  0.2302
 2442TIP3    H128961   0.112   3.028   3.170  0.6592  2.6629  0.1836
 2442TIP3    H228962   0.248   2.969   3.202 -0.8811 -1.0134  0.5018
 2443TIP3   OH228963   4.662   0.612   2.398  0.5031 -0.0159  0.7178
 2443TIP3    H128964   4.752   0.589   2.424  1.5456  1.7451 -1.0627
 2443TIP3    H228965   4.654   0.578   2.309 -0.3701  0.4778  0.6012
 2444TIP3   OH228966   3.091   5.005   8.494 -0.2029  0.1659 -0.1867
 2444TIP3    H128967   3.138   4.932   8.454  2.4595  1.3183  0.6409
 2444TIP3    H228968   3.112   5.081   8.440 -0.0883  0.9435  0.9023
 2445TIP3   OH228969   2.509   1.125   2.443 -0.0671 -0.3998  0.1048
 2445TIP3    H128970   2.511   1.066   2.517 -2.2225 -0.0499  0.4930
 2445TIP3    H228971   2.418   1.123   2.412  0.5872  0.0657 -2.0400
 2446TIP3   OH228972   4.392   2.442   0.945  0.2584 -0.3906 -0.2982
 2446TIP3    H128973   4.401   2.534   0.971  0.6454 -0.9414  1.7301
 2446TIP3    H228974   4.442   2.394   1.011 -3.3383 -2.3578  1.3075
 2447TIP3   OH228975   6.447   1.804   1.894  0.2466  0.3849 -0.3928
 2447TIP3    H128976   6.529   1.767   1.927  0.1720  0.7167  0.1740
 2447TIP3    H228977   6.456   1.800   1.799  0.6427 -0.1916 -0.3371
 2448TIP3   OH228978   6.862   2.080   2.140  0.1053 -0.5770 -0.2945
 2448TIP3    H128979   6.773   2.100   2.109  0.3379  1.5387  0.2944
 2448TIP3    H228980   6.915   2.154   2.111  1.5084 -1.3606  0.1819
 2449TIP3   OH228981   1.640   5.893   2.864 -0.1563 -0.0173  0.4160
 2449TIP3    H128982   1.719   5.883   2.918 -1.9494 -0.1426  3.2039
 2449TIP3    H228983   1.637   5.986   2.843  0.0827  0.2339  1.4216
 2450TIP3   OH228984   5.042   4.977   1.167 -0.0374 -0.2878 -0.1047
 2450TIP3    H128985   5.001   4.924   1.099 -0.1661 -1.7234  1.0434
 2450TIP3    H228986   5.012   4.938   1.250  0.6964  0.9430  0.7823
 2451TIP3   OH228987   1.509   3.598   8.545 -0.0517  0.1567 -1.0129
 2451TIP3    H128988   1.428   3.611   8.594  1.0162  0.5053  0.7645
 2451TIP3    H228989   1.534   3.685   8.515  0.7570  0.4156  0.3267
 2452TIP3   OH228990   6.690   1.460   0.669 -0.6821 -0.2089  0.5296
 2452TIP3    H128991   6.700   1.531   0.606 -0.8850  1.0737  1.8833
 2452TIP3    H228992   6.621   1.404   0.632  0.5962 -0.6104 -1.3192
 2453TIP3   OH228993   1.821   5.717   2.431  0.0584  0.3117  0.1731
 2453TIP3    H128994   1.742   5.686   2.387 -0.0945  0.1461  0.5670
 2453TIP3    H228995   1.820   5.812   2.417  0.5782  0.1464 -1.1090
 2454TIP3   OH228996   1.666   4.486   2.241  0.1686 -0.2071  0.7459
 2454TIP3    H128997   1.744   4.534   2.212 -1.1042  0.7570 -1.3608
 2454TIP3    H228998   1.700   4.407   2.281  2.2941  1.2886  2.1442
 2455TIP3   OH228999   5.438   4.884   2.830 -0.4280  0.1840 -0.2408
 2455TIP3    H129000   5.502   4.950   2.804 -0.9487  0.3917 -1.0294
 2455TIP3    H229001   5.489   4.804   2.840  0.0151  0.4294 -0.4921
 2456TIP3   OH229002   5.350   3.187   2.064 -0.5753 -0.1846  0.1893
 2456TIP3    H129003   5.442   3.160   2.055 -0.5993  0.0293 -0.8627
 2456TIP3    H229004   5.300   3.114   2.029 -0.6851  0.6935 -1.6200
 2457TIP3   OH229005   3.511   1.142   0.452 -0.0939  0.5113  0.1366
 2457TIP3    H129006   3.494   1.158   0.359  0.6002 -0.7804 -0.2435
 2457TIP3    H229007   3.601   1.111   0.455 -0.7608 -1.5734  0.9361
 2458TIP3   OH229008   6.187   4.382   8.630 -0.4279  0.1087  0.6882
 2458TIP3    H129009   6.146   4.295   8.630 -0.7514  0.2388 -0.5266
 2458TIP3    H229010   6.280   4.365   8.613 -0.5033  0.0024  0.3780
 2459TIP3   OH229011   3.877   4.360   8.324  0.2957 -0.1632 -0.1633
 2459TIP3    H129012   3.931   4.383   8.400  1.6162  3.8005 -2.0275
 2459TIP3    H229013   3.928   4.294   8.277  1.2121  0.0022  0.5595
 2460TIP3   OH229014   2.249   6.406   3.466  0.5653  0.1160 -0.1497
 2460TIP3    H129015   2.335   6.387   3.429  0.4212  2.2737 -1.7836
 2460TIP3    H229016   2.203   6.322   3.465  1.9903 -0.6888 -1.0550
 2461TIP3   OH229017   6.037   1.258   8.677 -0.1665  0.3836 -0.2162
 2461TIP3    H129018   6.084   1.303   8.607 -0.0883  0.7601  0.0677
 2461TIP3    H229019   6.077   1.292   8.758 -1.4045  1.2812  0.0631
 2462TIP3   OH229020   1.501   0.632   0.990  0.0561  0.1476 -0.5914
 2462TIP3    H129021   1.489   0.678   0.907 -0.9897 -0.7558 -0.9603
 2462TIP3    H229022   1.550   0.553   0.968 -0.8707 -0.4740 -0.4994
 2463TIP3   OH229023   4.690   4.451   0.591 -0.4775 -0.1439 -0.6107
 2463TIP3    H129024   4.611   4.400   0.576  0.1572 -0.9751 -1.2721
 2463TIP3    H229025   4.708   4.440   0.684 -1.1601  0.0853 -0.4498
 2464TIP3   OH229026   3.103   2.886   1.866  0.2926  0.2513  0.0028
 2464TIP3    H129027   3.028   2.828   1.885  0.6850 -0.6917 -1.2260
 2464TIP3    H229028   3.143   2.849   1.788  0.4407  2.3370 -0.9743
 2465TIP3   OH229029   2.159   0.118   1.810  0.2922  0.3714 -0.7108
 2465TIP3    H129030   2.186   0.107   1.718 -0.5691  1.1337 -1.0705
 2465TIP3    H229031   2.065   0.101   1.809  0.3288  0.1131  0.0901
 2466TIP3   OH229032   0.677   5.956   8.173  0.2303 -0.5013 -0.6292
 2466TIP3    H129033   0.603   5.956   8.113  2.0809 -0.2186 -3.0389
 2466TIP3    H229034   0.664   5.878   8.227 -1.8793 -0.3612 -0.8536
 2467TIP3   OH229035   1.982   4.206   8.448 -0.0250 -0.3778 -0.5241
 2467TIP3    H129036   1.965   4.145   8.375 -0.0994  0.5249 -1.2782
 2467TIP3    H229037   2.001   4.149   8.522  0.3989 -1.3250 -1.3320
 2468TIP3   OH229038   5.463   5.488   0.844  0.3308 -0.0465 -0.0776
 2468TIP3    H129039   5.493   5.397   0.854 -0.1396 -0.1046  1.0145
 2468TIP3    H229040   5.434   5.494   0.753 -1.7234 -1.6616  0.3851
 2469TIP3   OH229041   6.314   2.916   0.504 -0.5687 -0.6790  0.1939
 2469TIP3    H129042   6.332   2.985   0.441 -1.5997 -0.5023  0.0764
 2469TIP3    H229043   6.329   2.835   0.456  1.2646 -0.5661  0.5155
 2470TIP3   OH229044   1.633   4.586   3.515  0.5836  0.0344  0.6906
 2470TIP3    H129045   1.552   4.538   3.531 -0.4472  2.0981  2.2468
 2470TIP3    H229046   1.661   4.616   3.602  0.9825  2.3710 -0.1500
 2471TIP3   OH229047   1.904   4.058   7.994  0.1384 -0.0288 -0.5500
 2471TIP3    H129048   1.925   4.111   7.918  1.7262 -0.1127 -0.1953
 2471TIP3    H229049   1.989   4.032   8.031 -0.5877 -0.8027  0.6795
 2472TIP3   OH229050   3.434   2.053   0.913  0.6502 -0.3553  0.0279
 2472TIP3    H129051   3.493   1.982   0.938  0.4533 -0.6337 -0.3008
 2472TIP3    H229052   3.355   2.038   0.965  1.0883  0.3877  0.9636
 2473TIP3   OH229053   1.823   3.038   2.917 -0.4071  0.5604  0.4012
 2473TIP3    H129054   1.769   3.072   2.989 -0.0849 -0.0217  0.9358
 2473TIP3    H229055   1.873   2.966   2.957  0.3728  0.7444 -0.2114
 2474TIP3   OH229056   0.921   1.877   3.039  0.5460 -0.0440  0.7165
 2474TIP3    H129057   0.852   1.941   3.059  2.0779  1.4692  1.4920
 2474TIP3    H229058   0.891   1.796   3.079 -1.3431  0.2278 -0.0325
 2475TIP3   OH229059   2.573   1.411   1.607 -0.7090  0.0142  0.5167
 2475TIP3    H129060   2.641   1.478   1.597 -1.0841  0.2455 -0.5939
 2475TIP3    H229061   2.495   1.450   1.568 -1.8423  0.2327  2.8560
 2476TIP3   OH229062   1.796   5.279   2.920 -0.5287 -0.0171  0.5489
 2476TIP3    H129063   1.816   5.187   2.905 -0.7865 -0.0784  0.5758
 2476TIP3    H229064   1.869   5.312   2.973 -0.5480 -0.2621  0.7286
 2477TIP3   OH229065   2.519   2.624   0.901  0.6608  1.0626 -0.1361
 2477TIP3    H129066   2.526   2.703   0.955  0.4156  0.5911  0.6140
 2477TIP3    H229067   2.436   2.585   0.928  0.7004  0.6386 -0.6231
 2478TIP3   OH229068   4.421   5.864   0.565  0.0241 -0.2296 -0.1685
 2478TIP3    H129069   4.373   5.947   0.565  0.7830  0.4079 -4.1138
 2478TIP3    H229070   4.511   5.889   0.587 -0.0606 -0.2808  0.2409
 2479TIP3   OH229071   0.650   6.007   0.192  0.4032 -0.2681 -0.1451
 2479TIP3    H129072   0.709   6.065   0.144  2.2506 -2.3941 -0.6222
 2479TIP3    H229073   0.708   5.948   0.240 -1.3710 -1.4246  0.6745
 2480TIP3   OH229074   5.353   1.833   8.198  0.7171  0.0078  0.2426
 2480TIP3    H129075   5.288   1.873   8.141  1.4441 -1.2041 -1.5168
 2480TIP3    H229076   5.324   1.856   8.287 -1.3817  0.5514 -0.5191
 2481TIP3   OH229077   5.882   1.386   1.284  0.2460 -0.1245 -0.1008
 2481TIP3    H129078   5.878   1.479   1.308 -1.7150 -0.2903  0.4046
 2481TIP3    H229079   5.806   1.373   1.227 -1.0897 -1.9155  1.9156
 2482TIP3   OH229080   6.685   4.199   0.057  0.3530 -0.1085  0.3110
 2482TIP3    H129081   6.589   4.204   0.049  0.0532 -1.3786  2.2210
 2482TIP3    H229082   6.712   4.287   0.083 -0.3030  0.2738 -0.2891
 2483TIP3   OH229083   3.984   2.659   2.807  0.1343  0.1161 -0.2309
 2483TIP3    H129084   3.962   2.655   2.900  0.2730 -0.3075 -0.2144
 2483TIP3    H229085   3.900   2.652   2.762  0.0635  0.3588 -0.1381
 2484TIP3   OH229086   1.731   2.738   0.729 -0.1231 -0.5723 -0.6134
 2484TIP3    H129087   1.801   2.752   0.664 -0.7318  0.3717 -1.0920
 2484TIP3    H229088   1.687   2.658   0.700  0.1113 -0.5976 -0.9032
 2485TIP3   OH229089   1.577   0.841   0.750 -0.0793  0.0558  0.3622
 2485TIP3    H129090   1.588   0.750   0.723 -0.6904 -0.9590  3.1306
 2485TIP3    H229091   1.487   0.863   0.724 -0.7847 -1.0112  1.7316
 2486TIP3   OH229092   2.437   3.944   2.584 -0.2843  0.5400  0.0806
 2486TIP3    H129093   2.518   3.988   2.557 -0.3743  0.4996 -0.2458
 2486TIP3    H229094   2.385   3.938   2.505  0.1638 -1.1249 -0.1324
 2487TIP3   OH229095   4.333   2.942   8.098 -0.1402 -0.1373 -0.4834
 2487TIP3    H129096   4.309   2.850   8.101  0.9352 -0.3971  0.7677
 2487TIP3    H229097   4.262   2.984   8.049 -0.9807 -1.5108 -0.4774
 2488TIP3   OH229098   5.143   3.315   1.653 -0.5070 -0.0977 -0.1153
 2488TIP3    H129099   5.201   3.372   1.703 -1.1224 -0.7477  1.3983
 2488TIP3    H229100   5.164   3.334   1.561  0.6973  1.0869  0.3706
 2489TIP3   OH229101   4.836   0.152   3.066 -0.4217  0.0776 -0.4744
 2489TIP3    H129102   4.831   0.245   3.043 -0.0804  0.8817  2.3668
 2489TIP3    H229103   4.910   0.146   3.126 -1.2056 -1.8213  0.3682
 2490TIP3   OH229104   0.874   3.485   0.993  0.4678  0.6105 -0.5379
 2490TIP3    H129105   0.802   3.515   1.049 -0.2043  1.9168 -2.0472
 2490TIP3    H229106   0.851   3.394   0.972 -0.0801  0.6087  0.0301
 2491TIP3   OH229107   6.076   4.786   1.065 -0.0908  0.0095  0.2236
 2491TIP3    H129108   6.042   4.699   1.047 -2.1871  0.7198  0.4825
 2491TIP3    H229109   6.140   4.772   1.136 -0.5057 -1.2925  0.3702
 2492TIP3   OH229110   3.259   0.644   3.125 -0.2597  0.0510  0.2898
 2492TIP3    H129111   3.348   0.618   3.101  0.2108  1.6102  0.2154
 2492TIP3    H229112   3.204   0.607   3.056  0.6720  1.4568 -1.2793
 2493TIP3   OH229113   3.664   6.158   0.633 -0.0784 -0.4165 -0.1815
 2493TIP3    H129114   3.695   6.192   0.716  2.3602  1.3085 -1.6566
 2493TIP3    H229115   3.667   6.063   0.643  1.6135 -0.2647  1.2612
 2494TIP3   OH229116   2.657   1.330   0.380  0.4349 -0.1758  0.4952
 2494TIP3    H129117   2.750   1.311   0.382  0.3608 -1.3144 -2.3203
 2494TIP3    H229118   2.651   1.423   0.357  0.9765 -0.6802 -1.9559
 2495TIP3   OH229119   0.210   4.701   8.733 -0.0078 -0.3311  0.0772
 2495TIP3    H129120   0.261   4.705   8.814 -1.3486 -0.2151  0.9353
 2495TIP3    H229121   0.219   4.610   8.704 -2.0738 -1.2893  2.0997
 2496TIP3   OH229122   5.246   4.497   1.877  0.2410 -0.1341 -0.3312
 2496TIP3    H129123   5.299   4.538   1.945  1.0116 -0.7545 -0.5309
 2496TIP3    H229124   5.203   4.424   1.921  2.0225 -1.5479 -0.8234
 2497TIP3   OH229125   3.368   3.194   1.788  0.3055 -0.3416  0.1010
 2497TIP3    H129126   3.381   3.141   1.709 -1.3590 -1.9658  0.8338
 2497TIP3    H229127   3.286   3.240   1.773  0.6356  0.3427  0.3718
 2498TIP3   OH229128   6.687   3.540   7.732 -0.1643  0.1634 -0.1928
 2498TIP3    H129129   6.656   3.488   7.806  0.7670  1.0707  0.8636
 2498TIP3    H229130   6.697   3.628   7.767  1.1958  0.4150 -1.1617
 2499TIP3   OH229131   1.954   6.148   0.265 -0.7754 -0.3194  0.1844
 2499TIP3    H129132   1.892   6.187   0.203 -3.1470  0.6396  2.9297
 2499TIP3    H229133   1.996   6.223   0.307 -0.9637 -0.8420  1.3429
 2500TIP3   OH229134   1.597   0.570   2.200  0.4966  0.0992  0.0265
 2500TIP3    H129135   1.664   0.613   2.147 -2.4797  3.7381 -1.2477
 2500TIP3    H229136   1.574   0.634   2.267  0.2762 -2.2260  2.3099
 2501TIP3   OH229137   3.057   5.616   2.022 -0.5331 -0.3861 -0.0410
 2501TIP3    H129138   3.097   5.638   2.106 -1.1653 -0.6540  0.3370
 2501TIP3    H229139   2.980   5.564   2.044 -0.3804 -0.9715 -0.8161
 2502TIP3   OH229140   1.323   3.472   0.180 -0.6689 -0.3072  0.3684
 2502TIP3    H129141   1.283   3.404   0.234 -2.7015  0.4590 -0.0681
 2502TIP3    H229142   1.411   3.440   0.162 -0.0972 -0.8707  3.5781
 2503TIP3   OH229143   4.918   0.709   2.515  0.9153  0.3274  0.6877
 2503TIP3    H129144   4.925   0.726   2.421  1.4809 -1.0969  0.4526
 2503TIP3    H229145   5.008   0.692   2.544  0.6070 -0.4265  1.2459
 2504TIP3   OH229146   5.508   5.580   1.979 -0.0164  0.3480 -0.5091
 2504TIP3    H129147   5.497   5.555   1.887  0.3082 -0.0254 -0.4486
 2504TIP3    H229148   5.578   5.646   1.978 -0.9234  1.3324 -0.6768
 2505TIP3   OH229149   3.809   1.371   3.235 -0.0201 -0.1420 -0.4315
 2505TIP3    H129150   3.775   1.453   3.200 -0.2052  0.2026  0.5259
 2505TIP3    H229151   3.819   1.387   3.329  0.3934 -1.0619 -0.3041
 2506TIP3   OH229152   1.084   6.724   1.949 -0.5953  0.8147  0.3181
 2506TIP3    H129153   1.066   6.817   1.956 -0.7324  0.8342 -0.2675
 2506TIP3    H229154   1.179   6.718   1.961 -0.4935  1.1032 -0.2898
 2507TIP3   OH229155   5.440   0.505   2.124  0.4514  0.2752 -0.3292
 2507TIP3    H129156   5.421   0.539   2.036 -0.7111  0.0652 -0.1737
 2507TIP3    H229157   5.405   0.572   2.183  1.7464  0.6993  0.0041
 2508TIP3   OH229158   6.205   2.803   3.568  0.6868  0.0594  0.0240
 2508TIP3    H129159   6.183   2.718   3.531 -3.5951  1.2263 -0.6905
 2508TIP3    H229160   6.160   2.805   3.653  3.8293  0.3830  1.8673
 2509TIP3   OH229161   3.873   2.471   8.260 -1.2044 -0.2509 -0.3011
 2509TIP3    H129162   3.955   2.507   8.293 -0.7816 -1.2630 -0.2135
 2509TIP3    H229163   3.900   2.396   8.206 -2.0061  0.1044 -1.2191
 2510TIP3   OH229164   2.753   2.267   2.007  0.5295  0.1323  0.1676
 2510TIP3    H129165   2.675   2.310   2.044  1.2582 -0.0094  1.9894
 2510TIP3    H229166   2.786   2.329   1.942 -0.1776  0.9599  0.5725
 2511TIP3   OH229167   3.212   1.049   1.191  0.4155  0.2758 -0.2048
 2511TIP3    H129168   3.170   1.113   1.133  0.2878  1.0444  0.7081
 2511TIP3    H229169   3.276   1.004   1.135 -2.3779 -1.8257 -1.9922
 2512TIP3   OH229170   2.979   2.400   2.284 -0.2908  0.1447 -0.4106
 2512TIP3    H129171   3.009   2.489   2.264  0.9142  0.1891  1.3838
 2512TIP3    H229172   2.900   2.412   2.336  1.1513  0.3117  1.8795
 2513TIP3   OH229173   3.375   3.852   8.616 -0.4064 -0.8150 -0.4833
 2513TIP3    H129174   3.470   3.861   8.623 -0.5803  0.9324  0.1335
 2513TIP3    H229175   3.349   3.921   8.555 -1.4967  0.3482  1.1983
 2514TIP3   OH229176   2.369   4.083   3.726 -0.4844  0.6980  0.7298
 2514TIP3    H129177   2.329   4.009   3.770 -0.1083  1.2759  2.1138
 2514TIP3    H229178   2.316   4.159   3.752  0.8920  1.3402  1.8802
 2515TIP3   OH229179   4.925   2.407   1.587 -0.4426  0.0091 -0.0705
 2515TIP3    H129180   4.886   2.356   1.658  1.8356 -0.9300  0.5998
 2515TIP3    H229181   4.918   2.350   1.511  0.1847 -0.4442  0.2007
 2516TIP3   OH229182   5.734   0.577   2.992 -0.0415 -0.0057 -0.0094
 2516TIP3    H129183   5.787   0.505   2.958  0.8678  1.3378 -1.6471
 2516TIP3    H229184   5.795   0.629   3.045 -1.1663 -1.4182  2.8733
 2517TIP3   OH229185   3.633   4.524   2.731 -0.8732  0.2364 -0.1655
 2517TIP3    H129186   3.631   4.530   2.827  0.0968  0.8624 -0.1767
 2517TIP3    H229187   3.683   4.600   2.703  1.6315 -1.5594 -0.9688
 2518TIP3   OH229188   3.049   6.168   3.127 -0.1656 -0.2312 -0.0473
 2518TIP3    H129189   3.121   6.107   3.114 -0.0858  0.1910 -1.8603
 2518TIP3    H229190   3.087   6.242   3.175  0.1360 -0.8146  0.6334
 2519TIP3   OH229191   0.096   1.718   1.167 -0.7119  0.4085 -0.4932
 2519TIP3    H129192   0.184   1.695   1.139  0.0329  1.7511  0.6450
 2519TIP3    H229193   0.040   1.691   1.094  0.4785 -1.5358 -0.7582
 2520TIP3   OH229194   2.580   4.796   0.898  0.4112  0.5835 -0.4517
 2520TIP3    H129195   2.531   4.877   0.886  1.0245  0.9904 -0.2868
 2520TIP3    H229196   2.613   4.801   0.988  0.6965  0.2961 -0.5370
 2521TIP3   OH229197   0.066   4.900   8.578 -0.0651 -0.8943  0.3469
 2521TIP3    H129198   0.105   4.831   8.631  2.1570  0.8528  1.1678
 2521TIP3    H229199   0.102   4.887   8.491  1.1319 -0.2409  0.7272
 2522TIP3   OH229200   2.454   2.201   0.360  0.3246 -0.2112 -0.3557
 2522TIP3    H129201   2.460   2.261   0.285 -0.3619 -0.3392 -0.5167
 2522TIP3    H229202   2.442   2.115   0.320 -1.5870 -0.1049 -0.1001
 2523TIP3   OH229203   4.663   0.447   8.376  0.0357  0.3174  0.3299
 2523TIP3    H129204   4.724   0.384   8.338 -1.6022 -0.6919 -0.7642
 2523TIP3    H229205   4.629   0.496   8.301  0.0656  1.3993  0.9969
 2524TIP3   OH229206   3.646   4.408   1.981  0.2409  0.6460 -0.0573
 2524TIP3    H129207   3.633   4.416   2.076 -0.6925  2.1425 -0.2822
 2524TIP3    H229208   3.659   4.314   1.967 -0.9817  0.2153  1.4020
 2525TIP3   OH229209   1.612   2.335   1.406  0.3248 -0.1564 -0.3371
 2525TIP3    H129210   1.655   2.260   1.365  0.3979 -0.7001  0.6979
 2525TIP3    H229211   1.553   2.296   1.471 -0.3084  0.6569 -0.4058
 2526TIP3   OH229212   0.431   2.507   2.758  0.3531 -0.7404  0.0274
 2526TIP3    H129213   0.443   2.588   2.709  0.7794 -1.6878 -1.4905
 2526TIP3    H229214   0.473   2.524   2.842  1.3532  0.2630 -0.6479
 2527TIP3   OH229215   1.443   1.968   1.812 -0.1447  0.2847 -0.1481
 2527TIP3    H129216   1.437   1.906   1.884 -1.0330  1.1949  0.5887
 2527TIP3    H229217   1.537   1.987   1.804  0.1349 -1.0773 -0.3565
 2528TIP3   OH229218   4.268   0.266   8.565  0.5555 -0.1236  0.1613
 2528TIP3    H129219   4.223   0.187   8.596  1.0326 -0.4349  0.0691
 2528TIP3    H229220   4.234   0.280   8.476 -0.4466  0.4867  0.6225
 2529TIP3   OH229221   6.791   0.908   0.151 -0.1012 -0.2731 -0.2536
 2529TIP3    H129222   6.718   0.912   0.089  0.4379 -0.0849 -0.8851
 2529TIP3    H229223   6.837   0.991   0.140 -0.3254  0.0026  0.8105
 2530TIP3   OH229224   5.616   5.705   0.342 -0.1273  0.1337  0.5432
 2530TIP3    H129225   5.593   5.632   0.399 -0.3554  1.2680  1.9733
 2530TIP3    H229226   5.535   5.725   0.295 -1.1543  1.6732  2.7630
 2531TIP3   OH229227   1.218   3.138   0.803  0.2420 -0.0232  0.1586
 2531TIP3    H129228   1.188   3.219   0.762 -0.6228 -0.3155  0.1885
 2531TIP3    H229229   1.194   3.069   0.740  1.0501 -0.2606  0.0909
 2532TIP3   OH229230   4.304   3.129   8.595 -0.0115  0.0389 -0.0912
 2532TIP3    H129231   4.316   3.058   8.531  1.0283 -0.6671  0.8384
 2532TIP3    H229232   4.224   3.173   8.567  1.4913  1.1190 -3.1446
 2533TIP3   OH229233   0.835   6.783   0.581  0.0427  0.0971 -0.1508
 2533TIP3    H129234   0.842   6.852   0.647  1.4576 -1.4745  1.4346
 2533TIP3    H229235   0.844   6.702   0.631  2.9576 -1.1505 -2.4454
 2534TIP3   OH229236   6.627   0.002   1.476  0.6577  0.0308 -0.3382
 2534TIP3    H129237   6.654   0.064   1.544 -0.3819 -1.3713  1.4272
 2534TIP3    H229238   6.538   0.030   1.452 -0.5001 -1.6738  1.6874
 2535TIP3   OH229239   6.341   5.478   3.446 -0.1145  0.5472 -0.0263
 2535TIP3    H129240   6.372   5.422   3.374  0.5500  1.6869 -0.6425
 2535TIP3    H229241   6.248   5.493   3.425 -0.0957  0.3221 -0.2856
 2536TIP3   OH229242   5.509   4.081   0.663 -0.5841  0.5143  0.1198
 2536TIP3    H129243   5.513   4.175   0.683  0.2773  0.6082 -0.4668
 2536TIP3    H229244   5.561   4.039   0.731 -0.5286  0.5119  0.0762
 2537TIP3   OH229245   0.372   3.813   3.350  0.4147 -0.0957 -0.1530
 2537TIP3    H129246   0.364   3.730   3.303  1.2048  0.0417 -0.5339
 2537TIP3    H229247   0.396   3.787   3.439 -1.3939 -0.3737  0.3019
 2538TIP3   OH229248   6.522   6.490   1.072  0.1602  0.1073 -0.9664
 2538TIP3    H129249   6.432   6.458   1.074  0.7553 -1.7642  1.2461
 2538TIP3    H229250   6.574   6.417   1.039  1.0839  0.3005 -0.0400
 2539TIP3   OH229251   0.562   2.947   8.359  0.0661 -0.5981 -0.6855
 2539TIP3    H129252   0.491   2.896   8.320  0.5074 -0.7995 -1.2486
 2539TIP3    H229253   0.575   3.020   8.298  0.2086 -0.4567 -0.4848
 2540TIP3   OH229254   4.806   0.494   3.572 -0.3488  0.3532  0.3509
 2540TIP3    H129255   4.873   0.493   3.504  0.5400  1.9512  1.1506
 2540TIP3    H229256   4.842   0.551   3.640 -2.1291  0.5004  1.2238
 2541TIP3   OH229257   5.694   5.665   2.318 -0.2361  0.1982 -0.3296
 2541TIP3    H129258   5.774   5.700   2.279  0.6357  0.0188  1.2385
 2541TIP3    H229259   5.708   5.570   2.322 -1.1815 -0.0094 -1.4459
 2542TIP3   OH229260   1.119   2.528   0.833 -0.2692  0.0302 -0.2047
 2542TIP3    H129261   1.049   2.473   0.869 -0.5189  0.3833 -0.1459
 2542TIP3    H229262   1.131   2.495   0.744 -0.8503  0.2791 -0.3799
 2543TIP3   OH229263   0.705   3.352   2.024 -0.4648 -0.0444 -0.1699
 2543TIP3    H129264   0.784   3.404   2.004 -2.1627  1.7494 -2.8478
 2543TIP3    H229265   0.726   3.265   1.991  1.6885 -0.6766  2.5335
 2544TIP3   OH229266   1.641   5.717   1.166  0.1194 -0.0036 -0.2954
 2544TIP3    H129267   1.688   5.801   1.166 -0.8657  0.5797  0.5049
 2544TIP3    H229268   1.597   5.715   1.082 -0.3819  0.6065 -0.0574
 2545TIP3   OH229269   4.334   5.629   2.974 -0.0080  0.2811 -0.3554
 2545TIP3    H129270   4.265   5.686   3.008 -2.2603 -1.2875 -1.9749
 2545TIP3    H229271   4.371   5.588   3.052  0.3886  2.4589  0.6906
 2546TIP3   OH229272   2.541   1.940   3.653 -0.4921 -0.2685 -0.3324
 2546TIP3    H129273   2.485   2.015   3.637 -1.5373 -0.7148  1.1110
 2546TIP3    H229274   2.487   1.864   3.633 -0.0307 -0.6833 -0.0495
 2547TIP3   OH229275   3.993   5.588   2.495  0.3779 -0.0565  0.0382
 2547TIP3    H129276   4.052   5.641   2.550  0.5565  0.1267 -0.3264
 2547TIP3    H229277   3.911   5.585   2.544  0.5089  0.1825  0.2746
 2548TIP3   OH229278   1.873   1.022   1.190 -0.4801  0.0984  0.3414
 2548TIP3    H129279   1.836   0.946   1.145 -0.6863  0.3554  0.0688
 2548TIP3    H229280   1.944   1.051   1.133 -0.9805  0.6489 -0.0176
 2549TIP3   OH229281   3.863   1.735   2.173  0.3862  0.0291  0.2103
 2549TIP3    H129282   3.859   1.741   2.268 -2.0145 -0.0974  0.1701
 2549TIP3    H229283   3.847   1.824   2.142  0.0788 -0.1254 -0.0805
 2550TIP3   OH229284   1.075   6.439   0.390  0.3465 -0.3205  0.5910
 2550TIP3    H129285   1.109   6.522   0.357  1.6822 -1.1690 -0.2363
 2550TIP3    H229286   0.980   6.449   0.386  0.4584  0.4176 -1.5013
 2551TIP3   OH229287   6.583   2.343   8.438 -0.1295 -0.2375 -0.3980
 2551TIP3    H129288   6.571   2.438   8.430 -1.1206 -0.2567  0.6577
 2551TIP3    H229289   6.537   2.306   8.362 -0.0183  0.1071 -0.6352
 2552TIP3   OH229290   3.538   3.559   2.952  0.5339  0.0871 -0.9530
 2552TIP3    H129291   3.548   3.621   2.881 -1.6274  1.5469 -0.0749
 2552TIP3    H229292   3.544   3.473   2.910 -0.4745  0.9025 -2.8664
 2553TIP3   OH229293   5.909   1.788   0.843 -0.3697  0.2115  0.0961
 2553TIP3    H129294   5.887   1.712   0.897 -0.2151  1.0880  1.4360
 2553TIP3    H229295   5.876   1.863   0.893  0.8006  1.1419 -0.4782
 2554TIP3   OH229296   4.276   0.423   2.278 -0.1144 -0.0907 -0.3690
 2554TIP3    H129297   4.183   0.407   2.264  0.0510 -1.1260 -0.3763
 2554TIP3    H229298   4.305   0.465   2.197 -0.3713 -0.7198 -0.7977
 2555TIP3   OH229299   3.059   2.727   2.547 -0.0915  0.1098  0.1212
 2555TIP3    H129300   3.042   2.795   2.612  1.2333 -0.3337  0.9717
 2555TIP3    H229301   3.030   2.646   2.588 -0.2493 -0.0404 -0.2794
 2556TIP3   OH229302   4.820   0.872   1.997 -0.1975 -0.2221  0.1503
 2556TIP3    H129303   4.768   0.797   1.968 -0.0888 -0.1660 -0.1944
 2556TIP3    H229304   4.754   0.935   2.027 -0.3983  0.1867 -1.0753
 2557TIP3   OH229305   2.418   2.870   2.040  0.9478 -0.2311  0.1388
 2557TIP3    H129306   2.351   2.903   2.100  0.6318  1.6924 -1.2041
 2557TIP3    H229307   2.500   2.873   2.091  0.5615  0.5977  0.7201
 2558TIP3   OH229308   2.285   0.783   0.702  0.3828  0.0284 -0.4232
 2558TIP3    H129309   2.269   0.698   0.743 -0.2718  0.8561  1.1345
 2558TIP3    H229310   2.367   0.813   0.741  0.1316  0.5104 -0.2607
 2559TIP3   OH229311   1.674   1.760   3.615 -0.3161  0.0580  0.4465
 2559TIP3    H129312   1.588   1.738   3.578 -1.2490 -0.1694  2.5519
 2559TIP3    H229313   1.655   1.830   3.678  0.8713 -0.6954  1.6792
 2560TIP3   OH229314   3.660   5.617   0.952  0.3833 -0.5418 -0.0438
 2560TIP3    H129315   3.675   5.526   0.925  1.8872 -0.0254 -1.0520
 2560TIP3    H229316   3.746   5.659   0.944  0.1789  0.4872  2.3884
 2561TIP3   OH229317   1.893   2.676   3.767 -0.0316 -0.3206 -0.1060
 2561TIP3    H129318   1.987   2.670   3.754 -0.1626 -0.1267 -1.2467
 2561TIP3    H229319   1.880   2.759   3.812  0.2515  0.2424 -1.0457
 2562TIP3   OH229320   0.248   6.600   2.673 -0.0787  0.4012 -0.5756
 2562TIP3    H129321   0.193   6.678   2.669  0.7243  1.0077 -0.0043
 2562TIP3    H229322   0.302   6.605   2.594  0.6323  0.9400 -0.0712
 2563TIP3   OH229323   1.073   5.008   1.288  0.5280 -0.2220 -0.3022
 2563TIP3    H129324   1.035   4.964   1.212  1.2412  1.2243 -1.5618
 2563TIP3    H229325   1.052   5.101   1.274 -3.2394 -0.1949  3.5746
 2564TIP3   OH229326   6.350   3.268   3.835 -0.3606  0.7895 -0.5010
 2564TIP3    H129327   6.267   3.309   3.856  0.3480  1.2087  1.8869
 2564TIP3    H229328   6.391   3.326   3.772 -0.9875  1.7262 -0.0674
 2565TIP3   OH229329   1.261   3.201   8.592  0.3962  0.1133 -0.0531
 2565TIP3    H129330   1.234   3.166   8.507  2.7404  0.2698 -0.9484
 2565TIP3    H229331   1.180   3.229   8.634 -0.7348  1.0794 -2.7121
 2566TIP3   OH229332   2.890   1.619   1.105 -0.1789 -0.2135 -0.3798
 2566TIP3    H129333   2.819   1.639   1.165  0.7624  1.2024  0.3289
 2566TIP3    H229334   2.847   1.600   1.022 -1.4049  0.0501  0.1795
 2567TIP3   OH229335   6.669   2.988   2.051  0.1383  0.2103  0.0324
 2567TIP3    H129336   6.668   3.003   2.146 -0.2108  0.3746  0.0058
 2567TIP3    H229337   6.615   3.059   2.015 -2.0961 -1.3969 -0.0411
 2568TIP3   OH229338   1.190   3.863   2.348  0.5828 -0.1266 -0.1247
 2568TIP3    H129339   1.114   3.898   2.395  0.2184 -0.7423 -0.2541
 2568TIP3    H229340   1.241   3.817   2.415  0.1479 -0.8622 -0.2867
 2569TIP3   OH229341   4.048   4.019   3.438 -0.4342  0.2157 -0.5472
 2569TIP3    H129342   3.981   4.023   3.369  0.9294 -0.2505 -1.9622
 2569TIP3    H229343   4.114   4.083   3.410  0.9592 -1.1853 -0.6090
 2570TIP3   OH229344   5.921   2.150   0.000  0.6711  0.6692  0.1656
 2570TIP3    H129345   5.864   2.193  -0.063  0.0469  1.7782  1.4311
 2570TIP3    H229346   5.883   2.063   0.013  0.3293  0.7421 -0.3520
 2571TIP3   OH229347   1.583   0.013   2.086 -0.0188  0.2061 -0.2853
 2571TIP3    H129348   1.671   0.049   2.091  0.8192 -1.8876  2.0992
 2571TIP3    H229349   1.539   0.045   2.165 -0.1593 -1.5883  0.4172
 2572TIP3   OH229350   5.991   0.002   1.166  0.1190 -0.6284 -0.3838
 2572TIP3    H129351   5.981   0.092   1.197 -0.5404  0.0222 -2.3642
 2572TIP3    H229352   5.915  -0.014   1.110  0.5671 -2.2024 -0.6083
 2573TIP3   OH229353   2.562   6.326   1.766  0.1668 -0.2188  0.4124
 2573TIP3    H129354   2.561   6.352   1.674 -0.4294 -1.8518 -0.0879
 2573TIP3    H229355   2.607   6.242   1.767  0.4622 -0.0690  1.6728
 2574TIP3   OH229356   2.035   3.448   8.460  0.1157  0.1608  0.7266
 2574TIP3    H129357   1.964   3.509   8.441  0.6667  0.4887 -0.4301
 2574TIP3    H229358   2.004   3.364   8.426  0.1752  0.2567  0.4255
 2575TIP3   OH229359   2.900   1.997   3.599 -0.2828  0.5325  0.4070
 2575TIP3    H129360   2.930   1.929   3.538 -1.0263  0.1542  0.4516
 2575TIP3    H229361   2.854   1.949   3.668 -0.9260  1.0859  0.3748
 2576TIP3   OH229362   5.701   6.394   0.776 -1.0591  0.0770  0.0795
 2576TIP3    H129363   5.616   6.352   0.792 -1.2986  0.8326  0.8670
 2576TIP3    H229364   5.679   6.486   0.757 -0.4206  0.2469  0.1426
 2577TIP3   OH229365   0.714   3.011   0.777  0.6215  0.1295  0.4687
 2577TIP3    H129366   0.688   2.919   0.771  0.4530  0.1515  0.8299
 2577TIP3    H229367   0.666   3.054   0.706 -0.6349  0.2375  1.3578
 2578TIP3   OH229368   3.915   1.549   8.257  0.6564 -0.6566 -0.3169
 2578TIP3    H129369   3.827   1.545   8.218 -0.3159 -0.6571  1.7325
 2578TIP3    H229370   3.963   1.479   8.215 -0.8571 -1.7381 -0.3454
 2579TIP3   OH229371   4.885   1.050   3.195  0.3236 -0.1143 -0.6583
 2579TIP3    H129372   4.956   1.018   3.139  0.4368  0.0175 -0.5915
 2579TIP3    H229373   4.860   0.973   3.247  0.3468 -0.1882 -0.7559
 2580TIP3   OH229374   3.710   2.685   1.088 -0.1515  0.1709 -0.5700
 2580TIP3    H129375   3.769   2.614   1.061  0.9179  0.2676  1.3114
 2580TIP3    H229376   3.756   2.765   1.062  1.5454  0.3211  2.4523
 2581TIP3   OH229377   6.494   5.054   0.759 -0.3086  0.1752  0.4470
 2581TIP3    H129378   6.479   5.135   0.711 -1.5377 -0.9180 -1.1127
 2581TIP3    H229379   6.407   5.026   0.786  0.0321 -0.9281  0.4339
 2582TIP3   OH229380   4.990   2.880   3.986  0.4358  0.1033  0.0095
 2582TIP3    H129381   4.988   2.909   4.077  0.9928 -1.1781  0.4555
 2582TIP3    H229382   4.914   2.922   3.945  1.3595  2.3861  0.5063
 2583TIP3   OH229383   5.545   2.906   0.383 -0.1262  0.1340 -0.4141
 2583TIP3    H129384   5.604   2.941   0.450  0.5245 -2.4099  0.4683
 2583TIP3    H229385   5.597   2.838   0.339 -1.3234  0.1463 -1.9182
 2584TIP3   OH229386   3.460   0.914   1.788 -0.2386 -0.1138 -0.1699
 2584TIP3    H129387   3.430   0.979   1.851  0.9797  0.9597 -0.6657
 2584TIP3    H229388   3.553   0.932   1.776 -0.3249 -0.6124 -1.8775
 2585TIP3   OH229389   1.653   6.632   4.319 -0.5578 -0.3799 -0.3174
 2585TIP3    H129390   1.713   6.565   4.352 -2.0827 -0.4157  2.7338
 2585TIP3    H229391   1.702   6.714   4.328 -0.5676 -0.5136  1.2253
 2586TIP3   OH229392   2.131   3.883   8.069  0.1570 -0.4183 -0.3133
 2586TIP3    H129393   2.181   3.944   8.123  1.3450 -2.2959  0.8211
 2586TIP3    H229394   2.196   3.842   8.013 -0.5906 -0.7814 -0.9399
 2587TIP3   OH229395   0.655   2.354   1.642 -0.2888  0.0046  0.3226
 2587TIP3    H129396   0.589   2.353   1.573 -1.8228  0.0076  1.7320
 2587TIP3    H229397   0.610   2.391   1.718  0.9257 -1.2240  1.7116
 2588TIP3   OH229398   0.604   4.404   0.479  0.2376  0.5338  0.0224
 2588TIP3    H129399   0.697   4.427   0.484 -0.1487  2.1757  0.3591
 2588TIP3    H229400   0.595   4.326   0.533  1.3538  0.5859  0.3061
 2589TIP3   OH229401   3.099   5.087   0.185 -0.5117  0.2601 -0.1877
 2589TIP3    H129402   3.181   5.082   0.135 -0.3310  2.5736 -0.2260
 2589TIP3    H229403   3.031   5.059   0.124  0.0183  0.3601 -0.8333
 2590TIP3   OH229404   3.160   1.342   7.985 -0.7114  0.4344 -0.1463
 2590TIP3    H129405   3.150   1.287   8.063 -0.1582  1.6427  0.8029
 2590TIP3    H229406   3.198   1.283   7.919  0.2074 -0.2528  0.9537
 2591TIP3   OH229407   2.740   0.208   1.051  0.1127  0.1259 -0.5555
 2591TIP3    H129408   2.744   0.113   1.039 -0.1518 -0.3797  2.5938
 2591TIP3    H229409   2.646   0.227   1.058  0.2130  0.2986  0.5707
 2592TIP3   OH229410   5.665   0.393   3.324 -0.6265  0.3945  0.0197
 2592TIP3    H129411   5.635   0.358   3.408  0.9650 -0.7542  0.1331
 2592TIP3    H229412   5.738   0.451   3.346 -1.6044  1.8533 -0.4059
 2593TIP3   OH229413   1.834   0.109   1.349  1.0852 -0.1172 -0.4351
 2593TIP3    H129414   1.824   0.016   1.328  0.2537 -0.2748  0.5897
 2593TIP3    H229415   1.919   0.114   1.392  0.9197 -0.5010 -0.0474
 2594TIP3   OH229416   4.028   4.708   0.208 -0.1297  0.2495 -0.5111
 2594TIP3    H129417   4.072   4.627   0.185  2.2332  0.8251  1.5596
 2594TIP3    H229418   4.001   4.696   0.299 -0.8532  1.3479 -0.5554
 2595TIP3   OH229419   6.001   3.289   0.219  0.3832  0.6964  0.4262
 2595TIP3    H129420   6.083   3.264   0.176 -0.3538  1.7113 -1.7131
 2595TIP3    H229421   5.941   3.217   0.200 -0.6418  2.1315 -2.5279
 2596TIP3   OH229422   0.428   5.701   3.310  0.5917  0.3092  0.3036
 2596TIP3    H129423   0.362   5.693   3.241  0.2870  2.4200  0.2894
 2596TIP3    H229424   0.484   5.624   3.298  1.5765  1.3805 -3.3941
 2597TIP3   OH229425   5.242   3.776   0.404 -0.6764  0.0969 -0.6322
 2597TIP3    H129426   5.317   3.824   0.439 -0.7600  0.3135 -0.7426
 2597TIP3    H229427   5.242   3.692   0.450 -1.5366  0.8533  0.8240
 2598TIP3   OH229428   2.190   4.604   2.100 -0.3680  0.0118  0.6017
 2598TIP3    H129429   2.262   4.655   2.064 -0.5537 -1.3542 -1.9433
 2598TIP3    H229430   2.182   4.634   2.191  1.5504  2.1671  0.1458
 2599TIP3   OH229431   0.918   4.511   3.212 -0.3598 -0.3251 -0.1754
 2599TIP3    H129432   0.953   4.477   3.295  0.0870  0.2532 -0.1181
 2599TIP3    H229433   0.825   4.491   3.215 -0.1170 -1.5257 -0.1397
 2600TIP3   OH229434   3.873   5.319   0.531 -0.3767 -0.5690  0.0882
 2600TIP3    H129435   3.821   5.365   0.464  0.9449  0.7162 -0.1026
 2600TIP3    H229436   3.817   5.320   0.609 -0.1236  2.1387  0.3261
 2601TIP3   OH229437   2.668   6.466   4.147  0.5451  0.4614  0.0601
 2601TIP3    H129438   2.604   6.496   4.211  0.3306 -1.0132  0.5739
 2601TIP3    H229439   2.668   6.534   4.080 -0.0537  1.4782  1.0563
 2602TIP3   OH229440   6.417   0.873   1.635 -0.3760  0.0205  0.4833
 2602TIP3    H129441   6.461   0.941   1.583 -1.4430  1.5158  1.4504
 2602TIP3    H229442   6.478   0.799   1.633  0.6841  0.8637 -0.8913
 2603TIP3   OH229443   1.611   5.422   2.765  0.3013  0.6401 -0.0703
 2603TIP3    H129444   1.624   5.436   2.671 -1.9007  0.9953 -0.3621
 2603TIP3    H229445   1.674   5.353   2.787 -0.4690 -0.8706 -2.2158
 2604TIP3   OH229446   1.962   0.980   2.135  0.2694  0.4135  0.7906
 2604TIP3    H129447   1.948   0.963   2.228 -1.4636  1.3603  0.7439
 2604TIP3    H229448   1.900   0.922   2.091  1.1293 -0.0756  0.2020
 2605TIP3   OH229449   5.124   3.332   8.562  0.0635 -0.3444 -0.4823
 2605TIP3    H129450   5.214   3.363   8.570  0.1554 -0.7887  0.3443
 2605TIP3    H229451   5.070   3.409   8.582  0.2845 -0.5789  1.1055
 2606TIP3   OH229452   2.106   4.291   0.630 -0.2186 -0.0525  0.7131
 2606TIP3    H129453   2.124   4.198   0.616 -1.7382 -0.1474 -1.1361
 2606TIP3    H229454   2.096   4.327   0.541  0.1949  1.8597  1.3829
 2607TIP3   OH229455   1.255   4.112   2.479 -0.4850 -0.1239  0.0884
 2607TIP3    H129456   1.277   4.051   2.409 -1.1058  0.3994 -0.5767
 2607TIP3    H229457   1.199   4.178   2.437  0.0156  0.7983  0.8233
 2608TIP3   OH229458   1.897   1.625   0.528  0.0389 -0.0704  0.5530
 2608TIP3    H129459   1.818   1.676   0.508 -0.6031 -0.5790  1.6735
 2608TIP3    H229460   1.969   1.681   0.499 -0.6980  0.8761  0.4758
 2609TIP3   OH229461   5.889   6.177   2.503  0.6401 -0.2278 -0.1715
 2609TIP3    H129462   5.864   6.085   2.515  1.2247 -0.3878 -0.1382
 2609TIP3    H229463   5.822   6.212   2.444  0.5214 -0.7307 -0.3480
 2610TIP3   OH229464   3.762   6.346   2.598  0.3277  0.3989 -0.3748
 2610TIP3    H129465   3.824   6.290   2.552  0.5880 -0.1082  0.5844
 2610TIP3    H229466   3.814   6.421   2.627  0.7533 -0.5079  1.3187
 2611TIP3   OH229467   4.522   3.090   1.518  0.1103  0.1200 -0.5654
 2611TIP3    H129468   4.611   3.056   1.514  0.1357  0.1359 -0.1666
 2611TIP3    H229469   4.484   3.048   1.595 -0.6764 -0.9518 -1.4973
 2612TIP3   OH229470   1.558   2.614   2.917  0.2213 -0.1810 -0.6117
 2612TIP3    H129471   1.618   2.638   2.988 -1.8688  1.5031  0.7355
 2612TIP3    H229472   1.611   2.561   2.858  2.5798 -0.1057  1.2545
 2613TIP3   OH229473   2.931   4.016   1.183 -0.1919  0.2149  0.2586
 2613TIP3    H129474   3.005   4.038   1.127 -1.4888  1.1299 -1.1659
 2613TIP3    H229475   2.858   4.001   1.123 -1.6211  1.1370  1.6842
 2614TIP3   OH229476   0.320   3.296   0.268  0.0107 -0.2285 -0.3525
 2614TIP3    H129477   0.266   3.227   0.231 -0.5252 -0.8574  1.4843
 2614TIP3    H229478   0.288   3.306   0.358 -0.2191  2.7106 -0.6470
 2615TIP3   OH229479   5.764   6.482   7.840 -0.2920 -0.0528  0.1459
 2615TIP3    H129480   5.727   6.553   7.892  1.7234  0.7292  0.5838
 2615TIP3    H229481   5.791   6.416   7.903  0.1199 -0.0961 -0.0707
 2616TIP3   OH229482   4.632   0.245   0.673 -0.1069 -0.0655  1.1192
 2616TIP3    H129483   4.565   0.311   0.690  0.0053  0.5085 -0.5124
 2616TIP3    H229484   4.696   0.256   0.744 -0.6120  0.8678  1.4375
 2617TIP3   OH229485   4.612   0.725   1.925 -0.0426  0.6328 -0.2105
 2617TIP3    H129486   4.613   0.704   1.831 -1.1551  0.8939 -0.2885
 2617TIP3    H229487   4.535   0.780   1.937  1.1078  2.1686  0.5386
 2618TIP3   OH229488   2.533   5.806   1.383 -0.0767  0.4515  0.5319
 2618TIP3    H129489   2.462   5.870   1.378 -0.3287  0.1160 -0.6304
 2618TIP3    H229490   2.523   5.753   1.303  1.5364  0.4626  0.2775
 2619TIP3   OH229491   2.230   0.502   0.685 -0.1685 -0.1233 -0.1311
 2619TIP3    H129492   2.228   0.428   0.746 -1.3027  0.5721  0.7076
 2619TIP3    H229493   2.323   0.523   0.677  0.0378 -0.5097  1.0147
 2620TIP3   OH229494   1.517   0.987   2.461 -0.1434  0.0607 -0.3819
 2620TIP3    H129495   1.579   1.057   2.478 -0.7203  0.4265  0.2676
 2620TIP3    H229496   1.523   0.930   2.538  0.3281 -0.6063 -0.9085
 2621TIP3   OH229497   2.442   6.335   8.427 -0.1206  0.5200 -0.2095
 2621TIP3    H129498   2.465   6.263   8.368 -1.4808 -0.3800  0.3214
 2621TIP3    H229499   2.447   6.413   8.373  1.6540  0.1016 -0.7397
 2622TIP3   OH229500   3.340   1.001   2.034  0.7235  0.0188 -0.4926
 2622TIP3    H129501   3.405   0.946   2.078  0.5443 -0.7506 -1.1791
 2622TIP3    H229502   3.259   0.986   2.084  0.7535 -0.0854 -0.4745
 2623TIP3   OH229503   5.733   2.482   7.836  0.0517 -0.2356  0.3167
 2623TIP3    H129504   5.737   2.542   7.910  1.1824 -2.3159  2.0716
 2623TIP3    H229505   5.817   2.492   7.793  0.3476 -0.6953  0.7684
 2624TIP3   OH229506   5.376   1.397   1.125  0.3199 -0.3599  0.0808
 2624TIP3    H129507   5.335   1.401   1.039 -1.4731  2.3965  0.9169
 2624TIP3    H229508   5.319   1.340   1.176 -0.7569  0.8802  0.3424
 2625TIP3   OH229509   6.483   0.485   2.258  0.4427 -0.2035 -0.1589
 2625TIP3    H129510   6.464   0.467   2.350  0.3367  1.7505  0.2453
 2625TIP3    H229511   6.578   0.493   2.255  0.3596  0.9485  0.0413
 2626TIP3   OH229512   4.226   4.261   2.093  0.2260 -0.1121  0.2669
 2626TIP3    H129513   4.209   4.178   2.138 -0.2661 -0.3220 -0.2957
 2626TIP3    H229514   4.142   4.284   2.052  1.2561 -1.2907 -2.7894
 2627TIP3   OH229515   1.812   4.950   3.691 -0.4774 -0.6654  0.1350
 2627TIP3    H129516   1.779   5.015   3.753 -1.2065 -0.9290  0.0301
 2627TIP3    H229517   1.903   4.937   3.717 -0.5897 -0.2908  0.7402
 2628TIP3   OH229518   6.130   5.635   0.410 -0.1896 -0.6279  0.2895
 2628TIP3    H129519   6.099   5.726   0.412 -2.4129 -1.3499  0.2993
 2628TIP3    H229520   6.192   5.630   0.482 -1.3774  0.4452  1.4414
 2629TIP3   OH229521   4.489   2.844   8.562  0.4342  0.0220  0.0023
 2629TIP3    H129522   4.401   2.841   8.524 -0.5644  0.3860  2.1476
 2629TIP3    H229523   4.542   2.886   8.495 -1.7745  3.0519 -0.0870
 2630TIP3   OH229524   5.302   6.528   1.310  0.0770  0.3306 -0.5244
 2630TIP3    H129525   5.334   6.610   1.272 -2.1093  1.6401  0.2208
 2630TIP3    H229526   5.208   6.528   1.289  0.2135 -2.7108 -1.6923
 2631TIP3   OH229527   2.906   5.746   1.473 -0.6809 -0.0168  0.1646
 2631TIP3    H129528   2.874   5.679   1.534 -0.0925  0.6738  1.2577
 2631TIP3    H229529   2.860   5.826   1.499 -2.4268 -0.2183 -2.0122
 2632TIP3   OH229530   4.710   4.485   2.947 -0.3789  0.5729  0.3276
 2632TIP3    H129531   4.744   4.524   3.028  0.8704 -1.3971  0.8440
 2632TIP3    H229532   4.788   4.471   2.893 -0.7260 -1.1196  0.1917
 2633TIP3   OH229533   2.341   6.304   2.561 -0.5201 -0.0481 -0.0894
 2633TIP3    H129534   2.369   6.392   2.533 -1.7168  0.3233 -0.1822
 2633TIP3    H229535   2.268   6.320   2.620  1.4337 -0.8677  2.7338
 2634TIP3   OH229536   4.652   5.065   0.181  0.2377  0.1169  0.2243
 2634TIP3    H129537   4.645   4.976   0.215  2.1705  0.0512  0.5800
 2634TIP3    H229538   4.745   5.087   0.192  0.0132  1.7641 -0.8834
 2635TIP3   OH229539   0.614   1.779   1.467  0.1915  0.1428  0.6342
 2635TIP3    H129540   0.620   1.814   1.556 -1.1593  0.2972  0.6849
 2635TIP3    H229541   0.602   1.685   1.479  1.8279 -0.1095  0.5446
 2636TIP3   OH229542   4.373   0.965   8.704  0.5086 -0.8345  0.2328
 2636TIP3    H129543   4.320   0.940   8.629  0.6148  0.4882 -0.3065
 2636TIP3    H229544   4.388   0.883   8.751 -0.3414 -1.5346 -0.6715
 2637TIP3   OH229545   0.520   5.256   1.009  0.0524  0.0423  0.2165
 2637TIP3    H129546   0.509   5.190   1.077  1.6656 -2.3698 -1.7040
 2637TIP3    H229547   0.614   5.276   1.010 -0.2564  1.5962  0.0905
 2638TIP3   OH229548   5.834   1.396   2.179  0.0449  0.1277 -0.4839
 2638TIP3    H129549   5.856   1.350   2.261 -0.5542 -0.6727 -0.7600
 2638TIP3    H229550   5.750   1.438   2.197  0.0682  0.2182 -0.5867
 2639TIP3   OH229551   0.196   5.712   0.471  0.2306  0.5396 -0.1037
 2639TIP3    H129552   0.175   5.619   0.481 -0.6470  0.6909 -0.5368
 2639TIP3    H229553   0.233   5.719   0.383 -0.2134  0.6930 -0.2782
 2640TIP3   OH229554   1.079   0.548   3.109 -0.2795  0.5933 -0.3067
 2640TIP3    H129555   1.127   0.474   3.147 -0.8944  0.1263 -0.4278
 2640TIP3    H229556   0.991   0.541   3.145  0.3783  3.0312  2.1073
 2641TIP3   OH229557   1.830   3.085   1.582 -0.5488 -0.5505  0.1772
 2641TIP3    H129558   1.871   3.148   1.523 -2.0866  0.4410  0.0969
 2641TIP3    H229559   1.746   3.064   1.541 -1.1538 -0.7157  1.4372
 2642TIP3   OH229560   4.127   2.601   3.292 -0.1734 -0.1413 -0.2579
 2642TIP3    H129561   4.162   2.538   3.228  0.0298  0.1351 -0.4199
 2642TIP3    H229562   4.039   2.620   3.260 -0.8176 -1.4902  0.6144
 2643TIP3   OH229563   4.405   0.156   1.967 -0.2637  0.3052  0.0593
 2643TIP3    H129564   4.344   0.129   2.036  1.0075 -0.2490  0.9975
 2643TIP3    H229565   4.353   0.213   1.911 -1.7765 -0.5032  0.5718
 2644TIP3   OH229566   1.164   1.984   2.708 -0.2936 -0.6804 -0.4240
 2644TIP3    H129567   1.207   1.960   2.626  0.4835  1.5647 -0.7430
 2644TIP3    H229568   1.073   2.000   2.683 -0.1329 -0.3224 -0.7812
 2645TIP3   OH229569   6.623   3.012   2.333  0.4149  0.1306  0.4519
 2645TIP3    H129570   6.670   2.991   2.414  2.9218  0.8746 -0.7232
 2645TIP3    H229571   6.558   2.942   2.325  0.3431 -0.1802  2.8776
 2646TIP3   OH229572   2.115   1.492   2.358 -0.7219  0.1760 -0.8344
 2646TIP3    H129573   2.154   1.520   2.441  0.2151 -0.5374 -1.0224
 2646TIP3    H229574   2.055   1.422   2.382 -0.1116 -0.3437 -0.7925
 2647TIP3   OH229575   1.386   3.889   1.206 -0.4035  0.8147 -0.2176
 2647TIP3    H129576   1.357   3.800   1.185 -0.2752  0.1143  2.2850
 2647TIP3    H229577   1.459   3.905   1.145  0.0739 -1.0969 -0.2269
 2648TIP3   OH229578   6.323   2.326   2.987  0.0101  0.2287  0.1851
 2648TIP3    H129579   6.281   2.342   2.903  0.8643 -1.2365 -0.5662
 2648TIP3    H229580   6.413   2.302   2.965 -0.1442 -1.7337  1.3603
 2649TIP3   OH229581   3.492   3.787   1.928  0.2645  0.1752 -0.0684
 2649TIP3    H129582   3.411   3.810   1.973  0.0328  0.2392 -0.5114
 2649TIP3    H229583   3.515   3.701   1.962 -0.5596 -0.3076 -0.7064
 2650TIP3   OH229584   0.548   2.671   8.496 -0.2422 -0.1960  0.4679
 2650TIP3    H129585   0.560   2.747   8.439 -0.2441 -0.2866  0.3455
 2650TIP3    H229586   0.615   2.609   8.467  0.7615  0.3436  1.5582
 2651TIP3   OH229587   4.460   6.379   2.400  0.0129  0.2468 -0.2238
 2651TIP3    H129588   4.507   6.296   2.406 -0.5650 -0.2941 -2.4093
 2651TIP3    H229589   4.527   6.446   2.411  0.6583 -0.4840  0.4461
 2652TIP3   OH229590   0.475   2.693   2.549  0.4788  0.2701 -0.2667
 2652TIP3    H129591   0.526   2.675   2.470  0.1891  0.3691 -0.4808
 2652TIP3    H229592   0.396   2.736   2.517  0.2963  0.1903  0.0671
 2653TIP3   OH229593   1.883   4.747   1.870  0.5015  0.3794 -0.1138
 2653TIP3    H129594   1.849   4.661   1.844  1.6080  0.3304 -1.5945
 2653TIP3    H229595   1.820   4.809   1.835 -0.8866  0.1814  1.9180
 2654TIP3   OH229596   1.484   3.940   1.447 -0.1047 -0.3676 -0.1996
 2654TIP3    H129597   1.540   4.016   1.431  1.1928 -0.6950  2.2090
 2654TIP3    H229598   1.445   3.920   1.363  2.0497  1.0017 -1.6207
 2655TIP3   OH229599   5.326   0.943   2.344  0.2909 -0.1343 -0.0526
 2655TIP3    H129600   5.410   0.899   2.329  0.4287  0.4415 -1.0739
 2655TIP3    H229601   5.323   1.011   2.277 -0.5794  0.4596  0.5706
 2656TIP3   OH229602   3.680   2.254   8.051 -0.2442 -0.2357  0.1519
 2656TIP3    H129603   3.636   2.215   7.975 -0.0834  1.4158 -0.8375
 2656TIP3    H229604   3.733   2.325   8.015 -0.2466  0.6816  1.8216
 2657TIP3   OH229605   4.418   6.052   1.095  0.7337  0.0426 -0.1221
 2657TIP3    H129606   4.387   6.038   1.005 -1.5795  0.2905  0.5773
 2657TIP3    H229607   4.373   5.986   1.147  1.7628  0.1330  0.9330
 2658TIP3   OH229608   3.627   4.102   1.342  0.2954 -0.3648 -0.0167
 2658TIP3    H129609   3.595   4.015   1.318 -0.4349 -0.3752  0.9031
 2658TIP3    H229610   3.656   4.092   1.433 -0.9937  0.6374  0.5382
 2659TIP3   OH229611   0.335   5.152   0.149 -0.3496 -0.4090  0.0784
 2659TIP3    H129612   0.362   5.194   0.231  1.4673  0.0242 -0.7063
 2659TIP3    H229613   0.304   5.065   0.176 -0.3674 -0.0496  1.2779
 2660TIP3   OH229614   1.892   3.468   1.883  0.0648  0.1269  0.3397
 2660TIP3    H129615   1.912   3.460   1.977  0.7865 -1.3578  0.0827
 2660TIP3    H229616   1.968   3.431   1.839 -0.5894  0.1221 -0.8342
 2661TIP3   OH229617   2.397   2.275   2.429 -0.5299 -0.2070  0.3776
 2661TIP3    H129618   2.461   2.347   2.436  0.5895 -1.0267 -0.8325
 2661TIP3    H229619   2.312   2.319   2.424  0.0164  0.9707  0.9133
 2662TIP3   OH229620   2.606   0.302   2.953 -0.1633 -0.5019  0.3237
 2662TIP3    H129621   2.641   0.253   2.878  0.7116 -0.0912  0.4544
 2662TIP3    H229622   2.545   0.364   2.915 -1.3698 -1.7309  0.1584
 2663TIP3   OH229623   1.673   6.758   3.717  0.5174 -0.3273  0.8357
 2663TIP3    H129624   1.585   6.764   3.681  1.2472  1.8549 -0.7882
 2663TIP3    H229625   1.664   6.788   3.807 -0.0302  2.9126 -0.1589
 2664TIP3   OH229626   6.125   5.454   3.024 -0.5494 -0.1800 -0.4462
 2664TIP3    H129627   6.156   5.521   3.085 -0.3301 -1.1759  0.5775
 2664TIP3    H229628   6.204   5.408   2.997 -0.7720 -0.4982 -0.5556
 2665TIP3   OH229629   4.579   2.257   1.534 -0.1079  0.0138 -0.5548
 2665TIP3    H129630   4.573   2.313   1.457 -0.6189 -2.6381 -2.6075
 2665TIP3    H229631   4.497   2.208   1.534 -0.5812  0.6504  2.3517
 2666TIP3   OH229632   3.648   1.394   2.432  0.1850 -0.6241  0.0114
 2666TIP3    H129633   3.701   1.412   2.354  2.5863 -0.5205  1.5689
 2666TIP3    H229634   3.655   1.299   2.444  0.0880 -0.5995  0.2621
 2667TIP3   OH229635   6.410   3.161   2.591  0.1006 -0.0465  0.2153
 2667TIP3    H129636   6.316   3.167   2.573  0.2514  2.1692 -0.1582
 2667TIP3    H229637   6.428   3.067   2.595 -2.3064 -0.5524  1.2914
 2668TIP3   OH229638   2.887   1.198   8.591 -0.5157  0.3676 -0.0413
 2668TIP3    H129639   2.942   1.256   8.538  1.6495 -1.1275  0.4479
 2668TIP3    H229640   2.848   1.137   8.528  0.4453 -0.1356 -0.1715
 2669TIP3   OH229641   1.849   6.501   2.022  0.3289  0.1649 -0.0910
 2669TIP3    H129642   1.785   6.483   1.954  0.1759  1.4650 -0.3216
 2669TIP3    H229643   1.843   6.427   2.082 -0.6038 -0.2543 -0.6950
 2670TIP3   OH229644   3.417   0.644   1.337  0.0197  0.6669  0.0567
 2670TIP3    H129645   3.325   0.665   1.320 -0.6194 -1.7117  0.3124
 2670TIP3    H229646   3.432   0.673   1.427 -0.1183  2.0910 -0.3544
 2671TIP3   OH229647   2.282   6.001   8.267 -0.2146 -0.1301  0.1193
 2671TIP3    H129648   2.352   5.951   8.226 -1.2654 -0.2569 -1.6396
 2671TIP3    H229649   2.290   5.982   8.360  0.8977 -1.6326 -0.2487
 2672TIP3   OH229650   1.075   1.248   2.424 -0.1336  0.5672 -0.3207
 2672TIP3    H129651   0.988   1.219   2.395  0.6164 -2.0665 -0.1368
 2672TIP3    H229652   1.128   1.248   2.344  0.0260  0.9618 -0.2209
 2673TIP3   OH229653   6.486   0.631   3.034 -0.5056 -0.4720  0.5250
 2673TIP3    H129654   6.425   0.673   2.974 -0.9928  0.3476  1.5702
 2673TIP3    H229655   6.434   0.610   3.111  0.5030  0.2974  1.4591
 2674TIP3   OH229656   6.048   1.848   1.219 -0.2175  0.2600 -0.0092
 2674TIP3    H129657   6.130   1.842   1.170 -0.9180 -1.2695 -1.0735
 2674TIP3    H229658   6.046   1.938   1.252  1.1085  0.8144 -1.3337
 2675TIP3   OH229659   2.350   5.966   8.528 -0.2013 -0.1185 -0.2677
 2675TIP3    H129660   2.373   5.885   8.573  0.5652  0.5228  0.5518
 2675TIP3    H229661   2.406   6.032   8.570 -0.7754  0.8140 -0.9522
 2676TIP3   OH229662   0.626   2.055   1.636 -0.4038 -0.5278  0.1722
 2676TIP3    H129663   0.591   1.988   1.695  1.2647 -1.3801  0.2621
 2676TIP3    H229664   0.577   2.134   1.658 -1.2878 -1.3359  1.2140
 2677TIP3   OH229665   4.108   4.341   0.830 -0.1668  0.1111  0.4688
 2677TIP3    H129666   4.052   4.377   0.898  0.6709  1.0506  0.6893
 2677TIP3    H229667   4.184   4.306   0.877 -0.2371 -0.5363  0.1225
 2678TIP3   OH229668   6.378   2.287   8.263  0.0390  0.2878  0.5143
 2678TIP3    H129669   6.412   2.227   8.196 -1.4877  1.4840 -1.4249
 2678TIP3    H229670   6.285   2.295   8.244 -0.2280  1.5633  2.1101
 2679TIP3   OH229671   4.703   1.952   0.369  0.4136 -0.5109 -0.2232
 2679TIP3    H129672   4.619   1.997   0.360  0.3151 -0.8029 -0.8350
 2679TIP3    H229673   4.719   1.914   0.282  1.4777  0.0642 -0.2926
 2680TIP3   OH229674   4.734   2.347   0.750 -0.2954  0.1419 -0.6765
 2680TIP3    H129675   4.778   2.406   0.812  2.1655  0.0024 -2.1430
 2680TIP3    H229676   4.730   2.263   0.796 -0.2841  0.5088  0.0062
 2681TIP3   OH229677   5.466   5.220   0.902  0.1391  0.2235 -0.6642
 2681TIP3    H129678   5.451   5.186   0.813 -0.2081  0.3826 -0.6687
 2681TIP3    H229679   5.490   5.143   0.953  1.2711  0.2723 -1.0999
 2682TIP3   OH229680   6.737   2.893   0.460  0.0932 -0.0352 -0.1626
 2682TIP3    H129681   6.775   2.966   0.411  1.0045 -0.2756  0.1566
 2682TIP3    H229682   6.756   2.815   0.407  0.4702 -0.2117  0.2234
 2683TIP3   OH229683   4.708   5.973   8.545  0.0843 -0.0944  0.0413
 2683TIP3    H129684   4.778   6.039   8.542  0.3813 -0.4260 -0.4377
 2683TIP3    H229685   4.652   5.994   8.470 -0.8844  0.7557  0.9593
 2684TIP3   OH229686   4.110   3.786   0.518  0.3472  0.4709 -0.6307
 2684TIP3    H129687   4.136   3.853   0.581 -1.0667 -0.1855  0.7191
 2684TIP3    H229688   4.077   3.835   0.443  0.0890  1.3095  0.0114
 2685TIP3   OH229689   0.491   6.461   0.977  0.0676 -0.2227  0.1656
 2685TIP3    H129690   0.532   6.486   0.894  0.2591  0.5338  0.4743
 2685TIP3    H229691   0.398   6.478   0.964 -0.1560 -1.8459 -0.5024
 2686TIP3   OH229692   6.053   1.973   4.515 -0.3928 -0.1801 -0.0007
 2686TIP3    H129693   6.014   1.897   4.557 -1.7131  1.0571  1.1396
 2686TIP3    H229694   5.979   2.015   4.470  0.1880  0.7415 -0.1099
 2687TIP3   OH229695   6.101   2.611   2.985  0.0239 -0.0155  0.6549
 2687TIP3    H129696   6.033   2.571   3.039  0.3258 -0.8852  0.4071
 2687TIP3    H229697   6.176   2.618   3.044 -0.2508  0.9047  0.9159
 2688TIP3   OH229698   6.857   0.486   3.652  0.4649  0.1706  0.0485
 2688TIP3    H129699   6.811   0.554   3.701  0.7136  0.1003  0.3851
 2688TIP3    H229700   6.869   0.415   3.715  2.5547  0.8575  0.4987
 2689TIP3   OH229701   0.590   5.348   1.349  0.0547 -0.5215 -0.8154
 2689TIP3    H129702   0.583   5.308   1.435 -0.3044 -0.2338 -0.7078
 2689TIP3    H229703   0.563   5.279   1.288  0.8059 -0.8890 -0.7416
 2690TIP3   OH229704   1.139   6.759   0.460  0.1462 -0.1275 -0.1980
 2690TIP3    H129705   1.060   6.802   0.428 -0.8107 -1.0695  0.8406
 2690TIP3    H229706   1.122   6.743   0.553  0.2311 -3.1629 -0.6069
 2691TIP3   OH229707   2.636   1.160   1.636  0.0255  0.5309  0.0252
 2691TIP3    H129708   2.597   1.109   1.706 -0.8773  0.3358 -0.5963
 2691TIP3    H229709   2.614   1.251   1.657 -1.6319  0.3609 -0.7955
 2692TIP3   OH229710   1.674   3.890   1.092 -0.0913 -0.0759 -0.2662
 2692TIP3    H129711   1.711   3.902   1.179 -2.5064 -0.0144  0.8265
 2692TIP3    H229712   1.665   3.978   1.057 -0.3762  0.0039  0.0017
 2693TIP3   OH229713   1.280   5.347   1.083 -0.3627 -0.0240 -0.0641
 2693TIP3    H129714   1.207   5.351   1.022 -1.3757 -0.9906  1.0396
 2693TIP3    H229715   1.328   5.267   1.059 -0.9675 -0.6000  0.6026
 2694TIP3   OH229716   5.211   2.701   3.857  0.0014 -0.2906  0.0894
 2694TIP3    H129717   5.169   2.787   3.860  1.2512  0.4876 -2.2947
 2694TIP3    H229718   5.196   2.670   3.768  2.9722 -0.7033 -0.3649
 2695TIP3   OH229719   5.032   0.729   3.189 -0.3836  0.1524  0.2792
 2695TIP3    H129720   4.984   0.757   3.268 -1.1110 -0.1760 -0.0396
 2695TIP3    H229721   4.964   0.704   3.127  0.2210 -1.0217  0.0657
 2696TIP3   OH229722   2.098   1.633   1.662 -0.0411  0.1410  0.3916
 2696TIP3    H129723   2.004   1.616   1.670 -0.4713  1.4642 -1.2737
 2696TIP3    H229724   2.140   1.548   1.676 -1.4696 -0.4549  1.1955
 2697TIP3   OH229725   1.246   0.946   0.783 -0.3458  0.5719 -0.1862
 2697TIP3    H129726   1.239   0.969   0.691 -0.1365  0.1755 -0.3037
 2697TIP3    H229727   1.250   1.029   0.829 -1.5177  0.7914 -0.4509
 2698TIP3   OH229728   0.625   1.431   2.729 -0.0318 -0.0423  0.4892
 2698TIP3    H129729   0.677   1.505   2.761 -0.5872  0.1941  0.8486
 2698TIP3    H229730   0.679   1.354   2.749  1.1600  0.3231 -1.0608
 2699TIP3   OH229731   1.953   5.382   7.817  0.2334 -0.3673  0.1556
 2699TIP3    H129732   1.993   5.296   7.803 -0.6247 -0.8049  0.3560
 2699TIP3    H229733   2.021   5.444   7.790  1.3809 -1.0632  1.3036
 2700TIP3   OH229734   1.565   4.932   3.352 -0.5249 -0.6000 -0.9077
 2700TIP3    H129735   1.537   4.932   3.444  0.3253  0.2291 -0.6287
 2700TIP3    H229736   1.621   4.855   3.344 -0.7324 -0.7652 -0.7598
 2701TIP3   OH229737   2.952   5.990   2.465 -0.2603 -0.3890 -0.2600
 2701TIP3    H129738   2.995   5.910   2.497 -1.3981 -0.3516  1.5387
 2701TIP3    H229739   2.867   5.961   2.432 -0.1488 -0.0774 -0.8305
 2702TIP3   OH229740   2.062   2.518   3.087 -0.7396  0.5131  0.6830
 2702TIP3    H129741   2.026   2.502   3.174 -0.9458  1.4239  0.7830
 2702TIP3    H229742   2.144   2.565   3.104  0.4156 -1.3422  0.4530
 2703TIP3   OH229743   4.557   5.721   0.782 -0.1881  0.1782  0.2636
 2703TIP3    H129744   4.541   5.637   0.824 -0.9982 -0.1378 -0.6365
 2703TIP3    H229745   4.487   5.729   0.717  1.4896  0.2398 -1.6449
 2704TIP3   OH229746   1.627   0.486   2.980  0.0639 -0.0613 -0.0278
 2704TIP3    H129747   1.578   0.546   2.924 -0.3139  0.2600  0.6215
 2704TIP3    H229748   1.707   0.534   3.002 -0.0287  0.0274  0.1221
 2705TIP3   OH229749   5.619   6.669   0.808 -0.1946 -0.2331 -1.2584
 2705TIP3    H129750   5.550   6.703   0.864  0.0441 -0.7812 -0.6167
 2705TIP3    H229751   5.595   6.697   0.720 -0.7499  0.3526 -0.9242
 2706TIP3   OH229752   0.133   4.660   0.994 -0.6093 -0.5822  0.3144
 2706TIP3    H129753   0.062   4.601   1.022 -0.7816  0.0350  1.2030
 2706TIP3    H229754   0.089   4.728   0.942 -0.8057  0.2762  1.5764
 2707TIP3   OH229755   3.623   4.015   0.199  0.2816  0.2191  0.0013
 2707TIP3    H129756   3.696   3.980   0.249  0.3368 -0.9966 -0.8992
 2707TIP3    H229757   3.662   4.084   0.145  0.3592  0.9984  1.0155
 2708TIP3   OH229758   2.104   4.716   1.707  0.3440 -0.7821 -0.2352
 2708TIP3    H129759   2.039   4.742   1.773  1.3749 -0.8140  0.8277
 2708TIP3    H229760   2.170   4.785   1.710  0.4581 -0.8288 -1.2006
 2709TIP3   OH229761   2.423   3.071   3.724  0.1836 -0.0325  0.1545
 2709TIP3    H129762   2.438   3.090   3.816  2.4031  0.6024 -0.2646
 2709TIP3    H229763   2.344   3.120   3.701 -0.2713 -0.0344  1.6403
 2710TIP3   OH229764   5.970   2.623   8.556 -0.6925 -0.5373 -0.0101
 2710TIP3    H129765   5.984   2.650   8.465  0.6691 -0.9090  0.0659
 2710TIP3    H229766   5.900   2.558   8.552  0.4754 -1.7983 -1.0303
 2711TIP3   OH229767   1.859   1.901   1.436  0.2661  0.0790 -0.0250
 2711TIP3    H129768   1.932   1.843   1.418  1.0809  1.2371 -0.5444
 2711TIP3    H229769   1.787   1.842   1.459  1.7461 -1.0447  2.0408
 2712TIP3   OH229770   5.326   1.873   2.794 -0.1577 -0.6717  0.1547
 2712TIP3    H129771   5.339   1.959   2.754 -0.0079 -1.4548 -1.5637
 2712TIP3    H229772   5.313   1.814   2.720  0.2526 -2.2159  1.2727
 2713TIP3   OH229773   6.861   4.041   8.656  0.1268 -0.3195 -0.0174
 2713TIP3    H129774   6.790   4.090   8.697  0.0757  0.2301 -0.7449
 2713TIP3    H229775   6.935   4.102   8.656  0.6337 -0.9192  0.8230
 2714TIP3   OH229776   2.304   3.997   1.849 -0.2565 -0.0129  0.5407
 2714TIP3    H129777   2.369   4.065   1.867 -0.8782  1.3176 -1.8442
 2714TIP3    H229778   2.232   4.016   1.909  1.2887 -1.3038  2.9738
 2715TIP3   OH229779   5.250   0.133   1.220  0.1974 -0.4186  0.2861
 2715TIP3    H129780   5.200   0.167   1.294  0.3148  0.7726 -0.1577
 2715TIP3    H229781   5.288   0.211   1.178  2.4776 -1.2641  0.6351
 2716TIP3   OH229782   6.328   4.961   1.838 -0.4602  0.0752  0.3725
 2716TIP3    H129783   6.372   5.036   1.797 -4.2282  1.0539 -2.4259
 2716TIP3    H229784   6.249   4.997   1.877 -0.8469 -2.0503  1.7045
 2717TIP3   OH229785   5.878   5.893   2.186 -0.0724  0.2548 -0.0455
 2717TIP3    H129786   5.910   5.979   2.158  0.5435 -0.5803 -2.1208
 2717TIP3    H229787   5.809   5.871   2.123 -1.4566 -0.0743  1.4912
 2718TIP3   OH229788   4.317   4.763   2.183  0.1978 -0.1308 -0.1019
 2718TIP3    H129789   4.250   4.699   2.159 -0.3009  0.9109 -1.7009
 2718TIP3    H229790   4.273   4.821   2.246  0.4581 -0.9897  0.8815
 2719TIP3   OH229791   5.273   3.256   0.199 -0.1582  0.1734 -0.5677
 2719TIP3    H129792   5.342   3.314   0.230  0.1114  1.4834 -3.3140
 2719TIP3    H229793   5.192   3.293   0.235  0.2928  0.3556  0.2730
 2720TIP3   OH229794   4.993   6.501   3.543 -0.5447  0.3886 -0.2701
 2720TIP3    H129795   4.990   6.552   3.624  2.2122  0.9144 -0.3913
 2720TIP3    H229796   4.959   6.415   3.569  1.4181  0.1438  1.8593
 2721TIP3   OH229797   1.119   1.010   1.635  0.0157 -0.6865  0.1717
 2721TIP3    H129798   1.154   0.923   1.617  1.0168 -0.2109 -0.2284
 2721TIP3    H229799   1.030   0.993   1.667 -0.1461 -1.8006 -0.7819
 2722TIP3   OH229800   1.477   0.155   2.288 -0.0209 -0.0725  0.2352
 2722TIP3    H129801   1.387   0.151   2.320 -0.2691 -1.2304 -0.5437
 2722TIP3    H229802   1.530   0.142   2.367 -0.5289  0.5763  0.6964
 2723TIP3   OH229803   1.160   3.848   2.771 -0.2623  0.4411 -0.4854
 2723TIP3    H129804   1.252   3.873   2.769 -0.2230  0.2482 -1.0583
 2723TIP3    H229805   1.160   3.759   2.807 -0.3083  0.7933  0.4197
 2724TIP3   OH229806   1.010   3.707   1.914  0.1243  0.1818 -0.1890
 2724TIP3    H129807   1.089   3.751   1.945 -1.2558  1.3706  1.8335
 2724TIP3    H229808   1.017   3.618   1.948  1.0019 -0.0012 -0.8155
 2725TIP3   OH229809   2.250   1.609   0.447 -0.1893 -0.4181 -0.3103
 2725TIP3    H129810   2.242   1.581   0.356  0.0420  1.3658 -0.9308
 2725TIP3    H229811   2.218   1.700   0.447 -0.4560 -0.4696  1.4482
 2726TIP3   OH229812   6.442   0.114   8.346 -0.7240 -0.2756  0.0137
 2726TIP3    H129813   6.363   0.065   8.322 -1.7479  0.6972  1.2358
 2726TIP3    H229814   6.423   0.204   8.318  0.3355 -0.1953 -0.4897
 2727TIP3   OH229815   2.190   2.734   1.949 -0.2719 -0.2286 -0.3304
 2727TIP3    H129816   2.121   2.766   2.007  0.0524 -2.6633  1.5605
 2727TIP3    H229817   2.265   2.790   1.969  0.2997 -1.8815  2.9040
 2728TIP3   OH229818   6.066   1.212   0.368  0.4068  0.1457 -0.2287
 2728TIP3    H129819   6.142   1.155   0.372  0.0743 -0.2599  0.5634
 2728TIP3    H229820   6.054   1.242   0.459 -1.0292 -0.6749 -0.1245
 2729TIP3   OH229821   4.789   2.558   8.298  0.1376 -0.7139 -0.5027
 2729TIP3    H129822   4.829   2.484   8.345 -3.2456 -1.3953  1.7525
 2729TIP3    H229823   4.748   2.518   8.221  0.3957 -0.7264 -0.6343
 2730TIP3   OH229824   0.623   0.063   0.161  0.5968 -0.1158  0.0156
 2730TIP3    H129825   0.653   0.084   0.249 -0.5042 -0.3426  0.4580
 2730TIP3    H229826   0.586   0.145   0.128 -2.4973 -0.8713  1.2489
 2731TIP3   OH229827   0.211   5.151   8.196 -0.1484  0.3618  0.3438
 2731TIP3    H129828   0.202   5.132   8.103 -0.1149  0.5996  0.2915
 2731TIP3    H229829   0.305   5.141   8.213 -0.0902  0.7603  0.2542
 2732TIP3   OH229830   4.415   5.340   3.380  0.1327 -0.1073 -0.4864
 2732TIP3    H129831   4.397   5.346   3.474 -1.8014 -1.0229 -0.7660
 2732TIP3    H229832   4.502   5.299   3.375  1.9219  3.1424  0.9063
 2733TIP3   OH229833   1.833   0.142   2.158  0.3136 -0.7894  0.1872
 2733TIP3    H129834   1.894   0.204   2.198 -0.6993 -0.7050  1.6729
 2733TIP3    H229835   1.889   0.075   2.118  1.4371  1.0294 -1.4628
 2734TIP3   OH229836   6.734   3.498   8.612  0.7555 -0.2056  0.1103
 2734TIP3    H129837   6.796   3.538   8.552  0.6279  0.3325  0.3312
 2734TIP3    H229838   6.653   3.549   8.600  0.8290  0.1264  0.9747
 2735TIP3   OH229839   6.060   3.886   3.321  0.0107 -0.5562 -0.0530
 2735TIP3    H129840   6.045   3.972   3.362  1.4474 -0.6804  0.7742
 2735TIP3    H229841   6.049   3.823   3.392 -0.3458 -1.0187 -0.5080
 2736TIP3   OH229842   2.567   1.499   3.801  0.1955 -0.1756  0.6128
 2736TIP3    H129843   2.515   1.441   3.857 -1.6835 -0.9890 -1.7516
 2736TIP3    H229844   2.657   1.490   3.832 -0.5866 -1.3959  2.7158
 2737TIP3   OH229845   3.657   4.982   1.478 -0.0542  0.3710 -0.3003
 2737TIP3    H129846   3.714   5.010   1.407  0.2540  0.6740  0.0624
 2737TIP3    H229847   3.635   4.891   1.457 -0.8411  0.7871 -1.3408
 2738TIP3   OH229848   1.695   4.298   8.069 -0.2520  0.3964 -0.0749
 2738TIP3    H129849   1.610   4.266   8.038  0.0284 -1.0709  0.6251
 2738TIP3    H229850   1.752   4.222   8.067  1.5822  1.7139 -2.1877
 2739TIP3   OH229851   2.710   2.809   8.627 -0.2094  0.1963  0.3934
 2739TIP3    H129852   2.662   2.892   8.630  0.7742  0.7870  0.3897
 2739TIP3    H229853   2.737   2.793   8.718 -2.1449 -1.2073  0.7692
 2740TIP3   OH229854   0.424   3.515   2.676  0.4907 -0.1812  0.2816
 2740TIP3    H129855   0.426   3.426   2.639  1.2481 -0.7128  1.5428
 2740TIP3    H229856   0.369   3.508   2.753  2.2355 -0.0797  1.5897
 2741TIP3   OH229857   3.580   6.306   3.209  0.0338 -0.1296 -0.0687
 2741TIP3    H129858   3.530   6.245   3.155 -0.1839 -1.0686  1.1601
 2741TIP3    H229859   3.664   6.262   3.225 -0.1940 -0.2090  0.9795
 2742TIP3   OH229860   4.128   6.692   2.236 -0.1625  0.2974  0.4757
 2742TIP3    H129861   4.076   6.668   2.312 -0.6736 -0.6872 -0.1508
 2742TIP3    H229862   4.073   6.752   2.186  0.4988  1.6113  1.2628
 2743TIP3   OH229863   1.781   2.408   3.854  0.4018  0.1922 -0.2763
 2743TIP3    H129864   1.829   2.464   3.914 -1.4328  0.3418  1.1368
 2743TIP3    H229865   1.734   2.346   3.910 -0.7452 -0.1883 -1.5826
 2744TIP3   OH229866   4.933   5.345   8.578 -0.5021 -0.5043  0.0609
 2744TIP3    H129867   4.921   5.292   8.500 -0.2897  1.0155 -1.0430
 2744TIP3    H229868   4.974   5.425   8.547 -0.3158  0.1030  1.7522
 2745TIP3   OH229869   2.812   6.257   2.844  0.1261 -0.3228  0.8186
 2745TIP3    H129870   2.835   6.166   2.862  2.5403  0.0204 -0.2424
 2745TIP3    H229871   2.717   6.255   2.831 -0.2348 -2.2726  2.9719
 2746TIP3   OH229872   1.733   0.270   8.597  0.3467  0.1106 -0.8779
 2746TIP3    H129873   1.728   0.365   8.602  2.3407  0.2358 -0.0008
 2746TIP3    H229874   1.777   0.252   8.514  0.0441 -0.0366 -1.0061
 2747TIP3   OH229875   2.690   4.814   3.542  0.4799  0.2108  0.3210
 2747TIP3    H129876   2.650   4.894   3.577 -1.3890 -0.3991 -0.3129
 2747TIP3    H229877   2.652   4.804   3.455  0.8045 -1.2776  0.3268
 2748TIP3   OH229878   1.022   6.143   0.356 -0.3737  0.5006  0.3899
 2748TIP3    H129879   1.100   6.113   0.403 -0.8405 -0.8629  0.3468
 2748TIP3    H229880   1.039   6.235   0.337  0.2528  0.8497  2.3964
 2749TIP3   OH229881   0.588   2.211   3.033  0.3272  0.0069  0.2523
 2749TIP3    H129882   0.653   2.183   2.968  0.2033  0.2009  0.0436
 2749TIP3    H229883   0.588   2.306   3.026  0.6173  0.0524  0.8329
 2750TIP3   OH229884   1.594   3.546   8.194  0.0257  0.1603 -0.2936
 2750TIP3    H129885   1.571   3.635   8.168  0.3683  0.2321 -0.3621
 2750TIP3    H229886   1.667   3.522   8.136  0.9730  0.4169  0.7453
 2751TIP3   OH229887   4.448   3.052   1.045  0.3884 -0.4916  0.4026
 2751TIP3    H129888   4.432   3.146   1.039 -0.4491 -0.7279 -1.9795
 2751TIP3    H229889   4.456   3.023   0.954  1.3472 -2.6231  1.1042
 2752TIP3   OH229890   2.862   5.510   3.930  0.1612  0.1334 -0.1870
 2752TIP3    H129891   2.915   5.468   3.998 -0.0179  2.3834  1.4671
 2752TIP3    H229892   2.854   5.444   3.861  2.0784 -1.5315  1.0756
 2753TIP3   OH229893   3.514   4.080   2.477 -0.7739 -0.0501 -0.3848
 2753TIP3    H129894   3.572   4.007   2.500 -0.3541  0.4131  0.0507
 2753TIP3    H229895   3.519   4.139   2.552 -0.6012  0.7470 -1.0134
 2754TIP3   OH229896   4.361   2.187   1.956  0.3151  0.8486  0.3742
 2754TIP3    H129897   4.275   2.158   1.988  0.8141 -0.0990  0.9211
 2754TIP3    H229898   4.396   2.110   1.910  1.7784  0.4472  2.0442
 2755TIP3   OH229899   4.674   0.527   2.148  0.1059  0.6851  0.4013
 2755TIP3    H129900   4.673   0.562   2.059 -0.4545 -0.8197 -0.2029
 2755TIP3    H229901   4.726   0.447   2.143 -0.2786  0.3530  1.3311
 2756TIP3   OH229902   1.004   0.196   3.457 -0.5705 -0.1552 -0.4317
 2756TIP3    H129903   0.918   0.217   3.491 -0.9252 -0.9202 -0.8367
 2756TIP3    H229904   1.012   0.101   3.466  1.5318  0.1519  2.6194
 2757TIP3   OH229905   0.878   1.897   0.363  0.3052 -0.0666  0.0454
 2757TIP3    H129906   0.786   1.885   0.339  0.3797 -2.5377  0.7466
 2757TIP3    H229907   0.904   1.977   0.317 -1.4765 -0.6856 -2.2506
 2758TIP3   OH229908   3.338   0.684   0.153 -0.4870 -0.0053  0.1509
 2758TIP3    H129909   3.244   0.705   0.153 -0.2201  1.3217 -0.9617
 2758TIP3    H229910   3.382   0.768   0.163  0.6155 -0.7516  2.1951
 2759TIP3   OH229911   6.433   6.077   0.824  0.2710 -0.3523 -0.4210
 2759TIP3    H129912   6.369   6.126   0.773 -0.1902 -0.9366 -0.4073
 2759TIP3    H229913   6.399   6.079   0.914 -0.4708 -1.8696 -0.6528
 2760TIP3   OH229914   2.022   0.618   0.559 -0.5644  0.3833 -0.0746
 2760TIP3    H129915   2.064   0.703   0.572  0.2914  0.0237 -0.3941
 2760TIP3    H229916   2.082   0.555   0.598 -1.5187 -0.0314  0.7666
 2761TIP3   OH229917   4.386   6.798   1.259  0.4554 -0.2453  0.3885
 2761TIP3    H129918   4.460   6.745   1.289  1.3647  1.4609  1.3321
 2761TIP3    H229919   4.328   6.803   1.334  0.5295  0.3172  0.4174
 2762TIP3   OH229920   2.769   0.020   3.884  0.2223  0.1876 -0.2156
 2762TIP3    H129921   2.759   0.076   3.961  0.4060 -1.8262  1.3561
 2762TIP3    H229922   2.800   0.079   3.816 -1.2180  2.3275  0.8427
 2763TIP3   OH229923   3.503   2.584   0.183 -0.0723 -0.4208 -0.1861
 2763TIP3    H129924   3.555   2.523   0.236  0.7217 -0.7352 -1.2951
 2763TIP3    H229925   3.512   2.668   0.228  1.2566 -0.5151 -0.2496
 2764TIP3   OH229926   0.902   2.114   1.612 -0.5239 -0.2949  0.0196
 2764TIP3    H129927   0.807   2.113   1.612 -0.5725  0.4614  1.9041
 2764TIP3    H229928   0.926   2.200   1.578 -0.5618  0.1181  1.0228
 2765TIP3   OH229929   5.832   6.529   0.405 -0.0691 -0.4656 -0.4378
 2765TIP3    H129930   5.855   6.609   0.359 -0.6086 -0.1024 -0.0966
 2765TIP3    H229931   5.736   6.534   0.414  0.1263  0.2354  2.0519
 2766TIP3   OH229932   1.718   0.305   1.209  0.3942  0.6551  0.0086
 2766TIP3    H129933   1.687   0.251   1.136 -1.7354  0.1143  1.2113
 2766TIP3    H229934   1.760   0.243   1.269 -0.4998  0.5788  0.5783
 2767TIP3   OH229935   1.928   1.273   8.245 -0.6093  0.3012  0.4070
 2767TIP3    H129936   1.853   1.247   8.299 -0.5613  0.2729  0.4603
 2767TIP3    H229937   1.896   1.348   8.194 -0.3377  1.0206  1.2564
 2768TIP3   OH229938   4.566   1.208   2.901  0.4199  0.0804  0.0024
 2768TIP3    H129939   4.551   1.114   2.910 -0.9546  0.2183 -0.5791
 2768TIP3    H229940   4.574   1.240   2.991 -1.6825 -0.2282  0.3553
 2769TIP3   OH229941   5.321   3.320   2.357  0.2241  0.6114 -0.1391
 2769TIP3    H129942   5.281   3.327   2.271 -2.6007 -0.3521  0.9868
 2769TIP3    H229943   5.405   3.277   2.342 -1.3545 -2.0055 -2.1579
 2770TIP3   OH229944   3.829   4.082   7.964 -0.1105  0.0114  0.1192
 2770TIP3    H129945   3.869   4.103   7.879  0.8701 -2.6286 -0.1586
 2770TIP3    H229946   3.893   4.111   8.028  1.9740 -3.1610 -0.2972
 2771TIP3   OH229947   5.368   3.882   4.161  0.2946 -0.3798 -0.7624
 2771TIP3    H129948   5.273   3.869   4.168 -0.0177  0.7609 -2.4254
 2771TIP3    H229949   5.385   3.962   4.210  0.4990 -0.8654 -0.0227
 2772TIP3   OH229950   3.458   1.832   0.608 -0.0479  0.1225  0.1055
 2772TIP3    H129951   3.396   1.880   0.663 -0.0206  0.9542 -0.5741
 2772TIP3    H229952   3.426   1.843   0.519  0.8278  0.2021 -0.2162
 2773TIP3   OH229953   2.775   2.143   1.448  0.1976  0.2343 -0.0085
 2773TIP3    H129954   2.722   2.131   1.370 -1.0853  0.5150  0.7782
 2773TIP3    H229955   2.800   2.236   1.446  0.2014  0.2309 -0.1089
 2774TIP3   OH229956   4.332   2.787   1.969  0.2832  0.0497 -0.4174
 2774TIP3    H129957   4.334   2.854   1.900 -0.0562  1.8546  1.2449
 2774TIP3    H229958   4.424   2.774   1.992  0.2766  1.3295  0.4659
 2775TIP3   OH229959   1.376   6.170   1.093  0.4210 -0.2574  0.3892
 2775TIP3    H129960   1.331   6.227   1.031  0.1194 -1.2822 -0.3416
 2775TIP3    H229961   1.466   6.165   1.060  0.5104 -0.0233  0.5902
 2776TIP3   OH229962   1.180   4.572   2.783 -0.5190 -0.1925 -0.0345
 2776TIP3    H129963   1.247   4.513   2.750  0.0562  1.2354 -1.6070
 2776TIP3    H229964   1.097   4.528   2.764 -0.0698 -1.3480  0.6348
 2777TIP3   OH229965   5.748   2.293   4.014 -0.5510  0.2457 -0.1101
 2777TIP3    H129966   5.727   2.305   3.921 -0.3620  0.3187 -0.1450
 2777TIP3    H229967   5.664   2.299   4.059 -0.5851  0.6813 -0.2297
 2778TIP3   OH229968   5.278   2.436   1.572 -0.5408 -0.3889 -0.2177
 2778TIP3    H129969   5.281   2.500   1.501 -0.2334  0.2646  0.3618
 2778TIP3    H229970   5.190   2.445   1.609 -0.7015 -0.7306 -0.5129
 2779TIP3   OH229971   2.052   4.057   1.956  0.1622  0.6437 -0.6082
 2779TIP3    H129972   2.031   3.970   1.921  0.6985  0.1439  0.2740
 2779TIP3    H229973   2.005   4.118   1.899 -0.0002 -0.2116 -1.4076
 2780TIP3   OH229974   3.824   2.968   1.140  0.2513 -0.8544 -0.3330
 2780TIP3    H129975   3.828   3.046   1.195  0.1788 -1.6902  0.8877
 2780TIP3    H229976   3.884   2.988   1.067  0.8354  0.0312  0.3599
 2781TIP3   OH229977   5.470   0.549   0.210  0.1605  0.1492 -0.0591
 2781TIP3    H129978   5.439   0.629   0.253 -2.8138 -1.0215  0.1698
 2781TIP3    H229979   5.475   0.484   0.280 -1.1460 -0.8151 -0.8179
 2782TIP3   OH229980   4.746   3.508   2.525 -0.4303  0.3081  0.8245
 2782TIP3    H129981   4.693   3.429   2.540 -0.4762  0.6663  2.7865
 2782TIP3    H229982   4.833   3.484   2.558 -0.1716  0.7396  0.4566
 2783TIP3   OH229983   1.436   5.800   1.459  0.4043  0.0088  0.6236
 2783TIP3    H129984   1.378   5.832   1.390 -1.7348 -0.9389  1.8744
 2783TIP3    H229985   1.451   5.708   1.438  2.3273  0.4513 -0.1918
 2784TIP3   OH229986   2.296   6.007   0.497  0.5427  0.3315  0.1841
 2784TIP3    H129987   2.380   5.981   0.536  0.7987  0.1713 -0.4664
 2784TIP3    H229988   2.277   5.939   0.433 -0.4152  0.0171  0.7753
 2785TIP3   OH229989   3.288   1.842   1.792  0.2083  0.2579  0.4836
 2785TIP3    H129990   3.270   1.925   1.837 -1.0404 -0.3040  1.0479
 2785TIP3    H229991   3.297   1.778   1.862 -2.3234 -0.7388  0.0073
 2786TIP3   OH229992   5.927   2.817   3.578  0.3655 -0.3859 -0.2372
 2786TIP3    H129993   5.979   2.818   3.498 -0.7656 -0.4784 -1.0045
 2786TIP3    H229994   5.989   2.835   3.648  1.2095  0.6886 -1.2368
 2787TIP3   OH229995   2.834   0.424   2.184  0.1027  0.0063  0.0805
 2787TIP3    H129996   2.896   0.485   2.144  1.5595 -2.0214 -0.9336
 2787TIP3    H229997   2.861   0.421   2.276  1.1750 -0.4129 -0.2286
 2788TIP3   OH229998   6.417   5.248   3.786 -0.1114  0.1074  0.7348
 2788TIP3    H129999   6.476   5.176   3.810 -1.8190 -0.8802  2.2279
 2788TIP3    H230000   6.332   5.205   3.772 -0.2935  1.2775 -2.7220
 2789TIP3   OH230001   4.965   1.942   0.664 -0.8370  0.2058  0.9307
 2789TIP3    H130002   4.936   1.853   0.683 -0.1894 -0.4076 -0.7200
 2789TIP3    H230003   5.057   1.932   0.641 -0.6912  1.3527  0.9729
 2790TIP3   OH230004   3.085   2.238   2.094 -0.4038 -0.1195 -0.3899
 2790TIP3    H130005   2.997   2.236   2.056 -0.6948  2.0053  0.0679
 2790TIP3    H230006   3.078   2.297   2.169  1.8671  1.9520 -1.6639
 2791TIP3   OH230007   2.546   3.816   1.877 -0.1815  0.1955  0.3583
 2791TIP3    H130008   2.457   3.847   1.864 -0.5880 -1.0013  0.2657
 2791TIP3    H230009   2.538   3.737   1.929  0.6313 -1.2075 -1.5306
 2792TIP3   OH230010   2.335   2.065   2.639 -0.0755  0.0314 -0.3253
 2792TIP3    H130011   2.305   2.121   2.568 -0.8189  0.6153  0.4299
 2792TIP3    H230012   2.256   2.022   2.671  0.0598  0.6181  0.8616
 2793TIP3   OH230013   5.791   6.256   3.063 -1.1402 -0.0595  0.2507
 2793TIP3    H130014   5.804   6.226   2.974 -1.9712  0.5173 -0.0769
 2793TIP3    H230015   5.701   6.290   3.065 -0.5682  1.5700  0.8168
 2794TIP3   OH230016   2.671   0.098   0.449  0.3757  0.2335 -0.0026
 2794TIP3    H130017   2.657   0.057   0.364  0.7071  1.5061 -0.6900
 2794TIP3    H230018   2.756   0.142   0.441  1.3005 -1.1386  1.6074
 2795TIP3   OH230019   2.874   0.437   4.055  0.2397 -0.8334  0.0176
 2795TIP3    H130020   2.827   0.476   3.981  1.2755 -1.0216 -0.7697
 2795TIP3    H230021   2.851   0.491   4.130  0.6848  0.5570 -0.8096
 2796TIP3   OH230022   2.466   3.138   1.736  0.1635  0.1324  0.4368
 2796TIP3    H130023   2.471   3.207   1.671  1.2516 -0.3070  0.0265
 2796TIP3    H230024   2.452   3.057   1.686  5.0388 -0.8623  0.1701
 2797TIP3   OH230025   4.541   1.538   7.858 -0.4172  0.1503  0.3617
 2797TIP3    H130026   4.464   1.567   7.810  0.1082  0.7048 -0.1554
 2797TIP3    H230027   4.607   1.520   7.791 -0.5962 -1.9136  0.6746
 2798TIP3   OH230028   6.072   4.868   0.086 -0.5916  0.1647  0.0496
 2798TIP3    H130029   6.016   4.842   0.159  1.0181 -1.8366  0.6819
 2798TIP3    H230030   6.122   4.943   0.120  0.1800 -0.7804  1.0653
 2799TIP3   OH230031   4.405   3.288   8.284  0.1614  1.0216  0.0388
 2799TIP3    H130032   4.399   3.196   8.307 -0.6307  0.4715 -2.1647
 2799TIP3    H230033   4.327   3.328   8.323 -0.2074  0.4816 -0.1389
 2800TIP3   OH230034   4.178   4.308   1.740 -0.0276 -0.2273  0.4622
 2800TIP3    H130035   4.223   4.224   1.751  1.5381  0.3549 -0.9715
 2800TIP3    H230036   4.193   4.354   1.823  1.4841 -0.3312  0.2792
 2801TIP3   OH230037   0.196   2.019   0.127 -0.1753 -0.6995  0.3512
 2801TIP3    H130038   0.203   2.000   0.033  1.6127  1.1184  0.0341
 2801TIP3    H230039   0.251   1.953   0.168 -1.8042 -2.1683  0.2749
 2802TIP3   OH230040   3.663   4.319   0.368 -0.2746 -0.5397  0.1374
 2802TIP3    H130041   3.686   4.410   0.354 -3.4756  0.4056  0.1693
 2802TIP3    H230042   3.641   4.313   0.461 -0.6524 -1.1739  0.0208
 2803TIP3   OH230043   0.800   5.624   0.150  0.0909 -0.1265  0.1121
 2803TIP3    H130044   0.728   5.562   0.162 -0.3642  0.0482 -1.5223
 2803TIP3    H230045   0.865   5.576   0.099  0.7068  0.0644  0.6913
 2804TIP3   OH230046   2.427   0.877   3.627 -0.4565  0.3730 -0.1968
 2804TIP3    H130047   2.509   0.851   3.670 -0.4491  1.4865  0.5047
 2804TIP3    H230048   2.456   0.923   3.548 -0.3930  0.9309  0.1477
 2805TIP3   OH230049   6.397   0.944   1.299  0.1475  0.3894 -0.0736
 2805TIP3    H130050   6.439   0.870   1.344 -2.9531  0.0802  2.7468
 2805TIP3    H230051   6.460   1.015   1.307  1.5701 -0.8922  0.8374
 2806TIP3   OH230052   2.961   6.874   2.372 -0.2575  0.3466  0.3341
 2806TIP3    H130053   3.049   6.899   2.343 -0.4188  1.0678  0.4257
 2806TIP3    H230054   2.954   6.781   2.352  1.6584 -0.5417  3.0514
 2807TIP3   OH230055   5.039   0.350   0.012  0.5061  0.5719 -0.3291
 2807TIP3    H130056   5.043   0.374   0.105  2.4372  0.9711 -0.4829
 2807TIP3    H230057   5.021   0.256   0.012  1.5114  0.3625  0.5009
 2808TIP3   OH230058   0.493   5.161   2.010  0.3883  0.0598  0.0523
 2808TIP3    H130059   0.584   5.132   2.020 -0.2426 -1.7021  1.2179
 2808TIP3    H230060   0.487   5.240   2.064  0.2997 -2.0910  3.4828
 2809TIP3   OH230061   5.188   5.975   2.208  0.4759  0.1276  0.0843
 2809TIP3    H130062   5.183   5.972   2.303  0.2695  0.8777  0.0972
 2809TIP3    H230063   5.215   6.064   2.187 -0.5536  0.3029 -0.5932
 2810TIP3   OH230064   3.948   1.902   0.134  0.2370 -0.6150  0.0420
 2810TIP3    H130065   3.928   1.895   0.227 -1.9207  2.0747 -0.0858
 2810TIP3    H230066   3.868   1.874   0.090 -0.4062  2.1273 -0.7784
 2811TIP3   OH230067   4.982   4.964   2.058 -0.1277  0.6944  0.2334
 2811TIP3    H130068   5.014   4.874   2.054  0.9295  1.0913 -1.7902
 2811TIP3    H230069   5.057   5.017   2.029 -1.1198  2.1031  0.1441
 2812TIP3   OH230070   5.493   4.616   1.679 -0.1735  0.3435  0.3711
 2812TIP3    H130071   5.418   4.658   1.721 -1.2722 -0.1566 -1.0147
 2812TIP3    H230072   5.476   4.522   1.689  0.2171  0.2220 -0.0618
 2813TIP3   OH230073   5.700   5.628   0.763  0.3849 -0.1300 -0.4946
 2813TIP3    H130074   5.634   5.560   0.751 -0.5059  0.3046  1.5572
 2813TIP3    H230075   5.719   5.627   0.857  2.9450  0.1171 -0.9379
 2814TIP3   OH230076   3.980   0.344   1.975  0.6946  0.0372  0.7081
 2814TIP3    H130077   3.962   0.397   1.897  1.3631 -0.4470  0.2102
 2814TIP3    H230078   4.032   0.271   1.942 -1.3749 -1.7450  1.1046
 2815TIP3   OH230079   4.655   6.616   0.270  0.0538  0.2616  0.1523
 2815TIP3    H130080   4.613   6.598   0.355  0.2363  2.2902  0.7129
 2815TIP3    H230081   4.682   6.530   0.239  0.9565 -0.4768  2.6741
 2816TIP3   OH230082   0.035   4.110   1.121  0.9920  0.1492  0.6086
 2816TIP3    H130083  -0.006   4.061   1.050 -0.2602 -0.6682  1.8434
 2816TIP3    H230084   0.060   4.044   1.185 -1.5834  1.0665  2.7419
 2817TIP3   OH230085   5.381   2.220   0.196 -0.6017  0.4774  0.1221
 2817TIP3    H130086   5.328   2.290   0.234 -0.3232 -0.6625  2.8613
 2817TIP3    H230087   5.318   2.149   0.178 -0.7597  1.0675 -1.8665
 2818TIP3   OH230088   6.747   1.326   1.997  0.1154  0.2229 -0.0255
 2818TIP3    H130089   6.838   1.352   2.005  0.7411 -1.1517 -1.8531
 2818TIP3    H230090   6.708   1.391   1.940 -0.2727  1.2117  1.3208
 2819TIP3   OH230091   2.661   6.219   8.577 -0.5215 -0.1472 -0.2966
 2819TIP3    H130092   2.632   6.201   8.487  1.3440 -2.1068 -0.5771
 2819TIP3    H230093   2.683   6.133   8.613  1.4947  0.8661  1.0508
 2820TIP3   OH230094   3.545   5.889   7.846  0.5660  0.0926  0.4341
 2820TIP3    H130095   3.562   5.977   7.811  0.2118  0.5790  1.4583
 2820TIP3    H230096   3.596   5.885   7.927 -1.9301  0.5859  2.1429
 2821TIP3   OH230097   5.291   6.702   2.537 -0.9160 -0.0400  0.6872
 2821TIP3    H130098   5.316   6.619   2.578  0.2217  0.0264  0.1763
 2821TIP3    H230099   5.309   6.768   2.603 -0.5329 -0.0749  0.6197
 2822TIP3   OH230100   0.720   1.981   3.584 -0.6462 -0.0390 -0.0846
 2822TIP3    H130101   0.735   1.938   3.668  1.4018  0.4328 -0.1714
 2822TIP3    H230102   0.636   2.025   3.595 -1.3375 -1.5250  1.0459
 2823TIP3   OH230103   6.211   4.678   2.197  0.2741  0.1096 -0.3531
 2823TIP3    H130104   6.119   4.702   2.184 -0.3139 -2.3053 -1.0142
 2823TIP3    H230105   6.253   4.696   2.113 -0.1037 -0.9010 -0.7642
 2824TIP3   OH230106   6.186   6.069   2.332  0.0668 -0.2606 -0.4533
 2824TIP3    H130107   6.198   6.155   2.374  1.8857 -0.7021  0.0004
 2824TIP3    H230108   6.130   6.020   2.393  0.6837 -0.0746  0.2705
 2825TIP3   OH230109   2.243   3.209   1.503 -0.0004 -0.2473  0.1687
 2825TIP3    H130110   2.274   3.119   1.513 -1.3847 -0.8881 -0.9310
 2825TIP3    H230111   2.147   3.202   1.505 -0.3198  0.6122 -3.8479
 2826TIP3   OH230112   3.165   2.725   0.095 -0.2695 -0.1909 -0.2539
 2826TIP3    H130113   3.106   2.671   0.042 -0.2737 -1.3635  0.8833
 2826TIP3    H230114   3.248   2.722   0.047 -0.9518  1.0490 -1.5986
 2827TIP3   OH230115   3.851   4.167   2.487  0.2284 -0.1071 -0.4112
 2827TIP3    H130116   3.852   4.199   2.577 -0.0173 -0.3726 -0.3094
 2827TIP3    H230117   3.943   4.159   2.462  0.2923  1.0161 -0.5678
 2828TIP3   OH230118   1.048   6.445   8.472  0.9642 -0.5666  0.5727
 2828TIP3    H130119   0.977   6.457   8.409 -0.1620  0.6436  1.9826
 2828TIP3    H230120   1.128   6.468   8.424  0.1643  0.0832 -0.4714
 2829TIP3   OH230121   0.106   0.430   2.727  0.4246 -0.6616  0.1544
 2829TIP3    H130122   0.179   0.422   2.789 -2.2926  1.1142  3.9638
 2829TIP3    H230123   0.045   0.361   2.753 -1.4140  1.0047  0.5177
 2830TIP3   OH230124   1.757   2.900   1.932  0.6014 -0.0465 -0.3237
 2830TIP3    H130125   1.725   2.956   2.003  0.4384  1.6891 -1.6905
 2830TIP3    H230126   1.687   2.901   1.866  0.3461 -2.3752 -0.1765
 2831TIP3   OH230127   0.013   5.230   3.049  0.0761  0.0803  0.5154
 2831TIP3    H130128  -0.057   5.183   3.095  0.2874 -1.0053 -0.2440
 2831TIP3    H230129   0.003   5.205   2.957 -0.4631  2.3712 -0.1124
 2832TIP3   OH230130   4.061   2.134   8.418  0.3388  0.2060 -0.0387
 2832TIP3    H130131   4.032   2.216   8.459 -1.8062 -0.0554 -0.8654
 2832TIP3    H230132   3.993   2.071   8.443  1.4781 -1.0976 -0.1683
 2833TIP3   OH230133   5.469   2.622   7.803  0.0073 -0.3850  0.4414
 2833TIP3    H130134   5.497   2.616   7.712 -0.9786 -0.1372  0.1052
 2833TIP3    H230135   5.387   2.574   7.806  0.1195 -0.5318  1.2398
 2834TIP3   OH230136   6.581   0.879   4.271  0.2319 -0.1677 -0.6386
 2834TIP3    H130137   6.583   0.817   4.198  2.3434  1.1988 -1.8668
 2834TIP3    H230138   6.488   0.898   4.283 -0.2853 -1.5375 -1.9949
 2835TIP3   OH230139   6.546   3.293   0.954 -0.3367 -0.6795  0.7267
 2835TIP3    H130140   6.622   3.341   0.987 -0.9332  0.6570  0.2468
 2835TIP3    H230141   6.480   3.361   0.940 -0.4943 -1.2766 -2.1346
 2836TIP3   OH230142   4.742   1.338   2.321  0.4565 -0.2253 -0.2176
 2836TIP3    H130143   4.770   1.305   2.235 -1.0932 -2.6591  0.1265
 2836TIP3    H230144   4.767   1.269   2.382 -0.7922  0.2957  0.9168
 2837TIP3   OH230145   0.008   1.047   1.547  0.3053 -0.4042  0.3530
 2837TIP3    H130146   0.068   1.035   1.474 -0.7877  1.1459 -0.8459
 2837TIP3    H230147  -0.002   0.959   1.584  1.8883 -0.9928 -0.5268
 2838TIP3   OH230148   5.630   6.539   1.365  0.3937 -0.0964 -0.2282
 2838TIP3    H130149   5.594   6.527   1.277 -2.3290  1.3332  0.5664
 2838TIP3    H230150   5.635   6.451   1.401 -0.1956 -0.5412 -1.1877
 2839TIP3   OH230151   4.090   0.769   1.131 -0.2116 -0.2184 -0.3833
 2839TIP3    H130152   4.132   0.846   1.094  0.3929 -1.3609 -2.1705
 2839TIP3    H230153   4.014   0.804   1.178 -0.5696  1.3882 -2.0386
 2840TIP3   OH230154   6.207   2.225   2.456  0.1231  0.3153  0.8316
 2840TIP3    H130155   6.210   2.219   2.361 -2.7554  0.8973  0.6233
 2840TIP3    H230156   6.148   2.155   2.484  0.5485  0.4504  2.1612
 2841TIP3   OH230157   5.750   4.234   3.101  0.3343  0.0940 -0.1639
 2841TIP3    H130158   5.836   4.264   3.071  0.1977  2.1798  1.3198
 2841TIP3    H230159   5.767   4.193   3.186  0.0286 -0.7709 -0.5145
 2842TIP3   OH230160   0.076   2.891   8.158  0.4015  0.0627  1.1402
 2842TIP3    H130161   0.033   2.918   8.078  0.9960  0.0639  0.8178
 2842TIP3    H230162   0.163   2.930   8.154  0.2104  0.6329  2.1039
 2843TIP3   OH230163   1.462   5.658   0.098  0.5549  0.6279 -0.0718
 2843TIP3    H130164   1.442   5.625   0.011  1.8718  0.6792 -0.4183
 2843TIP3    H230165   1.393   5.621   0.154 -0.4198  0.7538 -1.1451
 2844TIP3   OH230166   0.476   2.398   3.697  0.2875  0.6526 -0.3328
 2844TIP3    H130167   0.480   2.302   3.705 -0.0209  0.4936 -1.7323
 2844TIP3    H230168   0.503   2.431   3.782  0.0951 -0.6936  0.2738
 2845TIP3   OH230169   5.905   2.754   7.990  1.0187  0.1575  0.0746
 2845TIP3    H130170   5.810   2.752   7.993  0.9825 -0.1346 -0.9583
 2845TIP3    H230171   5.930   2.824   8.050  0.0985  1.1396 -0.6572
 2846TIP3   OH230172   5.067   6.756   8.563  0.1398 -0.4169 -0.0908
 2846TIP3    H130173   5.053   6.675   8.612 -0.2623  0.2126  0.8682
 2846TIP3    H230174   5.052   6.732   8.471 -0.5130 -1.3088  0.2390
 2847TIP3   OH230175   0.247   5.655   3.120 -0.1700 -0.1946  0.3966
 2847TIP3    H130176   0.290   5.574   3.095 -1.2908 -0.5240 -0.5656
 2847TIP3    H230177   0.225   5.697   3.037  0.3721  1.1076  0.8683
 2848TIP3   OH230178   6.651   4.926   0.346 -0.3909 -0.0978 -0.6832
 2848TIP3    H130179   6.676   4.837   0.373  1.0390  0.4328 -0.1544
 2848TIP3    H230180   6.560   4.935   0.372 -0.9021 -1.7825 -1.7122
 2849TIP3   OH230181   2.944   0.214   1.508 -0.6852  0.3696 -0.3322
 2849TIP3    H130182   3.027   0.261   1.518 -0.3812 -0.3491  0.8384
 2849TIP3    H230183   2.961   0.151   1.438  0.7437 -1.6605  1.6826
 2850TIP3   OH230184   6.800   2.522   2.140  0.1270  0.4051 -0.4181
 2850TIP3    H130185   6.767   2.601   2.182  0.2546  0.8711 -1.1626
 2850TIP3    H230186   6.877   2.552   2.090  0.0345 -0.1375 -0.9007
 2851TIP3   OH230187   1.819   0.032   8.075  0.0044 -0.2456 -0.0727
 2851TIP3    H130188   1.913   0.036   8.054  0.6842 -1.4326  2.3083
 2851TIP3    H230189   1.787   0.121   8.060  1.3876  0.0612 -1.4248
 2852TIP3   OH230190   4.328   0.651   0.956  0.4054  0.6199  0.0613
 2852TIP3    H130191   4.353   0.734   0.915  1.6416 -0.3664 -1.3192
 2852TIP3    H230192   4.361   0.584   0.895  0.8208 -0.9157  1.8867
 2853TIP3   OH230193   3.601   0.016   8.361 -0.5309 -0.5545 -0.6414
 2853TIP3    H130194   3.546  -0.062   8.356 -1.7460  0.1926  0.4141
 2853TIP3    H230195   3.545   0.086   8.326 -1.2067  0.6784  2.6180
 2854TIP3   OH230196   2.338   5.266   0.757  0.2150  0.0443  0.3777
 2854TIP3    H130197   2.275   5.321   0.711 -1.5516 -1.9138  0.3233
 2854TIP3    H230198   2.372   5.322   0.827 -1.5792  1.1837  0.3943
 2855TIP3   OH230199   6.147   5.127   2.336  0.4126 -0.5703  0.3947
 2855TIP3    H130200   6.238   5.147   2.314  0.1087  1.3814  0.7274
 2855TIP3    H230201   6.149   5.036   2.365  2.2368 -0.6140  0.2605
 2856TIP3   OH230202   3.770   6.495   0.653 -0.4407 -0.4246  0.8609
 2856TIP3    H130203   3.705   6.544   0.603  0.4596  0.2602  0.3492
 2856TIP3    H230204   3.826   6.455   0.587 -0.2531 -0.8976  1.3003
 2857TIP3   OH230205   2.421   4.660   2.432  0.0281 -1.2124  0.1748
 2857TIP3    H130206   2.483   4.635   2.363 -0.3007 -0.0341 -0.5757
 2857TIP3    H230207   2.336   4.630   2.400 -0.8928  3.1961 -2.1993
 2858TIP3   OH230208   5.720   1.283   1.667  0.1372  0.0221  0.0682
 2858TIP3    H130209   5.771   1.262   1.746 -1.2143 -1.6088  0.5772
 2858TIP3    H230210   5.667   1.205   1.652 -1.3608  1.2020 -1.0984
 2859TIP3   OH230211   3.663   1.539   0.196  0.1091 -0.1330  0.3419
 2859TIP3    H130212   3.637   1.476   0.129  0.9960 -0.8015  0.6117
 2859TIP3    H230213   3.596   1.531   0.264 -1.2488  1.1149 -0.7695
 2860TIP3   OH230214   6.093   1.622   4.460 -0.1149 -0.2041 -0.2772
 2860TIP3    H130215   6.164   1.563   4.481 -0.8657 -1.0397 -0.0418
 2860TIP3    H230216   6.042   1.628   4.541 -1.2402 -0.9403 -0.9070
 2861TIP3   OH230217   1.017   5.841   8.724 -0.1794  0.0657 -0.5791
 2861TIP3    H130218   1.051   5.784   8.792 -0.5514  0.7938  0.2358
 2861TIP3    H230219   1.077   5.916   8.723  0.6390 -0.5613 -2.0295
 2862TIP3   OH230220   6.218   2.089   2.809  0.3903  0.4602  0.8862
 2862TIP3    H130221   6.294   2.069   2.754  0.2168  1.3407  0.3099
 2862TIP3    H230222   6.173   2.160   2.763 -1.3453 -0.6998  0.6747
 2863TIP3   OH230223   6.419   6.703   2.066  0.2564 -0.0821 -0.5128
 2863TIP3    H130224   6.354   6.773   2.059  1.0844  0.7226 -0.3207
 2863TIP3    H230225   6.476   6.730   2.138 -0.2872 -1.7005  0.5751
 2864TIP3   OH230226   6.590   2.791   1.339  0.1990  0.0456  0.4627
 2864TIP3    H130227   6.612   2.783   1.247 -1.3805  1.8473 -0.1240
 2864TIP3    H230228   6.495   2.797   1.341  0.1618 -0.4509  2.2674
 2865TIP3   OH230229   3.169   3.008   0.145  0.1786  0.2510 -0.3681
 2865TIP3    H130230   3.263   2.993   0.144 -0.1155 -2.0988  0.6652
 2865TIP3    H230231   3.131   2.921   0.133 -1.8660  0.9937  0.2999
 2866TIP3   OH230232   6.697   2.740   0.189  0.2910  0.3422 -0.8106
 2866TIP3    H130233   6.748   2.813   0.152  0.2443  0.4520 -0.6600
 2866TIP3    H230234   6.719   2.665   0.134  1.8085  0.0166  0.1630
 2867TIP3   OH230235   6.876   5.700   1.949 -0.3057 -0.2633 -0.0376
 2867TIP3    H130236   6.911   5.689   1.861 -2.8133 -1.9363 -0.9446
 2867TIP3    H230237   6.781   5.709   1.937 -0.5874  0.9239  2.4132
 2868TIP3   OH230238   1.491   3.125   0.141  0.5496  0.2809  0.5035
 2868TIP3    H130239   1.511   3.218   0.154  0.6086  0.4067 -0.4237
 2868TIP3    H230240   1.558   3.079   0.192  1.1095  0.7431  0.2008
 2869TIP3   OH230241   4.745   5.601   3.256 -0.0959 -0.9109  0.6553
 2869TIP3    H130242   4.788   5.656   3.191 -0.5367  1.5112  2.2999
 2869TIP3    H230243   4.815   5.549   3.295  0.8047  0.4087  0.8504
 2870TIP3   OH230244   4.207   3.573   2.290  0.5162 -0.0281 -0.9361
 2870TIP3    H130245   4.151   3.510   2.245  1.6856 -0.6176 -1.6219
 2870TIP3    H230246   4.211   3.648   2.230  1.3246 -0.4365 -1.4142
 2871TIP3   OH230247   0.454   5.848   2.999 -0.3961  0.0535  0.4419
 2871TIP3    H130248   0.363   5.843   2.971  0.0122  0.1916 -0.9683
 2871TIP3    H230249   0.471   5.941   3.011 -0.2407  0.0836 -0.0001
 2872TIP3   OH230250   0.091   6.760   0.692  0.0660  0.0160 -0.3323
 2872TIP3    H130251   0.037   6.681   0.695  0.4054 -0.2261 -0.5147
 2872TIP3    H230252   0.029   6.832   0.705 -0.1055 -0.3355  0.9165
 2873TIP3   OH230253   5.726   5.167   1.808 -0.0824 -0.0834 -0.3483
 2873TIP3    H130254   5.769   5.253   1.805 -0.1685 -0.0582 -1.4694
 2873TIP3    H230255   5.679   5.166   1.891 -1.8028  1.8208 -1.2053
 2874TIP3   OH230256   2.932   2.493   2.631 -0.2625  0.1689  0.0007
 2874TIP3    H130257   3.017   2.455   2.610  0.3990 -0.1198  2.8253
 2874TIP3    H230258   2.873   2.418   2.637 -0.6299  0.3175 -1.3627
 2875TIP3   OH230259   5.623   5.061   2.762 -0.0888  0.0999 -0.2642
 2875TIP3    H130260   5.691   5.078   2.696  0.0498  2.9480  0.4671
 2875TIP3    H230261   5.662   5.089   2.844 -1.5995  0.2539  0.4283
 2876TIP3   OH230262   6.172   1.128   2.481  0.1955 -0.4266  0.0230
 2876TIP3    H130263   6.101   1.155   2.422 -1.5709 -2.0980  1.3018
 2876TIP3    H230264   6.222   1.064   2.430 -0.4470 -0.7768 -0.1794
 2877TIP3   OH230265   6.221   2.347   2.700  0.0108  1.0929 -0.6053
 2877TIP3    H130266   6.238   2.309   2.614  0.8887 -0.9133  0.3913
 2877TIP3    H230267   6.196   2.437   2.682  0.1017  0.6979 -2.9581
 2878TIP3   OH230268   1.630   2.881   2.601  0.2136 -0.3529 -0.5434
 2878TIP3    H130269   1.590   2.917   2.680  1.3683 -1.3468  0.5303
 2878TIP3    H230270   1.556   2.856   2.546 -0.6184 -0.4878  0.6044
 2879TIP3   OH230271   2.032   6.155   8.248  0.0688  0.1405  0.1640
 2879TIP3    H130272   2.121   6.123   8.236 -0.4600 -1.5381  0.4556
 2879TIP3    H230273   1.977   6.092   8.201 -1.0795  0.2667  1.2788
 2880TIP3   OH230274   3.131   5.260   0.810  0.0611 -0.5057  0.0906
 2880TIP3    H130275   3.056   5.242   0.753 -0.0841 -1.5515  0.5789
 2880TIP3    H230276   3.105   5.225   0.895  1.4477 -1.7539  0.0427
 2881TIP3   OH230277   5.407   6.149   8.655  0.2170 -0.3937  0.0281
 2881TIP3    H130278   5.323   6.116   8.687  0.4306  0.5152  1.6291
 2881TIP3    H230279   5.385   6.196   8.575 -1.0466  0.9902  1.1377
 2882TIP3   OH230280   2.726   5.226   1.956 -0.2317 -0.1699  0.0242
 2882TIP3    H130281   2.697   5.154   2.011 -0.9269  0.5836  0.6647
 2882TIP3    H230282   2.772   5.183   1.883  0.9625 -1.1759  1.3070
 2883TIP3   OH230283   4.067   4.928   8.079 -0.4783 -0.5977  0.2359
 2883TIP3    H130284   4.081   5.005   8.024 -2.4857 -0.5380 -0.2472
 2883TIP3    H230285   3.986   4.946   8.125 -0.7731 -2.2614  0.4144
 2884TIP3   OH230286   3.147   4.965   1.154 -0.4854 -0.1602  0.4634
 2884TIP3    H130287   3.170   4.925   1.070 -0.4928 -1.1642  0.9118
 2884TIP3    H230288   3.232   4.984   1.195 -0.4819  0.2731  0.2592
 2885TIP3   OH230289   4.149   1.609   8.665  0.0380  0.5122  0.8666
 2885TIP3    H130290   4.089   1.649   8.601  0.8905 -1.6620 -1.4388
 2885TIP3    H230291   4.224   1.669   8.667 -0.2788  0.9436  0.3214
 2886TIP3   OH230292   3.060   2.386   8.633 -0.1236  0.1417  0.1430
 2886TIP3    H130293   3.110   2.450   8.582 -1.7268  0.5937 -0.9548
 2886TIP3    H230294   3.014   2.333   8.567  0.5501 -1.6740  1.0482
 2887TIP3   OH230295   0.903   1.846   1.717  0.2349  0.0463 -0.7891
 2887TIP3    H130296   0.971   1.860   1.782 -0.2939  0.6088 -0.3423
 2887TIP3    H230297   0.877   1.934   1.689 -1.1742 -0.0913 -0.0294
 2888TIP3   OH230298   2.029   6.186   0.971 -0.1851 -0.1074  0.1568
 2888TIP3    H130299   2.078   6.260   0.934 -0.2239  0.3819  1.0576
 2888TIP3    H230300   2.077   6.108   0.942 -1.4753  0.0741 -2.8410
 2889TIP3   OH230301   6.119   2.577   3.429  0.1046  0.0410 -0.7821
 2889TIP3    H130302   6.149   2.548   3.342  0.3745 -1.2822 -0.2772
 2889TIP3    H230303   6.023   2.576   3.423  0.0124 -2.7547 -0.3035
 2890TIP3   OH230304   4.190   6.754   0.118  0.2413 -0.3380 -0.0910
 2890TIP3    H130305   4.134   6.765   0.195  0.4498  0.2175 -0.0082
 2890TIP3    H230306   4.279   6.761   0.152  0.3284  0.6819 -0.4746
 2891TIP3   OH230307   6.014   2.469   4.164  0.5570  0.3155 -0.2523
 2891TIP3    H130308   6.065   2.509   4.234  0.7622 -0.2147 -0.0919
 2891TIP3    H230309   5.986   2.542   4.109 -1.8297  1.0847  1.8022
 2892TIP3   OH230310   3.253   0.910   3.059 -0.0390 -0.0915 -0.1252
 2892TIP3    H130311   3.256   0.821   3.092 -1.0635  0.1318  0.6248
 2892TIP3    H230312   3.341   0.944   3.073 -0.2896 -0.1905  1.9206
 2893TIP3   OH230313   2.722   6.486   0.709  0.6899 -0.4829 -0.3588
 2893TIP3    H130314   2.648   6.504   0.768  1.2914 -0.5776  0.4495
 2893TIP3    H230315   2.682   6.475   0.623 -0.3566 -1.5477  0.2393
 2894TIP3   OH230316   1.851   1.387   1.608  0.2409 -0.4711 -0.7341
 2894TIP3    H130317   1.822   1.470   1.571 -2.7448 -0.8519  0.4923
 2894TIP3    H230318   1.828   1.322   1.542 -0.7987 -0.6744 -0.1815
 2895TIP3   OH230319   2.759   4.514   1.241 -0.2923 -0.2137  0.5851
 2895TIP3    H130320   2.747   4.439   1.183  3.0889 -0.2994 -0.2451
 2895TIP3    H230321   2.762   4.590   1.183 -1.9012  0.3930  1.2364
 2896TIP3   OH230322   2.108   6.509   0.084 -0.0429  0.4780 -0.0157
 2896TIP3    H130323   2.040   6.495   0.019  0.1221 -0.2902 -0.0292
 2896TIP3    H230324   2.073   6.472   0.165  0.3743  0.0283 -0.0343
 2897TIP3   OH230325   2.552   3.720   1.092  0.4916  0.2453 -0.0201
 2897TIP3    H130326   2.616   3.736   1.162  1.4690 -2.7976 -0.0855
 2897TIP3    H230327   2.567   3.790   1.029  3.4914 -0.0597  0.2027
 2898TIP3   OH230328   1.966   0.219   0.629  0.1190  0.1532  0.0242
 2898TIP3    H130329   1.912   0.157   0.580  0.9661 -0.3913 -0.2251
 2898TIP3    H230330   1.904   0.285   0.660 -0.7811 -0.7552  0.2057
 2899TIP3   OH230331   3.943   1.578   1.617  0.2455  0.5903 -0.7142
 2899TIP3    H130332   4.010   1.619   1.672 -1.5200  1.9608  0.4960
 2899TIP3    H230333   3.910   1.505   1.670 -1.4255  1.8843  0.0992
 2900TIP3   OH230334   5.760   5.762   0.122 -0.1419 -0.3511  0.3301
 2900TIP3    H130335   5.707   5.815   0.063  0.2974 -0.2604  0.0108
 2900TIP3    H230336   5.699   5.732   0.189 -0.2474  1.2214  0.9764
 2901TIP3   OH230337   3.597   0.092   8.052  0.0532  0.8980  0.1113
 2901TIP3    H130338   3.600   0.152   8.127 -1.2897  1.0813  0.0409
 2901TIP3    H230339   3.640   0.140   7.981 -0.7192  1.6528  0.1453
 2902TIP3   OH230340   4.004   5.590   2.099 -0.1193 -0.1109  0.4727
 2902TIP3    H130341   3.925   5.573   2.048 -1.4150  0.3391  2.2649
 2902TIP3    H230342   4.034   5.504   2.127 -0.5325 -0.2183  0.5879
 2903TIP3   OH230343   0.795   3.112   3.695 -0.2927  0.1641 -0.8519
 2903TIP3    H130344   0.846   3.044   3.652  2.2814  0.2441  1.7414
 2903TIP3    H230345   0.724   3.066   3.739 -0.2133 -0.4727 -1.3840
 2904TIP3   OH230346   2.114   3.181   8.594  0.2741  0.3702  0.0446
 2904TIP3    H130347   2.114   3.126   8.672  1.8465  0.5054  0.1803
 2904TIP3    H230348   2.076   3.125   8.526 -1.8072  0.5099  1.0266
 2905TIP3   OH230349   5.661   3.373   3.079  0.2077  0.2279 -0.1088
 2905TIP3    H130350   5.661   3.306   3.010 -3.6581 -1.7891  1.5577
 2905TIP3    H230351   5.626   3.451   3.036  0.4954 -0.1261 -1.0282
 2906TIP3   OH230352   0.484   4.953   1.492  0.1865 -0.2932  0.3717
 2906TIP3    H130353   0.559   4.903   1.526  0.1227 -0.2413  0.5883
 2906TIP3    H230354   0.471   5.023   1.556 -0.5721 -0.7914  0.7780
 2907TIP3   OH230355   1.464   0.343   2.101  0.1182 -0.3864 -0.1333
 2907TIP3    H130356   1.506   0.424   2.132 -1.1216  0.2568 -0.0570
 2907TIP3    H230357   1.485   0.278   2.167 -1.2464  0.6026  1.3619
 2908TIP3   OH230358   4.372   5.135   0.032  0.5242 -0.2430 -0.4783
 2908TIP3    H130359   4.352   5.055   0.082 -1.0240  0.6506  0.4109
 2908TIP3    H230360   4.412   5.194   0.096  0.1003  0.2956 -0.7045
 2909TIP3   OH230361   5.275   2.723   8.597  0.4273  0.7940 -0.0630
 2909TIP3    H130362   5.276   2.719   8.501 -0.3118 -0.8704 -0.0435
 2909TIP3    H230363   5.361   2.690   8.623 -0.9100 -3.3618 -0.1758
 2910TIP3   OH230364   2.861   3.611   0.748 -0.4809  0.3264  0.5817
 2910TIP3    H130365   2.822   3.662   0.819 -0.4720  3.2423 -1.3202
 2910TIP3    H230366   2.806   3.629   0.672  1.9378  0.9256 -1.1457
 2911TIP3   OH230367   4.594   5.674   1.382 -0.1399 -0.6993 -0.2289
 2911TIP3    H130368   4.672   5.651   1.331 -0.4275 -1.7072 -0.2424
 2911TIP3    H230369   4.592   5.770   1.380  1.1760 -0.6434 -0.0988
 2912TIP3   OH230370   6.344   5.680   3.205 -0.0344  0.1078 -0.2187
 2912TIP3    H130371   6.404   5.607   3.190 -0.9684 -0.8153  0.3996
 2912TIP3    H230372   6.385   5.731   3.275  0.3597 -0.1264 -0.2756
 2913TIP3   OH230373   1.228   1.523   3.000 -0.3235  0.2356 -0.3688
 2913TIP3    H130374   1.278   1.463   2.946  0.3808  0.3704  0.1181
 2913TIP3    H230375   1.137   1.512   2.972 -0.0522 -0.2042 -1.0769
 2914TIP3   OH230376   1.343   6.684   2.374 -0.4602  0.1237  0.2301
 2914TIP3    H130377   1.291   6.628   2.432  0.0363  0.5028  1.0563
 2914TIP3    H230378   1.392   6.623   2.319  1.2252 -0.3691  2.1208
 2915TIP3   OH230379   0.865   4.974   2.686 -0.2533  0.3719  0.0475
 2915TIP3    H130380   0.833   4.958   2.597  1.9544 -0.3754 -0.6674
 2915TIP3    H230381   0.946   4.924   2.693 -0.8058 -0.3318  2.8250
 2916TIP3   OH230382   0.087   3.303   1.831 -0.5289  0.7502  0.3817
 2916TIP3    H130383   0.163   3.274   1.883  0.7899 -0.5440 -2.0638
 2916TIP3    H230384   0.051   3.222   1.795 -1.2786  1.6052 -0.8515
 2917TIP3   OH230385   3.501   5.511   1.696 -0.0569 -0.0819 -0.4177
 2917TIP3    H130386   3.490   5.568   1.620  0.3233  1.5944  0.7144
 2917TIP3    H230387   3.419   5.520   1.745  1.2379  2.3920  1.5515
 2918TIP3   OH230388   4.502   0.983   1.619 -0.3286 -0.3262 -0.0112
 2918TIP3    H130389   4.554   1.004   1.697 -0.1936  1.4470 -0.5464
 2918TIP3    H230390   4.440   0.916   1.650 -0.0905  0.1166  1.5427
 2919TIP3   OH230391   0.697   1.804   8.138  0.6139 -0.2526 -0.9421
 2919TIP3    H130392   0.788   1.827   8.117  0.6499 -0.4191 -0.9675
 2919TIP3    H230393   0.650   1.888   8.133  1.0040  0.0665  0.4058
 2920TIP3   OH230394   3.750   3.776   1.840 -0.2501  0.6542 -0.4753
 2920TIP3    H130395   3.661   3.801   1.864  0.4350  2.8651  0.0428
 2920TIP3    H230396   3.787   3.737   1.919 -0.6939 -0.0790 -0.6299
 2921TIP3   OH230397   5.630   3.819   4.180 -1.0049  0.1123  0.0350
 2921TIP3    H130398   5.535   3.810   4.178 -0.9653 -2.3909 -4.1945
 2921TIP3    H230399   5.662   3.739   4.222 -0.7401  0.6207  0.8185
 2922TIP3   OH230400   3.501   4.068   1.974  0.1595  0.1239  0.5355
 2922TIP3    H130401   3.558   4.064   2.050 -0.6344  0.3502  1.1530
 2922TIP3    H230402   3.495   3.977   1.944 -1.9147 -0.4893  2.5723
 2923TIP3   OH230403   6.280   1.101   3.998 -0.4417 -0.0230 -0.2236
 2923TIP3    H130404   6.218   1.167   3.968  0.4747  0.7994 -0.3568
 2923TIP3    H230405   6.366   1.141   3.984  0.0957 -0.8066  0.7413
 2924TIP3   OH230406   1.841   4.550   0.637 -0.0133 -0.3358  0.1478
 2924TIP3    H130407   1.865   4.475   0.693  0.9480  0.4102  0.7710
 2924TIP3    H230408   1.760   4.523   0.595 -0.0836 -1.4389  0.9351
 2925TIP3   OH230409   6.341   1.285   2.931  0.1642 -0.0273  0.1020
 2925TIP3    H130410   6.395   1.222   2.979 -0.4157 -0.4124  0.2533
 2925TIP3    H230411   6.252   1.266   2.958 -0.2591 -0.7101 -1.6163
 2926TIP3   OH230412   5.706   0.277   1.634  0.2175 -0.5889 -0.1991
 2926TIP3    H130413   5.784   0.224   1.616 -0.3199 -1.2943 -0.4821
 2926TIP3    H230414   5.655   0.224   1.696  0.6530  0.5174  1.1803
 2927TIP3   OH230415   2.848   3.682   1.040 -0.2991 -0.2270 -0.1566
 2927TIP3    H130416   2.812   3.761   1.080 -1.4260 -1.2174  0.8881
 2927TIP3    H230417   2.943   3.694   1.044 -0.4452  1.3952 -0.7390
 2928TIP3   OH230418   3.300   1.680   2.009 -0.0581  1.1450  0.1373
 2928TIP3    H130419   3.270   1.681   2.100  1.0996  0.0541  0.5649
 2928TIP3    H230420   3.240   1.620   1.965  0.4950  0.1832  0.6404
 2929TIP3   OH230421   2.254   1.826   0.117 -0.3956 -0.7871  0.3328
 2929TIP3    H130422   2.268   1.840   0.023 -1.1610 -2.3177 -0.0396
 2929TIP3    H230423   2.159   1.817   0.126 -0.2478 -1.6874  1.0893
 2930TIP3   OH230424   2.692   2.045   3.265  0.2517  0.0023 -0.1231
 2930TIP3    H130425   2.785   2.064   3.277  0.0169  1.4572 -0.4059
 2930TIP3    H230426   2.686   2.011   3.176  0.4133  0.6383 -0.3799
 2931TIP3   OH230427   2.114   0.910   0.510 -0.2104 -0.4621 -0.3090
 2931TIP3    H130428   2.123   0.998   0.545  0.9535 -0.4401 -0.6255
 2931TIP3    H230429   2.182   0.859   0.554  0.6247 -0.6599 -1.7525
 2932TIP3   OH230430   0.494   3.895   3.658 -0.7598  0.3583  0.1328
 2932TIP3    H130431   0.581   3.862   3.634 -1.0652 -0.5530  0.2387
 2932TIP3    H230432   0.499   3.908   3.753 -1.4130 -1.9469  0.5667
 2933TIP3   OH230433   2.230   5.824   3.407 -0.0575 -0.0973 -0.4497
 2933TIP3    H130434   2.241   5.917   3.424 -0.0727  0.1591 -1.7454
 2933TIP3    H230435   2.306   5.783   3.450  0.8143  0.6826 -1.1978
 2934TIP3   OH230436   2.920   1.536   0.154  0.0467  0.1966  0.0677
 2934TIP3    H130437   2.862   1.511   0.082 -1.3265  1.9368  0.5060
 2934TIP3    H230438   2.899   1.476   0.225  0.0072 -0.2645 -0.3306
 2935TIP3   OH230439   3.874   4.978   2.819 -0.2400  0.0151  0.2335
 2935TIP3    H130440   3.814   5.049   2.795  0.0115  0.3689  0.6289
 2935TIP3    H230441   3.928   5.015   2.889 -0.4320 -0.7317  0.7897
 2936TIP3   OH230442   1.418   0.931   0.509  0.2599 -0.2081 -0.4912
 2936TIP3    H130443   1.466   0.991   0.452  0.5087  0.9451  0.8544
 2936TIP3    H230444   1.416   0.848   0.462  1.5311  0.3625 -1.6094
 2937TIP3   OH230445   4.114   3.605   4.056 -0.3262 -0.5205  0.2232
 2937TIP3    H130446   4.115   3.638   3.966 -0.2641  0.5414  0.5917
 2937TIP3    H230447   4.121   3.510   4.047  1.1899 -0.3418 -0.8392
 2938TIP3   OH230448   0.457   2.305   1.433  0.3162 -0.5549  0.5149
 2938TIP3    H130449   0.374   2.332   1.392  0.0158  1.1786  2.1498
 2938TIP3    H230450   0.499   2.250   1.366 -2.6913 -2.6226  0.0731
 2939TIP3   OH230451   5.411   5.025   0.696 -0.0587  0.3901 -0.5246
 2939TIP3    H130452   5.432   4.973   0.619  2.0703 -0.0289  0.2821
 2939TIP3    H230453   5.326   4.991   0.725 -0.4981 -0.0060 -2.1685
 2940TIP3   OH230454   0.073   5.346   1.881  0.0597  0.0482  0.7477
 2940TIP3    H130455   0.165   5.368   1.868 -0.1222  0.3342 -0.0977
 2940TIP3    H230456   0.050   5.292   1.806 -1.3758  2.8434 -1.0168
 2941TIP3   OH230457   5.521   4.165   0.142 -0.3289  0.4907 -0.2568
 2941TIP3    H130458   5.453   4.232   0.138  0.2435  1.1321  0.4405
 2941TIP3    H230459   5.548   4.165   0.234 -1.4024 -1.7999  0.1377
 2942TIP3   OH230460   3.550   1.896   8.297  0.3515 -0.0042 -0.8832
 2942TIP3    H130461   3.508   1.812   8.315  0.2912  0.1061 -0.5063
 2942TIP3    H230462   3.554   1.940   8.382  0.7628  0.2026 -1.0080
 2943TIP3   OH230463   5.132   1.823   4.202 -0.4589 -0.2446 -0.1912
 2943TIP3    H130464   5.038   1.835   4.211 -0.3042 -0.0752  1.3309
 2943TIP3    H230465   5.150   1.740   4.246  0.0316 -0.5803 -1.0000
 2944TIP3   OH230466   6.301   0.313   8.575  0.0325 -0.1812 -0.1952
 2944TIP3    H130467   6.340   0.329   8.489  0.3748 -0.7048 -0.1410
 2944TIP3    H230468   6.314   0.219   8.591  0.0083 -0.0842  0.4437
 2945TIP3   OH230469   0.750   1.011   3.215  0.2418 -0.4480  0.7718
 2945TIP3    H130470   0.802   1.079   3.172  0.4096 -1.3969 -0.5693
 2945TIP3    H230471   0.799   0.930   3.199 -0.8559 -1.1339  0.8356
 2946TIP3   OH230472   0.801   1.440   2.280  0.2692  0.1888 -0.6620
 2946TIP3    H130473   0.859   1.482   2.345  0.0184 -0.4395 -0.0188
 2946TIP3    H230474   0.861   1.402   2.216  0.5495  0.0684 -0.3296
 2947TIP3   OH230475   1.341   1.452   0.256  0.7599  0.6856  0.1664
 2947TIP3    H130476   1.368   1.517   0.321  0.2795  2.1081 -1.0214
 2947TIP3    H230477   1.246   1.455   0.258  0.6746  2.7093 -2.4262
 2948TIP3   OH230478   2.792   0.942   2.598  0.2448  0.0449  0.0831
 2948TIP3    H130479   2.827   0.937   2.687 -0.7358 -1.2806  0.4376
 2948TIP3    H230480   2.760   0.853   2.581 -1.1899  0.7242 -0.9143
 2949TIP3   OH230481   5.343   0.266   2.229 -0.0787  0.1295 -0.2580
 2949TIP3    H130482   5.339   0.361   2.227  2.6050  0.3838  1.6029
 2949TIP3    H230483   5.432   0.244   2.202 -0.1690 -1.7486  0.7523
 2950TIP3   OH230484   1.992   3.588   2.352 -0.0322  0.4607  0.1853
 2950TIP3    H130485   1.993   3.587   2.448  3.7488  2.8142  0.3375
 2950TIP3    H230486   2.050   3.517   2.326  0.0537  0.7090 -0.3214
 2951TIP3   OH230487   1.258   2.720   3.413  0.1534 -0.0410 -0.1339
 2951TIP3    H130488   1.278   2.797   3.466  0.9161 -0.2070 -0.1657
 2951TIP3    H230489   1.327   2.718   3.347 -1.9607  1.4417 -2.6094
 2952TIP3   OH230490   5.324   6.839   3.010 -0.1123  0.4510 -0.1741
 2952TIP3    H130491   5.325   6.747   2.983  0.9739  0.4953 -0.3434
 2952TIP3    H230492   5.241   6.873   2.978 -1.4447 -0.9490  1.5942
 2953TIP3   OH230493   4.889   3.580   1.576  0.1653  0.8484 -0.3240
 2953TIP3    H130494   4.804   3.546   1.548 -0.0910  1.0486  0.1907
 2953TIP3    H230495   4.952   3.514   1.549 -0.0291  1.1745 -1.6438
 2954TIP3   OH230496   3.508   6.348   1.436 -0.1153 -0.1259  0.1146
 2954TIP3    H130497   3.542   6.409   1.501 -0.5951 -0.9696  1.1957
 2954TIP3    H230498   3.582   6.292   1.413 -0.1920 -0.5009  0.7492
 2955TIP3   OH230499   1.592   2.377   1.808  0.2920 -0.5209  0.4522
 2955TIP3    H130500   1.507   2.357   1.847  0.4056  1.5157  1.8658
 2955TIP3    H230501   1.620   2.458   1.850  2.2806 -0.3499 -1.0473
 2956TIP3   OH230502   2.865   3.072   3.050 -0.5843 -0.2355 -0.2817
 2956TIP3    H130503   2.894   2.984   3.076  0.2384 -0.1067 -0.7477
 2956TIP3    H230504   2.773   3.060   3.025 -0.7768 -0.7636  0.6245
 2957TIP3   OH230505   3.749   6.358   1.167 -0.4452 -0.3362  0.1358
 2957TIP3    H130506   3.753   6.282   1.226  0.5649  0.0721  0.6217
 2957TIP3    H230507   3.840   6.389   1.163 -0.9940  1.4482  0.7579
 2958TIP3   OH230508   4.880   5.509   2.821 -0.5006 -0.2013  0.6950
 2958TIP3    H130509   4.809   5.547   2.769 -0.1614  1.4885  1.4019
 2958TIP3    H230510   4.861   5.535   2.911  0.0861 -1.2409  1.1392
 2959TIP3   OH230511   1.815   0.655   2.051 -0.7363 -0.2300  0.3432
 2959TIP3    H130512   1.836   0.715   1.979  0.1153  1.0816  1.6314
 2959TIP3    H230513   1.784   0.576   2.008  0.2008  0.3408 -1.4717
 2960TIP3   OH230514   2.276   0.956   2.547 -0.1651  0.1609  0.6333
 2960TIP3    H130515   2.214   0.983   2.615  0.7688 -0.4676  1.7594
 2960TIP3    H230516   2.359   0.945   2.593  0.4739 -0.3290 -0.6081
 2961TIP3   OH230517   3.544   1.441   0.488  0.1347 -0.2514  0.2024
 2961TIP3    H130518   3.629   1.404   0.512  0.0355 -0.6695 -0.0845
 2961TIP3    H230519   3.484   1.366   0.490  0.1776 -0.3721 -1.6614
 2962TIP3   OH230520   3.093   5.691   2.684  0.0341  0.2127 -0.1646
 2962TIP3    H130521   3.117   5.723   2.597 -0.2800 -0.9363 -0.6905
 2962TIP3    H230522   3.010   5.735   2.704  1.4787  2.6940  0.8261
 2963TIP3   OH230523   4.288   3.827   2.817 -0.1482 -0.3057 -0.3296
 2963TIP3    H130524   4.331   3.899   2.863 -0.1699 -0.3239 -0.2812
 2963TIP3    H230525   4.292   3.852   2.724 -0.6778  0.0365 -0.2607
 2964TIP3   OH230526   6.638   5.944   8.435  0.0591 -0.0502  0.3917
 2964TIP3    H130527   6.596   5.998   8.368 -2.1839  1.5775  2.9190
 2964TIP3    H230528   6.582   5.867   8.442  0.5179 -0.4095  0.1419
 2965TIP3   OH230529   5.864   1.559   0.439  0.5458 -0.2645 -0.4067
 2965TIP3    H130530   5.947   1.547   0.485  0.4220 -1.0505 -0.3692
 2965TIP3    H230531   5.842   1.472   0.406 -1.1559 -0.4549  1.0868
 2966TIP3   OH230532   5.967   4.827   2.182 -0.4907  0.1906  0.0166
 2966TIP3    H130533   5.878   4.842   2.150  0.1609  0.0821 -2.0033
 2966TIP3    H230534   6.020   4.892   2.136  0.4276  0.5085  1.4850
 2967TIP3   OH230535   1.317   6.104   2.536 -0.2586 -0.4456  0.1566
 2967TIP3    H130536   1.407   6.082   2.562 -0.9466 -1.4409  1.8436
 2967TIP3    H230537   1.267   6.102   2.618 -2.1531 -1.6288 -0.9539
 2968TIP3   OH230538   5.001   1.950   3.012  0.5324 -0.2565 -0.0179
 2968TIP3    H130539   5.049   1.912   3.085 -1.2183  0.7296  1.7576
 2968TIP3    H230540   4.914   1.967   3.047  0.3620  2.6439 -1.5518
 2969TIP3   OH230541   2.792   6.288   2.448  0.1307  0.0310 -0.0577
 2969TIP3    H130542   2.767   6.309   2.358 -0.2546 -0.2932 -0.0319
 2969TIP3    H230543   2.714   6.249   2.486  1.0192 -2.1782 -0.3546
 2970TIP3   OH230544   1.310   0.280   1.061 -0.3422  0.1867  0.5159
 2970TIP3    H130545   1.242   0.347   1.065 -0.7086 -0.1106 -0.4234
 2970TIP3    H230546   1.388   0.323   1.098 -0.6992  0.9744  0.3796
 2971TIP3   OH230547   1.488   3.093   0.841 -0.3218  0.0946 -0.2231
 2971TIP3    H130548   1.505   3.007   0.879 -1.8780 -0.5592 -0.9225
 2971TIP3    H230549   1.392   3.102   0.844 -0.2634  1.2824 -1.2697
 2972TIP3   OH230550   4.639   0.182   2.357 -0.7436 -0.0410  0.4580
 2972TIP3    H130551   4.596   0.201   2.274 -2.0416 -3.0111  0.3310
 2972TIP3    H230552   4.720   0.137   2.332  0.1314  1.2885  0.8016
 2973TIP3   OH230553   2.506   5.710   2.826  0.9942  0.5478  0.0264
 2973TIP3    H130554   2.575   5.706   2.760  1.8314  0.8775  0.8465
 2973TIP3    H230555   2.535   5.779   2.886  0.8825 -0.5418  1.3945
 2974TIP3   OH230556   1.163   1.018   2.536 -0.1315 -0.9612 -0.2696
 2974TIP3    H130557   1.214   1.034   2.456 -0.5889  1.1694 -0.2085
 2974TIP3    H230558   1.093   1.083   2.532  0.6147  0.1287  2.5308
 2975TIP3   OH230559   2.310   4.612   2.959  0.2495 -0.1687 -0.3460
 2975TIP3    H130560   2.398   4.646   2.939  1.3091 -1.9407  1.0255
 2975TIP3    H230561   2.290   4.553   2.886  0.4174 -0.1441 -0.4114
 2976TIP3   OH230562   4.877   0.776   0.883  0.6008  0.0657 -0.1632
 2976TIP3    H130563   4.847   0.845   0.824  1.8870  0.2697 -0.6111
 2976TIP3    H230564   4.967   0.799   0.903  1.3886 -1.9654 -1.0854
 2977TIP3   OH230565   3.887   5.681   3.786 -0.1803 -0.1939 -0.7106
 2977TIP3    H130566   3.978   5.687   3.757  0.2568  0.2443  0.6750
 2977TIP3    H230567   3.845   5.759   3.748  0.8207  1.3881  1.2611
 2978TIP3   OH230568   4.790   1.788   8.574  0.7289  0.4833  0.7290
 2978TIP3    H130569   4.856   1.857   8.569  1.8791 -0.6066  0.1214
 2978TIP3    H230570   4.833   1.711   8.535 -1.2969  0.0338 -0.8233
 2979TIP3   OH230571   6.748   1.632   0.451  0.7550  0.0024 -0.0046
 2979TIP3    H130572   6.731   1.718   0.489 -1.5523 -0.4207  0.0703
 2979TIP3    H230573   6.740   1.646   0.356 -0.7189 -0.2783  0.0468
 2980TIP3   OH230574   1.566   4.343   1.633 -0.0834 -0.0916 -0.1082
 2980TIP3    H130575   1.595   4.432   1.612 -0.6895  0.1583  0.1012
 2980TIP3    H230576   1.604   4.289   1.564  0.3703  0.3134 -0.1841
 2981TIP3   OH230577   1.629   4.091   2.860 -0.4476 -0.3114  0.2665
 2981TIP3    H130578   1.721   4.093   2.832  0.0103 -1.1774  1.5745
 2981TIP3    H230579   1.630   4.135   2.945 -1.2912 -0.1238  0.1803
 2982TIP3   OH230580   2.075   3.904   0.753  0.1305 -0.2524  0.4206
 2982TIP3    H130581   2.004   3.840   0.750  0.1384 -0.3715  1.9438
 2982TIP3    H230582   2.048   3.968   0.819 -0.3682  1.9928 -1.7884
 2983TIP3   OH230583   3.664   2.098   0.298  0.1276 -0.2696  0.4406
 2983TIP3    H130584   3.727   2.050   0.243  1.1032 -0.9257  2.0665
 2983TIP3    H230585   3.579   2.064   0.271  0.3613  0.9284 -2.1006
 2984TIP3   OH230586   5.087   2.625   1.659  0.2637  0.0442 -0.8297
 2984TIP3    H130587   5.021   2.558   1.644 -0.7356  1.1662 -1.6570
 2984TIP3    H230588   5.045   2.687   1.719  1.0115  0.1465 -0.4063
 2985TIP3   OH230589   1.475   5.451   1.312 -0.1313  0.3197  0.3300
 2985TIP3    H130590   1.490   5.372   1.362 -0.6756  0.1826  0.2886
 2985TIP3    H230591   1.442   5.420   1.227  2.3310  0.4599 -0.7688
 2986TIP3   OH230592   6.410   6.199   3.824  0.4251 -0.0968 -0.5869
 2986TIP3    H130593   6.327   6.240   3.799  0.4373 -0.1274 -0.6791
 2986TIP3    H230594   6.476   6.245   3.772  0.3974 -0.4824 -0.9667
 2987TIP3   OH230595   2.665   3.905   2.364 -0.3613 -0.2744  0.1208
 2987TIP3    H130596   2.626   3.948   2.287 -0.8568  1.1060  1.1057
 2987TIP3    H230597   2.685   3.977   2.424 -0.0468 -1.3357  1.3233
 2988TIP3   OH230598   3.662   5.765   8.515 -0.4839 -0.2730 -0.7495
 2988TIP3    H130599   3.695   5.702   8.450  4.3962 -0.0413  1.1198
 2988TIP3    H230600   3.663   5.717   8.598 -1.2762  0.9994  0.0321
 2989TIP3   OH230601   1.548   0.397   8.255 -0.2408  0.8677 -0.1080
 2989TIP3    H130602   1.599   0.450   8.317  1.2264  0.0087 -0.5540
 2989TIP3    H230603   1.611   0.368   8.190 -1.0335 -1.2953  0.0187
 2990TIP3   OH230604   5.355   5.555   0.590 -0.3066  0.3952 -0.6767
 2990TIP3    H130605   5.421   5.518   0.532  0.4003 -2.2335  1.6039
 2990TIP3    H230606   5.280   5.496   0.581 -0.7187  0.8073 -0.0036
 2991TIP3   OH230607   5.155   0.204   2.962 -0.0015  0.0796  0.0541
 2991TIP3    H130608   5.212   0.237   2.893  0.7827  1.2116  1.2026
 2991TIP3    H230609   5.199   0.229   3.043 -1.4715 -0.2067  0.9726
 2992TIP3   OH230610   1.792   2.145   3.187 -0.2408 -0.3094  0.1729
 2992TIP3    H130611   1.727   2.146   3.117  0.0781  3.4260 -0.2952
 2992TIP3    H230612   1.743   2.119   3.265 -2.2160  1.5927 -0.3205
 2993TIP3   OH230613   3.440   5.007   0.609  0.0037  0.1759 -0.2720
 2993TIP3    H130614   3.437   4.955   0.690 -2.2852  1.3821  0.4923
 2993TIP3    H230615   3.360   4.983   0.562  0.5253  0.6724 -1.4500
 2994TIP3   OH230616   4.809   4.104   2.447  0.1688  0.1590 -0.1712
 2994TIP3    H130617   4.866   4.088   2.522  0.0948  0.0941 -0.1291
 2994TIP3    H230618   4.722   4.115   2.485  0.2017  0.5765 -0.2051
 2995TIP3   OH230619   1.000   1.337   2.122  0.2781 -0.3088 -0.3624
 2995TIP3    H130620   0.991   1.358   2.029  1.7503 -0.1208 -0.4963
 2995TIP3    H230621   1.095   1.329   2.135  0.0992 -0.2638  1.1366
 2996TIP3   OH230622   5.044   5.840   1.179 -0.4643  0.1623  0.5029
 2996TIP3    H130623   5.109   5.814   1.244 -0.4295  0.6023  0.6463
 2996TIP3    H230624   5.077   5.923   1.144 -0.4240 -0.1301 -0.1545
 2997TIP3   OH230625   3.318   5.125   2.094  0.5325  0.0412  0.1870
 2997TIP3    H130626   3.388   5.167   2.045 -0.4042 -0.1497 -1.3783
 2997TIP3    H230627   3.363   5.067   2.155  1.7535  0.7289 -0.0437
 2998TIP3   OH230628   2.427   5.046   2.519  0.3141 -0.1988 -0.0622
 2998TIP3    H130629   2.442   5.031   2.425  2.1427  0.4336  0.0883
 2998TIP3    H230630   2.467   5.131   2.536 -1.6788  0.5917  0.9456
 2999TIP3   OH230631   0.582   2.609   2.302 -0.1938 -0.3440 -0.5789
 2999TIP3    H130632   0.517   2.540   2.313 -0.4519 -0.0252 -0.0869
 2999TIP3    H230633   0.663   2.562   2.282 -0.4646 -0.7654 -0.7122
 3000TIP3   OH230634   2.074   0.276   1.022  0.7351 -0.3881 -0.4986
 3000TIP3    H130635   2.094   0.219   0.948 -1.4065 -1.6356 -0.1979
 3000TIP3    H230636   2.100   0.363   0.993 -2.4050 -0.3342 -3.8837
 3001TIP3   OH230637   1.227   6.031   8.724 -0.2579 -0.3229  0.1088
 3001TIP3    H130638   1.293   6.008   8.790 -0.4863 -2.2627 -0.2740
 3001TIP3    H230639   1.210   6.124   8.739 -0.5056 -0.7286  2.9698
 3002TIP3   OH230640   6.079   1.557   4.005  0.1467 -0.0635  0.3259
 3002TIP3    H130641   6.121   1.643   4.014 -0.1566  0.1916 -0.5210
 3002TIP3    H230642   6.006   1.573   3.945 -1.0321 -0.5412  1.5961
 3003TIP3   OH230643   2.076   1.459   2.043 -0.9153 -0.1350  0.2830
 3003TIP3    H130644   2.170   1.445   2.056 -0.5079  2.7974  1.2576
 3003TIP3    H230645   2.062   1.444   1.949  0.5773 -0.3928  0.0786
 3004TIP3   OH230646   3.777   1.392   1.168  0.4765 -0.3487  0.2751
 3004TIP3    H130647   3.686   1.418   1.180  0.5218 -0.1390  0.1636
 3004TIP3    H230648   3.827   1.449   1.226  0.6034  0.0214 -0.1865
 3005TIP3   OH230649   5.657   6.272   1.433  0.3274  0.1110 -0.0840
 3005TIP3    H130650   5.596   6.258   1.506 -0.1354  2.7174  0.1426
 3005TIP3    H230651   5.738   6.231   1.462 -0.4851 -0.9002  0.8769
 3006TIP3   OH230652   1.127   2.063   2.973  0.5553  0.1707  0.2374
 3006TIP3    H130653   1.134   2.046   2.879 -0.5580  2.0780 -0.2522
 3006TIP3    H230654   1.049   2.015   3.000 -0.2191  1.1383 -0.2402
 3007TIP3   OH230655   1.896   6.374   1.651  0.0070  0.2917  0.3383
 3007TIP3    H130656   1.973   6.380   1.708 -1.2245 -2.9928  2.6657
 3007TIP3    H230657   1.870   6.282   1.656 -1.9150  0.4495 -3.3972
 3008TIP3   OH230658   3.331   5.182   2.433  0.2527 -0.4336 -0.3976
 3008TIP3    H130659   3.249   5.133   2.433  0.0288 -0.1796 -2.8731
 3008TIP3    H230660   3.399   5.115   2.434 -0.0378 -0.7741 -1.8206
 3009TIP3   OH230661   0.407   4.653   3.800  0.1807  0.3463  0.2953
 3009TIP3    H130662   0.367   4.730   3.839  0.5854  1.8897 -2.1443
 3009TIP3    H230663   0.335   4.609   3.754  0.0919 -0.3556  1.0889
 3010TIP3   OH230664   4.488   4.469   3.130 -0.2546 -0.1301 -0.1744
 3010TIP3    H130665   4.543   4.476   3.052 -1.0131  0.1335 -0.7024
 3010TIP3    H230666   4.467   4.559   3.153 -0.0728 -0.2094  0.3063
 3011TIP3   OH230667   6.795   4.608   2.654 -0.0010  0.0920  0.0739
 3011TIP3    H130668   6.873   4.553   2.649  0.5407  0.8214  0.3075
 3011TIP3    H230669   6.743   4.570   2.725 -1.1825 -2.0174 -1.7604
 3012TIP3   OH230670   5.661   5.719   2.610 -0.4732 -0.7446  0.3737
 3012TIP3    H130671   5.712   5.639   2.619  1.0904  0.0594 -0.7635
 3012TIP3    H230672   5.593   5.698   2.546  0.8470 -0.8059 -1.0756
 3013TIP3   OH230673   0.549   2.040   1.276  1.2237  0.0183  0.0634
 3013TIP3    H130674   0.539   2.031   1.371 -0.3444 -1.3402 -0.1937
 3013TIP3    H230675   0.495   1.971   1.239  0.0119  1.8926 -1.8886
 3014TIP3   OH230676   1.204   6.764   0.747 -0.0502 -0.6169 -0.0014
 3014TIP3    H130677   1.240   6.809   0.824 -1.7094  0.4816  0.1805
 3014TIP3    H230678   1.262   6.790   0.675 -0.7872  1.6230  0.1551
 3015TIP3   OH230679   5.814   2.247   1.373 -0.1458  0.1183  0.5737
 3015TIP3    H130680   5.798   2.289   1.458 -2.8654  2.3847 -0.9150
 3015TIP3    H230681   5.751   2.175   1.369 -1.0735  0.9543 -0.0985
 3016TIP3   OH230682   1.333   4.199   1.862  0.0561 -0.1675  0.1758
 3016TIP3    H130683   1.291   4.248   1.791  2.6254 -0.0558 -1.4222
 3016TIP3    H230684   1.419   4.239   1.871  0.2595 -0.9875  2.5816
 3017TIP3   OH230685   3.023   2.780   8.485  0.2838  0.4918 -0.2246
 3017TIP3    H130686   2.949   2.837   8.504 -0.0866 -0.2132  0.5072
 3017TIP3    H230687   3.097   2.822   8.529  0.0801  0.5802  0.0346
 3018TIP3   OH230688   3.630   3.921   8.672 -0.0904 -0.2396  0.4253
 3018TIP3    H130689   3.618   3.944   8.764 -0.1208 -1.8489  0.8455
 3018TIP3    H230690   3.717   3.956   8.650 -0.5465  1.1438  0.7104
 3019TIP3   OH230691   2.210   6.735   1.098 -0.4648  0.1568 -0.2906
 3019TIP3    H130692   2.203   6.819   1.144  0.1226 -0.1328  0.3455
 3019TIP3    H230693   2.260   6.679   1.158 -1.6953 -0.9614 -0.2623
 3020TIP3   OH230694   6.062   2.936   2.951  0.2056  0.2969 -0.2159
 3020TIP3    H130695   6.030   2.869   2.890  1.3408  0.1194 -0.6418
 3020TIP3    H230696   6.078   2.889   3.032  0.7239  0.0955 -0.4283
 3021TIP3   OH230697   4.443   3.215   2.186  0.0413  0.5459 -0.1421
 3021TIP3    H130698   4.512   3.188   2.125 -1.8790  0.2606 -2.2999
 3021TIP3    H230699   4.439   3.311   2.176 -1.0880  0.3926 -1.4727
 3022TIP3   OH230700   5.640   5.404   1.354 -0.6159  0.0666  0.1129
 3022TIP3    H130701   5.690   5.464   1.299  1.4618 -2.2635 -0.7305
 3022TIP3    H230702   5.687   5.321   1.348 -3.3792 -1.7179  1.1128
 3023TIP3   OH230703   4.829   6.115   0.158  0.2908 -0.4170 -0.3668
 3023TIP3    H130704   4.895   6.050   0.182  0.3254 -0.7792 -1.3755
 3023TIP3    H230705   4.847   6.133   0.065 -2.1559 -1.9567 -1.2541
 3024TIP3   OH230706   4.271   3.090   2.977  0.2866 -0.3408  0.2976
 3024TIP3    H130707   4.336   3.145   3.021  0.6341  0.3698 -1.0661
 3024TIP3    H230708   4.294   3.001   3.003 -0.1140  0.0889  2.3125
 3025TIP3   OH230709   1.188   2.158   0.753  0.8491 -0.2911  0.6166
 3025TIP3    H130710   1.127   2.154   0.680  0.3482 -1.1474  1.0638
 3025TIP3    H230711   1.134   2.141   0.830  1.8577 -2.5056  0.8958
 3026TIP3   OH230712   0.514   5.698   1.646  0.1491 -0.0053  0.1657
 3026TIP3    H130713   0.467   5.745   1.715  0.3054  0.6035 -0.1319
 3026TIP3    H230714   0.478   5.732   1.564 -0.1581 -0.8549 -0.0538
 3027TIP3   OH230715   2.212   0.249   0.454 -0.3525 -0.7758  0.8251
 3027TIP3    H130716   2.281   0.260   0.520 -0.6848 -0.1304  1.0769
 3027TIP3    H230717   2.131   0.264   0.502 -0.6318 -0.8403  0.3784
 3028TIP3   OH230718   1.388   6.737   0.330  0.0085  0.1803 -0.4058
 3028TIP3    H130719   1.375   6.730   0.235 -0.8471  3.8511 -0.7369
 3028TIP3    H230720   1.300   6.728   0.367 -0.0516  1.2722 -0.2514
 3029TIP3   OH230721   0.759   6.362   3.564 -0.0719  0.3958  0.1012
 3029TIP3    H130722   0.693   6.405   3.618 -0.6763 -0.2392 -0.1089
 3029TIP3    H230723   0.779   6.281   3.611 -2.5497 -1.4842 -1.8372
 3030TIP3   OH230724   4.578   5.052   2.329  0.2013 -0.0873  0.6403
 3030TIP3    H130725   4.598   5.039   2.237 -2.3191 -0.2741  0.0669
 3030TIP3    H230726   4.577   4.964   2.367  0.0587 -0.1147  0.5737
 3031TIP3   OH230727   6.668   5.600   0.977 -0.1803 -0.0550 -0.3757
 3031TIP3    H130728   6.632   5.683   0.946 -0.0315  0.0075 -0.3820
 3031TIP3    H230729   6.760   5.601   0.948  0.8319  1.2991  2.5222
 3032TIP3   OH230730   3.349   2.998   2.904  0.4771 -0.1492 -0.1405
 3032TIP3    H130731   3.334   3.023   2.995  1.9897  2.5648 -0.5414
 3032TIP3    H230732   3.356   3.081   2.857  2.5583 -1.4075 -2.2489
 3033TIP3   OH230733   0.518   3.491   3.574  0.1429  0.1824 -0.3654
 3033TIP3    H130734   0.553   3.402   3.562 -0.4363 -0.2929  1.1840
 3033TIP3    H230735   0.595   3.545   3.589  0.6032  0.1967 -2.5033
 3034TIP3   OH230736   6.569   5.227   2.124  0.1539 -0.0162  0.2753
 3034TIP3    H130737   6.651   5.179   2.116  1.1551  1.6198  0.3730
 3034TIP3    H230738   6.588   5.314   2.089 -1.5067  0.4405  0.4183
 3035TIP3   OH230739   3.958   0.669   1.494 -0.7264  0.9878 -0.0602
 3035TIP3    H130740   3.897   0.608   1.454 -0.1068  0.1732  0.1983
 3035TIP3    H230741   4.032   0.614   1.522 -0.2729  1.8155  0.4156
 3036TIP3   OH230742   4.097   4.665   0.947  0.4611 -0.1639 -0.2621
 3036TIP3    H130743   4.109   4.593   1.010 -0.7787 -1.7056 -1.6925
 3036TIP3    H230744   4.081   4.742   1.001  0.0783 -1.3044  1.3117
 3037TIP3   OH230745   3.798   4.426   3.400  0.2486  0.3326 -0.5893
 3037TIP3    H130746   3.703   4.416   3.411  0.5064 -2.3427  0.0314
 3037TIP3    H230747   3.808   4.488   3.329 -2.0005  0.1409 -1.1516
 3038TIP3   OH230748   4.085   3.138   2.024  0.4205 -0.0086  0.3324
 3038TIP3    H130749   4.083   3.050   2.062  0.2519  0.3042  1.0811
 3038TIP3    H230750   4.092   3.196   2.100 -1.4951  0.7310 -0.0016
 3039TIP3   OH230751   0.482   0.037   1.818 -0.1861  0.1745 -0.1772
 3039TIP3    H130752   0.474   0.061   1.726  1.5439  0.9744 -0.1585
 3039TIP3    H230753   0.400   0.066   1.858 -0.4686  0.8894 -1.2426
 3040TIP3   OH230754   6.613   3.266   3.084  0.4825 -0.0054  0.4359
 3040TIP3    H130755   6.607   3.186   3.136  2.7760 -1.2174 -0.9991
 3040TIP3    H230756   6.565   3.245   3.004 -1.4472  1.1860  1.2173
 3041TIP3   OH230757   3.522   4.072   3.386  0.4654  0.3098  0.1899
 3041TIP3    H130758   3.493   4.084   3.476  1.9820  1.5285  0.5686
 3041TIP3    H230759   3.557   4.158   3.361  1.3138 -0.3756 -1.0721
 3042TIP3   OH230760   1.891   2.587   1.759 -0.1881  0.4420 -0.4289
 3042TIP3    H130761   1.835   2.580   1.682  0.2019  2.4448 -0.9741
 3042TIP3    H230762   1.980   2.585   1.724  0.1994 -2.8671  0.4377
 3043TIP3   OH230763   3.891   5.774   0.983 -0.0814  0.5240  0.6010
 3043TIP3    H130764   3.845   5.815   1.057 -2.4216  0.3042 -0.6327
 3043TIP3    H230765   3.982   5.767   1.012 -0.9290  0.2275  3.5622
 3044TIP3   OH230766   3.360   5.079   1.289  0.0025  0.5549 -0.2216
 3044TIP3    H130767   3.438   5.097   1.341  1.1234 -0.2092 -1.5654
 3044TIP3    H230768   3.347   5.159   1.238 -0.1451  0.7195  0.0751
 3045TIP3   OH230769   6.294   6.610   2.927  0.2775 -0.0126 -0.5138
 3045TIP3    H130770   6.276   6.603   3.021  2.2505  0.6036 -0.0528
 3045TIP3    H230771   6.307   6.704   2.912 -1.4202  0.0758 -1.7213
 3046TIP3   OH230772   6.450   2.446   1.601 -0.3950 -0.4030  0.1010
 3046TIP3    H130773   6.434   2.372   1.659 -1.0182  0.6448  1.3107
 3046TIP3    H230774   6.363   2.479   1.579 -0.1223  0.4856  0.2857
 3047TIP3   OH230775   4.746   3.472   8.641  0.4101 -0.2220  0.3277
 3047TIP3    H130776   4.721   3.420   8.718 -0.4606  0.6179  0.6380
 3047TIP3    H230777   4.694   3.435   8.570 -1.2374  1.0148  0.8149
 3048TIP3   OH230778   4.256   3.173   0.765  0.9278  0.5559 -0.8842
 3048TIP3    H130779   4.211   3.196   0.684 -1.4394  0.5445  0.3399
 3048TIP3    H230780   4.266   3.256   0.811 -1.3771  0.1518  0.5012
 3049TIP3   OH230781   5.115   2.894   0.422 -0.4138  0.2754 -0.5438
 3049TIP3    H130782   5.102   2.938   0.339  0.9750 -0.0405 -0.9569
 3049TIP3    H230783   5.136   2.803   0.399 -0.4178  0.0831  0.1634
 3050TIP3   OH230784   4.425   2.705   0.991  0.3418 -0.3288 -0.0612
 3050TIP3    H130785   4.499   2.759   0.964  1.2530 -2.1540 -1.4092
 3050TIP3    H230786   4.361   2.716   0.920  0.5512 -1.0119 -0.3657
 3051TIP3   OH230787   2.196   3.042   0.253  0.1478 -1.2174 -0.1262
 3051TIP3    H130788   2.171   3.017   0.164  1.0173  0.0504 -0.7732
 3051TIP3    H230789   2.291   3.028   0.256  0.6379  1.4186 -0.4243
 3052TIP3   OH230790   2.747   0.103   8.240 -0.3403 -0.2413  0.5951
 3052TIP3    H130791   2.812   0.081   8.307  0.4424 -2.4183 -0.7882
 3052TIP3    H230792   2.741   0.025   8.185 -2.9536  0.4756 -0.3064
 3053TIP3   OH230793   1.560   0.032   8.317  0.4650 -0.1271 -0.3470
 3053TIP3    H130794   1.610  -0.037   8.274 -0.1884 -0.4028 -0.6863
 3053TIP3    H230795   1.476   0.033   8.271  0.0219  0.0770  0.4319
 3054TIP3   OH230796   3.832   3.452   8.052  0.7823 -0.2980  0.8847
 3054TIP3    H130797   3.869   3.537   8.030 -0.0797 -0.8399 -3.5490
 3054TIP3    H230798   3.904   3.404   8.093  2.9731  0.8695 -1.3793
 3055TIP3   OH230799   6.670   2.888   2.856 -0.3297 -0.6273  0.1512
 3055TIP3    H130800   6.752   2.905   2.902 -0.4621 -0.3268  0.2768
 3055TIP3    H230801   6.664   2.792   2.852  0.7352 -0.6669 -1.1341
 3056TIP3   OH230802   1.163   1.048   3.034 -0.4310  0.1119  0.8588
 3056TIP3    H130803   1.185   1.066   2.943 -1.2439  2.6052  1.0823
 3056TIP3    H230804   1.225   1.100   3.084 -0.1994 -0.9852  1.7367
 3057TIP3   OH230805   6.506   0.826   2.549 -0.0675 -0.1541 -0.2039
 3057TIP3    H130806   6.457   0.767   2.606  0.0356  0.7598  0.8675
 3057TIP3    H230807   6.543   0.891   2.609  0.3050  0.6510 -1.2911
 3058TIP3   OH230808   4.571   3.665   0.936 -0.1049  0.4584 -0.2164
 3058TIP3    H130809   4.512   3.691   0.865  1.0093  0.5274 -1.1378
 3058TIP3    H230810   4.617   3.588   0.903  1.0605  1.0086  0.0631
 3059TIP3   OH230811   5.182   3.926   1.254 -0.1027 -0.3922  0.2294
 3059TIP3    H130812   5.208   3.873   1.330  0.4677 -1.8415 -0.9126
 3059TIP3    H230813   5.136   3.864   1.197 -0.5247  0.6635 -0.6099
 3060TIP3   OH230814   3.225   4.840   2.037  0.2960 -1.0892 -0.2739
 3060TIP3    H130815   3.196   4.931   2.047  1.8595 -0.7716  2.2457
 3060TIP3    H230816   3.303   4.846   1.981  0.6022 -0.8083  0.1737
 3061TIP3   OH230817   6.689   2.184   2.690  0.6962 -0.2548  0.4891
 3061TIP3    H130818   6.750   2.141   2.631  0.4770  0.3091 -0.1652
 3061TIP3    H230819   6.606   2.138   2.677  0.3075  0.7143 -0.6599
 3062TIP3   OH230820   6.701   2.167   3.361  0.1006  0.3239  0.3228
 3062TIP3    H130821   6.674   2.257   3.343 -0.1253  0.1811 -0.0523
 3062TIP3    H230822   6.644   2.139   3.433 -0.3416  0.2304 -0.0588
 3063TIP3   OH230823   5.194   6.507   0.449 -0.5307  0.5511  0.2708
 3063TIP3    H130824   5.246   6.477   0.374  0.2061 -0.7633  1.2752
 3063TIP3    H230825   5.107   6.525   0.412  0.3070  1.7227 -1.2220
 3064TIP3   OH230826   6.720   5.191   0.371 -0.0786 -0.1246  0.1861
 3064TIP3    H130827   6.665   5.118   0.343  0.2261  0.2962 -1.6336
 3064TIP3    H230828   6.684   5.268   0.326  2.3587  0.0367 -1.7114
 3065TIP3   OH230829   0.567   6.836   3.036  0.3014 -0.3320 -0.0375
 3065TIP3    H130830   0.610   6.899   3.095  1.4797 -1.3638  0.2387
 3065TIP3    H230831   0.576   6.752   3.080 -2.1019 -0.6015  0.0522
 3066TIP3   OH230832   5.126   2.755   2.936  0.3077  0.1791 -0.0907
 3066TIP3    H130833   5.187   2.811   2.888  1.2537  0.3903  1.2918
 3066TIP3    H230834   5.045   2.758   2.885  1.2056  0.5176 -1.5548
 3067TIP3   OH230835   4.734   3.821   0.012  0.3616 -0.3616 -0.9178
 3067TIP3    H130836   4.711   3.784  -0.073 -0.2896 -0.7421 -0.5851
 3067TIP3    H230837   4.650   3.843   0.053  0.3817 -3.0960  0.9057
 3068TIP3   OH230838   0.626   2.486   0.728 -0.2656  0.5122  0.3718
 3068TIP3    H130839   0.683   2.525   0.662 -0.6168 -0.3708 -0.4865
 3068TIP3    H230840   0.651   2.528   0.810  1.4855  0.2912 -0.0122
 3069TIP3   OH230841   1.488   6.307   2.837 -0.2888  0.0519 -0.4941
 3069TIP3    H130842   1.571   6.319   2.790  0.2818 -0.1106  0.4486
 3069TIP3    H230843   1.513   6.300   2.929 -1.2804 -0.7448 -0.2594
 3070TIP3   OH230844   5.616   3.484   2.080  0.3943  0.2345  0.3126
 3070TIP3    H130845   5.700   3.442   2.061 -0.1498 -1.0066  0.5816
 3070TIP3    H230846   5.608   3.480   2.175 -1.1030 -2.0306  0.1824
 3071TIP3   OH230847   5.213   2.534   3.106 -0.1639  0.3877 -0.1620
 3071TIP3    H130848   5.149   2.467   3.083 -1.1248  1.0415  0.5209
 3071TIP3    H230849   5.175   2.616   3.074  0.5124  0.7337 -0.0959
 3072TIP3   OH230850   2.096   4.560   1.276  0.3698 -0.6533 -0.1172
 3072TIP3    H130851   2.100   4.633   1.338  2.3755 -1.4630  0.7998
 3072TIP3    H230852   2.035   4.498   1.316 -0.3347 -0.0483 -0.2507
 3073TIP3   OH230853   3.980   3.740   1.402  0.1383  0.0955 -0.3514
 3073TIP3    H130854   3.996   3.685   1.479  0.0836  2.5519  1.5715
 3073TIP3    H230855   4.055   3.800   1.400 -0.5828  0.9915 -1.3423
 3074TIP3   OH230856   5.245   2.725   3.378 -0.2264 -0.0728  0.3586
 3074TIP3    H130857   5.169   2.708   3.434 -2.9114  3.0065 -1.9163
 3074TIP3    H230858   5.286   2.802   3.415 -1.2135  1.1715 -1.0193
 3075TIP3   OH230859   5.533   2.485   1.651 -0.1872  0.5532  0.1488
 3075TIP3    H130860   5.440   2.482   1.630  0.1117 -0.9803 -1.2069
 3075TIP3    H230861   5.546   2.412   1.712  0.4980 -0.8847 -1.6205
 3076TIP3   OH230862   5.029   3.952   8.437 -0.3624 -0.4934 -0.4885
 3076TIP3    H130863   5.086   3.914   8.371  0.6663  0.7828 -0.3897
 3076TIP3    H230864   4.955   3.987   8.387 -0.6176 -1.3631 -0.7257
 3077TIP3   OH230865   0.791   4.417   2.322 -0.0000 -0.1120 -0.6224
 3077TIP3    H130866   0.861   4.434   2.385 -0.3353 -1.1494  0.0558
 3077TIP3    H230867   0.762   4.504   2.294 -0.7561  0.4394  1.6826
 3078TIP3   OH230868   1.337   2.603   2.254 -0.6575 -0.7072  0.1128
 3078TIP3    H130869   1.262   2.546   2.241  0.2394 -1.6443 -1.3769
 3078TIP3    H230870   1.328   2.671   2.186  0.7424 -1.9052 -1.3641
 3079TIP3   OH230871   4.970   5.195   2.304  0.1039  0.3080  0.6862
 3079TIP3    H130872   4.927   5.274   2.339 -0.3250  0.2430  0.3190
 3079TIP3    H230873   4.938   5.189   2.214 -1.7924 -1.6041  1.4159
 3080TIP3   OH230874   3.880   3.435   1.110 -0.0055  0.1139 -0.5919
 3080TIP3    H130875   3.838   3.353   1.134  1.3671 -0.5907 -0.4879
 3080TIP3    H230876   3.932   3.459   1.187  2.6119 -0.9603 -1.8889
 3081TIP3   OH230877   0.059   3.556   1.257 -0.7312 -0.3300  0.1913
 3081TIP3    H130878   0.106   3.613   1.197  0.2640 -0.6980  0.6028
 3081TIP3    H230879  -0.019   3.528   1.208  0.8225 -1.8775 -1.5579
 3082TIP3   OH230880   2.821   0.488   1.572 -0.4621  0.0137  0.2531
 3082TIP3    H130881   2.835   0.412   1.514 -1.3005 -1.1665  1.5465
 3082TIP3    H230882   2.726   0.495   1.579 -0.3918  1.3127  0.0139
 3083TIP3   OH230883   5.817   6.111   0.055 -0.4458  0.2353  0.4272
 3083TIP3    H130884   5.732   6.066   0.065 -0.6080 -0.1537 -2.1211
 3083TIP3    H230885   5.860   6.065  -0.016  1.5800  1.0022  1.0950
 3084TIP3   OH230886   5.419   5.535   1.449 -0.1335 -0.0662  1.1302
 3084TIP3    H130887   5.486   5.488   1.399  0.7789  1.0887  1.2240
 3084TIP3    H230888   5.429   5.627   1.422 -1.6100  0.1417  1.2373
 3085TIP3   OH230889   0.257   5.164   8.605  0.1351  0.9896  0.6339
 3085TIP3    H130890   0.293   5.164   8.694 -0.0795 -2.1567  0.8313
 3085TIP3    H230891   0.178   5.110   8.611  0.5514  0.0246 -1.5817
 3086TIP3   OH230892   6.199   0.479   1.939 -0.2768  0.5446 -0.4146
 3086TIP3    H130893   6.185   0.476   1.845  0.1043  2.5620 -0.5792
 3086TIP3    H230894   6.293   0.496   1.949 -0.0144 -1.1114  0.4015
 3087TIP3   OH230895   5.191   6.243   1.724  0.1615  0.0924  0.1220
 3087TIP3    H130896   5.174   6.252   1.630  0.8163 -0.5547 -0.0598
 3087TIP3    H230897   5.245   6.164   1.732 -1.2880 -0.8289  1.2116
 3088TIP3   OH230898   3.427   5.662   2.034  0.4472 -0.2426  0.0427
 3088TIP3    H130899   3.398   5.681   1.945 -3.5531  1.7985  1.5621
 3088TIP3    H230900   3.484   5.736   2.057 -0.0693  0.2538 -0.2416
 3089TIP3   OH230901   0.173   0.657   3.560 -0.4119  0.1699 -0.2622
 3089TIP3    H130902   0.097   0.601   3.545 -0.0479 -0.4106  0.0385
 3089TIP3    H230903   0.162   0.688   3.650 -0.1485 -0.1418 -0.1213
 3090TIP3   OH230904   0.998   5.274   1.723 -0.0893  0.0506 -0.1112
 3090TIP3    H130905   0.973   5.312   1.807  0.8848  0.8353 -0.1640
 3090TIP3    H230906   0.945   5.320   1.659  0.1272  0.3908 -0.0473
 3091TIP3   OH230907   5.296   1.574   2.011 -0.0683 -0.5219  0.2370
 3091TIP3    H130908   5.344   1.600   1.932 -0.0086 -0.1559  0.3934
 3091TIP3    H230909   5.348   1.609   2.083  1.2610 -2.9837  0.5825
 3092TIP3   OH230910   0.196   5.461   2.750 -0.1908  0.6085 -0.0303
 3092TIP3    H130911   0.267   5.459   2.815 -1.3078  2.5850  1.3623
 3092TIP3    H230912   0.155   5.375   2.756  0.6243  0.2614  0.8222
 3093TIP3   OH230913   4.381   3.708   0.187 -0.2672 -0.2398 -0.5159
 3093TIP3    H130914   4.394   3.789   0.138 -1.7954 -0.2735 -1.0089
 3093TIP3    H230915   4.419   3.640   0.130 -0.3757 -0.0534 -0.8151
 3094TIP3   OH230916   3.569   6.165   7.829  0.6029 -0.4322  0.1545
 3094TIP3    H130917   3.605   6.253   7.815 -2.6775  1.0647  0.2454
 3094TIP3    H230918   3.515   6.173   7.908 -1.3109 -1.9794 -0.9057
 3095TIP3   OH230919   3.711   2.835   1.500  0.3312  0.3778  0.0292
 3095TIP3    H130920   3.790   2.817   1.449  0.5160  0.9779  0.1002
 3095TIP3    H230921   3.639   2.819   1.439  0.4330 -1.4933  0.3377
 3096TIP3   OH230922   4.333   3.269   0.326 -0.4829 -0.0555  0.7869
 3096TIP3    H130923   4.408   3.215   0.349  0.5190  1.0272  0.1903
 3096TIP3    H230924   4.265   3.207   0.301  1.0526 -1.0772 -1.2049
 3097TIP3   OH230925   0.904   6.143   0.089  0.0762  0.4560 -0.3331
 3097TIP3    H130926   0.950   6.116   0.169  0.9494 -0.7307 -1.1987
 3097TIP3    H230927   0.969   6.194   0.041 -0.3444  0.9019 -0.4268
 3098TIP3   OH230928   2.448   3.473   0.007  0.1067  0.0055 -0.7936
 3098TIP3    H130929   2.478   3.458   0.097  0.3709  3.0975 -0.2243
 3098TIP3    H230930   2.526   3.459  -0.046  0.5814  0.4410 -0.2316
 3099TIP3   OH230931   1.356   5.794   2.153  0.2533 -0.5190  0.2429
 3099TIP3    H130932   1.297   5.856   2.195  1.5891 -1.0059  3.0603
 3099TIP3    H230933   1.392   5.841   2.078 -1.2830  0.8661  0.3360
 3100TIP3   OH230934   3.195   1.707   0.963  0.4446 -0.2689  0.4110
 3100TIP3    H130935   3.215   1.800   0.978 -0.4046 -0.1081  0.5785
 3100TIP3    H230936   3.111   1.693   1.006  0.9274 -1.3177  1.0550
 3101TIP3   OH230937   5.045   4.026   3.824 -0.3701  0.2562  0.1802
 3101TIP3    H130938   5.001   4.111   3.828 -0.3302  0.2504  0.8560
 3101TIP3    H230939   5.135   4.046   3.798 -0.7930  0.2556 -1.3587
 3102TIP3   OH230940   0.879   4.366   3.446 -0.1174 -0.0057  0.3466
 3102TIP3    H130941   0.895   4.364   3.540 -2.7151  0.2298  0.8598
 3102TIP3    H230942   0.846   4.279   3.425 -0.7555  0.3327 -0.1000
 3103TIP3   OH230943   4.129   5.974   2.342 -0.4231 -0.1128  0.1866
 3103TIP3    H130944   4.177   5.905   2.387 -1.1259 -0.1338  0.9309
 3103TIP3    H230945   4.073   5.927   2.279  1.2263 -0.0350 -1.4216
 3104TIP3   OH230946   4.702   4.950   2.104 -0.0858  0.4570 -0.3675
 3104TIP3    H130947   4.681   4.857   2.117 -2.5530  0.9266 -0.5620
 3104TIP3    H230948   4.798   4.952   2.096 -0.0655 -2.3461 -2.5252
 3105TIP3   OH230949   4.345   1.878   1.512  0.2378 -0.0996  0.0054
 3105TIP3    H130950   4.395   1.928   1.447 -0.1428  0.6595  0.2862
 3105TIP3    H230951   4.314   1.801   1.463  2.8551 -1.3689  0.1921
 3106TIP3   OH230952   5.013   2.650   1.106 -0.3404 -0.5782 -0.5128
 3106TIP3    H130953   4.994   2.727   1.159  1.4212  0.2322 -0.9935
 3106TIP3    H230954   5.096   2.618   1.140 -0.7102 -1.8796 -0.7866
 3107TIP3   OH230955   4.693   4.083   3.853 -0.2087 -0.8524 -0.0182
 3107TIP3    H130956   4.629   4.082   3.782 -1.1963 -0.3588  0.8314
 3107TIP3    H230957   4.698   3.991   3.881  2.1658 -1.5580 -2.3732
 3108TIP3   OH230958   3.964   0.870   2.232  0.1978 -0.2123  0.0532
 3108TIP3    H130959   3.879   0.868   2.188  0.8579 -2.6996 -1.3013
 3108TIP3    H230960   3.943   0.889   2.324 -2.0417 -2.3794  0.0978
 3109TIP3   OH230961   4.365   1.098   2.111  0.2326  0.2615 -0.3288
 3109TIP3    H130962   4.361   1.192   2.097 -2.8478  0.4559  1.0664
 3109TIP3    H230963   4.283   1.065   2.074 -0.1857 -1.4150  1.9126
 3110TIP3   OH230964   5.809   0.422   1.267 -0.2167  0.2098 -0.2272
 3110TIP3    H130965   5.809   0.497   1.327 -1.6709 -0.2752  0.4169
 3110TIP3    H230966   5.847   0.350   1.318 -2.6189 -0.5439  0.6459
 3111TIP3   OH230967   5.986   6.822   2.219  0.4119  0.3602 -0.3004
 3111TIP3    H130968   5.922   6.857   2.158  1.0993  0.1754 -1.1533
 3111TIP3    H230969   5.937   6.805   2.299 -1.2551 -2.3392 -1.7310
 3112TIP3   OH230970   5.169   2.660   1.994 -0.0258 -0.4400  0.1955
 3112TIP3    H130971   5.208   2.628   2.076  0.6804  0.3512  0.1751
 3112TIP3    H230972   5.163   2.582   1.939  2.7494 -0.4022 -0.2975
 3113TIP3   OH230973   2.437   5.858   2.072  0.0573 -0.0168  0.0389
 3113TIP3    H130974   2.454   5.891   1.984  0.7297  0.6477  0.4027
 3113TIP3    H230975   2.353   5.814   2.066  0.0309  0.1491 -0.9030
 3114TIP3   OH230976   5.047   6.671   8.298 -0.3104 -0.7456 -0.1545
 3114TIP3    H130977   5.004   6.663   8.213 -1.8449  0.0832  0.5072
 3114TIP3    H230978   5.140   6.680   8.276 -0.7292  0.1806 -1.8022
 3115TIP3   OH230979   2.290   3.928   8.677  0.3641 -0.7323 -0.4298
 3115TIP3    H130980   2.346   3.974   8.615  3.1255 -2.3182  0.6809
 3115TIP3    H230981   2.230   3.995   8.711  1.6633  1.1194 -1.6279
 3116TIP3   OH230982   1.209   6.003   2.295 -0.6848 -0.2743 -0.8463
 3116TIP3    H130983   1.118   6.033   2.300 -0.3789  0.4784  0.8039
 3116TIP3    H230984   1.244   6.018   2.382  1.2082  0.0085 -1.6040
 3117TIP3   OH230985   5.515   6.230   0.861 -0.2486 -0.1056  0.3508
 3117TIP3    H130986   5.461   6.301   0.896  0.2722  0.2385  0.4754
 3117TIP3    H230987   5.463   6.195   0.788  0.4825  2.0124 -1.3283
 3118TIP3   OH230988   0.555   5.666   3.594  0.3127 -0.2517 -0.4270
 3118TIP3    H130989   0.571   5.591   3.537 -1.2172 -1.1257  0.2322
 3118TIP3    H230990   0.570   5.632   3.682 -1.3225 -0.0885 -0.0537
 3119TIP3   OH230991   2.861   1.310   0.729  0.7427 -0.0083 -0.2453
 3119TIP3    H130992   2.819   1.237   0.683 -0.0608 -0.4161  1.0773
 3119TIP3    H230993   2.790   1.351   0.779  1.0473  2.0745 -1.4102
 3120TIP3   OH230994   1.474   2.463   3.348  0.0265 -0.2124  0.2042
 3120TIP3    H130995   1.550   2.421   3.308 -0.7578 -0.4704 -1.0718
 3120TIP3    H230996   1.400   2.432   3.297 -0.9691 -0.0848  1.5172
 3121TIP3   OH230997   3.074   1.829   2.435 -0.2471 -0.0785 -0.1828
 3121TIP3    H130998   3.059   1.870   2.350 -1.3700 -0.0573  0.0200
 3121TIP3    H230999   2.987   1.809   2.469  0.2253 -1.6572  0.2090
 3122TIP3   OH231000   6.419   1.319   2.365 -0.0152 -0.0914  0.7576
 3122TIP3    H131001   6.417   1.323   2.460 -0.5389 -1.3299  0.8078
 3122TIP3    H231002   6.397   1.408   2.337 -0.8502  0.0384  1.7871
 3123TIP3   OH231003   1.830   5.985   2.357  0.0006  0.6288 -0.4031
 3123TIP3    H131004   1.830   6.047   2.430 -2.9554 -2.0879  2.1799
 3123TIP3    H231005   1.745   5.997   2.315  0.2719 -0.2444 -1.2411
 3124TIP3   OH231006   5.508   2.431   0.487 -0.3016  0.4316 -0.4476
 3124TIP3    H131007   5.479   2.400   0.402  0.2000  1.2868 -0.9421
 3124TIP3    H231008   5.543   2.353   0.531 -0.4757  0.0097 -1.0534
 3125TIP3   OH231009   4.056   3.931   1.700 -0.2638 -0.2250  0.3186
 3125TIP3    H131010   4.138   3.978   1.716 -0.3122  1.2028 -2.8491
 3125TIP3    H231011   4.084   3.842   1.681  0.1171 -0.7888  3.0587
 3126TIP3   OH231012   6.423   6.409   1.339  0.4185  0.1256  0.3301
 3126TIP3    H131013   6.489   6.435   1.274  0.5558 -1.3306 -0.1437
 3126TIP3    H231014   6.339   6.433   1.299  0.5968  1.4559  0.6889
 3127TIP3   OH231015   0.625   3.749   2.483 -0.1131  0.4000  0.2677
 3127TIP3    H131016   0.624   3.802   2.404 -1.3128  0.1416  0.0879
 3127TIP3    H231017   0.650   3.661   2.453 -0.8183  0.2419  0.1176
 3128TIP3   OH231018   3.151   4.975   3.509 -0.2230  0.2980  0.7256
 3128TIP3    H131019   3.141   4.969   3.414  1.6597  0.0139  0.5039
 3128TIP3    H231020   3.082   4.919   3.544 -0.0920 -0.6905 -0.5184
 3129TIP3   OH231021   3.589   6.808   1.415 -0.3070  0.5043  0.0435
 3129TIP3    H131022   3.661   6.800   1.477  0.9689  1.3951 -1.2708
 3129TIP3    H231023   3.523   6.747   1.448  1.4843 -1.2010  0.6627
 3130TIP3   OH231024   0.027   4.729   3.069 -0.4169 -0.2187  0.0765
 3130TIP3    H131025   0.007   4.675   3.146 -1.1425  0.9494  0.7389
 3130TIP3    H231026   0.078   4.671   3.012 -0.1850 -1.2308  1.2601
 3131TIP3   OH231027   2.197   3.599   2.024 -0.1174 -0.0513 -0.6096
 3131TIP3    H131028   2.245   3.595   1.941  0.8087 -0.2758 -0.0708
 3131TIP3    H231029   2.255   3.646   2.083 -0.6943 -0.0629 -0.0250
 3132TIP3   OH231030   2.914   4.210   3.015 -0.2811 -0.3642 -0.5223
 3132TIP3    H131031   2.887   4.238   3.103  1.1031 -0.4239 -0.0613
 3132TIP3    H231032   2.972   4.135   3.031  1.3867  0.6942 -1.3644
 3133TIP3   OH231033   0.545   3.841   2.218  0.1022  0.2113  0.0053
 3133TIP3    H131034   0.595   3.781   2.163 -0.8249  0.5854 -1.3035
 3133TIP3    H231035   0.474   3.871   2.161 -2.0592 -0.8504  2.0107
 3134TIP3   OH231036   6.143   6.079   1.348 -0.2283 -0.6155 -0.4508
 3134TIP3    H131037   6.205   6.007   1.360 -0.4894 -0.8273 -0.3502
 3134TIP3    H231038   6.061   6.036   1.325 -0.7579 -0.4479  0.9791
 3135TIP3   OH231039   3.050   2.031   0.237  0.3395  0.3624  0.6782
 3135TIP3    H131040   3.099   2.104   0.275 -0.4159  1.6162 -0.6527
 3135TIP3    H231041   3.063   2.040   0.143 -0.7376 -0.5124  0.4206
 3136TIP3   OH231042   0.950   4.435   2.732 -0.0747 -0.0884  0.2947
 3136TIP3    H131043   0.979   4.447   2.642  1.3667 -1.6858  0.4920
 3136TIP3    H231044   0.947   4.340   2.744  0.7661  0.0749  2.2112
 3137TIP3   OH231045   2.142   1.183   0.537 -0.2943  0.9792  0.4558
 3137TIP3    H131046   2.056   1.202   0.499  0.4747  1.6777 -0.9813
 3137TIP3    H231047   2.205   1.213   0.472  1.0626  0.7442  1.6091
 3138TIP3   OH231048   3.760   2.725   0.043 -0.0773  0.2906  0.4816
 3138TIP3    H131049   3.763   2.821   0.051 -0.8332  0.3182  0.4647
 3138TIP3    H231050   3.777   2.708  -0.049 -0.7201  0.4545  0.3269
 3139TIP3   OH231051   5.755   2.689   4.369 -0.0983  0.2417  1.0836
 3139TIP3    H131052   5.761   2.663   4.460  1.5191 -0.6635  0.7577
 3139TIP3    H231053   5.810   2.766   4.362  0.4855 -0.2013  0.7098
 3140TIP3   OH231054   6.114   4.516   0.736 -0.1022  0.2578  0.0273
 3140TIP3    H131055   6.161   4.480   0.661 -1.9204 -1.6023 -0.3000
 3140TIP3    H231056   6.109   4.610   0.717 -0.1764 -0.1024 -1.9896
 3141TIP3   OH231057   5.432   3.845   2.313  0.4955  0.2416  0.6411
 3141TIP3    H131058   5.513   3.837   2.262  0.2294  0.8535  0.1011
 3141TIP3    H231059   5.402   3.934   2.294 -0.7228 -0.2510  0.2059
 3142TIP3   OH231060   0.679   3.090   1.905  0.3831 -0.2042  0.2189
 3142TIP3    H131061   0.691   3.004   1.943 -1.0061 -1.3485 -1.7496
 3142TIP3    H231062   0.600   3.082   1.851  1.4420  1.6511 -1.7581
 3143TIP3   OH231063   6.820   4.506   1.175  0.0819 -0.2124 -0.2136
 3143TIP3    H131064   6.788   4.416   1.184  1.0103 -0.6212 -0.8141
 3143TIP3    H231065   6.907   4.504   1.214 -0.4921  0.8148  1.1529
 3144TIP3   OH231066   3.271   3.957   1.360  0.5634  0.4407  0.2737
 3144TIP3    H131067   3.181   3.987   1.353  0.3134  1.0782  3.9613
 3144TIP3    H231068   3.324   4.037   1.364  0.7272  0.2921  2.4407
 3145TIP3   OH231069   0.712   6.519   2.561 -0.3138 -0.2151  0.4899
 3145TIP3    H131070   0.630   6.561   2.587  0.3738  1.6974 -0.1939
 3145TIP3    H231071   0.775   6.549   2.626  0.5775  1.3847 -1.0331
 3146TIP3   OH231072   0.509   5.206   3.210 -0.4340  0.3308  0.7464
 3146TIP3    H131073   0.504   5.160   3.126  1.0124  2.5258 -0.6588
 3146TIP3    H231074   0.571   5.156   3.262 -0.4113 -0.4019  0.0326
 3147TIP3   OH231075   0.835   1.228   0.709 -0.2885 -0.1157  0.5195
 3147TIP3    H131076   0.800   1.188   0.789  1.2412  0.0105  1.2889
 3147TIP3    H231077   0.874   1.154   0.661 -1.8403 -0.3230 -0.5237
 3148TIP3   OH231078   1.388   3.003   3.050  0.1221 -0.4434 -0.3450
 3148TIP3    H131079   1.342   2.920   3.038 -0.1239 -0.3786  0.1019
 3148TIP3    H231080   1.355   3.059   2.979 -1.4767  0.0123  0.6917
 3149TIP3   OH231081   2.964   2.855   3.210 -0.1031 -0.0661 -0.5741
 3149TIP3    H131082   3.037   2.860   3.149  0.6332  0.3053  0.3225
 3149TIP3    H231083   2.991   2.792   3.276 -0.8676 -0.4241 -0.5859
 3150TIP3   OH231084   5.898   1.284   2.432  0.2794 -0.2242 -0.0863
 3150TIP3    H131085   5.839   1.240   2.492 -1.8931 -0.0183 -1.9410
 3150TIP3    H231086   5.959   1.332   2.489 -1.2682 -0.5283  1.9333
 3151TIP3   OH231087   5.676   3.150   8.049 -0.2951 -0.8839 -0.4263
 3151TIP3    H131088   5.630   3.067   8.063 -1.2687  0.1253  3.3476
 3151TIP3    H231089   5.768   3.126   8.046 -0.6570 -2.2768 -1.7013
 3152TIP3   OH231090   2.287   1.219   8.466  0.9026 -0.0563 -0.3085
 3152TIP3    H131091   2.305   1.203   8.373 -1.1106  3.0501 -1.3899
 3152TIP3    H231092   2.373   1.228   8.507  1.8387  1.1563 -2.4310
 3153TIP3   OH231093   4.722   2.268   3.171  0.1915  0.7844 -0.0509
 3153TIP3    H131094   4.804   2.251   3.217 -1.6105 -2.0203  2.5123
 3153TIP3    H231095   4.747   2.266   3.078  2.7411 -2.4265  0.4963
 3154TIP3   OH231096   0.728   0.166   1.412  0.0191  0.2318  0.5658
 3154TIP3    H131097   0.657   0.219   1.376 -0.7330 -0.9797  0.2170
 3154TIP3    H231098   0.775   0.226   1.471  0.4889  1.8728 -1.3778
 3155TIP3   OH231099   6.241   3.579   8.123 -0.7228  0.2639  0.1514
 3155TIP3    H131100   6.311   3.523   8.157 -1.5776 -1.2233 -0.4568
 3155TIP3    H231101   6.241   3.655   8.181  1.3082  0.2520  0.2305
 3156TIP3   OH231102   6.856   0.177   1.619 -0.1076 -0.1569  0.2775
 3156TIP3    H131103   6.937   0.191   1.571 -1.3553  3.0554 -1.1915
 3156TIP3    H231104   6.834   0.262   1.657 -3.1556 -0.6461 -0.0861
 3157TIP3   OH231105   6.434   4.327   2.549  0.0556 -0.7833 -0.1733
 3157TIP3    H131106   6.470   4.316   2.637  1.4347  0.0197 -0.6093
 3157TIP3    H231107   6.500   4.290   2.491 -0.0001  0.3259 -0.9815
 3158TIP3   OH231108   6.236   3.174   0.127  0.0069 -0.2485 -0.1459
 3158TIP3    H131109   6.287   3.162   0.207 -1.2644 -0.0965  0.7120
 3158TIP3    H231110   6.197   3.088   0.110 -0.8795  0.0703  0.2215
 3159TIP3   OH231111   0.673   6.739   1.606 -0.3382  0.4751  0.1519
 3159TIP3    H131112   0.631   6.789   1.676 -0.2851  2.1341 -0.9415
 3159TIP3    H231113   0.761   6.720   1.639  0.2255  2.5580  0.0079
 3160TIP3   OH231114   1.533   4.474   0.028  0.7729 -0.0662 -0.0164
 3160TIP3    H131115   1.444   4.441   0.035  0.2719  1.2008 -0.1200
 3160TIP3    H231116   1.542   4.535   0.102  1.6276 -0.3438  0.1236
 3161TIP3   OH231117   1.443   3.166   1.753 -0.4441  0.1817 -0.5404
 3161TIP3    H131118   1.350   3.147   1.751 -0.6804  1.1793  0.3335
 3161TIP3    H231119   1.485   3.081   1.742 -1.4579 -0.4817  0.5241
 3162TIP3   OH231120   6.502   1.201   8.404 -0.2606  0.1275  0.2640
 3162TIP3    H131121   6.522   1.292   8.385 -0.1220  0.1820  0.6682
 3162TIP3    H231122   6.578   1.169   8.452 -0.5263 -0.0612  0.5589
 3163TIP3   OH231123   1.800   5.865   3.641 -0.4611 -0.3096  0.0956
 3163TIP3    H131124   1.890   5.898   3.629  0.1359 -1.3555  1.4121
 3163TIP3    H231125   1.774   5.835   3.554  1.6067 -2.6859  0.1976
 3164TIP3   OH231126   3.004   1.227   0.123 -0.6701  0.0763  0.0809
 3164TIP3    H131127   3.049   1.312   0.120 -1.8205  0.8217  2.0514
 3164TIP3    H231128   2.955   1.223   0.041 -0.8893  1.5164  0.1170
 3165TIP3   OH231129   0.789   1.562   0.972  0.3459 -0.1356  0.2477
 3165TIP3    H131130   0.826   1.581   1.058  1.3556 -1.7710  0.2097
 3165TIP3    H231131   0.738   1.482   0.985 -0.2949  0.1432 -0.4766
 3166TIP3   OH231132   6.161   0.533   0.859 -0.2665  0.5301 -0.0345
 3166TIP3    H131133   6.170   0.478   0.937 -0.9062  0.3892 -0.0510
 3166TIP3    H231134   6.244   0.522   0.812  0.2208  0.8001  0.7381
 3167TIP3   OH231135   3.918   0.719   2.528  0.0082 -0.2471 -0.2555
 3167TIP3    H131136   4.004   0.681   2.514  0.8857  1.3390  0.6316
 3167TIP3    H231137   3.895   0.694   2.618 -0.5743 -0.8181 -0.5466
 3168TIP3   OH231138   1.798   6.274   0.556  0.4857  0.0292 -0.9126
 3168TIP3    H131139   1.872   6.213   0.555 -0.8512 -1.6427 -0.8593
 3168TIP3    H231140   1.732   6.232   0.611 -0.0874  2.0337  0.0276
 3169TIP3   OH231141   3.860   2.475   3.802  0.2527 -0.1055 -0.1827
 3169TIP3    H131142   3.797   2.405   3.813  1.6890 -1.6239 -1.2314
 3169TIP3    H231143   3.904   2.457   3.719  3.1376 -0.0705  1.1830
 3170TIP3   OH231144   3.280   4.436   1.854 -0.0839 -0.6904  0.1436
 3170TIP3    H131145   3.344   4.448   1.924 -0.9099 -1.6570  1.0988
 3170TIP3    H231146   3.202   4.400   1.897  0.0034 -3.1218 -1.4811
 3171TIP3   OH231147   6.409   4.626   2.999  0.6364 -0.8637  0.3077
 3171TIP3    H131148   6.369   4.572   2.931  2.5091  0.5765 -2.0927
 3171TIP3    H231149   6.457   4.563   3.054  0.2622 -1.9426 -0.5656
 3172TIP3   OH231150   5.378   1.181   0.842 -0.5119 -0.3420  0.1386
 3172TIP3    H131151   5.463   1.208   0.877 -0.0595 -0.9522 -0.4651
 3172TIP3    H231152   5.383   1.200   0.748 -1.1526 -0.1300  0.1358
 3173TIP3   OH231153   4.005   2.953   3.054 -0.2627 -0.7748  0.4082
 3173TIP3    H131154   4.079   2.963   3.113 -0.2840 -2.0006  0.6760
 3173TIP3    H231155   3.980   2.861   3.062 -3.1011  0.0125  1.8401
 3174TIP3   OH231156   0.080   6.823   3.550  0.4352 -0.1635  0.2632
 3174TIP3    H131157   0.054   6.854   3.637  1.0123 -1.0163  0.7581
 3174TIP3    H231158   0.139   6.749   3.568  1.7460  0.5657 -0.8297
 3175TIP3   OH231159   4.863   3.907   8.031  0.3506  0.1569  0.4263
 3175TIP3    H131160   4.943   3.900   7.979  0.1730  1.6816 -0.0934
 3175TIP3    H231161   4.881   3.978   8.093 -0.4474  0.2156  0.5986
 3176TIP3   OH231162   2.028   4.638   3.588  0.1180  0.6012 -0.0201
 3176TIP3    H131163   2.006   4.710   3.647  0.7915  1.0859 -0.3414
 3176TIP3    H231164   2.114   4.609   3.618 -0.9886 -1.4316  1.3894
 3177TIP3   OH231165   6.354   1.907   3.388  0.3833  0.2027  0.2634
 3177TIP3    H131166   6.344   1.834   3.450 -0.2931 -0.3803 -0.5167
 3177TIP3    H231167   6.264   1.932   3.365  0.5988 -0.6028 -1.6353
 3178TIP3   OH231168   1.063   6.321   8.062 -0.4865 -0.4528  0.5558
 3178TIP3    H131169   1.038   6.406   8.097 -0.6349 -1.2543  2.5997
 3178TIP3    H231170   1.140   6.337   8.009 -1.3683  1.1293 -0.3052
 3179TIP3   OH231171   2.541   3.655   2.542  0.0222  0.4024  0.2983
 3179TIP3    H131172   2.486   3.729   2.565  1.2132  1.0452  1.2078
 3179TIP3    H231173   2.486   3.600   2.486 -1.2658  1.3782  0.5655
 3180TIP3   OH231174   5.054   3.265   0.421 -0.5098  0.2404  0.3090
 3180TIP3    H131175   5.010   3.208   0.358 -2.3896 -0.1342  1.8811
 3180TIP3    H231176   4.997   3.266   0.497  0.7615  2.1865  1.3263
 3181TIP3   OH231177   0.871   3.843   3.135  0.4795 -0.8236 -0.2133
 3181TIP3    H131178   0.851   3.790   3.212  0.7940 -1.0800 -0.3029
 3181TIP3    H231179   0.786   3.875   3.104  0.3910 -0.3378  0.5088
 3182TIP3   OH231180   2.455   1.266   2.775 -0.3656 -0.9376 -0.0130
 3182TIP3    H131181   2.535   1.244   2.728 -1.0697 -1.7101 -0.8947
 3182TIP3    H231182   2.463   1.221   2.860  0.6939  0.0641  0.4370
 3183TIP3   OH231183   4.292   6.871   3.752 -0.1411  0.1659 -0.1267
 3183TIP3    H131184   4.253   6.789   3.782 -0.2100  0.4009  0.4355
 3183TIP3    H231185   4.276   6.933   3.823  0.2570  0.5649 -0.3772
 3184TIP3   OH231186   0.276   6.491   8.689 -0.3047 -0.3907  0.0306
 3184TIP3    H131187   0.238   6.569   8.649 -0.1390  0.1716  0.9281
 3184TIP3    H231188   0.241   6.418   8.638 -0.9304  0.2398 -0.4588
 3185TIP3   OH231189   4.312   2.096   8.313 -0.0140  0.2122 -0.2324
 3185TIP3    H131190   4.357   2.060   8.390  1.0309 -1.7005 -1.6573
 3185TIP3    H231191   4.219   2.094   8.336  0.2979 -0.0490  1.0771
 3186TIP3   OH231192   6.393   5.325   0.971 -0.0272  0.3439  0.4790
 3186TIP3    H131193   6.306   5.317   0.930 -0.2071 -0.5188  1.0025
 3186TIP3    H231194   6.388   5.270   1.048  0.9933  0.3045  0.5293
 3187TIP3   OH231195   6.027   3.162   1.056  0.1793  0.5561 -0.0561
 3187TIP3    H131196   6.027   3.083   1.111  1.4438  1.2718  1.0359
 3187TIP3    H231197   6.090   3.143   0.987 -0.8746 -0.0691 -0.8692
 3188TIP3   OH231198   6.308   2.240   3.364  0.1304  0.7675 -0.3077
 3188TIP3    H131199   6.248   2.210   3.432 -2.0437  2.0803 -1.5021
 3188TIP3    H231200   6.367   2.166   3.349 -1.4469 -0.7607  0.6777
 3189TIP3   OH231201   6.828   5.154   2.038 -0.5493  0.1272 -0.6827
 3189TIP3    H131202   6.910   5.149   2.087 -1.9117 -0.9812  1.6136
 3189TIP3    H231203   6.830   5.240   1.996  1.8281  0.0598 -0.8457
 3190TIP3   OH231204   5.211   5.831   8.242 -0.1791 -0.1900  0.2941
 3190TIP3    H131205   5.190   5.751   8.290 -2.1187  1.6170  2.7941
 3190TIP3    H231206   5.282   5.871   8.292 -0.2043  0.3081 -0.0628
 3191TIP3   OH231207   1.576   5.986   2.273 -0.4920  0.3785  0.2063
 3191TIP3    H131208   1.517   5.962   2.344  1.1696  0.0703  1.5609
 3191TIP3    H231209   1.583   5.907   2.220 -0.2533 -0.0131  0.8151
 3192TIP3   OH231210   2.793   2.706   3.449 -0.0543  0.5264  0.3626
 3192TIP3    H131211   2.831   2.637   3.395  0.6135  1.5960 -0.5753
 3192TIP3    H231212   2.862   2.771   3.458 -1.6366  2.6951 -1.7003
 3193TIP3   OH231213   2.513   5.912   0.633  0.8035 -0.1314  0.1401
 3193TIP3    H131214   2.607   5.906   0.612  1.0626 -1.7393  1.6036
 3193TIP3    H231215   2.501   5.854   0.707 -1.6846 -1.2857 -1.0465
 3194TIP3   OH231216   2.159   5.931   2.254 -0.4100 -0.1539  0.1095
 3194TIP3    H131217   2.137   5.994   2.323 -0.6772  1.3567 -1.2938
 3194TIP3    H231218   2.185   5.985   2.179 -1.8729 -1.6540 -1.5746
 3195TIP3   OH231219   2.597   5.940   2.992 -0.1011 -0.0188 -0.2916
 3195TIP3    H131220   2.535   5.920   3.063  0.2805 -2.4013 -0.5346
 3195TIP3    H231221   2.651   6.011   3.027 -1.1944  0.2317  0.9998
 3196TIP3   OH231222   5.181   3.375   1.382  0.4528 -0.4932  0.1125
 3196TIP3    H131223   5.127   3.411   1.312  1.0612 -0.3004 -0.2692
 3196TIP3    H231224   5.215   3.293   1.347  0.1360 -0.7818  0.4770
 3197TIP3   OH231225   4.332   0.684   1.593 -0.1041  0.2502  0.7797
 3197TIP3    H131226   4.360   0.592   1.599 -2.2668 -0.3615  4.1337
 3197TIP3    H231227   4.333   0.702   1.499  3.5998 -2.0439  0.1478
 3198TIP3   OH231228   3.936   4.632   1.910 -0.5965  0.1692 -0.1742
 3198TIP3    H131229   3.924   4.667   1.999 -1.3824  0.3360 -0.3353
 3198TIP3    H231230   3.847   4.616   1.879 -0.2985 -0.5453 -0.6775
 3199TIP3   OH231231   4.916   1.728   3.780 -0.2354 -0.1901  0.2537
 3199TIP3    H131232   4.914   1.729   3.684  1.6125  0.9408  0.1736
 3199TIP3    H231233   4.948   1.815   3.803 -2.6827  0.3210  2.0137
 3200TIP3   OH231234   6.656   4.626   0.097 -0.0870 -0.3285  1.2665
 3200TIP3    H131235   6.723   4.557   0.091 -0.6912 -0.9950  1.9593
 3200TIP3    H231236   6.636   4.633   0.190  1.1044  1.9435  1.4180
 3201TIP3   OH231237   2.129   5.008   3.259  0.2924  0.1638 -0.4289
 3201TIP3    H131238   2.160   4.953   3.331  1.4940  0.1408 -0.9425
 3201TIP3    H231239   2.056   4.959   3.220  1.1289 -0.9130 -0.6709
 3202TIP3   OH231240   3.055   5.785   1.249 -0.0524  0.3552 -0.4044
 3202TIP3    H131241   3.013   5.739   1.322 -0.7980 -0.8045 -1.5161
 3202TIP3    H231242   2.988   5.844   1.215  0.1640  0.6044 -0.4035
 3203TIP3   OH231243   2.670   5.408   1.236  0.3027  0.1245  0.6811
 3203TIP3    H131244   2.701   5.464   1.308 -0.2325  1.2280  0.0743
 3203TIP3    H231245   2.705   5.448   1.157 -0.4366 -0.1526  0.2004
 3204TIP3   OH231246   1.691   2.141   0.925  0.4719  0.4526 -0.3264
 3204TIP3    H131247   1.662   2.171   1.011  1.0716 -0.3933  0.1790
 3204TIP3    H231248   1.681   2.218   0.869  1.1333  1.3417  0.7387
 3205TIP3   OH231249   2.742   6.761   1.706  0.1007 -0.2826 -0.6864
 3205TIP3    H131250   2.686   6.755   1.784  1.4671  0.3836  0.3926
 3205TIP3    H231251   2.759   6.855   1.696 -1.2816 -0.1702 -2.7472
 3206TIP3   OH231252   4.616   4.166   2.827  0.1442 -0.1591 -0.4570
 3206TIP3    H131253   4.668   4.229   2.877 -0.5338  0.0614 -0.0096
 3206TIP3    H231254   4.583   4.216   2.753 -0.1345 -0.0643 -0.2720
 3207TIP3   OH231255   4.061   4.460   2.498  0.0311 -0.5423 -0.0124
 3207TIP3    H131256   4.012   4.386   2.535 -0.3848 -1.1080 -1.6150
 3207TIP3    H231257   4.100   4.502   2.574 -1.4559 -1.1483  1.1578
 3208TIP3   OH231258   1.160   2.256   0.359 -0.0131  0.3334  0.0258
 3208TIP3    H131259   1.214   2.186   0.323 -0.3292  0.2343 -0.2552
 3208TIP3    H231260   1.205   2.336   0.334  0.4234  0.2307  0.4651
 3209TIP3   OH231261   1.613   1.611   1.836  0.1468  0.5174  0.0254
 3209TIP3    H131262   1.522   1.628   1.814  0.5158  1.6730 -0.6922
 3209TIP3    H231263   1.618   1.516   1.849 -1.0810  0.4103 -0.2102
 3210TIP3   OH231264   2.458   5.115   3.189 -0.1824  0.3390  0.2070
 3210TIP3    H131265   2.492   5.193   3.145  0.1407 -0.2918 -0.6977
 3210TIP3    H231266   2.411   5.068   3.120  0.2821 -0.6451  0.5523
 3211TIP3   OH231267   2.540   5.582   1.570  0.3594  0.4349  0.0018
 3211TIP3    H131268   2.530   5.663   1.519  1.3363  0.4491 -0.1833
 3211TIP3    H231269   2.536   5.611   1.661 -0.4710  0.5282 -0.0520
 3212TIP3   OH231270   2.136   3.477   0.092 -0.4666  0.1458 -0.6384
 3212TIP3    H131271   2.146   3.571   0.105  4.2278 -0.0510 -1.0460
 3212TIP3    H231272   2.144   3.439   0.179 -0.0052  0.0320 -0.7304
 3213TIP3   OH231273   4.493   5.582   0.472 -0.5849  0.2611  0.1730
 3213TIP3    H131274   4.464   5.666   0.438  0.8153  1.2824  1.3765
 3213TIP3    H231275   4.533   5.538   0.397 -2.7839 -0.0669 -0.8552
 3214TIP3   OH231276   5.741   6.805   2.380  0.2324  0.5421  0.4174
 3214TIP3    H131277   5.702   6.848   2.456  1.3663  2.6160 -0.0935
 3214TIP3    H231278   5.672   6.807   2.314  0.5701  2.6201  0.0715
 3215TIP3   OH231279   5.745   3.770   3.084  0.4341  0.5119  0.3948
 3215TIP3    H131280   5.721   3.807   2.999  2.4289  0.7527 -0.1141
 3215TIP3    H231281   5.817   3.711   3.065  0.9669  0.6156  1.9382
 3216TIP3   OH231282   0.430   0.753   8.131  0.3490 -0.3721 -0.5429
 3216TIP3    H131283   0.382   0.820   8.082 -0.6325 -0.7550 -0.1270
 3216TIP3    H231284   0.389   0.670   8.105  0.8028 -0.7112 -0.1918
 3217TIP3   OH231285   4.457   0.416   1.147  0.4921  0.0308  0.7510
 3217TIP3    H131286   4.485   0.452   1.231 -0.0340  2.2494  0.0471
 3217TIP3    H231287   4.412   0.489   1.103  0.6056 -1.1018 -1.3888
 3218TIP3   OH231288   2.969   1.292   2.941 -0.2559  0.0663  0.0713
 3218TIP3    H131289   3.002   1.202   2.936 -0.5958 -0.0138 -1.2884
 3218TIP3    H231290   2.906   1.298   2.869  0.5104  1.6845 -0.5089
 3219TIP3   OH231291   4.084   1.021   2.007  0.0363  0.3286 -0.4491
 3219TIP3    H131292   4.046   0.982   2.086 -0.1285  1.2391 -0.0689
 3219TIP3    H231293   4.025   1.092   1.984  0.7475  0.8645 -0.6625
 3220TIP3   OH231294   0.922   3.044   2.388 -0.7447 -0.7902  0.0632
 3220TIP3    H131295   0.883   3.002   2.311  2.3062  2.4516 -3.6944
 3220TIP3    H231296   0.874   3.126   2.397 -0.3802 -0.6716  0.9779
 3221TIP3   OH231297   6.224   5.834   1.149 -0.2266  0.1274  0.0506
 3221TIP3    H131298   6.185   5.872   1.070 -0.7850 -2.0846 -0.8035
 3221TIP3    H231299   6.222   5.740   1.134  0.9780 -0.2914  2.1231
 3222TIP3   OH231300   4.467   6.672   0.009 -0.2446  0.2425 -0.0796
 3222TIP3    H131301   4.373   6.690   0.007 -0.5615 -0.7913  2.3448
 3222TIP3    H231302   4.478   6.591  -0.041 -0.5580  0.5426 -0.6498
 3223TIP3   OH231303   5.274   6.285   2.799 -0.5596 -0.0646 -0.4664
 3223TIP3    H131304   5.283   6.338   2.878  0.6047 -0.8227 -0.0556
 3223TIP3    H231305   5.243   6.200   2.830  1.6414 -0.9716 -0.5105
 3224TIP3   OH231306   6.845   5.864   2.403  0.3944  0.0298  0.3751
 3224TIP3    H131307   6.936   5.874   2.374  0.7587 -1.6279  0.8622
 3224TIP3    H231308   6.793   5.873   2.322  1.2221 -1.9733 -0.4556
 3225TIP3   OH231309   3.328   1.441   1.466 -0.8928  0.1736  0.4501
 3225TIP3    H131310   3.267   1.372   1.441 -1.4318  0.6086  0.5519
 3225TIP3    H231311   3.273   1.517   1.482 -0.2207  0.9257 -0.6598
 3226TIP3   OH231312   2.018   2.670   2.343  0.0484  0.0903  0.4260
 3226TIP3    H131313   2.033   2.713   2.259  1.8541 -0.6919  0.2957
 3226TIP3    H231314   1.942   2.614   2.329 -0.3512  0.8078 -0.3503
 3227TIP3   OH231315   2.999   0.664   1.675  0.2424  0.0152 -0.0087
 3227TIP3    H131316   2.941   0.602   1.632  0.3368  0.0831 -0.2397
 3227TIP3    H231317   3.072   0.611   1.707  0.3241  0.0065 -0.2075
 3228TIP3   OH231318   2.175   2.580   3.801 -0.1789 -0.2962  0.3741
 3228TIP3    H131319   2.227   2.661   3.799 -1.0222  0.2701  0.6414
 3228TIP3    H231320   2.222   2.520   3.744 -0.7234  1.1364 -1.7189
 3229TIP3   OH231321   2.375   3.773   2.169 -0.0209  0.0655  0.0298
 3229TIP3    H131322   2.460   3.810   2.191 -0.1779 -0.6245  2.0652
 3229TIP3    H231323   2.311   3.837   2.200 -0.2558  0.2102 -0.7373
 3230TIP3   OH231324   1.848   3.651   1.646 -0.1833  0.0725 -0.3042
 3230TIP3    H131325   1.845   3.629   1.739  0.3613  1.6645  0.1098
 3230TIP3    H231326   1.757   3.645   1.617 -0.5241  0.6585  0.6011
 3231TIP3   OH231327   0.978   2.333   1.422  0.0299  0.3643 -0.0805
 3231TIP3    H131328   0.924   2.359   1.347 -0.3105  0.9068  0.3386
 3231TIP3    H231329   1.037   2.266   1.388 -1.6836 -1.1100 -0.3041
 3232TIP3   OH231330   3.237   1.741   8.728 -0.4195 -0.0532  0.1245
 3232TIP3    H131331   3.165   1.798   8.755  0.2997  0.6178  0.6668
 3232TIP3    H231332   3.314   1.778   8.771  0.3478 -0.4196 -0.9088
 3233TIP3   OH231333   6.720   6.242   1.866  0.0116 -0.5569 -0.3402
 3233TIP3    H131334   6.684   6.153   1.864  0.5300 -0.7622 -1.0119
 3233TIP3    H231335   6.683   6.285   1.789  1.0150 -0.7100 -0.9282
 3234TIP3   OH231336   5.690   4.635   1.473  0.2475 -0.5280 -0.1901
 3234TIP3    H131337   5.633   4.619   1.549 -0.5407  1.5488 -0.2739
 3234TIP3    H231338   5.689   4.730   1.462 -0.0410 -0.7751 -3.0885
 3235TIP3   OH231339   0.336   1.603   1.061 -0.1803  0.5166 -0.2732
 3235TIP3    H131340   0.340   1.511   1.087  0.1181  0.4654 -0.4939
 3235TIP3    H231341   0.408   1.614   0.998 -0.2395  0.8892 -0.2822
 3236TIP3   OH231342   3.406   2.174   0.641  0.0847  0.6634 -0.3215
 3236TIP3    H131343   3.412   2.140   0.730 -1.3556 -0.9707 -0.7911
 3236TIP3    H231344   3.449   2.259   0.645 -0.0008  0.6617  1.9428
 3237TIP3   OH231345   3.920   4.922   3.238  0.0448 -0.3330 -0.4772
 3237TIP3    H131346   3.951   4.921   3.329  0.3392 -1.8201 -0.5775
 3237TIP3    H231347   3.998   4.940   3.186 -0.2902  1.5515 -0.4213
 3238TIP3   OH231348   1.617   1.532   0.887 -0.3899 -0.2642  0.9339
 3238TIP3    H131349   1.601   1.585   0.965 -0.4602  0.3547  0.5018
 3238TIP3    H231350   1.543   1.471   0.884 -1.8848  1.4994 -0.1375
 3239TIP3   OH231351   2.491   6.440   1.529  0.0414 -0.2576  0.1384
 3239TIP3    H131352   2.502   6.414   1.438  2.0027  0.3064  0.1555
 3239TIP3    H231353   2.410   6.398   1.557 -1.1230  0.3590 -2.1218
 3240TIP3   OH231354   3.685   1.552   3.074 -0.4218  0.1806 -0.1295
 3240TIP3    H131355   3.678   1.535   2.980 -1.2034 -1.2070  0.1639
 3240TIP3    H231356   3.736   1.633   3.079 -0.1421  0.1446 -1.7359
 3241TIP3   OH231357   2.437   2.548   8.670 -0.7582  0.0310  0.2586
 3241TIP3    H131358   2.379   2.499   8.612 -1.4329  1.2050 -0.0779
 3241TIP3    H231359   2.512   2.570   8.614 -0.0861 -1.2424  0.6181
 3242TIP3   OH231360   2.732   6.290   7.970 -0.9953 -0.2545 -0.4769
 3242TIP3    H131361   2.681   6.209   7.975  0.8027 -1.4405 -0.2860
 3242TIP3    H231362   2.691   6.348   8.034 -2.3650 -0.9713 -0.6578
 3243TIP3   OH231363   3.394   3.301   1.102  0.1844  0.4529  0.0218
 3243TIP3    H131364   3.445   3.226   1.072  0.8886  0.6943  0.5897
 3243TIP3    H231365   3.430   3.375   1.053 -0.8259  0.3706 -0.8939
 3244TIP3   OH231366   4.901   0.686   2.940 -0.4347 -0.3175  0.6641
 3244TIP3    H131367   4.973   0.718   2.885  0.9389 -3.4605  0.4552
 3244TIP3    H231368   4.823   0.699   2.887  0.0511  2.0968  0.4267
 3245TIP3   OH231369   5.730   6.772   8.680  0.3952 -0.3708  0.5959
 3245TIP3    H131370   5.758   6.843   8.621  0.4137 -1.0712 -0.2475
 3245TIP3    H231371   5.770   6.693   8.644 -2.0012 -1.3109 -0.2148
 3246TIP3   OH231372   0.581   4.567   3.498  0.1333  0.0184  0.1060
 3246TIP3    H131373   0.528   4.505   3.549 -0.3984 -0.0212 -0.4834
 3246TIP3    H231374   0.649   4.596   3.559  0.2879 -1.0112  0.4439
 3247TIP3   OH231375   1.387   5.092   2.277 -0.0927 -0.7615 -0.5253
 3247TIP3    H131376   1.302   5.065   2.312 -0.0627 -0.0597  0.1385
 3247TIP3    H231377   1.441   5.014   2.281 -0.3279 -0.8972  0.3043
 3248TIP3   OH231378   1.475   1.135   2.833 -0.5345 -0.3700  0.5177
 3248TIP3    H131379   1.384   1.116   2.813 -0.7288  0.5711  0.4645
 3248TIP3    H231380   1.472   1.207   2.897  0.1687  1.3852 -1.3079
 3249TIP3   OH231381   3.696   2.095   0.571  0.3880 -0.2305  0.3999
 3249TIP3    H131382   3.631   2.152   0.613  0.0971 -1.0680  1.0992
 3249TIP3    H231383   3.683   2.111   0.477 -0.5526 -0.0794  0.5374
 3250TIP3   OH231384   4.416   0.829   2.384  0.2031 -0.1413 -0.0446
 3250TIP3    H131385   4.458   0.749   2.412  0.1800  0.2627  1.1898
 3250TIP3    H231386   4.322   0.810   2.389  0.1620  0.3691  1.5718
 3251TIP3   OH231387   5.804   2.966   1.757  0.7181 -0.3334 -0.2570
 3251TIP3    H131388   5.821   2.952   1.663  0.4723 -0.9981 -0.2055
 3251TIP3    H231389   5.755   2.889   1.784  1.8731 -0.7339  0.7150
 3252TIP3   OH231390   1.725   2.632   2.524  0.0951  0.0106 -0.3718
 3252TIP3    H131391   1.695   2.717   2.556 -0.2985 -0.4393  0.4783
 3252TIP3    H231392   1.729   2.642   2.429  2.9250  1.9345 -0.1975
 3253TIP3   OH231393   1.093   6.283   1.746  0.4782  0.5647 -0.7587
 3253TIP3    H131394   1.183   6.305   1.725 -0.2153  1.1258 -3.5410
 3253TIP3    H231395   1.085   6.190   1.726  0.0562  0.9009 -2.3665
 3254TIP3   OH231396   4.578   2.581   3.724 -0.2766 -0.3124  0.4945
 3254TIP3    H131397   4.581   2.488   3.699 -0.9827 -0.5121  1.1000
 3254TIP3    H231398   4.610   2.582   3.814 -0.1222  0.0595  0.4351
 3255TIP3   OH231399   2.879   3.095   1.115 -0.6138 -0.8441  0.1930
 3255TIP3    H131400   2.804   3.102   1.056 -1.3368  0.4203  1.1933
 3255TIP3    H231401   2.954   3.123   1.063 -1.3403  0.9091  0.0273
 3256TIP3   OH231402   5.570   0.785   0.584  0.5584 -0.3253  0.5528
 3256TIP3    H131403   5.487   0.775   0.538  1.2344 -0.2189 -0.7382
 3256TIP3    H231404   5.546   0.805   0.674 -0.8127  1.0941 -0.0901
 3257TIP3   OH231405   5.397   2.195   3.119 -0.1043  0.1674 -0.2468
 3257TIP3    H131406   5.357   2.111   3.141 -0.2750  0.5263  0.8846
 3257TIP3    H231407   5.447   2.220   3.197 -0.4101  1.3211 -0.3918
 3258TIP3   OH231408   0.418   6.642   1.159 -0.5847  0.5987 -0.0074
 3258TIP3    H131409   0.411   6.592   1.240 -2.1700  0.4585 -0.1978
 3258TIP3    H231410   0.449   6.579   1.094 -1.4911  0.1324  0.0023
 3259TIP3   OH231411   5.946   2.407   0.089 -0.2328 -0.0132  0.1858
 3259TIP3    H131412   5.957   2.386   0.181 -1.4629  0.8088  0.5421
 3259TIP3    H231413   5.969   2.327   0.043 -0.2644 -0.6408  1.2467
 3260TIP3   OH231414   3.406   2.281   2.442  0.2061 -0.0318 -0.1504
 3260TIP3    H131415   3.477   2.331   2.483  0.7383 -0.7265 -0.2053
 3260TIP3    H231416   3.433   2.273   2.350 -0.2839  0.2876 -0.3264
 3261TIP3   OH231417   6.564   0.860   0.713 -0.4079 -0.6015 -0.3017
 3261TIP3    H131418   6.621   0.905   0.651  0.3658  0.5530  1.1805
 3261TIP3    H231419   6.620   0.795   0.754 -0.7397 -0.9122 -0.3342
 3262TIP3   OH231420   5.009   4.722   2.868 -0.2794  0.0141  0.5464
 3262TIP3    H131421   4.984   4.689   2.954 -1.8127  0.0635  0.1471
 3262TIP3    H231422   5.063   4.799   2.886 -0.2655 -0.2031  1.4603
 3263TIP3   OH231423   5.167   3.646   1.047  0.0541  0.3606 -0.6945
 3263TIP3    H131424   5.211   3.702   0.983  0.6708 -1.9841 -2.4640
 3263TIP3    H231425   5.230   3.635   1.117 -0.0036  1.6884 -0.4152
 3264TIP3   OH231426   1.489   0.891   2.966  0.1312  0.1655  0.0236
 3264TIP3    H131427   1.547   0.869   3.039  0.3190  0.7562  0.0600
 3264TIP3    H231428   1.515   0.979   2.940 -1.5541  0.9459  0.8369
 3265TIP3   OH231429   3.175   4.630   1.681  0.2894  0.2321 -0.0897
 3265TIP3    H131430   3.149   4.559   1.623 -1.0645 -0.3704  1.1858
 3265TIP3    H231431   3.206   4.586   1.760 -0.9698  1.0263  0.8872
 3266TIP3   OH231432   6.796   2.848   1.114 -0.7823 -0.5755  0.3468
 3266TIP3    H131433   6.863   2.812   1.057 -0.9337  0.5470 -0.5547
 3266TIP3    H231434   6.840   2.859   1.199  0.5322  1.2300 -0.5213
 3267TIP3   OH231435   6.011   5.637   2.389  0.0275 -0.2034  0.2854
 3267TIP3    H131436   5.949   5.600   2.452  3.1316 -0.6919  3.3625
 3267TIP3    H231437   6.060   5.562   2.356  1.0346  0.4062  0.3522
 3268TIP3   OH231438   4.717   1.805   2.150 -0.1410  0.7067 -0.5461
 3268TIP3    H131439   4.747   1.876   2.093 -0.5896 -0.4936 -2.3457
 3268TIP3    H231440   4.790   1.744   2.153 -0.0947  0.7905  0.2613
 3269TIP3   OH231441   2.838   2.497   0.107 -0.3176 -0.1625  0.1194
 3269TIP3    H131442   2.894   2.451   0.045  0.3223 -2.0071  1.9410
 3269TIP3    H231443   2.775   2.431   0.137 -1.0760  0.8679  0.8993
 3270TIP3   OH231444   0.717   1.111   2.810  0.0367 -0.0951 -0.2189
 3270TIP3    H131445   0.636   1.124   2.859 -0.0021 -1.4493  0.0997
 3270TIP3    H231446   0.786   1.110   2.876  0.0953 -0.8916 -0.2843
 3271TIP3   OH231447   4.256   4.951   3.246 -0.0776 -0.3975  0.1808
 3271TIP3    H131448   4.193   4.971   3.316  0.1147  0.4512  0.1250
 3271TIP3    H231449   4.276   5.037   3.207 -0.0847 -0.8363 -0.8328
 3272TIP3   OH231450   4.539   6.768   1.921 -0.6193 -0.2179  0.0776
 3272TIP3    H131451   4.447   6.791   1.931 -1.2785 -3.1990  2.2580
 3272TIP3    H231452   4.587   6.847   1.948 -2.5968 -0.1195  3.9538
 3273TIP3   OH231453   5.987   6.599   8.620  0.4559 -0.3317  0.1349
 3273TIP3    H131454   5.916   6.605   8.555 -1.0927  0.6716  1.8233
 3273TIP3    H231455   5.970   6.515   8.664  0.8999 -0.5298 -0.0675
 3274TIP3   OH231456   1.052   5.264   1.232 -0.1167 -0.0824  0.3395
 3274TIP3    H131457   1.144   5.276   1.207  0.6358  0.0021  2.8971
 3274TIP3    H231458   1.013   5.351   1.224  0.5059  0.2615  0.9497
 3275TIP3   OH231459   6.088   1.843   2.075  0.3674  0.7162 -0.1979
 3275TIP3    H131460   6.063   1.813   1.987 -1.9250 -0.8423  0.8870
 3275TIP3    H231461   6.010   1.828   2.128  2.5672 -1.2992  2.7838
 3276TIP3   OH231462   2.378   5.039   0.236  0.0743 -0.7040  0.0584
 3276TIP3    H131463   2.323   4.975   0.191  0.6010 -1.1645  0.0536
 3276TIP3    H231464   2.436   4.986   0.291  1.9707 -0.3988 -1.5150
 3277TIP3   OH231465   6.033   6.625   1.228 -0.0838 -0.1006  0.4655
 3277TIP3    H131466   5.980   6.589   1.157  0.6176 -0.6511  0.1955
 3277TIP3    H231467   6.023   6.720   1.220 -0.8018 -0.1898  0.2574
 3278TIP3   OH231468   5.799   4.934   3.723  0.0095 -0.0646  1.0372
 3278TIP3    H131469   5.830   4.846   3.746  1.1355 -0.4355 -1.5312
 3278TIP3    H231470   5.723   4.918   3.667  0.9197  0.4891 -0.4157
 3279TIP3   OH231471   1.568   6.019   2.576 -0.2543 -0.8465  0.4199
 3279TIP3    H131472   1.568   5.927   2.548 -0.6549 -0.7329  0.0257
 3279TIP3    H231473   1.658   6.036   2.603 -0.0447 -1.2019 -0.0292
 3280TIP3   OH231474   6.125   1.824   2.588 -0.4008 -0.2043 -0.7376
 3280TIP3    H131475   6.064   1.780   2.647 -0.3145  0.1599 -0.3725
 3280TIP3    H231476   6.073   1.891   2.545 -0.1289  0.5108  0.0231
 3281TIP3   OH231477   2.222   1.378   1.651 -0.3941  0.2629 -0.1682
 3281TIP3    H131478   2.226   1.316   1.578  0.7638 -0.3575  0.3892
 3281TIP3    H231479   2.291   1.348   1.711  0.1495  2.0498  0.1542
 3282TIP3   OH231480   1.890   6.676   3.612 -0.0833  0.4439 -0.0096
 3282TIP3    H131481   1.818   6.709   3.665 -0.3536 -0.6144  0.3063
 3282TIP3    H231482   1.939   6.754   3.587 -0.3052  1.0268  1.2791
 3283TIP3   OH231483   1.581   0.236   2.687 -0.2448  0.0410 -0.0506
 3283TIP3    H131484   1.578   0.329   2.666 -3.5644  0.1708  0.5002
 3283TIP3    H231485   1.604   0.194   2.604 -1.4936  1.2255 -1.0515
 3284TIP3   OH231486   6.749   1.354   1.602  0.0598  0.6435  0.2193
 3284TIP3    H131487   6.749   1.262   1.628  1.5781  0.6748  0.4295
 3284TIP3    H231488   6.722   1.402   1.680 -2.4252  0.3091 -0.3621
 3285TIP3   OH231489   2.884   5.760   8.687 -0.6133  0.1943  0.9000
 3285TIP3    H131490   2.873   5.692   8.621  1.0651  0.2520  0.5077
 3285TIP3    H231491   2.869   5.715   8.770 -0.1150 -0.5264  0.6095
 3286TIP3   OH231492   3.281   1.670   2.300 -0.2015 -0.4043  0.0375
 3286TIP3    H131493   3.199   1.715   2.321  0.1906 -0.0760  0.9089
 3286TIP3    H231494   3.349   1.722   2.343  0.4154 -0.9637 -0.2433
 3287TIP3   OH231495   6.000   5.962   8.642 -0.2661 -0.3904  0.0782
 3287TIP3    H131496   6.088   5.999   8.635 -0.4683  0.0217 -0.3117
 3287TIP3    H231497   6.014   5.871   8.668  0.2237  0.0257  1.3362
 3288TIP3   OH231498   5.185   5.508   3.732 -0.5569  0.3469  0.4751
 3288TIP3    H131499   5.172   5.524   3.639  0.5305  0.4930  0.3339
 3288TIP3    H231500   5.117   5.444   3.755 -1.8558  1.4873 -0.0361
 3289TIP3   OH231501   5.719   5.794   1.950  0.1997 -0.5544  0.6369
 3289TIP3    H131502   5.782   5.735   1.907 -0.8027 -1.4771  0.3788
 3289TIP3    H231503   5.715   5.870   1.893 -1.0058 -1.7020 -0.9301
 3290TIP3   OH231504   6.023   3.909   8.066  0.1087  0.1224  0.5954
 3290TIP3    H131505   5.944   3.902   8.013 -0.3125  0.4446  1.1726
 3290TIP3    H231506   6.093   3.881   8.008 -0.6663 -2.3355  0.7427
 3291TIP3   OH231507   3.191   4.422   1.430  0.3382 -0.2330  0.2531
 3291TIP3    H131508   3.102   4.457   1.431  0.3721 -0.0965  2.0310
 3291TIP3    H231509   3.247   4.499   1.437  0.6039 -0.3154 -0.9049
 3292TIP3   OH231510   2.060   5.156   3.907 -0.2562  0.1126 -0.4026
 3292TIP3    H131511   2.076   5.116   3.992 -0.5098  1.2736  0.2119
 3292TIP3    H231512   1.968   5.136   3.888 -0.3310  0.2458 -0.1818
 3293TIP3   OH231513   2.589   4.839   3.285 -0.2653 -0.0406  0.1262
 3293TIP3    H131514   2.649   4.858   3.213 -0.2073  1.2342  0.4928
 3293TIP3    H231515   2.531   4.772   3.250 -0.5505  0.8975 -1.2936
 3294TIP3   OH231516   5.268   1.599   4.276  0.1448 -0.3882 -0.3835
 3294TIP3    H131517   5.234   1.513   4.298 -2.4808  1.0085  1.6889
 3294TIP3    H231518   5.294   1.592   4.185 -1.5010 -2.9386 -0.7632
 3295TIP3   OH231519   6.418   2.282   1.928 -0.6980  0.0904  0.1453
 3295TIP3    H131520   6.324   2.302   1.928 -0.9040 -0.8120 -0.0578
 3295TIP3    H231521   6.433   2.238   1.844 -0.0520  0.3753  0.1026
 3296TIP3   OH231522   0.098   3.777   1.600  0.3392 -0.1455  0.1956
 3296TIP3    H131523   0.177   3.830   1.604  1.5199 -1.8990  0.7436
 3296TIP3    H231524   0.117   3.710   1.534 -0.9726 -0.1642 -0.1947
 3297TIP3   OH231525   0.424   0.614   1.071 -0.5604  0.2016  0.2442
 3297TIP3    H131526   0.439   0.682   1.006 -1.6625  0.5144  0.3049
 3297TIP3    H231527   0.510   0.573   1.083 -0.4535 -0.3399 -1.9355
 3298TIP3   OH231528   5.921   5.796   1.128  0.2417  0.7146  0.0991
 3298TIP3    H131529   5.960   5.742   1.197 -1.2439 -0.0642  0.3601
 3298TIP3    H231530   5.914   5.883   1.167 -2.0904 -0.0599  1.6149
 3299TIP3   OH231531   1.769   3.324   8.717  0.0334  0.0782 -0.0543
 3299TIP3    H131532   1.838   3.345   8.779 -1.0430  0.0247  1.2076
 3299TIP3    H231533   1.766   3.229   8.716  2.1110 -0.0744 -2.6083
 3300TIP3   OH231534   5.655   1.012   1.588  0.0097  0.0064  0.2446
 3300TIP3    H131535   5.733   1.000   1.534  1.2270  0.6013  1.8149
 3300TIP3    H231536   5.617   0.925   1.595 -0.0161 -0.1385 -1.2824
 3301TIP3   OH231537   3.758   5.555   1.960 -0.2119 -0.4014  0.4386
 3301TIP3    H131538   3.755   5.498   1.883 -0.4522 -1.2200  1.0561
 3301TIP3    H231539   3.731   5.500   2.033 -1.1566  0.6811  0.9379
 3302TIP3   OH231540   6.209   1.352   2.164  0.3332  0.5495 -0.4318
 3302TIP3    H131541   6.263   1.286   2.121  1.5912 -0.0953  1.9419
 3302TIP3    H231542   6.123   1.309   2.173  0.8166 -0.3411  0.0791
 3303TIP3   OH231543   0.542   3.338   2.243  0.6007 -0.6332  0.3803
 3303TIP3    H131544   0.473   3.400   2.220 -0.2584 -1.2792  1.2046
 3303TIP3    H231545   0.596   3.332   2.163  0.5321  0.9298  0.1908
 3304TIP3   OH231546   2.274   5.670   0.432  0.1368 -0.0135 -0.4461
 3304TIP3    H131547   2.266   5.721   0.351 -0.8983 -0.8358 -0.8814
 3304TIP3    H231548   2.318   5.589   0.406  1.6262  0.5526  0.2127
 3305TIP3   OH231549   5.339   3.900   2.581 -0.9149 -0.4255  0.0283
 3305TIP3    H131550   5.392   3.868   2.508 -1.8313  1.8279 -1.7772
 3305TIP3    H231551   5.350   3.995   2.578 -1.3658 -0.2178  2.6044
 3306TIP3   OH231552   2.444   1.310   2.176 -0.0476 -0.2273 -0.5885
 3306TIP3    H131553   2.533   1.275   2.182 -0.3468 -1.2417 -1.5801
 3306TIP3    H231554   2.403   1.284   2.258  1.1054  1.9530  0.7635
 3307TIP3   OH231555   0.770   5.035   2.428 -0.4790  0.1945 -0.1543
 3307TIP3    H131556   0.800   5.124   2.446 -0.5955  0.2946 -0.4491
 3307TIP3    H231557   0.796   5.020   2.337 -1.0220  0.1577 -0.3014
 3308TIP3   OH231558   3.766   0.962   8.003 -0.6298  0.3129  0.0997
 3308TIP3    H131559   3.817   0.975   7.922  0.4173 -0.5897  0.5838
 3308TIP3    H231560   3.820   0.902   8.055 -2.5066 -1.2233  0.3717
 3309TIP3   OH231561   6.832   4.351   3.733  0.2416 -0.4011  0.1674
 3309TIP3    H131562   6.890   4.321   3.664 -0.0521 -1.4223  0.3425
 3309TIP3    H231563   6.751   4.376   3.687  0.2165 -0.6170  0.0940
 3310TIP3   OH231564   1.567   5.574   3.174 -0.5062 -0.1950 -0.6581
 3310TIP3    H131565   1.587   5.617   3.091 -0.0371  1.2516  0.1796
 3310TIP3    H231566   1.512   5.636   3.221  1.8004  0.4163  1.4009
 3311TIP3   OH231567   6.380   0.155   1.656 -0.1970  0.0423 -0.6297
 3311TIP3    H131568   6.383   0.250   1.662  0.6923 -0.0490  1.1580
 3311TIP3    H231569   6.464   0.126   1.692 -0.6740 -1.4306 -0.6181
 3312TIP3   OH231570   3.435   6.696   8.345 -0.1499  1.0248  0.3241
 3312TIP3    H131571   3.343   6.723   8.338  0.2539  2.1533 -1.3056
 3312TIP3    H231572   3.437   6.638   8.421 -2.3465  0.3690 -0.0309
 3313TIP3   OH231573   0.883   1.666   8.653 -0.1961 -0.1924 -0.2548
 3313TIP3    H131574   0.865   1.618   8.572  0.7417 -1.7113  0.3818
 3313TIP3    H231575   0.977   1.685   8.649  0.1091 -1.3196  0.9778
 3314TIP3   OH231576   0.033   6.553   2.900 -0.5633  0.0245 -0.1047
 3314TIP3    H131577   0.070   6.562   2.988  1.1644 -2.4499 -0.4609
 3314TIP3    H231578   0.109   6.542   2.843 -1.7079 -0.0455 -1.6912
 3315TIP3   OH231579   0.066   3.546   1.985  0.0072 -0.1794  0.1233
 3315TIP3    H131580  -0.007   3.517   2.040 -0.4201 -2.0906 -1.3342
 3315TIP3    H231581   0.081   3.473   1.925  2.0960  0.8164 -0.6535
 3316TIP3   OH231582   1.994   5.321   1.690 -0.0429 -0.2440 -0.5235
 3316TIP3    H131583   2.007   5.415   1.700 -1.5092 -0.0133 -0.5746
 3316TIP3    H231584   1.990   5.288   1.780  1.6684 -0.4719 -0.4957
 3317TIP3   OH231585   0.471   1.049   1.415 -0.3520  0.5695  0.5927
 3317TIP3    H131586   0.437   1.049   1.326 -0.1707 -0.3798  0.5050
 3317TIP3    H231587   0.415   1.110   1.463 -0.8474  0.6087 -0.0277
 3318TIP3   OH231588   0.873   0.321   1.628 -0.0156  0.1618  0.2289
 3318TIP3    H131589   0.833   0.306   1.714 -0.4770  0.8346  0.1399
 3318TIP3    H231590   0.967   0.317   1.644 -0.1055 -0.5722  0.6080
 3319TIP3   OH231591   6.630   3.220   0.456  0.0103  0.3471 -0.3888
 3319TIP3    H131592   6.595   3.309   0.455 -0.2120  0.2673 -1.3946
 3319TIP3    H231593   6.639   3.198   0.549 -2.1811  0.5330 -0.0807
 3320TIP3   OH231594   1.254   2.733   0.501 -0.1951 -0.0448  0.1669
 3320TIP3    H131595   1.238   2.684   0.421 -0.5073 -0.4433  0.4700
 3320TIP3    H231596   1.253   2.825   0.474  1.2368 -0.2125 -0.5599
 3321TIP3   OH231597   0.039   1.172   0.463 -0.4032 -0.1153 -0.2066
 3321TIP3    H131598   0.089   1.244   0.503  0.8310 -0.7271 -0.5962
 3321TIP3    H231599   0.034   1.196   0.371 -1.9324  0.5436  0.0166
 3322TIP3   OH231600   0.912   2.037   2.663  0.1687 -0.6708 -0.1216
 3322TIP3    H131601   0.879   2.068   2.579 -0.3245  1.9642  0.9354
 3322TIP3    H231602   0.854   1.964   2.686 -1.5997  0.4424 -0.7660
 3323TIP3   OH231603   6.000   0.114   0.844  0.1296  0.2217  0.7521
 3323TIP3    H131604   6.066   0.052   0.876 -1.5441 -0.6563  2.7235
 3323TIP3    H231605   5.986   0.174   0.917  0.1794  1.6787 -0.3872
 3324TIP3   OH231606   3.360   5.763   2.738 -0.0830  0.0107  0.2066
 3324TIP3    H131607   3.406   5.712   2.805  0.1810  0.5000  0.4008
 3324TIP3    H231608   3.269   5.765   2.768 -0.5191 -1.9998 -0.8019
 3325TIP3   OH231609   6.387   4.758   0.603  0.3389 -0.0801  0.3479
 3325TIP3    H131610   6.302   4.755   0.646  0.4433 -0.9905  0.5160
 3325TIP3    H231611   6.418   4.667   0.604 -0.1007 -0.3560 -2.5130
 3326TIP3   OH231612   4.727   4.416   2.586  0.3160 -0.2257  0.2909
 3326TIP3    H131613   4.789   4.373   2.644  0.2173  0.0309  0.5899
 3326TIP3    H231614   4.779   4.484   2.542  0.8576 -1.6244 -1.3436
 3327TIP3   OH231615   1.001   3.273   8.727  0.1942  0.4460  0.2806
 3327TIP3    H131616   0.974   3.246   8.815  1.1447  0.4415  0.5794
 3327TIP3    H231617   0.969   3.363   8.718 -0.6625  0.1557  0.2898
 3328TIP3   OH231618   6.273   6.548   3.438 -0.2793 -0.2753 -0.4602
 3328TIP3    H131619   6.189   6.536   3.482 -1.7570  0.8463 -2.7663
 3328TIP3    H231620   6.311   6.625   3.478 -0.5059 -0.5773  0.3517
 3329TIP3   OH231621   2.983   1.721   3.133 -0.6079 -0.0458 -0.5009
 3329TIP3    H131622   2.891   1.698   3.141 -0.5310 -0.6581 -1.2358
 3329TIP3    H231623   3.025   1.641   3.100  0.3646 -0.1289  0.8115
 3330TIP3   OH231624   3.868   2.494   3.380 -0.1837 -0.3703  0.0761
 3330TIP3    H131625   3.794   2.551   3.356  0.2337 -0.3990 -1.3583
 3330TIP3    H231626   3.832   2.406   3.372 -0.1822 -0.3668  0.0285
 3331TIP3   OH231627   5.530   1.256   2.310  0.7384 -0.1512  0.1211
 3331TIP3    H131628   5.597   1.188   2.322 -1.0508 -1.5328  3.7635
 3331TIP3    H231629   5.543   1.315   2.385 -0.4900  1.0364 -0.5664
 3332TIP3   OH231630   5.951   4.760   3.511 -0.3177  0.0992 -0.1089
 3332TIP3    H131631   6.013   4.687   3.510  1.0683  1.2277 -0.6630
 3332TIP3    H231632   5.882   4.733   3.572 -0.7266 -2.3467 -1.5159
 3333TIP3   OH231633   5.785   3.268   2.377 -0.0411 -0.4677 -0.0404
 3333TIP3    H131634   5.762   3.177   2.357  0.8547 -0.5566 -0.7086
 3333TIP3    H231635   5.870   3.281   2.335  0.3061  0.3830  0.8906
 3334TIP3   OH231636   4.116   4.507   2.217 -0.0864 -0.1354 -0.6878
 3334TIP3    H131637   4.040   4.566   2.210  0.1483  0.1201 -1.1075
 3334TIP3    H231638   4.108   4.468   2.304 -1.6311 -1.3917 -1.3465
 3335TIP3   OH231639   4.316   0.528   8.464  0.3529  0.1410 -0.5492
 3335TIP3    H131640   4.378   0.478   8.517  0.9371  0.8492 -0.5545
 3335TIP3    H231641   4.260   0.461   8.424  1.6804 -0.5885 -1.2813
 3336TIP3   OH231642   4.700   0.301   0.091 -0.4845  0.2230 -0.6075
 3336TIP3    H131643   4.786   0.291   0.051  0.3591 -0.1247  1.1964
 3336TIP3    H231644   4.642   0.325   0.019  1.4224  2.0872 -1.6093
 3337TIP3   OH231645   3.268   0.424   8.164 -0.3500  0.1315  0.1823
 3337TIP3    H131646   3.206   0.409   8.092 -0.5789 -0.0147  0.4108
 3337TIP3    H231647   3.309   0.508   8.142 -0.8259  0.3680  0.1659
 3338TIP3   OH231648   5.542   0.320   3.105  0.1726 -0.4534 -0.5371
 3338TIP3    H131649   5.568   0.228   3.109 -0.0593 -0.5090 -0.2655
 3338TIP3    H231650   5.587   0.360   3.179 -0.2255 -0.4763 -0.2832
 3339TIP3   OH231651   3.865   0.546   0.063  0.0209 -0.0189 -0.2573
 3339TIP3    H131652   3.893   0.475   0.005  1.9973  1.5930 -1.3557
 3339TIP3    H231653   3.934   0.551   0.130 -1.8180 -1.3203  1.9061
 3340TIP3   OH231654   3.239   5.514   1.829  0.1733 -0.8259 -0.0734
 3340TIP3    H131655   3.180   5.543   1.760  0.3214  0.4029  0.2917
 3340TIP3    H231656   3.185   5.513   1.908  0.5719  0.0882  0.2209
 3341TIP3   OH231657   6.337   4.436   2.219 -0.0789 -0.2316 -0.6975
 3341TIP3    H131658   6.287   4.516   2.207 -0.3593  0.0982  1.9967
 3341TIP3    H231659   6.426   4.465   2.234  0.4956 -0.6773 -2.9138
 3342TIP3   OH231660   2.051   4.324   1.007 -0.6328  0.2909  0.0032
 3342TIP3    H131661   2.099   4.356   1.083 -0.6525  4.2245 -1.4018
 3342TIP3    H231662   2.118   4.314   0.939 -1.0857  0.6550 -0.5060
 3343TIP3   OH231663   3.200   4.414   2.998  0.3487 -0.7619 -0.0411
 3343TIP3    H131664   3.127   4.411   2.936  0.4279  0.8282 -0.2328
 3343TIP3    H231665   3.164   4.378   3.079 -0.7808  0.3903 -0.0105
 3344TIP3   OH231666   5.871   4.761   3.010 -0.5999  0.1824  0.4063
 3344TIP3    H131667   5.845   4.672   2.988 -1.2652  0.8150 -1.5780
 3344TIP3    H231668   5.922   4.752   3.090 -0.8335 -1.9427  0.3703
 3345TIP3   OH231669   0.721   0.610   2.002  0.3785 -0.1206 -0.0508
 3345TIP3    H131670   0.742   0.607   2.096 -0.3381 -0.4874  0.1000
 3345TIP3    H231671   0.631   0.643   1.999  0.5575  0.3274 -0.6373
 3346TIP3   OH231672   1.276   2.704   3.915  0.2789 -0.5701 -0.3705
 3346TIP3    H131673   1.243   2.745   3.995  0.4600 -1.4860  0.1898
 3346TIP3    H231674   1.210   2.725   3.849 -1.5843 -2.4579  0.7351
 3347TIP3   OH231675   4.268   3.552   1.836 -0.0656  0.0985 -0.0649
 3347TIP3    H131676   4.290   3.461   1.817  0.0934  0.5901 -2.5710
 3347TIP3    H231677   4.180   3.548   1.873  0.5869 -1.1640  1.4420
 3348TIP3   OH231678   2.710   5.693   3.821  0.3863 -0.4806  0.0667
 3348TIP3    H131679   2.757   5.649   3.892  3.1775  1.2058 -0.5528
 3348TIP3    H231680   2.740   5.650   3.741 -1.6924 -1.4664 -0.2515
 3349TIP3   OH231681   6.343   2.579   2.653 -0.4037 -0.1691 -0.5196
 3349TIP3    H131682   6.364   2.497   2.607 -0.1074 -0.1967 -0.3331
 3349TIP3    H231683   6.418   2.596   2.709 -0.9083 -0.3224  0.2229
 3350TIP3   OH231684   5.126   6.793   2.046 -0.4815  0.0161  0.1274
 3350TIP3    H131685   5.131   6.870   2.103  1.5057  0.2826 -0.3131
 3350TIP3    H231686   5.156   6.720   2.101 -0.6092 -0.1092  0.0305
 3351TIP3   OH231687   4.055   3.256   0.527 -0.1926  0.2002 -0.4137
 3351TIP3    H131688   4.071   3.348   0.544 -0.5718  0.2813 -0.4884
 3351TIP3    H231689   4.068   3.247   0.432  1.3173 -0.1277 -0.1960
 3352TIP3   OH231690   1.152   4.563   1.110  0.2686  0.7173  0.9336
 3352TIP3    H131691   1.242   4.540   1.086 -0.0905  1.0815 -0.8833
 3352TIP3    H231692   1.159   4.597   1.199  1.7591 -0.2573  1.2251
 3353TIP3   OH231693   5.497   2.116   1.059  0.0476 -0.9385  0.2291
 3353TIP3    H131694   5.559   2.171   1.011 -0.7379 -0.7859 -0.6402
 3353TIP3    H231695   5.429   2.096   0.995 -2.4594  1.4386  1.9005
 3354TIP3   OH231696   0.203   0.002   2.689  0.3096 -0.2109 -0.2520
 3354TIP3    H131697   0.119   0.012   2.732  0.1825  0.8173 -0.7150
 3354TIP3    H231698   0.266   0.044   2.748  0.6517 -1.6563  0.4765
 3355TIP3   OH231699   4.518   1.262   2.648 -0.0816  0.1582  0.6540
 3355TIP3    H131700   4.517   1.176   2.607  1.1860  0.2963  0.2825
 3355TIP3    H231701   4.568   1.250   2.728  2.8941  1.1396 -0.9206
 3356TIP3   OH231702   6.629   1.488   1.163  0.0751  0.2551  0.2859
 3356TIP3    H131703   6.685   1.564   1.147  0.1305 -0.0386 -1.0799
 3356TIP3    H231704   6.607   1.456   1.075 -0.9947 -0.5420  0.8173
 3357TIP3   OH231705   6.803   6.135   3.288 -0.3901 -0.0128 -0.0142
 3357TIP3    H131706   6.851   6.053   3.271  0.2659  0.4963 -0.6704
 3357TIP3    H231707   6.802   6.180   3.204  0.2552  1.1757  0.5907
 3358TIP3   OH231708   5.515   3.452   0.636  0.3846 -0.1450 -0.9527
 3358TIP3    H131709   5.566   3.420   0.562 -1.3938  0.1104 -2.3687
 3358TIP3    H231710   5.436   3.489   0.596 -1.4394 -1.5087  1.1551
 3359TIP3   OH231711   4.384   6.436   8.628 -0.1193 -0.1173 -0.3407
 3359TIP3    H131712   4.451   6.381   8.669 -0.8667 -1.1845 -0.5039
 3359TIP3    H231713   4.402   6.429   8.534  0.8075  1.2965 -0.2968
 3360TIP3   OH231714   5.879   1.120   4.072  0.3716 -0.0936  0.1211
 3360TIP3    H131715   5.941   1.172   4.022  0.1017  0.8575  0.7461
 3360TIP3    H231716   5.926   1.097   4.152  0.6468 -1.2278 -0.3426
 3361TIP3   OH231717   5.910   0.215   1.424 -0.9369  0.6193  0.2106
 3361TIP3    H131718   5.978   0.275   1.452 -0.1108  0.8316 -2.0243
 3361TIP3    H231719   5.927   0.135   1.474  1.2038  0.5490 -0.5105
 3362TIP3   OH231720   1.185   2.418   3.303  0.1527 -0.5022 -0.0092
 3362TIP3    H131721   1.157   2.501   3.340  0.8692 -0.8948  1.5059
 3362TIP3    H231722   1.158   2.421   3.212 -1.0265  0.8313  0.3597
 3363TIP3   OH231723   6.451   3.994   3.139  0.1108  0.4949  0.0223
 3363TIP3    H131724   6.448   3.912   3.090  2.3877  0.4780 -0.2107
 3363TIP3    H231725   6.539   3.996   3.177 -0.6340  1.8166  1.8564
 3364TIP3   OH231726   6.088   3.529   1.299 -0.4618  0.4186  0.1906
 3364TIP3    H131727   6.123   3.598   1.356  0.5567 -0.2556  0.3969
 3364TIP3    H231728   6.012   3.496   1.347  1.0174 -0.9006  1.7507
 3365TIP3   OH231729   4.661   1.676   1.711  0.0304 -0.2976 -0.6368
 3365TIP3    H131730   4.730   1.613   1.692  0.7092  0.4297 -0.6660
 3365TIP3    H231731   4.685   1.754   1.661 -0.9155 -0.0861 -0.7879
 3366TIP3   OH231732   3.519   6.736   1.980  0.2757  0.8954  0.3260
 3366TIP3    H131733   3.593   6.741   2.042  0.5899  0.6474 -0.0221
 3366TIP3    H231734   3.533   6.654   1.933  0.8219  1.7254 -1.0383
 3367TIP3   OH231735   4.592   5.410   1.437  0.6151  0.0918  0.2502
 3367TIP3    H131736   4.608   5.500   1.410 -0.9980  0.4518  0.3385
 3367TIP3    H231737   4.647   5.357   1.379  0.8997  1.0840 -0.4212
 3368TIP3   OH231738   5.971   5.860   3.407 -0.2311 -0.0756 -0.0964
 3368TIP3    H131739   5.902   5.849   3.473 -1.4118 -0.3950 -1.3234
 3368TIP3    H231740   5.951   5.944   3.365  1.0214  0.5497  0.4971
 3369TIP3   OH231741   5.100   1.708   0.032 -0.1247  0.7084 -0.7352
 3369TIP3    H131742   5.058   1.670  -0.045  0.5173  0.8898 -1.1806
 3369TIP3    H231743   5.174   1.650   0.050 -1.2122 -0.3094  0.7691
 3370TIP3   OH231744   5.824   6.258   0.310  0.0568 -0.3952  0.0462
 3370TIP3    H131745   5.826   6.353   0.305 -2.3411 -0.2643  0.4726
 3370TIP3    H231746   5.794   6.230   0.223 -0.0063 -0.7221  0.1721
 3371TIP3   OH231747   3.103   1.279   8.446  0.6880 -0.3995  0.0292
 3371TIP3    H131748   3.113   1.221   8.370  1.2786 -1.2877  0.7530
 3371TIP3    H231749   3.132   1.365   8.415  2.2239 -1.0309 -0.3992
 3372TIP3   OH231750   6.586   3.030   0.082 -0.5045  0.1573  0.0489
 3372TIP3    H131751   6.670   2.984   0.078 -0.5463 -0.1562  2.0206
 3372TIP3    H231752   6.531   2.983   0.020  0.0115 -1.3141  0.6623
 3373TIP3   OH231753   3.205   4.524   2.476 -0.4710 -0.4455  0.2713
 3373TIP3    H131754   3.236   4.578   2.404  0.6182  1.2924  1.9580
 3373TIP3    H231755   3.283   4.476   2.505 -0.5819 -0.0851  1.1709
 3374TIP3   OH231756   1.775   6.552   3.376 -0.0128 -0.1226  0.3069
 3374TIP3    H131757   1.803   6.460   3.376 -1.7279 -0.6863 -0.7642
 3374TIP3    H231758   1.840   6.596   3.431  0.7826 -1.9861  0.9662
 3375TIP3   OH231759   4.261   1.176   0.733 -0.7724  0.4983 -0.2321
 3375TIP3    H131760   4.329   1.237   0.705 -0.7341  0.2726 -0.6332
 3375TIP3    H231761   4.231   1.211   0.817 -0.5098  0.8748 -0.2919
 3376TIP3   OH231762   5.173   5.694   2.233 -0.2316 -0.4210 -0.1819
 3376TIP3    H131763   5.200   5.784   2.250 -0.7209 -0.3923  0.4568
 3376TIP3    H231764   5.140   5.696   2.143  2.2417 -0.5573 -1.1746
 3377TIP3   OH231765   1.651   1.048   3.870 -0.1239  0.5821  0.0808
 3377TIP3    H131766   1.706   1.092   3.936  0.3081 -0.3684  0.3653
 3377TIP3    H231767   1.681   1.085   3.786  0.1082  0.9644  0.3281
 3378TIP3   OH231768   6.508   0.931   2.178 -0.0169  0.2160 -0.1354
 3378TIP3    H131769   6.571   0.938   2.250  0.1917  0.7275 -0.3623
 3378TIP3    H231770   6.551   0.874   2.114 -0.6743 -1.1762  0.6268
 3379TIP3   OH231771   1.631   6.137   1.874 -0.1374 -0.1877 -0.3439
 3379TIP3    H131772   1.723   6.127   1.901  0.2416  0.7930 -1.2200
 3379TIP3    H231773   1.635   6.174   1.786 -1.3814  0.7070 -0.0504
 3380TIP3   OH231774   4.116   4.789   0.694 -0.3941 -0.7935 -0.4330
 3380TIP3    H131775   4.093   4.734   0.769 -0.0614  0.8806  0.9623
 3380TIP3    H231776   4.207   4.811   0.708 -0.0382 -1.2124 -1.8863
 3381TIP3   OH231777   2.710   2.465   2.310 -0.2798 -0.1093  0.5747
 3381TIP3    H131778   2.690   2.396   2.247 -0.3457  1.7601 -1.5942
 3381TIP3    H231779   2.631   2.472   2.363 -1.0495 -0.3550 -0.5039
 3382TIP3   OH231780   6.032   3.335   3.629  0.3703  0.2403  0.0737
 3382TIP3    H131781   6.123   3.353   3.606  0.6559 -0.0019  0.9630
 3382TIP3    H231782   5.999   3.419   3.661  0.6353  0.0596  0.8434
 3383TIP3   OH231783   4.027   0.087   0.875 -0.3145  0.1129 -0.2427
 3383TIP3    H131784   4.022   0.054   0.965 -1.0245 -0.3853 -0.4538
 3383TIP3    H231785   4.093   0.031   0.833  1.9810  2.0060  0.6213
 3384TIP3   OH231786   1.333   2.074   1.128  0.8562 -0.5432 -0.2821
 3384TIP3    H131787   1.376   1.994   1.156  0.6703 -0.5586 -0.0396
 3384TIP3    H231788   1.394   2.113   1.064  2.2253  0.4806  1.5486
 3385TIP3   OH231789   4.820   4.586   1.722  0.1203  0.1796  0.1620
 3385TIP3    H131790   4.808   4.515   1.785  2.3867 -0.3706  0.0401
 3385TIP3    H231791   4.734   4.594   1.679 -0.1024 -2.8019 -0.1566
 3386TIP3   OH231792   5.162   2.894   0.711  0.2101 -0.5538  0.7899
 3386TIP3    H131793   5.130   2.895   0.621 -1.2011  1.8442  1.2123
 3386TIP3    H231794   5.239   2.951   0.710 -1.0490  1.2719  1.3902
 3387TIP3   OH231795   0.847   4.645   2.917  0.2994 -1.2635 -0.4785
 3387TIP3    H131796   0.903   4.591   2.861 -0.8130 -4.2757  1.0760
 3387TIP3    H231797   0.766   4.595   2.926 -0.5409  0.3019  1.7375
 3388TIP3   OH231798   5.456   3.840   0.552  0.1489  0.5986  0.1146
 3388TIP3    H131799   5.494   3.927   0.554 -0.2891  0.8370 -1.2041
 3388TIP3    H231800   5.407   3.834   0.634  1.1732  1.1179  0.7815
 3389TIP3   OH231801   5.936   3.611   3.631 -0.2879  0.0277 -0.1196
 3389TIP3    H131802   6.021   3.639   3.663 -0.0227 -2.6632  1.8359
 3389TIP3    H231803   5.950   3.595   3.537  0.3344  2.9403 -0.6239
 3390TIP3   OH231804   2.221   0.805   1.008  0.7686  0.3853  0.2249
 3390TIP3    H131805   2.289   0.864   0.976  2.1984 -0.3599  1.7317
 3390TIP3    H231806   2.253   0.775   1.093 -0.0718 -2.3035 -0.3031
 3391TIP3   OH231807   2.721   0.088   8.647 -0.2673 -0.2778  0.5646
 3391TIP3    H131808   2.627   0.105   8.635  0.0252  0.6466 -0.6955
 3391TIP3    H231809   2.763   0.147   8.584  1.2050  0.0020  1.7775
 3392TIP3   OH231810   3.682   2.375   2.510 -0.5028  0.3572  0.1273
 3392TIP3    H131811   3.747   2.343   2.448 -0.2606 -0.1488  0.6339
 3392TIP3    H231812   3.728   2.442   2.561 -0.2228 -0.3156  0.7880
 3393TIP3   OH231813   0.094   2.675   1.435  0.3566  0.4808 -0.1815
 3393TIP3    H131814   0.046   2.758   1.442  2.3719  1.6282  0.9564
 3393TIP3    H231815   0.138   2.665   1.519  1.6784 -0.7698 -0.9664
 3394TIP3   OH231816   2.085   6.622   1.478 -0.2199  0.3074 -0.3920
 3394TIP3    H131817   1.990   6.630   1.473 -0.4874 -0.9235  1.4946
 3394TIP3    H231818   2.108   6.565   1.404 -0.7256  1.7964 -1.7354
 3395TIP3   OH231819   1.208   2.838   1.342  0.3720 -0.3784 -0.2801
 3395TIP3    H131820   1.189   2.829   1.435  0.5940 -0.8628 -0.2759
 3395TIP3    H231821   1.138   2.787   1.299 -0.7947  1.3007 -0.4820
 3396TIP3   OH231822   2.178   4.294   3.685 -0.0440  0.0362  0.3606
 3396TIP3    H131823   2.226   4.365   3.727  1.0955 -0.2186 -0.4727
 3396TIP3    H231824   2.086   4.320   3.693  0.1614  0.3070  2.4000
 3397TIP3   OH231825   4.664   3.248   2.860 -0.0289  0.1279 -0.8820
 3397TIP3    H131826   4.650   3.336   2.896 -0.7884  0.2113 -1.3625
 3397TIP3    H231827   4.748   3.221   2.896 -0.9987 -0.0470  1.5007
 3398TIP3   OH231828   3.317   2.083   3.951 -0.5058 -0.2291  0.3691
 3398TIP3    H131829   3.403   2.097   3.912  0.0216 -1.3866  1.0495
 3398TIP3    H231830   3.315   2.142   4.027 -1.2727  1.5343 -0.9702
 3399TIP3   OH231831   2.378   4.811   2.077  0.1072 -0.1964 -0.0357
 3399TIP3    H131832   2.362   4.872   2.149 -2.2710  0.6519 -1.1968
 3399TIP3    H231833   2.465   4.834   2.044  0.0918  1.1912  0.8431
 3400TIP3   OH231834   4.005   0.532   3.167 -0.2831  0.0075 -0.5398
 3400TIP3    H131835   4.015   0.538   3.262  1.2351  0.1348 -0.6874
 3400TIP3    H231836   4.073   0.590   3.132 -0.0776 -0.9080 -1.7123
 3401TIP3   OH231837   4.899   2.322   8.411 -0.3474 -0.0504  0.4250
 3401TIP3    H131838   4.920   2.301   8.502 -2.3657 -0.6119  0.8136
 3401TIP3    H231839   4.927   2.245   8.361 -0.6232 -0.3984  0.7976
 3402TIP3   OH231840   2.652   1.271   3.000  0.0475  0.1496 -0.1280
 3402TIP3    H131841   2.687   1.346   2.951  1.5041 -1.4341 -1.6525
 3402TIP3    H231842   2.716   1.256   3.069 -0.2141  0.2720  0.1416
 3403TIP3   OH231843   1.181   1.505   1.458 -0.0879 -0.5645 -0.0293
 3403TIP3    H131844   1.123   1.530   1.530 -0.9427 -0.6383 -0.6657
 3403TIP3    H231845   1.127   1.518   1.379  0.5565 -1.2532 -0.5925
 3404TIP3   OH231846   3.633   6.239   1.917 -0.2290 -0.2545  0.7829
 3404TIP3    H131847   3.584   6.174   1.867  0.5286 -1.3785  1.4603
 3404TIP3    H231848   3.643   6.201   2.004  1.1671  0.2842  0.8871
 3405TIP3   OH231849   5.804   4.466   1.860 -0.2144 -0.4745 -0.2825
 3405TIP3    H131850   5.738   4.411   1.818 -0.6519  0.5736 -1.0088
 3405TIP3    H231851   5.779   4.556   1.838  1.2700 -0.0333 -0.3101
 3406TIP3   OH231852   5.766   6.285   8.049 -0.5887  0.2439  0.1552
 3406TIP3    H131853   5.836   6.328   8.098 -0.5627  2.5245 -1.7354
 3406TIP3    H231854   5.696   6.273   8.114 -0.5310  3.0787  0.8604
 3407TIP3   OH231855   3.018   4.238   0.556 -0.2226  0.4167  0.1032
 3407TIP3    H131856   3.019   4.240   0.460  0.2895 -1.2780  0.0445
 3407TIP3    H231857   2.959   4.166   0.578  1.3511 -0.6509  1.0020
 3408TIP3   OH231858   0.539   6.266   2.047  0.5676 -0.4151  0.5289
 3408TIP3    H131859   0.454   6.266   2.001 -0.1956  2.9071  1.6847
 3408TIP3    H231860   0.603   6.278   1.977 -0.2609  0.6283 -0.0966
 3409TIP3   OH231861   1.749   5.769   8.427 -0.1319 -0.5128 -0.2551
 3409TIP3    H131862   1.814   5.762   8.358 -0.3859 -1.0083 -0.4526
 3409TIP3    H231863   1.765   5.854   8.467  0.4034 -0.4777 -0.5326
 3410TIP3   OH231864   0.926   0.856   2.509  0.9150 -0.4554  0.6665
 3410TIP3    H131865   0.947   0.939   2.552  0.3114 -0.6850  1.4190
 3410TIP3    H231866   0.855   0.819   2.561 -2.1853  0.7543 -2.2883
 3411TIP3   OH231867   2.606   0.376   1.244 -0.2184  0.4907  0.2481
 3411TIP3    H131868   2.601   0.285   1.274  0.6947  0.8032  1.4381
 3411TIP3    H231869   2.601   0.428   1.324  1.9666  1.3751 -0.1256
 3412TIP3   OH231870   1.015   3.712   1.016  0.7509  0.2867  0.5010
 3412TIP3    H131871   0.941   3.750   1.064  0.3884  0.7191 -0.3684
 3412TIP3    H231872   0.997   3.618   1.015  0.8610  0.2427  1.3497
 3413TIP3   OH231873   2.516   4.494   8.036  0.1071  0.4357  0.3083
 3413TIP3    H131874   2.501   4.515   8.128 -1.8108  2.4558 -0.3601
 3413TIP3    H231875   2.551   4.575   7.999 -1.4051  0.4572 -1.1669
 3414TIP3   OH231876   3.918   5.765   2.290  0.4717 -0.2130 -0.2405
 3414TIP3    H131877   3.951   5.698   2.230 -1.4280 -2.3368  0.8890
 3414TIP3    H231878   3.931   5.727   2.377 -1.1095  0.6514  0.4190
 3415TIP3   OH231879   3.905   1.575   0.332 -0.4096  0.0088  0.5642
 3415TIP3    H131880   3.827   1.579   0.277  0.3624  2.6998 -0.5287
 3415TIP3    H231881   3.872   1.587   0.421 -1.4425 -1.5932  0.4249
 3416TIP3   OH231882   5.141   0.891   1.479 -0.0664  0.7244 -0.0992
 3416TIP3    H131883   5.119   0.875   1.571  3.1507 -0.2598  0.6217
 3416TIP3    H231884   5.180   0.979   1.479  2.6576 -0.3728  0.1631
 3417TIP3   OH231885   5.911   0.796   2.592  0.2599  0.1367 -0.2336
 3417TIP3    H131886   5.987   0.823   2.644 -0.0031 -2.5453  1.8210
 3417TIP3    H231887   5.947   0.735   2.527  0.1305  0.6873 -0.8295
 3418TIP3   OH231888   6.102   4.494   1.040 -0.0898 -0.0069 -0.1886
 3418TIP3    H131889   6.179   4.517   0.987 -0.0841  0.5948  0.0827
 3418TIP3    H231890   6.034   4.473   0.975 -0.2164  1.1676 -0.4508
 3419TIP3   OH231891   1.991   2.926   3.530 -0.1711 -0.4293 -0.2074
 3419TIP3    H131892   2.002   3.016   3.500 -0.6054 -0.4254 -0.3603
 3419TIP3    H231893   1.951   2.934   3.617  1.3364 -0.4328  0.5185
 3420TIP3   OH231894   2.682   4.107   3.233 -0.0340 -0.0941  0.2151
 3420TIP3    H131895   2.631   4.172   3.281 -2.8454 -0.2842 -2.1723
 3420TIP3    H231896   2.616   4.056   3.185  2.3462 -1.4994 -1.8335
 3421TIP3   OH231897   2.132   1.737   2.559 -0.0605 -0.1996 -0.7614
 3421TIP3    H131898   2.177   1.706   2.638 -0.1559  1.5466  0.0217
 3421TIP3    H231899   2.073   1.806   2.590 -1.7855 -1.0149 -2.0703
 3422TIP3   OH231900   0.941   1.348   2.718  0.3638 -0.1869 -0.2329
 3422TIP3    H131901   0.936   1.425   2.660  1.1108  0.4305  0.5026
 3422TIP3    H231902   0.907   1.276   2.664 -0.6989  0.7135 -0.8235
 3423TIP3   OH231903   0.192   5.050   1.873 -0.2646 -0.0982  0.0954
 3423TIP3    H131904   0.256   5.114   1.904  1.8535 -1.6187 -0.8720
 3423TIP3    H231905   0.112   5.101   1.858  0.7131  1.9041  1.3010
 3424TIP3   OH231906   4.494   1.270   1.673 -0.7066  0.1035  0.2678
 3424TIP3    H131907   4.431   1.229   1.732 -0.9910  0.7775  0.4385
 3424TIP3    H231908   4.575   1.221   1.687 -1.0479 -0.4176  0.4416
 3425TIP3   OH231909   3.754   0.322   2.729  0.7254  0.1612  0.2010
 3425TIP3    H131910   3.829   0.358   2.682  0.1256  1.1203 -0.0582
 3425TIP3    H231911   3.683   0.323   2.664  0.5306 -0.9286  0.3760
 3426TIP3   OH231912   5.096   0.931   0.804 -0.5230 -0.4752  0.4668
 3426TIP3    H131913   5.158   0.876   0.852  0.2681  1.9033  2.3882
 3426TIP3    H231914   5.034   0.961   0.871 -1.2889  0.4580 -0.6292
 3427TIP3   OH231915   6.828   2.597   2.788  0.0310  0.1371  0.0690
 3427TIP3    H131916   6.851   2.628   2.876 -0.7119  0.6320  0.0948
 3427TIP3    H231917   6.841   2.502   2.793 -0.3469  0.1144  0.8275
 3428TIP3   OH231918   0.179   0.501   0.996  0.0304  0.2953  0.0791
 3428TIP3    H131919   0.138   0.585   0.980  0.4137  0.6485  0.9081
 3428TIP3    H231920   0.269   0.522   1.021  0.2012 -0.3690  0.0593
 3429TIP3   OH231921   6.678   2.022   1.834  0.3144 -0.0029 -0.2117
 3429TIP3    H131922   6.635   2.060   1.911  1.7847 -0.9572  1.1647
 3429TIP3    H231923   6.735   2.091   1.802  3.4830 -0.9579  2.6747
 3430TIP3   OH231924   5.746   3.053   3.603  0.1679  0.3798  0.0644
 3430TIP3    H131925   5.769   3.116   3.671 -0.3667 -0.4296  1.0336
 3430TIP3    H231926   5.829   3.009   3.581  0.3477  0.6604  0.1820
 3431TIP3   OH231927   3.737   0.899   2.097  0.0918  0.3895 -0.3072
 3431TIP3    H131928   3.663   0.840   2.111 -0.5086  0.9530 -1.0295
 3431TIP3    H231929   3.702   0.969   2.042  1.0861  0.8278 -0.4070
 3432TIP3   OH231930   2.201   6.197   3.233 -0.1470  0.3206 -0.8446
 3432TIP3    H131931   2.177   6.111   3.198 -1.8500  0.9739 -1.3877
 3432TIP3    H231932   2.203   6.254   3.156 -0.0275  0.9733 -0.3620
 3433TIP3   OH231933   3.575   2.281   8.329 -0.7685 -0.6953  0.0125
 3433TIP3    H131934   3.616   2.269   8.243 -0.3294  1.7081 -0.1799
 3433TIP3    H231935   3.496   2.332   8.312  1.1142  2.9405  1.2709
 3434TIP3   OH231936   6.458   4.576   1.281 -0.7039 -0.4396 -0.0343
 3434TIP3    H131937   6.463   4.528   1.199 -0.9907 -0.5892  0.0356
 3434TIP3    H231938   6.536   4.549   1.330 -0.5989 -0.4451 -0.2052
 3435TIP3   OH231939   0.401   5.443   1.909 -0.4397 -0.0857 -0.6100
 3435TIP3    H131940   0.473   5.505   1.921 -0.9711  0.2493  1.1824
 3435TIP3    H231941   0.397   5.394   1.991 -1.4418 -0.9796 -1.1636
 3436TIP3   OH231942   0.248   1.022   0.531 -0.0176  0.1064 -0.3161
 3436TIP3    H131943   0.306   1.068   0.592 -1.5645  0.9389  0.6079
 3436TIP3    H231944   0.177   1.084   0.514  0.0608 -0.3404 -2.5412
 3437TIP3   OH231945   6.403   5.536   3.782  0.5267 -0.0880  0.5803
 3437TIP3    H131946   6.309   5.548   3.785  0.7271  1.8498  0.2436
 3437TIP3    H231947   6.420   5.461   3.840 -1.2118 -0.6336  0.4305
 3438TIP3   OH231948   1.420   0.273   3.960 -0.5482 -0.0783 -0.3842
 3438TIP3    H131949   1.461   0.321   3.888  1.4144  1.8648  1.8266
 3438TIP3    H231950   1.335   0.315   3.972 -0.5284  0.1468 -1.0321
 3439TIP3   OH231951   2.078   6.857   4.240  0.0476 -0.0175  0.0328
 3439TIP3    H131952   2.097   6.934   4.188  2.5676 -0.3118  0.3886
 3439TIP3    H231953   2.163   6.814   4.251 -1.0825 -2.1881  0.8701
 3440TIP3   OH231954   6.615   4.212   0.891  0.6460  0.3284  0.2542
 3440TIP3    H131955   6.531   4.251   0.917 -0.0296 -0.2394 -0.9894
 3440TIP3    H231956   6.598   4.119   0.884  1.4518  0.1748  0.2396
 3441TIP3   OH231957   5.136   4.455   8.477  0.7261  0.0611  0.2339
 3441TIP3    H131958   5.147   4.380   8.535 -0.7351  1.3743  2.3999
 3441TIP3    H231959   5.175   4.528   8.526 -0.1299  1.1383 -0.6325
 3442TIP3   OH231960   2.956   6.091   1.092 -0.1009  0.1512  0.2743
 3442TIP3    H131961   3.031   6.143   1.063  0.3797 -0.6441  0.0769
 3442TIP3    H231962   2.968   6.006   1.051 -0.7808 -0.1890  0.7588
 3443TIP3   OH231963   4.123   4.268   4.109  1.1493 -0.2608 -0.1869
 3443TIP3    H131964   4.178   4.195   4.082  1.4311  0.1235 -0.6632
 3443TIP3    H231965   4.056   4.274   4.041 -0.4124 -1.6790  1.1447
 3444TIP3   OH231966   3.820   6.250   3.056  0.1967  0.1810  0.6232
 3444TIP3    H131967   3.831   6.345   3.063  0.6130  0.2489 -0.7753
 3444TIP3    H231968   3.848   6.216   3.141  0.1008  1.2956  1.1117
 3445TIP3   OH231969   3.575   4.946   0.993  0.3007 -0.2223  0.1329
 3445TIP3    H131970   3.523   5.023   0.969  2.2498  1.2449  0.3621
 3445TIP3    H231971   3.614   4.969   1.078  2.8330 -0.3779 -0.8873
 3446TIP3   OH231972   5.914   4.362   0.595 -0.1411  0.1827 -0.2546
 3446TIP3    H131973   5.925   4.395   0.506 -0.1373 -0.2779 -0.4314
 3446TIP3    H231974   5.973   4.415   0.649  0.6802 -0.2587 -0.7039
 3447TIP3   OH231975   2.508   0.754   2.328  0.1795  0.1986 -0.4242
 3447TIP3    H131976   2.498   0.757   2.232  0.8446 -1.8544 -0.5978
 3447TIP3    H231977   2.419   0.767   2.361 -0.2207 -0.0443 -1.3577
 3448TIP3   OH231978   5.954   2.181   1.915 -0.3684 -0.4894  0.0183
 3448TIP3    H131979   5.883   2.226   1.961  0.3556  3.0494 -1.9686
 3448TIP3    H231980   5.912   2.143   1.837 -0.3072  0.7810 -0.6602
 3449TIP3   OH231981   6.701   1.117   0.952 -0.2445  0.3408  0.4181
 3449TIP3    H131982   6.691   1.063   1.031  1.8801 -1.3903 -0.3928
 3449TIP3    H231983   6.648   1.072   0.886 -1.1054  1.1567  0.5206
 3450TIP3   OH231984   2.256   5.031   8.666  0.2899 -0.1472 -0.0949
 3450TIP3    H131985   2.258   4.955   8.724 -0.7221  0.0510  0.2337
 3450TIP3    H231986   2.190   5.089   8.706  0.4823  0.5447 -0.7673
 3451TIP3   OH231987   5.165   1.806   3.939 -0.7072  0.5615 -0.0796
 3451TIP3    H131988   5.099   1.873   3.923 -1.3600  0.1794  0.9720
 3451TIP3    H231989   5.153   1.781   4.030  1.0898  0.6847  0.2215
 3452TIP3   OH231990   4.804   5.002   3.066 -0.1243  0.4133 -0.6342
 3452TIP3    H131991   4.717   5.026   3.097 -0.5833  0.2647 -1.7663
 3452TIP3    H231992   4.860   5.007   3.144 -1.2556 -0.0592  0.2260
 3453TIP3   OH231993   0.524   3.037   2.491  0.7771 -0.0215  0.0782
 3453TIP3    H131994   0.561   2.971   2.549  0.8019 -0.5360 -0.5104
 3453TIP3    H231995   0.498   2.988   2.413  0.4263  0.6042 -0.2033
 3454TIP3   OH231996   5.408   1.404   0.248  0.1720  0.5788 -0.4861
 3454TIP3    H131997   5.323   1.361   0.263  0.7704 -0.8981 -1.1013
 3454TIP3    H231998   5.471   1.349   0.294  1.0026  0.6106 -1.5517
 3455TIP3   OH231999   6.677   1.839   0.678 -0.4486 -0.2381  0.4100
 3455TIP3    H132000   6.675   1.887   0.760 -0.4973 -0.1516  0.3591
 3455TIP3    H232001   6.586   1.836   0.650 -0.1913  1.9710 -0.9250
 3456TIP3   OH232002   1.020   0.023   3.114 -0.1203 -0.1635  0.1030
 3456TIP3    H132003   1.040   0.082   3.041  0.4307 -0.0584  0.3336
 3456TIP3    H232004   1.094   0.033   3.174  0.0536 -1.1927  0.0832
 3457TIP3   OH232005   5.278   1.044   1.910 -0.5409 -0.3087  0.2278
 3457TIP3    H132006   5.344   1.063   1.976 -0.5148 -1.1129  0.4445
 3457TIP3    H232007   5.226   1.124   1.903  1.4559  0.9453 -1.1426
 3458TIP3   OH232008   6.469   2.728   2.247  0.0146 -0.2331  0.3435
 3458TIP3    H132009   6.564   2.721   2.242 -0.0503 -0.3514 -2.9538
 3458TIP3    H232010   6.437   2.656   2.192 -1.9021  0.9287 -0.1405
 3459TIP3   OH232011   3.698   2.892   3.682  0.2291 -0.2476  0.1104
 3459TIP3    H132012   3.760   2.858   3.746 -0.2538  0.1969  0.8224
 3459TIP3    H232013   3.626   2.927   3.734 -0.6472 -0.7838 -0.7060
 3460TIP3   OH232014   2.198   5.942   0.887  0.7571 -0.4682 -0.3294
 3460TIP3    H132015   2.238   5.869   0.935 -0.1090 -1.0089 -0.4046
 3460TIP3    H232016   2.192   5.911   0.797  0.5605 -0.2316 -0.3982
 3461TIP3   OH232017   3.539   5.601   0.676  0.0694 -0.0125  0.4290
 3461TIP3    H132018   3.488   5.618   0.755  1.9916  0.2382  1.6980
 3461TIP3    H232019   3.609   5.543   0.705 -0.0921 -1.2656 -1.4791
 3462TIP3   OH232020   3.585   3.768   2.796  0.5759  0.3752  0.0851
 3462TIP3    H132021   3.676   3.791   2.776  0.6184 -0.3769 -0.6565
 3462TIP3    H232022   3.541   3.767   2.711 -0.1485  0.7987  0.4438
 3463TIP3   OH232023   5.235   1.237   8.034  0.1805 -0.5713 -0.4890
 3463TIP3    H132024   5.263   1.171   7.970 -1.3617 -1.1554 -0.6117
 3463TIP3    H232025   5.228   1.318   7.984  0.2313 -0.7426 -0.7769
 3464TIP3   OH232026   3.742   3.078   3.465 -0.4448  0.1123 -0.1781
 3464TIP3    H132027   3.652   3.102   3.443 -0.8901  0.8453  2.1605
 3464TIP3    H232028   3.734   3.021   3.542  1.0485 -0.6158 -0.5223
 3465TIP3   OH232029   0.154   3.128   0.162  0.1237  0.0098  0.0236
 3465TIP3    H132030   0.088   3.093   0.222 -1.0334 -0.1650 -1.3027
 3465TIP3    H232031   0.105   3.184   0.102  1.4781  1.3679  0.1334
 3466TIP3   OH232032   5.882   0.496   3.678  0.0278  0.1277 -0.6091
 3466TIP3    H132033   5.958   0.441   3.693  0.5431  0.7294 -0.9919
 3466TIP3    H232034   5.877   0.552   3.756  0.8350  1.0739 -1.2185
 3467TIP3   OH232035   4.082   3.276   2.935  0.2703  0.2327  0.3080
 3467TIP3    H132036   4.135   3.202   2.963 -1.8958 -0.6211  2.4641
 3467TIP3    H232037   4.004   3.237   2.896  0.0540  1.4261 -0.5257
 3468TIP3   OH232038   3.265   5.403   3.551  0.3801 -0.4705 -0.3598
 3468TIP3    H132039   3.175   5.413   3.518  0.0469 -0.5019  0.5139
 3468TIP3    H232040   3.286   5.311   3.534 -0.1926 -0.7731  0.4645
 3469TIP3   OH232041   3.853   6.191   3.317  0.3181  1.2648 -0.3800
 3469TIP3    H132042   3.840   6.114   3.372  1.1433  0.3276 -1.4574
 3469TIP3    H232043   3.857   6.264   3.379  0.0462  0.3899  0.7004
 3470TIP3   OH232044   6.209   5.823   2.162  0.7274 -0.4076  0.3270
 3470TIP3    H132045   6.194   5.915   2.182 -1.5425 -0.5299 -0.5833
 3470TIP3    H232046   6.153   5.775   2.223  0.7516 -1.1363 -0.2148
 3471TIP3   OH232047   1.343   2.783   1.891 -0.4527 -0.6290  0.2463
 3471TIP3    H132048   1.366   2.735   1.811  0.7984 -0.1604  0.3123
 3471TIP3    H232049   1.290   2.857   1.860  0.3341 -0.2384 -0.2174
 3472TIP3   OH232050   5.434   0.916   0.794  0.0606 -0.3547 -0.2869
 3472TIP3    H132051   5.402   1.001   0.824  0.0637  0.0538 -1.3928
 3472TIP3    H232052   5.489   0.884   0.866 -0.1403  0.4555  0.2408
 3473TIP3   OH232053   0.884   3.233   0.611  0.5903 -0.4622  0.2898
 3473TIP3    H132054   0.913   3.274   0.530  2.2568 -1.2284  0.4452
 3473TIP3    H232055   0.818   3.292   0.647  0.8974  0.6180 -0.8845
 3474TIP3   OH232056   1.958   1.258   2.991  0.3743 -0.0821 -0.0426
 3474TIP3    H132057   1.989   1.224   3.074  0.3046  0.3710  0.1765
 3474TIP3    H232058   1.926   1.346   3.012 -1.6295 -0.7272 -0.1223
 3475TIP3   OH232059   2.452   4.993   8.494 -0.3199  0.2073  0.5555
 3475TIP3    H132060   2.404   4.994   8.411  1.2079  2.0883 -0.3939
 3475TIP3    H232061   2.398   5.047   8.552 -0.2282  0.9162  0.0079
 3476TIP3   OH232062   4.735   2.889   0.249  0.1540  0.3425  0.6722
 3476TIP3    H132063   4.742   2.841   0.166  0.2330 -0.5407  1.1699
 3476TIP3    H232064   4.663   2.950   0.235  0.9913  1.1119 -0.4707
 3477TIP3   OH232065   0.585   2.676   3.867  0.4177  0.6463 -0.5578
 3477TIP3    H132066   0.652   2.674   3.936  0.1339  1.2830 -0.2615
 3477TIP3    H232067   0.516   2.619   3.899 -0.2950  1.9573  0.2943
 3478TIP3   OH232068   6.715   2.687   2.348  0.1405  0.2312  0.2292
 3478TIP3    H132069   6.685   2.726   2.430  1.0183  0.0768  0.6417
 3478TIP3    H232070   6.798   2.731   2.330  0.1266  0.0107 -0.3846
 3479TIP3   OH232071   2.873   2.842   1.266  0.4510 -0.2756  0.2918
 3479TIP3    H132072   2.778   2.848   1.278  0.5318 -1.8771  2.1553
 3479TIP3    H232073   2.888   2.874   1.177 -1.7005  1.0102  0.3316
 3480TIP3   OH232074   0.685   0.517   1.091 -0.9635 -0.4995 -0.4925
 3480TIP3    H132075   0.777   0.510   1.116 -0.7315 -0.1718 -1.2299
 3480TIP3    H232076   0.677   0.466   1.010 -0.5343  2.5069 -2.6335
 3481TIP3   OH232077   0.469   0.243   2.531  0.1648  0.0559 -0.4930
 3481TIP3    H132078   0.379   0.250   2.499  0.8625  2.7735 -2.1836
 3481TIP3    H232079   0.518   0.208   2.457  0.5679 -1.4511  0.4335
 3482TIP3   OH232080   1.896   6.819   2.517 -0.0222 -0.4551 -0.4598
 3482TIP3    H132081   1.935   6.772   2.443 -0.5142 -0.8398 -0.4828
 3482TIP3    H232082   1.955   6.893   2.532  1.2607 -1.5415  0.1363
 3483TIP3   OH232083   2.108   4.326   3.217 -0.4337 -0.4028  0.8543
 3483TIP3    H132084   2.123   4.241   3.257  0.6446 -0.6979 -0.1186
 3483TIP3    H232085   2.174   4.332   3.148 -2.0965  0.1402 -0.7710
 3484TIP3   OH232086   2.224   5.177   1.564 -0.3427 -0.1644  0.1925
 3484TIP3    H132087   2.303   5.226   1.583 -0.1977 -0.5768  0.6670
 3484TIP3    H232088   2.154   5.223   1.611 -0.1053 -0.7593  1.1589
 3485TIP3   OH232089   3.593   2.727   1.949 -0.6085  0.4697 -0.5867
 3485TIP3    H132090   3.505   2.728   1.985 -0.1924 -0.0930  0.4674
 3485TIP3    H232091   3.637   2.655   1.993  0.4481  0.8663 -0.9535
 3486TIP3   OH232092   6.198   2.811   1.038  0.5256 -0.5117  0.0835
 3486TIP3    H132093   6.206   2.753   0.963  0.3766 -0.9023  0.3645
 3486TIP3    H232094   6.107   2.801   1.066  0.5718 -0.3434  0.2930
 3487TIP3   OH232095   6.529   0.462   3.429 -0.1585  0.1212 -0.2255
 3487TIP3    H132096   6.552   0.377   3.466 -1.4550  0.1970  0.8013
 3487TIP3    H232097   6.573   0.526   3.484  0.3197  0.1538 -0.6326
 3488TIP3   OH232098   5.755   4.704   0.403  0.2659  0.8254  0.1632
 3488TIP3    H132099   5.787   4.793   0.417 -1.8734  1.7525 -0.4780
 3488TIP3    H232100   5.828   4.659   0.361  1.1685  2.4373 -0.0965
 3489TIP3   OH232101   5.487   5.806   0.605 -0.2593  0.7840 -0.0872
 3489TIP3    H132102   5.473   5.714   0.629  0.6114  1.1967  2.2769
 3489TIP3    H232103   5.579   5.822   0.623 -0.5867  2.3357  0.4034
 3490TIP3   OH232104   5.465   3.893   3.306  0.5263 -0.6241 -0.2077
 3490TIP3    H132105   5.464   3.917   3.213 -0.2573  0.6475  0.0973
 3490TIP3    H232106   5.383   3.845   3.319 -0.3651  0.9100  0.1948
 3491TIP3   OH232107   1.757   6.669   8.651  0.0805  0.2323 -0.0088
 3491TIP3    H132108   1.696   6.735   8.619 -0.9112 -2.4875 -4.6082
 3491TIP3    H232109   1.843   6.699   8.620 -0.0033  0.5440  0.0596
 3492TIP3   OH232110   0.714   5.950   2.464 -0.0987 -0.0757  0.5146
 3492TIP3    H132111   0.698   6.004   2.387  1.5759  0.1160  0.2551
 3492TIP3    H232112   0.629   5.913   2.486 -1.0151  1.5115 -0.1739
 3493TIP3   OH232113   0.731   0.792   2.714  0.1591 -0.1112  0.5398
 3493TIP3    H132114   0.655   0.850   2.715  0.1924 -0.0679  0.7682
 3493TIP3    H232115   0.777   0.813   2.796  0.9378  0.5570 -0.0517
 3494TIP3   OH232116   4.013   2.712   1.030 -0.0594 -0.5094  0.4267
 3494TIP3    H132117   3.977   2.634   1.074  0.7782 -0.2983  1.5383
 3494TIP3    H232118   3.987   2.785   1.085 -0.9334  0.0372 -0.6760
 3495TIP3   OH232119   6.158   3.736   1.471  0.2155  0.0231  0.2219
 3495TIP3    H132120   6.122   3.804   1.527 -2.3668 -0.3674 -0.8187
 3495TIP3    H232121   6.227   3.779   1.421 -0.8493  1.7164  0.1261
 3496TIP3   OH232122   3.567   4.198   2.704  0.2283 -0.6337  0.2478
 3496TIP3    H132123   3.512   4.238   2.771  0.0088  1.0468 -0.8815
 3496TIP3    H232124   3.631   4.147   2.754  0.4601  1.0555  1.8010
 3497TIP3   OH232125   2.644   0.729   2.588  0.2072 -0.4579 -0.0466
 3497TIP3    H132126   2.599   0.756   2.507  0.6630 -0.0828 -0.1781
 3497TIP3    H232127   2.590   0.658   2.622 -1.2419  0.8362  0.4881
 3498TIP3   OH232128   6.015   1.216   1.483  0.0899 -0.5390  0.5273
 3498TIP3    H132129   6.082   1.223   1.415  0.4994 -0.7620  0.9045
 3498TIP3    H232130   5.947   1.278   1.456  0.8626  0.3728  0.6153
 3499TIP3   OH232131   4.242   5.760   0.746  0.3194  0.0408 -0.1156
 3499TIP3    H132132   4.253   5.831   0.809  0.6599 -0.4628  0.3988
 3499TIP3    H232133   4.288   5.790   0.668 -1.9089  1.6226 -0.9332
 3500TIP3   OH232134   3.516   4.543   3.744  0.0720 -0.4998 -0.1289
 3500TIP3    H132135   3.500   4.627   3.787  1.6111 -0.7443  0.9750
 3500TIP3    H232136   3.579   4.498   3.800 -0.7683 -2.4396 -0.6549
 3501TIP3   OH232137   5.242   1.337   4.227 -1.1447  0.2226 -0.2975
 3501TIP3    H132138   5.331   1.330   4.193 -1.0236  0.8734 -0.1378
 3501TIP3    H232139   5.191   1.274   4.175 -0.7448  0.3880 -0.9032
 3502TIP3   OH232140   5.759   1.753   1.906 -0.4397  0.1332 -0.1478
 3502TIP3    H132141   5.781   1.714   1.822  0.6725  1.3485 -0.4540
 3502TIP3    H232142   5.827   1.721   1.966 -1.0835 -0.5297  0.2409
 3503TIP3   OH232143   4.852   6.725   0.904 -0.4928  0.1535  0.1296
 3503TIP3    H132144   4.840   6.704   0.812 -0.7385  0.9885 -0.0373
 3503TIP3    H232145   4.943   6.754   0.911 -0.7469  1.0350 -0.0518
 3504TIP3   OH232146   2.416   5.660   1.187 -0.4671  0.5509  0.1243
 3504TIP3    H132147   2.406   5.582   1.241  0.0663 -0.0041 -0.5549
 3504TIP3    H232148   2.359   5.645   1.112 -1.5775  1.5306  0.7260
 3505TIP3   OH232149   5.740   0.780   2.819  0.1849 -0.7611  0.0887
 3505TIP3    H132150   5.752   0.685   2.823 -1.1994 -0.9964 -0.6235
 3505TIP3    H232151   5.801   0.808   2.750  3.3289 -0.5448  2.7293
 3506TIP3   OH232152   0.306   3.653   0.236  0.2259  0.3079 -0.6189
 3506TIP3    H132153   0.251   3.728   0.213  0.8271  2.5135  3.9447
 3506TIP3    H232154   0.387   3.692   0.269 -0.0229 -2.0131  3.5037
 3507TIP3   OH232155   2.646   6.573   2.421 -0.0091 -0.4118 -0.1919
 3507TIP3    H132156   2.685   6.571   2.509  1.2123 -0.6246 -0.7189
 3507TIP3    H232157   2.552   6.575   2.437  0.2030  1.0208  1.1481
 3508TIP3   OH232158   1.465   4.771   2.057 -0.3441  0.0741 -0.1705
 3508TIP3    H132159   1.470   4.708   1.985 -1.4910 -1.0298  0.6589
 3508TIP3    H232160   1.550   4.816   2.056 -0.1485 -0.2549 -1.8710
 3509TIP3   OH232161   4.672   3.230   0.872  0.6440  0.1797  0.6596
 3509TIP3    H132162   4.581   3.237   0.904  1.1204  0.2159  2.1086
 3509TIP3    H232163   4.687   3.136   0.865 -0.0237  0.1779 -1.2567
 3510TIP3   OH232164   1.958   3.205   0.194  0.0889  0.5585 -0.1123
 3510TIP3    H132165   2.009   3.130   0.165 -0.9548 -1.1959  2.2628
 3510TIP3    H232166   2.011   3.244   0.265 -0.8716 -0.0350  0.9622
 3511TIP3   OH232167   4.514   0.203   1.481 -0.7181 -0.3223  0.1808
 3511TIP3    H132168   4.493   0.135   1.545  0.0050 -1.4306 -0.7193
 3511TIP3    H232169   4.609   0.215   1.488 -0.8852  0.9294  0.6252
 3512TIP3   OH232170   2.904   1.816   0.017  0.4016 -0.4213  0.2621
 3512TIP3    H132171   2.926   1.843  -0.072 -0.8114 -0.4705 -0.0695
 3512TIP3    H232172   2.899   1.720   0.013  0.8367 -0.4613  0.5166
 3513TIP3   OH232173   3.917   2.530   0.196  0.9016  0.2162  0.0357
 3513TIP3    H132174   3.996   2.551   0.145  0.7590  0.0591 -0.2543
 3513TIP3    H232175   3.846   2.573   0.148  0.9893  1.6129  1.1040
 3514TIP3   OH232176   5.627   0.023   1.231 -0.0275  0.1448 -0.0734
 3514TIP3    H132177   5.604   0.085   1.162  3.2198 -0.1705 -1.6141
 3514TIP3    H232178   5.686   0.072   1.289 -1.6825  0.0115  1.8491
 3515TIP3   OH232179   2.103   4.532   3.930  0.0119 -0.7193  0.0890
 3515TIP3    H132180   2.138   4.557   4.016 -1.0925 -0.5188  0.4847
 3515TIP3    H232181   2.169   4.563   3.868 -0.5822  1.8492  0.6482
 3516TIP3   OH232182   6.745   5.854   1.684 -0.5841  0.1253 -0.1213
 3516TIP3    H132183   6.695   5.912   1.627 -0.2910 -1.4825 -2.1460
 3516TIP3    H232184   6.801   5.913   1.735 -3.1635  1.8420  0.9380
 3517TIP3   OH232185   6.088   2.953   0.062 -0.1236  0.4966  0.2679
 3517TIP3    H132186   6.092   2.860   0.084 -0.2148  0.2445 -0.7295
 3517TIP3    H232187   6.032   2.957  -0.015  0.5323  1.2870 -0.1821
 3518TIP3   OH232188   1.623   6.673   0.679 -0.4264  0.1052 -0.2453
 3518TIP3    H132189   1.644   6.693   0.771 -1.8633 -1.5946  0.5183
 3518TIP3    H232190   1.690   6.611   0.652 -0.3085  0.1981 -0.1664
 3519TIP3   OH232191   6.650   3.281   2.297  0.5940  0.0207  0.9053
 3519TIP3    H132192   6.648   3.186   2.305  0.6157 -0.3813 -2.4551
 3519TIP3    H232193   6.564   3.309   2.327  0.3398 -1.1321  1.3039
 3520TIP3   OH232194   5.535   0.780   2.338  0.7495  0.2592 -0.0714
 3520TIP3    H132195   5.481   0.703   2.357 -0.1662  0.4390 -1.8332
 3520TIP3    H232196   5.562   0.769   2.247  0.4591  2.0905 -0.4189
 3521TIP3   OH232197   2.394   5.485   2.971  0.4289  0.1133  0.0641
 3521TIP3    H132198   2.409   5.554   2.906  4.5890 -1.6022 -1.1218
 3521TIP3    H232199   2.404   5.528   3.056 -0.7502  1.5481 -0.4764
 3522TIP3   OH232200   4.148   2.561   0.040 -0.3270 -0.1823  0.2127
 3522TIP3    H132201   4.138   2.512  -0.042  1.1036 -2.1060  1.1017
 3522TIP3    H232202   4.153   2.653   0.013  0.7541 -0.8080 -1.9363
 3523TIP3   OH232203   6.320   6.201   4.167  0.0138 -0.1303  0.0506
 3523TIP3    H132204   6.300   6.178   4.077  0.3308 -2.4540  0.4907
 3523TIP3    H232205   6.415   6.216   4.168 -0.0108  0.0216 -0.0414
 3524TIP3   OH232206   3.918   6.231   0.165  0.2559 -0.1961 -0.2373
 3524TIP3    H132207   4.005   6.202   0.136 -0.5789 -0.7566 -2.4535
 3524TIP3    H232208   3.901   6.310   0.114 -0.8257 -0.5149 -0.3920
 3525TIP3   OH232209   1.883   5.935   4.379  0.2388 -0.0067  0.2602
 3525TIP3    H132210   1.923   5.995   4.443  0.1649 -0.1857  0.4758
 3525TIP3    H232211   1.914   5.848   4.405 -0.7663 -0.2240  0.8112
 3526TIP3   OH232212   3.745   2.041   7.733  0.3870  0.4488  0.3475
 3526TIP3    H132213   3.668   2.083   7.772  0.0803  1.0095 -0.8095
 3526TIP3    H232214   3.719   2.023   7.642  1.0012 -1.0238  0.4335
 3527TIP3   OH232215   4.460   0.727   8.367 -0.3019 -0.0215 -0.1689
 3527TIP3    H132216   4.493   0.737   8.456  0.0613  1.0023 -0.3969
 3527TIP3    H232217   4.401   0.652   8.371  1.1920 -1.2155  0.4993
 3528TIP3   OH232218   5.054   2.651   4.220 -0.3749 -0.1223  0.4994
 3528TIP3    H132219   5.007   2.725   4.259 -2.3062 -0.7136 -0.6108
 3528TIP3    H232220   5.077   2.681   4.132  0.0260 -0.3800  0.5128
 3529TIP3   OH232221   3.267   3.575   2.796 -0.4582  0.1787 -0.6407
 3529TIP3    H132222   3.255   3.572   2.891  0.3937  1.9163 -0.4365
 3529TIP3    H232223   3.322   3.498   2.777 -1.4302 -0.7319  0.1089
 3530TIP3   OH232224   0.458   3.089   3.573  0.2923  0.0884  0.1017
 3530TIP3    H132225   0.441   3.035   3.495 -0.2446 -1.3432  1.1765
 3530TIP3    H232226   0.402   3.052   3.641  0.1101  1.8576  0.9666
 3531TIP3   OH232227   1.358   2.987   0.364 -0.2525 -0.0855 -0.8419
 3531TIP3    H132228   1.399   3.060   0.317  1.0414 -0.9710 -1.1685
 3531TIP3    H232229   1.420   2.967   0.434 -0.2297 -1.3033 -1.1878
 3532TIP3   OH232230   2.573   3.216   2.101  0.0356 -0.2725 -0.0609
 3532TIP3    H132231   2.659   3.254   2.121  1.8442 -3.1398 -1.6607
 3532TIP3    H232232   2.590   3.122   2.094 -2.4813 -0.6431 -3.7662
 3533TIP3   OH232233   3.271   3.989   0.808  0.1593  0.0570  0.2875
 3533TIP3    H132234   3.325   3.946   0.875 -0.5589 -0.0936  0.7788
 3533TIP3    H232235   3.334   4.034   0.752  0.8261 -0.4568  0.6105
 3534TIP3   OH232236   2.869   0.269   8.480 -0.2929 -0.5962  0.2222
 3534TIP3    H132237   2.954   0.300   8.510 -0.3361 -0.2786  0.0257
 3534TIP3    H232238   2.835   0.341   8.426 -0.5153 -0.8782 -0.0178
 3535TIP3   OH232239   5.285   0.647   8.548 -0.0847 -0.1726 -0.4379
 3535TIP3    H132240   5.200   0.660   8.588 -1.0768 -0.5622 -2.2860
 3535TIP3    H232241   5.287   0.710   8.475  1.1424 -0.2655 -0.5044
 3536TIP3   OH232242   2.570   3.523   2.955 -0.0005  0.2847 -0.1516
 3536TIP3    H132243   2.542   3.457   3.017  0.2963  0.5643  0.2832
 3536TIP3    H232244   2.524   3.603   2.981 -1.1418  0.0372 -1.2774
 3537TIP3   OH232245   4.626   5.358   2.075 -0.1010  0.3793 -0.6356
 3537TIP3    H132246   4.646   5.448   2.101 -0.1721  0.1211  0.3627
 3537TIP3    H232247   4.588   5.365   1.988  1.1877  1.1902 -1.1408
 3538TIP3   OH232248   5.561   2.173   0.622  0.0945  0.1607  0.2848
 3538TIP3    H132249   5.632   2.110   0.629  1.7099  2.0565  2.4231
 3538TIP3    H232250   5.506   2.156   0.699  0.4376  1.1768  0.7761
 3539TIP3   OH232251   6.638   3.863   0.002 -0.0194  0.0412  0.4470
 3539TIP3    H132252   6.566   3.923   0.020  0.2254  0.9445 -1.3542
 3539TIP3    H232253   6.607   3.810  -0.072  1.2236  0.6092 -0.5150
 3540TIP3   OH232254   4.891   2.585   3.762 -0.1081 -0.2841  0.2347
 3540TIP3    H132255   4.918   2.548   3.846  3.0349  0.7358 -0.1928
 3540TIP3    H232256   4.821   2.646   3.784  0.8382  0.1622  2.2115
 3541TIP3   OH232257   4.680   4.279   0.368  0.0507 -0.0089  0.0253
 3541TIP3    H132258   4.655   4.201   0.418  0.6649  1.9046  3.7339
 3541TIP3    H232259   4.751   4.317   0.419 -0.7546  3.3863 -1.1487
 3542TIP3   OH232260   4.401   0.817   0.620 -0.2769  0.3890  0.0493
 3542TIP3    H132261   4.425   0.747   0.680  1.0805 -0.3661 -1.3013
 3542TIP3    H232262   4.484   0.848   0.584 -0.9721  1.5181 -0.6593
 3543TIP3   OH232263   4.069   3.196   1.471  0.1046  0.8901  0.1460
 3543TIP3    H132264   4.141   3.159   1.421  0.6196  1.6731  0.2864
 3543TIP3    H232265   4.104   3.206   1.560 -0.9838 -1.0261  0.8467
 3544TIP3   OH232266   3.794   5.425   1.439 -0.7472  0.2927  0.0141
 3544TIP3    H132267   3.804   5.463   1.526  2.3211  0.8594 -0.4753
 3544TIP3    H232268   3.759   5.496   1.386 -0.6178  0.5963  0.3284
 3545TIP3   OH232269   6.110   2.681   0.088 -0.0742 -0.2419 -0.0948
 3545TIP3    H132270   6.193   2.646   0.053  0.2090 -0.1336  0.4685
 3545TIP3    H232271   6.044   2.619   0.057  0.6707 -2.8047  2.9163
 3546TIP3   OH232272   2.000   4.735   1.080  0.0072  0.3047  0.0697
 3546TIP3    H132273   1.958   4.786   1.149  0.4884  0.6133  0.1370
 3546TIP3    H232274   2.029   4.655   1.124  0.3335  0.5111  0.2347
 3547TIP3   OH232275   0.093   1.495   1.492 -0.5720 -0.4157 -0.1557
 3547TIP3    H132276   0.018   1.456   1.537 -0.4851  0.7562  1.0711
 3547TIP3    H232277   0.075   1.589   1.493  0.6191 -0.1749 -0.4005
 3548TIP3   OH232278   5.765   5.912   1.449 -0.2731 -0.2583  0.3546
 3548TIP3    H132279   5.818   5.988   1.473 -0.2318 -0.0615 -0.3119
 3548TIP3    H232280   5.827   5.851   1.410 -0.6684  0.4694 -1.5504
 3549TIP3   OH232281   0.725   5.793   0.630  0.7016  0.5961  0.0940
 3549TIP3    H132282   0.689   5.710   0.662  1.5018  0.3379  0.3620
 3549TIP3    H232283   0.653   5.856   0.639 -0.6482 -0.5173 -2.2179
 3550TIP3   OH232284   3.856   3.739   2.758  0.2166  0.2944 -1.0850
 3550TIP3    H132285   3.896   3.666   2.805  2.7626  1.2792 -1.5442
 3550TIP3    H232286   3.928   3.802   2.747 -0.9923  1.3377 -3.7774
 3551TIP3   OH232287   5.203   4.569   3.421  0.8556 -0.2433  0.3321
 3551TIP3    H132288   5.161   4.594   3.504  1.9324 -0.3557  0.9341
 3551TIP3    H232289   5.270   4.635   3.408  1.7868 -1.1384  0.4208
 3552TIP3   OH232290   5.761   1.730   0.269 -0.5289 -0.2438  0.0462
 3552TIP3    H132291   5.822   1.677   0.321 -0.2775 -0.5464 -0.5372
 3552TIP3    H232292   5.676   1.688   0.282 -0.4718 -0.3013  0.2382
 3553TIP3   OH232293   1.212   3.720   1.578 -0.2155 -0.2825 -0.1517
 3553TIP3    H132294   1.301   3.743   1.604 -0.3824 -1.3774  1.5758
 3553TIP3    H232295   1.211   3.729   1.482  2.2475 -1.8135 -0.4013
 3554TIP3   OH232296   3.192   3.169   2.484 -0.1013 -0.0737 -0.0657
 3554TIP3    H132297   3.153   3.109   2.419  0.4656 -0.4937 -0.0240
 3554TIP3    H232298   3.231   3.238   2.431 -0.3066 -0.0084 -0.1359
 3555TIP3   OH232299   0.894   0.080   8.163 -0.2279 -0.1149 -0.5006
 3555TIP3    H132300   0.881  -0.014   8.174  0.1950  0.0280  1.6071
 3555TIP3    H232301   0.806   0.114   8.143 -0.3767 -0.9384 -1.3039
 3556TIP3   OH232302   2.210   2.278   0.103 -0.2817  0.6923  1.1969
 3556TIP3    H132303   2.298   2.314   0.110 -0.4936  1.2463  1.0719
 3556TIP3    H232304   2.216   2.213   0.033 -0.0560  0.9940  0.9356
 3557TIP3   OH232305   6.420   1.585   2.276 -0.2959 -0.0164  0.1899
 3557TIP3    H132306   6.441   1.667   2.232  5.0987 -2.8306 -3.5447
 3557TIP3    H232307   6.354   1.544   2.220 -0.6160  0.4143  0.2487
 3558TIP3   OH232308   6.267   0.902   0.969 -0.3851 -0.6042 -0.4531
 3558TIP3    H132309   6.258   0.888   0.875 -2.5411 -0.1156 -0.3806
 3558TIP3    H232310   6.301   0.992   0.977  0.2443 -0.8134 -0.7599
 3559TIP3   OH232311   4.139   4.543   1.556 -0.1073 -0.5592  0.2724
 3559TIP3    H132312   4.169   4.514   1.642 -1.3736 -1.3182  0.4840
 3559TIP3    H232313   4.085   4.619   1.574  0.0054 -0.4365  0.0945
 3560TIP3   OH232314   2.114   6.004   0.126 -0.2622  0.1193  0.1335
 3560TIP3    H132315   2.146   6.060   0.056 -1.1136  1.4372  0.7607
 3560TIP3    H232316   2.051   6.058   0.173 -0.6330 -1.1579  1.1614
 3561TIP3   OH232317   0.468   5.223   0.740 -0.4733 -0.0463 -0.0167
 3561TIP3    H132318   0.466   5.133   0.707 -2.5099 -0.2465  0.5016
 3561TIP3    H232319   0.467   5.214   0.835 -2.0519  0.4790  0.0485
 3562TIP3   OH232320   2.121   0.906   1.812 -0.2493  0.5597 -0.1965
 3562TIP3    H132321   2.101   0.877   1.723  0.4150  0.7138 -0.4028
 3562TIP3    H232322   2.105   0.829   1.866 -0.0519  0.2746 -0.5323
 3563TIP3   OH232323   3.387   0.308   2.967  0.1944  0.0219 -0.1046
 3563TIP3    H132324   3.375   0.395   2.927  0.3542 -0.4680 -1.2753
 3563TIP3    H232325   3.375   0.247   2.894 -1.3421 -1.0356  0.9687
 3564TIP3   OH232326   4.089   1.385   0.283 -0.1890  0.2506  0.2806
 3564TIP3    H132327   4.032   1.459   0.301 -1.6103 -0.1352 -2.2076
 3564TIP3    H232328   4.082   1.329   0.360 -1.4505  1.2695  0.9254
 3565TIP3   OH232329   1.451   4.665   2.334  0.3504 -0.4680  0.2279
 3565TIP3    H132330   1.480   4.744   2.379 -1.2286  0.3497 -0.1446
 3565TIP3    H232331   1.482   4.676   2.244 -0.3010 -0.0150  0.0508
 3566TIP3   OH232332   1.967   0.893   0.941  0.0880  0.5293 -0.2410
 3566TIP3    H132333   1.997   0.982   0.920  1.7470 -0.3493 -1.9506
 3566TIP3    H232334   2.047   0.844   0.957 -0.8497 -0.4829  1.7095
 3567TIP3   OH232335   0.734   5.316   2.458 -1.1009  0.0557 -0.0073
 3567TIP3    H132336   0.742   5.380   2.528 -0.5380  0.3221 -0.3125
 3567TIP3    H232337   0.744   5.366   2.378 -0.7593 -0.4020 -0.2545
 3568TIP3   OH232338   2.342   4.527   0.527  0.2484  0.1601 -0.0962
 3568TIP3    H132339   2.336   4.566   0.614 -0.4146  0.9615 -0.4879
 3568TIP3    H232340   2.339   4.432   0.543  0.1549  0.2984  0.7488
 3569TIP3   OH232341   6.592   3.546   2.916  0.0422  0.1188 -0.3020
 3569TIP3    H132342   6.625   3.486   2.982  0.3149  0.3589 -0.2158
 3569TIP3    H232343   6.670   3.574   2.867  0.5147  3.0542  1.8282
 3570TIP3   OH232344   1.390   0.137   1.333  0.0991  0.3257 -0.0802
 3570TIP3    H132345   1.443   0.161   1.257 -0.5626  0.6994 -0.4317
 3570TIP3    H232346   1.340   0.215   1.353 -0.6623 -0.1647 -0.0373
 3571TIP3   OH232347   6.073   3.415   1.856  0.2571 -0.2153  0.1165
 3571TIP3    H132348   6.113   3.469   1.788  0.8676 -0.6174  0.1509
 3571TIP3    H232349   6.136   3.345   1.873  0.0931 -0.1603  1.0502
 3572TIP3   OH232350   6.459   4.953   3.089  0.0309 -0.2960  0.2019
 3572TIP3    H132351   6.470   4.952   2.994 -1.7212 -1.5552 -0.0300
 3572TIP3    H232352   6.425   4.866   3.111 -0.5058  0.2862  1.8524
 3573TIP3   OH232353   4.334   5.204   3.140  0.0019 -0.0609  0.1178
 3573TIP3    H132354   4.361   5.267   3.207 -0.0521  0.2788 -0.1762
 3573TIP3    H232355   4.393   5.219   3.067  0.9087 -1.3128  0.5505
 3574TIP3   OH232356   1.882   6.003   1.502 -0.5554  0.1104 -0.2320
 3574TIP3    H132357   1.940   6.055   1.445  0.1923  0.0314  0.4310
 3574TIP3    H232358   1.864   5.924   1.452 -0.6800  0.4585 -0.7463
 3575TIP3   OH232359   5.456   5.539   7.762 -0.1425 -0.2416  0.0350
 3575TIP3    H132360   5.470   5.619   7.812  0.4154  0.3851 -1.0685
 3575TIP3    H232361   5.512   5.475   7.803 -0.4237 -0.0095  0.7976
 3576TIP3   OH232362   2.695   0.434   2.567  0.1991 -0.3897  0.8229
 3576TIP3    H132363   2.632   0.453   2.637  1.5393 -0.1713  2.0097
 3576TIP3    H232364   2.644   0.389   2.500 -1.2602 -0.0278  1.6542
 3577TIP3   OH232365   5.245   4.112   0.915  0.4927  0.0571 -0.5839
 3577TIP3    H132366   5.268   4.026   0.880 -0.2588 -0.0809 -0.7516
 3577TIP3    H232367   5.256   4.103   1.010 -2.2804 -1.1395 -0.2627
 3578TIP3   OH232368   6.809   0.120   0.777  0.0704 -0.3435  0.7116
 3578TIP3    H132369   6.744   0.143   0.844 -1.9076  1.2272 -1.5424
 3578TIP3    H232370   6.761   0.064   0.716  1.4059 -0.6602 -0.0816
 3579TIP3   OH232371   0.353   4.511   0.329  0.0497 -0.3268  0.1276
 3579TIP3    H132372   0.378   4.586   0.276  0.2202  1.0988  2.1104
 3579TIP3    H232373   0.429   4.495   0.385 -0.4217 -1.2436  0.5259
 3580TIP3   OH232374   4.445   1.951   3.483  0.1553 -0.0798 -0.2833
 3580TIP3    H132375   4.455   2.046   3.477 -1.3346 -0.0017 -2.4648
 3580TIP3    H232376   4.481   1.917   3.402  1.3154 -1.4865  0.7693
 3581TIP3   OH232377   4.290   2.455   0.587 -0.6115 -0.6777 -0.3733
 3581TIP3    H132378   4.223   2.406   0.636 -0.7295 -0.5832 -0.4394
 3581TIP3    H232379   4.262   2.547   0.594  0.1562 -0.5060  0.6130
 3582TIP3   OH232380   2.944   4.862   3.620  0.0664 -0.1438 -0.3380
 3582TIP3    H132381   2.933   4.838   3.712 -0.6557 -0.9050 -0.6034
 3582TIP3    H232382   2.879   4.809   3.573  0.2936  0.3629 -1.2694
 3583TIP3   OH232383   2.066   5.131   7.996 -0.1539 -0.1611  0.0100
 3583TIP3    H132384   2.090   5.055   8.048  1.9626 -0.4531 -1.2711
 3583TIP3    H232385   2.117   5.203   8.034  0.5401 -0.1412 -0.9380
 3584TIP3   OH232386   0.843   6.088   2.055 -0.3609  0.1036 -0.3193
 3584TIP3    H132387   0.810   6.021   1.995  0.4192  0.0851 -0.7377
 3584TIP3    H232388   0.822   6.171   2.012 -0.7704  0.1182 -0.0966
 3585TIP3   OH232389   1.090   2.053   0.978  0.2353  0.2019 -0.6086
 3585TIP3    H132390   1.053   1.965   0.983 -0.8266  0.6031 -1.1847
 3585TIP3    H232391   1.163   2.052   1.041  0.0669 -0.9942 -0.4104
 3586TIP3   OH232392   6.818   0.707   2.763  0.0241  0.5462 -0.1124
 3586TIP3    H132393   6.838   0.623   2.804 -0.6549 -0.6083 -2.0004
 3586TIP3    H232394   6.772   0.757   2.831  0.2818 -0.6721  0.9931
 3587TIP3   OH232395   6.198   3.365   0.699 -0.4900 -0.9797 -0.1703
 3587TIP3    H132396   6.141   3.439   0.719 -1.2952 -1.2407 -1.4348
 3587TIP3    H232397   6.269   3.403   0.647  0.1577 -0.7758  0.8297
 3588TIP3   OH232398   3.397   6.415   1.169  0.0387 -0.0371 -0.7041
 3588TIP3    H132399   3.437   6.419   1.256  0.6420  1.3993 -1.0030
 3588TIP3    H232400   3.458   6.362   1.117  0.9895  1.1125 -0.8337
 3589TIP3   OH232401   3.759   0.858   0.587 -0.2314  0.5936  0.6168
 3589TIP3    H132402   3.767   0.899   0.674  2.1779 -0.4487  0.9606
 3589TIP3    H232403   3.746   0.765   0.606 -2.0445  0.6307 -0.1870
 3590TIP3   OH232404   4.677   3.057   2.658 -0.2548 -0.9061 -0.0117
 3590TIP3    H132405   4.623   3.112   2.714 -1.3484  0.3149 -2.1689
 3590TIP3    H232406   4.617   3.023   2.591  0.5978 -3.9028  0.5861
 3591TIP3   OH232407   1.627   1.964   8.698 -0.4239 -0.1233 -0.0951
 3591TIP3    H132408   1.681   1.926   8.629  0.1831  0.6195 -0.0461
 3591TIP3    H232409   1.623   1.897   8.766  1.1484  0.1111  0.2610
 3592TIP3   OH232410   6.603   3.505   0.474  0.2930 -0.4197  0.6408
 3592TIP3    H132411   6.663   3.547   0.536  1.4158 -1.8023  0.5441
 3592TIP3    H232412   6.647   3.514   0.389  0.8020 -2.1595  0.6871
 3593TIP3   OH232413   5.961   0.757   4.217 -0.3517  0.4174 -0.0790
 3593TIP3    H132414   6.033   0.805   4.176 -0.6657  1.8098  0.8941
 3593TIP3    H232415   5.892   0.823   4.226 -1.2551 -0.5515  0.2184
 3594TIP3   OH232416   3.554   1.647   1.430  0.1724 -0.2494  0.4299
 3594TIP3    H132417   3.489   1.705   1.390 -1.1838 -1.6127  0.5326
 3594TIP3    H232418   3.506   1.565   1.445  1.8647 -1.2281  0.7519
 3595TIP3   OH232419   5.660   4.165   8.590  0.2687 -0.0775 -0.3734
 3595TIP3    H132420   5.615   4.179   8.673 -0.7803  0.3966 -0.9921
 3595TIP3    H232421   5.684   4.254   8.561  1.4618 -0.3078 -0.1446
 3596TIP3   OH232422   3.809   6.399   2.218  0.7828  0.0535  0.2040
 3596TIP3    H132423   3.867   6.362   2.285  1.1557 -0.7258 -0.5247
 3596TIP3    H232424   3.734   6.432   2.266  1.5062  0.4407  1.1034
 3597TIP3   OH232425   4.190   3.916   1.409 -0.3768 -0.5785  0.3720
 3597TIP3    H132426   4.264   3.961   1.369  0.0343 -1.8136 -0.2938
 3597TIP3    H232427   4.161   3.975   1.479 -1.3596  1.8136 -1.8953
 3598TIP3   OH232428   4.564   0.048   8.713 -1.0543 -0.1711  0.9417
 3598TIP3    H132429   4.488  -0.008   8.732 -0.9367 -0.5899  0.2112
 3598TIP3    H232430   4.615   0.047   8.794 -0.9596 -1.2832  0.8806
 3599TIP3   OH232431   0.429   3.297   2.504  0.2846 -0.4582 -0.4375
 3599TIP3    H132432   0.456   3.205   2.507  0.9057 -0.2517  1.7298
 3599TIP3    H232433   0.432   3.319   2.411 -1.5118 -3.0680 -1.2487
 3600TIP3   OH232434   1.503   4.448   1.322  0.0835  0.3409  0.7562
 3600TIP3    H132435   1.515   4.362   1.362  0.5852 -0.2956 -0.6987
 3600TIP3    H232436   1.580   4.498   1.349  1.4185 -0.7105 -0.9362
 3601TIP3   OH232437   2.460   5.306   3.822 -0.0627  0.5133 -0.6579
 3601TIP3    H132438   2.469   5.221   3.864  0.5478  1.0307  0.2928
 3601TIP3    H232439   2.418   5.287   3.738 -0.4453 -0.6484 -0.2200
 3602TIP3   OH232440   0.176   2.872   4.014  0.5907 -0.2524 -0.2052
 3602TIP3    H132441   0.174   2.889   4.108 -0.3968  3.1929 -0.6949
 3602TIP3    H232442   0.090   2.835   3.994  0.6777 -0.6727  0.1909
 3603TIP3   OH232443   6.392   1.155   2.033 -0.0114 -0.2125  0.0885
 3603TIP3    H132444   6.349   1.099   1.967  0.2608 -0.2197 -0.0825
 3603TIP3    H232445   6.444   1.095   2.085  0.0842 -0.1518  0.0628
 3604TIP3   OH232446   6.520   5.850   2.445  0.2643 -0.3003  0.1352
 3604TIP3    H132447   6.496   5.800   2.523  0.7306  2.0078  1.8548
 3604TIP3    H232448   6.439   5.894   2.419  0.0040 -1.3884 -1.0111
 3605TIP3   OH232449   0.315   5.872   8.286  0.5006 -0.0382  0.1438
 3605TIP3    H132450   0.362   5.894   8.205  0.6272 -2.3777 -0.4859
 3605TIP3    H232451   0.348   5.786   8.311 -0.3607  0.1451  2.0990
 3606TIP3   OH232452   4.445   3.320   8.706 -0.1739 -0.2865 -0.0585
 3606TIP3    H132453   4.404   3.384   8.648 -0.4664  0.1960  0.6673
 3606TIP3    H232454   4.396   3.239   8.692 -1.6753  0.3761  1.0809
 3607TIP3   OH232455   1.505   5.213   1.472  0.5889  0.1011 -0.1360
 3607TIP3    H132456   1.444   5.250   1.536  0.0397  1.6354 -1.4732
 3607TIP3    H232457   1.581   5.187   1.525 -0.3420  0.1417  1.2908
 3608TIP3   OH232458   6.193   2.185   3.603  0.2873 -0.2996 -0.0027
 3608TIP3    H132459   6.192   2.276   3.633 -3.0616  0.0607 -0.8539
 3608TIP3    H232460   6.211   2.134   3.682  0.0589  1.0004  0.9290
 3609TIP3   OH232461   4.177   6.204   0.383 -0.0473 -0.2561 -0.2688
 3609TIP3    H132462   4.164   6.291   0.345 -2.1230 -1.0656 -1.5829
 3609TIP3    H232463   4.158   6.143   0.312  0.1463 -1.8167  0.9563
 3610TIP3   OH232464   6.651   2.546   3.605 -0.3029  0.0745 -0.1959
 3610TIP3    H132465   6.590   2.480   3.637  1.0765  0.5683  4.1058
 3610TIP3    H232466   6.611   2.629   3.630  0.1302  0.6549 -1.3563
 3611TIP3   OH232467   4.186   3.713   4.319  0.1925 -0.4671  0.0307
 3611TIP3    H132468   4.194   3.686   4.227  1.7466 -1.4123  0.3929
 3611TIP3    H232469   4.126   3.649   4.357 -0.0538 -0.3846 -0.2171
 3612TIP3   OH232470   4.927   2.469   7.983  0.1529 -0.0830 -0.3563
 3612TIP3    H132471   4.984   2.393   8.000  1.1297  0.9655  1.3271
 3612TIP3    H232472   4.846   2.448   8.029  0.4605 -0.0709  0.2039
 3613TIP3   OH232473   4.264   1.785   1.993 -0.1015 -0.9271 -0.1514
 3613TIP3    H132474   4.345   1.752   1.953  1.5597  0.3643  1.9293
 3613TIP3    H232475   4.281   1.781   2.087 -1.5075  1.7048  0.2941
 3614TIP3   OH232476   1.370   3.033   2.292 -0.0411 -0.3194 -0.3394
 3614TIP3    H132477   1.391   3.015   2.200 -0.3644  0.8402 -0.6672
 3614TIP3    H232478   1.442   3.089   2.322 -1.2737  1.5786 -0.7244
 3615TIP3   OH232479   1.059   5.595   7.891  0.4914 -0.1056 -0.0085
 3615TIP3    H132480   1.113   5.558   7.821 -0.5823  1.2475 -1.6504
 3615TIP3    H232481   0.999   5.524   7.915  0.9008 -0.6061 -0.4522
 3616TIP3   OH232482   4.867   1.624   3.516  0.7595  0.3689 -0.6782
 3616TIP3    H132483   4.805   1.590   3.580  0.1862 -1.1577 -2.0029
 3616TIP3    H232484   4.817   1.689   3.466  0.7518  0.4048 -0.6242
 3617TIP3   OH232485   2.568   3.450   2.281 -0.5100  0.1841 -0.4369
 3617TIP3    H132486   2.479   3.428   2.309 -0.8857 -0.6844 -2.1860
 3617TIP3    H232487   2.559   3.479   2.190  0.9748  0.3140 -0.5758
 3618TIP3   OH232488   3.621   3.794   2.280  0.1059  0.1702 -0.0478
 3618TIP3    H132489   3.709   3.765   2.255  0.7450  0.0275  2.1411
 3618TIP3    H232490   3.562   3.738   2.229  1.1545  1.8332 -3.3520
 3619TIP3   OH232491   3.373   3.516   1.471 -0.1850 -0.1082  0.2004
 3619TIP3    H132492   3.360   3.523   1.566 -2.5096 -0.8722 -0.0011
 3619TIP3    H232493   3.370   3.422   1.453  2.2295 -0.1136 -0.4374
 3620TIP3   OH232494   1.027   0.220   0.462 -0.4901  0.1446 -0.2645
 3620TIP3    H132495   0.998   0.305   0.495  0.3384  0.5644 -0.5965
 3620TIP3    H232496   0.952   0.186   0.414 -1.4424 -0.1033  1.3219
 3621TIP3   OH232497   2.502   3.087   1.218  0.2958  1.0228 -0.1584
 3621TIP3    H132498   2.516   2.999   1.252 -0.9902  0.6841 -0.4526
 3621TIP3    H232499   2.556   3.143   1.273  3.8730 -0.2479 -2.0236
 3622TIP3   OH232500   1.957   1.999   8.657  0.2588  0.4041  0.4493
 3622TIP3    H132501   1.913   1.938   8.598  0.2463 -1.0014  1.8338
 3622TIP3    H232502   2.037   2.024   8.612 -0.2055  0.1143 -0.5544
 3623TIP3   OH232503   0.629   0.794   3.003 -0.0991  0.1542 -0.0863
 3623TIP3    H132504   0.690   0.851   3.050  0.7080  0.7001 -1.7315
 3623TIP3    H232505   0.556   0.782   3.064  0.2455  1.9842  0.7678
 3624TIP3   OH232506   1.346   3.271   2.015  0.0053  0.3071 -0.2765
 3624TIP3    H132507   1.384   3.229   2.092 -1.1822  0.2702  0.2954
 3624TIP3    H232508   1.387   3.226   1.941 -0.6266 -1.3044  0.3209
 3625TIP3   OH232509   3.097   2.992   2.222 -0.5909  0.4758 -0.0525
 3625TIP3    H132510   3.126   2.932   2.153  0.3752 -1.2188  1.7132
 3625TIP3    H232511   3.061   3.067   2.175 -0.2238 -0.7023 -2.3794
 3626TIP3   OH232512   5.138   6.093   2.923  0.0710 -0.1696 -0.4219
 3626TIP3    H132513   5.055   6.098   2.875  0.0669 -0.3540 -0.4324
 3626TIP3    H232514   5.175   6.009   2.898  0.2452 -0.1026 -0.3891
 3627TIP3   OH232515   1.393   2.419   3.072 -0.0771 -0.5865 -0.1378
 3627TIP3    H132516   1.319   2.386   3.021  0.5695 -1.2237 -0.6810
 3627TIP3    H232517   1.430   2.490   3.019 -0.2801 -0.2748  0.1288
 3628TIP3   OH232518   4.052   5.610   1.780 -0.0663  0.7231  0.9632
 3628TIP3    H132519   3.958   5.595   1.765 -0.3551  2.0532  1.3602
 3628TIP3    H232520   4.056   5.688   1.835  1.3138  1.2824  0.1257
 3629TIP3   OH232521   0.607   1.015   8.232 -0.0184 -0.0641  0.3203
 3629TIP3    H132522   0.563   1.097   8.254  0.4048 -0.0009  0.9552
 3629TIP3    H232523   0.647   1.032   8.146 -1.9436 -0.4171 -0.6978
 3630TIP3   OH232524   1.864   4.804   0.303  0.2592  0.2025  0.4127
 3630TIP3    H132525   1.848   4.897   0.286 -0.3576 -0.1874 -1.3878
 3630TIP3    H232526   1.948   4.802   0.350  0.1317  1.6734  0.7524
 3631TIP3   OH232527   6.158   2.721   1.601  0.0940  0.4741  0.7104
 3631TIP3    H132528   6.179   2.673   1.521 -2.1627  2.6218 -1.3691
 3631TIP3    H232529   6.151   2.654   1.668  1.7054 -1.4844 -0.9340
 3632TIP3   OH232530   6.652   4.821   2.640 -0.2655 -0.2749 -0.5468
 3632TIP3    H132531   6.713   4.747   2.642  0.6679  0.4563 -1.0226
 3632TIP3    H232532   6.642   4.841   2.547 -1.0050 -0.1904 -0.4535
 3633TIP3   OH232533   1.986   4.411   2.078 -0.4576  0.5041  0.0785
 3633TIP3    H132534   2.077   4.441   2.077 -0.7456  1.3902 -0.0624
 3633TIP3    H232535   1.944   4.457   2.006 -1.2397  0.8232  0.7183
 3634TIP3   OH232536   0.644   4.830   1.683  0.4308  0.1640  0.0669
 3634TIP3    H132537   0.703   4.766   1.644  1.0614 -0.6062  2.1474
 3634TIP3    H232538   0.575   4.777   1.724 -0.9670  0.9928 -1.1083
 3635TIP3   OH232539   1.556   3.837   3.073  0.5087 -0.2782  0.5265
 3635TIP3    H132540   1.635   3.891   3.082  0.4086 -0.1818  0.8571
 3635TIP3    H232541   1.514   3.841   3.159  0.7560 -1.2924  0.7056
 3636TIP3   OH232542   1.752   3.588   2.206 -0.4185  0.2213  0.2896
 3636TIP3    H132543   1.830   3.601   2.260 -0.3352 -1.1649  0.5347
 3636TIP3    H232544   1.750   3.494   2.189 -2.5543  0.0769  1.0766
 3637TIP3   OH232545   5.946   4.203   2.837 -0.1334  0.4771  0.4054
 3637TIP3    H132546   5.995   4.131   2.797 -0.5096  0.1113  0.5864
 3637TIP3    H232547   5.863   4.205   2.789 -0.6229 -0.0246  1.2040
 3638TIP3   OH232548   0.653   2.938   3.877  0.0865 -0.2748  0.4669
 3638TIP3    H132549   0.613   2.944   3.964 -0.0766  0.1018  0.3704
 3638TIP3    H232550   0.644   2.846   3.852  1.6144 -0.7556  1.5387
 3639TIP3   OH232551   6.828   4.162   0.756 -0.5700 -0.0641 -0.3350
 3639TIP3    H132552   6.838   4.074   0.793  0.7994  0.2141  0.0063
 3639TIP3    H232553   6.758   4.202   0.807  1.5864  0.4991  2.3686
 3640TIP3   OH232554   6.754   1.804   2.667  0.0973  0.2056 -0.0311
 3640TIP3    H132555   6.710   1.826   2.749 -2.3706  1.4871 -1.5682
 3640TIP3    H232556   6.701   1.846   2.600  2.9963  0.6906 -2.2065
 3641TIP3   OH232557   4.642   2.065   1.107 -0.0932 -0.0010 -0.0570
 3641TIP3    H132558   4.554   2.052   1.141  0.2462  0.1471  0.8984
 3641TIP3    H232559   4.695   1.997   1.150  0.8193  1.6713  1.6072
 3642TIP3   OH232560   6.484   5.923   1.961  0.5210  0.7350 -0.2102
 3642TIP3    H132561   6.480   5.905   1.867  1.0427 -1.1336  0.0936
 3642TIP3    H232562   6.408   5.980   1.978 -1.4219 -1.3792 -1.2659
 3643TIP3   OH232563   4.418   3.392   1.260 -0.0140  0.4017 -0.1120
 3643TIP3    H132564   4.492   3.366   1.315 -1.0972  0.4732  1.4501
 3643TIP3    H232565   4.341   3.362   1.308 -0.9882 -1.9916 -2.9332
 3644TIP3   OH232566   1.470   2.033   0.530 -0.7033 -0.3537  0.4684
 3644TIP3    H132567   1.537   1.965   0.530  0.0120  0.3091  1.9572
 3644TIP3    H232568   1.387   1.987   0.540 -0.3015 -1.0473  0.5998
 3645TIP3   OH232569   1.936   5.360   1.349 -0.9201 -0.0928 -0.1433
 3645TIP3    H132570   1.991   5.290   1.314  1.0323  1.6397 -0.7886
 3645TIP3    H232571   1.927   5.422   1.276 -1.7028  0.8166  0.6991
 3646TIP3   OH232572   0.914   1.514   0.722 -0.0611 -0.2052 -0.4071
 3646TIP3    H132573   0.930   1.419   0.725 -0.1931 -0.2114  0.1950
 3646TIP3    H232574   0.890   1.537   0.812 -1.2835  0.1845 -0.8174
 3647TIP3   OH232575   4.028   6.026   1.157 -0.5221 -0.2955 -0.4044
 3647TIP3    H132576   4.029   5.971   1.235 -0.0178 -0.1052 -0.2735
 3647TIP3    H232577   3.936   6.027   1.129 -0.5475 -1.1626 -0.3840
 3648TIP3   OH232578   6.100   2.694   2.721  0.0602  0.3582  0.3360
 3648TIP3    H132579   6.103   2.652   2.807 -2.2176 -1.4722 -0.3520
 3648TIP3    H232580   6.188   2.684   2.685  1.0256  1.0951  2.4049
 3649TIP3   OH232581   4.335   6.827   8.513  0.1031  0.3413  0.1664
 3649TIP3    H132582   4.257   6.834   8.568 -0.2230 -0.7329 -0.1394
 3649TIP3    H232583   4.303   6.834   8.424  0.3369 -0.1658  0.0350
 3650TIP3   OH232584   1.949   4.893   2.429  0.1191  0.2247 -0.2031
 3650TIP3    H132585   1.972   4.846   2.509  0.9229  1.5454  0.3796
 3650TIP3    H232586   1.916   4.825   2.370 -0.6497 -0.7739  1.2838
 3651TIP3   OH232587   3.230   6.353   3.212 -0.0654 -0.3140 -0.1483
 3651TIP3    H132588   3.228   6.340   3.307 -0.4152 -1.6822 -0.3194
 3651TIP3    H232589   3.310   6.403   3.196 -0.5119  0.7851  0.9553
 3652TIP3   OH232590   1.052   3.012   2.131  0.1469 -0.2339 -0.3489
 3652TIP3    H132591   1.038   2.923   2.096  1.7888 -0.5109 -0.3675
 3652TIP3    H232592   1.000   3.068   2.073 -2.3072 -1.2837  0.6678
 3653TIP3   OH232593   4.303   5.420   8.241  0.4909  0.3793  0.6416
 3653TIP3    H132594   4.367   5.355   8.271  0.2207 -0.9796 -1.5011
 3653TIP3    H232595   4.354   5.487   8.197  0.7429  1.5633  2.6033
 3654TIP3   OH232596   3.082   3.176   1.820  0.6177 -0.4031 -0.0026
 3654TIP3    H132597   3.028   3.194   1.897 -1.6513 -1.3495 -1.2731
 3654TIP3    H232598   3.094   3.081   1.821  1.0510 -0.3531 -0.5012
 3655TIP3   OH232599   3.991   6.447   1.057 -0.2049  0.3383 -0.1862
 3655TIP3    H132600   4.061   6.394   1.017  0.9588  0.4361  1.5985
 3655TIP3    H232601   3.995   6.530   1.010  0.1247 -0.0500 -0.8611
 3656TIP3   OH232602   5.366   5.516   2.802  0.2623 -0.1529  0.3102
 3656TIP3    H132603   5.380   5.432   2.846  0.4042 -0.0643  0.4325
 3656TIP3    H232604   5.275   5.538   2.821 -0.6848 -1.6263 -1.9935
 3657TIP3   OH232605   2.883   0.439   2.795 -0.6246  0.7234 -0.3139
 3657TIP3    H132606   2.832   0.495   2.736 -0.9163  0.8218  0.0247
 3657TIP3    H232607   2.878   0.352   2.755  0.0513  0.9739 -0.9844
 3658TIP3   OH232608   4.278   1.460   1.663 -0.6228 -0.5460  0.4601
 3658TIP3    H132609   4.348   1.395   1.662 -0.1887 -0.1436  1.8028
 3658TIP3    H232610   4.214   1.427   1.726 -0.8827 -0.1623  0.4054
 3659TIP3   OH232611   3.370   6.236   0.107  0.8038 -0.2308  0.3136
 3659TIP3    H132612   3.354   6.310   0.048  1.1372 -0.2842  0.1556
 3659TIP3    H232613   3.342   6.159   0.057  1.2652 -0.2952  0.1473
 3660TIP3   OH232614   3.567   3.063   1.065 -0.1470  0.3616  0.2231
 3660TIP3    H132615   3.649   3.020   1.089 -0.6476 -0.0847  1.1979
 3660TIP3    H232616   3.537   3.015   0.987 -1.3799 -2.0881  2.0433
 3661TIP3   OH232617   5.648   1.448   1.457 -0.0876  0.7273 -0.1169
 3661TIP3    H132618   5.677   1.402   1.378 -0.0658 -0.6490  0.6635
 3661TIP3    H232619   5.668   1.388   1.529  1.3928  2.5975  1.1384
 3662TIP3   OH232620   0.649   0.202   2.012  0.3510 -0.3080 -0.0242
 3662TIP3    H132621   0.683   0.264   1.947 -0.2014 -2.4268 -2.4993
 3662TIP3    H232622   0.602   0.137   1.960 -1.4839 -1.2963  2.6880
 3663TIP3   OH232623   4.458   5.865   2.873 -0.0552  0.0743  0.3297
 3663TIP3    H132624   4.399   5.933   2.905 -1.0498  0.5049 -2.1558
 3663TIP3    H232625   4.426   5.785   2.914 -2.1341  0.3794 -0.5624
 3664TIP3   OH232626   5.134   0.565   2.041  0.5374  0.2300 -0.2208
 3664TIP3    H132627   5.121   0.556   2.135  0.1827  1.8783 -0.0695
 3664TIP3    H232628   5.120   0.659   2.024  1.4262  0.1128 -1.7842
 3665TIP3   OH232629   6.577   0.426   3.774  0.1517 -0.6981  0.0968
 3665TIP3    H132630   6.645   0.486   3.806  0.8528 -1.2673 -0.2970
 3665TIP3    H232631   6.620   0.341   3.770 -0.3881 -0.9450 -0.7909
 3666TIP3   OH232632   5.800   2.572   3.303 -0.2300 -0.2333  0.2258
 3666TIP3    H132633   5.783   2.666   3.298 -0.5551 -0.3558 -1.6689
 3666TIP3    H232634   5.780   2.539   3.215 -1.6198 -2.3452  1.2505
 3667TIP3   OH232635   2.013   5.885   2.745 -0.0670 -0.1244 -0.6226
 3667TIP3    H132636   1.934   5.840   2.714 -1.1797  0.6325  0.9314
 3667TIP3    H232637   2.041   5.834   2.821  0.0577  0.4581 -0.2764
 3668TIP3   OH232638   0.501   5.364   2.181 -0.4025  0.1895  0.0176
 3668TIP3    H132639   0.566   5.432   2.167 -0.2244  0.3652  1.5514
 3668TIP3    H232640   0.454   5.391   2.260 -0.1996 -1.5277  0.7826
 3669TIP3   OH232641   4.986   5.953   0.523 -0.1672 -0.3890  0.1071
 3669TIP3    H132642   5.067   5.962   0.572 -0.4950  1.3393  0.3983
 3669TIP3    H232643   4.928   5.903   0.581  0.1320 -0.1689  0.5968
 3670TIP3   OH232644   0.646   0.868   8.596 -0.0593 -0.7836  0.0293
 3670TIP3    H132645   0.730   0.836   8.565  0.2487 -0.9012  0.9411
 3670TIP3    H232646   0.620   0.805   8.664 -0.9731 -0.8510 -0.3670
 3671TIP3   OH232647   5.069   6.571   0.019  0.1593  0.1908 -0.0407
 3671TIP3    H132648   5.030   6.537   0.099  0.7687  1.2107  0.7129
 3671TIP3    H232649   5.146   6.515   0.004 -0.5625 -0.6976 -0.5474
 3672TIP3   OH232650   4.862   1.291   1.176  0.2458 -0.0647  0.2342
 3672TIP3    H132651   4.861   1.311   1.270 -1.4177 -1.9122  0.6786
 3672TIP3    H232652   4.913   1.210   1.169  0.3507  0.0538 -0.4731
 3673TIP3   OH232653   1.221   4.702   1.712 -0.3622  0.0163 -0.0922
 3673TIP3    H132654   1.193   4.792   1.695  0.7115  0.1677 -1.2038
 3673TIP3    H232655   1.144   4.661   1.752 -1.4201  0.9983 -1.0073
 3674TIP3   OH232656   3.496   6.856   3.568 -0.2572  0.3168  0.3293
 3674TIP3    H132657   3.561   6.841   3.638  1.2090  2.5090 -0.4553
 3674TIP3    H232658   3.463   6.944   3.585 -1.5260  0.0246 -0.5094
 3675TIP3   OH232659   5.750   2.497   3.031 -0.1960 -0.0810  0.4081
 3675TIP3    H132660   5.779   2.413   2.996  0.1485  0.4050 -0.5031
 3675TIP3    H232661   5.655   2.498   3.016 -0.2850 -0.5348  0.9258
 3676TIP3   OH232662   2.966   1.170   1.920  0.3475 -0.4471  0.4098
 3676TIP3    H132663   2.960   1.191   1.827  1.6639 -0.9015  0.2061
 3676TIP3    H232664   3.053   1.200   1.946  0.1949 -0.8000  1.3647
 3677TIP3   OH232665   2.167   5.736   1.554  0.8874  0.5840  0.3427
 3677TIP3    H132666   2.169   5.802   1.485  0.6818 -0.7707 -1.0093
 3677TIP3    H232667   2.182   5.653   1.509  1.4076 -0.2878  2.0259
 3678TIP3   OH232668   6.530   0.467   8.659 -0.0852 -0.6090 -0.2653
 3678TIP3    H132669   6.435   0.458   8.661 -0.2560  0.9266  1.3141
 3678TIP3    H232670   6.545   0.558   8.631  0.7996 -0.1602  1.5015
 3679TIP3   OH232671   4.349   3.956   0.068 -0.1692  0.0031 -0.0823
 3679TIP3    H132672   4.391   3.970  -0.017 -0.0889  0.2290 -0.0042
 3679TIP3    H232673   4.366   4.036   0.118 -1.5669  0.5343 -0.4110
 3680TIP3   OH232674   3.899   4.649   8.267  0.0290  0.2116  0.3419
 3680TIP3    H132675   3.955   4.677   8.194 -0.6734  0.5010 -0.0964
 3680TIP3    H232676   3.901   4.553   8.263 -0.6250  0.2249 -0.5494
 3681TIP3   OH232677   4.588   6.850   2.977  0.2570 -0.2857  0.0607
 3681TIP3    H132678   4.655   6.789   3.008 -0.8148 -0.5679  1.9780
 3681TIP3    H232679   4.626   6.936   2.992  0.0515 -0.4353  1.5766
 3682TIP3   OH232680   3.044   1.030   2.892  0.1248 -0.2403 -0.7383
 3682TIP3    H132681   2.969   0.974   2.908  0.9654 -1.3210 -0.4569
 3682TIP3    H232682   3.116   0.990   2.942  0.5958  1.4737  0.0433
 3683TIP3   OH232683   5.426   5.792   0.181 -0.2616 -0.1089 -0.3242
 3683TIP3    H132684   5.336   5.779   0.209 -0.5277 -2.4268 -1.9882
 3683TIP3    H232685   5.437   5.733   0.106  3.3274 -1.7544  1.2591
 3684TIP3   OH232686   2.545   1.004   2.954 -0.3747 -0.0350 -0.2670
 3684TIP3    H132687   2.460   1.013   2.997 -0.7928  0.9827 -1.2563
 3684TIP3    H232688   2.601   1.070   2.996 -0.0256 -0.7518  0.4333
 3685TIP3   OH232689   6.081   2.216   4.307  0.1877  0.6182 -0.6067
 3685TIP3    H132690   6.099   2.142   4.365  0.9597  1.7351  0.6440
 3685TIP3    H232691   6.142   2.284   4.336 -0.1635  1.5859 -2.0411
 3686TIP3   OH232692   6.751   4.939   1.897 -0.2791 -0.0746 -0.2138
 3686TIP3    H132693   6.773   5.007   1.960 -1.0971  0.2093 -0.2180
 3686TIP3    H232694   6.678   4.975   1.847 -3.0898 -2.1873  1.9902
 3687TIP3   OH232695   1.095   1.053   8.655  0.0131  0.2830 -0.0716
 3687TIP3    H132696   1.055   0.968   8.641  0.6621 -0.3934  1.8657
 3687TIP3    H232697   1.037   1.115   8.611 -2.9227 -0.6800  2.1406
 3688TIP3   OH232698   4.304   0.751   1.319  0.6426 -0.0663 -0.4759
 3688TIP3    H132699   4.349   0.790   1.244  1.5876  0.2448  0.2281
 3688TIP3    H232700   4.225   0.713   1.282  1.2751 -0.2561 -1.7009
 3689TIP3   OH232701   3.375   1.301   1.771 -1.2291  0.4918 -0.4069
 3689TIP3    H132702   3.410   1.341   1.850 -0.4460 -1.6957  0.4320
 3689TIP3    H232703   3.449   1.300   1.710 -0.8991 -0.6509 -0.0114
 3690TIP3   OH232704   0.025   0.644   2.145 -0.1085 -1.0992 -0.7083
 3690TIP3    H132705   0.100   0.586   2.159  2.0089  1.4376 -0.7256
 3690TIP3    H232706  -0.008   0.662   2.234  3.4206  2.6323  0.1413
 3691TIP3   OH232707   2.495   4.304   2.299  0.2339  1.0617 -0.3156
 3691TIP3    H132708   2.445   4.302   2.380  1.7414  1.2994  0.6641
 3691TIP3    H232709   2.433   4.279   2.231 -0.5179 -1.4317  1.1773
 3692TIP3   OH232710   4.692   6.189   2.055  0.1209  0.3789 -0.2219
 3692TIP3    H132711   4.670   6.097   2.039 -0.7399  0.0984  2.0741
 3692TIP3    H232712   4.776   6.186   2.100 -0.9473  0.4628  1.9082
 3693TIP3   OH232713   0.527   6.461   4.056  0.2010 -0.2705 -0.1178
 3693TIP3    H132714   0.568   6.539   4.094 -2.3954  2.0529 -1.7269
 3693TIP3    H232715   0.434   6.472   4.075 -0.3528 -2.4538 -1.3335
 3694TIP3   OH232716   3.392   4.193   1.018 -0.0860  0.3722  0.5235
 3694TIP3    H132717   3.324   4.207   1.084  0.8951  0.3111  1.5804
 3694TIP3    H232718   3.347   4.147   0.947 -1.1989  0.5549  1.0797
 3695TIP3   OH232719   5.956   2.165   3.246  0.3037  0.5407 -0.1700
 3695TIP3    H132720   5.993   2.076   3.247 -0.5864  0.0927 -2.1124
 3695TIP3    H232721   6.032   2.223   3.246  0.9449 -0.2784 -0.7762
 3696TIP3   OH232722   3.043   6.086   0.616 -0.2131  0.1384 -0.2826
 3696TIP3    H132723   3.057   6.159   0.677 -0.2695 -1.1860  1.3914
 3696TIP3    H232724   3.091   6.111   0.537 -0.1976  1.9555  0.2538
 3697TIP3   OH232725   2.938   2.860   1.534 -0.3153  0.7244  0.0761
 3697TIP3    H132726   2.925   2.833   1.443  1.7939  2.0166 -0.6760
 3697TIP3    H232727   3.029   2.888   1.538 -1.1918  3.7932  1.7503
 3698TIP3   OH232728   3.259   3.454   8.557  0.2396  0.1432 -0.2114
 3698TIP3    H132729   3.250   3.549   8.561 -1.2757  0.0101  0.1671
 3698TIP3    H232730   3.216   3.429   8.475  0.1897 -0.2441 -0.0695
 3699TIP3   OH232731   0.984   5.757   2.249  0.3925  0.3024  0.1459
 3699TIP3    H132732   0.991   5.836   2.196  0.4369 -0.3841 -0.8975
 3699TIP3    H232733   0.982   5.788   2.339 -3.5682  1.8071 -0.2799
 3700TIP3   OH232734   3.948   5.992   0.650 -0.7223  0.0526  0.3523
 3700TIP3    H132735   3.900   6.026   0.574  0.8154 -1.7539 -1.5720
 3700TIP3    H232736   3.897   5.917   0.679 -0.3620 -0.3866 -0.1267
 3701TIP3   OH232737   1.337   0.317   2.771  0.3525  0.2283 -0.6800
 3701TIP3    H132738   1.422   0.273   2.773  0.6001  0.7246  0.3131
 3701TIP3    H232739   1.281   0.259   2.720  0.6437 -1.2985  0.6718
 3702TIP3   OH232740   1.469   5.146   1.005 -0.5603 -0.0485 -0.2683
 3702TIP3    H132741   1.544   5.176   0.952 -1.1074 -0.4719 -1.3251
 3702TIP3    H232742   1.507   5.124   1.090  0.4800  0.0032 -0.6986
 3703TIP3   OH232743   3.842   4.115   3.297 -0.0829 -0.2097 -0.0443
 3703TIP3    H132744   3.774   4.130   3.231 -0.1907  0.5733  0.2301
 3703TIP3    H232745   3.796   4.076   3.371 -0.1825  0.0124  0.0136
 3704TIP3   OH232746   1.170   0.526   0.719  0.3787  0.1072 -0.2344
 3704TIP3    H132747   1.166   0.585   0.643  0.7702  1.0934  0.4947
 3704TIP3    H232748   1.229   0.456   0.691  0.1071  0.1818 -1.0241
 3705TIP3   OH232749   1.768   5.301   8.005 -0.2481 -0.5915 -0.2258
 3705TIP3    H132750   1.815   5.341   7.932 -1.9871  1.3697 -0.3573
 3705TIP3    H232751   1.701   5.247   7.964  0.1611 -1.2460 -0.0475
 3706TIP3   OH232752   2.171   5.604   1.023 -0.0153 -0.4742  0.6179
 3706TIP3    H132753   2.098   5.652   0.983  0.4098 -0.5169 -0.2431
 3706TIP3    H232754   2.130   5.544   1.085 -0.9168 -1.9427 -1.3009
 3707TIP3   OH232755   1.914   1.881   3.347  0.0330  0.2228  0.1669
 3707TIP3    H132756   1.989   1.907   3.400 -2.2462  1.6314  3.0342
 3707TIP3    H232757   1.910   1.947   3.278  1.0757  0.5016  0.3494
 3708TIP3   OH232758   3.172   2.156   3.375  0.0354  0.1833 -0.4247
 3708TIP3    H132759   3.216   2.088   3.426  0.0331 -1.8010 -2.8427
 3708TIP3    H232760   3.238   2.224   3.364  0.8845 -0.5465  0.0214
 3709TIP3   OH232761   6.393   5.623   0.205 -0.2034 -0.0575 -0.2697
 3709TIP3    H132762   6.401   5.683   0.130  0.0711 -0.3150 -0.4507
 3709TIP3    H232763   6.480   5.622   0.244  0.5911 -2.3757 -1.8523
 3710TIP3   OH232764   6.440   1.309   8.668  0.2626  0.0717 -0.2093
 3710TIP3    H132765   6.354   1.325   8.630 -0.0534  0.5626  0.6686
 3710TIP3    H232766   6.501   1.357   8.611 -0.1255  0.2950 -0.4418
 3711TIP3   OH232767   3.549   3.541   3.678  0.0344  0.0258  0.6548
 3711TIP3    H132768   3.544   3.520   3.584  0.8756 -2.1001  1.0122
 3711TIP3    H232769   3.634   3.583   3.689 -0.8101  1.9375  0.2357
 3712TIP3   OH232770   6.207   0.687   2.359  0.2739 -0.2727  0.3541
 3712TIP3    H132771   6.286   0.640   2.333  0.2769  0.5874 -1.3254
 3712TIP3    H232772   6.215   0.773   2.317 -1.8387 -0.3882 -0.4082
 3713TIP3   OH232773   6.728   1.176   8.546  0.3381  0.3292 -0.2066
 3713TIP3    H132774   6.736   1.259   8.594 -0.2342  0.2038  0.1119
 3713TIP3    H232775   6.798   1.121   8.583 -0.4888  0.0152  0.9539
 3714TIP3   OH232776   1.688   0.486   2.624  0.2749  0.5129 -0.3496
 3714TIP3    H132777   1.611   0.536   2.650  0.1499 -0.3532  1.0714
 3714TIP3    H232778   1.749   0.497   2.697  0.9847  0.1323 -0.8698
 3715TIP3   OH232779   0.105   5.922   3.234  0.2178  0.4018 -0.2701
 3715TIP3    H132780   0.063   5.851   3.185 -1.5286 -0.3899  2.1724
 3715TIP3    H232781   0.176   5.952   3.177  0.7899 -3.0403 -1.6051
 3716TIP3   OH232782   0.742   2.297   3.381 -0.2762 -0.1340 -0.5139
 3716TIP3    H132783   0.650   2.272   3.376 -0.5662  0.7900 -0.1230
 3716TIP3    H232784   0.790   2.218   3.358 -1.1201 -1.2947  1.4640
 3717TIP3   OH232785   1.890   6.180   1.954  0.2441  0.3224 -1.1323
 3717TIP3    H132786   1.876   6.228   2.035 -0.0415  0.2687 -1.1489
 3717TIP3    H232787   1.980   6.200   1.930  1.3182 -1.8893  0.6885
 3718TIP3   OH232788   3.256   6.847   1.071  0.1357  0.1244  0.6125
 3718TIP3    H132789   3.249   6.843   0.976  1.8917 -1.5471  0.4984
 3718TIP3    H232790   3.252   6.940   1.091  2.4669  0.7379 -1.3777
 3719TIP3   OH232791   5.074   5.641   0.469 -0.1247 -0.8028  0.1130
 3719TIP3    H132792   5.015   5.659   0.395  1.9498  0.2047 -1.4208
 3719TIP3    H232793   5.126   5.721   0.477 -0.1774 -0.9376  2.6484
 3720TIP3   OH232794   5.720   5.585   1.076  0.0275  0.0012 -0.0276
 3720TIP3    H132795   5.635   5.620   1.103 -0.8795 -1.8497 -0.3690
 3720TIP3    H232796   5.784   5.642   1.120 -1.3742  0.3192  1.7053
 3721TIP3   OH232797   4.297   0.994   2.878 -0.1444  0.2803 -0.0692
 3721TIP3    H132798   4.385   0.977   2.914  0.2935  0.8480 -0.8362
 3721TIP3    H232799   4.271   1.078   2.916 -1.0227 -0.5929  1.3478
 3722TIP3   OH232800   5.479   3.881   0.121  0.1285  0.0462  0.0028
 3722TIP3    H132801   5.392   3.869   0.083  0.1817  0.3899 -0.2255
 3722TIP3    H232802   5.495   3.975   0.118  1.1805 -0.1502 -1.4602
 3723TIP3   OH232803   5.769   6.852   0.975  0.7111 -0.2934  0.9640
 3723TIP3    H132804   5.705   6.863   1.045  0.7836 -0.0666  0.9948
 3723TIP3    H232805   5.726   6.794   0.912 -0.0022  0.8133  0.3929
 3724TIP3   OH232806   1.414   0.544   8.498  0.6416  0.0285 -0.4942
 3724TIP3    H132807   1.402   0.580   8.410 -1.1149 -0.4002 -0.4678
 3724TIP3    H232808   1.415   0.450   8.486 -0.0937 -0.0465 -0.0072
 3725TIP3   OH232809   1.602   6.508   1.044 -0.2102 -0.4873  0.6736
 3725TIP3    H132810   1.683   6.480   1.002  0.5315  1.4893  0.6807
 3725TIP3    H232811   1.595   6.453   1.123 -0.7021 -3.0089 -0.9881
 3726TIP3   OH232812   3.387   0.223   1.397  0.2261  0.0727  0.1499
 3726TIP3    H132813   3.475   0.261   1.397  0.0873  0.3994  0.4145
 3726TIP3    H232814   3.387   0.163   1.471  0.4504 -0.4654 -0.2784
 3727TIP3   OH232815   5.756   5.835   3.615 -0.1044 -0.7114 -0.1764
 3727TIP3    H132816   5.710   5.853   3.697  0.5831 -1.0550  0.2915
 3727TIP3    H232817   5.746   5.740   3.603 -1.3364 -0.4825 -1.1865
 3728TIP3   OH232818   1.816   0.847   1.869 -0.5072  0.0033  0.4784
 3728TIP3    H132819   1.723   0.827   1.857 -0.1247 -1.2294 -0.5959
 3728TIP3    H232820   1.844   0.885   1.786 -0.0361  0.3800  0.8008
 3729TIP3   OH232821   6.547   6.836   2.304  0.1053 -0.1026 -0.3365
 3729TIP3    H132822   6.548   6.913   2.360  0.0814 -0.4322  0.1200
 3729TIP3    H232823   6.638   6.823   2.277  0.6244 -1.5611  1.8711
 3730TIP3   OH232824   6.685   1.368   3.646  0.0207 -0.0597  0.3182
 3730TIP3    H132825   6.715   1.415   3.724  2.4421  0.0301 -0.5827
 3730TIP3    H232826   6.753   1.303   3.629 -1.0539 -0.8924 -1.0467
 3731TIP3   OH232827   3.569   6.471   8.516  0.2803  0.1423 -0.2782
 3731TIP3    H132828   3.498   6.416   8.483 -0.2231  0.4931  0.2192
 3731TIP3    H232829   3.631   6.475   8.443 -0.1868 -0.1992 -0.7011
 3732TIP3   OH232830   1.871   4.843   3.433  0.7156 -0.1809  0.3782
 3732TIP3    H132831   1.939   4.781   3.460  0.4553 -1.3295 -1.4695
 3732TIP3    H232832   1.839   4.880   3.516  0.8725 -2.5262  1.5913
 3733TIP3   OH232833   3.497   5.415   8.338 -0.1293 -0.9308  0.9582
 3733TIP3    H132834   3.414   5.462   8.345 -0.9094 -1.8929 -0.9691
 3733TIP3    H232835   3.546   5.464   8.271 -1.0302 -2.8094 -1.2216
 3734TIP3   OH232836   2.959   5.255   8.655  0.0738  0.1215 -0.5802
 3734TIP3    H132837   2.925   5.192   8.591  0.0686  0.4105 -0.8655
 3734TIP3    H232838   2.925   5.225   8.739  0.8629 -0.8276 -0.5712
 3735TIP3   OH232839   5.438   2.922   1.142  0.1772  0.6142 -0.3117
 3735TIP3    H132840   5.496   2.958   1.074  0.1402  1.9151  0.3216
 3735TIP3    H232841   5.395   2.847   1.100  0.2068  1.3540 -1.6976
 3736TIP3   OH232842   3.154   1.436   0.018 -0.4678  0.0819  0.0636
 3736TIP3    H132843   3.118   1.449  -0.070  2.7222  1.0624 -1.2393
 3736TIP3    H232844   3.180   1.524   0.046  1.1102 -0.5821  0.7746
 3737TIP3   OH232845   3.593   4.660   0.856 -0.0022 -0.1266 -0.3125
 3737TIP3    H132846   3.565   4.741   0.900 -1.4433  1.0758 -3.1897
 3737TIP3    H232847   3.687   4.655   0.873  0.1346  2.1781 -0.0661
 3738TIP3   OH232848   4.229   4.033   3.118 -0.3980 -0.0866  0.2356
 3738TIP3    H132849   4.192   4.097   3.178  0.0018 -1.8587  2.5487
 3738TIP3    H232850   4.311   4.072   3.088  0.1746  0.2552  2.1193
 3739TIP3   OH232851   3.885   1.330   2.944 -0.4128 -0.5254  0.1630
 3739TIP3    H132852   3.823   1.309   3.014 -0.5187  1.7252  0.8000
 3739TIP3    H232853   3.843   1.299   2.864 -2.2166  0.6010  0.6248
 3740TIP3   OH232854   3.930   3.533   2.932  0.3745 -0.2769  0.3791
 3740TIP3    H132855   3.855   3.519   2.990 -0.7358  0.8137 -0.7258
 3740TIP3    H232856   3.989   3.461   2.951 -0.7182 -0.8768  1.6602
 3741TIP3   OH232857   2.550   5.020   3.669 -0.0823 -0.1102 -0.0066
 3741TIP3    H132858   2.474   4.963   3.681  0.6218 -1.7695 -2.4255
 3741TIP3    H232859   2.591   5.024   3.755 -3.2802  1.5611  1.6006
 3742TIP3   OH232860   0.638   1.820   0.232  0.3082 -0.0438  0.1409
 3742TIP3    H132861   0.674   1.733   0.248  0.2781  0.0697  0.8563
 3742TIP3    H232862   0.667   1.842   0.144  2.9325  0.4987  1.0464
 3743TIP3   OH232863   4.245   1.679   2.250  0.2299 -0.3054 -0.1805
 3743TIP3    H132864   4.238   1.620   2.325 -2.2260 -1.0318 -0.9293
 3743TIP3    H232865   4.187   1.752   2.272  0.6735  0.2206 -0.7268
 3744TIP3   OH232866   2.117   6.626   0.449 -0.0408  0.6045 -0.5007
 3744TIP3    H132867   2.200   6.667   0.476 -0.9743  1.9955  0.3840
 3744TIP3    H232868   2.075   6.691   0.393 -0.4989 -0.1296 -1.0209
 3745TIP3   OH232869   2.319   4.443   1.909  0.1836 -0.1438 -0.1042
 3745TIP3    H132870   2.260   4.494   1.965 -0.7594  0.4547 -1.5787
 3745TIP3    H232871   2.277   4.445   1.823  0.8163 -2.2906 -0.5248
 3746TIP3   OH232872   4.449   5.894   2.087 -0.7405  0.2233 -0.1951
 3746TIP3    H132873   4.401   5.976   2.079 -0.7136  0.2271 -0.3104
 3746TIP3    H232874   4.429   5.863   2.176 -0.9042  0.2559 -0.2204
 3747TIP3   OH232875   4.715   4.712   0.515  0.2253  0.1678 -0.4188
 3747TIP3    H132876   4.686   4.630   0.556  2.3068  0.9958  3.1302
 3747TIP3    H232877   4.633   4.759   0.496 -0.9428 -1.2443  0.8319
 3748TIP3   OH232878   2.760   2.488   1.255 -0.3335  0.2237 -0.0463
 3748TIP3    H132879   2.800   2.575   1.261  2.8658 -1.1309  0.3749
 3748TIP3    H232880   2.681   2.494   1.309  0.3294  2.5878  0.7988
 3749TIP3   OH232881   3.107   5.305   2.080 -0.1311 -0.6067 -0.2131
 3749TIP3    H132882   3.165   5.229   2.077  0.3386 -0.2365 -0.8014
 3749TIP3    H232883   3.166   5.381   2.082 -0.5925 -0.2487  0.0522
 3750TIP3   OH232884   6.123   6.285   2.517  0.5812 -0.3216  0.2461
 3750TIP3    H132885   6.041   6.237   2.519  0.2885 -0.0842 -2.5302
 3750TIP3    H232886   6.097   6.377   2.515  0.6857 -0.2474 -2.7211
 3751TIP3   OH232887   6.760   4.459   0.342 -0.9022  0.4070 -0.0738
 3751TIP3    H132888   6.840   4.420   0.308 -1.3023 -0.2775 -0.2590
 3751TIP3    H232889   6.783   4.550   0.360 -0.6514  0.7961 -2.1439
 3752TIP3   OH232890   1.902   2.770   0.492  0.3784  0.6255 -0.2975
 3752TIP3    H132891   1.901   2.720   0.410  1.3855  0.8058 -0.4320
 3752TIP3    H232892   1.905   2.862   0.464 -0.2214  0.7238 -0.0515
 3753TIP3   OH232893   4.210   2.703   0.512 -0.4055  0.1635  0.0121
 3753TIP3    H132894   4.127   2.679   0.472 -0.5858 -2.1093  1.6046
 3753TIP3    H232895   4.265   2.730   0.438 -1.4533 -1.6166 -1.5081
 3754TIP3   OH232896   1.587   0.027   8.603  0.3667  0.0221  0.2324
 3754TIP3    H132897   1.628   0.110   8.625 -1.8068  1.2848 -0.2244
 3754TIP3    H232898   1.544   0.042   8.519 -0.0744 -1.5792  0.1289
 3755TIP3   OH232899   1.668   2.848   0.088  0.0860  0.2048 -0.5864
 3755TIP3    H132900   1.626   2.900   0.020  0.1669 -0.5291 -1.2103
 3755TIP3    H232901   1.720   2.911   0.138  1.7887  0.4592 -2.5588
 3756TIP3   OH232902   0.547   5.681   4.189  0.0244  0.1570 -0.3129
 3756TIP3    H132903   0.607   5.707   4.120 -0.3355  1.9925  0.0287
 3756TIP3    H232904   0.468   5.653   4.142 -0.2989  1.5985 -0.6849
 3757TIP3   OH232905   2.403   2.263   1.383 -0.3099 -0.0138 -0.1010
 3757TIP3    H132906   2.375   2.194   1.443 -0.2491 -1.3851 -1.5695
 3757TIP3    H232907   2.324   2.313   1.365 -0.2541  0.6470  1.3675
 3758TIP3   OH232908   4.697   3.196   3.243 -0.2283  0.0629  0.2870
 3758TIP3    H132909   4.684   3.102   3.256  0.9002 -0.3360 -1.1707
 3758TIP3    H232910   4.609   3.234   3.246 -0.8171 -1.2064 -0.2732
 3759TIP3   OH232911   4.638   4.092   2.159  0.2957 -0.1801  0.4385
 3759TIP3    H132912   4.614   4.099   2.066  1.4352 -1.1071  0.0572
 3759TIP3    H232913   4.708   4.156   2.170  1.4238 -1.3208  0.1876
 3760TIP3   OH232914   2.452   5.597   3.869  0.6013 -0.5229  0.2698
 3760TIP3    H132915   2.470   5.504   3.858 -2.6408 -1.1849 -0.4512
 3760TIP3    H232916   2.532   5.640   3.841  0.9325 -3.0055 -3.2874
 3761TIP3   OH232917   2.342   4.965   2.977 -0.1613  0.2622 -0.4524
 3761TIP3    H132918   2.262   4.922   3.005  0.7289 -1.0671  0.1519
 3761TIP3    H232919   2.400   4.894   2.950  0.5054  1.2485 -1.7484
 3762TIP3   OH232920   2.342   3.203   2.253  0.0085 -0.1491 -0.6559
 3762TIP3    H132921   2.423   3.195   2.203  0.8750 -1.0671  0.8267
 3762TIP3    H232922   2.320   3.114   2.279 -1.4861  0.0863 -0.9969
 3763TIP3   OH232923   3.964   4.742   2.177  0.1832 -0.3711 -0.5100
 3763TIP3    H132924   3.945   4.749   2.271 -0.7913  1.4314 -0.7926
 3763TIP3    H232925   3.972   4.833   2.148  1.4628 -0.9317 -2.0004
 3764TIP3   OH232926   0.980   4.146   1.382 -0.8236  0.6357 -0.1768
 3764TIP3    H132927   1.060   4.186   1.348  0.0635 -1.8486 -1.1835
 3764TIP3    H232928   1.006   4.106   1.465 -0.9215 -0.3969 -0.6275
 3765TIP3   OH232929   4.552   1.314   1.396 -0.5915  0.4756  0.5937
 3765TIP3    H132930   4.468   1.288   1.357  0.9419 -3.4280 -0.5642
 3765TIP3    H232931   4.539   1.304   1.490 -1.2930 -0.6201  0.3987
 3766TIP3   OH232932   0.997   3.896   2.533  0.3958 -0.2014 -0.4864
 3766TIP3    H132933   0.928   3.833   2.549  0.1693  0.5181  1.7537
 3766TIP3    H232934   1.068   3.871   2.592  1.4484  0.0007 -1.6049
 3767TIP3   OH232935   1.677   4.079   3.871 -0.1782 -0.4465  0.4594
 3767TIP3    H132936   1.656   3.988   3.851 -0.7872 -0.4673  1.1650
 3767TIP3    H232937   1.735   4.073   3.947  1.5909 -0.3367 -0.8132
 3768TIP3   OH232938   5.480   1.549   2.883  0.1506  0.4380  0.5104
 3768TIP3    H132939   5.475   1.598   2.965  0.8470  0.8151  0.3308
 3768TIP3    H232940   5.491   1.458   2.911 -0.0780  0.5097  0.8390
 3769TIP3   OH232941   4.066   5.000   2.609  0.7272 -0.2016  0.1228
 3769TIP3    H132942   4.029   5.080   2.571  0.4140 -0.3826  0.0418
 3769TIP3    H232943   4.013   4.985   2.688 -0.6706 -1.5198 -0.9966
 3770TIP3   OH232944   6.312   4.027   8.589  0.2818  0.5837 -0.2654
 3770TIP3    H132945   6.279   3.938   8.585  0.7462  0.4403 -1.1535
 3770TIP3    H232946   6.361   4.038   8.507  0.7633  1.4370  0.1271
 3771TIP3   OH232947   0.206   6.125   8.330 -0.1978 -0.5497 -0.6394
 3771TIP3    H132948   0.239   6.040   8.301 -1.5043 -1.5141  0.5445
 3771TIP3    H232949   0.111   6.115   8.327 -0.3798  0.2709  1.1519
 3772TIP3   OH232950   3.643   5.526   8.673  0.2444 -0.6685  0.0910
 3772TIP3    H132951   3.703   5.452   8.663  0.9750 -0.1157  0.3615
 3772TIP3    H232952   3.642   5.544   8.767 -0.7066 -0.9661  0.1499
 3773TIP3   OH232953   1.045   5.270   2.471 -0.3686  0.1188 -0.2384
 3773TIP3    H132954   1.052   5.340   2.406  0.8345 -1.1839 -1.6052
 3773TIP3    H232955   1.129   5.223   2.464 -1.2846 -1.6805  0.3338
 3774TIP3   OH232956   0.848   0.398   0.595  0.5230 -0.1205 -0.2610
 3774TIP3    H132957   0.761   0.358   0.598  0.5860 -0.3781 -1.5890
 3774TIP3    H232958   0.881   0.388   0.685 -1.2497  1.0292  0.5814
 3775TIP3   OH232959   6.149   2.439   3.707  0.6241 -0.5513 -0.3339
 3775TIP3    H132960   6.162   2.499   3.781 -1.5327  0.6254 -0.8192
 3775TIP3    H232961   6.142   2.496   3.631  1.5463 -1.6652 -1.2837
 3776TIP3   OH232962   4.758   0.499   7.860  0.1867 -0.1880  0.0145
 3776TIP3    H132963   4.673   0.521   7.899 -0.3964 -0.7185 -0.9219
 3776TIP3    H232964   4.815   0.572   7.884 -0.5267  0.1589  0.6825
 3777TIP3   OH232965   1.010   6.316   3.058  0.1274  0.1636 -1.2736
 3777TIP3    H132966   1.013   6.407   3.027  1.6256  0.9475  0.9074
 3777TIP3    H232967   1.085   6.274   3.015  0.9446  0.6773 -0.3921
 3778TIP3   OH232968   2.412   4.234   0.471 -0.2678  0.1143  0.4578
 3778TIP3    H132969   2.408   4.255   0.377 -0.5567 -0.9162  0.2257
 3778TIP3    H232970   2.335   4.178   0.486  0.6220 -1.0223  0.9563
 3779TIP3   OH232971   3.097   5.740   3.182  0.0592 -0.8363 -0.1367
 3779TIP3    H132972   3.011   5.737   3.140 -0.6191  1.5133  0.9100
 3779TIP3    H232973   3.088   5.807   3.250  2.1510 -1.9451  1.3535
 3780TIP3   OH232974   1.638   6.409   8.643 -0.1305 -0.1626  0.4789
 3780TIP3    H132975   1.573   6.402   8.573  1.2724 -0.0284 -0.8851
 3780TIP3    H232976   1.654   6.502   8.653 -0.0538 -0.2006  0.7384
 3781TIP3   OH232977   4.845   1.052   0.852  0.0972 -0.0929 -0.0097
 3781TIP3    H132978   4.788   1.079   0.924 -0.3756  0.2497 -0.5053
 3781TIP3    H232979   4.850   1.129   0.796  1.9751  0.2855  0.5926
 3782TIP3   OH232980   5.206   0.815   8.059  0.3324 -0.1113 -0.5598
 3782TIP3    H132981   5.185   0.855   7.975  0.6858  0.1452 -0.5270
 3782TIP3    H232982   5.186   0.722   8.047 -0.2830  0.0302 -0.7061
 3783TIP3   OH232983   3.873   1.783   3.179 -0.3517  0.6677  0.7202
 3783TIP3    H132984   3.840   1.871   3.196  0.8273  1.0215  1.2932
 3783TIP3    H232985   3.885   1.745   3.266 -2.3948 -0.7010  0.4832
 3784TIP3   OH232986   4.740   2.249   2.509 -0.4316 -0.2752 -0.1103
 3784TIP3    H132987   4.705   2.162   2.526 -1.8139  0.0125 -1.2918
 3784TIP3    H232988   4.678   2.309   2.551 -0.4141  0.1837 -0.7147
 3785TIP3   OH232989   0.057   5.224   2.772 -0.0183 -0.4894 -0.5238
 3785TIP3    H132990  -0.001   5.174   2.715  0.2116 -1.2862 -0.0696
 3785TIP3    H232991   0.132   5.167   2.786  1.9268  1.2929 -2.8052
 3786TIP3   OH232992   1.436   1.914   0.823  0.3607  0.1497 -0.2759
 3786TIP3    H132993   1.412   1.961   0.743 -0.4481  0.7328  0.2857
 3786TIP3    H232994   1.531   1.909   0.820  0.4399  1.3727 -0.6325
 3787TIP3   OH232995   0.175   1.752   3.327 -0.2642  0.1423 -0.2415
 3787TIP3    H132996   0.117   1.727   3.255 -2.3584 -3.2887  2.3607
 3787TIP3    H232997   0.119   1.799   3.388  1.3007  2.3203 -0.3697
 3788TIP3   OH232998   3.364   1.461   2.872 -0.1232 -0.1581 -0.3965
 3788TIP3    H132999   3.399   1.442   2.785  0.7459 -1.5620  0.2238
 3788TIP3    H233000   3.361   1.376   2.916 -1.6475  0.3540  0.5661
 3789TIP3   OH233001   5.307   4.853   3.267  0.0385  0.5340 -0.3224
 3789TIP3    H133002   5.318   4.825   3.358 -0.4644 -1.1899 -0.7651
 3789TIP3    H233003   5.397   4.869   3.236  0.6978 -3.2355 -0.7974
 3790TIP3   OH233004   1.421   5.760   3.274 -0.1705  0.4324  0.2736
 3790TIP3    H133005   1.342   5.813   3.260  0.0200  0.8052  0.5646
 3790TIP3    H233006   1.439   5.770   3.368  1.0077  1.4823 -0.0414
 3791TIP3   OH233007   6.046   3.324   3.204 -0.2291  0.0457 -0.3605
 3791TIP3    H133008   6.022   3.294   3.116  0.1497 -0.0108 -0.4433
 3791TIP3    H233009   6.113   3.391   3.190 -0.1095 -0.0192 -0.1119
 3792TIP3   OH233010   2.517   2.831   3.353  0.0522 -0.1111 -0.3781
 3792TIP3    H133011   2.592   2.771   3.361 -0.2510 -0.3163  1.1994
 3792TIP3    H233012   2.491   2.849   3.443 -1.5463  0.3003 -0.8950
 3793TIP3   OH233013   2.844   5.048   3.433  0.6799  0.8068  0.1940
 3793TIP3    H133014   2.906   5.023   3.365  0.4516  1.2053 -0.1595
 3793TIP3    H233015   2.883   5.014   3.514 -0.2466 -1.9391 -0.3972
 3794TIP3   OH233016   6.430   6.643   1.605 -0.1611 -0.2389 -0.3382
 3794TIP3    H133017   6.475   6.625   1.523  0.0316  0.4345 -0.3850
 3794TIP3    H233018   6.339   6.658   1.579 -0.2837 -0.8916 -0.3212
 3795TIP3   OH233019   5.156   0.513   1.130 -0.9201  0.8117  0.6153
 3795TIP3    H133020   5.235   0.475   1.168 -0.8043 -1.5229 -1.6440
 3795TIP3    H233021   5.084   0.479   1.185 -0.7197 -1.9831 -0.6746
 3796TIP3   OH233022   6.553   4.515   0.564  0.7530  0.3177  0.1683
 3796TIP3    H133023   6.584   4.494   0.651 -0.8668  0.0780  0.7304
 3796TIP3    H233024   6.616   4.473   0.505  1.5521  0.0054  1.2190
 3797TIP3   OH233025   1.486   5.053   2.711 -0.0656 -0.2290 -0.7679
 3797TIP3    H133026   1.525   4.965   2.718 -0.5789 -0.6706 -2.7203
 3797TIP3    H233027   1.450   5.070   2.798  0.1307 -1.9192 -0.3090
 3798TIP3   OH233028   4.934   3.751   1.366 -0.5433  0.7449  0.2923
 3798TIP3    H133029   4.912   3.709   1.449  1.1721 -0.7687  0.0423
 3798TIP3    H233030   4.923   3.683   1.300  2.5189  0.4621 -0.0902
 3799TIP3   OH233031   3.658   1.121   3.245  0.1980 -0.1624 -0.4690
 3799TIP3    H133032   3.702   1.068   3.178  1.9845  0.7348 -0.0628
 3799TIP3    H233033   3.694   1.209   3.233 -0.6409  0.3541  0.6644
 3800TIP3   OH233034   5.660   0.141   1.873  0.2970 -0.5914  0.1649
 3800TIP3    H133035   5.696   0.055   1.852  2.4126  0.4380 -0.6798
 3800TIP3    H233036   5.733   0.188   1.914  0.1395  1.7493 -2.0286
 3801TIP3   OH233037   1.286   1.720   1.010  0.0292 -0.1013 -0.2711
 3801TIP3    H133038   1.321   1.776   0.942 -0.4318 -0.1437 -0.5482
 3801TIP3    H233039   1.228   1.777   1.061 -1.5501 -0.6381 -1.4080
 3802TIP3   OH233040   4.630   1.514   3.651  0.1235 -0.1988  0.1583
 3802TIP3    H133041   4.572   1.486   3.580 -0.4718 -0.1863  0.6261
 3802TIP3    H233042   4.578   1.578   3.700  0.8091  0.3710  0.1569
 3803TIP3   OH233043   3.552   2.486   1.237  0.7276  0.8107  0.3852
 3803TIP3    H133044   3.483   2.455   1.179  1.9400  1.2487 -1.3706
 3803TIP3    H233045   3.595   2.556   1.188  1.0876  1.9906  2.2959
 3804TIP3   OH233046   0.389   6.478   1.354 -0.3904  0.0437 -0.2660
 3804TIP3    H133047   0.398   6.383   1.352  0.3844  0.1152 -1.1320
 3804TIP3    H233048   0.460   6.508   1.412 -2.8648 -0.0763  3.0756
 3805TIP3   OH233049   1.686   1.772   3.317 -0.3408  0.2970 -0.2221
 3805TIP3    H133050   1.616   1.797   3.377  0.9630  0.0739  1.4440
 3805TIP3    H233051   1.766   1.795   3.363  0.7778 -2.1926 -0.7875
 3806TIP3   OH233052   0.539   4.942   0.697  0.2741 -0.3429  0.0302
 3806TIP3    H133053   0.445   4.929   0.683  0.2717 -0.4864  0.1757
 3806TIP3    H233054   0.581   4.897   0.624  0.2638 -1.1250  0.4927
 3807TIP3   OH233055   1.889   4.494   1.821  0.7304 -0.4174 -0.2544
 3807TIP3    H133056   1.938   4.532   1.748 -0.3777 -1.5593 -1.6646
 3807TIP3    H233057   1.919   4.403   1.825  0.2595 -0.5541  0.2431
 3808TIP3   OH233058   1.327   0.128   1.951  0.1059  0.3600  0.1675
 3808TIP3    H133059   1.350   0.039   1.977 -2.8177 -0.7764 -0.6688
 3808TIP3    H233060   1.402   0.181   1.977  2.7600 -2.5698 -0.8759
 3809TIP3   OH233061   0.247   3.361   0.547  0.5425  0.0590 -0.1682
 3809TIP3    H133062   0.298   3.438   0.571  2.0513 -1.0676  0.3925
 3809TIP3    H233063   0.162   3.374   0.588  0.7616  1.4283 -0.1135
 3810TIP3   OH233064   4.968   4.901   8.537  0.2742  0.0164 -0.0358
 3810TIP3    H133065   5.001   4.915   8.448 -0.5524  1.4927 -0.1424
 3810TIP3    H233066   4.974   4.987   8.578 -0.5781 -0.3639  0.9108
 3811TIP3   OH233067   5.389   3.527   3.238 -0.2039 -0.2972  0.5138
 3811TIP3    H133068   5.370   3.464   3.308 -0.5710 -2.9778 -1.7770
 3811TIP3    H233069   5.475   3.561   3.259  0.0351 -1.6302  1.8624
 3812TIP3   OH233070   6.321   5.602   1.040 -0.5699 -0.2342 -0.0811
 3812TIP3    H133071   6.354   5.512   1.039 -0.5870 -0.2369 -0.5666
 3812TIP3    H233072   6.378   5.649   0.979 -1.8336 -0.3732 -1.4242
 3813TIP3   OH233073   6.014   6.310   2.130 -0.1640 -0.3038 -0.3546
 3813TIP3    H133074   6.022   6.400   2.100 -0.8328  0.1666  0.8172
 3813TIP3    H233075   5.964   6.266   2.061 -1.5452  0.7148 -0.0420
 3814TIP3   OH233076   3.245   2.095   2.529 -0.2809  0.0448  0.7334
 3814TIP3    H133077   3.153   2.114   2.510 -0.8862 -0.3606  2.9948
 3814TIP3    H233078   3.293   2.170   2.494 -1.3949  0.0451 -0.9007
 3815TIP3   OH233079   1.470   5.916   1.928  0.3598  0.6715  0.1672
 3815TIP3    H133080   1.527   5.988   1.901  0.5036  1.4495  2.3471
 3815TIP3    H233081   1.390   5.959   1.958 -0.2412 -0.2214 -0.1143
 3816TIP3   OH233082   6.280   2.577   1.385 -0.3339 -0.1917  0.5452
 3816TIP3    H133083   6.296   2.663   1.347  0.1484  0.3224  1.8591
 3816TIP3    H233084   6.362   2.530   1.372 -0.8321 -0.7313 -0.8186
 3817TIP3   OH233085   1.155   0.169   2.937  0.1039 -0.5386  0.0447
 3817TIP3    H133086   1.103   0.127   2.869 -1.0848  0.0051  0.5921
 3817TIP3    H233087   1.131   0.262   2.931 -0.7338 -0.6020  1.7928
 3818TIP3   OH233088   3.760   4.570   0.378  0.1786 -0.3065 -0.7262
 3818TIP3    H133089   3.740   4.625   0.302  0.5618  1.4804  0.4159
 3818TIP3    H233090   3.849   4.593   0.402 -0.4095  0.2086  1.0957
 3819TIP3   OH233091   5.270   0.509   3.157 -0.1171 -0.2278 -1.4278
 3819TIP3    H133092   5.334   0.458   3.206 -0.4641 -0.5554 -1.3126
 3819TIP3    H233093   5.185   0.474   3.184 -0.4253  1.1962 -0.4438
 3820TIP3   OH233094   0.384   2.387   0.369  0.4114 -0.0089  0.1934
 3820TIP3    H133095   0.299   2.356   0.339  0.9747 -0.7663 -0.6904
 3820TIP3    H233096   0.395   2.472   0.327  0.4098 -0.2508 -0.2994
 3821TIP3   OH233097   0.262   6.291   1.915  0.7848  0.5821  0.5294
 3821TIP3    H133098   0.283   6.296   1.822  0.4774  0.1176  0.4292
 3821TIP3    H233099   0.178   6.336   1.923  1.1992  1.3287  0.7182
 3822TIP3   OH233100   3.503   5.782   0.389  0.0237 -0.2393  0.0783
 3822TIP3    H133101   3.569   5.779   0.458  0.2643  0.3081 -0.1178
 3822TIP3    H233102   3.459   5.697   0.393 -0.6097  0.1242  1.5282
 3823TIP3   OH233103   6.390   2.970   2.859  0.1426  0.2307 -0.3334
 3823TIP3    H133104   6.467   2.914   2.848 -0.2157 -0.0653 -1.5511
 3823TIP3    H233105   6.319   2.920   2.818 -0.2634  1.4150 -1.1262
 3824TIP3   OH233106   2.235   0.236   3.327 -0.4989 -1.2722  0.4455
 3824TIP3    H133107   2.289   0.166   3.364  1.6461 -0.5148 -1.0626
 3824TIP3    H233108   2.282   0.316   3.350 -2.5592 -0.3097  1.5702
 3825TIP3   OH233109   4.291   2.505   2.001 -0.0180 -0.3231  0.2632
 3825TIP3    H133110   4.310   2.597   2.018 -1.4374 -0.2394  1.5938
 3825TIP3    H233111   4.350   2.481   1.930  1.2513  1.2743  0.7213
 3826TIP3   OH233112   4.988   3.502   1.204 -0.4221 -0.4073 -0.8964
 3826TIP3    H133113   5.034   3.557   1.140 -0.8343 -0.4741 -1.2513
 3826TIP3    H233114   4.953   3.429   1.153  1.7195 -2.0577 -0.1707
 3827TIP3   OH233115   3.823   1.642   1.371 -0.2821 -0.1451  0.2758
 3827TIP3    H133116   3.867   1.623   1.454 -0.8785  0.6055  0.7814
 3827TIP3    H233117   3.730   1.642   1.393 -0.4117  0.8252 -0.2240
 3828TIP3   OH233118   4.065   1.321   1.361  0.2186  0.0855  0.6169
 3828TIP3    H133119   4.029   1.284   1.441 -0.5219 -3.1336 -1.0184
 3828TIP3    H233120   4.000   1.300   1.293  2.6068 -1.0786 -1.5058
 3829TIP3   OH233121   0.064   0.857   1.141  0.1373  0.5851  0.0614
 3829TIP3    H133122   0.085   0.783   1.198  0.2421  1.8315  1.6745
 3829TIP3    H233123  -0.023   0.885   1.169 -0.8374 -0.2045 -1.9609
 3830TIP3   OH233124   2.264   4.819   0.101  0.2302 -0.0384  0.3664
 3830TIP3    H133125   2.193   4.758   0.080  0.7941 -0.4461 -0.3799
 3830TIP3    H233126   2.322   4.769   0.158  0.1392  0.1601  0.6355
 3831TIP3   OH233127   5.996   0.923   3.487 -0.0238  0.2016 -0.1510
 3831TIP3    H133128   5.923   0.925   3.549 -0.3569 -1.3460 -0.4463
 3831TIP3    H233129   6.001   1.012   3.452  0.4013  1.2184  2.3307
 3832TIP3   OH233130   5.048   6.007   0.812 -0.0811 -0.1712  0.5802
 3832TIP3    H133131   5.088   5.920   0.808 -0.5501 -0.3636 -0.0764
 3832TIP3    H233132   4.964   5.997   0.767  0.2095  0.8119 -0.2183
 3833TIP3   OH233133   5.420   4.647   3.061  0.1683  0.3436  0.5053
 3833TIP3    H133134   5.478   4.723   3.052 -1.8143  1.7807 -1.6417
 3833TIP3    H233135   5.341   4.683   3.101 -1.4892 -0.0675 -2.1553
 3834TIP3   OH233136   6.611   4.152   2.044 -0.8648  0.2977  1.1780
 3834TIP3    H133137   6.615   4.181   1.953 -1.5439 -0.6056  0.8396
 3834TIP3    H233138   6.538   4.202   2.081 -0.1091  1.2283  1.4597
 3835TIP3   OH233139   1.904   6.102   2.860 -0.1741  0.0778 -0.3885
 3835TIP3    H133140   1.960   6.028   2.837  0.6921  0.5355  0.2127
 3835TIP3    H233141   1.962   6.177   2.860 -0.6487  0.4648  0.8752
 3836TIP3   OH233142   4.696   2.590   3.991 -0.5963  0.1934 -0.0155
 3836TIP3    H133143   4.767   2.526   3.986  0.1428  0.9906  0.0124
 3836TIP3    H233144   4.624   2.543   4.034 -0.3207 -0.8252 -0.6475
 3837TIP3   OH233145   2.661   2.463   0.710  0.2580 -0.2525  0.1063
 3837TIP3    H133146   2.644   2.549   0.749 -0.1824 -1.2860  2.2964
 3837TIP3    H233147   2.686   2.483   0.619  0.3031  2.1827  0.5899
 3838TIP3   OH233148   2.004   1.166   0.870  0.1013  0.3807  0.3237
 3838TIP3    H133149   1.917   1.193   0.897  0.3293  0.8177  0.6284
 3838TIP3    H233150   2.046   1.247   0.841 -0.1180 -0.0605 -1.3090
 3839TIP3   OH233151   3.570   4.350   0.896 -0.2982 -0.6571 -0.1985
 3839TIP3    H133152   3.506   4.299   0.946 -2.7077  0.4981 -1.9191
 3839TIP3    H233153   3.633   4.285   0.864 -1.0242 -1.9583  0.9139
 3840TIP3   OH233154   0.317   1.414   0.704  0.2011 -0.3944  0.9100
 3840TIP3    H133155   0.357   1.488   0.659 -1.2482  0.7035  1.3505
 3840TIP3    H233156   0.254   1.379   0.642 -2.0839  1.3656  2.1126
 3841TIP3   OH233157   5.019   6.839   0.313 -0.3800  0.4488  0.3344
 3841TIP3    H133158   5.105   6.870   0.288  1.7127 -2.7702  2.7399
 3841TIP3    H233159   4.961   6.915   0.301  3.0632  3.3061  0.3349
 3842TIP3   OH233160   6.135   1.637   1.499 -0.1155 -0.1523  0.0269
 3842TIP3    H133161   6.128   1.733   1.505 -0.2604 -0.0539 -1.4891
 3842TIP3    H233162   6.094   1.606   1.580  3.4105  1.1115  2.5412
 3843TIP3   OH233163   4.746   0.699   0.592 -0.6776  0.3835  0.0799
 3843TIP3    H133164   4.749   0.769   0.526  1.7686  1.2279  1.0029
 3843TIP3    H233165   4.818   0.640   0.568 -1.0062 -0.3638  0.8778
 3844TIP3   OH233166   5.286   2.834   0.136  0.2599 -0.6522 -0.3282
 3844TIP3    H133167   5.250   2.787   0.061 -0.9512  1.1727 -0.9554
 3844TIP3    H233168   5.313   2.919   0.100  1.6746 -0.5457  0.8941
 3845TIP3   OH233169   1.120   5.710   1.382 -0.3316  0.5404  0.4056
 3845TIP3    H133170   1.139   5.690   1.291 -1.2917 -1.5026  0.5938
 3845TIP3    H233171   1.028   5.686   1.394  0.1193 -0.5467  2.2061
 3846TIP3   OH233172   1.554   2.618   0.494  0.4750  0.7011  0.3439
 3846TIP3    H133173   1.635   2.585   0.454  1.2138  2.0340  0.6800
 3846TIP3    H233174   1.491   2.620   0.422  0.1300 -2.0773  0.4382
 3847TIP3   OH233175   3.510   6.570   3.194  0.1320 -0.0647  0.3426
 3847TIP3    H133176   3.536   6.479   3.204 -3.2693 -1.3396 -0.7770
 3847TIP3    H233177   3.513   6.585   3.099 -0.3272  0.6279  0.4310
 3848TIP3   OH233178   1.986   6.863   3.244 -0.1084 -0.0743  0.3640
 3848TIP3    H133179   2.014   6.802   3.313 -1.0580 -1.9694 -0.8487
 3848TIP3    H233180   2.062   6.873   3.188  0.7162  1.5860  1.6865
 3849TIP3   OH233181   6.106   5.921   2.983  0.2411  0.1157 -0.8485
 3849TIP3    H133182   6.037   5.929   2.917 -1.1510  0.4769  0.6044
 3849TIP3    H233183   6.094   5.834   3.021  3.0932 -1.4877 -3.1969
 3850TIP3   OH233184   4.123   3.162   1.752  0.3615 -0.3675 -0.4947
 3850TIP3    H133185   4.077   3.080   1.736 -1.8510  0.9419 -1.2927
 3850TIP3    H233186   4.113   3.176   1.846 -0.7065 -0.2514 -0.6052
 3851TIP3   OH233187   2.700   2.954   2.146  0.3539  0.0263  0.3395
 3851TIP3    H133188   2.758   2.980   2.217  0.2732 -0.3152  0.5328
 3851TIP3    H233189   2.699   2.858   2.149 -0.2302  0.0284  0.3451
 3852TIP3   OH233190   0.042   0.871   2.553  0.2876  0.2707  0.3304
 3852TIP3    H133191   0.133   0.900   2.563  1.1227 -1.7440 -0.7852
 3852TIP3    H233192   0.029   0.809   2.625  0.0401 -0.0208  0.0330
 3853TIP3   OH233193   0.031   2.050   1.638  0.5479 -0.1168 -0.5396
 3853TIP3    H133194   0.084   2.008   1.705  1.6500  0.3008 -1.1297
 3853TIP3    H233195   0.054   2.143   1.643 -0.5108  0.1548 -0.4624
 3854TIP3   OH233196   0.683   1.186   1.924  0.5889  0.1407  0.1612
 3854TIP3    H133197   0.649   1.147   1.843  1.6230  1.3623 -0.9001
 3854TIP3    H233198   0.723   1.112   1.971  0.8309 -0.4310 -0.9085
 3855TIP3   OH233199   4.944   6.426   1.728  0.4718 -0.2657 -0.5026
 3855TIP3    H133200   4.862   6.388   1.758 -0.3930  1.4154 -0.6063
 3855TIP3    H233201   5.007   6.354   1.731 -0.4145 -1.0342  1.9233
 3856TIP3   OH233202   5.033   1.037   2.158  0.3389  0.0586 -0.2693
 3856TIP3    H133203   5.112   1.089   2.173 -0.4620  0.8789  1.3383
 3856TIP3    H233204   5.066   0.954   2.122  1.8827  0.5583 -0.1039
 3857TIP3   OH233205   0.290   5.726   0.216 -0.0668  0.3300  0.2754
 3857TIP3    H133206   0.223   5.783   0.178 -1.2673  0.1710  2.0728
 3857TIP3    H233207   0.296   5.653   0.154 -2.5340 -0.3158  0.6977
 3858TIP3   OH233208   5.682   2.205   2.381  0.4880 -0.1186  0.3226
 3858TIP3    H133209   5.591   2.224   2.404  1.0204  1.0634  1.5704
 3858TIP3    H233210   5.699   2.118   2.416 -0.7560 -1.2773 -1.7764
 3859TIP3   OH233211   3.814   1.207   2.614  0.0068 -0.7558  0.5792
 3859TIP3    H133212   3.869   1.132   2.591  1.2205 -0.7375  3.0982
 3859TIP3    H233213   3.725   1.178   2.595  0.7191 -0.5115 -4.3992
 3860TIP3   OH233214   3.522   5.956   8.665  0.1438  0.2473 -0.0388
 3860TIP3    H133215   3.602   5.997   8.699  0.1587 -0.9361  1.4382
 3860TIP3    H233216   3.553   5.875   8.623 -0.0781  0.8064 -1.3315
 3861TIP3   OH233217   2.693   6.617   3.933  0.8968  0.1548  0.5924
 3861TIP3    H133218   2.614   6.669   3.916  1.2104 -0.1084 -2.0635
 3861TIP3    H233219   2.763   6.663   3.888  1.3373 -2.0875 -1.1953
 3862TIP3   OH233220   2.252   0.501   2.191 -0.0918  0.0455  0.0029
 3862TIP3    H133221   2.221   0.581   2.233 -0.3796 -0.0832  0.0354
 3862TIP3    H233222   2.341   0.490   2.224  0.1945  0.7225 -0.5210
 3863TIP3   OH233223   3.861   5.703   0.700  0.6332 -0.0505 -0.3400
 3863TIP3    H133224   3.903   5.702   0.786  1.7827 -1.8568 -0.8508
 3863TIP3    H233225   3.926   5.663   0.641 -1.0024 -1.0185 -1.5813
 3864TIP3   OH233226   0.844   0.421   4.096 -0.5922 -0.2370 -0.5267
 3864TIP3    H133227   0.838   0.456   4.185 -0.7930 -1.4584 -0.0439
 3864TIP3    H233228   0.897   0.486   4.049  2.1668 -0.9978  1.2394
 3865TIP3   OH233229   4.144   0.607   2.459 -0.3574  0.1522 -0.2525
 3865TIP3    H133230   4.237   0.590   2.475  0.2047  2.6132 -0.4904
 3865TIP3    H233231   4.138   0.616   2.364 -1.0090 -0.7557 -0.3054
 3866TIP3   OH233232   5.115   5.406   2.956 -0.9323  0.1442  0.2408
 3866TIP3    H133233   5.064   5.445   2.885 -0.6512 -0.9410 -0.5759
 3866TIP3    H233234   5.050   5.361   3.010 -1.0925  0.5675  0.4005
 3867TIP3   OH233235   6.335   3.218   2.996  0.1317 -0.0275 -0.4540
 3867TIP3    H133236   6.251   3.249   2.964 -0.2865 -0.9419 -0.2761
 3867TIP3    H233237   6.350   3.135   2.949 -0.2613 -1.1550  1.3073
 3868TIP3   OH233238   3.796   5.018   0.778  0.0763  0.5051 -0.3464
 3868TIP3    H133239   3.741   5.096   0.779 -0.6316  0.0296  1.1356
 3868TIP3    H233240   3.765   4.966   0.853  2.2078 -0.0270  0.2246
 3869TIP3   OH233241   0.851   1.609   1.983 -0.1378  0.6011  0.1522
 3869TIP3    H133242   0.849   1.614   2.079 -0.1196  1.8984  0.1021
 3869TIP3    H233243   0.942   1.624   1.960  0.1565 -1.1988 -0.0365
 3870TIP3   OH233244   2.120   1.391   0.813  0.6606 -0.9589 -0.0607
 3870TIP3    H133245   2.170   1.402   0.732 -0.0440  0.1446 -0.3715
 3870TIP3    H233246   2.099   1.481   0.840  0.2441 -1.3450  0.9365
 3871TIP3   OH233247   6.665   1.502   1.802  0.1846 -0.4570  0.7478
 3871TIP3    H133248   6.680   1.595   1.781  1.7891 -0.7168  0.6338
 3871TIP3    H233249   6.570   1.496   1.815 -0.6915  0.3456 -3.5383
 3872TIP3   OH233250   3.979   2.975   8.410 -0.0915 -0.4209 -0.6982
 3872TIP3    H133251   4.010   3.062   8.433 -0.3901 -0.1397 -1.3579
 3872TIP3    H233252   4.033   2.949   8.335 -0.5106 -0.4959 -0.9735
 3873TIP3   OH233253   1.009   5.691   2.552  0.2640  0.1384  0.1039
 3873TIP3    H133254   1.034   5.615   2.499 -1.0814 -0.0106 -0.3486
 3873TIP3    H233255   0.997   5.655   2.640 -0.7577 -0.2881 -0.1856
 3874TIP3   OH233256   0.347   6.369   3.034 -0.5623  0.1680  0.1481
 3874TIP3    H133257   0.399   6.403   2.962 -0.7042  1.9371  0.8472
 3874TIP3    H233258   0.330   6.277   3.010  1.7542 -0.0995 -0.7179
 3875TIP3   OH233259   4.158   2.825   3.660 -0.1791  0.0038 -0.1469
 3875TIP3    H133260   4.180   2.762   3.729  1.7167  2.2068  1.4296
 3875TIP3    H233261   4.200   2.791   3.581  2.4506  0.1347  1.0861
 3876TIP3   OH233262   6.193   3.693   1.072  0.1528  0.7065 -0.6711
 3876TIP3    H133263   6.160   3.776   1.105  0.4511  1.9117 -3.1458
 3876TIP3    H233264   6.164   3.627   1.136 -0.4378  2.6324  1.1386
 3877TIP3   OH233265   5.374   0.368   1.201  0.1957 -0.1514 -0.4870
 3877TIP3    H133266   5.432   0.350   1.127 -0.5550 -2.3352 -0.6293
 3877TIP3    H233267   5.434   0.382   1.275  0.9290  1.0284 -1.2638
 3878TIP3   OH233268   4.479   4.023   8.571  0.0300  0.4312  0.7307
 3878TIP3    H133269   4.528   4.020   8.488 -0.4407  0.2919  0.4540
 3878TIP3    H233270   4.472   4.117   8.591  2.5355  0.4151  2.0603
 3879TIP3   OH233271   5.705   4.144   1.111  0.4781  0.4065 -0.1447
 3879TIP3    H133272   5.770   4.101   1.166 -0.6185  0.2947  1.1079
 3879TIP3    H233273   5.745   4.228   1.087  1.1214  0.2891  0.4981
 3880TIP3   OH233274   3.833   1.166   1.946  0.3960 -0.1240 -0.0880
 3880TIP3    H133275   3.750   1.199   1.981  0.6145  0.5356 -0.1758
 3880TIP3    H233276   3.851   1.222   1.871  1.1100 -0.0137  0.1560
 3881TIP3   OH233277   5.877   0.639   1.006  0.4580  0.3306 -0.2546
 3881TIP3    H133278   5.837   0.562   1.046 -0.6697  0.6549 -0.7276
 3881TIP3    H233279   5.962   0.609   0.975  0.6815 -0.3231  0.9563
 3882TIP3   OH233280   2.470   0.350   0.916 -0.1774 -0.1290 -0.2640
 3882TIP3    H133281   2.406   0.362   0.986  2.3739  1.5855  1.9364
 3882TIP3    H233282   2.460   0.258   0.891 -1.9043 -0.5225  1.5617
 3883TIP3   OH233283   3.204   4.712   2.299 -0.3178 -0.2780  1.1640
 3883TIP3    H133284   3.147   4.764   2.355 -0.7309 -0.5933  1.0346
 3883TIP3    H233285   3.209   4.761   2.217 -0.9936 -0.6228  0.9163
 3884TIP3   OH233286   2.775   2.669   2.119  0.0593  0.4063  0.0843
 3884TIP3    H133287   2.860   2.712   2.129 -0.1075  0.3772  1.9809
 3884TIP3    H233288   2.779   2.593   2.177 -0.2112 -1.3162 -2.0614
 3885TIP3   OH233289   2.195   3.225   2.820  0.0128  0.4124 -1.0130
 3885TIP3    H133290   2.133   3.294   2.798 -0.8435  0.6671  1.7150
 3885TIP3    H233291   2.275   3.272   2.846  0.0501  0.2903 -0.9038
 3886TIP3   OH233292   6.185   6.854   1.845  0.6195 -0.0371 -0.3704
 3886TIP3    H133293   6.207   6.862   1.938 -0.6982 -0.8784  0.0281
 3886TIP3    H233294   6.267   6.877   1.800  1.8215 -1.3889  1.0095
 3887TIP3   OH233295   0.199   4.008   2.212  0.0838 -0.0775 -0.1927
 3887TIP3    H133296   0.222   3.915   2.214  0.5897  0.0608  0.8941
 3887TIP3    H233297   0.113   4.010   2.170 -0.0347 -1.0523 -0.0231
 3888TIP3   OH233298   5.363   1.850   0.152  0.2766 -0.0234 -0.5756
 3888TIP3    H133299   5.329   1.769   0.113  0.7451  0.5463 -2.2400
 3888TIP3    H233300   5.310   1.919   0.114 -1.5809  0.3785  2.4812
 3889TIP3   OH233301   1.295   0.365   0.525  0.1542 -0.1194 -0.0841
 3889TIP3    H133302   1.356   0.379   0.453 -0.4470  1.6680 -0.2964
 3889TIP3    H233303   1.238   0.294   0.495  0.3916  0.0804 -1.0457
 3890TIP3   OH233304   6.210   2.185   0.910  0.1874 -0.3219  0.0929
 3890TIP3    H133305   6.283   2.213   0.965  0.2733 -2.6423  1.3026
 3890TIP3    H233306   6.139   2.166   0.972 -1.1608  0.9413 -0.9785
 3891TIP3   OH233307   5.205   2.433   4.013 -0.3186 -0.0303  0.0229
 3891TIP3    H133308   5.196   2.441   4.108  2.3225 -1.4291  0.4843
 3891TIP3    H233309   5.233   2.520   3.985 -1.5589  0.5214  0.4114
 3892TIP3   OH233310   1.146   1.703   8.590  0.3766 -0.0339 -0.1305
 3892TIP3    H133311   1.115   1.634   8.532 -0.2765  0.3279 -0.2163
 3892TIP3    H233312   1.237   1.717   8.563  0.8179 -1.4806  0.4878
 3893TIP3   OH233313   4.972   6.750   2.684 -0.3409  0.3270 -0.4471
 3893TIP3    H133314   4.986   6.680   2.620 -0.6329  1.2541 -1.5666
 3893TIP3    H233315   4.880   6.774   2.674 -0.7124 -0.3332  1.2080
 3894TIP3   OH233316   0.108   2.694   1.012  0.3268 -0.3195 -0.7998
 3894TIP3    H133317   0.140   2.642   0.938  2.1206 -0.6244  0.1356
 3894TIP3    H233318   0.187   2.719   1.060 -0.7665 -0.0242  0.9552
 3895TIP3   OH233319   2.639   6.647   7.841 -0.6917  0.0150 -0.2884
 3895TIP3    H133320   2.555   6.639   7.796 -0.6251 -1.5750 -0.2118
 3895TIP3    H233321   2.617   6.672   7.930 -1.1783 -1.1086 -0.0674
 3896TIP3   OH233322   3.472   2.504   1.599 -0.0391  0.8190  0.1096
 3896TIP3    H133323   3.469   2.519   1.505  1.4323  1.0182  0.0636
 3896TIP3    H233324   3.539   2.436   1.610  1.1709  2.1068  1.1191
 3897TIP3   OH233325   4.165   6.594   2.860  0.3156  0.4108  0.4585
 3897TIP3    H133326   4.249   6.603   2.906  1.3793  0.1229 -1.3595
 3897TIP3    H233327   4.132   6.508   2.887  1.4879 -0.2607 -0.1797
 3898TIP3   OH233328   6.862   4.449   0.069 -0.3874 -1.0190  0.3268
 3898TIP3    H133329   6.920   4.489   0.005 -0.3613 -1.1050  0.2971
 3898TIP3    H233330   6.919   4.390   0.119 -0.2618 -0.4690  0.8582
 3899TIP3   OH233331   4.903   5.290   0.528  0.0499 -0.2928  0.7371
 3899TIP3    H133332   4.906   5.376   0.569  1.5242  0.5837 -1.0630
 3899TIP3    H233333   4.958   5.235   0.583  0.2472  0.2789  1.1235
 3900TIP3   OH233334   4.735   3.898   4.390  0.5928  0.3843  0.3504
 3900TIP3    H133335   4.759   3.809   4.418  0.5351  0.4406  0.5846
 3900TIP3    H233336   4.819   3.939   4.366  0.3967 -0.5138 -2.1361
 3901TIP3   OH233337   5.407   3.506   8.288  0.6020 -0.2902 -0.6682
 3901TIP3    H133338   5.380   3.581   8.236  0.2404 -0.6572 -1.0107
 3901TIP3    H233339   5.457   3.451   8.228 -0.5329 -1.1312 -0.8644
 3902TIP3   OH233340   6.473   2.902   2.554  0.4283  0.2526 -0.0850
 3902TIP3    H133341   6.505   2.824   2.599 -0.3335  0.3661  0.6919
 3902TIP3    H233342   6.392   2.874   2.512  1.5047 -0.0391 -2.0469
 3903TIP3   OH233343   2.802   6.364   2.183  0.1059 -0.6688  0.2745
 3903TIP3    H133344   2.714   6.401   2.193  1.2357  2.4169 -0.2254
 3903TIP3    H233345   2.829   6.390   2.095  1.9725 -0.4309  0.8718
 3904TIP3   OH233346   4.084   4.100   3.709  0.6279 -0.1678 -0.0633
 3904TIP3    H133347   4.099   4.054   3.627 -0.2820 -0.1864 -0.2376
 3904TIP3    H233348   4.038   4.180   3.683  1.9106  0.7031  0.2666
 3905TIP3   OH233349   1.025   2.454   0.579  0.1869 -0.2310 -0.2863
 3905TIP3    H133350   0.974   2.375   0.560  0.6246 -1.2728  2.4021
 3905TIP3    H233351   0.960   2.516   0.614  0.3014 -0.5889  0.5964
 3906TIP3   OH233352   2.933   0.944   0.520  0.1515  0.5131  0.1844
 3906TIP3    H133353   2.997   0.971   0.453  1.3408  0.0220  1.0746
 3906TIP3    H233354   2.937   0.849   0.519 -1.2742  0.4411 -0.3737
 3907TIP3   OH233355   4.004   4.619   0.492  0.6348  0.1421 -0.1515
 3907TIP3    H133356   4.058   4.541   0.504 -0.8276 -0.5136  3.9177
 3907TIP3    H233357   4.053   4.688   0.537 -0.4549  0.2329  0.9434
 3908TIP3   OH233358   0.543   6.589   0.743 -0.0420  0.0768 -0.0431
 3908TIP3    H133359   0.545   6.678   0.777  1.5467 -0.0075  0.1620
 3908TIP3    H233360   0.478   6.592   0.672  0.2119  1.4736 -0.2479
 3909TIP3   OH233361   2.637   5.929   8.509  0.1167  0.0870 -0.1220
 3909TIP3    H133362   2.730   5.913   8.523  0.0716  0.9918  1.5234
 3909TIP3    H233363   2.593   5.862   8.561 -0.1106  1.0448  0.9570
 3910TIP3   OH233364   4.807   5.588   2.407  0.8010 -0.3705 -0.2113
 3910TIP3    H133365   4.736   5.583   2.343 -0.9163 -0.8014  1.6181
 3910TIP3    H233366   4.832   5.497   2.423  1.0248 -0.2840 -0.0474
 3911TIP3   OH233367   1.354   1.855   0.333  0.1664  0.3114 -0.2860
 3911TIP3    H133368   1.359   1.948   0.313 -0.9874  0.5060  0.2751
 3911TIP3    H233369   1.280   1.846   0.392  1.0839 -0.7860  0.7695
 3912TIP3   OH233370   5.222   3.386   3.050 -0.1386 -0.0428  0.4525
 3912TIP3    H133371   5.222   3.310   3.108 -1.0437 -0.0937  0.3989
 3912TIP3    H233372   5.284   3.447   3.091 -1.1844  0.1653  1.8065
 3913TIP3   OH233373   6.011   0.322   1.062 -0.5376 -0.1375 -0.6990
 3913TIP3    H133374   5.936   0.317   1.121  0.9663 -2.0870  1.1947
 3913TIP3    H233375   6.077   0.370   1.111 -0.6253  2.0192 -2.5392
 3914TIP3   OH233376   2.720   0.455   0.909 -0.2941  0.1521  0.2109
 3914TIP3    H133377   2.637   0.412   0.892 -1.2067  1.8991 -0.0289
 3914TIP3    H233378   2.772   0.391   0.958 -1.4614 -1.2571 -0.3671
 3915TIP3   OH233379   1.515   4.092   0.230 -0.3294  0.1566 -0.0300
 3915TIP3    H133380   1.440   4.140   0.195 -1.3772 -1.1703  0.3378
 3915TIP3    H233381   1.506   4.004   0.194  0.2284 -0.4226  1.1873
 3916TIP3   OH233382   1.471   4.854   8.616 -0.2121  0.6963  0.5167
 3916TIP3    H133383   1.443   4.809   8.537 -0.5068  1.8448 -0.0609
 3916TIP3    H233384   1.565   4.841   8.621 -0.1350  0.9481 -0.2530
 3917TIP3   OH233385   2.552   3.955   0.920 -0.5107 -0.2665 -0.4277
 3917TIP3    H133386   2.524   3.935   0.831 -1.5106  1.4414 -0.5499
 3917TIP3    H233387   2.632   4.006   0.909  0.0928 -1.1571 -0.2710
 3918TIP3   OH233388   3.207   4.264   3.233  0.1940  0.1617 -0.0526
 3918TIP3    H133389   3.302   4.279   3.235 -0.0095  1.5601  1.8721
 3918TIP3    H233390   3.175   4.301   3.315 -2.0779 -0.0085 -0.7911
 3919TIP3   OH233391   3.415   1.866   0.131 -0.1082  0.0651 -0.3249
 3919TIP3    H133392   3.437   1.954   0.099 -1.8883  0.2131 -1.2237
 3919TIP3    H233393   3.386   1.881   0.221  0.3821  0.2858 -0.2001
 3920TIP3   OH233394   0.719   3.055   3.318  0.3417  0.2709  0.4098
 3920TIP3    H133395   0.692   3.100   3.238 -0.5941 -1.8048 -0.5139
 3920TIP3    H233396   0.692   3.113   3.389 -0.6059  1.2540 -0.7277
 3921TIP3   OH233397   6.030   3.143   3.423 -0.3515 -0.5513 -0.1854
 3921TIP3    H133398   6.069   3.184   3.500  1.9230 -0.7171 -1.1910
 3921TIP3    H233399   6.056   3.198   3.350  0.3281 -2.1506 -1.2114
 3922TIP3   OH233400   2.385   4.230   3.977  0.1317 -0.0494  0.1632
 3922TIP3    H133401   2.422   4.300   4.030  0.7786 -0.4235  0.2163
 3922TIP3    H233402   2.459   4.194   3.929 -0.3991  0.1331 -0.8337
 3923TIP3   OH233403   4.122   3.587   0.244  0.0767  0.0581  0.1063
 3923TIP3    H133404   4.070   3.556   0.319  0.7671  0.6275  0.8302
 3923TIP3    H233405   4.213   3.576   0.271  0.4136 -1.7440 -1.4725
 3924TIP3   OH233406   1.783   2.570   0.983 -0.5376 -0.1014 -0.1662
 3924TIP3    H133407   1.815   2.544   0.897  1.1994  0.0176  0.3978
 3924TIP3    H233408   1.711   2.631   0.965  0.3198  0.5610 -1.5398
 3925TIP3   OH233409   2.703   1.711   4.012  0.7388  0.1979  0.5027
 3925TIP3    H133410   2.782   1.657   4.008  1.6421  1.4630  0.4936
 3925TIP3    H233411   2.720   1.782   3.949 -0.4018  0.4954  0.5132
 3926TIP3   OH233412   6.043   4.144   8.216  0.2504  0.4641 -0.0162
 3926TIP3    H133413   6.024   4.056   8.183  0.1466  0.6830 -0.5522
 3926TIP3    H233414   5.988   4.153   8.293 -0.8663  0.5950 -0.7952
 3927TIP3   OH233415   2.951   2.118   8.471  0.2651 -0.8471 -0.1138
 3927TIP3    H133416   2.929   2.036   8.427  1.1139 -0.3166 -1.6513
 3927TIP3    H233417   2.883   2.179   8.443  1.2284 -0.3053 -1.4168
 3928TIP3   OH233418   2.804   0.890   2.902  0.1413 -0.7507 -0.1600
 3928TIP3    H133419   2.769   0.804   2.928  0.0725 -0.6179  0.1836
 3928TIP3    H233420   2.734   0.951   2.921  0.6018 -0.4606  0.6683
 3929TIP3   OH233421   2.727   1.760   0.866 -0.4705 -0.4524  0.0117
 3929TIP3    H133422   2.636   1.731   0.867 -0.6319  0.0462  0.3724
 3929TIP3    H233423   2.722   1.856   0.875 -0.0052 -0.1512 -2.3218
 3930TIP3   OH233424   2.180   6.238   8.480  0.0929 -0.0904  0.6995
 3930TIP3    H133425   2.141   6.242   8.393  0.0663 -0.2948  0.7015
 3930TIP3    H233426   2.272   6.262   8.467  0.2236 -0.6633  0.5267
 3931TIP3   OH233427   3.531   4.617   2.257  0.2186  0.2170  0.1102
 3931TIP3    H133428   3.592   4.678   2.299  1.1258 -1.7042  1.7634
 3931TIP3    H233429   3.564   4.531   2.282 -3.3453 -0.9283  1.3421
 3932TIP3   OH233430   5.868   0.344   3.976 -0.0758 -0.5006  0.3389
 3932TIP3    H133431   5.773   0.332   3.972 -0.1236  0.0035 -0.0853
 3932TIP3    H233432   5.902   0.256   3.989 -0.5395 -0.8441 -0.6325
 3933TIP3   OH233433   2.721   3.821   2.707  0.2462  0.0464  0.1700
 3933TIP3    H133434   2.797   3.779   2.748  0.2912  0.4335  0.4959
 3933TIP3    H233435   2.702   3.767   2.631  1.5647  0.5814 -0.5725
 3934TIP3   OH233436   1.308   5.265   3.856 -0.3742  0.4182  0.1077
 3934TIP3    H133437   1.391   5.256   3.904 -0.3764  0.6159  0.1479
 3934TIP3    H233438   1.307   5.190   3.797  0.4158  1.0963 -0.7848
 3935TIP3   OH233439   3.247   0.955   0.438  0.4317  0.0573  0.0937
 3935TIP3    H133440   3.342   0.964   0.427  0.6215 -1.1843  0.4761
 3935TIP3    H233441   3.238   0.884   0.502 -0.7509  0.6021  0.5490
 3936TIP3   OH233442   1.621   0.099   1.030  0.2331 -0.7905 -0.4238
 3936TIP3    H133443   1.689   0.060   0.975  0.1569 -1.9581  0.2562
 3936TIP3    H233444   1.562   0.026   1.049 -0.3365 -0.1546  0.2961
 3937TIP3   OH233445   2.418   3.388   3.142  0.0751 -0.2900  0.1244
 3937TIP3    H133446   2.341   3.333   3.129 -0.1074  0.0171 -0.0830
 3937TIP3    H233447   2.443   3.372   3.234  0.8095 -1.7354 -0.2899
 3938TIP3   OH233448   3.372   2.695   1.759  0.3496  0.2207 -0.3896
 3938TIP3    H133449   3.422   2.776   1.746  0.2245  0.3313 -0.1980
 3938TIP3    H233450   3.424   2.627   1.717 -0.9108  0.8134 -3.1445
 3939TIP3   OH233451   0.199   4.536   3.683 -0.9149  0.3114  0.0936
 3939TIP3    H133452   0.122   4.559   3.631  0.0384  0.4877 -1.2913
 3939TIP3    H233453   0.180   4.448   3.715 -1.0083 -0.3498 -1.6428
 3940TIP3   OH233454   2.635   0.049   2.745  0.0924  0.2325  0.5084
 3940TIP3    H133455   2.649  -0.024   2.686 -3.1362 -0.4744  0.4453
 3940TIP3    H233456   2.675   0.022   2.828 -0.2401 -1.2160  0.2087
 3941TIP3   OH233457   1.974   3.636   7.868 -0.2256 -0.1806 -0.3735
 3941TIP3    H133458   1.934   3.704   7.922 -1.0683 -2.0307  1.4702
 3941TIP3    H233459   1.941   3.554   7.905 -0.3821 -1.5870 -3.3919
 3942TIP3   OH233460   0.964   2.574   4.228 -0.3724  0.0407 -0.2121
 3942TIP3    H133461   1.023   2.604   4.298 -2.7848  1.1691  1.4832
 3942TIP3    H233462   0.941   2.485   4.254 -0.0661 -0.0979 -0.4158
 3943TIP3   OH233463   3.591   1.948   2.914  0.5493  0.2792  0.1598
 3943TIP3    H133464   3.598   2.030   2.865 -0.2166 -0.5972 -1.5554
 3943TIP3    H233465   3.500   1.920   2.899  1.0124 -1.2556  0.0026
 3944TIP3   OH233466   4.089   6.550   0.605 -0.1768  0.0026 -0.0889
 3944TIP3    H133467   4.062   6.627   0.555  0.4715 -0.0955 -0.6021
 3944TIP3    H233468   4.044   6.477   0.564  1.2458 -0.2369 -1.2994
 3945TIP3   OH233469   1.665   2.630   1.932  0.5505  0.1434 -0.6284
 3945TIP3    H133470   1.689   2.719   1.959  2.5513 -0.5717  0.1650
 3945TIP3    H233471   1.731   2.605   1.868  0.0953 -0.8341 -0.7395
 3946TIP3   OH233472   0.750   6.220   0.445 -0.3022  0.2757  0.3290
 3946TIP3    H133473   0.815   6.249   0.509 -0.9413 -0.7950  1.5070
 3946TIP3    H233474   0.800   6.166   0.384  0.1438  0.5067  0.4836
 3947TIP3   OH233475   0.197   3.477   0.075  0.0478 -0.0900 -0.0995
 3947TIP3    H133476   0.238   3.531   0.143  1.7167  0.7904 -1.7020
 3947TIP3    H233477   0.265   3.412   0.053 -1.0849 -1.4254  0.1917
 3948TIP3   OH233478   2.460   0.405   2.405  0.3886  0.2811 -0.4683
 3948TIP3    H133479   2.399   0.462   2.453 -0.7591 -0.9090 -0.4441
 3948TIP3    H233480   2.435   0.316   2.432  0.1866 -0.3851 -2.7033
 3949TIP3   OH233481   4.414   2.837   1.335 -0.1493  0.6895  0.1999
 3949TIP3    H133482   4.365   2.794   1.265  2.8205 -1.7820 -0.6258
 3949TIP3    H233483   4.384   2.795   1.415  1.2743 -1.7021 -0.4129
 3950TIP3   OH233484   4.124   4.413   1.155  0.3115 -0.0189 -0.4198
 3950TIP3    H133485   4.111   4.325   1.190  1.0422 -0.5319 -1.3838
 3950TIP3    H233486   4.214   4.435   1.176  0.0077  0.6856  0.1879
 3951TIP3   OH233487   6.589   0.837   0.365 -0.1324  0.5961  0.1650
 3951TIP3    H133488   6.662   0.861   0.307  0.0056  0.2557  0.1948
 3951TIP3    H233489   6.581   0.911   0.426 -0.6329  1.2065 -0.6226
 3952TIP3   OH233490   0.426   4.110   8.324  0.0490 -0.2509  0.0590
 3952TIP3    H133491   0.471   4.142   8.245  1.1514  1.8581  1.4423
 3952TIP3    H233492   0.352   4.169   8.334  0.3510 -0.0163  0.9908
 3953TIP3   OH233493   4.914   1.177   1.814  0.0451  0.3101 -0.3584
 3953TIP3    H133494   4.950   1.180   1.725  0.1357 -0.8320 -0.3778
 3953TIP3    H233495   4.957   1.250   1.860 -1.7555  2.4399 -1.8491
 3954TIP3   OH233496   1.488   6.657   1.731  0.6598  0.1316  0.1481
 3954TIP3    H133497   1.510   6.741   1.691 -0.6837  1.3787  1.8804
 3954TIP3    H233498   1.477   6.677   1.824 -0.1237 -1.8969  0.5407
 3955TIP3   OH233499   5.645   1.871   1.600  0.3095 -0.2841 -0.4352
 3955TIP3    H133500   5.692   1.790   1.619 -0.8438 -0.8188  0.2250
 3955TIP3    H233501   5.554   1.844   1.588  0.0464  0.8070 -1.0589
 3956TIP3   OH233502   4.561   6.253   8.728  0.0609 -0.2048  0.1665
 3956TIP3    H133503   4.484   6.204   8.756 -0.1823 -0.4581 -0.9076
 3956TIP3    H233504   4.619   6.186   8.691 -0.1467  0.2599 -1.0350
 3957TIP3   OH233505   3.481   6.682   4.157  0.0513 -0.3297 -0.0866
 3957TIP3    H133506   3.469   6.739   4.082 -1.2109  0.4068  0.6381
 3957TIP3    H233507   3.563   6.635   4.139 -0.0184  0.1108 -1.7114
 3958TIP3   OH233508   6.776   3.185   1.330 -0.4892 -0.6743  0.1416
 3958TIP3    H133509   6.749   3.276   1.333  0.0081 -0.5150 -0.0755
 3958TIP3    H233510   6.721   3.146   1.262 -0.6181 -0.5048  0.1485
 3959TIP3   OH233511   4.186   1.689   3.659  0.4425  1.3408  0.6813
 3959TIP3    H133512   4.140   1.751   3.603  0.9859  3.6386  2.6198
 3959TIP3    H233513   4.119   1.653   3.717 -0.5461 -2.6354 -2.4929
 3960TIP3   OH233514   0.118   1.449   2.039  0.3076 -0.8460  0.0171
 3960TIP3    H133515   0.206   1.417   2.019  0.8082  0.4654  0.0029
 3960TIP3    H233516   0.118   1.457   2.134 -0.4936 -2.7034  0.2088
 3961TIP3   OH233517   2.468   1.053   1.270  0.1756 -0.2711  0.5287
 3961TIP3    H133518   2.511   1.009   1.196  0.2531 -1.0391  1.0167
 3961TIP3    H233519   2.535   1.112   1.304  0.4267 -0.5410  0.5104
 3962TIP3   OH233520   0.690   5.928   2.771  0.0679  0.4970 -0.3037
 3962TIP3    H133521   0.638   5.878   2.707  0.2229  0.3571 -0.3216
 3962TIP3    H233522   0.628   5.950   2.840 -0.2188  1.0594 -0.7270
 3963TIP3   OH233523   1.251   0.799   1.452  0.7595 -0.2608 -0.3318
 3963TIP3    H133524   1.298   0.752   1.383  0.1745 -1.3409 -0.0169
 3963TIP3    H233525   1.187   0.853   1.405  1.1500 -0.1023 -0.6848
 3964TIP3   OH233526   1.491   5.539   0.946 -0.1444  0.3265  0.4465
 3964TIP3    H133527   1.428   5.569   0.881 -0.7175 -1.8669 -0.0569
 3964TIP3    H233528   1.438   5.515   1.022  0.1957 -0.3758  0.4671
 3965TIP3   OH233529   2.690   6.230   3.673  0.3595 -0.8887  0.9751
 3965TIP3    H133530   2.673   6.138   3.695 -0.4663 -0.8493  0.5421
 3965TIP3    H233531   2.779   6.231   3.640  0.8735 -1.3051  2.2924
 3966TIP3   OH233532   3.194   1.121   3.282  0.0418 -0.8048 -0.5428
 3966TIP3    H133533   3.155   1.034   3.289  0.3325 -1.1091 -2.1737
 3966TIP3    H233534   3.125   1.181   3.311  0.0940 -1.5939  1.2992
 3967TIP3   OH233535   1.384   6.748   1.995  0.1138  0.9412  0.0450
 3967TIP3    H133536   1.463   6.787   2.034  0.6623  0.5948 -0.7025
 3967TIP3    H233537   1.358   6.681   2.058 -0.4205  2.0009  0.9910
 3968TIP3   OH233538   0.805   3.233   0.224  0.3382  0.0892  0.3131
 3968TIP3    H133539   0.882   3.251   0.279  0.6128  2.2896 -0.7000
 3968TIP3    H233540   0.731   3.265   0.275  0.2656 -0.4277  0.5439
 3969TIP3   OH233541   4.433   4.785   3.392  0.2214 -0.2573  0.2199
 3969TIP3    H133542   4.392   4.830   3.319  0.7866  0.2969  0.2368
 3969TIP3    H233543   4.523   4.818   3.393  0.6575 -1.4128  0.2123
 3970TIP3   OH233544   1.273   4.235   1.028 -0.3448  0.0332 -0.1280
 3970TIP3    H133545   1.332   4.187   0.970  0.2503  0.6660 -0.0582
 3970TIP3    H233546   1.185   4.211   0.998 -0.0649 -1.3507  0.1305
 3971TIP3   OH233547   3.195   1.145   3.738 -0.1209  0.5234  0.1958
 3971TIP3    H133548   3.287   1.145   3.709 -0.2682  0.6846 -0.2745
 3971TIP3    H233549   3.201   1.135   3.833  0.3299 -1.3315  0.0001
 3972TIP3   OH233550   5.602   1.986   8.683 -0.4807  0.4373  0.8598
 3972TIP3    H133551   5.666   1.960   8.749  0.9267  0.9876 -0.2531
 3972TIP3    H233552   5.565   1.903   8.652 -0.1887  0.1031  1.3784
 3973TIP3   OH233553   6.003   2.118   2.214 -0.2828 -0.3682 -0.5568
 3973TIP3    H133554   5.936   2.164   2.163  1.0983  0.6581 -1.5548
 3973TIP3    H233555   6.086   2.152   2.180  0.7550 -1.5201  0.6889
 3974TIP3   OH233556   2.078   5.901   8.485  0.0612  0.3944 -0.5137
 3974TIP3    H133557   2.161   5.943   8.506 -0.3590  0.0597  2.0783
 3974TIP3    H233558   2.090   5.810   8.509 -1.4151  0.5865  1.1488
 3975TIP3   OH233559   4.607   4.980   0.750  0.4644  0.3390 -0.3248
 3975TIP3    H133560   4.646   4.914   0.692  0.4577  1.4872 -1.6981
 3975TIP3    H233561   4.601   4.937   0.835  1.2403 -1.1358 -0.9801
 3976TIP3   OH233562   4.611   5.974   1.363  0.0088 -0.1934  0.3479
 3976TIP3    H133563   4.642   6.062   1.340  1.2659 -0.4559  0.9370
 3976TIP3    H233564   4.529   5.988   1.410  0.2395  0.6717  0.4979
 3977TIP3   OH233565   6.107   1.753   0.269 -0.2559 -0.1837 -0.8196
 3977TIP3    H133566   6.035   1.702   0.232 -0.4071 -1.4594  1.1370
 3977TIP3    H233567   6.081   1.770   0.359  1.3004  0.4890 -0.4714
 3978TIP3   OH233568   6.864   3.303   7.890 -0.1419  0.1161 -0.1900
 3978TIP3    H133569   6.783   3.341   7.923 -0.3015 -0.7019  0.3800
 3978TIP3    H233570   6.873   3.340   7.802 -0.4607  1.1967  0.2208
 3979TIP3   OH233571   2.953   4.477   0.020  0.3975 -0.4840  0.1245
 3979TIP3    H133572   3.004   4.547  -0.021  0.0688 -0.3232 -0.0120
 3979TIP3    H233573   2.994   4.396  -0.012  0.8095 -0.3565  0.3215
 3980TIP3   OH233574   3.152   5.766   2.417  0.3525 -0.1357  0.1737
 3980TIP3    H133575   3.241   5.774   2.381  0.2526 -0.4805 -0.1508
 3980TIP3    H233576   3.098   5.742   2.342  0.2958 -1.7582  0.7099
 3981TIP3   OH233577   3.281   0.960   8.700 -0.0716  0.1575 -0.1174
 3981TIP3    H133578   3.352   0.971   8.762 -1.1400  3.6719  0.6808
 3981TIP3    H233579   3.203   0.946   8.755 -0.6700  0.9453 -0.7474
 3982TIP3   OH233580   4.712   6.463   2.659 -0.9249 -0.3136 -0.4521
 3982TIP3    H133581   4.687   6.498   2.573  2.8664  1.1181 -1.2096
 3982TIP3    H233582   4.772   6.391   2.638 -0.8503 -0.7052  1.0238
 3983TIP3   OH233583   5.962   0.995   1.672  0.1870  0.1038 -0.0335
 3983TIP3    H133584   5.999   1.071   1.626  2.5251 -1.0689 -0.2524
 3983TIP3    H233585   5.871   1.018   1.686  0.2891  2.0822 -1.9680
 3984TIP3   OH233586   0.289   1.178   0.173  0.6657 -0.1985  0.4568
 3984TIP3    H133587   0.330   1.094   0.191  0.1770 -0.3632  0.8177
 3984TIP3    H233588   0.325   1.205   0.089  1.6844 -0.2351  0.8598
 3985TIP3   OH233589   5.811   3.849   7.924 -0.2422 -0.0406 -0.0525
 3985TIP3    H133590   5.837   3.774   7.871 -0.3427 -1.3129  1.6139
 3985TIP3    H233591   5.715   3.845   7.928 -0.4975  1.8596 -2.2415
 3986TIP3   OH233592   0.580   3.913   2.701  0.0725  0.0031  0.5087
 3986TIP3    H133593   0.582   3.852   2.628  0.7809  0.0183  0.5103
 3986TIP3    H233594   0.623   3.866   2.773 -0.1209  0.1954  0.7533
 3987TIP3   OH233595   3.214   2.408   0.682 -0.0674 -0.2124 -0.3219
 3987TIP3    H133596   3.220   2.344   0.611 -2.3518  0.9107 -1.6351
 3987TIP3    H233597   3.178   2.487   0.641  0.5164  1.1833  1.6856
 3988TIP3   OH233598   1.203   1.875   0.578 -0.3496 -0.2787 -0.2304
 3988TIP3    H133599   1.122   1.888   0.628 -0.0645  1.9712 -0.2584
 3988TIP3    H233600   1.226   1.783   0.593 -3.3684 -1.2508 -0.9838
 3989TIP3   OH233601   4.662   3.781   8.489 -0.0900  0.1311 -0.4048
 3989TIP3    H133602   4.658   3.868   8.448 -0.5516  0.6848  0.7897
 3989TIP3    H233603   4.652   3.720   8.415 -0.2253  1.0880 -1.2058
 3990TIP3   OH233604   6.270   0.014   3.248 -0.0570 -0.2761  0.4853
 3990TIP3    H133605   6.249   0.098   3.290 -0.5034 -0.0285 -0.2220
 3990TIP3    H233606   6.306  -0.039   3.319  0.8631  0.7358  0.8091
 3991TIP3   OH233607   1.636   6.492   2.260  0.1679 -0.3424 -0.2780
 3991TIP3    H133608   1.635   6.535   2.174 -0.6379 -1.2333 -0.7324
 3991TIP3    H233609   1.574   6.420   2.251 -0.3089 -0.1546  1.2151
 3992TIP3   OH233610   4.320   4.823   8.669 -0.3710  0.3887  0.5628
 3992TIP3    H133611   4.266   4.870   8.732  1.3008  1.4362  1.2934
 3992TIP3    H233612   4.396   4.793   8.719 -0.0607 -0.6742 -0.4942
 3993TIP3   OH233613   6.468   3.061   0.320 -0.0716  0.2875 -0.5571
 3993TIP3    H133614   6.519   3.035   0.243  0.0735  0.2511 -0.4485
 3993TIP3    H233615   6.523   3.126   0.364  1.4128 -2.1008  1.3847
 3994TIP3   OH233616   6.101   1.870   8.707 -0.2311  0.0124 -0.2207
 3994TIP3    H133617   6.148   1.855   8.789 -3.2154 -0.9055  1.4850
 3994TIP3    H233618   6.146   1.816   8.642  0.9187 -0.9466  1.3246
 3995TIP3   OH233619   0.730   3.213   2.453  0.1319 -0.4161 -0.0252
 3995TIP3    H133620   0.674   3.286   2.429 -0.6746 -1.3784 -1.1586
 3995TIP3    H233621   0.681   3.135   2.429  1.8196 -1.3122 -0.7887
 3996TIP3   OH233622   0.411   4.991   8.016 -0.5843  0.8175  0.1588
 3996TIP3    H133623   0.345   4.994   7.946 -0.9640  0.9398  0.5158
 3996TIP3    H233624   0.385   4.917   8.070 -0.7806  1.2348  0.6397
 3997TIP3   OH233625   3.544   2.812   3.923 -0.0212  0.3300  0.2505
 3997TIP3    H133626   3.573   2.891   3.968 -1.3545 -0.8112  3.4769
 3997TIP3    H233627   3.464   2.838   3.877 -0.0055  1.0498  0.6121
 3998TIP3   OH233628   1.632   4.125   1.809  0.3305  0.1074  0.8723
 3998TIP3    H133629   1.662   4.169   1.889  1.1375 -0.2485  0.7820
 3998TIP3    H233630   1.618   4.196   1.746  0.1437  0.3532  1.1895
 3999TIP3   OH233631   0.582   4.143   1.403  0.3460 -0.0511 -0.1076
 3999TIP3    H133632   0.622   4.141   1.489 -1.7248  0.9279  0.9655
 3999TIP3    H233633   0.653   4.163   1.343  1.6183  0.5504  1.5366
 4000TIP3   OH233634   2.854   3.015   2.356 -0.1106  0.1029  0.2022
 4000TIP3    H133635   2.827   2.949   2.420 -2.3393  0.0624 -0.6945
 4000TIP3    H233636   2.936   2.982   2.320  0.3772 -0.6470  1.9018
 4001TIP3   OH233637   0.662   3.633   8.115  0.4054 -1.0391 -0.2218
 4001TIP3    H133638   0.702   3.546   8.105  0.4684 -1.1650  0.9834
 4001TIP3    H233639   0.624   3.632   8.203  2.3874  0.9531  0.7361
 4002TIP3   OH233640   6.367   0.221   3.783  0.4882  0.0889  0.0427
 4002TIP3    H133641   6.414   0.152   3.737  0.8972  1.8819 -2.4764
 4002TIP3    H233642   6.422   0.299   3.770 -1.3087  1.4630  0.3430
 4003TIP3   OH233643   0.479   1.659   8.627 -0.1816  0.6958 -0.5464
 4003TIP3    H133644   0.557   1.621   8.585 -0.2313 -0.2519  0.1807
 4003TIP3    H233645   0.491   1.754   8.619  0.7361  0.5535 -0.9982
 4004TIP3   OH233646   4.796   5.940   3.132 -0.5013 -0.2798  0.6525
 4004TIP3    H133647   4.788   5.933   3.037  0.7627  0.3699  0.4740
 4004TIP3    H233648   4.735   6.009   3.157  0.1943  0.5610  0.1061
 4005TIP3   OH233649   2.968   0.387   3.643  0.1248 -0.1355 -0.6742
 4005TIP3    H133650   3.059   0.356   3.644 -0.1237 -0.9249  1.1123
 4005TIP3    H233651   2.933   0.356   3.560  0.4132 -3.2580  0.2486
 4006TIP3   OH233652   6.694   3.739   1.484  0.0228 -0.1209  0.1922
 4006TIP3    H133653   6.716   3.784   1.403  1.2539 -0.2009  0.4558
 4006TIP3    H233654   6.778   3.731   1.530 -0.3223 -1.7778  0.6047
 4007TIP3   OH233655   6.228   4.605   1.749 -0.0733  0.2988 -0.0178
 4007TIP3    H133656   6.142   4.596   1.790 -0.3240 -2.2343 -0.9329
 4007TIP3    H233657   6.285   4.634   1.820 -1.3779  0.6394  0.9415
 4008TIP3   OH233658   5.907   1.603   3.025  0.4828 -1.0723  0.1826
 4008TIP3    H133659   5.888   1.547   2.951 -1.3010 -1.3282  0.7748
 4008TIP3    H233660   5.870   1.557   3.101  0.7934 -0.0632  0.9836
 4009TIP3   OH233661   2.202   5.282   1.105  0.4467 -0.0906  0.5395
 4009TIP3    H133662   2.245   5.226   1.170  2.4847  0.3846 -0.3281
 4009TIP3    H233663   2.111   5.250   1.102  0.7867 -1.3526  2.2201
 4010TIP3   OH233664   0.434   5.128   3.552  0.1937  0.9348  0.2224
 4010TIP3    H133665   0.411   5.078   3.630  1.6788  0.3195  0.2920
 4010TIP3    H233666   0.494   5.195   3.582  1.1119  0.4316 -0.4345
 4011TIP3   OH233667   3.714   3.649   1.018 -0.1524 -0.1129 -0.0637
 4011TIP3    H133668   3.745   3.569   1.061  1.2405  0.7120  0.5609
 4011TIP3    H233669   3.770   3.718   1.054 -0.7525  1.0174 -1.2189
 4012TIP3   OH233670   6.633   1.555   3.066 -0.8949  0.1679  0.0675
 4012TIP3    H133671   6.549   1.511   3.082  0.4891 -2.8462 -0.2158
 4012TIP3    H233672   6.627   1.587   2.976 -2.0360  0.7989  0.3514
 4013TIP3   OH233673   4.735   1.851   1.262  0.3301 -0.4607  0.2557
 4013TIP3    H133674   4.705   1.767   1.296  0.4764 -0.4643  0.3762
 4013TIP3    H233675   4.760   1.901   1.339  0.8706 -0.5494  0.1411
 4014TIP3   OH233676   2.294   1.463   1.312 -0.1755 -0.9992  0.2596
 4014TIP3    H133677   2.369   1.507   1.351  0.0611 -1.4350  0.3007
 4014TIP3    H233678   2.258   1.527   1.251 -0.2198 -0.5113  0.7869
 4015TIP3   OH233679   5.499   1.286   2.958  0.0143 -0.0620 -0.2629
 4015TIP3    H133680   5.541   1.241   3.031  2.1293  0.4029 -1.1171
 4015TIP3    H233681   5.469   1.216   2.901  0.2513 -0.4064  0.0277
 4016TIP3   OH233682   4.429   5.537   3.213 -0.1648  0.4937 -0.1979
 4016TIP3    H133683   4.522   5.560   3.213 -0.0603  0.0942  0.5246
 4016TIP3    H233684   4.418   5.481   3.290 -1.3749  2.0382  0.7958
 4017TIP3   OH233685   1.576   1.946   3.792  0.4998 -0.1497 -0.1236
 4017TIP3    H133686   1.528   1.907   3.866  3.2213  1.4607  2.7681
 4017TIP3    H233687   1.515   2.010   3.755 -0.3738  0.4317  2.1080
 4018TIP3   OH233688   0.234   1.954   2.366  0.8748  0.2291 -0.4123
 4018TIP3    H133689   0.244   2.038   2.321  0.3863 -0.0571 -1.0617
 4018TIP3    H233690   0.203   1.894   2.299 -0.0975 -0.1462  0.3570
 4019TIP3   OH233691   0.994   4.914   1.544  0.3304 -0.3483 -0.1364
 4019TIP3    H133692   1.002   4.979   1.474  2.1358 -0.3968 -0.0343
 4019TIP3    H233693   0.958   4.964   1.618  1.1258  0.4173 -0.2417
 4020TIP3   OH233694   2.848   1.291   1.097  0.6600  0.2093  0.0945
 4020TIP3    H133695   2.757   1.265   1.079 -0.0650  2.5726  0.0130
 4020TIP3    H233696   2.840   1.371   1.149  2.7262 -0.5024  1.6163
 4021TIP3   OH233697   5.171   1.617   2.669 -0.7813  0.0598  0.2249
 4021TIP3    H133698   5.114   1.668   2.727 -3.5757 -1.1992 -1.2482
 4021TIP3    H233699   5.213   1.554   2.727 -2.1197  0.0009  1.1767
 4022TIP3   OH233700   0.722   2.006   3.149  0.1083 -0.5913 -0.2909
 4022TIP3    H133701   0.660   1.933   3.156 -1.2381  0.5510  0.1671
 4022TIP3    H233702   0.668   2.081   3.126  1.1879  0.6654  1.0817
 4023TIP3   OH233703   2.143   0.641   1.968  0.9800 -0.3548 -0.3192
 4023TIP3    H133704   2.202   0.574   2.003  0.9680  0.2752  0.9956
 4023TIP3    H233705   2.123   0.696   2.044 -0.6753 -0.0968 -0.9181
 4024TIP3   OH233706   3.954   1.109   1.201  0.0817 -0.1719 -0.0675
 4024TIP3    H133707   3.946   1.028   1.251 -1.1499 -0.0133  0.0343
 4024TIP3    H233708   3.975   1.081   1.112  1.3228 -0.5024  0.3155
 4025TIP3   OH233709   4.923   1.853   8.246 -0.2147 -0.2567  0.1396
 4025TIP3    H133710   4.929   1.758   8.256 -1.2593 -0.7779 -3.0665
 4025TIP3    H233711   5.008   1.879   8.211 -0.3829 -0.2408 -0.2643
 4026TIP3   OH233712   3.726   2.404   0.361  0.2487  0.2824  0.3928
 4026TIP3    H133713   3.797   2.439   0.307 -1.7418 -0.5765 -3.1460
 4026TIP3    H233714   3.742   2.310   0.363 -0.6425  0.0951 -0.3374
 4027TIP3   OH233715   4.423   5.722   1.838 -0.6407 -1.0346 -0.0765
 4027TIP3    H133716   4.444   5.789   1.903  1.2730 -0.5362 -1.1290
 4027TIP3    H233717   4.341   5.751   1.799 -1.4143 -0.9324  1.5289
 4028TIP3   OH233718   2.951   2.539   2.922  0.6176 -0.6804 -0.1314
 4028TIP3    H133719   2.937   2.546   2.827 -0.7059  0.3279  0.1037
 4028TIP3    H233720   2.871   2.499   2.955  1.1436 -1.1904  0.5613
 4029TIP3   OH233721   6.227   3.800   2.756 -0.4688 -0.2446 -0.3134
 4029TIP3    H133722   6.278   3.853   2.818 -0.8106 -0.4003  0.1033
 4029TIP3    H233723   6.293   3.747   2.710 -0.1638  0.2583 -0.4599
 4030TIP3   OH233724   0.262   4.414   2.326  0.9162  0.4003 -0.0951
 4030TIP3    H133725   0.272   4.319   2.332 -1.0232  0.0231 -1.7466
 4030TIP3    H233726   0.351   4.449   2.337  1.7054 -1.6067  0.2073
 4031TIP3   OH233727   2.470   2.614   4.132 -0.5666 -0.0725  0.5562
 4031TIP3    H133728   2.527   2.542   4.158  0.0789 -0.1197 -0.9163
 4031TIP3    H233729   2.512   2.652   4.055 -0.6518  2.1855  1.5463
 4032TIP3   OH233730   5.783   1.768   0.595  0.1269 -0.0128 -0.3403
 4032TIP3    H133731   5.806   1.710   0.522  1.2262  0.9420 -0.7841
 4032TIP3    H233732   5.842   1.740   0.666  0.5760  0.4565 -0.5183
 4033TIP3   OH233733   0.848   2.673   0.072  0.3111  0.3181 -0.0220
 4033TIP3    H133734   0.833   2.758   0.112 -0.4269  0.8141 -1.2782
 4033TIP3    H233735   0.895   2.693  -0.010 -1.9035 -0.2017 -1.5066
 4034TIP3   OH233736   6.562   0.212   3.510  0.0800  0.1938  0.5716
 4034TIP3    H133737   6.593   0.174   3.592 -3.1616 -0.7396  1.5245
 4034TIP3    H233738   6.575   0.143   3.445  2.4443  0.8520  0.2717
 4035TIP3   OH233739   1.331   0.015   0.935  0.1206  0.0821  0.0045
 4035TIP3    H133740   1.363  -0.017   1.020 -0.1937 -1.5178 -0.4426
 4035TIP3    H233741   1.327   0.110   0.945 -0.6581 -0.1136  2.0617
 4036TIP3   OH233742   3.444   0.245   8.251 -0.0097 -0.5244 -0.2067
 4036TIP3    H133743   3.529   0.288   8.244  0.4959 -1.5954 -0.7040
 4036TIP3    H233744   3.383   0.305   8.208 -0.2285  2.0812  3.3175
 4037TIP3   OH233745   6.300   6.103   1.650 -0.1943  0.2859  0.2404
 4037TIP3    H133746   6.283   6.098   1.556 -1.1285  0.9454  0.3581
 4037TIP3    H233747   6.350   6.183   1.662  0.6642 -0.2299  0.2245
 4038TIP3   OH233748   4.198   6.413   2.501 -0.0844  0.0051  0.2809
 4038TIP3    H133749   4.191   6.505   2.529  0.0207 -0.1539  0.8384
 4038TIP3    H233750   4.291   6.402   2.480 -0.2030  0.1853 -0.3574
 4039TIP3   OH233751   2.862   3.038   8.426  0.8534 -0.3260 -0.4634
 4039TIP3    H133752   2.807   3.051   8.502  1.6613 -0.9805  0.2611
 4039TIP3    H233753   2.950   3.062   8.455  1.4070 -1.8580 -0.7451
 4040TIP3   OH233754   3.089   4.031   3.184  0.6088  0.3646  0.0168
 4040TIP3    H133755   3.148   3.968   3.225 -0.3097  0.8406  2.2326
 4040TIP3    H233756   3.124   4.116   3.209  0.6919  0.7129 -1.2330
 4041TIP3   OH233757   0.801   6.576   0.740 -0.6693 -0.2471  0.3420
 4041TIP3    H133758   0.709   6.552   0.745 -0.5373 -0.8483  0.0200
 4041TIP3    H233759   0.846   6.515   0.798 -0.5568  0.5611  1.1312
 4042TIP3   OH233760   0.358   1.853   1.226 -0.1607  0.2847 -0.1482
 4042TIP3    H133761   0.373   1.781   1.288  0.1581  0.0361 -0.5074
 4042TIP3    H233762   0.264   1.850   1.208 -0.0784 -0.3258 -0.4972
 4043TIP3   OH233763   6.032   5.867   2.521  0.6613 -0.1788  0.3882
 4043TIP3    H133764   6.098   5.835   2.583  1.9106 -1.8774 -1.6939
 4043TIP3    H233765   6.010   5.790   2.468 -3.2447  0.2447  1.0977
 4044TIP3   OH233766   3.178   0.526   1.830  0.3688 -0.3679 -0.3469
 4044TIP3    H133767   3.131   0.450   1.864 -1.6410  0.3085 -1.4089
 4044TIP3    H233768   3.152   0.599   1.886  0.1378  0.0157 -0.9338
 4045TIP3   OH233769   1.577   3.688   1.555  0.1525 -0.5758  0.0752
 4045TIP3    H133770   1.525   3.634   1.495  0.2560  1.5428 -2.0728
 4045TIP3    H233771   1.554   3.778   1.531  4.2332  0.4825 -0.5640
 4046TIP3   OH233772   2.857   2.708   1.772 -0.1735 -0.8136  0.0956
 4046TIP3    H133773   2.876   2.770   1.702 -0.6052 -0.8604 -0.0681
 4046TIP3    H233774   2.769   2.731   1.801  0.7515  0.5346  2.0326
 4047TIP3   OH233775   6.072   6.573   2.138 -0.1615  0.2907 -0.6820
 4047TIP3    H133776   6.049   6.647   2.195  0.4297 -0.9868  1.3458
 4047TIP3    H233777   6.168   6.574   2.136 -0.1590  1.5013 -3.4015
 4048TIP3   OH233778   5.291   3.538   1.728  0.8587 -0.2736  0.1987
 4048TIP3    H133779   5.349   3.530   1.652 -0.5079  2.4053 -1.2476
 4048TIP3    H233780   5.351   3.554   1.802  2.2610 -3.5422 -0.0555
 4049TIP3   OH233781   6.151   0.453   3.512 -0.0178 -0.8059  0.1665
 4049TIP3    H133782   6.152   0.437   3.606 -0.0491 -0.6459  0.1945
 4049TIP3    H233783   6.102   0.535   3.502  0.2673 -0.6465  0.0408
 4050TIP3   OH233784   6.609   0.037   0.965  0.2222  0.1392 -0.2385
 4050TIP3    H133785   6.552   0.077   1.032 -1.4230 -0.2745 -1.3421
 4050TIP3    H233786   6.567  -0.046   0.944  1.1692 -0.1146 -1.1954
 4051TIP3   OH233787   2.047   3.835   1.552  0.2019  0.1152  0.0318
 4051TIP3    H133788   1.999   3.753   1.564  3.9444 -1.9484  2.9532
 4051TIP3    H233789   2.012   3.893   1.619  0.0262 -0.4686  0.4561
 4052TIP3   OH233790   6.263   1.493   3.386  0.0489  0.3936  0.1753
 4052TIP3    H133791   6.288   1.481   3.295  1.1594 -1.5805  0.6801
 4052TIP3    H233792   6.344   1.517   3.431 -0.5944  1.8954  0.5734
 4053TIP3   OH233793   4.236   2.709   2.725  0.2589 -0.5075 -0.0214
 4053TIP3    H133794   4.227   2.784   2.666 -1.1993 -1.2072 -0.7414
 4053TIP3    H233795   4.146   2.683   2.744  0.7302 -2.6435 -0.5081
 4054TIP3   OH233796   5.654   3.573   3.321 -0.4346  0.0468 -0.0126
 4054TIP3    H133797   5.698   3.491   3.342  0.9938  0.6677 -0.4362
 4054TIP3    H233798   5.725   3.638   3.319 -1.6395  1.4843  1.2489
 4055TIP3   OH233799   4.596   3.810   3.141 -0.1080  0.1372 -0.3761
 4055TIP3    H133800   4.552   3.725   3.137 -2.4269  1.2932 -2.0402
 4055TIP3    H233801   4.644   3.817   3.058  1.5432 -0.2379  0.5196
 4056TIP3   OH233802   0.868   1.246   1.054  0.1249  0.8103  0.3114
 4056TIP3    H133803   0.827   1.169   1.015  0.3468  0.8403  0.0139
 4056TIP3    H233804   0.959   1.219   1.070  0.0898  0.8685  0.6081
 4057TIP3   OH233805   2.329   0.399   1.202 -0.6981  0.0853  0.1546
 4057TIP3    H133806   2.422   0.408   1.221 -0.8788  0.6348  0.8413
 4057TIP3    H233807   2.294   0.350   1.277 -1.3669  2.0031  1.1704
 4058TIP3   OH233808   2.218   0.811   8.105 -0.5986  0.2223 -0.1003
 4058TIP3    H133809   2.148   0.876   8.108  0.1324  1.0342 -0.1333
 4058TIP3    H233810   2.287   0.853   8.053  0.9825  0.5477  2.1121
 4059TIP3   OH233811   6.580   5.269   1.517  0.4133  0.2591  1.0977
 4059TIP3    H133812   6.604   5.359   1.497  1.3304 -0.6833 -3.0021
 4059TIP3    H233813   6.648   5.216   1.476 -0.6100 -2.3436  2.5111
 4060TIP3   OH233814   4.220   5.126   1.310 -0.6256 -0.0570  0.4253
 4060TIP3    H133815   4.158   5.192   1.340 -0.1810  0.5242  0.0628
 4060TIP3    H233816   4.304   5.153   1.347 -0.3943 -0.2766  0.0624
 4061TIP3   OH233817   2.778   0.950   0.726 -0.6756 -0.3616  0.1213
 4061TIP3    H133818   2.832   0.944   0.647  0.2096  1.7962  0.5073
 4061TIP3    H233819   2.720   1.025   0.710 -1.5834 -0.8744  0.9070
 4062TIP3   OH233820   4.851   1.522   0.369  0.3250 -0.4928 -0.1689
 4062TIP3    H133821   4.796   1.444   0.363  0.8420 -0.7983 -1.0961
 4062TIP3    H233822   4.923   1.506   0.309  0.9690  0.2834  0.3770
 4063TIP3   OH233823   4.815   6.215   8.610 -0.0746  0.4985 -0.0118
 4063TIP3    H133824   4.784   6.287   8.555 -1.3091  1.1051  1.4004
 4063TIP3    H233825   4.898   6.246   8.646  0.1683  0.5738 -0.6424
 4064TIP3   OH233826   5.890   6.339   1.297 -0.0951 -0.3516 -0.2089
 4064TIP3    H133827   5.867   6.413   1.240  0.1551 -0.9944 -1.1633
 4064TIP3    H233828   5.809   6.318   1.344 -0.0883  0.7269  0.3194
 4065TIP3   OH233829   5.500   2.609   2.029 -0.9489 -0.2916 -0.2900
 4065TIP3    H133830   5.479   2.634   2.119 -0.5102 -0.7064 -0.0689
 4065TIP3    H233831   5.559   2.678   1.998  0.6404 -1.2447  0.4771
 4066TIP3   OH233832   6.828   5.498   2.982 -0.0460  0.6449 -0.1164
 4066TIP3    H133833   6.741   5.463   3.002 -0.4433  2.0628  0.7527
 4066TIP3    H233834   6.888   5.429   3.010 -0.8719 -0.1929 -0.3566
 4067TIP3   OH233835   6.547   1.633   3.356 -0.0176 -0.3206  0.3070
 4067TIP3    H133836   6.612   1.688   3.399  0.7732 -0.6518 -0.4478
 4067TIP3    H233837   6.593   1.594   3.282 -0.9767 -0.8399 -0.0345
 4068TIP3   OH233838   0.317   2.087   1.696  0.0184 -0.0236  0.2435
 4068TIP3    H133839   0.259   2.021   1.659  1.4267 -1.1257 -0.0728
 4068TIP3    H233840   0.369   2.041   1.761  0.4018  0.9764  0.6755
 4069TIP3   OH233841   4.561   3.205   1.916  0.0528 -0.0278 -0.0082
 4069TIP3    H133842   4.590   3.290   1.950 -1.2139  0.6175 -0.4910
 4069TIP3    H233843   4.555   3.217   1.821  1.1622 -1.0851 -0.2506
 4070TIP3   OH233844   5.234   2.806   0.967 -0.3092 -0.3186 -0.3642
 4070TIP3    H133845   5.201   2.816   0.877  0.0341 -0.5629 -0.5196
 4070TIP3    H233846   5.189   2.875   1.016 -0.7815 -0.4197 -0.6428
 4071TIP3   OH233847   3.248   2.748   0.377  0.3958 -0.8140  0.1353
 4071TIP3    H133848   3.213   2.745   0.288  0.8644 -2.5754 -0.0233
 4071TIP3    H233849   3.319   2.812   0.373  0.4056 -0.8707 -0.7640
 4072TIP3   OH233850   3.040   1.790   1.250  0.2324  0.2816 -0.1793
 4072TIP3    H133851   3.005   1.838   1.325 -0.6150  0.4182 -0.6471
 4072TIP3    H233852   2.967   1.735   1.221  0.6817 -0.0815 -0.6490
 4073TIP3   OH233853   1.633   2.702   3.526  0.2099 -0.0824  0.5489
 4073TIP3    H133854   1.559   2.646   3.503 -0.8468  1.1724  0.7977
 4073TIP3    H233855   1.688   2.702   3.447 -0.2531 -0.6828  0.2152
 4074TIP3   OH233856   3.127   2.022   2.750 -0.1480  0.3820  0.5785
 4074TIP3    H133857   3.172   2.045   2.669 -0.6044  0.9725  0.4775
 4074TIP3    H233858   3.123   1.927   2.750  1.7356  0.2802  0.9531
 4075TIP3   OH233859   6.120   1.954   1.805  0.0835 -0.3218  0.1689
 4075TIP3    H133860   6.087   2.032   1.850  1.2832 -0.3553  1.1490
 4075TIP3    H233861   6.176   1.911   1.869 -1.0830 -2.3864 -0.1375
 4076TIP3   OH233862   0.447   5.558   1.269  0.2361  0.1025  0.8773
 4076TIP3    H133863   0.478   5.488   1.326  1.0827  1.0048  1.5768
 4076TIP3    H233864   0.518   5.573   1.208  0.4559  0.9424  1.3129
 4077TIP3   OH233865   4.656   4.436   2.247 -0.5098 -0.4327  0.2582
 4077TIP3    H133866   4.614   4.474   2.324 -1.5129 -0.6220 -0.1871
 4077TIP3    H233867   4.584   4.414   2.188  0.2565  0.1585 -0.9514
 4078TIP3   OH233868   4.554   0.521   3.843  0.5621 -0.2616  0.3841
 4078TIP3    H133869   4.494   0.451   3.821  0.1763 -0.2958  1.4785
 4078TIP3    H233870   4.633   0.477   3.872  0.7782 -0.2241 -0.1350
 4079TIP3   OH233871   0.595   6.400   2.266 -0.7246  0.0354 -0.5900
 4079TIP3    H133872   0.652   6.354   2.327 -1.0879 -0.7791 -0.8522
 4079TIP3    H233873   0.606   6.354   2.183 -1.4760  0.0987 -0.7346
 4080TIP3   OH233874   3.334   0.075   0.596 -0.4140 -0.5410  0.2774
 4080TIP3    H133875   3.273   0.104   0.664 -1.7952 -1.5817 -0.4852
 4080TIP3    H233876   3.279   0.060   0.519  1.2434  1.7550 -1.5026
 4081TIP3   OH233877   4.104   0.437   2.807 -0.4149  0.7984  0.2099
 4081TIP3    H133878   4.160   0.366   2.776  0.5483  0.6497  2.1743
 4081TIP3    H233879   4.024   0.429   2.754 -0.0927 -1.3745 -0.0310
 4082TIP3   OH233880   0.123   6.139   1.057  0.2533 -0.4997 -0.4446
 4082TIP3    H133881   0.146   6.130   0.964  0.0037 -0.9789 -0.4667
 4082TIP3    H233882   0.120   6.233   1.072 -0.5876 -0.3948 -1.1533
 4083TIP3   OH233883   1.834   6.405   0.949 -0.0688 -0.5762  0.0267
 4083TIP3    H133884   1.858   6.456   1.026 -1.9341  0.0468  0.2287
 4083TIP3    H233885   1.878   6.449   0.876  2.0740 -1.4242  0.7162
 4084TIP3   OH233886   4.316   6.813   3.477  0.2079 -0.2532 -0.0361
 4084TIP3    H133887   4.390   6.865   3.446  0.2738  0.1133  0.7076
 4084TIP3    H233888   4.304   6.840   3.568 -0.9842 -0.1390 -0.2039
 4085TIP3   OH233889   3.555   3.844   1.592 -0.1331 -0.1372  0.6222
 4085TIP3    H133890   3.477   3.802   1.626 -1.1919  1.0799 -0.1668
 4085TIP3    H233891   3.568   3.920   1.649  1.2550 -1.0337  1.5313
 4086TIP3   OH233892   3.062   5.002   3.250  0.5549  0.4943  0.5161
 4086TIP3    H133893   3.028   5.075   3.198  1.2731  1.3899  1.2676
 4086TIP3    H233894   3.131   4.964   3.196  0.2691  0.4525  0.1776
 4087TIP3   OH233895   0.518   3.822   7.961  0.0627 -0.0844  0.0973
 4087TIP3    H133896   0.562   3.751   8.006 -1.9122  0.0418  2.4416
 4087TIP3    H233897   0.465   3.779   7.894 -0.3926 -0.7440  0.8706
 4088TIP3   OH233898   3.389   0.361   0.515 -0.4688 -0.7082  0.4607
 4088TIP3    H133899   3.300   0.395   0.525 -0.3531 -0.3372  0.2351
 4088TIP3    H233900   3.388   0.278   0.563 -0.8135 -0.4956  0.8341
 4089TIP3   OH233901   3.705   4.463   0.611 -0.2949  0.6137  0.4145
 4089TIP3    H133902   3.774   4.503   0.664 -0.2005  0.6036  0.2997
 4089TIP3    H233903   3.709   4.510   0.527  1.2455 -1.0660 -0.5109
 4090TIP3   OH233904   1.461   1.309   0.746 -0.0245  0.2075 -0.0153
 4090TIP3    H133905   1.380   1.281   0.791  0.6111  0.0866  1.0980
 4090TIP3    H233906   1.476   1.242   0.680 -1.0582  0.4582 -0.5403
 4091TIP3   OH233907   2.517   1.336   1.138 -0.0563  0.2174  0.0303
 4091TIP3    H133908   2.424   1.326   1.162 -0.1119  0.2305 -0.1812
 4091TIP3    H233909   2.564   1.312   1.218 -0.2379  0.0802  0.0979
 4092TIP3   OH233910   2.753   1.275   2.348 -0.2781 -0.2930 -0.3190
 4092TIP3    H133911   2.730   1.354   2.397 -0.2438 -0.3964 -0.1371
 4092TIP3    H233912   2.697   1.207   2.385  1.1438 -0.8217  0.9577
 4093TIP3   OH233913   6.876   3.053   1.725 -0.1017  0.1337 -0.2717
 4093TIP3    H133914   6.893   2.976   1.779 -1.5620 -0.7642 -1.0260
 4093TIP3    H233915   6.798   3.030   1.675  0.7551  1.2421 -2.1975
 4094TIP3   OH233916   1.678   2.074   1.956  0.2974 -0.1140 -0.3762
 4094TIP3    H133917   1.687   1.982   1.983 -1.5452  0.0749  1.1175
 4094TIP3    H233918   1.620   2.112   2.021 -0.3485  1.7132 -1.9352
 4095TIP3   OH233919   0.175   2.290   1.577  0.2677 -0.3758 -0.0015
 4095TIP3    H133920   0.188   2.284   1.482  2.3157 -0.9704  0.2557
 4095TIP3    H233921   0.242   2.232   1.613 -1.1141 -0.9326  1.8020
 4096TIP3   OH233922   2.127   3.315   3.153  0.2685 -0.1039  0.0256
 4096TIP3    H133923   2.054   3.364   3.115  0.7263 -0.2702 -1.1117
 4096TIP3    H233924   2.134   3.348   3.243  0.4229  1.7906 -0.6409
 4097TIP3   OH233925   1.335   1.157   8.557 -0.2713  0.3280  0.0267
 4097TIP3    H133926   1.380   1.099   8.496  1.8156  0.7260  1.0779
 4097TIP3    H233927   1.267   1.102   8.597  0.1085 -0.6968 -0.7006
 4098TIP3   OH233928   1.492   6.254   2.226  0.0015 -0.5161  0.1965
 4098TIP3    H133929   1.443   6.255   2.144  0.3145  1.5102 -0.0174
 4098TIP3    H233930   1.511   6.162   2.242 -1.7157 -1.1220 -1.0012
 4099TIP3   OH233931   2.774   2.409   1.560  0.0394 -0.2482 -0.4388
 4099TIP3    H133932   2.821   2.404   1.643 -0.8049 -0.8705  0.0145
 4099TIP3    H233933   2.686   2.436   1.583  0.3615  1.7752 -1.3716
 4100TIP3   OH233934   1.745   1.379   4.091  0.3402 -0.2522  0.4688
 4100TIP3    H133935   1.786   1.301   4.053  2.2815  0.8197  0.2840
 4100TIP3    H233936   1.817   1.430   4.126 -1.0286  0.7851  1.9468
 4101TIP3   OH233937   1.515   3.675   1.868 -0.5654 -0.0755  0.4823
 4101TIP3    H133938   1.520   3.583   1.844 -1.2924  0.0952 -0.4094
 4101TIP3    H233939   1.471   3.716   1.794 -3.7044  0.3608  2.3649
 4102TIP3   OH233940   3.183   4.446   0.327  0.3063  0.0853  0.1108
 4102TIP3    H133941   3.196   4.354   0.304  2.0687 -0.1905  1.8940
 4102TIP3    H233942   3.228   4.495   0.258  0.5598 -0.4610 -0.1164
 4103TIP3   OH233943   4.802   0.531   3.209 -0.7925 -0.2070  0.1348
 4103TIP3    H133944   4.889   0.513   3.244 -1.2983  0.4382  1.8295
 4103TIP3    H233945   4.762   0.444   3.198 -1.2631 -0.4501  3.0106
 4104TIP3   OH233946   6.440   1.641   0.936  0.4811  0.5019  0.2183
 4104TIP3    H133947   6.532   1.636   0.911  0.2948  0.6142 -0.5129
 4104TIP3    H233948   6.423   1.558   0.981  0.9798  0.5543  0.5113
 4105TIP3   OH233949   6.633   6.624   3.167  0.2231 -0.5651 -0.0214
 4105TIP3    H133950   6.600   6.535   3.172 -0.4027 -0.3355 -0.0297
 4105TIP3    H233951   6.687   6.634   3.246  0.4968 -1.0315 -0.1510
 4106TIP3   OH233952   4.321   0.266   2.516 -0.1737 -0.0683  0.2574
 4106TIP3    H133953   4.395   0.215   2.484 -0.9672 -3.0443  2.7128
 4106TIP3    H233954   4.313   0.339   2.454  2.9474 -1.2183 -1.7179
 4107TIP3   OH233955   0.415   0.650   2.604 -0.2584 -0.0262  0.1357
 4107TIP3    H133956   0.503   0.613   2.598  0.0036  0.7123 -1.1638
 4107TIP3    H233957   0.401   0.690   2.518 -1.2055  1.3124  0.8800
 4108TIP3   OH233958   5.508   5.813   1.405  0.1210 -0.2940  0.3701
 4108TIP3    H133959   5.509   5.898   1.362  1.8727 -0.9690 -1.0309
 4108TIP3    H233960   5.583   5.815   1.464 -0.4992 -0.4850  1.1895
 4109TIP3   OH233961   3.469   1.226   8.417  0.4711  0.2774 -0.4430
 4109TIP3    H133962   3.413   1.225   8.495 -0.3316 -0.9414 -1.0072
 4109TIP3    H233963   3.472   1.134   8.389  0.3043  0.7634 -2.1538
 4110TIP3   OH233964   0.324   0.201   0.109 -0.1861  0.5740 -0.1625
 4110TIP3    H133965   0.230   0.212   0.124  0.0724  2.6877  0.1108
 4110TIP3    H233966   0.358   0.167   0.192 -0.6527  0.0686 -0.1710
 4111TIP3   OH233967   5.263   2.412   3.343  0.2922  0.0449  0.2390
 4111TIP3    H133968   5.358   2.419   3.346  0.6361 -2.1607 -2.1904
 4111TIP3    H233969   5.237   2.466   3.268 -0.1431 -0.8875 -0.2923
 4112TIP3   OH233970   3.020   0.920   1.578 -0.9291 -0.1499 -0.3793
 4112TIP3    H133971   3.074   0.978   1.631 -1.6651  0.1092  0.0892
 4112TIP3    H233972   3.041   0.832   1.610 -1.4778  0.0129  0.4573
 4113TIP3   OH233973   6.608   6.190   3.452 -0.2336  0.2691  0.4981
 4113TIP3    H133974   6.681   6.169   3.394  0.2094  1.7386  0.4889
 4113TIP3    H233975   6.640   6.168   3.540 -0.1182  0.0702  0.4070
 4114TIP3   OH233976   0.336   3.772   2.465 -0.1379 -0.0799  0.6514
 4114TIP3    H133977   0.428   3.795   2.454 -0.5261  1.1197 -0.2855
 4114TIP3    H233978   0.332   3.728   2.550  1.2963 -0.1629  0.6931
 4115TIP3   OH233979   5.060   1.717   0.879 -0.1179  0.2700 -0.6559
 4115TIP3    H133980   5.038   1.720   0.972  0.6144  0.4198 -0.4836
 4115TIP3    H233981   5.083   1.807   0.856 -1.1513  0.4156 -1.2058
 4116TIP3   OH233982   6.635   3.837   3.278  0.0727  0.5906  0.1930
 4116TIP3    H133983   6.688   3.810   3.204  0.5339 -1.7379  1.2993
 4116TIP3    H233984   6.686   3.814   3.355 -1.2043  1.2148  1.2769
 4117TIP3   OH233985   4.391   1.978   1.226  0.2955 -0.1149  0.2588
 4117TIP3    H133986   4.360   1.902   1.176 -0.8010 -1.2024  2.4738
 4117TIP3    H233987   4.313   2.033   1.235  1.0254  1.2109 -1.1122
 4118TIP3   OH233988   6.715   0.979   2.409  0.1846  0.3745 -0.1293
 4118TIP3    H133989   6.672   1.044   2.465  0.4320 -0.0187  0.5346
 4118TIP3    H233990   6.768   0.926   2.470 -0.5072 -0.8495 -0.5462
 4119TIP3   OH233991   4.708   1.286   0.964 -0.4813  0.4070  0.7735
 4119TIP3    H133992   4.755   1.283   1.048 -0.6175  2.1387  0.9446
 4119TIP3    H233993   4.617   1.299   0.989 -0.7637 -0.7474  0.3798
 4120TIP3   OH233994   3.335   3.106   1.514  0.0281 -0.1389  0.4027
 4120TIP3    H133995   3.407   3.160   1.480 -0.1906 -0.5951 -0.8385
 4120TIP3    H233996   3.263   3.122   1.453 -0.0037 -1.9013 -0.0704
 4121TIP3   OH233997   2.778   4.218   2.310  0.3094  0.2478  0.1883
 4121TIP3    H133998   2.846   4.278   2.341  0.3696 -0.4003  1.3634
 4121TIP3    H233999   2.698   4.247   2.353  0.3175 -0.4407  0.6801
 4122TIP3   OH234000   0.164   6.560   3.152  0.3974 -0.4797 -0.5405
 4122TIP3    H134001   0.236   6.512   3.110  0.0900 -0.9043 -0.5850
 4122TIP3    H234002   0.208   6.624   3.209  0.8138 -0.4392 -0.8960
 4123TIP3   OH234003   4.326   2.988   8.368  0.5007 -0.4554 -0.5685
 4123TIP3    H134004   4.320   2.976   8.273  0.8360 -1.2889 -0.4903
 4123TIP3    H234005   4.300   2.904   8.404  0.2706 -0.1088  0.0896
 4124TIP3   OH234006   3.411   3.316   3.152  0.0695  0.6015 -0.3683
 4124TIP3    H134007   3.396   3.368   3.073 -0.1466  1.8093  0.4265
 4124TIP3    H234008   3.352   3.242   3.144 -0.8105  1.3245 -0.8019
 4125TIP3   OH234009   4.267   0.644   1.977  0.2680 -0.6000  0.4052
 4125TIP3    H134010   4.293   0.734   1.993 -1.4167 -0.2752  1.6755
 4125TIP3    H234011   4.256   0.638   1.882  0.1392  0.6190  0.3278
 4126TIP3   OH234012   1.168   3.474   1.975  0.2146 -0.1365  0.4683
 4126TIP3    H134013   1.227   3.536   2.019 -0.8167  1.0283  0.2716
 4126TIP3    H234014   1.214   3.390   1.980  1.7859  0.6789  0.5129
 4127TIP3   OH234015   6.485   1.903   0.492 -0.3108 -0.8631 -0.0556
 4127TIP3    H134016   6.442   1.980   0.527 -0.9027 -1.0281 -0.4162
 4127TIP3    H234017   6.474   1.910   0.397  1.3328 -0.3830 -0.2399
 4128TIP3   OH234018   1.249   1.604   0.578  0.2623  0.1276 -0.2330
 4128TIP3    H134019   1.337   1.572   0.596  0.3059 -0.0804 -0.7795
 4128TIP3    H234020   1.191   1.542   0.624  0.3920  0.0578 -0.1645
 4129TIP3   OH234021   2.313   3.600   2.375  0.0220  0.0242 -0.3026
 4129TIP3    H134022   2.241   3.643   2.422  0.9945  0.7039  0.6071
 4129TIP3    H234023   2.318   3.646   2.291 -1.9645 -1.4332 -1.3045
 4130TIP3   OH234024   1.944   4.013   0.957 -0.1092  0.8829  0.0252
 4130TIP3    H134025   1.905   3.938   1.001 -0.8984  1.5834  0.5646
 4130TIP3    H234026   1.947   4.081   1.025 -0.4770  1.6894 -0.7506
 4131TIP3   OH234027   4.124   1.344   8.714  0.1940 -0.2516 -0.1774
 4131TIP3    H134028   4.091   1.357   8.802  2.6970 -0.2159  0.8492
 4131TIP3    H234029   4.132   1.432   8.677 -0.0603 -0.2075 -0.1256
 4132TIP3   OH234030   0.849   6.619   2.770  0.0012 -0.4657  0.1807
 4132TIP3    H134031   0.829   6.712   2.786  0.4061  0.1879 -2.6933
 4132TIP3    H234032   0.944   6.614   2.775 -0.0495 -0.8959  0.9235
 4133TIP3   OH234033   6.067   3.879   2.277 -0.3542 -0.1508 -0.1606
 4133TIP3    H134034   6.031   3.938   2.344  1.7420 -0.2359  1.1400
 4133TIP3    H234035   6.093   3.801   2.326  0.5382 -0.5295 -1.2097
 4134TIP3   OH234036   6.663   0.614   0.767 -0.0484 -0.2045  0.2361
 4134TIP3    H134037   6.592   0.553   0.787 -0.5296  0.2599 -0.0422
 4134TIP3    H234038   6.743   0.562   0.779 -0.4111 -0.6297  0.9112
 4135TIP3   OH234039   5.090   2.307   0.718  0.8010  0.0279 -0.5453
 4135TIP3    H134040   5.166   2.333   0.770  0.3897 -2.4935  1.5518
 4135TIP3    H234041   5.026   2.376   0.735  1.0593 -0.1669  1.5757
 4136TIP3   OH234042   2.585   0.575   1.435 -0.0620 -0.1122 -0.1271
 4136TIP3    H134043   2.500   0.603   1.468 -0.4212 -0.3132 -0.8671
 4136TIP3    H234044   2.623   0.654   1.396 -1.2248 -0.6620 -2.5306
 4137TIP3   OH234045   5.816   4.633   0.772 -0.2963  0.0081 -0.9165
 4137TIP3    H134046   5.896   4.680   0.749  0.0246 -0.4896 -0.8590
 4137TIP3    H234047   5.745   4.695   0.757 -0.1244 -0.3040 -3.2568
 4138TIP3   OH234048   5.006   4.693   1.958  0.1378 -0.2490  0.2863
 4138TIP3    H134049   4.975   4.653   1.876  0.8141 -2.2787  0.9508
 4138TIP3    H234050   5.101   4.695   1.949  0.1049  2.3563 -0.1595
 4139TIP3   OH234051   2.221   4.941   0.732  0.8271 -0.2822  0.0889
 4139TIP3    H134052   2.223   4.903   0.819 -0.5150 -1.5231 -0.3917
 4139TIP3    H234053   2.306   4.984   0.723  1.4425 -1.1312  1.5557
 4140TIP3   OH234054   2.747   0.898   4.171  0.6677  0.4428 -0.0578
 4140TIP3    H134055   2.734   0.860   4.084 -3.0288  0.0403  0.5019
 4140TIP3    H234056   2.744   0.993   4.157  0.1942  0.3813 -0.3784
 4141TIP3   OH234057   0.367   5.573   3.995 -0.2930 -0.0040 -0.2185
 4141TIP3    H134058   0.275   5.546   3.986  0.1353 -1.1840 -1.3417
 4141TIP3    H234059   0.414   5.518   3.933  1.3762 -0.3912  1.3267
 4142TIP3   OH234060   3.468   4.947   2.404  0.1274 -0.6131 -0.5751
 4142TIP3    H134061   3.489   4.916   2.492  0.3124 -1.4897 -0.9167
 4142TIP3    H234062   3.426   4.872   2.362 -2.3911  0.5943 -0.3942
 4143TIP3   OH234063   0.908   2.441   1.183  0.3432  0.7319 -0.1077
 4143TIP3    H134064   0.891   2.412   1.093  1.1810  1.0896 -0.3876
 4143TIP3    H234065   0.827   2.421   1.230  0.3165 -0.5662 -0.6600
 4144TIP3   OH234066   4.881   1.469   4.114 -0.0663  0.6564 -0.0628
 4144TIP3    H134067   4.871   1.524   4.191 -2.4360  2.1663 -1.3308
 4144TIP3    H234068   4.835   1.388   4.137 -2.2611  1.7398 -0.4009
 4145TIP3   OH234069   0.546   2.203   2.451 -0.3781 -0.3110 -0.5141
 4145TIP3    H134070   0.637   2.186   2.425 -0.2361 -0.4797  0.0798
 4145TIP3    H234071   0.539   2.166   2.539 -1.1266 -0.6158 -0.6951
 4146TIP3   OH234072   4.968   5.742   3.492  0.4522 -0.5249  0.6052
 4146TIP3    H134073   4.924   5.825   3.473  0.2795 -0.8561 -0.5230
 4146TIP3    H234074   4.916   5.702   3.561  1.3397  0.9248  2.1783
 4147TIP3   OH234075   6.022   2.118   1.144 -0.1841  0.1251 -0.2385
 4147TIP3    H134076   5.946   2.070   1.109  0.2616 -1.7019  1.1261
 4147TIP3    H234077   5.984   2.192   1.191 -1.3035 -1.4167  1.4679
 4148TIP3   OH234078   4.097   4.884   1.417  0.1599 -0.0160 -0.8433
 4148TIP3    H134079   4.033   4.902   1.487  2.0680  0.7023  0.8195
 4148TIP3    H234080   4.112   4.969   1.376 -1.4886 -0.5541 -2.7149
 4149TIP3   OH234081   2.753   5.404   0.978 -0.2004 -0.2698 -0.3775
 4149TIP3    H134082   2.703   5.451   0.911 -0.6356 -0.5324 -0.2458
 4149TIP3    H234083   2.701   5.325   0.995 -1.5222  0.9888  2.1051
 4150TIP3   OH234084   4.462   1.755   3.681 -0.3249  0.3928  0.0744
 4150TIP3    H134085   4.477   1.806   3.602 -0.9790  0.3559 -0.0741
 4150TIP3    H234086   4.380   1.709   3.666  0.3257 -0.8422  0.1447
 4151TIP3   OH234087   2.360   6.243   7.754 -0.4832  0.6269 -0.3528
 4151TIP3    H134088   2.371   6.220   7.846 -0.1358 -4.4663 -1.3449
 4151TIP3    H234089   2.442   6.286   7.730  1.1523 -1.5169  0.9721
 4152TIP3   OH234090   4.204   2.955   3.271  0.0597 -0.0376  0.3517
 4152TIP3    H134091   4.233   2.871   3.306  0.9676  0.6698  1.3350
 4152TIP3    H234092   4.248   3.020   3.325 -0.6325  1.0779 -0.3998
 4153TIP3   OH234093   3.074   3.308   3.394  0.5881  0.7613 -0.5917
 4153TIP3    H134094   3.050   3.385   3.445  2.6188  1.6676 -0.9185
 4153TIP3    H234095   3.089   3.240   3.460  0.2823  1.0791 -0.1852
 4154TIP3   OH234096   3.667   1.621   1.790 -0.2982  0.6194 -0.1612
 4154TIP3    H134097   3.667   1.627   1.695 -0.4582 -1.5595 -0.3647
 4154TIP3    H234098   3.653   1.710   1.820 -0.6335  1.3037 -2.1787
 4155TIP3   OH234099   4.204   1.989   8.051  0.2586  0.1829 -0.5433
 4155TIP3    H134100   4.252   2.029   8.123 -0.6303 -1.3095  0.9254
 4155TIP3    H234101   4.251   1.907   8.033 -1.1155 -0.8051  0.2437
 4156TIP3   OH234102   3.193   2.879   1.593  0.2285  0.7720  0.0540
 4156TIP3    H134103   3.247   2.954   1.570  2.1180 -0.2049  1.1075
 4156TIP3    H234104   3.244   2.803   1.565 -0.5216 -0.1908  1.1800
 4157TIP3   OH234105   4.379   5.572   1.578  0.1335 -0.3775 -0.0175
 4157TIP3    H134106   4.360   5.654   1.532  1.3474  0.2954  0.6296
 4157TIP3    H234107   4.442   5.527   1.523 -1.7420 -1.7037 -1.1998
 4158TIP3   OH234108   5.771   3.883   0.072  0.4599  0.0330 -0.1758
 4158TIP3    H134109   5.755   3.893  -0.022  1.2941  3.2143 -0.0930
 4158TIP3    H234110   5.684   3.865   0.109 -0.3557  1.3534 -1.3250
 4159TIP3   OH234111   2.084   1.743   1.398  0.0285 -0.1063  0.2800
 4159TIP3    H134112   2.081   1.685   1.474  0.6672 -1.4427 -0.6696
 4159TIP3    H234113   2.176   1.765   1.388  0.0015 -0.2758 -0.3567
 4160TIP3   OH234114   5.240   4.893   0.022 -0.3231 -0.3677 -0.3530
 4160TIP3    H134115   5.188   4.842   0.085  0.8734 -0.2293  0.7803
 4160TIP3    H234116   5.174   4.937  -0.033 -1.4226  0.1122  1.2773
 4161TIP3   OH234117   2.720   5.961   2.238  1.0095  0.4341  0.5771
 4161TIP3    H134118   2.708   6.050   2.271  2.0923  1.5960 -1.8818
 4161TIP3    H234119   2.632   5.934   2.211  0.8583  1.2945  0.1613
 4162TIP3   OH234120   1.315   5.541   1.501  0.0521 -0.0018  0.4094
 4162TIP3    H134121   1.257   5.608   1.465  0.9212 -0.5443 -2.2004
 4162TIP3    H234122   1.363   5.507   1.425  1.2171 -2.0560  1.9600
 4163TIP3   OH234123   5.804   4.059   1.368 -0.2936 -0.2832 -0.4245
 4163TIP3    H134124   5.853   4.140   1.356 -0.5334 -0.2641 -1.3693
 4163TIP3    H234125   5.780   4.059   1.461  1.0510 -0.0543 -0.0494
 4164TIP3   OH234126   6.477   0.340   2.901  0.1346  0.0493  0.0837
 4164TIP3    H134127   6.494   0.317   2.992 -1.3201 -2.0181 -0.1123
 4164TIP3    H234128   6.492   0.435   2.898 -0.5914  0.3429  2.6778
 4165TIP3   OH234129   5.575   4.830   2.419  0.4003 -0.4062  0.0495
 4165TIP3    H134130   5.514   4.805   2.350 -2.4679  3.0425  0.9749
 4165TIP3    H234131   5.577   4.755   2.479 -1.2752 -1.4272 -1.1074
 4166TIP3   OH234132   0.031   4.038   2.427 -0.2130 -0.0578  0.2490
 4166TIP3    H134133   0.023   3.943   2.412  0.1651 -0.1037  0.3181
 4166TIP3    H234134   0.068   4.072   2.346  0.8536 -0.1563  0.6771
 4167TIP3   OH234135   6.110   0.495   8.635 -0.9033 -0.2534  0.3036
 4167TIP3    H134136   6.135   0.581   8.601 -0.6053 -0.3796  0.1990
 4167TIP3    H234137   6.171   0.434   8.594 -1.0135 -0.4984  0.4981
 4168TIP3   OH234138   5.246   0.543   0.495 -0.4845 -0.5654 -0.1037
 4168TIP3    H134139   5.251   0.591   0.577  0.4044 -0.4632 -0.2050
 4168TIP3    H234140   5.336   0.513   0.479 -1.1634 -3.1842  0.4976
 4169TIP3   OH234141   1.342   0.667   0.436  0.2667 -0.5657 -0.0500
 4169TIP3    H134142   1.402   0.654   0.362 -1.4044 -2.5058 -1.1858
 4169TIP3    H234143   1.365   0.598   0.498  0.4939 -0.0538  0.4427
 4170TIP3   OH234144   2.475   4.017   3.089 -0.9443 -0.1082  0.2162
 4170TIP3    H134145   2.511   3.933   3.061 -0.3715  0.0325  0.5293
 4170TIP3    H234146   2.380   4.007   3.078 -0.9969 -1.2663  1.5192
 4171TIP3   OH234147   5.516   6.239   0.158  0.6321  0.6714 -0.2283
 4171TIP3    H134148   5.539   6.332   0.161  2.0811  0.3968 -1.5632
 4171TIP3    H234149   5.473   6.228   0.073  2.5300 -0.2626 -1.1327
 4172TIP3   OH234150   2.339   6.633   3.605 -0.5680 -0.1759 -0.5835
 4172TIP3    H134151   2.309   6.676   3.685  0.8717 -1.2756  0.6140
 4172TIP3    H234152   2.282   6.557   3.595 -0.0355 -0.6838  0.0888
 4173TIP3   OH234153   3.306   5.118   8.188 -0.5247  0.2585  0.5508
 4173TIP3    H134154   3.309   5.202   8.141 -1.2451  0.9166  1.6434
 4173TIP3    H234155   3.335   5.054   8.123 -1.2945  1.1595 -0.7382
 4174TIP3   OH234156   2.114   3.389   0.366 -0.1972  0.0906  0.1331
 4174TIP3    H134157   2.206   3.392   0.391 -0.0220 -0.5642 -0.4193
 4174TIP3    H234158   2.067   3.414   0.446  0.4119 -0.4886  0.6865
 4175TIP3   OH234159   2.366   1.755   8.182  0.0597 -0.1437 -0.2183
 4175TIP3    H134160   2.343   1.795   8.266 -0.4340  1.4226 -1.0593
 4175TIP3    H234161   2.354   1.661   8.196 -1.1305  0.1801  1.1233
 4176TIP3   OH234162   6.886   4.887   2.230 -0.1188  0.4135  0.4599
 4176TIP3    H134163   6.929   4.971   2.241  1.0279 -0.1544  0.4390
 4176TIP3    H234164   6.913   4.835   2.306 -1.0328  0.1388  0.6183
 4177TIP3   OH234165   5.779   2.978   0.955 -0.2576  0.4375 -0.4110
 4177TIP3    H134166   5.684   2.967   0.948 -0.0315 -1.8190 -0.6288
 4177TIP3    H234167   5.815   2.908   0.901  1.5319 -0.7181  2.0999
 4178TIP3   OH234168   6.628   1.534   2.680  0.4216 -0.5312  0.4640
 4178TIP3    H134169   6.696   1.484   2.635 -1.0091 -0.6821 -1.6466
 4178TIP3    H234170   6.659   1.624   2.678  0.9078 -0.7002  0.2064
 4179TIP3   OH234171   2.158   3.565   8.105  0.3603 -1.2834  0.0475
 4179TIP3    H134172   2.166   3.605   8.019  0.9180 -2.2822 -0.3751
 4179TIP3    H234173   2.229   3.605   8.157  1.3171 -2.1517 -0.5542
 4180TIP3   OH234174   4.852   2.911   0.514  0.3914  0.3409  0.3880
 4180TIP3    H134175   4.821   2.918   0.424  1.9031 -1.1865 -0.3119
 4180TIP3    H234176   4.928   2.970   0.519  1.3921 -0.8746  0.0961
 4181TIP3   OH234177   6.753   3.774   2.788  0.3334 -0.0980  0.0358
 4181TIP3    H134178   6.732   3.706   2.723  0.3115 -1.0854  1.0490
 4181TIP3    H234179   6.836   3.811   2.758 -0.2416  0.2697 -1.1827
 4182TIP3   OH234180   0.715   4.788   3.193  0.0071  0.2260 -0.4800
 4182TIP3    H134181   0.627   4.756   3.175  0.2660 -1.8865  1.5289
 4182TIP3    H234182   0.703   4.855   3.260 -0.1578  1.0103 -1.2770
 4183TIP3   OH234183   3.630   4.240   3.745 -0.3786 -0.1303  0.6426
 4183TIP3    H134184   3.585   4.300   3.804 -0.8308 -2.5486  2.9842
 4183TIP3    H234185   3.560   4.189   3.705 -0.0247  1.0293 -1.5905
 4184TIP3   OH234186   1.375   1.445   2.732 -0.0904 -0.0765 -0.2677
 4184TIP3    H134187   1.387   1.497   2.652 -1.4066 -0.1924 -0.5507
 4184TIP3    H234188   1.370   1.355   2.701 -0.3039 -0.1494 -0.0186
 4185TIP3   OH234189   5.531   4.698   2.161  0.0720  0.1622 -0.0534
 4185TIP3    H134190   5.613   4.742   2.139  0.2148 -0.5375 -0.9670
 4185TIP3    H234191   5.556   4.606   2.173 -0.6052 -0.0960 -0.5574
 4186TIP3   OH234192   3.152   0.431   0.607 -0.2454 -0.6665 -0.1581
 4186TIP3    H134193   3.140   0.421   0.702 -1.6769 -0.9860 -0.3378
 4186TIP3    H234194   3.118   0.519   0.588 -1.4375 -1.1816 -0.5526
 4187TIP3   OH234195   1.959   2.841   2.100 -0.1279  0.7900 -0.0517
 4187TIP3    H134196   1.957   2.933   2.125 -0.4937  1.4600 -2.3788
 4187TIP3    H234197   1.890   2.831   2.035 -0.2635 -1.2078  0.3266
 4188TIP3   OH234198   6.184   5.596   2.702  0.4217 -0.1970  0.2923
 4188TIP3    H134199   6.114   5.562   2.758 -1.0198  1.1502 -0.5937
 4188TIP3    H234200   6.225   5.518   2.664 -1.8673 -1.0506 -0.6408
 4189TIP3   OH234201   4.764   1.446   1.929  0.3062 -0.3932  0.5691
 4189TIP3    H134202   4.804   1.368   1.968  1.7514 -0.2297 -0.4962
 4189TIP3    H234203   4.698   1.473   1.992  1.0875 -1.3724  1.8640
 4190TIP3   OH234204   2.890   3.513   1.528  0.1821  0.6230 -0.1669
 4190TIP3    H134205   2.944   3.451   1.479  0.4716  1.1543 -0.5183
 4190TIP3    H234206   2.944   3.591   1.536 -0.8830  1.5106 -1.3635
 4191TIP3   OH234207   0.681   4.578   1.076  0.0196 -0.4060 -0.0708
 4191TIP3    H134208   0.637   4.663   1.075 -0.5070 -0.6774  0.0986
 4191TIP3    H234209   0.614   4.516   1.102 -0.5100 -1.4054 -3.3740
 4192TIP3   OH234210   5.263   6.397   2.293 -0.4412  0.3838 -0.0568
 4192TIP3    H134211   5.265   6.322   2.233  0.0439 -0.4348  0.9466
 4192TIP3    H234212   5.251   6.358   2.380  0.1585  1.4464  0.5251
 4193TIP3   OH234213   4.272   6.186   2.238 -0.1380 -0.1686 -0.2562
 4193TIP3    H134214   4.232   6.110   2.280  0.7080 -1.1318 -1.1420
 4193TIP3    H234215   4.278   6.251   2.308 -1.9350 -0.4715  0.2407
 4194TIP3   OH234216   5.632   2.196   2.836 -0.2543 -0.6536 -0.4493
 4194TIP3    H134217   5.672   2.111   2.821  0.7367 -0.8029  2.4191
 4194TIP3    H234218   5.556   2.178   2.891  0.4047  0.3280  0.8464
 4195TIP3   OH234219   3.311   6.047   8.494 -0.1915 -0.5008 -0.1487
 4195TIP3    H134220   3.389   6.022   8.544 -1.2129  1.6813  2.8917
 4195TIP3    H234221   3.239   6.028   8.554 -1.6953  0.5432 -1.5674
 4196TIP3   OH234222   2.574   6.637   3.451  0.4760  0.2118 -0.1591
 4196TIP3    H134223   2.650   6.684   3.486  1.3701 -1.3488  0.1259
 4196TIP3    H234224   2.507   6.647   3.519  1.0571  0.0805  0.4516
 4197TIP3   OH234225   6.236   2.448   4.369 -0.3470  0.3814 -0.1784
 4197TIP3    H134226   6.194   2.490   4.444 -0.3385  2.3751 -1.2265
 4197TIP3    H234227   6.326   2.483   4.369  0.9129 -2.5166  1.0431
 4198TIP3   OH234228   0.730   0.900   1.973  0.6876  0.7632  0.1121
 4198TIP3    H134229   0.734   0.855   2.057  0.8392 -0.1755 -0.3860
 4198TIP3    H234230   0.737   0.831   1.907 -0.4050  1.3696 -0.6888
 4199TIP3   OH234231   1.338   4.088   0.490 -0.2661 -0.5908 -0.0730
 4199TIP3    H134232   1.326   4.072   0.396 -0.5287 -1.5187  0.1091
 4199TIP3    H234233   1.286   4.020   0.533 -0.1738 -0.1563  0.7524
 4200TIP3   OH234234   1.975   4.225   1.764 -0.0973  0.3422  0.4357
 4200TIP3    H134235   1.927   4.145   1.745 -0.4866  0.5798  0.3917
 4200TIP3    H234236   2.056   4.218   1.714 -1.2337  1.0918 -1.6099
 4201TIP3   OH234237   2.070   2.122   3.062  0.9322 -0.2023 -0.4862
 4201TIP3    H134238   2.100   2.101   3.150  0.8488  2.7136  0.3466
 4201TIP3    H234239   1.979   2.150   3.074  0.3311 -1.4629 -1.8070
 4202TIP3   OH234240   1.855   1.852   2.436  0.3322 -0.2715 -0.0277
 4202TIP3    H134241   1.922   1.905   2.393  0.9910 -0.6641  0.4913
 4202TIP3    H234242   1.874   1.860   2.530 -0.9899  0.4509  0.1978
 4203TIP3   OH234243   4.447   1.616   1.528 -0.1399 -0.0415 -0.6692
 4203TIP3    H134244   4.391   1.561   1.583 -1.0540  1.6819  0.2089
 4203TIP3    H234245   4.517   1.645   1.586 -0.4765  0.8689 -0.7005
 4204TIP3   OH234246   3.362   5.174   2.930 -0.4192  0.2187  0.5293
 4204TIP3    H134247   3.318   5.095   2.962  1.7269 -0.8469  0.9706
 4204TIP3    H234248   3.375   5.227   3.009  0.4999 -0.1890  0.6540
 4205TIP3   OH234249   0.551   6.315   0.258  0.1225  0.0791  0.4743
 4205TIP3    H134250   0.489   6.245   0.278  0.4601 -0.1368  0.7750
 4205TIP3    H234251   0.622   6.304   0.322 -0.2148  1.2079  1.0761
 4206TIP3   OH234252   5.756   6.053   3.311 -0.1557  0.3741 -0.7094
 4206TIP3    H134253   5.767   6.093   3.398 -0.6801 -0.2290 -0.3516
 4206TIP3    H234254   5.779   6.122   3.250 -0.3920  1.0186 -0.0911
 4207TIP3   OH234255   0.981   0.491   1.437  0.1154 -0.1661 -0.3173
 4207TIP3    H134256   0.994   0.571   1.488 -0.4913  0.2441 -0.7910
 4207TIP3    H234257   0.935   0.432   1.496  1.3321 -0.4965  0.3278
 4208TIP3   OH234258   6.252   3.662   0.027  0.4440 -0.4381 -0.1489
 4208TIP3    H134259   6.166   3.661   0.068  0.6403 -0.1208  0.2723
 4208TIP3    H234260   6.242   3.722  -0.047  0.2160 -0.6515 -0.2913
 4209TIP3   OH234261   3.934   3.833   3.225 -0.2052 -0.0803  0.1735
 4209TIP3    H134262   4.017   3.802   3.188 -0.4259 -0.2530 -0.1810
 4209TIP3    H234263   3.881   3.855   3.149 -0.5900 -0.2391  0.3930
 4210TIP3   OH234264   0.445   2.997   1.393 -0.2185 -0.1760  0.1487
 4210TIP3    H134265   0.514   3.059   1.416  0.7826 -0.0795 -2.7174
 4210TIP3    H234266   0.371   3.021   1.449  0.1318  3.5735 -0.7665
 4211TIP3   OH234267   2.972   3.505   8.667 -0.1010  0.2771 -0.5535
 4211TIP3    H134268   3.033   3.451   8.617  1.8843  0.8470  1.1237
 4211TIP3    H234269   3.012   3.592   8.669 -1.3848  0.8962 -0.0858
 4212TIP3   OH234270   4.314   1.487   3.038  0.2030  0.3562  0.4818
 4212TIP3    H134271   4.324   1.466   2.945 -0.0712 -1.3180  0.8042
 4212TIP3    H234272   4.242   1.432   3.068  0.4475  0.6890  1.7479
 4213TIP3   OH234273   4.971   5.145   8.372  0.1206  0.2290  0.1883
 4213TIP3    H134274   4.889   5.135   8.324  0.3948 -0.4961 -0.1470
 4213TIP3    H234275   5.016   5.217   8.327  0.3522 -0.4087 -0.6353
 4214TIP3   OH234276   1.671   5.254   0.821  0.0760  0.4860  0.4286
 4214TIP3    H134277   1.759   5.226   0.794 -0.2103 -0.1335  0.1077
 4214TIP3    H234278   1.615   5.229   0.747 -0.5121  0.0295  1.0164
 4215TIP3   OH234279   5.249   6.166   1.459  0.1157 -0.9599  0.3279
 4215TIP3    H134280   5.206   6.219   1.391 -0.7600 -1.1215  0.7445
 4215TIP3    H234281   5.327   6.132   1.416 -0.1665 -0.6578 -0.4504
 4216TIP3   OH234282   5.192   6.236   0.745  0.0338  0.2931  0.0417
 4216TIP3    H134283   5.136   6.159   0.755  0.1936  0.3502  1.5547
 4216TIP3    H234284   5.266   6.205   0.693 -2.3962  0.7716 -4.1677
 4217TIP3   OH234285   6.885   0.007   1.048 -0.5348 -0.6118  0.2186
 4217TIP3    H134286   6.905   0.087   1.097 -0.9221 -0.4574  0.1280
 4217TIP3    H234287   6.806   0.028   0.997 -0.0709 -0.7344 -0.5659
 4218TIP3   OH234288   4.042   3.868   7.891  0.4071 -0.2110 -0.1294
 4218TIP3    H134289   4.062   3.919   7.970  0.5457  0.4233 -0.5741
 4218TIP3    H234290   3.976   3.919   7.845 -0.1595 -0.9021 -0.1054
 4219TIP3   OH234291   3.713   2.846   0.808 -0.0432  0.1574 -0.1851
 4219TIP3    H134292   3.687   2.762   0.771 -3.1003  0.5229  0.8008
 4219TIP3    H234293   3.752   2.894   0.735  1.8882 -2.0670 -0.7363
 4220TIP3   OH234294   4.319   0.126   0.752  0.2522  0.2901 -0.3859
 4220TIP3    H134295   4.327   0.080   0.669 -1.7302 -1.4949  0.3058
 4220TIP3    H234296   4.310   0.218   0.729  0.0737 -0.1326 -2.1043
 4221TIP3   OH234297   2.494   1.643   3.161 -0.1273  0.6484  0.5526
 4221TIP3    H134298   2.455   1.729   3.178 -2.2770 -0.4385  1.5194
 4221TIP3    H234299   2.456   1.616   3.078  0.4337  0.5813  0.3206
 4222TIP3   OH234300   0.614   6.375   3.333  0.3165  0.5449  0.1715
 4222TIP3    H134301   0.669   6.348   3.406  1.2221 -0.9900 -1.0285
 4222TIP3    H234302   0.630   6.310   3.265 -0.0021  2.2663 -1.6429
 4223TIP3   OH234303   0.396   3.021   1.768  0.3497 -0.1450 -0.2013
 4223TIP3    H134304   0.385   3.110   1.733 -0.8541 -0.9530 -2.0129
 4223TIP3    H234305   0.346   2.965   1.709 -0.5800 -1.8320  2.0192
 4224TIP3   OH234306   6.271   3.224   3.534 -1.1854  0.0578 -0.0246
 4224TIP3    H134307   6.323   3.304   3.540 -1.0604  0.2645 -2.6747
 4224TIP3    H234308   6.322   3.158   3.580 -0.3322  1.0546  0.5045
 4225TIP3   OH234309   0.019   1.606   2.549  0.2510  0.2336  0.5828
 4225TIP3    H134310  -0.022   1.687   2.579 -1.7975 -1.3915  2.4848
 4225TIP3    H234311   0.070   1.576   2.623  1.7495  0.1954 -0.4280
 4226TIP3   OH234312   4.045   4.123   8.521 -0.6712  0.2373 -0.2025
 4226TIP3    H134313   3.997   4.051   8.481 -0.5456 -0.4900  0.9159
 4226TIP3    H234314   4.101   4.157   8.450  0.6193 -1.9322 -0.3113
 4227TIP3   OH234315   2.597   0.360   3.206 -0.9285  0.1791  0.5308
 4227TIP3    H134316   2.612   0.360   3.111  0.4042 -0.4400  0.7089
 4227TIP3    H234317   2.539   0.434   3.222 -1.6913 -0.0891 -0.8425
 4228TIP3   OH234318   5.952   1.589   0.113  0.2355 -0.1630  0.1176
 4228TIP3    H134319   5.952   1.601   0.018 -0.1442 -1.8839 -0.1351
 4228TIP3    H234320   5.860   1.572   0.135  0.1404  1.2766  0.9762
 4229TIP3   OH234321   4.702   2.077   0.650 -0.1292 -0.1501  0.0310
 4229TIP3    H134322   4.795   2.070   0.672  0.3866  1.3271 -1.4918
 4229TIP3    H234323   4.697   2.045   0.560 -0.9054  0.7837 -0.2636
 4230TIP3   OH234324   3.347   2.390   1.841  0.1979  0.1512  0.0715
 4230TIP3    H134325   3.384   2.301   1.837  1.8185  0.7597  0.5424
 4230TIP3    H234326   3.397   2.439   1.776 -0.4387  0.8144  0.0732
 4231TIP3   OH234327   1.967   0.746   2.632  0.1386  0.7807 -0.2979
 4231TIP3    H134328   1.904   0.674   2.636  1.2938 -0.1988  1.5295
 4231TIP3    H234329   2.042   0.715   2.682  1.5849  2.4105 -1.3397
 4232TIP3   OH234330   5.805   2.535   2.411  0.0057  0.5703  0.4578
 4232TIP3    H134331   5.746   2.475   2.456 -1.7240  1.9241  0.0919
 4232TIP3    H234332   5.888   2.527   2.458 -1.3009  0.8668  2.9665
 4233TIP3   OH234333   2.846   6.723   0.894  0.3084  0.4408  0.1996
 4233TIP3    H134334   2.761   6.751   0.927 -0.5053 -1.7240  0.1537
 4233TIP3    H234335   2.828   6.694   0.804  1.0060 -0.3392  0.2933
 4234TIP3   OH234336   5.532   1.873   0.725 -0.1624 -0.5079  0.1077
 4234TIP3    H134337   5.623   1.846   0.712 -0.7205 -1.4741 -2.5236
 4234TIP3    H234338   5.491   1.799   0.769  0.2705 -0.0598  1.3258
 4235TIP3   OH234339   5.031   3.326   2.732 -0.2817 -0.5139 -0.5453
 4235TIP3    H134340   5.002   3.298   2.819  0.4382 -1.4098 -0.5774
 4235TIP3    H234341   4.994   3.260   2.673  0.0672 -0.4742 -0.8069
 4236TIP3   OH234342   3.080   4.610   2.054 -0.2582  0.3563 -0.0415
 4236TIP3    H134343   3.118   4.689   2.015  0.2677  0.6185  0.9657
 4236TIP3    H234344   3.147   4.578   2.114 -0.7661 -0.4362  0.1155
 4237TIP3   OH234345   0.445   4.645   1.742 -0.1031  0.2413 -0.0397
 4237TIP3    H134346   0.367   4.688   1.707 -0.9351 -0.9788  0.2614
 4237TIP3    H234347   0.437   4.655   1.837 -2.0791 -3.2998  0.3473
 4238TIP3   OH234348   6.808   4.438   2.897 -0.1968 -0.1015 -0.4254
 4238TIP3    H134349   6.795   4.378   2.970  0.6859  1.3812  1.0081
 4238TIP3    H234350   6.782   4.388   2.820 -0.6323 -1.8960  0.8312
 4239TIP3   OH234351   6.735   1.714   0.164  0.7422  0.1825  0.1768
 4239TIP3    H134352   6.789   1.793   0.160  1.8768 -0.5977 -0.5551
 4239TIP3    H234353   6.757   1.665   0.084  0.0154 -0.8475  0.5761
 4240TIP3   OH234354   0.979   0.021   0.249  0.3900  0.3108  0.0666
 4240TIP3    H134355   1.030   0.050   0.174  0.3256 -0.6572 -0.3600
 4240TIP3    H234356   0.916   0.092   0.264  0.9053  0.8559 -0.3027
 4241TIP3   OH234357   3.829   4.834   0.578  0.2204  0.0128  0.4546
 4241TIP3    H134358   3.807   4.917   0.620 -0.3964  0.1623 -0.1500
 4241TIP3    H234359   3.862   4.779   0.649  1.0292  0.9075  0.7931
 4242TIP3   OH234360   3.853   2.220   2.322 -0.4152 -0.0354  0.0550
 4242TIP3    H134361   3.885   2.158   2.387 -1.3195 -0.0976  0.4600
 4242TIP3    H234362   3.931   2.254   2.279  0.0748 -2.1110 -0.7847
 4243TIP3   OH234363   1.330   5.531   2.211  0.4080  0.3706 -0.6770
 4243TIP3    H134364   1.396   5.482   2.161  1.9489  1.7114 -0.0455
 4243TIP3    H234365   1.353   5.623   2.199 -2.3946  1.0352 -1.7960
 4244TIP3   OH234366   5.617   4.209   1.903  0.4301 -0.3566 -0.4439
 4244TIP3    H134367   5.600   4.204   1.809  0.4505 -1.0714 -0.4154
 4244TIP3    H234368   5.531   4.218   1.943  0.3594 -0.8146 -0.4886
 4245TIP3   OH234369   4.200   1.730   0.253  0.1440 -0.3734  0.5523
 4245TIP3    H134370   4.133   1.675   0.213  1.6193 -2.0945  0.3284
 4245TIP3    H234371   4.159   1.764   0.333 -0.8631 -1.7035  0.6326
 4246TIP3   OH234372   0.739   5.992   1.777 -0.2626  0.4467  0.3468
 4246TIP3    H134373   0.683   6.046   1.722  0.4447  0.8725  0.0320
 4246TIP3    H234374   0.701   5.904   1.771 -1.6541  0.9437  1.1700
 4247TIP3   OH234375   4.209   3.984   0.651  0.0261 -0.4123  0.2552
 4247TIP3    H134376   4.265   4.035   0.710  0.4325  0.1525 -0.6013
 4247TIP3    H234377   4.227   4.020   0.564  0.3562 -2.0546 -0.3893
 4248TIP3   OH234378   2.182   6.444   1.306 -0.1087 -0.0571 -0.0602
 4248TIP3    H134379   2.189   6.358   1.265 -1.5886  0.8604 -2.3965
 4248TIP3    H234380   2.257   6.493   1.271  0.2100 -0.0787  0.5635
 4249TIP3   OH234381   0.493   4.119   3.371  0.7498  0.0224 -0.0738
 4249TIP3    H134382   0.444   4.164   3.302  1.1997 -2.5778 -2.2737
 4249TIP3    H234383   0.426   4.090   3.433  0.2682  1.9630  0.3676
 4250TIP3   OH234384   2.326   3.771   7.933  0.1173 -0.1759  0.1612
 4250TIP3    H134385   2.353   3.698   7.879  0.2467  1.2365 -1.7643
 4250TIP3    H234386   2.385   3.842   7.910 -0.6091  0.8314  1.2666
 4251TIP3   OH234387   2.585   2.031   8.671 -0.2929 -0.0285 -0.0098
 4251TIP3    H134388   2.552   1.944   8.693  1.2588 -1.2208 -2.0268
 4251TIP3    H234389   2.548   2.050   8.585  0.3222  0.7849 -0.1097
 4252TIP3   OH234390   1.474   1.284   8.288  0.7350 -0.4281  0.1483
 4252TIP3    H134391   1.384   1.253   8.300  1.2075 -1.6828  0.6533
 4252TIP3    H234392   1.465   1.366   8.240 -0.5795 -1.4960 -1.5432
 4253TIP3   OH234393   0.471   5.423   3.786 -0.2902 -0.4535  0.3054
 4253TIP3    H134394   0.554   5.443   3.829 -1.1338 -1.6415  2.7094
 4253TIP3    H234395   0.493   5.356   3.722  0.7366 -0.1489  0.3194
 4254TIP3   OH234396   6.222   0.329   2.792 -0.4318 -0.3306  0.6123
 4254TIP3    H134397   6.195   0.259   2.733 -2.4360 -1.3613  2.5950
 4254TIP3    H234398   6.306   0.300   2.828  0.5692  0.0902 -1.2646
 4255TIP3   OH234399   0.103   2.684   3.184  0.3099  0.7525  0.0097
 4255TIP3    H134400   0.008   2.682   3.191  0.2978 -1.1530 -0.3521
 4255TIP3    H234401   0.121   2.728   3.101 -0.3064 -0.1099 -0.5894
 4256TIP3   OH234402   2.831   5.504   8.565 -0.1717  0.2901  0.8311
 4256TIP3    H134403   2.914   5.514   8.518  0.0952  1.0567  1.4484
 4256TIP3    H234404   2.843   5.425   8.618 -0.1709 -0.1105  0.2400
 4257TIP3   OH234405   4.579   3.025   3.001 -0.1057  0.1879 -0.4210
 4257TIP3    H134406   4.566   2.964   2.929 -1.3350  1.1536 -1.0629
 4257TIP3    H234407   4.574   3.112   2.959  2.2184  0.7635  0.3441
 4258TIP3   OH234408   2.828   4.881   3.107 -0.0469 -0.5525 -0.3536
 4258TIP3    H134409   2.839   4.975   3.094 -0.5974 -0.2673  1.0156
 4258TIP3    H234410   2.903   4.856   3.162 -0.1046 -0.8411 -0.4054
 4259TIP3   OH234411   2.833   3.614   3.126 -0.0754 -0.5152  0.7931
 4259TIP3    H134412   2.923   3.640   3.144  0.2306 -1.8248  1.2415
 4259TIP3    H234413   2.797   3.591   3.211 -0.5626 -0.8295  0.5062
 4260TIP3   OH234414   6.004   2.281   2.959  0.0657  0.2566 -0.1919
 4260TIP3    H134415   6.070   2.218   2.930 -1.1823 -0.3655 -1.8810
 4260TIP3    H234416   6.034   2.309   3.046  1.0813 -2.0684  0.2973
 4261TIP3   OH234417   1.430   3.846   0.121  0.5543  0.3211  0.5760
 4261TIP3    H134418   1.465   3.758   0.130  1.9740  0.9937  2.3257
 4261TIP3    H234419   1.406   3.854   0.028  0.7166 -1.7563  0.3222
 4262TIP3   OH234420   1.704   1.176   8.374  0.0649 -0.2958 -0.5320
 4262TIP3    H134421   1.624   1.210   8.332  0.4672  0.1992 -0.9108
 4262TIP3    H234422   1.688   1.082   8.383 -0.6370 -0.1706 -0.4382
 4263TIP3   OH234423   5.418   4.519   0.740 -0.1987 -0.5102  0.3131
 4263TIP3    H134424   5.395   4.496   0.650 -1.2521 -1.1069  0.7188
 4263TIP3    H234425   5.486   4.586   0.730  0.4126 -1.2642 -0.9103
 4264TIP3   OH234426   0.315   0.620   8.620 -0.0729  0.2605  0.5381
 4264TIP3    H134427   0.345   0.666   8.698  0.1459  0.9200  0.0741
 4264TIP3    H234428   0.237   0.668   8.593  0.2412  0.4652 -0.0331
 4265TIP3   OH234429   2.817   3.124   0.828 -0.2952 -0.0427 -0.0399
 4265TIP3    H134430   2.730   3.152   0.857  0.6185  0.2035  2.8131
 4265TIP3    H234431   2.863   3.205   0.808 -0.8985 -0.2086 -2.4266
 4266TIP3   OH234432   3.047   6.829   0.564 -0.3216 -0.0801 -0.6305
 4266TIP3    H134433   2.963   6.845   0.606  1.6754  0.8834  3.4416
 4266TIP3    H234434   3.073   6.913   0.527  0.6125  0.7891  1.8375
 4267TIP3   OH234435   0.478   6.033   0.404  0.1703 -0.2565  0.5333
 4267TIP3    H134436   0.398   6.042   0.352  0.1828  1.8156  0.8218
 4267TIP3    H234437   0.548   6.029   0.339  0.0083  0.1341  0.3312
 4268TIP3   OH234438   2.880   4.001   1.994  0.2013 -0.4552 -0.0568
 4268TIP3    H134439   2.824   4.078   2.003 -0.1826 -0.8434  1.0348
 4268TIP3    H234440   2.913   4.006   1.905 -0.0689  0.8025 -0.1103
 4269TIP3   OH234441   3.385   6.551   3.812  0.1752 -0.6770 -0.0631
 4269TIP3    H134442   3.296   6.530   3.840 -0.1780 -0.0884 -0.7103
 4269TIP3    H234443   3.408   6.631   3.860  1.3077 -2.1290  1.9729
 4270TIP3   OH234444   4.431   1.668   2.550 -0.0856  0.0959  0.4482
 4270TIP3    H134445   4.339   1.695   2.543 -0.3052 -0.2644  1.7401
 4270TIP3    H234446   4.475   1.715   2.479 -1.0991  0.9783  0.3761
 4271TIP3   OH234447   5.075   2.156   3.677  0.1845 -0.2569 -0.1970
 4271TIP3    H134448   5.028   2.089   3.727 -1.0408 -2.3379 -3.7589
 4271TIP3    H234449   5.008   2.219   3.652  0.6001  0.2618 -0.0320
 4272TIP3   OH234450   2.834   6.526   1.147 -0.2758 -0.5500  0.2283
 4272TIP3    H134451   2.850   6.532   1.052 -0.6751 -0.2579  0.1777
 4272TIP3    H234452   2.859   6.612   1.180  0.8639 -0.9832  0.5462
 4273TIP3   OH234453   6.109   3.906   3.041  0.1960 -0.2787 -0.5870
 4273TIP3    H134454   6.095   3.931   3.132 -0.7952 -0.4092 -0.6949
 4273TIP3    H234455   6.101   3.988   2.992 -1.2738 -0.4916 -0.7519
 4274TIP3   OH234456   2.468   3.556   7.768 -0.0290  0.3858  0.3750
 4274TIP3    H134457   2.544   3.542   7.711 -0.5986 -0.3796 -0.2099
 4274TIP3    H234458   2.399   3.501   7.731 -0.3649 -0.2664  1.8964
 4275TIP3   OH234459   5.575   3.137   1.046 -0.1000 -0.0296 -0.3278
 4275TIP3    H134460   5.499   3.185   1.079  0.3460  1.2453 -1.0853
 4275TIP3    H234461   5.570   3.144   0.951  0.7867 -0.1921 -0.4020
 4276TIP3   OH234462   6.008   6.627   1.860  0.0231  0.2314  0.3360
 4276TIP3    H134463   6.067   6.702   1.852 -1.2461  1.2795  0.5858
 4276TIP3    H234464   6.019   6.597   1.951  0.8858 -0.2250  0.1013
 4277TIP3   OH234465   6.591   3.051   3.397  0.0628 -0.0939 -0.2176
 4277TIP3    H134466   6.576   3.080   3.487 -2.0729 -0.6757 -0.3291
 4277TIP3    H234467   6.517   3.087   3.348  2.3568  2.1999 -2.2930
 4278TIP3   OH234468   4.674   6.012   0.532  0.3054  0.2149  0.3710
 4278TIP3    H134469   4.721   6.082   0.577 -1.9523  0.7688  2.0724
 4278TIP3    H234470   4.643   6.053   0.450 -0.4997  1.0789  1.0775
 4279TIP3   OH234471   4.599   1.122   3.623 -0.4788  0.8983 -0.1354
 4279TIP3    H134472   4.542   1.089   3.693  1.0989 -2.0860 -0.1023
 4279TIP3    H234473   4.553   1.099   3.543  0.6355 -1.7125 -0.1130
 4280TIP3   OH234474   3.479   3.436   2.438  0.3795 -0.2651 -0.1677
 4280TIP3    H134475   3.553   3.471   2.488  2.5961 -1.7422 -2.1427
 4280TIP3    H234476   3.409   3.500   2.448  2.1616  1.5586  1.2797
 4281TIP3   OH234477   2.241   1.210   2.366  0.0427 -0.0380  0.1291
 4281TIP3    H134478   2.272   1.260   2.441 -0.0431 -0.3125  0.3459
 4281TIP3    H234479   2.163   1.166   2.397 -1.2413  1.5272 -0.7201
 4282TIP3   OH234480   1.729   5.682   0.667 -0.0709  0.2298  0.2127
 4282TIP3    H134481   1.796   5.748   0.651  0.2610 -0.0281  0.5111
 4282TIP3    H234482   1.775   5.613   0.716 -0.1675 -0.6863 -0.9503
 4283TIP3   OH234483   4.241   2.561   2.475 -0.1750 -0.3310  0.9760
 4283TIP3    H134484   4.319   2.564   2.421 -0.8547  1.2162  0.0098
 4283TIP3    H234485   4.270   2.592   2.561  0.4381 -0.5758  0.8609
 4284TIP3   OH234486   4.362   1.826   8.483 -0.0792 -0.0412 -0.1291
 4284TIP3    H134487   4.440   1.829   8.427 -0.5716 -1.3532 -0.9331
 4284TIP3    H234488   4.295   1.787   8.427 -1.0377  0.1318  0.8795
 4285TIP3   OH234489   1.488   2.456   8.673 -0.0397 -0.0358  0.5676
 4285TIP3    H134490   1.484   2.502   8.757  0.0694 -0.7557  0.9753
 4285TIP3    H234491   1.533   2.518   8.614  3.2777 -0.8622  1.9852
 4286TIP3   OH234492   6.595   1.816   2.895  0.7715 -0.2202  0.6603
 4286TIP3    H134493   6.582   1.816   2.990  1.4006 -1.5727  0.7700
 4286TIP3    H234494   6.506   1.823   2.859  0.6418  2.3569  1.2942
 4287TIP3   OH234495   0.621   5.634   1.985  0.3586 -0.1948  0.1513
 4287TIP3    H134496   0.637   5.625   2.079  1.1398  2.5788  0.3723
 4287TIP3    H234497   0.707   5.658   1.948 -0.7740  3.8503 -0.3679
 4288TIP3   OH234498   0.418   5.452   1.588 -0.8313  0.2209  0.0113
 4288TIP3    H134499   0.425   5.381   1.651  2.3484  0.5379  0.1929
 4288TIP3    H234500   0.485   5.515   1.615 -1.2710  1.7125 -2.0560
 4289TIP3   OH234501   1.663   4.527   2.740 -0.0744  0.4448 -0.4050
 4289TIP3    H134502   1.617   4.509   2.822  1.1737  2.3109  0.7955
 4289TIP3    H234503   1.621   4.470   2.675 -1.0995 -1.0895  1.5095
 4290TIP3   OH234504   0.168   4.049   1.882  0.2739 -0.5176  0.4384
 4290TIP3    H134505   0.247   3.994   1.884  1.7586  1.5176  1.0530
 4290TIP3    H234506   0.100   3.994   1.922  1.1669 -2.5589 -0.6630
 4291TIP3   OH234507   1.864   5.079   7.821  0.1260  0.1807 -0.2672
 4291TIP3    H134508   1.895   5.112   7.737 -0.3967 -0.6601 -0.8036
 4291TIP3    H234509   1.938   5.089   7.881  1.5740 -2.0379 -1.5722
 4292TIP3   OH234510   4.656   2.939   3.276  0.0501  0.2361  0.4124
 4292TIP3    H134511   4.658   2.924   3.182  2.1439  1.6532  0.1744
 4292TIP3    H234512   4.635   2.853   3.313 -2.0846 -0.0926 -1.3308
 4293TIP3   OH234513   5.229   0.129   0.189 -0.4790 -0.1992 -0.3406
 4293TIP3    H134514   5.203   0.217   0.216  2.4516  0.3876  0.9277
 4293TIP3    H234515   5.306   0.143   0.135  0.1541 -1.9936  0.0465
 4294TIP3   OH234516   1.291   3.562   3.021 -0.3257 -0.3291  0.1988
 4294TIP3    H134517   1.206   3.593   2.992  1.0494  1.1662 -2.6668
 4294TIP3    H234518   1.331   3.637   3.065 -0.0914 -0.6928  0.6131
 4295TIP3   OH234519   5.056   1.405   2.482 -0.0127  0.4202  0.2716
 4295TIP3    H134520   5.084   1.468   2.548  0.7453  0.2790  0.1017
 4295TIP3    H234521   4.979   1.363   2.520 -0.7443  1.6821  0.2352
 4296TIP3   OH234522   5.595   0.808   2.028  0.2963 -0.2272  0.5190
 4296TIP3    H134523   5.553   0.744   1.971 -0.3507  0.2219  0.4745
 4296TIP3    H234524   5.679   0.769   2.051  0.9928 -0.0137 -1.4964
 4297TIP3   OH234525   4.629   4.087   0.103  0.1082 -0.6606 -0.4594
 4297TIP3    H134526   4.651   4.041   0.022 -1.2276 -0.9956 -0.6532
 4297TIP3    H234527   4.651   4.178   0.086  1.1554 -0.9432 -0.6876
 4298TIP3   OH234528   3.657   2.999   2.047  0.2728 -0.4939  0.5564
 4298TIP3    H134529   3.681   3.055   1.973 -3.2897  2.0393  1.0119
 4298TIP3    H234530   3.669   2.910   2.016  2.7679  0.4659 -1.5448
 4299TIP3   OH234531   3.365   4.769   1.109  0.1580 -0.2180 -0.1468
 4299TIP3    H134532   3.446   4.732   1.143  0.9357  1.3125 -0.2829
 4299TIP3    H234533   3.390   4.812   1.027 -1.3038 -2.0301 -1.6373
 4300TIP3   OH234534   3.815   4.744   2.741 -0.1643 -0.8613 -0.5505
 4300TIP3    H134535   3.843   4.697   2.819  0.0653 -1.3060 -0.8947
 4300TIP3    H234536   3.851   4.832   2.751 -1.2557 -0.5077  0.4721
 4301TIP3   OH234537   5.836   2.525   1.932 -0.0240  0.1741 -1.0290
 4301TIP3    H134538   5.785   2.446   1.913  0.7186 -0.8102  0.8242
 4301TIP3    H234539   5.794   2.594   1.879 -1.9213 -1.0351 -1.2025
 4302TIP3   OH234540   2.041   2.804   4.111 -0.0194 -0.1156 -0.5683
 4302TIP3    H134541   2.129   2.828   4.140  0.6090 -1.0190 -1.6228
 4302TIP3    H234542   2.047   2.711   4.091 -1.5556 -0.4849  0.4988
 4303TIP3   OH234543   4.867   0.157   0.809 -0.0815 -0.1740  0.0763
 4303TIP3    H134544   4.884   0.186   0.719  1.4440 -1.3847 -0.0599
 4303TIP3    H234545   4.929   0.086   0.824 -0.8859 -0.5652  1.8160
 4304TIP3   OH234546   5.384   4.196   2.060  0.5412  0.1978  0.0256
 4304TIP3    H134547   5.312   4.259   2.064 -0.9493 -1.3639 -0.8026
 4304TIP3    H234548   5.341   4.113   2.037  2.5103 -0.9705  0.4022
 4305TIP3   OH234549   6.680   1.690   2.047 -0.3898 -0.0800  0.8351
 4305TIP3    H134550   6.724   1.632   1.985 -0.8140  0.8038 -0.3428
 4305TIP3    H234551   6.688   1.646   2.131 -0.5493 -1.7505  0.0178
 4306TIP3   OH234552   1.226   3.384   0.675 -0.0185 -0.1280 -0.0771
 4306TIP3    H134553   1.165   3.455   0.698  1.5935  1.0920  0.6416
 4306TIP3    H234554   1.302   3.399   0.730  1.3258 -1.0485 -1.5881
 4307TIP3   OH234555   4.314   2.623   3.794  0.1576  0.1232  0.2403
 4307TIP3    H134556   4.314   2.547   3.853 -0.1857  0.4913  0.7150
 4307TIP3    H234557   4.399   2.618   3.749 -1.1112 -2.5203 -2.2906
 4308TIP3   OH234558   4.799   1.925   3.418 -0.3922  0.3432 -0.0767
 4308TIP3    H134559   4.753   2.009   3.418 -1.8199 -0.3975 -0.6900
 4308TIP3    H234560   4.888   1.946   3.445 -0.4998  2.1644 -0.9997
 4309TIP3   OH234561   3.677   0.178   3.294  0.4243 -0.7965 -0.2698
 4309TIP3    H134562   3.699   0.180   3.201  1.8128 -0.0023  0.0475
 4309TIP3    H234563   3.731   0.107   3.330  0.9996 -0.1351  0.1828
 4310TIP3   OH234564   5.796   4.498   2.941  0.7225 -0.0031 -0.4308
 4310TIP3    H134565   5.847   4.473   2.863 -0.6465 -0.3142 -1.2577
 4310TIP3    H234566   5.706   4.499   2.910  0.4276  3.3839  0.2184
 4311TIP3   OH234567   6.568   2.661   1.039  0.2600  0.0686  0.5674
 4311TIP3    H134568   6.660   2.658   1.015 -0.2886 -3.6612 -1.8406
 4311TIP3    H234569   6.531   2.733   0.988  1.5334  0.6055  0.3833
 4312TIP3   OH234570   5.664   5.818   8.413 -0.3313 -0.2144  0.0540
 4312TIP3    H134571   5.580   5.774   8.399 -0.7322  0.5799 -0.0944
 4312TIP3    H234572   5.720   5.785   8.344 -0.5186 -0.7521  0.1529
 4313TIP3   OH234573   3.546   0.852   3.682 -0.3160 -0.0395  0.9569
 4313TIP3    H134574   3.491   0.785   3.725 -0.7738 -0.4293 -0.1833
 4313TIP3    H234575   3.494   0.932   3.687 -1.8711 -0.7552 -1.6116
 4314TIP3   OH234576   2.855   2.552   4.287 -0.1262 -0.2193  0.0635
 4314TIP3    H134577   2.819   2.561   4.198 -1.0799 -0.6443  0.4030
 4314TIP3    H234578   2.919   2.481   4.280 -0.1772 -0.2328 -0.2822
 4315TIP3   OH234579   6.099   1.286   3.944 -0.0930 -0.4468  0.0263
 4315TIP3    H134580   6.097   1.382   3.939  0.7366 -0.4457 -0.4310
 4315TIP3    H234581   6.040   1.257   3.874  0.2397 -0.2728 -0.3301
 4316TIP3   OH234582   6.786   1.625   8.354  0.3977  0.0973  0.0129
 4316TIP3    H134583   6.834   1.694   8.401  1.3459 -0.8104  0.4119
 4316TIP3    H234584   6.830   1.618   8.269 -0.2275  0.5513 -0.3544
 4317TIP3   OH234585   1.695   6.210   3.000  0.2604 -0.2644  0.0708
 4317TIP3    H134586   1.710   6.298   2.964 -0.0430 -0.4474 -0.5133
 4317TIP3    H234587   1.768   6.158   2.966 -0.6616 -0.7247 -1.2939
 4318TIP3   OH234588   5.569   0.160   2.159 -0.0208 -0.3290 -0.5392
 4318TIP3    H134589   5.543   0.068   2.159  0.4322 -0.4611 -0.7083
 4318TIP3    H234590   5.662   0.158   2.136 -0.3680  0.2578 -2.1573
 4319TIP3   OH234591   4.463   5.282   3.926  0.0551 -0.3959 -0.3342
 4319TIP3    H134592   4.377   5.314   3.897  1.0728  1.6261 -1.3401
 4319TIP3    H234593   4.510   5.361   3.953  1.7565 -1.4030 -0.1908
 4320TIP3   OH234594   3.499   6.709   8.027  0.4373  0.6652  0.5039
 4320TIP3    H134595   3.502   6.803   8.011  1.9522  0.7003  0.9224
 4320TIP3    H234596   3.492   6.700   8.122 -2.6931  0.3520  0.3548
 4321TIP3   OH234597   1.373   3.849   8.586 -0.0463 -0.6225 -0.0294
 4321TIP3    H134598   1.358   3.855   8.492 -3.4538  0.9299  0.4399
 4321TIP3    H234599   1.327   3.770   8.613 -0.4178 -0.2542  0.4611
 4322TIP3   OH234600   5.347   2.098   0.811 -0.4033  0.7735 -0.1019
 4322TIP3    H134601   5.353   2.042   0.733  1.7068  1.3002 -0.4029
 4322TIP3    H234602   5.267   2.071   0.855 -0.1580 -1.5399 -0.9495
 4323TIP3   OH234603   4.763   2.936   4.162  0.2319 -0.3020 -0.2890
 4323TIP3    H134604   4.760   2.851   4.207 -1.4559  0.9634  2.1794
 4323TIP3    H234605   4.845   2.975   4.191 -0.4072  0.1154  1.0105
 4324TIP3   OH234606   5.543   6.856   0.611  0.4385 -0.6006 -0.2518
 4324TIP3    H134607   5.501   6.877   0.527  0.6652 -0.6273 -0.3713
 4324TIP3    H234608   5.578   6.940   0.642 -0.5059 -0.3916  0.2981
 4325TIP3   OH234609   0.600   3.906   3.167  0.0203 -0.3745 -0.2599
 4325TIP3    H134610   0.545   3.979   3.138  2.2396  0.9261 -1.5135
 4325TIP3    H234611   0.563   3.880   3.252 -2.2191  0.6474 -0.8394
 4326TIP3   OH234612   3.858   4.075   8.700  0.6510 -0.1939 -0.5556
 4326TIP3    H134613   3.853   4.125   8.781  0.2983 -0.5958 -0.3188
 4326TIP3    H234614   3.941   4.100   8.661  1.8452 -1.5371  0.9694
 4327TIP3   OH234615   5.424   5.040   1.891 -0.0755 -0.2857 -0.1477
 4327TIP3    H134616   5.501   5.094   1.910 -1.3928  1.6566 -0.0495
 4327TIP3    H234617   5.436   5.013   1.800  0.5403  0.2975 -0.2495
 4328TIP3   OH234618   6.711   5.946   3.551  0.3645 -0.2181 -0.2536
 4328TIP3    H134619   6.720   6.023   3.608  3.8457 -1.6126  1.3881
 4328TIP3    H234620   6.650   5.890   3.598  0.6972  0.0087  0.4746
 4329TIP3   OH234621   3.996   0.842   8.138  0.2403  0.5385 -0.4795
 4329TIP3    H134622   4.085   0.862   8.111  0.8180  0.7813  1.4927
 4329TIP3    H234623   4.004   0.812   8.229 -1.6688  0.4231 -0.3055
 4330TIP3   OH234624   5.385   3.133   3.014 -0.1513 -0.9285  0.4638
 4330TIP3    H134625   5.325   3.133   3.089 -0.5263 -1.0599  0.1715
 4330TIP3    H234626   5.377   3.221   2.977 -0.6357 -1.1296  0.0657
 4331TIP3   OH234627   4.617   1.491   2.869  0.0132 -0.0063 -0.2316
 4331TIP3    H134628   4.552   1.422   2.853 -0.0537  0.0570 -0.2297
 4331TIP3    H234629   4.612   1.547   2.791 -0.2330  0.2386 -0.0383
 4332TIP3   OH234630   6.797   5.117   2.528 -0.1288  0.2396  0.1478
 4332TIP3    H134631   6.718   5.171   2.530 -0.3588 -0.0824  0.0134
 4332TIP3    H234632   6.816   5.107   2.434  0.0721  0.3203  0.1807
 4333TIP3   OH234633   1.460   2.547   0.773  0.8702 -0.6881 -0.2464
 4333TIP3    H134634   1.423   2.480   0.715 -0.4221 -0.1907 -0.0224
 4333TIP3    H234635   1.467   2.504   0.858 -0.1269 -0.4933 -0.0611
 4334TIP3   OH234636   3.124   3.038   1.270 -0.3130 -0.1228 -0.3844
 4334TIP3    H134637   3.030   3.052   1.273 -0.8209 -2.6952 -1.4781
 4334TIP3    H234638   3.151   3.075   1.185 -0.5976 -0.6126 -0.6926
 4335TIP3   OH234639   4.833   0.475   0.432  0.1289  0.3553  0.3865
 4335TIP3    H134640   4.766   0.411   0.409  1.5905 -0.5119 -1.7271
 4335TIP3    H234641   4.901   0.424   0.476  1.0088  0.5205 -0.7377
 4336TIP3   OH234642   0.892   5.157   0.087  0.1628 -0.2807  0.1647
 4336TIP3    H134643   0.866   5.220   0.154  0.4781  1.2623 -1.1148
 4336TIP3    H234644   0.877   5.071   0.128 -2.3253  0.5606  1.2003
 4337TIP3   OH234645   4.481   1.358   2.386  0.2644 -0.2192 -0.0573
 4337TIP3    H134646   4.494   1.336   2.478 -0.8461 -0.6921  0.0061
 4337TIP3    H234647   4.569   1.358   2.348  0.6898 -0.4535  0.9045
 4338TIP3   OH234648   2.440   2.316   0.635 -1.1888  0.0924  0.0185
 4338TIP3    H134649   2.453   2.316   0.540 -0.3466 -0.1216  0.1306
 4338TIP3    H234650   2.511   2.370   0.669 -0.8008 -0.7824  0.6226
 4339TIP3   OH234651   6.760   6.153   0.066  0.0539  0.2613  1.0674
 4339TIP3    H134652   6.852   6.157   0.038  0.1650 -1.1564  1.1559
 4339TIP3    H234653   6.750   6.226   0.127  1.1199  0.4346  1.0525
 4340TIP3   OH234654   4.184   2.279   0.955  0.1162  0.3709  0.3554
 4340TIP3    H134655   4.261   2.330   0.931 -0.2393 -0.0176 -1.8127
 4340TIP3    H234656   4.121   2.296   0.885 -1.0544 -0.8286  1.0639
 4341TIP3   OH234657   6.034   5.347   2.055  0.2563  0.2800  0.8789
 4341TIP3    H134658   6.109   5.393   2.093  0.0557  0.4678  1.0575
 4341TIP3    H234659   6.072   5.281   1.997  0.5943 -0.5582  2.0163
 4342TIP3   OH234660   5.453   5.669   8.386  0.5442  0.4546  0.9227
 4342TIP3    H134661   5.361   5.652   8.406 -0.0468  1.4516 -0.7334
 4342TIP3    H234662   5.465   5.633   8.298  1.6544  0.6421  0.9854
 4343TIP3   OH234663   3.067   1.055   4.126 -0.1130 -0.2106 -0.0208
 4343TIP3    H134664   3.007   1.129   4.132  0.1399 -0.0691  0.9098
 4343TIP3    H234665   3.152   1.093   4.105 -0.0845 -0.2808 -0.0355
 4344TIP3   OH234666   6.213   6.693   1.465 -0.5069  0.1392  0.3004
 4344TIP3    H134667   6.240   6.781   1.438  0.9122 -0.5497 -0.6632
 4344TIP3    H234668   6.151   6.665   1.398 -1.9723  0.8608  1.3025
 4345TIP3   OH234669   3.681   1.780   0.077 -0.6604  0.2772  0.3850
 4345TIP3    H134670   3.675   1.705   0.136  0.3380 -0.5205 -0.4917
 4345TIP3    H234671   3.608   1.837   0.103 -1.4556 -0.9972  1.0437
 4346TIP3   OH234672   2.039   4.800   2.731 -0.0245 -0.3124  0.6802
 4346TIP3    H134673   2.086   4.882   2.719  0.3110 -0.6039 -0.1131
 4346TIP3    H234674   2.093   4.750   2.793 -0.4987  0.2623  1.5650
 4347TIP3   OH234675   0.051   1.924   3.933 -0.2921  0.5732  0.1048
 4347TIP3    H134676  -0.037   1.952   3.958 -0.9655 -1.7028  0.4670
 4347TIP3    H234677   0.037   1.857   3.867  0.9586 -2.1174  2.3850
 4348TIP3   OH234678   4.939   3.760   2.738 -0.7236  0.3681  0.0838
 4348TIP3    H134679   5.007   3.726   2.680 -0.2617  1.0384  0.2189
 4348TIP3    H234680   4.943   3.855   2.726 -1.3273  0.4424  0.4383
 4349TIP3   OH234681   2.126   3.572   2.878  0.6556 -0.3484  0.6030
 4349TIP3    H134682   2.213   3.560   2.840  0.1592 -0.6300 -0.5068
 4349TIP3    H234683   2.132   3.533   2.965  2.3444  1.8535  1.5806
 4350TIP3   OH234684   0.410   2.527   2.047  0.5281 -0.7748 -0.0497
 4350TIP3    H134685   0.327   2.514   2.093  0.5289 -2.2245 -0.4309
 4350TIP3    H234686   0.419   2.622   2.041 -1.5650 -0.5781 -0.8360
 4351TIP3   OH234687   4.609   3.843   7.976  0.0031  0.8470  0.6565
 4351TIP3    H134688   4.576   3.932   7.972  0.4703  0.9803 -0.9994
 4351TIP3    H234689   4.702   3.852   7.995  0.4350  0.8372 -1.3063
 4352TIP3   OH234690   5.273   4.780   2.090  0.0115  0.3577  0.0582
 4352TIP3    H134691   5.233   4.732   2.162  2.0037 -2.9792 -0.8731
 4352TIP3    H234692   5.366   4.785   2.114  0.1891  2.1640 -0.8109
 4353TIP3   OH234693   6.649   4.168   2.685 -0.0366 -0.5200  0.3882
 4353TIP3    H134694   6.706   4.186   2.760 -0.9486 -2.0667  1.5307
 4353TIP3    H234695   6.594   4.095   2.714  0.4236 -2.0530 -2.2341
 4354TIP3   OH234696   6.466   4.449   1.042 -0.4780  0.6081  0.2012
 4354TIP3    H134697   6.414   4.388   0.989  2.0389  0.0205 -1.8292
 4354TIP3    H234698   6.455   4.534   0.999  1.6389  0.1149 -1.5788
 4355TIP3   OH234699   6.231   3.571   0.283  0.0728 -0.1039  0.4978
 4355TIP3    H134700   6.136   3.572   0.272  0.0627  0.8643  0.5505
 4355TIP3    H234701   6.266   3.564   0.195 -0.0372 -1.5242  0.5438
 4356TIP3   OH234702   6.516   4.955   1.496  0.0611  0.6178 -0.5690
 4356TIP3    H134703   6.503   5.043   1.530  0.4692  0.0724  1.0605
 4356TIP3    H234704   6.432   4.911   1.511  0.3128  0.3096 -0.0371
 4357TIP3   OH234705   6.461   6.400   1.696  0.4159  0.3141 -0.4548
 4357TIP3    H134706   6.528   6.372   1.634  0.7473  0.1458 -0.0286
 4357TIP3    H234707   6.429   6.483   1.661  0.3718  0.0618 -1.0182
 4358TIP3   OH234708   5.028   4.441   0.469  0.1527 -0.4428  0.0946
 4358TIP3    H134709   5.015   4.380   0.396 -0.5068 -0.2620  0.0498
 4358TIP3    H234710   5.042   4.385   0.545 -0.5366 -0.6582  0.0676
 4359TIP3   OH234711   4.704   2.298   2.875 -0.1948  0.6054  0.0102
 4359TIP3    H134712   4.667   2.209   2.877  0.6727  0.2421  0.6833
 4359TIP3    H234713   4.664   2.339   2.798  0.8231 -1.0065 -1.4525
 4360TIP3   OH234714   3.260   1.754   8.467  0.2221 -0.0652 -0.0149
 4360TIP3    H134715   3.254   1.725   8.558  1.7551 -0.5117 -0.0237
 4360TIP3    H234716   3.348   1.728   8.440  0.6921  2.1870 -0.8822
 4361TIP3   OH234717   1.470   5.686   2.752 -0.6815  0.4648  0.4756
 4361TIP3    H134718   1.508   5.771   2.777 -0.4387  1.0023 -1.5146
 4361TIP3    H234719   1.545   5.632   2.729 -0.8482 -0.2831  1.5876
 4362TIP3   OH234720   1.800   2.543   1.338  0.6406 -0.4290 -0.7845
 4362TIP3    H134721   1.744   2.494   1.398  1.0082  0.0956 -0.0017
 4362TIP3    H234722   1.819   2.625   1.384  2.1479 -0.6460 -0.9588
 4363TIP3   OH234723   4.953   6.279   2.166  0.0237  0.3482  0.2058
 4363TIP3    H134724   4.889   6.348   2.149 -0.9697 -0.5324  0.2417
 4363TIP3    H234725   5.027   6.300   2.108  0.4321  2.2965  1.3582
 4364TIP3   OH234726   4.966   1.763   1.118  0.5305  0.5784 -0.0608
 4364TIP3    H134727   4.938   1.700   1.184 -0.4468 -0.4031 -1.3734
 4364TIP3    H234728   4.911   1.839   1.133  0.3916  0.4090  0.3184
 4365TIP3   OH234729   6.387   5.340   0.135 -0.0702  0.0460  0.1000
 4365TIP3    H134730   6.467   5.337   0.082 -0.8024 -0.2260 -1.0066
 4365TIP3    H234731   6.389   5.427   0.176  0.3802  0.3638 -0.5692
 4366TIP3   OH234732   1.296   2.085   0.204  0.1043  0.0060  0.5176
 4366TIP3    H134733   1.356   2.134   0.148 -2.5801  2.2068 -0.6203
 4366TIP3    H234734   1.256   2.020   0.145 -1.8211  1.5216  0.0412
 4367TIP3   OH234735   5.774   0.921   3.932 -0.2607  0.1854 -0.1809
 4367TIP3    H134736   5.683   0.940   3.911 -0.4985 -1.6082 -0.9613
 4367TIP3    H234737   5.803   0.996   3.984 -2.5711  0.1342  1.3014
 4368TIP3   OH234738   2.411   5.397   1.352 -0.1807 -0.0528 -0.0122
 4368TIP3    H134739   2.485   5.357   1.306 -0.1981 -0.9202  0.6836
 4368TIP3    H234740   2.442   5.407   1.443 -0.0907  1.7536 -0.1961
 4369TIP3   OH234741   1.603   0.817   2.665 -0.4381 -0.4952 -0.4572
 4369TIP3    H134742   1.662   0.850   2.733  0.8223 -2.3820 -0.5543
 4369TIP3    H234743   1.531   0.777   2.713  0.4291 -1.7884 -0.1550
 4370TIP3   OH234744   6.844   5.349   7.973  0.2105 -0.6574 -0.2340
 4370TIP3    H134745   6.814   5.281   7.913  0.8023 -1.6346  0.5422
 4370TIP3    H234746   6.927   5.316   8.007  0.1481  0.1116  0.7153
 4371TIP3   OH234747   0.029   5.273   0.146 -0.3873 -0.1919  0.2612
 4371TIP3    H134748   0.009   5.191   0.102 -1.5863 -0.0558  0.5330
 4371TIP3    H234749  -0.047   5.291   0.200 -0.9931  2.0463 -1.1924
 4372TIP3   OH234750   1.944   3.331   0.772 -0.9942 -0.5242  0.1353
 4372TIP3    H134751   1.987   3.354   0.854  0.3706  0.1814 -0.7194
 4372TIP3    H234752   1.855   3.306   0.796 -0.4162 -0.9969  1.8804
 4373TIP3   OH234753   5.521   1.076   1.330  0.1016 -0.0013 -0.1647
 4373TIP3    H134754   5.585   1.128   1.281  0.8369 -2.3573 -1.9119
 4373TIP3    H234755   5.569   1.044   1.406  0.7662 -0.9788 -0.9694
 4374TIP3   OH234756   0.495   6.829   2.538  0.2541  0.6621 -0.8455
 4374TIP3    H134757   0.485   6.751   2.483  1.4164  0.5007 -0.8453
 4374TIP3    H234758   0.406   6.862   2.548 -0.6297 -1.9870  1.1133
 4375TIP3   OH234759   4.096   4.753   8.505 -0.3541  0.0009  0.3171
 4375TIP3    H134760   4.113   4.829   8.449 -1.6083 -0.2840 -0.4760
 4375TIP3    H234761   4.161   4.761   8.575  0.3227  1.1415 -0.3981
 4376TIP3   OH234762   5.955   4.024   0.820 -0.3787  0.4497 -0.1601
 4376TIP3    H134763   5.880   4.058   0.771  0.9700  0.3944 -2.4276
 4376TIP3    H234764   6.030   4.076   0.788  1.0499 -1.6713 -0.4672
 4377TIP3   OH234765   3.875   3.202   1.283 -0.0772 -0.0691  0.0355
 4377TIP3    H134766   3.951   3.183   1.338  1.0696  2.0224 -0.7334
 4377TIP3    H234767   3.851   3.292   1.304 -1.3441 -0.1441 -0.9195
 4378TIP3   OH234768   0.446   3.296   3.236  0.5707  0.1964 -0.2842
 4378TIP3    H134769   0.431   3.239   3.161  1.4900 -0.8243  0.2576
 4378TIP3    H234770   0.538   3.321   3.228  0.5536  0.4379  0.2583
 4379TIP3   OH234771   3.423   0.227   3.252  0.2834 -0.2889 -0.1712
 4379TIP3    H134772   3.433   0.225   3.157 -0.6682  1.7816 -0.3837
 4379TIP3    H234773   3.508   0.198   3.286  1.6586  1.6771 -1.6960
 4380TIP3   OH234774   3.196   2.516   1.416  0.5163  0.3374 -0.3624
 4380TIP3    H134775   3.124   2.487   1.359  1.0638 -1.0486 -0.3933
 4380TIP3    H234776   3.159   2.515   1.504  0.4232 -0.1241 -0.4057
 4381TIP3   OH234777   4.659   5.643   2.099  0.1422 -0.1503  0.5336
 4381TIP3    H134778   4.594   5.630   2.168  1.5317  0.2474  1.9844
 4381TIP3    H234779   4.630   5.723   2.054  0.7711  1.3060  2.5903
 4382TIP3   OH234780   5.483   5.352   2.114 -0.3299  0.3067 -0.3864
 4382TIP3    H134781   5.524   5.433   2.084 -0.8366  0.3973 -0.8494
 4382TIP3    H234782   5.406   5.381   2.162 -1.5921  0.0743 -2.1677
 4383TIP3   OH234783   5.170   6.222   8.491 -0.2938  0.1881 -0.3108
 4383TIP3    H134784   5.259   6.243   8.462  0.1043  1.2739  1.5209
 4383TIP3    H234785   5.114   6.277   8.436  0.2757  0.6637 -0.4266
 4384TIP3   OH234786   5.119   1.733   0.511 -0.1273 -0.3828 -0.7672
 4384TIP3    H134787   5.139   1.668   0.444  0.5253 -1.4749  0.4181
 4384TIP3    H234788   5.165   1.812   0.483  2.6892 -1.6617 -0.2046
 4385TIP3   OH234789   5.425   5.108   1.308  0.2687  0.0877 -0.0491
 4385TIP3    H134790   5.345   5.068   1.342  0.0846  0.5950  0.1174
 4385TIP3    H234791   5.395   5.166   1.238  0.5190  0.0537 -0.1855
 4386TIP3   OH234792   2.470   1.180   0.254  0.1895 -0.3036  0.7505
 4386TIP3    H134793   2.527   1.123   0.203  1.8807 -0.5750  2.8138
 4386TIP3    H234794   2.529   1.234   0.306 -1.1708  4.6499 -2.1107
 4387TIP3   OH234795   6.769   1.232   1.318 -0.6116 -0.4574  0.1843
 4387TIP3    H134796   6.798   1.314   1.276 -0.6005 -0.1746  0.7393
 4387TIP3    H234797   6.838   1.211   1.380  0.4432 -2.0598 -1.4480
 4388TIP3   OH234798   2.476   2.557   1.288 -0.3165 -0.3605 -0.0563
 4388TIP3    H134799   2.451   2.494   1.355 -0.1635  0.5072  0.8482
 4388TIP3    H234800   2.403   2.558   1.227 -0.4049 -1.2572  0.0186
 4389TIP3   OH234801   2.660   5.789   3.493 -0.3597 -0.3952 -0.1962
 4389TIP3    H134802   2.722   5.718   3.509  0.3039 -0.0388 -1.0199
 4389TIP3    H234803   2.580   5.763   3.538 -0.2088 -1.7693 -0.6718
 4390TIP3   OH234804   0.911   5.002   8.575  0.5468 -0.0682  0.0564
 4390TIP3    H134805   0.891   5.044   8.659 -2.4328  0.9141 -1.0146
 4390TIP3    H234806   0.905   4.909   8.593  0.3379  0.1202  1.0298
 4391TIP3   OH234807   6.167   0.728   8.498 -0.2775  0.2555  1.0910
 4391TIP3    H134808   6.211   0.806   8.531 -1.6029  1.2344  0.6215
 4391TIP3    H234809   6.087   0.761   8.456  0.4471 -1.0723 -1.5308
 4392TIP3   OH234810   3.613   5.007   3.901 -1.0343 -0.3089  0.9231
 4392TIP3    H134811   3.617   4.964   3.986 -2.0747 -0.4989  0.8997
 4392TIP3    H234812   3.704   5.019   3.875 -0.7032 -0.2046  2.0804
 4393TIP3   OH234813   6.514   4.866   0.079  0.2915  0.0537  0.4859
 4393TIP3    H134814   6.574   4.792   0.072 -1.5370 -1.5540  1.0193
 4393TIP3    H234815   6.518   4.893   0.170  1.8182  1.4380  0.0580
 4394TIP3   OH234816   5.896   0.528   3.390  0.3434  0.9811 -0.7929
 4394TIP3    H134817   5.963   0.594   3.375  0.3092  1.4001  0.7380
 4394TIP3    H234818   5.896   0.515   3.485  0.5989 -1.4776 -1.0668
 4395TIP3   OH234819   2.639   6.503   3.031 -0.5798  0.3763  0.4487
 4395TIP3    H134820   2.721   6.526   3.074  0.1733 -0.7407 -0.3109
 4395TIP3    H234821   2.606   6.585   2.994  1.0381  0.5777 -0.6165
 4396TIP3   OH234822   4.501   3.357   2.591 -0.2995 -0.1614  0.0803
 4396TIP3    H134823   4.416   3.383   2.627 -0.2514  0.6858 -0.3783
 4396TIP3    H234824   4.521   3.274   2.634 -2.1598 -1.2889 -1.0629
 4397TIP3   OH234825   0.090   4.161   0.496 -0.1976  0.6058  0.1323
 4397TIP3    H134826   0.021   4.096   0.489  0.5611 -0.1179 -0.9363
 4397TIP3    H234827   0.109   4.167   0.589 -0.0701 -0.9380  0.2190
 4398TIP3   OH234828   4.119   6.006   3.511  0.1488  0.2698 -0.3775
 4398TIP3    H134829   4.184   5.975   3.574  0.0318 -3.4280 -1.8641
 4398TIP3    H234830   4.090   6.090   3.547  2.2216 -0.2059  2.8594
 4399TIP3   OH234831   2.672   0.638   1.107 -0.4038 -0.4076  0.0134
 4399TIP3    H134832   2.703   0.596   1.027 -0.9750 -0.1369 -0.3600
 4399TIP3    H234833   2.654   0.565   1.167 -1.2652 -0.7043 -0.5839
 4400TIP3   OH234834   1.637   3.470   1.210 -0.2900 -0.0168  0.6034
 4400TIP3    H134835   1.720   3.477   1.256  0.3805  0.6789 -0.6675
 4400TIP3    H234836   1.640   3.540   1.144 -2.3490  0.7556  1.2410
 4401TIP3   OH234837   3.456   5.425   2.369 -0.4702  0.7697  0.5222
 4401TIP3    H134838   3.484   5.468   2.449  3.6524 -1.7049  0.6735
 4401TIP3    H234839   3.407   5.349   2.398 -0.7845  0.9892  0.5751
 4402TIP3   OH234840   2.330   3.311   0.905 -0.0593 -0.0264  0.1296
 4402TIP3    H134841   2.256   3.298   0.964 -1.4657  0.7485 -1.3735
 4402TIP3    H234842   2.290   3.318   0.818  1.7315  1.0846 -0.6552
 4403TIP3   OH234843   1.172   6.457   3.738  0.3852 -0.0519  0.0471
 4403TIP3    H134844   1.148   6.456   3.645 -0.9716  1.0536  0.3565
 4403TIP3    H234845   1.221   6.376   3.751  1.4941  0.2550 -1.8600
 4404TIP3   OH234846   6.454   6.481   3.657 -0.0900  0.7168  0.0363
 4404TIP3    H134847   6.454   6.571   3.626  0.9046  0.2325 -1.4628
 4404TIP3    H234848   6.546   6.461   3.675  0.1237 -0.8264 -2.3454
 4405TIP3   OH234849   3.986   5.156   0.193 -0.0837  0.0852 -0.4500
 4405TIP3    H134850   3.919   5.131   0.130 -0.2536 -0.1121 -0.1923
 4405TIP3    H234851   3.950   5.132   0.278  0.5146 -0.4621 -0.3416
 4406TIP3   OH234852   4.021   1.741   0.948  0.3728 -0.5649  0.3167
 4406TIP3    H134853   4.070   1.822   0.937 -0.8395  0.3596  1.4187
 4406TIP3    H234854   3.948   1.749   0.887 -0.0347 -0.5801  0.7938
 4407TIP3   OH234855   5.901   4.031   1.806 -0.0677  0.1544  0.1928
 4407TIP3    H134856   5.948   4.054   1.886 -0.3884 -0.8439  0.6768
 4407TIP3    H234857   5.890   3.936   1.811 -1.3388  0.2616 -0.3462
 4408TIP3   OH234858   2.574   1.903   1.182  0.0060 -0.2309 -0.6182
 4408TIP3    H134859   2.631   1.875   1.254 -2.6246 -1.2301  1.2324
 4408TIP3    H234860   2.581   1.998   1.182  1.6539 -0.3133 -0.5016
 4409TIP3   OH234861   1.669   6.351   2.583 -0.1030 -0.3607  0.6366
 4409TIP3    H134862   1.705   6.439   2.574 -0.3761 -0.4293 -1.9732
 4409TIP3    H234863   1.592   6.350   2.526 -1.0317 -1.8469  1.8386
 4410TIP3   OH234864   3.215   1.992   2.199 -0.6903  0.3652 -0.8608
 4410TIP3    H134865   3.153   1.926   2.167 -0.0128  0.4813 -2.5563
 4410TIP3    H234866   3.180   2.075   2.166 -0.9767  0.7455  0.3616
 4411TIP3   OH234867   4.142   5.936   0.203  0.2670 -0.3125  0.1683
 4411TIP3    H134868   4.209   5.874   0.174  0.3601  1.0134 -2.7189
 4411TIP3    H234869   4.060   5.898   0.172 -0.0450 -0.5217  1.2088
 4412TIP3   OH234870   4.923   5.784   2.065 -0.6945 -0.7082 -0.1776
 4412TIP3    H134871   4.934   5.738   1.982 -2.5964  1.4036 -1.7367
 4412TIP3    H234872   4.840   5.752   2.099 -1.2059  0.3100 -0.4397
 4413TIP3   OH234873   4.323   3.120   1.335  0.4758 -0.6048  0.0483
 4413TIP3    H134874   4.378   3.102   1.411  0.5229 -0.7419 -0.0195
 4413TIP3    H234875   4.358   3.065   1.265  0.0722 -0.9054  0.0843
 4414TIP3   OH234876   4.334   4.777   1.449  0.3697 -0.1590  0.5392
 4414TIP3    H134877   4.243   4.807   1.456  0.0595 -0.2681 -1.9250
 4414TIP3    H234878   4.337   4.730   1.365  3.0231  1.1415 -0.2140
 4415TIP3   OH234879   5.961   0.397   7.994 -0.2297 -0.0215  0.1778
 4415TIP3    H134880   5.993   0.413   7.905 -0.5052  1.6788  0.3508
 4415TIP3    H234881   6.035   0.358   8.040  0.9625  1.9962  0.0391
 4416TIP3   OH234882   3.037   2.703   0.937  0.0275 -0.1453  0.6567
 4416TIP3    H134883   3.049   2.612   0.910  0.9760  0.2150 -0.1839
 4416TIP3    H234884   3.067   2.704   1.028 -0.0829 -0.6903  0.7071
 4417TIP3   OH234885   1.229   0.340   3.746  0.4081 -0.6513 -0.2571
 4417TIP3    H134886   1.220   0.362   3.839  0.1960  0.5521 -0.5545
 4417TIP3    H234887   1.316   0.373   3.722  0.6475 -1.3589 -0.3869
 4418TIP3   OH234888   0.964   1.492   2.930  0.4171 -0.8039  0.4507
 4418TIP3    H134889   0.892   1.473   2.990  0.1357 -1.2620 -0.0200
 4418TIP3    H234890   0.956   1.425   2.862  1.1626 -0.7292  0.2829
 4419TIP3   OH234891   4.402   5.516   0.894 -0.0647  0.6208  0.4308
 4419TIP3    H134892   4.412   5.421   0.890  2.2096  0.7037  2.1428
 4419TIP3    H234893   4.308   5.530   0.908 -0.3559 -1.3903  0.7751
 4420TIP3   OH234894   0.869   0.489   8.192 -0.1684 -0.2207  0.0158
 4420TIP3    H134895   0.884   0.533   8.275  1.4065  1.0130 -0.8736
 4420TIP3    H234896   0.825   0.555   8.137  0.4982 -0.3644 -0.7152
 4421TIP3   OH234897   4.499   4.068   3.626 -0.2100  0.6461 -0.1816
 4421TIP3    H134898   4.453   4.055   3.542 -0.6694  0.4010  0.1015
 4421TIP3    H234899   4.438   4.119   3.679  0.4562  1.5893 -0.3088
 4422TIP3   OH234900   4.954   2.333   1.145 -0.7827 -0.0041 -0.1072
 4422TIP3    H134901   5.043   2.300   1.132 -0.9987 -0.3006 -0.9195
 4422TIP3    H234902   4.960   2.427   1.126 -0.3235  0.3089  1.4513
 4423TIP3   OH234903   5.489   1.051   2.107 -0.9773  0.0700  0.1991
 4423TIP3    H134904   5.517   0.964   2.079  1.3856  0.5368  0.8804
 4423TIP3    H234905   5.568   1.091   2.144 -1.8253  2.7318 -0.6298
 4424TIP3   OH234906   2.778   0.226   1.979 -0.2745 -0.3412 -0.4751
 4424TIP3    H134907   2.790   0.297   2.042 -0.1013 -0.4389 -0.3960
 4424TIP3    H234908   2.697   0.183   2.006 -1.7412  1.3281 -1.9819
 4425TIP3   OH234909   3.321   2.624   0.868 -0.0037 -0.1099 -0.4791
 4425TIP3    H134910   3.305   2.534   0.838 -0.8556 -0.3250  0.5352
 4425TIP3    H234911   3.258   2.677   0.819 -2.0774 -0.5881  1.5073
 4426TIP3   OH234912   2.502   5.217   1.617  0.2495  0.8661  0.1573
 4426TIP3    H134913   2.578   5.266   1.648 -0.2760  0.4444  2.2938
 4426TIP3    H234914   2.532   5.126   1.614  0.1535  0.8439 -0.1476
 4427TIP3   OH234915   3.597   3.593   0.136  0.2982 -0.3841  0.2844
 4427TIP3    H134916   3.610   3.501   0.113 -0.4842 -0.3152 -0.5324
 4427TIP3    H234917   3.508   3.612   0.106  0.9200  0.9946 -0.8034
 4428TIP3   OH234918   2.094   1.846   0.525 -0.0766 -0.3233 -0.1684
 4428TIP3    H134919   2.152   1.879   0.593  0.4977  0.5252 -1.0469
 4428TIP3    H234920   2.028   1.915   0.514  0.1217 -0.2269 -0.8027
 4429TIP3   OH234921   4.763   5.690   1.129  0.0259  0.0761 -0.0763
 4429TIP3    H134922   4.783   5.633   1.055 -0.0626 -0.0392 -0.0109
 4429TIP3    H234923   4.823   5.764   1.118 -0.9466  0.7442 -1.0483
 4430TIP3   OH234924   2.468   5.677   0.800 -0.5558  0.0954 -0.8504
 4430TIP3    H134925   2.535   5.696   0.866 -1.4936  0.5371 -0.0002
 4430TIP3    H234926   2.484   5.586   0.775  0.0598  0.0475 -0.3170
 4431TIP3   OH234927   4.190   6.229   8.510  0.6199 -0.2645 -0.6743
 4431TIP3    H134928   4.171   6.181   8.430  0.4593  0.7254 -1.2413
 4431TIP3    H234929   4.258   6.292   8.485 -0.6401  1.2284 -0.4793
 4432TIP3   OH234930   5.666   2.043   2.012  0.0227 -0.3000  0.2280
 4432TIP3    H134931   5.734   1.996   1.964 -1.9096 -0.4094 -2.7092
 4432TIP3    H234932   5.606   1.974   2.042 -0.9141 -0.0119 -0.8962
 4433TIP3   OH234933   4.466   4.858   0.473 -0.1934 -0.1032  0.0785
 4433TIP3    H134934   4.418   4.776   0.484 -1.3150  0.2458 -1.7634
 4433TIP3    H234935   4.401   4.920   0.438  0.9715  1.1536  0.0342
 4434TIP3   OH234936   4.178   1.265   0.980  0.1553  0.6328 -0.0672
 4434TIP3    H134937   4.273   1.264   0.993  0.1712  1.9610  0.0991
 4434TIP3    H234938   4.147   1.335   1.038 -1.1762 -1.0215  1.3372
 4435TIP3   OH234939   4.761   6.385   0.157 -0.4697  0.3488 -0.1977
 4435TIP3    H134940   4.737   6.360   0.068 -0.8349  0.1662 -0.0459
 4435TIP3    H234941   4.828   6.321   0.182  1.2347  1.6475 -1.1168
 4436TIP3   OH234942   0.455   2.242   3.279  0.0780 -0.0311  0.5226
 4436TIP3    H134943   0.516   2.236   3.205 -0.0883 -0.3268  0.4094
 4436TIP3    H234944   0.392   2.309   3.253  0.8060  0.8685  0.9743
 4437TIP3   OH234945   5.684   5.291   2.460  0.1697  0.2826 -0.1296
 4437TIP3    H134946   5.717   5.295   2.370  0.0458 -1.4438 -0.2849
 4437TIP3    H234947   5.703   5.202   2.488 -0.0254  0.7258  1.4854
 4438TIP3   OH234948   5.472   0.766   2.721 -0.4812  0.1408 -0.0568
 4438TIP3    H134949   5.472   0.734   2.811  0.4279  1.6548  0.5239
 4438TIP3    H234950   5.559   0.803   2.708 -0.6370  0.0748 -1.5329
 4439TIP3   OH234951   6.646   0.272   0.566 -0.1423 -0.3841 -0.3474
 4439TIP3    H134952   6.730   0.290   0.609  0.2073  0.4017 -1.3213
 4439TIP3    H234953   6.670   0.247   0.477 -1.0064  3.4028 -1.8260
 4440TIP3   OH234954   4.960   2.503   2.442 -0.0999  0.1401 -0.0507
 4440TIP3    H134955   5.022   2.501   2.515  1.8518 -0.6749 -1.6294
 4440TIP3    H234956   4.964   2.415   2.405 -2.6131 -0.1001  0.0408
 4441TIP3   OH234957   3.701   0.394   0.419  0.3217  0.1129  0.2183
 4441TIP3    H134958   3.695   0.407   0.513 -1.1173  0.9410  0.0387
 4441TIP3    H234959   3.698   0.482   0.382 -0.3034 -0.2503 -0.6334
 4442TIP3   OH234960   1.510   0.930   1.446 -0.2485 -0.5500  0.0653
 4442TIP3    H134961   1.519   1.014   1.492  0.0164 -0.9874  0.8310
 4442TIP3    H234962   1.421   0.901   1.468 -0.2433 -0.5978  0.0228
 4443TIP3   OH234963   6.809   0.832   8.512  0.4899 -0.2524  0.0441
 4443TIP3    H134964   6.797   0.875   8.427  0.9688 -0.2074 -0.0036
 4443TIP3    H234965   6.856   0.896   8.565  1.1152 -0.6643  0.0052
 4444TIP3   OH234966   3.330   5.576   0.982  0.5119  0.2466 -0.5098
 4444TIP3    H134967   3.364   5.665   0.974  1.5267 -0.0510  0.2033
 4444TIP3    H234968   3.306   5.552   0.892  0.2028  1.2396 -0.7048
 4445TIP3   OH234969   4.976   3.763   2.018  0.5263  0.0257  0.4323
 4445TIP3    H134970   5.014   3.675   2.010  1.0670  0.1118  1.7011
 4445TIP3    H234971   4.979   3.799   1.929 -0.8335 -1.6613 -0.3595
 4446TIP3   OH234972   6.499   2.088   3.527  0.0970  0.9457 -0.0416
 4446TIP3    H134973   6.574   2.041   3.563  0.6727  0.9816 -1.1323
 4446TIP3    H234974   6.442   2.019   3.493 -0.0183  0.9456  0.1548
 4447TIP3   OH234975   0.685   5.533   2.631 -0.3291  0.2796  0.1758
 4447TIP3    H134976   0.624   5.491   2.692  0.4036 -2.6954 -0.9701
 4447TIP3    H234977   0.755   5.567   2.687  0.4767 -2.6261  1.1090
 4448TIP3   OH234978   3.319   4.224   1.675 -0.6371 -0.1186  0.0181
 4448TIP3    H134979   3.399   4.271   1.654 -1.2056  0.2995 -1.3689
 4448TIP3    H234980   3.271   4.284   1.733 -0.0368 -0.3109  0.7337
 4449TIP3   OH234981   2.296   3.782   0.322  0.1083  0.1292 -0.3736
 4449TIP3    H134982   2.261   3.736   0.245 -0.6293  0.7157 -0.3960
 4449TIP3    H234983   2.344   3.856   0.285  0.1022  0.1783 -0.2816
 4450TIP3   OH234984   3.497   6.078   3.041  0.1090  0.3069  0.3085
 4450TIP3    H134985   3.416   6.030   3.022  0.9183 -0.4650 -1.4750
 4450TIP3    H234986   3.510   6.134   2.965  0.6102  1.3771  1.1572
 4451TIP3   OH234987   5.808   1.173   2.852  0.2511 -0.5997  0.4580
 4451TIP3    H134988   5.888   1.153   2.804  1.2066  0.3677  1.6000
 4451TIP3    H234989   5.826   1.256   2.896 -2.0459  0.6911 -0.7685
 4452TIP3   OH234990   3.767   1.416   3.493 -0.2110 -0.3870 -0.4208
 4452TIP3    H134991   3.672   1.413   3.491 -0.1844 -1.4348 -0.3054
 4452TIP3    H234992   3.788   1.446   3.582 -0.4228  0.1196 -0.5345
 4453TIP3   OH234993   2.588   6.662   0.153 -0.9487 -0.3542 -0.0938
 4453TIP3    H134994   2.503   6.660   0.110 -1.1691 -1.2803  0.3538
 4453TIP3    H234995   2.607   6.755   0.166 -1.7321 -0.1355 -0.5082
 4454TIP3   OH234996   1.117   5.164   2.918  0.2621  0.0426  0.3087
 4454TIP3    H134997   1.090   5.178   2.827 -1.2333 -0.8203  0.5941
 4454TIP3    H234998   1.112   5.250   2.959 -0.2857  0.2124 -0.1121
 4455TIP3   OH234999   3.690   3.609   2.074  0.4953 -0.5653 -0.0704
 4455TIP3    H135000   3.653   3.524   2.050 -0.2486 -0.7254  1.4926
 4455TIP3    H235001   3.765   3.588   2.129 -0.2915 -0.2541  1.1765
 4456TIP3   OH235002   1.288   6.057   0.502  0.1346  0.3753 -0.1344
 4456TIP3    H135003   1.322   6.145   0.518 -0.7908  0.5169  1.2525
 4456TIP3    H235004   1.364   6.000   0.514  0.6684  0.9426 -0.6961
 4457TIP3   OH235005   1.925   5.791   0.073 -0.2230 -1.1794  0.1833
 4457TIP3    H135006   1.981   5.726   0.030  0.0145 -1.0192  0.2430
 4457TIP3    H235007   1.979   5.870   0.075 -1.4119 -0.1901 -2.2420
 4458TIP3   OH235008   4.809   2.799   8.418 -0.5108 -0.1997 -0.1943
 4458TIP3    H135009   4.783   2.717   8.374 -1.9049  0.3020 -0.3551
 4458TIP3    H235010   4.743   2.862   8.390  0.9475  1.1836 -0.6362
 4459TIP3   OH235011   5.627   6.493   2.580  0.1864  0.0391  0.1481
 4459TIP3    H135012   5.577   6.516   2.658  0.4737 -1.1878  0.7233
 4459TIP3    H235013   5.572   6.429   2.534  0.8645 -0.7298  0.3816
 4460TIP3   OH235014   1.609   3.635   0.977 -0.2514  0.0228 -0.3215
 4460TIP3    H135015   1.617   3.726   1.004  0.6829  0.2982 -1.4886
 4460TIP3    H235016   1.608   3.637   0.882  0.2283 -1.2185 -0.3727
 4461TIP3   OH235017   3.186   0.105   0.358  0.2202 -0.1552  0.1013
 4461TIP3    H135018   3.215   0.184   0.312 -0.8832  0.8899  1.1531
 4461TIP3    H235019   3.115   0.071   0.303 -1.1082  1.1022  0.9707
 4462TIP3   OH235020   1.294   1.396   8.029 -0.0863 -0.2113  0.1982
 4462TIP3    H135021   1.243   1.355   7.959  0.5344 -1.2780  0.3370
 4462TIP3    H235022   1.240   1.384   8.107 -0.0213 -0.5412  0.1936
 4463TIP3   OH235023   1.806   2.871   3.957  0.3488 -0.3116 -0.0599
 4463TIP3    H135024   1.710   2.875   3.959  0.3971  2.7863  2.6300
 4463TIP3    H235025   1.831   2.827   4.038  1.1674  2.4022  1.2571
 4464TIP3   OH235026   1.323   6.823   2.624 -0.8424  0.1209 -0.2572
 4464TIP3    H135027   1.374   6.832   2.704 -0.1279  0.2538 -0.7154
 4464TIP3    H235028   1.374   6.763   2.569 -1.6872 -0.5610 -0.3245
 4465TIP3   OH235029   3.828   2.229   2.774 -0.3054 -0.1088  0.0476
 4465TIP3    H135030   3.838   2.319   2.805 -2.4083 -0.0215  0.6055
 4465TIP3    H235031   3.869   2.229   2.687  0.5520  1.1213  0.4236
 4466TIP3   OH235032   2.078   4.381   8.154 -0.6248 -0.5181 -1.1553
 4466TIP3    H135033   2.074   4.432   8.073 -0.8394  2.0663  0.3713
 4466TIP3    H235034   2.158   4.330   8.146  0.1050  0.7230 -2.4329
 4467TIP3   OH235035   3.573   6.243   2.805  0.3052 -0.5234  0.6025
 4467TIP3    H135036   3.542   6.167   2.756 -0.4646  0.0757  0.1391
 4467TIP3    H235037   3.637   6.284   2.746  1.7325 -1.5243  1.3872
 4468TIP3   OH235038   1.203   4.488   3.428  0.2472 -0.9107  0.2609
 4468TIP3    H135039   1.218   4.581   3.440  0.1873 -0.9774  0.8912
 4468TIP3    H235040   1.188   4.454   3.516 -1.4570 -1.2201 -0.1091
 4469TIP3   OH235041   4.530   1.750   2.797  0.5968  0.8644 -0.0019
 4469TIP3    H135042   4.454   1.748   2.855  0.1976 -0.0915 -0.5446
 4469TIP3    H235043   4.500   1.711   2.715  2.2952 -1.9001  0.5428
 4470TIP3   OH235044   4.356   4.542   1.203  0.1074  0.5792 -0.3309
 4470TIP3    H135045   4.388   4.596   1.130  0.4673  0.3268 -0.3616
 4470TIP3    H235046   4.435   4.518   1.251  0.0124 -0.4089 -0.6472
 4471TIP3   OH235047   2.913   4.813   2.019  0.2793 -0.1182  0.0535
 4471TIP3    H135048   2.953   4.738   2.064 -0.7200  0.0594  1.2778
 4471TIP3    H235049   2.940   4.803   1.927  0.4084 -1.8180  0.2463
 4472TIP3   OH235050   1.140   2.788   7.961 -0.2866  0.5830 -0.1389
 4472TIP3    H135051   1.064   2.734   7.940  1.4227 -1.9131 -0.4225
 4472TIP3    H235052   1.120   2.873   7.923 -3.0091  0.1121  0.0299
 4473TIP3   OH235053   1.945   1.204   2.432  0.1742 -0.0751  0.0124
 4473TIP3    H135054   1.903   1.273   2.484  1.9604  1.3984 -0.4254
 4473TIP3    H235055   1.929   1.230   2.341  0.1271 -0.7346 -0.1753
 4474TIP3   OH235056   1.645   0.023   0.374  0.2459  0.0547 -0.9912
 4474TIP3    H135057   1.568  -0.030   0.351 -0.1708  0.1214  0.2211
 4474TIP3    H235058   1.648   0.091   0.306 -1.5278  0.8263 -0.3429
 4475TIP3   OH235059   2.907   5.217   1.248  0.5129 -0.3906 -0.1463
 4475TIP3    H135060   2.952   5.302   1.246  0.3760 -0.2574  1.3971
 4475TIP3    H235061   2.881   5.202   1.157 -2.1019  2.6654 -0.0829
 4476TIP3   OH235062   2.905   4.286   0.264 -0.2156 -0.1228 -0.0118
 4476TIP3    H135063   2.965   4.308   0.192 -0.4753  1.5632  0.2459
 4476TIP3    H235064   2.897   4.190   0.260  2.4041 -0.4198 -0.1160
 4477TIP3   OH235065   6.558   2.632   2.952  0.0569  0.5043 -0.1992
 4477TIP3    H135066   6.477   2.660   2.994  0.5198 -0.2978  1.3379
 4477TIP3    H235067   6.548   2.537   2.942  0.0107  0.6562 -1.8729
 4478TIP3   OH235068   0.286   5.044   3.782 -0.1104 -0.3504  0.5270
 4478TIP3    H135069   0.313   5.104   3.851  1.1562 -1.1478  0.7580
 4478TIP3    H235070   0.238   4.975   3.827  0.6842 -0.8515  0.6359
 4479TIP3   OH235071   2.815   4.721   2.901 -0.0939 -0.2741  0.1455
 4479TIP3    H135072   2.903   4.686   2.888 -0.7858 -2.2139  0.4146
 4479TIP3    H235073   2.825   4.786   2.971  1.7082  2.2447 -2.2403
 4480TIP3   OH235074   1.396   6.400   1.364 -0.3437  0.2935 -0.4062
 4480TIP3    H135075   1.469   6.460   1.352 -0.0958 -0.2766 -2.0107
 4480TIP3    H235076   1.326   6.436   1.308 -1.1099  0.5189  0.6669
 4481TIP3   OH235077   0.112   0.026   1.391  0.6299  0.1964 -0.2429
 4481TIP3    H135078   0.049   0.038   1.320  1.1221 -0.2802 -0.7659
 4481TIP3    H235079   0.060  -0.013   1.462 -0.1602  1.8662  0.1599
 4482TIP3   OH235080   1.135   2.823   2.339 -0.1331 -0.1265  0.4063
 4482TIP3    H135081   1.179   2.763   2.399  1.5747  0.9202  0.2662
 4482TIP3    H235082   1.140   2.778   2.254  0.1729 -0.2583  0.4915
 4483TIP3   OH235083   0.103   5.160   2.314 -1.2105  0.1010  0.0666
 4483TIP3    H135084   0.178   5.213   2.288 -1.4302  0.9392  1.0794
 4483TIP3    H235085   0.138   5.098   2.378 -1.2060 -0.1169 -0.1466
 4484TIP3   OH235086   0.397   2.474   1.084  0.1317  0.1717  0.0279
 4484TIP3    H135087   0.488   2.447   1.096  0.3338  0.9665  0.3222
 4484TIP3    H235088   0.400   2.535   1.010 -0.3897 -0.9341 -0.9314
 4485TIP3   OH235089   1.457   2.193   0.006 -0.4890 -0.1466 -0.3286
 4485TIP3    H135090   1.507   2.120  -0.031 -1.1349 -0.4105 -0.7059
 4485TIP3    H235091   1.497   2.271  -0.031  0.2243 -0.3076  0.0967
 4486TIP3   OH235092   6.129   2.425   1.169  0.1927 -0.3688 -0.1243
 4486TIP3    H135093   6.214   2.386   1.190  0.1868 -0.3970 -0.1534
 4486TIP3    H235094   6.118   2.495   1.233  1.3859  1.2826 -1.6168
 4487TIP3   OH235095   4.418   3.751   4.084  0.4909 -0.2165  0.3164
 4487TIP3    H135096   4.479   3.728   4.014 -0.8733 -1.9171 -0.3846
 4487TIP3    H235097   4.338   3.705   4.061 -1.0965  1.9826  1.1867
 4488TIP3   OH235098   4.008   4.463   4.322 -0.2689 -0.0691  0.0417
 4488TIP3    H135099   4.075   4.404   4.286 -0.4972 -0.1060 -0.3337
 4488TIP3    H235100   4.055   4.545   4.339  0.0489 -0.3614  0.5686
 4489TIP3   OH235101   6.760   1.641   0.976 -0.3076 -0.0661  0.1167
 4489TIP3    H135102   6.748   1.562   0.923 -3.2208  1.4003 -1.7120
 4489TIP3    H235103   6.822   1.693   0.926 -2.1557  0.8039 -1.4392
 4490TIP3   OH235104   2.117   3.711   7.662 -0.1026 -0.8563 -0.5394
 4490TIP3    H135105   2.191   3.763   7.693 -0.5700  0.7841 -1.9806
 4490TIP3    H235106   2.073   3.681   7.741  0.3298  0.7931  0.3759
 4491TIP3   OH235107   1.739   2.701   2.243 -0.1961  0.5100  0.1781
 4491TIP3    H135108   1.658   2.733   2.204  0.1674  1.5516  0.2620
 4491TIP3    H235109   1.809   2.749   2.199  0.2886  0.8073  1.2233
 4492TIP3   OH235110   0.731   2.642   4.092 -0.4815  0.1164  0.2805
 4492TIP3    H135111   0.813   2.652   4.140 -0.2144 -0.7580  0.0088
 4492TIP3    H235112   0.687   2.569   4.135 -0.2893 -0.5995 -0.7251
 4493TIP3   OH235113   6.806   2.960   3.241  0.4838  0.1275 -0.1352
 4493TIP3    H135114   6.821   2.892   3.307 -0.3962 -0.5478 -0.6040
 4493TIP3    H235115   6.741   3.019   3.280 -0.2461 -0.4265 -0.4762
 4494TIP3   OH235116   4.614   5.214   3.645 -0.1332  0.2973 -0.5816
 4494TIP3    H135117   4.611   5.308   3.663 -1.5290 -0.2045  2.3175
 4494TIP3    H235118   4.704   5.189   3.666 -0.6049  0.4974  1.9747
 4495TIP3   OH235119   5.052   5.383   1.251  0.0296 -0.0734  0.4390
 4495TIP3    H135120   5.075   5.442   1.179 -0.1262 -0.3796  0.1340
 4495TIP3    H235121   5.106   5.305   1.236  1.3450  0.5468  1.6702
 4496TIP3   OH235122   2.719   6.113   1.764  0.3469  0.2685  0.2786
 4496TIP3    H135123   2.782   6.147   1.701 -0.5420  0.4621 -0.5370
 4496TIP3    H235124   2.771   6.092   1.842  1.3431  0.7775 -0.2318
 4497TIP3   OH235125   6.181   1.912   4.743 -0.5928  0.0331 -0.3330
 4497TIP3    H135126   6.133   1.981   4.697 -1.4116  0.7971  1.5823
 4497TIP3    H235127   6.246   1.882   4.679 -1.5329  1.1674 -1.9000
 4498TIP3   OH235128   0.220   5.020   1.109 -0.0349 -0.3048 -0.2044
 4498TIP3    H135129   0.260   5.107   1.114  0.2575 -0.4630  0.2470
 4498TIP3    H235130   0.264   4.978   1.036  0.4156 -0.3688  0.0982
 4499TIP3   OH235131   1.582   1.266   2.548  0.0305  0.6343 -0.3902
 4499TIP3    H135132   1.558   1.249   2.639 -1.9050  0.6644 -0.8491
 4499TIP3    H235133   1.659   1.323   2.554 -0.1006  0.6912  1.2190
 4500TIP3   OH235134   3.789   1.610   0.811 -0.4557  0.5268  0.6825
 4500TIP3    H135135   3.703   1.571   0.829 -0.8140  0.6688 -0.5982
 4500TIP3    H235136   3.769   1.698   0.777 -0.0889 -0.6826 -3.1430
 4501TIP3   OH235137   5.883   1.277   1.902  0.0699  0.0663 -0.1290
 4501TIP3    H135138   5.964   1.228   1.920 -0.5140 -0.6732  0.5709
 4501TIP3    H235139   5.857   1.312   1.988  0.7931  2.1616 -0.7011
 4502TIP3   OH235140   2.245   1.603   1.077  0.1256  0.3240  0.6519
 4502TIP3    H135141   2.197   1.674   1.033  0.1624  1.4869  2.3918
 4502TIP3    H235142   2.334   1.610   1.042  0.0170  0.8233  0.4581
 4503TIP3   OH235143   4.577   4.201   3.240  0.0641  0.2599 -0.4510
 4503TIP3    H135144   4.538   4.266   3.182 -0.7705 -0.9921 -1.3363
 4503TIP3    H235145   4.653   4.168   3.193  0.8576  1.0377  0.2703
 4504TIP3   OH235146   0.909   0.124   2.342 -0.3440  0.0439  0.2730
 4504TIP3    H135147   0.858   0.098   2.418 -0.3606  1.6215  0.8300
 4504TIP3    H235148   0.884   0.061   2.274 -3.4638  1.0471  0.3292
 4505TIP3   OH235149   1.261   5.108   3.597 -0.2710  0.2153 -0.4496
 4505TIP3    H135150   1.345   5.062   3.587 -0.3081  0.1223 -0.3243
 4505TIP3    H235151   1.198   5.052   3.553 -0.5245 -0.4510  0.7453
 4506TIP3   OH235152   4.093   3.842   0.133 -0.3800 -0.3348  0.3944
 4506TIP3    H135153   4.140   3.770   0.176 -1.0375 -0.6437  0.5960
 4506TIP3    H235154   4.161   3.908   0.119 -0.3347  0.2515  2.9362
 4507TIP3   OH235155   6.200   3.176   1.876 -0.0036  0.1929  0.5371
 4507TIP3    H135156   6.231   3.139   1.958 -0.4076  1.2905  1.2212
 4507TIP3    H235157   6.278   3.216   1.836  0.0892  0.1429  0.6684
 4508TIP3   OH235158   0.343   2.761   8.275 -0.2397 -0.0618 -0.2274
 4508TIP3    H135159   0.303   2.847   8.260  0.2036  0.2562  0.3335
 4508TIP3    H235160   0.282   2.699   8.237 -0.3859  0.5280 -0.9876
 4509TIP3   OH235161   1.105   0.701   2.406 -0.1219  0.2127  0.2268
 4509TIP3    H135162   1.059   0.767   2.456  0.9807 -0.9159  2.9332
 4509TIP3    H235163   1.088   0.619   2.452  1.3843 -0.8380 -0.9570
 4510TIP3   OH235164   4.745   0.972   3.472 -0.5950  0.0430 -0.3903
 4510TIP3    H135165   4.741   1.049   3.528 -2.2511 -0.8289  0.8108
 4510TIP3    H235166   4.691   0.994   3.396 -1.9947 -0.2648  0.4714
 4511TIP3   OH235167   3.622   5.770   0.132  0.2951 -0.2427  0.2882
 4511TIP3    H135168   3.627   5.865   0.120  0.4414 -0.3949 -0.8987
 4511TIP3    H235169   3.564   5.759   0.207 -1.4031  0.7281 -0.8282
 4512TIP3   OH235170   3.496   2.728   2.497  0.6202 -0.0112 -0.1276
 4512TIP3    H135171   3.424   2.704   2.555  0.4174  0.6184 -0.1031
 4512TIP3    H235172   3.485   2.822   2.484  1.3839  0.0764 -0.2005
 4513TIP3   OH235173   6.354   6.172   0.298 -0.1422 -0.3794 -0.2208
 4513TIP3    H135174   6.296   6.133   0.363 -1.3808 -0.9715 -1.6158
 4513TIP3    H235175   6.366   6.103   0.233 -0.6652  0.8481 -1.6689
 4514TIP3   OH235176   2.919   2.131   2.888 -0.0461 -0.4675 -0.3349
 4514TIP3    H135177   2.877   2.195   2.830 -0.8381  0.9794  1.7175
 4514TIP3    H235178   2.999   2.106   2.841 -0.5951  0.6900 -2.0060
 4515TIP3   OH235179   1.209   6.374   0.602 -0.3296  0.1901  0.4702
 4515TIP3    H135180   1.285   6.432   0.598 -0.7927  0.7401 -0.7069
 4515TIP3    H235181   1.165   6.385   0.518 -0.7935 -1.3913  0.4596
 4516TIP3   OH235182   6.296   1.617   2.017  0.0909 -0.3363 -0.2093
 4516TIP3    H135183   6.333   1.549   1.961  0.4837 -0.2070 -0.1062
 4516TIP3    H235184   6.324   1.699   1.978 -0.2700 -0.2322 -0.2548
 4517TIP3   OH235185   6.647   0.923   3.214  0.6841 -0.0420 -0.2131
 4517TIP3    H135186   6.700   0.974   3.275 -0.8467  1.6821 -0.2503
 4517TIP3    H235187   6.710   0.890   3.149  1.7073  2.1356 -0.4197
 4518TIP3   OH235188   2.054   0.355   0.038  0.0917 -0.2854 -0.1047
 4518TIP3    H135189   1.967   0.387   0.064  0.5464  2.8596 -1.9592
 4518TIP3    H235190   2.046   0.338  -0.056  1.5085  0.2424 -0.3446
 4519TIP3   OH235191   0.408   4.360   1.365  0.1289  0.2133  0.4771
 4519TIP3    H135192   0.476   4.412   1.407  0.7599 -0.3842  0.2124
 4519TIP3    H235193   0.420   4.272   1.402 -1.0894  0.2918  1.1244
 4520TIP3   OH235194   6.282   6.807   1.155  0.5128  0.1613 -0.5140
 4520TIP3    H135195   6.292   6.857   1.236  0.2249 -0.8108  0.1362
 4520TIP3    H235196   6.194   6.829   1.124  1.1795  1.7472 -1.4359
 4521TIP3   OH235197   6.367   4.312   3.328  0.2814 -0.0889  0.4652
 4521TIP3    H135198   6.343   4.341   3.415  1.9645 -1.5370  1.4933
 4521TIP3    H235199   6.432   4.376   3.298 -2.6070  2.3397 -1.2457
 4522TIP3   OH235200   3.368   0.608   8.625  0.3438 -0.1354  0.4659
 4522TIP3    H135201   3.442   0.548   8.624 -0.0759 -0.6688  0.6129
 4522TIP3    H235202   3.359   0.634   8.717 -0.4948 -1.1684  0.7084
 4523TIP3   OH235203   2.819   2.866   0.887  0.1186 -0.4048 -0.2103
 4523TIP3    H135204   2.906   2.830   0.903  0.0341 -0.8309 -0.6886
 4523TIP3    H235205   2.835   2.958   0.866  0.5243 -0.6235 -0.9107
 4524TIP3   OH235206   1.339   3.617   0.477 -0.3057  0.3161  0.1373
 4524TIP3    H135207   1.324   3.582   0.564 -0.3803  0.6424  0.2590
 4524TIP3    H235208   1.298   3.554   0.417  1.1002 -0.7243  0.2341
 4525TIP3   OH235209   0.069   3.765   2.362  0.0492 -0.0870  0.7541
 4525TIP3    H135210   0.092   3.717   2.283  0.4439  1.2589  0.0191
 4525TIP3    H235211   0.151   3.776   2.410 -0.0931 -0.4093  1.0799
 4526TIP3   OH235212   5.227   1.392   1.375 -0.7330 -0.0089  0.1112
 4526TIP3    H135213   5.166   1.435   1.315  2.9264  2.4067 -2.3306
 4526TIP3    H235214   5.248   1.459   1.440 -0.1567 -0.5130  0.4546
 4527TIP3   OH235215   2.880   1.478   2.642 -0.7769  0.1561  0.0035
 4527TIP3    H135216   2.915   1.458   2.555 -1.0958 -0.9894  0.1186
 4527TIP3    H235217   2.888   1.573   2.650  0.7183  0.1139 -0.6369
 4528TIP3   OH235218   0.788   2.462   2.620 -0.1769 -0.3660 -0.0016
 4528TIP3    H135219   0.832   2.484   2.537  0.3237  0.4187  0.4571
 4528TIP3    H235220   0.697   2.447   2.595 -0.1004  0.1833 -0.6612
 4529TIP3   OH235221   1.605   3.116   3.679 -0.0940 -0.3446 -0.8396
 4529TIP3    H135222   1.587   3.023   3.697  0.4480 -0.3140 -0.1168
 4529TIP3    H235223   1.699   3.124   3.691 -0.2066  0.4043 -0.4426
 4530TIP3   OH235224   5.696   1.193   2.606 -0.0361 -0.5185 -0.1502
 4530TIP3    H135225   5.688   1.100   2.585 -3.1993 -0.3387 -0.1874
 4530TIP3    H235226   5.712   1.195   2.700  0.7480 -1.0673 -0.2567
 4531TIP3   OH235227   5.062   4.852   8.189  0.3395  0.1380 -0.1395
 4531TIP3    H135228   5.101   4.784   8.134  1.7307  0.9826 -0.2468
 4531TIP3    H235229   5.100   4.933   8.157 -1.9190  1.1117 -0.5849
 4532TIP3   OH235230   3.043   6.659   3.385  0.3711 -0.3191 -0.2022
 4532TIP3    H135231   3.067   6.752   3.378 -0.8378  0.2122  1.9582
 4532TIP3    H235232   3.077   6.632   3.470 -1.5613 -1.1184  0.3605
 4533TIP3   OH235233   0.239   0.820   0.739 -0.2431  0.1407 -0.0581
 4533TIP3    H135234   0.236   0.869   0.657  1.7369  0.1223 -0.1840
 4533TIP3    H235235   0.151   0.828   0.775 -0.4562  2.2867 -0.9385
 4534TIP3   OH235236   0.427   0.675   1.422  0.2938 -0.0038 -0.4212
 4534TIP3    H135237   0.519   0.697   1.408  0.4990 -1.1906 -0.9710
 4534TIP3    H235238   0.390   0.666   1.334  0.3401 -2.3061 -0.2497
 4535TIP3   OH235239   6.729   6.373   8.030  0.5259 -0.1318  0.3517
 4535TIP3    H135240   6.696   6.363   7.941  0.2203 -0.8653  0.5349
 4535TIP3    H235241   6.764   6.462   8.033  1.7435 -0.5369 -0.8879
 4536TIP3   OH235242   3.634   5.433   2.796  0.1295 -0.0078  0.1705
 4536TIP3    H135243   3.587   5.494   2.852 -1.8906 -0.5085 -0.8766
 4536TIP3    H235244   3.569   5.403   2.733  1.3122 -2.4506 -0.0102
 4537TIP3   OH235245   5.214   5.973   0.023  0.1443  0.6319  0.0124
 4537TIP3    H135246   5.149   5.968   0.092  0.9667  0.6637  0.8019
 4537TIP3    H235247   5.165   5.953  -0.057 -0.9475  1.1958  0.5138
 4538TIP3   OH235248   3.125   5.402   2.668 -0.2254 -0.1609  0.0943
 4538TIP3    H135249   3.127   5.496   2.688 -1.8705 -0.1892  0.5069
 4538TIP3    H235250   3.127   5.398   2.572 -1.8847  0.4107 -0.0080
 4539TIP3   OH235251   2.073   0.127   2.454  0.3248 -0.7834 -0.1592
 4539TIP3    H135252   2.116   0.184   2.517  0.1726 -2.4586  1.5755
 4539TIP3    H235253   2.029   0.186   2.394  0.9411  0.9142  0.9869
 4540TIP3   OH235254   4.295   3.559   3.128 -0.2227  0.2985  0.8026
 4540TIP3    H135255   4.231   3.629   3.113  0.2319  0.5581 -0.0335
 4540TIP3    H235256   4.364   3.577   3.063  0.0207 -0.7825  0.7548
 4541TIP3   OH235257   6.398   3.431   2.344  0.0605  0.1880 -0.2002
 4541TIP3    H135258   6.352   3.510   2.317  0.2742  0.4740  0.2705
 4541TIP3    H235259   6.337   3.360   2.324 -0.0259  0.4464 -0.8717
 4542TIP3   OH235260   0.728   2.522   8.351  0.4606  0.3988 -0.1261
 4542TIP3    H135261   0.695   2.446   8.305  0.3649 -0.2107  0.9297
 4542TIP3    H235262   0.824   2.514   8.346  0.4617  0.7964 -0.9432
 4543TIP3   OH235263   6.630   5.326   3.386 -0.3789  0.4662 -0.1452
 4543TIP3    H135264   6.612   5.345   3.478 -2.9027 -1.9850  0.0298
 4543TIP3    H235265   6.677   5.242   3.387  0.2655  0.7947 -1.0835
 4544TIP3   OH235266   0.368   6.870   1.344 -0.1658 -0.1302 -0.0531
 4544TIP3    H135267   0.372   6.807   1.273  0.8618 -0.3787  0.1976
 4544TIP3    H235268   0.276   6.871   1.371 -0.4007 -0.6733 -0.8049
 4545TIP3   OH235269   5.209   0.372   0.892  0.1973 -0.1272 -0.0876
 4545TIP3    H135270   5.148   0.443   0.871  0.0202 -0.6397 -1.4112
 4545TIP3    H235271   5.210   0.369   0.988 -0.1152  1.3734 -0.0126
 4546TIP3   OH235272   1.797   1.489   3.061  0.1063  0.2562 -0.2956
 4546TIP3    H135273   1.746   1.458   3.136 -0.2274  0.0933 -0.5871
 4546TIP3    H235274   1.800   1.584   3.072 -1.8167  0.4937 -1.2128
 4547TIP3   OH235275   6.005   2.912   1.255  0.3543 -0.1544  0.0335
 4547TIP3    H135276   5.988   2.819   1.269  2.8209 -0.5327  1.2216
 4547TIP3    H235277   6.039   2.943   1.339 -2.1512  2.3474  0.2600
 4548TIP3   OH235278   3.909   3.964   8.337 -0.2355 -0.0491 -0.5406
 4548TIP3    H135279   3.814   3.950   8.337 -0.4244  1.0640 -1.7438
 4548TIP3    H235280   3.922   4.037   8.277  1.5417 -1.2071 -1.6357
 4549TIP3   OH235281   4.791   3.950   1.864 -0.7953  0.1496 -0.4517
 4549TIP3    H135282   4.859   3.958   1.931 -1.8807  0.2885  0.6693
 4549TIP3    H235283   4.825   3.885   1.803 -0.4533 -1.2259  1.1202
 4550TIP3   OH235284   6.715   0.571   0.397  0.4232  0.4290  0.5898
 4550TIP3    H135285   6.655   0.505   0.365  0.9851  0.4735 -0.5944
 4550TIP3    H235286   6.669   0.654   0.386  0.1844  0.3471  0.9564
 4551TIP3   OH235287   6.661   3.201   0.718 -0.4027  0.0090  0.0140
 4551TIP3    H135288   6.610   3.215   0.798 -0.0224  1.2504  0.0587
 4551TIP3    H235289   6.716   3.126   0.738 -0.6950 -0.0272  0.7303
 4552TIP3   OH235290   3.808   3.924   1.540 -0.6424 -0.4664 -0.6754
 4552TIP3    H135291   3.842   3.885   1.460 -1.3921  0.6743 -1.5698
 4552TIP3    H235292   3.715   3.902   1.539 -1.1056  1.3888 -1.2548
 4553TIP3   OH235293   0.485   0.318   3.946  0.2902  0.0858 -0.0695
 4553TIP3    H135294   0.575   0.342   3.928  0.2790  0.8299  0.8119
 4553TIP3    H235295   0.491   0.261   4.023 -0.0688  0.9758  0.6297
 4554TIP3   OH235296   1.196   6.637   3.033 -0.2781  0.3169 -0.1401
 4554TIP3    H135297   1.154   6.634   2.947  0.7027 -1.8696 -0.6131
 4554TIP3    H235298   1.123   6.636   3.095 -0.9970 -0.6930 -0.9550
 4555TIP3   OH235299   3.090   3.342   0.489  0.2890 -0.0978 -0.2557
 4555TIP3    H135300   3.117   3.295   0.568 -1.0307  0.2713  0.4226
 4555TIP3    H235301   3.010   3.298   0.461 -1.6099  2.3159  0.9912
 4556TIP3   OH235302   2.619   6.139   4.026 -0.1004 -0.1156 -0.5580
 4556TIP3    H135303   2.538   6.089   4.025 -1.0750  1.1722  2.3128
 4556TIP3    H235304   2.688   6.074   4.035 -0.8831 -1.1579 -1.7982
 4557TIP3   OH235305   0.957   0.411   0.860 -0.4157  0.1713 -0.1626
 4557TIP3    H135306   0.969   0.418   0.955  0.0537  1.4863 -0.3019
 4557TIP3    H235307   1.032   0.457   0.822 -0.2400 -0.9195 -1.1910
 4558TIP3   OH235308   5.375   6.060   0.629 -0.0637 -0.1557  0.5526
 4558TIP3    H135309   5.408   5.979   0.668 -0.1960 -0.3996  0.1616
 4558TIP3    H235310   5.424   6.070   0.548  0.6154  0.6483  1.0332
 4559TIP3   OH235311   1.204   4.834   2.000  0.7875 -0.3393 -0.1513
 4559TIP3    H135312   1.278   4.780   2.027  1.1144 -0.9795 -2.1313
 4559TIP3    H235313   1.243   4.899   1.941  0.0548  0.6555  0.4278
 4560TIP3   OH235314   6.331   5.823   1.439 -0.0824  0.4477  0.0602
 4560TIP3    H135315   6.290   5.824   1.352 -2.1325 -0.7373  0.9487
 4560TIP3    H235316   6.404   5.761   1.429  0.2559  0.9921 -1.0291
 4561TIP3   OH235317   4.476   1.775   0.696  0.2078 -0.2139  0.2635
 4561TIP3    H135318   4.547   1.799   0.755 -0.4422 -4.1755  3.0686
 4561TIP3    H235319   4.520   1.744   0.617  1.2429  2.2095 -0.2061
 4562TIP3   OH235320   4.234   2.295   0.079 -0.1427 -0.1760  0.3179
 4562TIP3    H135321   4.214   2.388   0.070 -0.3664 -0.0740  1.6611
 4562TIP3    H235322   4.253   2.283   0.172 -0.4248 -1.5247  0.2297
 4563TIP3   OH235323   5.202   0.767   3.761  1.2276 -0.0001  0.1819
 4563TIP3    H135324   5.242   0.850   3.734  2.2384 -0.6331 -0.3436
 4563TIP3    H235325   5.256   0.700   3.718  0.4501 -0.9274  0.6279
 4564TIP3   OH235326   6.862   3.246   2.854 -0.1443  0.1517 -0.3059
 4564TIP3    H135327   6.774   3.212   2.839 -1.0265  2.3304 -0.5206
 4564TIP3    H235328   6.874   3.240   2.949 -2.0515  3.0011  0.2589
 4565TIP3   OH235329   5.119   3.001   1.137  0.9471 -0.3243  0.7984
 4565TIP3    H135330   5.046   2.968   1.190  0.8342 -0.8186  0.3472
 4565TIP3    H235331   5.182   3.035   1.200  0.3537  0.0496  1.1980
 4566TIP3   OH235332   0.592   6.612   3.196  0.2366  0.3504 -0.1822
 4566TIP3    H135333   0.644   6.601   3.275 -1.3151  0.9201  0.9808
 4566TIP3    H235334   0.544   6.530   3.187 -0.1213  0.5442 -0.0934
 4567TIP3   OH235335   4.019   3.900   0.870 -0.8545 -0.1834 -0.5806
 4567TIP3    H135336   4.008   3.933   0.958 -1.2210 -0.4730 -0.5151
 4567TIP3    H235337   4.112   3.879   0.863 -0.7904  0.0279 -0.3306
 4568TIP3   OH235338   5.432   1.885   3.459  0.7137  0.1992 -0.4089
 4568TIP3    H135339   5.426   1.790   3.455  0.1714  0.2422 -0.7468
 4568TIP3    H235340   5.403   1.906   3.548 -0.4875  0.1301 -0.7680
 4569TIP3   OH235341   6.177   6.828   8.311  0.7746  0.9753 -0.5323
 4569TIP3    H135342   6.085   6.851   8.320  0.8235  0.4124  2.1758
 4569TIP3    H235343   6.187   6.801   8.220 -1.9515  0.0911 -0.6354
 4570TIP3   OH235344   1.517   0.438   3.333 -0.1875 -0.0261 -0.7199
 4570TIP3    H135345   1.449   0.504   3.349 -0.1420 -0.3870  1.2790
 4570TIP3    H235346   1.529   0.438   3.238 -0.4165  2.5907 -0.8118
 4571TIP3   OH235347   2.324   2.484   1.989  0.3112 -0.3453  0.5054
 4571TIP3    H135348   2.302   2.572   2.018  1.1267  0.0626 -0.0926
 4571TIP3    H235349   2.241   2.437   1.989 -0.3455  0.7817 -0.4498
 4572TIP3   OH235350   1.411   0.696   1.260 -0.9625  0.0648  0.1510
 4572TIP3    H135351   1.414   0.673   1.167 -0.9143 -0.3747  0.2582
 4572TIP3    H235352   1.490   0.656   1.297 -1.9172 -1.3913  0.7334
 4573TIP3   OH235353   0.449   5.507   0.940  0.0667 -0.7203 -0.2626
 4573TIP3    H135354   0.466   5.416   0.963 -2.2705 -1.1138  0.1297
 4573TIP3    H235355   0.509   5.557   0.996  0.3274 -1.9676  0.6190
 4574TIP3   OH235356   1.736   1.831   2.003  0.3977  0.5870  0.5481
 4574TIP3    H135357   1.804   1.792   2.058 -0.6998  1.3303  2.5349
 4574TIP3    H235358   1.710   1.760   1.944  2.4810  0.1324  0.0959
 4575TIP3   OH235359   4.612   6.687   1.053  0.4929 -0.3390  0.0469
 4575TIP3    H135360   4.693   6.710   1.007  0.5213  1.1736  0.7993
 4575TIP3    H235361   4.602   6.593   1.039  1.7869 -0.3431 -0.9867
 4576TIP3   OH235362   6.425   2.703   1.770  0.0612  0.6087  0.6370
 4576TIP3    H135363   6.443   2.797   1.772  0.7127  0.5028 -0.0313
 4576TIP3    H235364   6.329   2.697   1.776 -0.1596  1.4148 -1.4278
 4577TIP3   OH235365   3.121   1.260   1.060  0.2168 -0.2215 -0.2752
 4577TIP3    H135366   3.026   1.259   1.071  0.0984  1.7004 -0.8526
 4577TIP3    H235367   3.149   1.339   1.105  1.4136 -0.1848 -1.0540
 4578TIP3   OH235368   4.506   0.964   3.028  0.2490 -0.0704 -0.2485
 4578TIP3    H135369   4.595   0.936   3.049  0.6957  0.7965 -0.9312
 4578TIP3    H235370   4.450   0.898   3.069  0.9432  1.8742  4.4730
 4579TIP3   OH235371   5.809   4.668   3.736  0.3375 -0.0426 -0.1661
 4579TIP3    H135372   5.825   4.633   3.823  1.6647  0.9052 -0.0007
 4579TIP3    H235373   5.722   4.635   3.713 -1.5664  2.2742  2.8607
 4580TIP3   OH235374   6.251   3.191   1.333 -1.1013  0.4848  0.1317
 4580TIP3    H135375   6.289   3.223   1.251 -0.6957 -0.3394 -0.0113
 4580TIP3    H235376   6.281   3.254   1.399 -0.4569  0.5033 -0.1683
 4581TIP3   OH235377   6.152   0.390   2.202  0.7077  0.2301  0.0921
 4581TIP3    H135378   6.220   0.323   2.204 -1.7960 -2.6570 -1.4767
 4581TIP3    H235379   6.159   0.429   2.115 -0.1564 -0.7731 -0.4541
 4582TIP3   OH235380   2.649   6.721   1.946  0.2044 -0.1960 -0.3656
 4582TIP3    H135381   2.740   6.750   1.951  0.5015 -1.0806 -0.4817
 4582TIP3    H235382   2.613   6.740   2.033  0.6563 -0.3621 -0.1390
 4583TIP3   OH235383   4.677   3.250   1.278  0.3211  0.4701  0.3119
 4583TIP3    H135384   4.718   3.272   1.194 -2.4156  0.7432 -1.0717
 4583TIP3    H235385   4.684   3.155   1.285 -1.8356  0.0777 -1.7035
 4584TIP3   OH235386   2.308   2.491   3.308  0.0111  0.0011 -0.1778
 4584TIP3    H135387   2.216   2.481   3.332  0.5763 -3.1238  1.2408
 4584TIP3    H235388   2.353   2.503   3.392  1.0498  0.0347 -0.7271
 4585TIP3   OH235389   5.618   0.788   0.099  0.1453  0.3552 -0.5140
 4585TIP3    H135390   5.647   0.806   0.188  2.1408  0.0227 -1.0361
 4585TIP3    H235391   5.590   0.696   0.101  1.1263  0.0473 -0.4242
 4586TIP3   OH235392   5.558   6.622   8.443 -0.5675 -0.0728  0.3827
 4586TIP3    H135393   5.522   6.568   8.373  0.2405 -0.1155 -0.0124
 4586TIP3    H235394   5.517   6.707   8.432  0.4639  0.2787 -0.9106
 4587TIP3   OH235395   3.490   5.682   1.499  0.3006 -0.1873  0.3615
 4587TIP3    H135396   3.455   5.702   1.412  1.6081  0.5204 -0.0427
 4587TIP3    H235397   3.427   5.720   1.560 -0.3339 -0.1735 -0.2880
 4588TIP3   OH235398   1.656   3.273   0.750  0.0093  0.3763  0.4925
 4588TIP3    H135399   1.603   3.353   0.745 -0.7179 -0.0274  1.4193
 4588TIP3    H235400   1.609   3.217   0.812  2.4766  0.7705  2.9350
 4589TIP3   OH235401   2.160   5.035   2.613 -0.3911 -0.1422  0.0023
 4589TIP3    H135402   2.118   5.018   2.529  0.7182 -3.1673 -0.0510
 4589TIP3    H235403   2.251   5.057   2.591 -0.3681  0.1359  0.3676
 4590TIP3   OH235404   3.930   5.847   2.793 -0.3025  0.1141  0.6108
 4590TIP3    H135405   3.851   5.810   2.753  1.0555 -0.7541 -1.3762
 4590TIP3    H235406   3.903   5.935   2.821 -1.4681  0.6317 -1.8628
 4591TIP3   OH235407   1.842   0.373   0.381  0.1788  0.2557  0.0333
 4591TIP3    H135408   1.805   0.380   0.469  0.0880  1.0724 -0.0561
 4591TIP3    H235409   1.835   0.280   0.359 -4.5756  0.6016 -1.1030
 4592TIP3   OH235410   0.093   2.708   8.659 -0.5160  0.0865  0.4253
 4592TIP3    H135411   0.083   2.709   8.564 -0.9947 -2.0480  0.3974
 4592TIP3    H235412   0.188   2.715   8.673 -0.4686  0.7702 -0.1751
 4593TIP3   OH235413   5.610   5.769   2.908 -0.4450  0.3547 -0.0701
 4593TIP3    H135414   5.597   5.728   2.822  0.7488  0.1674 -0.1756
 4593TIP3    H235415   5.678   5.716   2.950 -0.3830  0.9809  0.6350
 4594TIP3   OH235416   0.597   5.623   3.032  0.6873  0.0989 -0.3590
 4594TIP3    H135417   0.653   5.654   3.103  0.7998  0.9011 -0.7820
 4594TIP3    H235418   0.541   5.698   3.011  1.3274  0.2081 -1.7799
 4595TIP3   OH235419   6.153   1.391   0.150  0.4500 -0.6521  0.6142
 4595TIP3    H135420   6.075   1.446   0.149 -0.0752 -1.3855  0.6486
 4595TIP3    H235421   6.139   1.329   0.221  0.1983 -1.9895 -0.5518
 4596TIP3   OH235422   4.546   2.383   2.674 -0.2516 -0.2896 -0.9506
 4596TIP3    H135423   4.462   2.384   2.720 -0.2040  0.1016 -0.8683
 4596TIP3    H235424   4.562   2.475   2.652 -0.5991 -0.5399 -2.3402
 4597TIP3   OH235425   2.181   5.518   1.402  0.0257  0.5154  0.2297
 4597TIP3    H135426   2.091   5.491   1.385 -0.2249  1.1113  0.5636
 4597TIP3    H235427   2.234   5.443   1.376 -0.6090 -0.0751  0.6038
 4598TIP3   OH235428   4.781   4.458   0.848  0.0053 -0.3498 -0.9156
 4598TIP3    H135429   4.858   4.410   0.820  1.4094  1.7502 -0.8847
 4598TIP3    H235430   4.773   4.438   0.941  0.5199 -0.5818 -0.9177
 4599TIP3   OH235431   4.234   5.183   1.896  0.2752 -0.1700  0.1167
 4599TIP3    H135432   4.210   5.097   1.862 -0.0538 -0.2564  0.5580
 4599TIP3    H235433   4.325   5.174   1.923  0.2894 -0.3331  0.0120
 4600TIP3   OH235434   2.235   3.044   0.731 -0.4635  0.1287 -0.1419
 4600TIP3    H135435   2.328   3.034   0.750 -0.5451 -1.7894 -0.5446
 4600TIP3    H235436   2.191   2.990   0.797 -1.3590  1.6524  0.5444
 4601TIP3   OH235437   4.825   1.350   1.470 -0.1247  0.5127  0.3180
 4601TIP3    H135438   4.874   1.272   1.493 -1.5511 -0.7783 -0.8103
 4601TIP3    H235439   4.742   1.318   1.436 -0.9181  2.5376  0.1590
 4602TIP3   OH235440   2.670   1.143   3.695  0.8768  0.2917 -0.1550
 4602TIP3    H135441   2.748   1.198   3.710 -0.9513  2.9495  0.3247
 4602TIP3    H235442   2.646   1.111   3.781  2.6562 -2.5440 -0.5704
 4603TIP3   OH235443   5.012   5.766   2.472  0.1758  0.0816 -0.1770
 4603TIP3    H135444   4.955   5.689   2.465  0.2869 -0.2711  2.1707
 4603TIP3    H235445   5.083   5.749   2.411 -0.5340 -0.9956 -0.7370
 4604TIP3   OH235446   5.349   1.377   2.660  1.1261  0.1490 -0.8657
 4604TIP3    H135447   5.264   1.347   2.692  1.0384  2.2499  1.1108
 4604TIP3    H235448   5.412   1.332   2.715  1.3032 -0.7426 -1.7594
 4605TIP3   OH235449   6.601   0.985   8.707  0.5482 -0.2260  0.0737
 4605TIP3    H135450   6.621   1.057   8.647  0.2226  0.4523  0.7763
 4605TIP3    H235451   6.518   0.950   8.675  0.9489 -0.6249 -0.5659
 4606TIP3   OH235452   6.067   3.130   3.896 -0.1488  0.4914  0.1464
 4606TIP3    H135453   6.082   3.212   3.849 -2.1389  0.2292 -1.0687
 4606TIP3    H235454   5.972   3.125   3.904 -0.0146 -1.2609  1.0189
 4607TIP3   OH235455   1.852   5.562   2.931  0.8789 -0.2246 -0.4787
 4607TIP3    H135456   1.808   5.477   2.929  0.6013 -0.0880 -0.3301
 4607TIP3    H235457   1.838   5.598   2.843  0.2199  0.0481 -0.2721
 4608TIP3   OH235458   2.916   4.533   3.089  0.7074 -0.1478  0.0859
 4608TIP3    H135459   2.953   4.609   3.134 -0.9814  0.6931  0.1413
 4608TIP3    H235460   2.903   4.468   3.158  1.3124 -0.1557  0.1979
 4609TIP3   OH235461   6.164   3.865   0.691  0.2181 -0.3691 -0.3359
 4609TIP3    H135462   6.223   3.937   0.670  0.2562 -0.5929 -1.0073
 4609TIP3    H235463   6.132   3.834   0.607 -0.7807 -0.3280  0.0222
 4610TIP3   OH235464   0.840   3.583   1.388  0.0954  0.2108 -0.0858
 4610TIP3    H135465   0.898   3.569   1.462  0.9287  0.0493 -0.7549
 4610TIP3    H235466   0.832   3.497   1.346 -0.8599  0.1653  0.1547
 4611TIP3   OH235467   3.897   4.287   2.244  0.2971 -0.2403  0.2273
 4611TIP3    H135468   3.895   4.244   2.329 -0.4128  0.0927  0.3893
 4611TIP3    H235469   3.989   4.285   2.217  0.8055  1.1327  1.7419
 4612TIP3   OH235470   5.363   3.602   1.251 -0.0753  0.3864  0.4432
 4612TIP3    H135471   5.329   3.555   1.327  1.5017 -1.0160  0.3421
 4612TIP3    H235472   5.427   3.543   1.213 -0.0947  1.4767 -1.4133
 4613TIP3   OH235473   2.643   2.753   1.577  0.4755 -0.2459 -0.0728
 4613TIP3    H135474   2.736   2.771   1.579  0.2883  0.7205  0.7139
 4613TIP3    H235475   2.630   2.683   1.641  0.3379  1.3790  1.7470
 4614TIP3   OH235476   4.761   3.431   3.577  0.5345  0.1566  0.0564
 4614TIP3    H135477   4.807   3.434   3.661  0.5420  0.4571  0.0418
 4614TIP3    H235478   4.785   3.512   3.532 -0.6243  0.7102  0.3797
 4615TIP3   OH235479   0.387   2.998   0.138 -0.0398  0.1956 -0.0741
 4615TIP3    H135480   0.391   2.925   0.075 -1.7838  0.0019 -0.0043
 4615TIP3    H235481   0.305   3.043   0.117  1.5366  2.9173 -0.9183
 4616TIP3   OH235482   4.173   0.932   0.568 -0.1902  0.7152 -0.2981
 4616TIP3    H135483   4.183   1.013   0.618 -0.2301 -1.0632  2.8656
 4616TIP3    H235484   4.261   0.893   0.569  0.0452  1.0754 -2.5997
 4617TIP3   OH235485   6.286   0.902   4.219  0.3628  0.9412  0.4503
 4617TIP3    H135486   6.210   0.893   4.277 -0.3268 -0.7003 -0.6605
 4617TIP3    H235487   6.265   0.979   4.165 -0.8174  0.1471 -0.2592
 4618TIP3   OH235488   4.608   5.843   3.382 -0.6749 -0.0687  0.1133
 4618TIP3    H135489   4.647   5.930   3.370 -1.6891  0.2520 -0.9752
 4618TIP3    H235490   4.677   5.782   3.357 -0.1899  0.4385  0.1897
 4619TIP3   OH235491   0.290   0.985   2.591  0.3905 -0.2150  0.5856
 4619TIP3    H135492   0.350   0.962   2.662  2.0251 -2.1185 -1.2792
 4619TIP3    H235493   0.347   0.998   2.515 -1.2957  1.7384 -0.4566
 4620TIP3   OH235494   2.068   4.909   1.986  0.0223  0.3088 -0.1635
 4620TIP3    H135495   2.161   4.890   1.981  0.3324  0.4346  2.9831
 4620TIP3    H235496   2.025   4.827   1.962  1.1555 -1.4341  3.1149
 4621TIP3   OH235497   3.831   0.936   3.912  0.1713  0.8727 -0.5919
 4621TIP3    H135498   3.767   1.006   3.926 -1.6021 -0.6026 -0.9595
 4621TIP3    H235499   3.885   0.938   3.992 -1.1172  1.3697  0.3082
 4622TIP3   OH235500   3.157   3.605   3.477  0.2700  0.3173 -0.0463
 4622TIP3    H135501   3.227   3.600   3.411  0.9440 -2.1171  0.7669
 4622TIP3    H235502   3.083   3.641   3.429  1.3916  0.7785 -1.5466
 4623TIP3   OH235503   5.954   0.405   0.251  0.1121  0.1178 -0.4817
 4623TIP3    H135504   5.999   0.442   0.326  0.5380  0.2132 -0.7800
 4623TIP3    H235505   5.864   0.437   0.259  0.5450  1.5393 -0.9273
 4624TIP3   OH235506   2.253   2.326   3.009 -0.3585  0.0448  0.6225
 4624TIP3    H135507   2.201   2.248   2.994 -0.2016  0.3908 -2.1242
 4624TIP3    H235508   2.191   2.398   3.007 -0.0624  0.2845 -0.6495
 4625TIP3   OH235509   1.514   3.303   2.271  0.1208  0.3745  0.1489
 4625TIP3    H135510   1.524   3.377   2.212  1.0681  0.8136  0.8333
 4625TIP3    H235511   1.513   3.342   2.358 -0.4476 -0.3332  0.4751
 4626TIP3   OH235512   6.855   2.325   2.365 -0.1370 -0.0750 -0.5933
 4626TIP3    H135513   6.833   2.361   2.278 -0.6140  0.8129 -0.1251
 4626TIP3    H235514   6.927   2.380   2.395 -0.4170  0.0561 -0.1538
 4627TIP3   OH235515   3.086   0.758   2.606  0.3139  0.2018 -0.1109
 4627TIP3    H135516   3.163   0.800   2.645  0.9513 -1.8429  0.9944
 4627TIP3    H235517   3.031   0.736   2.682  0.3990 -1.6371 -0.5485
 4628TIP3   OH235518   1.581   4.480   0.547  0.4932  0.1556 -0.5488
 4628TIP3    H135519   1.623   4.436   0.472  3.0327 -1.9126  1.8505
 4628TIP3    H235520   1.498   4.434   0.558  0.5967 -0.2791 -1.4311
 4629TIP3   OH235521   0.238   5.743   1.283  0.0045  0.1643  0.3786
 4629TIP3    H135522   0.290   5.809   1.236 -1.3711  1.2568  0.3258
 4629TIP3    H235523   0.297   5.668   1.292  1.1091  0.8335 -0.9248
 4630TIP3   OH235524   5.517   6.042   0.356 -0.1687 -0.3353  0.3386
 4630TIP3    H135525   5.528   6.122   0.306 -0.9832 -0.4473 -0.0303
 4630TIP3    H235526   5.550   5.973   0.299  0.1748 -0.3142  0.5060
 4631TIP3   OH235527   1.290   4.174   0.138  0.1746  0.4227  0.0260
 4631TIP3    H135528   1.203   4.135   0.132  1.0946 -1.8974  0.5978
 4631TIP3    H235529   1.282   4.257   0.091 -2.7286  1.0687  1.4018
 4632TIP3   OH235530   1.883   4.954   3.157  0.0328 -0.1797  0.0345
 4632TIP3    H135531   1.803   4.939   3.106 -0.6071  0.7736  0.7350
 4632TIP3    H235532   1.873   4.898   3.234  1.1893 -1.9439 -1.0117
 4633TIP3   OH235533   1.170   3.743   1.316 -0.1586  0.0507  0.2633
 4633TIP3    H135534   1.243   3.799   1.291 -0.8869  1.0880  0.4056
 4633TIP3    H235535   1.092   3.791   1.287 -0.8911  0.0119  2.0410
 4634TIP3   OH235536   3.367   5.145   3.443  0.0216  0.1325 -0.1270
 4634TIP3    H135537   3.314   5.067   3.432  1.6074 -0.9242 -0.5886
 4634TIP3    H235538   3.407   5.135   3.530  1.7835 -0.6067 -0.9712
 4635TIP3   OH235539   3.262   3.384   0.802  0.2435  0.5677  0.6298
 4635TIP3    H135540   3.278   3.462   0.749 -2.1632 -0.3992 -1.6957
 4635TIP3    H235541   3.340   3.378   0.859  2.3707  2.4035 -1.8328
 4636TIP3   OH235542   4.628   3.657   1.229  0.1951 -0.5740  0.1222
 4636TIP3    H135543   4.533   3.668   1.220  0.1243  1.7183  2.5210
 4636TIP3    H235544   4.663   3.692   1.147 -0.9787 -0.7612 -0.4917
 4637TIP3   OH235545   0.255   6.487   3.766  0.0601 -0.0015  0.2039
 4637TIP3    H135546   0.291   6.507   3.852  1.8699  1.9261 -0.8914
 4637TIP3    H235547   0.219   6.399   3.774 -0.3214  0.3224  3.0310
 4638TIP3   OH235548   5.960   2.604   7.749 -0.0761 -0.2576  0.2098
 4638TIP3    H135549   6.037   2.650   7.718  0.8627 -0.8710  1.5612
 4638TIP3    H235550   5.941   2.641   7.835  1.6576 -3.2941  2.0905
 4639TIP3   OH235551   4.500   3.045   0.434  0.6055  0.5089 -0.0663
 4639TIP3    H135552   4.535   2.966   0.474  2.1587  0.8416 -0.6672
 4639TIP3    H235553   4.556   3.116   0.468 -0.8639  1.3894  0.6015
 4640TIP3   OH235554   3.854   4.812   1.074 -0.8581 -0.3393 -0.1869
 4640TIP3    H135555   3.801   4.882   1.113 -1.3272 -0.4299 -0.6364
 4640TIP3    H235556   3.890   4.764   1.148 -2.4677 -1.0748  0.1571
 4641TIP3   OH235557   5.786   1.189   0.050 -0.1250 -0.5766 -0.6189
 4641TIP3    H135558   5.743   1.147  -0.025 -1.7643  2.5610 -1.6195
 4641TIP3    H235559   5.874   1.210   0.018  0.3675 -2.2299 -0.4376
 4642TIP3   OH235560   5.326   1.558   0.047  0.0935 -0.0799  0.2052
 4642TIP3    H135561   5.370   1.500  -0.014 -0.3000  0.1071 -0.2615
 4642TIP3    H235562   5.351   1.526   0.134  1.4590  0.2634 -0.0439
 4643TIP3   OH235563   4.329   1.736   7.993  0.4039  0.3813  0.0809
 4643TIP3    H135564   4.331   1.726   7.898  0.4456 -2.4004  0.2775
 4643TIP3    H235565   4.404   1.685   8.025  0.6640  1.6322  1.5990
 4644TIP3   OH235566   6.036   2.591   0.493  0.0615  0.6707  0.2738
 4644TIP3    H135567   6.056   2.667   0.438  1.2853  0.5162  0.4790
 4644TIP3    H235568   6.122   2.556   0.518 -0.4810 -0.5503  0.5010
 4645TIP3   OH235569   5.864   5.149   2.647 -0.0543 -0.1660 -0.0498
 4645TIP3    H135570   5.880   5.088   2.575 -1.2357  0.8336 -1.2296
 4645TIP3    H235571   5.941   5.205   2.649  0.1966 -0.5057 -0.2211
 4646TIP3   OH235572   0.316   4.825   2.824  0.0082 -0.1322  0.2792
 4646TIP3    H135573   0.257   4.758   2.860  0.2328 -0.4720  0.0110
 4646TIP3    H235574   0.379   4.776   2.771  0.9672  0.1457  1.1241
 4647TIP3   OH235575   2.805   5.189   1.526 -0.1971 -0.7744  0.1571
 4647TIP3    H135576   2.799   5.098   1.556  2.1026 -0.9954  0.1329
 4647TIP3    H235577   2.851   5.184   1.443  0.1015  0.4339  0.2341
 4648TIP3   OH235578   4.456   4.109   0.489 -0.3582 -0.8930 -0.1903
 4648TIP3    H135579   4.462   4.014   0.477 -3.2062 -1.1990 -0.0439
 4648TIP3    H235580   4.403   4.138   0.414  0.9658  0.7032 -0.5578
 4649TIP3   OH235581   3.646   6.491   0.042 -0.0401 -0.6189  0.3350
 4649TIP3    H135582   3.627   6.463  -0.048  1.3257 -1.6723  0.3555
 4649TIP3    H235583   3.559   6.507   0.080 -0.6459 -0.1773 -1.1461
 4650TIP3   OH235584   6.849   6.637   1.136 -0.4820 -0.5241  0.5240
 4650TIP3    H135585   6.783   6.605   1.075 -0.6160 -0.0826  0.4353
 4650TIP3    H235586   6.854   6.731   1.119 -0.3879 -0.4285  1.0637
 4651TIP3   OH235587   6.809   5.555   2.714 -0.0215  0.6402 -0.0748
 4651TIP3    H135588   6.872   5.616   2.676  0.2000 -0.1975 -1.1006
 4651TIP3    H235589   6.860   5.502   2.776  0.7730 -1.2706 -2.2352
 4652TIP3   OH235590   0.908   2.764   2.521  0.7440 -0.5507  0.3485
 4652TIP3    H135591   0.920   2.830   2.452 -2.0685 -0.8596 -0.5570
 4652TIP3    H235592   0.956   2.687   2.490  0.3126 -0.3703 -0.8066
 4653TIP3   OH235593   3.429   6.036   0.461  0.9786  0.1649  0.0080
 4653TIP3    H135594   3.480   6.034   0.542  1.7501  1.4338 -0.4272
 4653TIP3    H235595   3.445   5.951   0.421  0.2535 -0.6503  1.3717
 4654TIP3   OH235596   2.288   3.602   8.507  0.3893 -0.0532  0.1905
 4654TIP3    H135597   2.351   3.651   8.455  0.7055 -2.1425 -1.5487
 4654TIP3    H235598   2.203   3.627   8.471  0.4161  0.4658  0.4735
 4655TIP3   OH235599   1.070   0.591   2.841  0.6686  0.5069  0.0857
 4655TIP3    H135600   1.110   0.678   2.845  0.1892  0.6901  2.1921
 4655TIP3    H235601   1.069   0.561   2.932  0.8095 -1.7162 -0.5976
 4656TIP3   OH235602   4.635   2.954   1.218  0.2968  0.0015  0.1745
 4656TIP3    H135603   4.562   2.910   1.261  0.1790  0.0303  0.0048
 4656TIP3    H235604   4.596   2.995   1.141  0.8355 -1.6234 -1.0253
 4657TIP3   OH235605   5.887   3.672   2.182 -1.0360  0.0303 -0.2373
 4657TIP3    H135606   5.931   3.588   2.173  1.9080  1.2052  1.5459
 4657TIP3    H235607   5.952   3.736   2.153 -3.0023  1.7541 -1.0624
 4658TIP3   OH235608   2.524   6.368   3.420  0.0270 -0.1474  0.4302
 4658TIP3    H135609   2.606   6.336   3.384  0.6576  0.6546  1.1132
 4658TIP3    H235610   2.536   6.463   3.426 -0.5959 -0.1109  1.3864
 4659TIP3   OH235611   0.652   1.805   0.865 -0.2818  0.1920 -0.1377
 4659TIP3    H135612   0.636   1.805   0.960  0.4172  2.0796  0.0121
 4659TIP3    H235613   0.700   1.724   0.849  0.1125  0.1289  1.2230
 4660TIP3   OH235614   3.966   0.100   2.648  0.1100  0.2488 -0.2886
 4660TIP3    H135615   3.906   0.165   2.684 -0.6724 -0.6287  0.0671
 4660TIP3    H235616   4.023   0.077   2.721 -0.0625  0.0480 -0.2143
 4661TIP3   OH235617   3.869   6.713   8.506  0.1696 -0.3817 -0.4577
 4661TIP3    H135618   3.876   6.626   8.545  2.5824  0.7295  1.9086
 4661TIP3    H235619   3.788   6.749   8.542  0.6649 -0.6225  0.9808
 4662TIP3   OH235620   2.572   2.869   2.784 -0.0749 -0.4010 -0.0452
 4662TIP3    H135621   2.561   2.944   2.725 -0.7926 -1.7161 -1.6541
 4662TIP3    H235622   2.625   2.904   2.856  1.6122  1.0743 -1.8633
 4663TIP3   OH235623   1.215   6.172   3.266  0.0665 -0.1177 -0.8204
 4663TIP3    H135624   1.288   6.152   3.325  0.2340  2.2619 -0.0890
 4663TIP3    H235625   1.252   6.236   3.204 -0.6676 -1.0352 -2.2627
 4664TIP3   OH235626   3.480   5.351   1.945  0.6195 -0.0834  0.6712
 4664TIP3    H135627   3.419   5.424   1.942  0.8079  0.0517 -0.3503
 4664TIP3    H235628   3.527   5.356   1.862  1.1401 -0.9328  0.9013
 4665TIP3   OH235629   6.580   1.272   0.470  0.0253 -0.0599  0.5653
 4665TIP3    H135630   6.618   1.333   0.408  0.3643 -0.5631  0.2761
 4665TIP3    H235631   6.485   1.279   0.456  0.0136  0.9569  1.0661
 4666TIP3   OH235632   2.645   1.531   3.510 -0.4799  0.1200  0.2855
 4666TIP3    H135633   2.616   1.524   3.601 -0.9201  1.7513  0.2966
 4666TIP3    H235634   2.650   1.625   3.493  1.1915 -0.1325 -0.8856
 4667TIP3   OH235635   2.967   1.428   2.392  0.2531  0.3429 -0.1096
 4667TIP3    H135636   2.991   1.467   2.308  0.4256  0.3838 -0.0415
 4667TIP3    H235637   2.909   1.356   2.368  0.1149  0.4996 -0.2487
 4668TIP3   OH235638   2.932   0.764   0.163  0.1390 -0.0142  0.4560
 4668TIP3    H135639   2.978   0.728   0.087  0.4572 -0.0350  0.6518
 4668TIP3    H235640   2.976   0.848   0.179 -0.3253  0.2672  0.2511
 4669TIP3   OH235641   1.263   0.134   1.682  0.0070  0.1373 -0.3007
 4669TIP3    H135642   1.223   0.216   1.652 -1.4201  0.3756  1.9854
 4669TIP3    H235643   1.269   0.144   1.777  2.3569 -1.3553 -0.2093
 4670TIP3   OH235644   3.684   0.498   2.142 -0.2623 -0.2287  0.4750
 4670TIP3    H135645   3.606   0.495   2.087 -0.2930 -0.1323  0.5132
 4670TIP3    H235646   3.757   0.513   2.081 -0.3116  0.0193  0.4752
 4671TIP3   OH235647   5.506   3.234   7.718 -0.4309  0.0539 -0.0016
 4671TIP3    H135648   5.598   3.263   7.720 -0.2362 -0.2955 -2.0150
 4671TIP3    H235649   5.505   3.154   7.771  0.2842  0.3950  0.5512
 4672TIP3   OH235650   0.433   2.619   3.261  0.4188 -0.1880 -0.4674
 4672TIP3    H135651   0.352   2.580   3.227  0.6099 -0.2445 -0.8668
 4672TIP3    H235652   0.434   2.596   3.353 -0.4437  0.5121 -0.2620
 4673TIP3   OH235653   3.354   6.303   8.478 -0.4179 -0.2225  0.6259
 4673TIP3    H135654   3.340   6.216   8.442 -0.7785  0.1749 -0.2433
 4673TIP3    H235655   3.272   6.324   8.523  1.1066 -2.0244  4.7061
 4674TIP3   OH235656   4.118   6.536   8.226  0.2251 -0.2520  0.2493
 4674TIP3    H135657   4.185   6.559   8.162 -0.0739  3.6698  1.0886
 4674TIP3    H235658   4.069   6.465   8.186  2.4971 -0.6618 -2.0556
 4675TIP3   OH235659   0.756   0.085   1.134  0.5586 -0.4223  0.2694
 4675TIP3    H135660   0.735   0.054   1.222  0.0044 -1.5026 -0.2296
 4675TIP3    H235661   0.851   0.096   1.136  0.6882 -1.4808  0.6848
 4676TIP3   OH235662   3.334   1.231   8.665 -0.0069  0.4411  0.1719
 4676TIP3    H135663   3.286   1.152   8.639 -0.4618  0.7627  0.0306
 4676TIP3    H235664   3.266   1.291   8.695  0.3054  0.9092 -0.0512
 4677TIP3   OH235665   0.561   5.503   0.082 -0.0297 -0.0004  0.6964
 4677TIP3    H135666   0.574   5.409   0.069  2.2042  0.4005 -0.4931
 4677TIP3    H235667   0.484   5.524   0.029  1.2325 -0.7014 -1.5599
 4678TIP3   OH235668   4.131   6.592   8.648 -0.1974  0.2534 -0.5004
 4678TIP3    H135669   4.137   6.665   8.710 -0.0557 -0.2708  0.1149
 4678TIP3    H235670   4.221   6.569   8.629 -0.0974 -2.2183  2.2891
 4679TIP3   OH235671   5.572   2.251   0.011  0.3233  0.1965  0.4010
 4679TIP3    H135672   5.509   2.241   0.082 -0.2823  2.0381  0.1867
 4679TIP3    H235673   5.591   2.162  -0.018 -1.2792 -0.4630  1.2568
 4680TIP3   OH235674   2.299   4.007   2.369  0.0654  0.2956 -0.0301
 4680TIP3    H135675   2.318   4.069   2.298 -0.0674  1.4313  0.8963
 4680TIP3    H235676   2.205   4.017   2.386 -0.1294 -0.7605 -0.4033
 4681TIP3   OH235677   6.773   3.446   2.714  0.4865 -0.1031  0.1339
 4681TIP3    H135678   6.694   3.420   2.668 -1.2236  0.1652  2.6905
 4681TIP3    H235679   6.788   3.375   2.777  1.6907  0.3428  0.3705
 4682TIP3   OH235680   6.620   4.357   1.820 -0.2042  0.0875  0.0748
 4682TIP3    H135681   6.699   4.313   1.789 -0.7849 -1.8558  1.1767
 4682TIP3    H235682   6.598   4.418   1.751  2.5151  1.0426 -0.0451
 4683TIP3   OH235683   3.798   3.649   3.640 -0.1983 -0.2322 -0.5176
 4683TIP3    H135684   3.867   3.670   3.577 -0.4811  0.3558 -0.6390
 4683TIP3    H235685   3.826   3.690   3.722 -0.1722 -0.3929 -0.4467
 4684TIP3   OH235686   2.763   1.551   8.662  0.3005  0.0392  0.1134
 4684TIP3    H135687   2.855   1.548   8.633  0.2691  0.6760 -0.0758
 4684TIP3    H235688   2.721   1.480   8.615  0.7976 -0.5732  0.5725
 4685TIP3   OH235689   6.375   2.867   3.266  0.1856 -0.4663  0.2337
 4685TIP3    H135690   6.432   2.858   3.342 -1.5937  1.6139  1.9732
 4685TIP3    H235691   6.370   2.962   3.251 -1.2878 -0.7041 -1.0439
 4686TIP3   OH235692   5.643   1.261   0.881 -0.1865 -0.3096 -0.2201
 4686TIP3    H135693   5.711   1.223   0.826 -0.0086 -2.3892  1.3325
 4686TIP3    H235694   5.644   1.355   0.860  2.3266 -0.4818 -1.1037
 4687TIP3   OH235695   4.712   5.011   2.626  0.5485  0.2164 -0.1106
 4687TIP3    H135696   4.730   5.098   2.661 -2.2192  0.5244  0.8087
 4687TIP3    H235697   4.746   4.951   2.692  1.5204  0.5894 -0.2474
 4688TIP3   OH235698   4.694   6.305   8.211 -0.0444 -0.0116 -0.2194
 4688TIP3    H135699   4.682   6.219   8.251 -0.8237  0.5560  0.8259
 4688TIP3    H235700   4.637   6.304   8.135  2.3045 -1.5197 -2.1029
 4689TIP3   OH235701   5.130   1.366   2.829  0.1217  0.3226 -0.8486
 4689TIP3    H135702   5.149   1.408   2.913 -1.6883  0.3316 -0.3866
 4689TIP3    H235703   5.038   1.388   2.813  0.3087 -0.0776 -2.6165
 4690TIP3   OH235704   5.164   5.535   8.600 -0.3452 -0.2666  0.7156
 4690TIP3    H135705   5.093   5.599   8.613  1.1911  1.6208  0.2989
 4690TIP3    H235706   5.192   5.549   8.510 -0.5176 -2.1823  0.3254
 4691TIP3   OH235707   3.018   6.408   0.720 -0.1890  0.0280 -0.0295
 4691TIP3    H135708   3.060   6.443   0.799 -2.3925 -1.4432  1.9177
 4691TIP3    H235709   2.925   6.421   0.734 -0.7246 -1.3706 -1.8529
 4692TIP3   OH235710   2.064   5.607   8.335  0.5098  0.1198  0.1323
 4692TIP3    H135711   2.024   5.681   8.290  3.1300  0.0648 -2.5370
 4692TIP3    H235712   2.027   5.530   8.292  0.9175 -0.0125  0.0167
 4693TIP3   OH235713   2.540   3.898   1.447 -0.5072  0.0107  0.1823
 4693TIP3    H135714   2.467   3.915   1.388  0.2042 -0.6295 -0.8998
 4693TIP3    H235715   2.503   3.840   1.514 -0.8006 -0.9795 -0.8117
 4694TIP3   OH235716   2.303   6.689   1.777  0.5069 -0.2116 -1.5388
 4694TIP3    H135717   2.231   6.636   1.811  0.7061  0.5795  0.1877
 4694TIP3    H235718   2.262   6.745   1.711 -0.4268  0.0712 -0.7379
 4695TIP3   OH235719   4.227   6.572   2.004  0.2416  0.3675  0.3032
 4695TIP3    H135720   4.218   6.620   2.087  0.8503 -1.7521  1.6819
 4695TIP3    H235721   4.322   6.562   1.992  0.2181  1.7521 -1.3719
 4696TIP3   OH235722   3.330   3.276   2.234 -0.1776 -0.3993  0.4497
 4696TIP3    H135723   3.392   3.215   2.194 -0.5104 -0.7634  0.4712
 4696TIP3    H235724   3.383   3.330   2.293  0.6505  1.3733 -1.7869
 4697TIP3   OH235725   1.719   5.755   1.432 -0.0698  0.3986 -0.1958
 4697TIP3    H135726   1.648   5.818   1.440 -0.7460 -0.2482 -0.8633
 4697TIP3    H235727   1.705   5.713   1.347  0.9403  0.0459 -0.2095
 4698TIP3   OH235728   6.686   6.700   3.708 -0.6596 -0.5719  0.0734
 4698TIP3    H135729   6.756   6.755   3.744 -0.7862 -0.8824  0.8217
 4698TIP3    H235730   6.705   6.612   3.743 -2.2037 -0.4083  1.4616
 4699TIP3   OH235731   2.599   2.798   3.984 -0.7791  0.4393  0.3302
 4699TIP3    H135732   2.641   2.816   3.900 -1.6813  0.3529 -0.1518
 4699TIP3    H235733   2.540   2.873   3.997 -1.1560  0.1046  0.5446
 4700TIP3   OH235734   0.524   2.776   3.580  0.4432 -0.6639 -0.2506
 4700TIP3    H135735   0.616   2.779   3.554  0.1958 -0.7427 -1.1528
 4700TIP3    H235736   0.526   2.782   3.676  1.4038 -1.0704 -0.2357
 4701TIP3   OH235737   5.460   0.637   1.279 -0.1248  0.1207  0.1269
 4701TIP3    H135738   5.365   0.648   1.290 -0.5660 -1.8514 -1.2701
 4701TIP3    H235739   5.470   0.598   1.192  1.8903 -0.8197  0.7235
 4702TIP3   OH235740   3.629   2.932   3.133 -0.2591  0.1766 -0.1539
 4702TIP3    H135741   3.562   2.982   3.179  0.5725 -0.3499  1.7113
 4702TIP3    H235742   3.707   2.940   3.187  1.1311  0.4859 -2.0927
 4703TIP3   OH235743   5.810   5.576   3.318 -0.0968  0.0244 -0.1408
 4703TIP3    H135744   5.774   5.588   3.406 -1.0467 -0.0386 -0.5117
 4703TIP3    H235745   5.795   5.660   3.274  0.0338 -0.0644 -0.3555
 4704TIP3   OH235746   5.495   4.137   2.524 -0.3475  0.2511  0.1925
 4704TIP3    H135747   5.482   4.230   2.540 -1.2579  0.0536  0.6327
 4704TIP3    H235748   5.536   4.133   2.437  0.3417  1.0832  0.4624
 4705TIP3   OH235749   0.272   1.650   2.996  0.3712 -0.2056 -0.5569
 4705TIP3    H135750   0.322   1.691   2.925  2.3797  0.8119  1.3339
 4705TIP3    H235751   0.225   1.722   3.038 -2.1753 -1.0357 -1.7917
 4706TIP3   OH235752   2.468   1.747   0.977 -0.2177  0.4398  0.2501
 4706TIP3    H135753   2.428   1.826   0.941  0.7875  0.9996  0.3339
 4706TIP3    H235754   2.519   1.777   1.052  0.9057 -0.1524 -0.2548
 4707TIP3   OH235755   4.766   5.320   2.427 -0.0462 -0.1433 -0.2254
 4707TIP3    H135756   4.684   5.350   2.465  0.4702  1.4148 -0.2588
 4707TIP3    H235757   4.745   5.236   2.387 -2.1421  1.1469 -2.0550
 4708TIP3   OH235758   0.746   5.250   8.224  0.1803 -0.0446 -0.0406
 4708TIP3    H135759   0.709   5.183   8.168  0.3984  1.6696 -2.3971
 4708TIP3    H235760   0.809   5.204   8.279 -1.2533 -2.0620  0.0110
 4709TIP3   OH235761   1.659   1.348   3.269  0.0869  0.3713  0.6716
 4709TIP3    H135762   1.615   1.378   3.349 -0.0688  1.2348  0.2757
 4709TIP3    H235763   1.655   1.252   3.274 -2.4259  0.3890  0.3558
 4710TIP3   OH235764   2.493   0.781   1.758 -0.3320  0.1810 -0.3420
 4710TIP3    H135765   2.584   0.782   1.730 -0.3474  0.2780 -0.3875
 4710TIP3    H235766   2.471   0.872   1.775 -0.3973  0.1496 -0.2553
 4711TIP3   OH235767   5.929   0.773   1.264 -0.1621 -0.2700 -0.4532
 4711TIP3    H135768   6.024   0.765   1.265 -0.0075  1.1894 -1.0445
 4711TIP3    H235769   5.902   0.732   1.181 -0.0547 -0.7453 -0.2521
 4712TIP3   OH235770   1.546   0.674   0.251 -0.5076 -0.0448  0.1473
 4712TIP3    H135771   1.622   0.656   0.307 -0.6685  0.0181  0.3834
 4712TIP3    H235772   1.569   0.632   0.168  1.2612  2.7283 -0.9041
 4713TIP3   OH235773   4.784   4.219   1.562 -0.0584  0.7478 -0.8568
 4713TIP3    H135774   4.862   4.254   1.604 -1.0328 -0.5555  2.3289
 4713TIP3    H235775   4.813   4.138   1.520  0.1057 -0.5732  1.6549
 4714TIP3   OH235776   1.805   1.667   1.651  0.3296  0.3953  0.1764
 4714TIP3    H135777   1.864   1.738   1.676 -1.2170  1.4285  1.0963
 4714TIP3    H235778   1.741   1.664   1.722  0.4066 -2.0296  0.2198
 4715TIP3   OH235779   3.168   3.738   8.357 -0.2684 -0.2261 -0.1868
 4715TIP3    H135780   3.146   3.754   8.449 -1.9400 -2.2133 -0.1718
 4715TIP3    H235781   3.085   3.712   8.316  0.3589  0.9613 -2.3729
 4716TIP3   OH235782   3.069   0.777   4.190  0.2876  0.4671 -0.5751
 4716TIP3    H135783   3.045   0.866   4.165 -0.1694  0.4833 -0.0944
 4716TIP3    H235784   3.003   0.751   4.254  1.8788  0.7448  1.3122
 4717TIP3   OH235785   6.095   4.319   2.086  0.2829  0.0478  0.2878
 4717TIP3    H135786   6.141   4.369   2.153 -2.3051  1.2689  1.3119
 4717TIP3    H235787   6.134   4.348   2.003 -0.0352  2.7014  0.9661
 4718TIP3   OH235788   0.290   6.013   2.047  0.6624 -0.7598 -0.8076
 4718TIP3    H135789   0.195   6.007   2.058  0.5432 -1.1473 -1.8833
 4718TIP3    H235790   0.304   6.096   2.003  0.8194 -0.7351 -0.7120
 4719TIP3   OH235791   5.518   3.908   1.082 -0.1561 -0.1156 -0.7992
 4719TIP3    H135792   5.536   4.000   1.067 -0.2344  0.5069  2.3025
 4719TIP3    H235793   5.444   3.888   1.025 -1.1418  2.1520 -0.3927
 4720TIP3   OH235794   3.263   6.080   2.182  0.3690  0.0780 -0.0269
 4720TIP3    H135795   3.171   6.106   2.187  0.0895 -0.6701 -1.0740
 4720TIP3    H235796   3.311   6.162   2.193 -0.3990  0.4438  0.7675
 4721TIP3   OH235797   6.145   3.394   1.069 -0.0715  0.2899  0.4280
 4721TIP3    H135798   6.118   3.428   1.155  0.0245  0.7816  0.2649
 4721TIP3    H235799   6.118   3.302   1.071  1.5474 -0.2225  1.6880
 4722TIP3   OH235800   3.593   4.862   2.634 -0.0296 -0.6106  0.1816
 4722TIP3    H135801   3.670   4.805   2.638 -0.1161 -0.7495 -0.0934
 4722TIP3    H235802   3.611   4.930   2.698  0.2210 -0.7692  0.2844
 4723TIP3   OH235803   2.695   5.770   0.978 -0.3207 -0.0616 -0.4942
 4723TIP3    H135804   2.765   5.799   0.921 -0.2240 -0.5179 -0.6139
 4723TIP3    H235805   2.739   5.721   1.047 -0.6613 -2.3996 -1.8242
 4724TIP3   OH235806   5.873   3.408   3.952 -0.5704 -0.3300  0.4821
 4724TIP3    H135807   5.889   3.441   4.040 -0.3360  0.9902 -0.0313
 4724TIP3    H235808   5.778   3.411   3.942 -0.8119 -2.7794  1.5159
 4725TIP3   OH235809   5.048   4.260   1.698  0.1849 -0.1766  0.4456
 4725TIP3    H135810   5.110   4.321   1.658  1.0876  0.5079  2.7499
 4725TIP3    H235811   5.072   4.174   1.662  1.1763  0.3441 -0.1753
 4726TIP3   OH235812   6.589   4.488   3.233  0.5264 -0.1159  0.1875
 4726TIP3    H135813   6.658   4.427   3.206  1.0642  0.9571 -1.0343
 4726TIP3    H235814   6.633   4.573   3.237  0.0053  0.1096  2.7238
 4727TIP3   OH235815   0.372   3.032   8.581  0.3421  0.2595  0.0986
 4727TIP3    H135816   0.386   2.947   8.622 -1.8467  0.2635  1.0148
 4727TIP3    H235817   0.374   3.014   8.487  2.0446 -0.3712  0.2191
 4728TIP3   OH235818   2.776   5.978   0.653 -0.0034  0.6139  0.0693
 4728TIP3    H135819   2.858   6.005   0.612  0.4793  0.5030  0.9420
 4728TIP3    H235820   2.734   6.061   0.679  0.0501  0.6502  0.0389
 4729TIP3   OH235821   0.880   6.054   3.068 -0.0929  0.3074 -0.0813
 4729TIP3    H135822   0.894   6.045   3.163  0.6245 -3.0873 -0.3953
 4729TIP3    H235823   0.918   6.140   3.047 -0.7549  1.4197  2.7311
 4730TIP3   OH235824   4.621   2.342   1.088  0.2158 -0.6143  0.1114
 4730TIP3    H135825   4.710   2.372   1.106  0.7215 -1.3056 -1.0995
 4730TIP3    H235826   4.627   2.247   1.091 -0.0630 -0.7240 -1.6594
 4731TIP3   OH235827   2.910   6.289   1.638  0.1696  0.2703  0.9301
 4731TIP3    H135828   2.960   6.367   1.664 -0.2960  0.8696  0.0543
 4731TIP3    H235829   2.874   6.310   1.552  0.4583 -1.1120  0.4380
 4732TIP3   OH235830   6.560   5.870   3.279 -0.0824  0.0152  0.3940
 4732TIP3    H135831   6.578   5.884   3.186 -1.3416 -1.3938 -0.1101
 4732TIP3    H235832   6.630   5.917   3.324  0.6089  0.6663 -1.2568
 4733TIP3   OH235833   6.696   1.023   0.544 -0.5997  0.1882  0.2252
 4733TIP3    H135834   6.787   1.046   0.524 -0.4322  2.1486  2.6823
 4733TIP3    H235835   6.647   1.103   0.525 -1.5096 -0.2514  0.6697
 4734TIP3   OH235836   1.433   4.465   1.052 -0.5008  0.3206  0.0605
 4734TIP3    H135837   1.463   4.466   1.143 -1.7425 -2.5980  0.6316
 4734TIP3    H235838   1.384   4.383   1.044 -0.1539  0.3008 -3.3621
 4735TIP3   OH235839   6.784   5.179   1.362  0.2851  0.0886  0.2690
 4735TIP3    H135840   6.843   5.105   1.352  2.2673  1.4583  1.1456
 4735TIP3    H235841   6.804   5.236   1.288 -1.9381 -0.6132 -0.9746
 4736TIP3   OH235842   2.212   4.558   2.685 -0.4569  0.5375  0.0994
 4736TIP3    H135843   2.270   4.508   2.628  0.2057  0.7215  0.6084
 4736TIP3    H235844   2.164   4.615   2.625 -0.2402  0.2609 -0.3418
 4737TIP3   OH235845   0.108   6.397   1.227  0.2572  0.5212 -0.2279
 4737TIP3    H135846   0.057   6.469   1.191 -1.2771  0.1430  1.0265
 4737TIP3    H235847   0.175   6.439   1.281  0.5264  1.0199 -0.9419
 4738TIP3   OH235848   2.164   5.745   2.931 -0.0936  0.2611 -0.5651
 4738TIP3    H135849   2.141   5.694   3.009  0.1488 -0.4577 -0.9468
 4738TIP3    H235850   2.205   5.681   2.873  0.2431  0.9126 -1.0523
 4739TIP3   OH235851   2.507   0.494   3.659 -0.2592  0.5202  0.0900
 4739TIP3    H135852   2.560   0.573   3.666 -1.3637  1.3556 -0.7216
 4739TIP3    H235853   2.549   0.432   3.719  1.0171  1.4829  0.2332
 4740TIP3   OH235854   3.849   6.722   0.795 -0.1528 -0.2236 -0.5069
 4740TIP3    H135855   3.824   6.658   0.728 -1.6642 -1.4903  1.1495
 4740TIP3    H235856   3.766   6.744   0.839  0.2979  2.9303 -0.9917
 4741TIP3   OH235857   4.493   4.830   1.928  0.1684  0.5393 -0.8014
 4741TIP3    H135858   4.458   4.829   2.018 -0.1372 -1.6819 -0.8693
 4741TIP3    H235859   4.583   4.799   1.937  0.1455  0.3358 -1.2485
 4742TIP3   OH235860   1.544   3.494   3.405 -0.1455 -0.1694  0.7439
 4742TIP3    H135861   1.462   3.539   3.383 -0.7135 -0.2511  2.5091
 4742TIP3    H235862   1.518   3.404   3.423  0.8144 -0.9954 -1.5767
 4743TIP3   OH235863   5.519   1.703   4.368  0.5007 -0.4992 -0.3110
 4743TIP3    H135864   5.426   1.689   4.386  0.8081  0.2105  2.3001
 4743TIP3    H235865   5.544   1.631   4.310 -1.4847 -1.1459 -0.4219
 4744TIP3   OH235866   5.188   4.965   2.935  0.1773  0.6129  0.1937
 4744TIP3    H135867   5.275   4.944   2.900  0.8978  2.7202  0.5344
 4744TIP3    H235868   5.144   5.009   2.862 -0.0990  0.7474  0.4399
 4745TIP3   OH235869   2.791   4.970   0.808 -0.3189  0.2747  0.4035
 4745TIP3    H135870   2.721   4.906   0.794  0.2887  0.0222 -1.9128
 4745TIP3    H235871   2.864   4.938   0.755  0.7919  1.7249  0.9768
 4746TIP3   OH235872   3.053   6.554   0.977  0.0069 -0.0783 -0.6872
 4746TIP3    H135873   3.079   6.589   1.062  1.8828  1.7194 -1.8897
 4746TIP3    H235874   2.994   6.619   0.941  1.0022  0.3363 -1.6420
 4747TIP3   OH235875   1.858   0.705   3.436 -0.2257 -0.1280  0.2495
 4747TIP3    H135876   1.908   0.697   3.518  0.2808  0.7016  0.0342
 4747TIP3    H235877   1.767   0.707   3.464 -0.0136  3.4268  1.1551
 4748TIP3   OH235878   1.287   6.208   3.013  0.1671 -0.9176 -0.4675
 4748TIP3    H135879   1.342   6.131   3.030  0.9951 -0.2803 -0.1440
 4748TIP3    H235880   1.332   6.255   2.943 -0.4377 -0.8323 -0.7997
 4749TIP3   OH235881   3.381   2.645   8.688 -0.1525  0.0097  0.5038
 4749TIP3    H135882   3.438   2.668   8.615 -0.0036 -1.0928  0.2642
 4749TIP3    H235883   3.440   2.617   8.758 -0.3761 -0.9414  0.3242
 4750TIP3   OH235884   4.208   6.042   0.626  0.2370  0.1621  0.3818
 4750TIP3    H135885   4.216   6.085   0.540 -1.1944  1.2631  0.7496
 4750TIP3    H235886   4.116   6.016   0.631 -0.0986  1.4478  2.1381
 4751TIP3   OH235887   1.003   3.588   2.242 -0.1035 -0.1907 -0.2689
 4751TIP3    H135888   1.060   3.574   2.318  1.1316  0.5110 -1.0324
 4751TIP3    H235889   1.039   3.530   2.175 -0.2094  0.3663 -0.8093
 4752TIP3   OH235890   2.658   1.252   1.369  0.7182  0.0653 -0.0760
 4752TIP3    H135891   2.751   1.231   1.376  0.6297 -0.0751  0.8061
 4752TIP3    H235892   2.632   1.276   1.458 -0.3333 -0.9673 -0.0765
 4753TIP3   OH235893   1.111   0.134   0.036 -0.4667  0.4062  0.5373
 4753TIP3    H135894   1.183   0.117  -0.025 -1.9221  1.9099 -1.7277
 4753TIP3    H235895   1.148   0.196   0.100  0.2412  1.2993 -0.6974
 4754TIP3   OH235896   1.751   2.406   8.594  0.1344 -0.4097  0.3366
 4754TIP3    H135897   1.663   2.443   8.581 -0.1553 -1.4654 -0.9807
 4754TIP3    H235898   1.750   2.375   8.684 -0.5759  0.2870  0.5854
 4755TIP3   OH235899   4.562   3.993   1.284 -0.0858  0.1953  0.5175
 4755TIP3    H135900   4.651   4.015   1.310 -0.0330  2.2125 -1.1199
 4755TIP3    H235901   4.540   3.915   1.335  2.5223 -0.2351  1.0904
 4756TIP3   OH235902   6.609   2.481   1.861 -0.4405  0.0873  0.1871
 4756TIP3    H135903   6.554   2.547   1.818 -1.1878 -0.6615 -0.0251
 4756TIP3    H235904   6.549   2.435   1.920  0.0882 -0.3679  0.3750
 4757TIP3   OH235905   0.964   6.099   3.318  0.1064 -0.0320  0.6457
 4757TIP3    H135906   1.040   6.138   3.276  0.0353 -2.1032 -1.5977
 4757TIP3    H235907   1.000   6.053   3.394  0.9411 -0.0858  0.2291
 4758TIP3   OH235908   5.868   5.649   2.964  0.7204  0.1249  0.1803
 4758TIP3    H135909   5.887   5.562   2.929 -0.3855 -0.6991  1.5132
 4758TIP3    H235910   5.925   5.656   3.041 -0.1311  0.0068  0.8408
 4759TIP3   OH235911   4.608   3.486   0.164 -0.6565  0.0051 -0.0845
 4759TIP3    H135912   4.618   3.560   0.104  0.8368  0.5262  0.7477
 4759TIP3    H235913   4.559   3.421   0.114  1.2179  0.0818 -2.1751
 4760TIP3   OH235914   4.342   1.765   3.034 -0.1553 -0.8100  0.0357
 4760TIP3    H135915   4.252   1.797   3.038 -0.0961 -0.5077 -0.8574
 4760TIP3    H235916   4.334   1.670   3.049 -0.8498 -1.1011 -1.8953
 4761TIP3   OH235917   1.604   4.741   1.224  0.4561  0.2074  0.0379
 4761TIP3    H135918   1.512   4.756   1.203  0.0148 -0.7607  1.1626
 4761TIP3    H235919   1.633   4.676   1.161 -0.0581 -0.5734  0.5914
 4762TIP3   OH235920   4.080   3.968   4.572 -0.6960 -0.5941  0.5162
 4762TIP3    H135921   4.113   4.044   4.525  1.0282 -1.6264 -0.0120
 4762TIP3    H235922   4.158   3.920   4.598 -1.7473 -2.2908  0.6573
 4763TIP3   OH235923   0.389   0.374   3.249  0.0039  0.0722 -0.4412
 4763TIP3    H135924   0.366   0.437   3.181 -1.7265  0.0560  0.0862
 4763TIP3    H235925   0.314   0.314   3.254  0.5627 -0.5824  0.7298
 4764TIP3   OH235926   4.738   3.430   0.704 -0.0762 -0.0709  0.0710
 4764TIP3    H135927   4.712   3.359   0.763  0.3114 -1.0956 -0.9395
 4764TIP3    H235928   4.707   3.400   0.618  2.4991 -0.3326 -0.8360
 4765TIP3   OH235929   2.040   5.729   3.219 -0.2835 -0.2092  0.3729
 4765TIP3    H135930   2.109   5.773   3.267 -0.9041  1.9625 -0.6199
 4765TIP3    H235931   2.062   5.636   3.226  1.4895  0.2637  1.9257
 4766TIP3   OH235932   0.026   1.446   1.199 -0.6069 -0.1815  0.1426
 4766TIP3    H135933   0.066   1.527   1.229 -0.5156 -0.6885  1.4507
 4766TIP3    H235934   0.056   1.436   1.108  1.2537  0.0817  0.6842
 4767TIP3   OH235935   2.333   0.021   3.510  0.1896 -0.2191 -0.2342
 4767TIP3    H135936   2.333  -0.075   3.507 -2.2191 -0.3031  0.3517
 4767TIP3    H235937   2.414   0.043   3.556  0.3963 -2.0184  0.3653
 4768TIP3   OH235938   0.620   6.057   2.242 -0.5008 -0.6287  0.0499
 4768TIP3    H135939   0.550   6.116   2.213  0.8551  0.8882 -0.3388
 4768TIP3    H235940   0.687   6.066   2.174  0.4835 -1.2510  0.9098
 4769TIP3   OH235941   4.711   1.656   0.953  0.3234  0.0784 -0.0005
 4769TIP3    H135942   4.633   1.651   1.009  1.0160 -1.6944  0.8832
 4769TIP3    H235943   4.771   1.712   1.002  0.0370  0.5249 -0.1487
 4770TIP3   OH235944   5.881   4.031   8.422  0.5574  0.2378 -0.3726
 4770TIP3    H135945   5.812   4.058   8.483  0.1172 -1.1961 -0.2095
 4770TIP3    H235946   5.838   3.972   8.361  1.6876 -0.9284 -0.0923
 4771TIP3   OH235947   0.735   3.975   0.229  0.0059 -0.0895 -0.1794
 4771TIP3    H135948   0.777   4.020   0.156  0.8360 -0.1971  0.2179
 4771TIP3    H235949   0.772   4.015   0.307 -0.7079 -0.1278  0.1882
 4772TIP3   OH235950   6.494   1.742   3.721 -0.2596 -0.0008  0.3988
 4772TIP3    H135951   6.545   1.801   3.665  0.9027 -1.3658 -0.0250
 4772TIP3    H235952   6.481   1.792   3.802  0.4111  0.9642 -0.0749
 4773TIP3   OH235953   4.657   4.407   1.860 -0.4881 -0.2299  0.0079
 4773TIP3    H135954   4.660   4.314   1.839 -2.2752 -0.1718 -0.6491
 4773TIP3    H235955   4.609   4.411   1.943 -0.5854  0.1077 -0.0624
 4774TIP3   OH235956   5.186   4.790   2.362 -0.3613  0.5033 -1.1845
 4774TIP3    H135957   5.111   4.731   2.354  0.9283 -1.5467  0.6919
 4774TIP3    H235958   5.217   4.776   2.451  1.1370  2.7151 -1.2970
 4775TIP3   OH235959   6.434   3.761   2.977 -0.4110 -0.2468 -0.0454
 4775TIP3    H135960   6.341   3.738   2.986 -1.0839  2.4639  0.9525
 4775TIP3    H235961   6.480   3.677   2.985 -2.5730 -1.3307  3.4508
 4776TIP3   OH235962   2.730   1.649   1.688 -0.1108  0.3824 -0.0876
 4776TIP3    H135963   2.715   1.630   1.781  0.6416  0.4645  0.0572
 4776TIP3    H235964   2.692   1.736   1.675  1.3218  1.1314  0.5711
 4777TIP3   OH235965   6.106   2.585   1.887  0.5644 -0.2754 -0.5073
 4777TIP3    H135966   6.036   2.557   1.946  2.6158 -0.4648  2.0004
 4777TIP3    H235967   6.093   2.680   1.878 -0.5088 -0.4394 -0.8280
 4778TIP3   OH235968   3.655   2.681   2.750  0.6196 -0.4954  0.7484
 4778TIP3    H135969   3.600   2.694   2.672  1.4546  1.1618  0.3901
 4778TIP3    H235970   3.659   2.767   2.792  3.3651 -0.3604  0.4294
 4779TIP3   OH235971   6.001   4.616   1.943 -0.5802  0.3975  0.0496
 4779TIP3    H135972   5.965   4.705   1.937 -1.5317 -0.0108 -0.4997
 4779TIP3    H235973   5.926   4.559   1.927 -0.1158 -0.5282  1.0494
 4780TIP3   OH235974   4.533   6.568   1.479 -0.1038 -0.2061  0.0999
 4780TIP3    H135975   4.478   6.491   1.491 -2.0212  1.1015  0.1298
 4780TIP3    H235976   4.601   6.560   1.545 -0.8866 -1.3430  0.7991
 4781TIP3   OH235977   5.203   0.698   2.621 -0.7512 -0.0171 -0.7072
 4781TIP3    H135978   5.296   0.706   2.643 -1.3543  0.2541  2.0201
 4781TIP3    H235979   5.165   0.782   2.646 -1.7602 -0.0857 -1.8905
 4782TIP3   OH235980   4.245   1.025   8.406  0.3369 -0.3430  0.4295
 4782TIP3    H135981   4.237   0.938   8.367 -1.1503 -0.0731  0.0662
 4782TIP3    H235982   4.278   1.081   8.335  1.6659 -0.6577  0.7701
 4783TIP3   OH235983   4.964   4.930   4.229 -0.2917 -0.0169 -0.7958
 4783TIP3    H135984   4.905   4.906   4.157 -0.8147  2.4990 -1.2888
 4783TIP3    H235985   4.912   4.988   4.284  0.1198 -1.8342  1.6834
 4784TIP3   OH235986   0.511   3.169   4.096  0.2003  0.0960 -0.1443
 4784TIP3    H135987   0.430   3.164   4.146  0.6764  0.5311  0.6906
 4784TIP3    H235988   0.486   3.210   4.013 -0.3868  0.4316  0.2007
 4785TIP3   OH235989   0.906   3.237   2.674  0.3601 -0.0703  0.0690
 4785TIP3    H135990   0.955   3.307   2.630 -1.5787  1.0084 -0.5240
 4785TIP3    H235991   0.866   3.187   2.603  0.2685 -0.6595  0.5266
 4786TIP3   OH235992   1.789   5.081   2.333 -0.0305  0.0434 -0.4343
 4786TIP3    H135993   1.812   5.174   2.340 -1.1417  0.3020 -0.0711
 4786TIP3    H235994   1.847   5.038   2.397  0.0087  0.5803 -0.0993
 4787TIP3   OH235995   5.529   1.827   2.184  0.4574 -0.5135  0.0266
 4787TIP3    H135996   5.529   1.733   2.165 -0.9303 -0.3033 -1.1306
 4787TIP3    H235997   5.617   1.844   2.218  0.7453 -2.2122  0.2136
 4788TIP3   OH235998   3.685   3.825   3.076  0.3073 -0.4549 -0.3328
 4788TIP3    H135999   3.715   3.735   3.060 -0.0267 -0.6808  0.2633
 4788TIP3    H236000   3.590   3.817   3.084  0.3152 -0.1074  0.1211
 4789TIP3   OH236001   1.799   2.422   0.734 -0.5341  0.1556  0.2664
 4789TIP3    H136002   1.719   2.377   0.707 -1.3268  0.9988  1.1175
 4789TIP3    H236003   1.852   2.428   0.654 -0.2836 -2.4347  0.1536
 4790TIP3   OH236004   6.050   4.970   2.963  0.1067  0.4778 -0.4914
 4790TIP3    H136005   5.987   5.038   2.984  0.4667  0.3430  1.1592
 4790TIP3    H236006   6.012   4.890   2.999  0.4494  0.0983 -0.9564
 4791TIP3   OH236007   5.670   3.533   4.184  0.5438 -0.1223 -0.3552
 4791TIP3    H136008   5.619   3.488   4.251  0.6106 -1.1808 -0.9761
 4791TIP3    H236009   5.654   3.482   4.104 -0.6744  1.9201 -1.4816
 4792TIP3   OH236010   2.003   0.591   1.722  0.5385  0.2734 -0.0656
 4792TIP3    H136011   2.032   0.608   1.811 -1.1073 -1.4811  0.8982
 4792TIP3    H236012   2.083   0.591   1.669  1.6882  0.1409  1.6171
 4793TIP3   OH236013   5.826   2.279   0.700  0.2102  0.1201 -0.2561
 4793TIP3    H136014   5.832   2.197   0.651 -1.2074 -0.2383  0.1065
 4793TIP3    H236015   5.901   2.278   0.758  1.5837  0.2603 -1.9453
 4794TIP3   OH236016   2.369   6.583   2.433  0.0126 -0.9349 -0.3191
 4794TIP3    H136017   2.353   6.677   2.443  0.7696 -0.8751  0.4910
 4794TIP3    H236018   2.313   6.557   2.361  0.2897  0.2837 -1.0092
 4795TIP3   OH236019   0.275   6.124   0.249  0.2240 -0.0022 -0.0460
 4795TIP3    H136020   0.273   6.220   0.247 -0.3522 -0.0089 -0.0939
 4795TIP3    H236021   0.249   6.099   0.160  1.8207 -0.2032 -0.4830
 4796TIP3   OH236022   3.313   6.192   1.596 -0.4105 -0.0986 -0.0477
 4796TIP3    H136023   3.378   6.241   1.545  0.3549 -1.7176 -0.7064
 4796TIP3    H236024   3.244   6.172   1.533  0.3134 -1.6972 -0.3777
 4797TIP3   OH236025   5.536   2.209   1.769  0.0607 -0.3582  0.1484
 4797TIP3    H136026   5.539   2.193   1.863  1.6121 -1.4561 -0.0461
 4797TIP3    H236027   5.443   2.200   1.746 -0.4402  0.6121  1.6533
 4798TIP3   OH236028   0.434   0.790   3.205  0.5216 -0.2294 -0.0415
 4798TIP3    H136029   0.430   0.885   3.206 -0.7439 -0.2509 -0.9085
 4798TIP3    H236030   0.344   0.762   3.223  0.9392 -1.2760  0.5693
 4799TIP3   OH236031   1.888   4.032   2.240  0.4159  0.5606 -0.2749
 4799TIP3    H136032   1.871   3.938   2.250  1.5367  0.3385 -0.2907
 4799TIP3    H236033   1.954   4.037   2.170  0.3032  1.3706 -0.3368
 4800TIP3   OH236034   3.744   5.622   2.644  0.5111  0.6674  0.0712
 4800TIP3    H136035   3.664   5.624   2.592  1.1215 -1.8261 -1.1443
 4800TIP3    H236036   3.729   5.554   2.710  0.7227  1.9784  1.5406
 4801TIP3   OH236037   0.887   1.405   8.216  0.4345 -0.1046 -0.2763
 4801TIP3    H136038   0.807   1.383   8.169  0.5268 -1.8628  0.3055
 4801TIP3    H236039   0.924   1.478   8.168 -0.4457 -0.6070 -1.7905
 4802TIP3   OH236040   5.325   6.753   0.381 -0.2692 -0.3300  0.1702
 4802TIP3    H136041   5.256   6.693   0.410 -0.5997 -0.5369 -1.0097
 4802TIP3    H236042   5.309   6.764   0.287  0.0095  1.3055  0.2925
 4803TIP3   OH236043   5.053   0.897   3.474  0.6348 -0.4229  0.4910
 4803TIP3    H136044   4.969   0.905   3.519  1.4840  1.2940  1.8738
 4803TIP3    H236045   5.118   0.928   3.537  2.1405 -0.1981 -1.0826
 4804TIP3   OH236046   6.038   5.580   0.862  0.1444 -0.2393  0.7357
 4804TIP3    H136047   6.044   5.525   0.940 -0.1042 -0.5991  0.5026
 4804TIP3    H236048   5.979   5.651   0.887 -0.0311 -0.4211  0.8318
 4805TIP3   OH236049   0.878   1.116   2.596 -0.2190 -0.1769 -0.4284
 4805TIP3    H136050   0.824   1.101   2.519 -0.3407  0.2270 -0.4261
 4805TIP3    H236051   0.816   1.109   2.670 -0.1960 -0.0913 -0.4006
 4806TIP3   OH236052   5.775   2.285   2.093  0.3717  1.1019 -0.2520
 4806TIP3    H136053   5.727   2.328   2.164  0.5851  1.0468 -0.0753
 4806TIP3    H236054   5.726   2.204   2.077  0.4931  0.9742  0.0293
 4807TIP3   OH236055   6.150   0.539   4.047  0.3558  0.7893  0.0599
 4807TIP3    H136056   6.188   0.456   4.075  0.5518  1.0736  0.6670
 4807TIP3    H236057   6.226   0.595   4.029  0.2454  0.4128 -1.7240
 4808TIP3   OH236058   5.555   2.428   3.368 -0.0200  0.1742  0.4570
 4808TIP3    H136059   5.609   2.358   3.331 -1.0296  0.3742 -1.5637
 4808TIP3    H236060   5.592   2.509   3.334 -0.9713  0.3693 -0.1707
 4809TIP3   OH236061   2.565   3.065   3.047 -0.0353  0.1302  0.3633
 4809TIP3    H136062   2.470   3.063   3.061 -0.0967  1.1850  0.2468
 4809TIP3    H236063   2.580   3.148   3.002  0.9053 -0.1995  0.0499
 4810TIP3   OH236064   3.528   0.220   2.106 -0.0828  0.0832  0.7754
 4810TIP3    H136065   3.453   0.278   2.111  0.0958  0.2528  1.7174
 4810TIP3    H236066   3.508   0.149   2.167  0.4766  0.0856  0.9686
 4811TIP3   OH236067   1.896   3.703   0.754  0.9798 -0.4598 -0.1032
 4811TIP3    H136068   1.931   3.669   0.837 -0.5687 -2.2682 -0.1154
 4811TIP3    H236069   1.801   3.703   0.767  0.8194  1.9086 -0.9368
 4812TIP3   OH236070   1.714   2.938   0.923  0.2413  0.1620  0.4771
 4812TIP3    H136071   1.709   2.857   0.872  0.6840  0.7879 -0.6113
 4812TIP3    H236072   1.758   3.000   0.865 -1.0243  1.4980  0.8723
 4813TIP3   OH236073   4.637   2.160   3.391 -0.3386  0.1320  0.0975
 4813TIP3    H136074   4.645   2.226   3.460  3.8513 -0.4445  0.4300
 4813TIP3    H236075   4.639   2.210   3.309  0.5722  0.5564  0.3666
 4814TIP3   OH236076   0.543   3.611   0.819 -0.2981 -0.4321 -0.3471
 4814TIP3    H136077   0.563   3.646   0.906  2.7488  0.1073 -1.1234
 4814TIP3    H236078   0.542   3.516   0.831  1.5561 -0.4367  0.0972
 4815TIP3   OH236079   4.918   2.856   0.855  0.1384  0.4110  0.0921
 4815TIP3    H136080   4.992   2.834   0.911  0.4425 -1.0317 -0.8236
 4815TIP3    H236081   4.957   2.872   0.769 -0.3957  1.9130  0.1018
 4816TIP3   OH236082   5.634   5.835   3.838 -0.0246  0.1970 -0.2911
 4816TIP3    H136083   5.561   5.775   3.857  0.2712 -0.7859 -2.0501
 4816TIP3    H236084   5.625   5.905   3.903 -2.6204  0.1748 -0.5342
 4817TIP3   OH236085   0.755   1.982   0.016 -0.4782 -0.0413  0.3907
 4817TIP3    H136086   0.688   2.044  -0.010 -1.2594 -0.3094  1.6963
 4817TIP3    H236087   0.828   2.036   0.045 -0.2894  0.2468 -0.5711
 4818TIP3   OH236088   1.960   1.890   0.161 -0.4049  0.0550 -0.2169
 4818TIP3    H136089   1.978   1.970   0.211 -0.4999  0.1872 -0.3930
 4818TIP3    H236090   1.961   1.918   0.070  1.0026 -0.4124 -0.3714
 4819TIP3   OH236091   1.839   3.324   2.131  0.4686 -0.2651 -0.0094
 4819TIP3    H136092   1.873   3.244   2.090  2.7427  1.6367 -2.1516
 4819TIP3    H236093   1.901   3.343   2.202  1.1560  0.6507 -0.8315
 4820TIP3   OH236094   5.595   6.805   3.630  0.0886  0.7490  0.1193
 4820TIP3    H136095   5.660   6.740   3.657 -1.0856 -0.1297  0.9084
 4820TIP3    H236096   5.514   6.777   3.673 -0.8897  1.6402 -1.0837
 4821TIP3   OH236097   5.413   5.548   2.545  0.0803  0.0919  0.3787
 4821TIP3    H136098   5.386   5.539   2.637 -1.6221 -1.8878 -0.2272
 4821TIP3    H236099   5.430   5.458   2.517  1.0224  0.7164 -1.1393
 4822TIP3   OH236100   1.134   6.405   2.218  0.0416  0.6042  0.2764
 4822TIP3    H136101   1.096   6.328   2.260  1.0800 -0.4813 -0.6952
 4822TIP3    H236102   1.078   6.422   2.143  0.7492 -0.2478 -0.4602
 4823TIP3   OH236103   5.186   3.815   3.086  0.3367  0.4395 -0.3831
 4823TIP3    H136104   5.101   3.792   3.050  0.1756  1.6812 -0.8452
 4823TIP3    H236105   5.249   3.766   3.033  0.0122  1.0328 -1.3221
 4824TIP3   OH236106   0.298   3.782   3.053  0.4239  0.3111  0.3877
 4824TIP3    H136107   0.302   3.853   3.117 -0.7610 -1.2053  2.2535
 4824TIP3    H236108   0.230   3.723   3.087  1.1712 -1.5789 -1.2203
 4825TIP3   OH236109   5.600   1.683   2.478  0.0836 -0.3724  0.4948
 4825TIP3    H136110   5.508   1.683   2.450  0.4754  2.4494 -1.2769
 4825TIP3    H236111   5.626   1.591   2.476 -2.3491 -1.1311 -0.1947
 4826TIP3   OH236112   1.165   5.157   8.732  0.3001 -0.2914  0.0368
 4826TIP3    H136113   1.164   5.237   8.680 -0.1352  1.7766  2.9856
 4826TIP3    H236114   1.073   5.138   8.748  0.4173 -1.1471 -0.2549
 4827TIP3   OH236115   6.845   5.581   2.181  0.2275 -0.0670  0.0561
 4827TIP3    H136116   6.935   5.582   2.214  0.8763 -0.4657 -1.5926
 4827TIP3    H236117   6.850   5.629   2.098 -0.9467 -0.6688 -0.3783
 4828TIP3   OH236118   2.639   5.489   1.869 -0.1763 -0.2320 -0.1289
 4828TIP3    H136119   2.560   5.490   1.923  0.7836  0.5110  1.3094
 4828TIP3    H236120   2.683   5.408   1.893  0.7940  0.6193  1.0498
 4829TIP3   OH236121   6.303   5.094   0.018  0.0221  0.1303  0.4306
 4829TIP3    H136122   6.211   5.121   0.013 -0.0048 -0.1327 -1.8514
 4829TIP3    H236123   6.349   5.172   0.048 -0.6393  1.2619 -1.2730
 4830TIP3   OH236124   4.647   1.092   1.840  0.4372 -0.6721  0.4129
 4830TIP3    H136125   4.608   1.089   1.927 -1.5135 -1.5335 -0.4199
 4830TIP3    H236126   4.738   1.117   1.855 -0.1442  0.4006  2.5718
 4831TIP3   OH236127   6.518   3.949   2.786 -0.0313  0.3893  0.1209
 4831TIP3    H136128   6.486   3.939   2.876  0.1138 -0.2876  0.1019
 4831TIP3    H236129   6.567   3.868   2.769 -2.3266 -0.7812 -1.4854
 4832TIP3   OH236130   6.740   2.233   0.231  0.5688 -0.1573  0.0186
 4832TIP3    H136131   6.832   2.246   0.253  0.5130  0.1575  0.0698
 4832TIP3    H236132   6.711   2.164   0.291  0.3819  0.7948  1.0656
 4833TIP3   OH236133   2.235   3.134   1.117  0.1209  0.2659  0.1072
 4833TIP3    H136134   2.328   3.135   1.140  0.1950 -0.0568 -0.1735
 4833TIP3    H236135   2.198   3.065   1.171 -0.1777  1.1340  1.0448
 4834TIP3   OH236136   6.829   2.917   1.382 -0.0481 -0.2009  0.1809
 4834TIP3    H136137   6.742   2.881   1.367 -0.6140  0.8292  0.8132
 4834TIP3    H236138   6.822   3.008   1.353  0.8205 -0.1073  0.2409
 4835TIP3   OH236139   2.802   2.778   0.146 -0.1480 -0.2387 -0.2926
 4835TIP3    H136140   2.827   2.689   0.122 -1.9058 -0.2854 -2.1402
 4835TIP3    H236141   2.729   2.767   0.207 -0.8062 -0.0866 -1.0373
 4836TIP3   OH236142   0.481   1.887   0.647  0.2512 -0.1213  0.3997
 4836TIP3    H136143   0.556   1.870   0.704  0.0010 -1.1975  0.4290
 4836TIP3    H236144   0.405   1.859   0.698  0.0291 -1.1850 -0.4601
 4837TIP3   OH236145   1.370   2.300   2.612  0.0613  0.1463 -0.0017
 4837TIP3    H136146   1.345   2.221   2.563  0.8894  0.3494 -0.7822
 4837TIP3    H236147   1.437   2.341   2.558 -2.6803  3.2559 -1.3904
 4838TIP3   OH236148   5.800   4.328   0.117  0.2637  0.1888  1.1095
 4838TIP3    H136149   5.753   4.251   0.149  0.5094 -0.7503 -0.6876
 4838TIP3    H236150   5.733   4.395   0.107  0.0389  0.2286  2.6423
 4839TIP3   OH236151   0.002   3.790   1.852  0.2479 -0.4428 -0.1871
 4839TIP3    H136152   0.043   3.713   1.890 -2.0478 -1.2980  0.6914
 4839TIP3    H236153   0.031   3.789   1.760  1.4171 -1.4781  0.1630
 4840TIP3   OH236154   5.252   2.157   1.640 -0.3761 -0.2764 -0.0142
 4840TIP3    H136155   5.276   2.239   1.597 -2.0923  0.1287 -0.2810
 4840TIP3    H236156   5.286   2.088   1.583 -0.7621  0.2658 -0.9126
 4841TIP3   OH236157   0.619   2.184   0.362 -0.2064 -0.5113 -0.1255
 4841TIP3    H136158   0.545   2.215   0.310 -0.5715  0.0191  0.6940
 4841TIP3    H236159   0.664   2.122   0.305  0.0403  0.8747 -1.4749
 4842TIP3   OH236160   4.096   3.636   3.776  0.4018 -0.3799 -0.0125
 4842TIP3    H136161   4.174   3.582   3.764  0.6863 -0.0301  0.2382
 4842TIP3    H236162   4.072   3.663   3.688  1.5205  0.8421  0.0235
 4843TIP3   OH236163   2.575   1.562   0.258 -0.6183 -0.3793 -0.7236
 4843TIP3    H136164   2.483   1.557   0.231 -0.4255 -0.5385 -1.3594
 4843TIP3    H236165   2.611   1.634   0.206 -0.6962  0.5601  0.4712
 4844TIP3   OH236166   4.492   4.486   2.779  0.2116  0.4927  0.1644
 4844TIP3    H136167   4.491   4.577   2.748  0.4274  0.6769  0.7028
 4844TIP3    H236168   4.572   4.479   2.830  0.1871  0.0002  0.1317
 4845TIP3   OH236169   2.971   6.679   3.835  0.2264 -0.0705  0.1234
 4845TIP3    H136170   2.937   6.618   3.769  0.2331 -1.4266  1.3366
 4845TIP3    H236171   3.024   6.625   3.893  0.0255  1.0448  1.3974
 4846TIP3   OH236172   2.599   2.159   1.241  0.2064 -0.5277 -0.6947
 4846TIP3    H136173   2.556   2.212   1.308  0.3667 -0.5519 -0.5713
 4846TIP3    H236174   2.608   2.217   1.166 -1.5135 -0.9880 -1.3031
 4847TIP3   OH236175   2.251   6.826   2.693  0.0272  0.1486 -0.1156
 4847TIP3    H136176   2.237   6.782   2.609 -0.0471  0.4031 -0.2414
 4847TIP3    H236177   2.226   6.917   2.676 -2.1913 -0.2416  0.7923
 4848TIP3   OH236178   0.317   0.350   0.661  0.4956  0.0218 -0.0646
 4848TIP3    H136179   0.236   0.399   0.652  0.8925  1.0261  1.5071
 4848TIP3    H236180   0.294   0.276   0.717  0.3717 -0.4486 -0.7276
 4849TIP3   OH236181   5.758   2.845   0.177  0.5613 -0.2923 -0.4383
 4849TIP3    H136182   5.814   2.824   0.101 -0.0885 -1.0716 -0.7255
 4849TIP3    H236183   5.734   2.759   0.212 -1.0874 -0.0176 -0.8051
 4850TIP3   OH236184   0.958   6.706   1.669 -0.0819 -0.1046  0.2019
 4850TIP3    H136185   1.039   6.668   1.634  0.5370  2.1363 -1.0373
 4850TIP3    H236186   0.981   6.732   1.758  0.4193  0.0141  0.0450
 4851TIP3   OH236187   0.040   0.566   1.243  0.4839  0.2914 -0.0161
 4851TIP3    H136188  -0.013   0.502   1.290 -0.5110  2.8943  2.7459
 4851TIP3    H236189   0.089   0.515   1.179 -2.1714 -2.8167  0.1988
 4852TIP3   OH236190   6.737   3.617   2.503  0.0876 -0.6368 -0.1690
 4852TIP3    H136191   6.811   3.663   2.464 -0.2591 -0.5063 -0.6935
 4852TIP3    H236192   6.777   3.546   2.553  0.5726 -0.5341 -0.3998
 4853TIP3   OH236193   6.757   0.115   2.091 -0.1452 -0.1099  0.1821
 4853TIP3    H136194   6.768   0.022   2.071 -1.1323 -0.0580 -0.7242
 4853TIP3    H236195   6.662   0.129   2.089 -0.0098  0.9150  0.3084
 4854TIP3   OH236196   5.967   0.718   8.189 -0.1796 -0.1968  0.0329
 4854TIP3    H136197   6.035   0.652   8.200  0.1769 -0.0853 -1.2657
 4854TIP3    H236198   6.004   0.779   8.125 -1.0779  0.4623  0.1236
 4855TIP3   OH236199   3.888   5.054   2.085 -0.0289 -0.3118 -0.1840
 4855TIP3    H136200   3.877   5.076   2.178  0.9138  1.5983 -0.4561
 4855TIP3    H236201   3.928   5.133   2.047  1.2549 -1.6853 -1.8662
 4856TIP3   OH236202   4.130   6.466   0.280  0.1850 -0.2369 -0.6442
 4856TIP3    H136203   4.112   6.547   0.327 -0.9349 -0.2125 -1.0652
 4856TIP3    H236204   4.051   6.452   0.227 -0.3692 -2.4780  0.6799
 4857TIP3   OH236205   4.120   5.234   3.286 -0.0068  0.4039 -0.4351
 4857TIP3    H136206   4.191   5.238   3.223 -0.5188  0.4055 -1.0172
 4857TIP3    H236207   4.131   5.312   3.340  1.4987 -0.5016  0.6587
 4858TIP3   OH236208   2.756   0.656   0.741  0.3217  0.0843 -0.0144
 4858TIP3    H136209   2.758   0.596   0.815 -2.1057  0.6038  0.5559
 4858TIP3    H236210   2.759   0.744   0.780 -0.1086  0.3538 -0.5587
 4859TIP3   OH236211   5.663   4.770   1.833  0.1575  0.6310 -0.1902
 4859TIP3    H136212   5.715   4.803   1.759  1.6455  0.0705  0.5532
 4859TIP3    H236213   5.589   4.725   1.792  0.5074  1.0463 -1.3151
 4860TIP3   OH236214   5.132   0.165   2.128  0.1173 -0.0601  0.0261
 4860TIP3    H136215   5.219   0.187   2.163  0.2460 -0.6519  0.0909
 4860TIP3    H236216   5.127   0.212   2.045 -0.0664  1.1146  0.6780
 4861TIP3   OH236217   6.009   3.444   0.459  0.1610 -0.8166  0.3885
 4861TIP3    H136218   6.092   3.438   0.505  0.6898 -1.5687 -0.6133
 4861TIP3    H236219   6.008   3.368   0.401 -0.9958 -0.5379 -0.0021
 4862TIP3   OH236220   3.122   0.552   2.903  0.0040 -0.1289 -0.5238
 4862TIP3    H136221   3.180   0.537   2.829  0.1385 -0.7830 -0.2930
 4862TIP3    H236222   3.041   0.506   2.879  0.3348 -1.0714  0.0837
 4863TIP3   OH236223   1.199   2.195   1.625  0.4089  0.3571 -0.0878
 4863TIP3    H136224   1.139   2.151   1.684 -0.0026 -1.1441 -1.5650
 4863TIP3    H236225   1.182   2.289   1.640 -0.5397  0.0051  1.2524
 4864TIP3   OH236226   0.061   2.732   8.376  0.2043 -0.2209  0.6855
 4864TIP3    H136227  -0.032   2.709   8.377  0.3523 -0.8744  0.1422
 4864TIP3    H236228   0.073   2.782   8.295  1.0531 -3.4534 -1.3693
 4865TIP3   OH236229   2.275   4.176   3.401 -0.5030 -0.3309 -0.5353
 4865TIP3    H136230   2.368   4.190   3.418 -0.1186 -3.9976  1.3909
 4865TIP3    H236231   2.230   4.219   3.473 -0.1399 -0.3829 -0.2755
 4866TIP3   OH236232   2.419   2.903   1.615 -0.1446  0.1984  0.4799
 4866TIP3    H136233   2.496   2.849   1.600 -0.8830 -0.2690 -2.0917
 4866TIP3    H236234   2.355   2.843   1.654  0.3451  0.2712  1.4229
 4867TIP3   OH236235   3.102   6.200   1.406  0.3784 -0.2267  0.0711
 4867TIP3    H136236   3.089   6.294   1.416 -1.1978 -0.5959  1.7512
 4867TIP3    H236237   3.015   6.162   1.413  1.1240 -1.9210  0.6151
 4868TIP3   OH236238   4.682   2.164   0.164  0.1447  0.3394 -0.0670
 4868TIP3    H136239   4.671   2.106   0.089  3.7312 -0.2485 -0.3163
 4868TIP3    H236240   4.704   2.105   0.236  1.5009  1.1437  0.2198
 4869TIP3   OH236241   5.234   6.129   3.840  0.2736  0.0103 -0.8430
 4869TIP3    H136242   5.204   6.161   3.755 -2.1477  2.4429  0.7677
 4869TIP3    H236243   5.293   6.197   3.872  1.7442 -1.2333 -0.7903
 4870TIP3   OH236244   2.865   6.541   3.206 -0.7263  0.1872 -0.2656
 4870TIP3    H136245   2.921   6.591   3.264 -1.0185 -0.1239  0.2894
 4870TIP3    H236246   2.919   6.525   3.128  2.0816 -4.6235  2.1945
 4871TIP3   OH236247   4.192   0.125   2.131 -0.3270  0.0975  0.4963
 4871TIP3    H136248   4.174   0.145   2.223  1.8586 -3.1034  1.7900
 4871TIP3    H236249   4.109   0.092   2.097 -0.7202 -0.4998  1.9415
 4872TIP3   OH236250   3.424   0.283   0.031 -0.2177 -0.7778 -0.2928
 4872TIP3    H136251   3.493   0.347   0.012 -2.3196  1.8929  0.4089
 4872TIP3    H236252   3.397   0.251  -0.055  0.2412  0.0086 -0.7417
 4873TIP3   OH236253   5.925   1.436   2.804 -0.4373  1.1740 -0.6125
 4873TIP3    H136254   5.868   1.496   2.756 -1.0856 -0.8590 -2.5512
 4873TIP3    H236255   5.977   1.393   2.736 -0.1261 -0.5707  0.6589
 4874TIP3   OH236256   5.776   3.520   0.213 -0.3699 -0.1841 -0.0632
 4874TIP3    H136257   5.733   3.577   0.276 -1.1066 -1.1448  0.3319
 4874TIP3    H236258   5.790   3.438   0.261 -0.9113 -0.9212 -1.1285
 4875TIP3   OH236259   3.018   2.067   1.735  0.2015  0.1537  0.1870
 4875TIP3    H136260   3.016   2.001   1.804 -0.6818  0.2253  0.2467
 4875TIP3    H236261   3.084   2.130   1.763  0.8314 -0.5435  0.2773
 4876TIP3   OH236262   5.814   2.139   3.484 -0.0791  0.2996 -0.3597
 4876TIP3    H136263   5.819   2.048   3.511  3.1822  0.2623 -0.6608
 4876TIP3    H236264   5.863   2.143   3.402 -0.8723  2.1835 -0.8006
 4877TIP3   OH236265   3.292   2.889   3.845 -0.6743  0.1565 -0.0727
 4877TIP3    H136266   3.234   2.908   3.771 -0.2659  0.2565 -0.3697
 4877TIP3    H236267   3.251   2.814   3.888  0.0205 -1.0497 -1.4404
 4878TIP3   OH236268   2.695   0.119   2.378  0.2479 -0.0313 -0.0936
 4878TIP3    H136269   2.765   0.056   2.362 -0.3986 -0.8414  0.1590
 4878TIP3    H236270   2.658   0.136   2.291  0.5872  0.2070 -0.1946
 4879TIP3   OH236271   4.030   6.397   1.944 -0.3049 -0.4682 -0.0457
 4879TIP3    H136272   3.957   6.433   1.995 -0.5378  1.0177 -1.3541
 4879TIP3    H236273   4.104   6.454   1.963  0.5140 -1.8144  1.0670
 4880TIP3   OH236274   0.602   0.970   1.183  0.4720  0.3078  0.0425
 4880TIP3    H136275   0.677   0.927   1.140  0.2397 -0.2150  0.1591
 4880TIP3    H236276   0.628   0.978   1.274 -0.3464 -1.5726  0.4790
 4881TIP3   OH236277   6.113   1.400   2.601 -0.0807  0.0745 -0.5563
 4881TIP3    H136278   6.183   1.341   2.571  1.0924  1.2209 -0.1310
 4881TIP3    H236279   6.155   1.485   2.610 -1.9190  1.2188 -1.9348
 4882TIP3   OH236280   2.748   0.791   8.258  0.3442 -0.7060 -0.4332
 4882TIP3    H136281   2.660   0.826   8.251 -0.6632 -3.2495 -1.6456
 4882TIP3    H236282   2.805   0.863   8.231 -1.4631  0.5193 -1.1354
 4883TIP3   OH236283   0.802   4.845   0.809  0.0174  0.4178 -0.3917
 4883TIP3    H136284   0.860   4.829   0.734  1.1279  1.5292  0.1898
 4883TIP3    H236285   0.716   4.858   0.770  0.5040  0.5994 -1.4558
 4884TIP3   OH236286   3.179   3.268   2.760 -0.2923 -0.3331  0.2358
 4884TIP3    H136287   3.166   3.253   2.667 -0.2975  3.1528 -0.4409
 4884TIP3    H236288   3.094   3.247   2.800 -1.4315  1.4808 -1.1023
 4885TIP3   OH236289   3.385   1.295   0.226  0.0742  0.2161 -0.0814
 4885TIP3    H136290   3.369   1.390   0.232  1.1729  0.4301 -0.3530
 4885TIP3    H236291   3.301   1.256   0.248 -0.3909  1.2573  0.0800
 4886TIP3   OH236292   4.099   4.038   2.233  0.1444  0.4606 -0.0803
 4886TIP3    H136293   4.154   3.968   2.198  0.5278  0.6724  0.0934
 4886TIP3    H236294   4.046   3.995   2.300 -2.6829 -0.6312 -2.7509
 4887TIP3   OH236295   6.792   4.713   0.482  0.4837  0.5170  0.2223
 4887TIP3    H136296   6.881   4.687   0.507  0.6241  1.3955  0.6773
 4887TIP3    H236297   6.762   4.769   0.554 -0.4137  0.2855  0.0384
 4888TIP3   OH236298   0.389   5.857   0.607  0.0279  0.1667 -0.6681
 4888TIP3    H136299   0.430   5.903   0.533 -1.3200 -0.3958 -1.8084
 4888TIP3    H236300   0.316   5.809   0.568 -2.4536  1.9520  1.3759
 4889TIP3   OH236301   0.094   3.922   2.703  0.2338 -0.0377 -0.0324
 4889TIP3    H136302   0.158   3.859   2.738  0.6587 -0.1838 -1.0483
 4889TIP3    H236303   0.122   3.938   2.613  0.3061  1.8473  0.2873
 4890TIP3   OH236304   3.847   5.267   2.762 -0.1870 -0.7968  0.5185
 4890TIP3    H136305   3.905   5.310   2.700  0.4706  0.1912  1.7898
 4890TIP3    H236306   3.776   5.329   2.776 -1.8792 -2.1512 -1.3398
 4891TIP3   OH236307   5.990   3.659   8.178  0.3388  0.2199  0.3714
 4891TIP3    H136308   6.024   3.744   8.149  1.0482  0.6736  2.3538
 4891TIP3    H236309   6.062   3.598   8.162  0.1537  0.1545 -0.2339
 4892TIP3   OH236310   4.454   5.287   0.268  0.4073  0.0564 -0.6617
 4892TIP3    H136311   4.546   5.287   0.296  0.0869  0.2784  0.4599
 4892TIP3    H236312   4.410   5.229   0.330 -0.3360  0.5193 -0.7426
 4893TIP3   OH236313   5.091   4.493   0.045 -0.6637  0.1455  0.2147
 4893TIP3    H136314   5.084   4.406   0.084  0.4954 -1.4297 -2.7501
 4893TIP3    H236315   5.008   4.507   0.002 -0.9684  0.7076  0.9538
 4894TIP3   OH236316   3.712   5.045   1.224  0.0131 -0.0754 -0.2797
 4894TIP3    H136317   3.641   5.102   1.254  0.6304  0.9802 -0.7565
 4894TIP3    H236318   3.764   5.100   1.165  0.2287 -1.3498 -1.3367
 4895TIP3   OH236319   4.146   3.924   3.900 -0.5806  0.4543  0.3632
 4895TIP3    H136320   4.102   3.987   3.843 -1.5371 -0.7351 -0.2367
 4895TIP3    H236321   4.126   3.839   3.863 -0.7648 -0.3340  2.1627
 4896TIP3   OH236322   2.479   5.395   2.643  0.3022 -0.3746  0.4476
 4896TIP3    H136323   2.457   5.455   2.571  0.6657  0.3761  0.9495
 4896TIP3    H236324   2.400   5.392   2.697 -0.0242 -1.0573 -0.0482
 4897TIP3   OH236325   0.395   4.371   3.123  0.2732 -0.0109 -0.2534
 4897TIP3    H136326   0.468   4.391   3.182 -0.0839 -1.2423  0.6514
 4897TIP3    H236327   0.435   4.371   3.036  0.8657  1.5779 -0.0211
 4898TIP3   OH236328   2.541   0.194   2.146 -0.0012 -0.4568  0.0753
 4898TIP3    H136329   2.493   0.276   2.137 -0.1482 -0.4941  0.5003
 4898TIP3    H236330   2.479   0.127   2.116 -0.5395 -0.5945  1.4143
 4899TIP3   OH236331   5.963   0.505   0.650  0.5313  0.1132 -0.0950
 4899TIP3    H136332   6.005   0.447   0.587 -0.6323 -0.7711 -0.0848
 4899TIP3    H236333   6.033   0.530   0.711  1.4277  0.1212 -1.0976
 4900TIP3   OH236334   0.331   5.996   1.450  0.0231 -0.2091 -0.2347
 4900TIP3    H136335   0.256   5.949   1.416  0.4984  0.1835 -1.9425
 4900TIP3    H236336   0.401   5.930   1.455  0.1773 -0.0975 -0.8386
 4901TIP3   OH236337   4.527   3.254   3.936 -0.5072 -0.2767 -0.1843
 4901TIP3    H136338   4.444   3.249   3.983  0.0931 -0.1258  0.9312
 4901TIP3    H236339   4.589   3.207   3.992  0.5552  1.2021 -0.0369
 4902TIP3   OH236340   5.209   1.821   8.462  0.4034 -0.4656  0.1636
 4902TIP3    H136341   5.156   1.815   8.541  1.1941 -3.1635  0.5882
 4902TIP3    H236342   5.176   1.751   8.405 -0.5530  1.7769 -2.2305
 4903TIP3   OH236343   0.686   4.941   2.892  0.0748 -0.1666  0.3505
 4903TIP3    H136344   0.731   4.867   2.932 -0.4401 -0.9891 -0.5325
 4903TIP3    H236345   0.730   4.953   2.808  2.1328  2.5033  1.6702
 4904TIP3   OH236346   6.285   6.802   3.514  0.1430  0.6092  0.0435
 4904TIP3    H136347   6.326   6.850   3.587 -1.0902 -0.4288  1.4785
 4904TIP3    H236348   6.194   6.790   3.542 -0.3691  0.2164 -1.7157
 4905TIP3   OH236349   6.334   6.846   0.015  0.0266 -0.2075 -0.1107
 4905TIP3    H136350   6.311   6.775   0.075  0.3444 -1.1218 -1.0422
 4905TIP3    H236351   6.316   6.811  -0.072  0.7301  0.6492 -0.6237
 4906TIP3   OH236352   2.880   6.749   7.737  0.2573  0.0617 -0.6789
 4906TIP3    H136353   2.830   6.771   7.816  0.6397  0.9546 -0.6712
 4906TIP3    H236354   2.963   6.795   7.748  0.3217  0.1868 -1.6031
 4907TIP3   OH236355   1.961   4.829   8.714 -0.2120 -0.4325 -0.0838
 4907TIP3    H136356   1.887   4.886   8.737 -1.8574 -1.5226 -2.3070
 4907TIP3    H236357   1.966   4.767   8.787 -0.8690  0.2400  0.5572
 4908TIP3   OH236358   5.088   3.995   2.199 -0.2336  0.3032  0.1460
 4908TIP3    H136359   5.064   4.076   2.243 -0.3645 -0.2590  1.1457
 4908TIP3    H236360   5.121   4.023   2.113  2.6233  1.6721  1.5678
 4909TIP3   OH236361   6.501   2.502   1.244 -0.4810 -0.5669 -0.0207
 4909TIP3    H136362   6.588   2.500   1.283 -0.5629 -0.3376  0.1825
 4909TIP3    H236363   6.508   2.565   1.173 -0.7234  0.1923  0.6104
 4910TIP3   OH236364   2.140   2.002   0.772  0.3533 -0.0003 -1.2246
 4910TIP3    H136365   2.198   2.000   0.848 -0.4189 -1.3391 -0.6319
 4910TIP3    H236366   2.085   2.080   0.786  0.9021  0.3489 -0.9604
 4911TIP3   OH236367   6.308   6.185   2.046 -0.1680  1.0173 -0.4090
 4911TIP3    H136368   6.246   6.189   2.119 -1.9878  0.2896 -1.8335
 4911TIP3    H236369   6.317   6.276   2.018 -0.1054  1.2028  0.1906
 4912TIP3   OH236370   0.709   3.528   1.719 -0.2505  0.1541  0.1816
 4912TIP3    H136371   0.768   3.495   1.787 -1.2379 -1.0649  0.4919
 4912TIP3    H236372   0.709   3.459   1.652  0.6108  1.2768 -1.0347
 4913TIP3   OH236373   1.446   2.721   3.222  0.5094 -0.6018 -0.2658
 4913TIP3    H136374   1.420   2.722   3.130 -0.0221 -1.1237 -0.1255
 4913TIP3    H236375   1.468   2.630   3.240  0.8740 -0.4526  0.0570
 4914TIP3   OH236376   6.707   0.077   8.332 -0.6801  0.1594 -0.4896
 4914TIP3    H136377   6.715  -0.015   8.309  2.0915  0.3071 -0.4101
 4914TIP3    H236378   6.614   0.089   8.349 -0.9697 -2.9139  0.7371
 4915TIP3   OH236379   1.489   6.786   1.130  0.4100 -0.3490 -0.0158
 4915TIP3    H136380   1.480   6.704   1.082 -0.4654  0.4478 -1.2713
 4915TIP3    H236381   1.476   6.762   1.222  1.3063 -1.7757 -0.2398
 4916TIP3   OH236382   5.060   6.261   0.006  0.2204 -0.4314 -0.2465
 4916TIP3    H136383   5.125   6.251  -0.064  1.6181 -1.0376  1.0949
 4916TIP3    H236384   5.110   6.256   0.087 -1.4376 -0.3084  0.8397
 4917TIP3   OH236385   5.722   0.301   3.586 -0.1376 -0.3937  0.5636
 4917TIP3    H136386   5.776   0.373   3.618 -0.2474 -0.8612  1.8521
 4917TIP3    H236387   5.637   0.341   3.568  0.7948  0.5486 -2.3681
 4918TIP3   OH236388   4.891   2.534   2.000  0.1619  0.6174  0.1246
 4918TIP3    H136389   4.817   2.510   2.056  1.7284  0.5665  2.2851
 4918TIP3    H236390   4.942   2.596   2.052  1.3189  1.1768 -1.5710
 4919TIP3   OH236391   4.405   5.885   8.582  0.2124  0.0400  0.1634
 4919TIP3    H136392   4.426   5.793   8.564  2.1943  0.4504  0.1176
 4919TIP3    H236393   4.368   5.918   8.500  0.2981 -0.4991 -0.0970
 4920TIP3   OH236394   6.220   5.961   3.276 -0.4746 -0.6019  0.2713
 4920TIP3    H136395   6.154   5.928   3.337  0.0018 -0.9217  0.6171
 4920TIP3    H236396   6.291   5.992   3.331 -0.6658  0.4969 -0.0676
 4921TIP3   OH236397   1.019   0.685   0.063 -0.6055 -0.0060  0.5842
 4921TIP3    H136398   1.021   0.750  -0.008  0.4842  0.5857  1.1337
 4921TIP3    H236399   1.082   0.718   0.127  1.9436 -2.8160 -0.2107
 4922TIP3   OH236400   1.596   2.639   8.525 -0.3467 -0.1626  0.1475
 4922TIP3    H136401   1.540   2.717   8.532 -1.1379 -0.6047 -1.0167
 4922TIP3    H236402   1.671   2.668   8.472 -0.8520 -0.2946 -0.6511
 4923TIP3   OH236403   3.642   4.624   8.492 -0.0228  0.3719  0.0530
 4923TIP3    H136404   3.606   4.597   8.407 -2.9061  2.2742  0.5172
 4923TIP3    H236405   3.612   4.557   8.553 -0.3248  0.4248 -0.0333
 4924TIP3   OH236406   5.357   0.493   1.592 -0.3542  0.2342  0.2417
 4924TIP3    H136407   5.304   0.545   1.531 -1.3808 -0.7711  0.2457
 4924TIP3    H236408   5.400   0.427   1.538  1.0672  1.1387  0.2175
 4925TIP3   OH236409   6.314   0.585   3.747  0.4837 -0.0957  0.1454
 4925TIP3    H136410   6.395   0.542   3.722  0.6811  0.5537 -0.3536
 4925TIP3    H236411   6.331   0.620   3.835  0.8804  0.3811 -0.1181
 4926TIP3   OH236412   1.995   3.905   2.704  0.4378 -0.2971  0.3008
 4926TIP3    H136413   2.024   3.996   2.696 -1.0542  0.1794 -0.0234
 4926TIP3    H236414   1.999   3.886   2.797 -0.4348  0.5331  0.5196
 4927TIP3   OH236415   4.041   2.276   8.151  0.1062  0.5778 -0.1980
 4927TIP3    H136416   4.116   2.262   8.092  0.5371  0.2011  0.4234
 4927TIP3    H236417   4.062   2.223   8.228 -0.3533  1.2286  0.3735
 4928TIP3   OH236418   2.385   5.044   2.238  0.4188 -0.3257 -0.7089
 4928TIP3    H136419   2.426   5.125   2.208  2.3936 -0.6373  0.8936
 4928TIP3    H236420   2.293   5.066   2.249  0.8310  1.5757 -0.7422
 4929TIP3   OH236421   0.645   0.295   8.370  0.2813  0.2826 -0.3996
 4929TIP3    H136422   0.714   0.300   8.305 -0.0590 -0.8405 -0.8841
 4929TIP3    H236423   0.567   0.327   8.325 -0.0894 -1.0818 -0.7874
 4930TIP3   OH236424   3.777   3.436   1.390  0.5771  0.1170 -0.7654
 4930TIP3    H136425   3.720   3.510   1.368 -0.9324 -0.9554 -0.6228
 4930TIP3    H236426   3.833   3.468   1.461 -0.3789  0.9662 -0.3821
 4931TIP3   OH236427   4.076   5.025   8.408 -0.1253  0.2782 -0.7309
 4931TIP3    H136428   4.138   5.086   8.367  0.8470 -0.3841 -0.2908
 4931TIP3    H236429   3.994   5.074   8.412  0.4090  1.2499 -1.1692
 4932TIP3   OH236430   1.722   3.085   0.266 -0.2126  0.1103  0.2768
 4932TIP3    H136431   1.717   3.087   0.361  0.0564  0.7969  0.2828
 4932TIP3    H236432   1.800   3.136   0.245 -1.4894  1.8947 -0.3890
 4933TIP3   OH236433   0.656   3.257   3.508 -0.0894  0.2806  0.1047
 4933TIP3    H136434   0.706   3.227   3.584  0.6030  2.8024  0.7245
 4933TIP3    H236435   0.573   3.209   3.513  0.6827 -0.9952  1.3316
 4934TIP3   OH236436   3.339   3.708   0.818 -0.2631  0.1909 -0.3384
 4934TIP3    H136437   3.404   3.734   0.753 -1.1434  2.3891 -0.4349
 4934TIP3    H236438   3.256   3.737   0.781 -0.9162  0.4260  1.2414
 4935TIP3   OH236439   5.474   5.549   8.668 -0.4941  0.0992  0.0828
 4935TIP3    H136440   5.467   5.600   8.587 -0.6063 -1.4177 -0.9291
 4935TIP3    H236441   5.390   5.502   8.673  0.9597 -2.9926 -1.2576
 4936TIP3   OH236442   1.017   2.528   2.458  0.1221 -0.0518 -0.0372
 4936TIP3    H136443   1.075   2.566   2.524  1.7178 -0.1692 -1.3026
 4936TIP3    H236444   1.033   2.433   2.464  0.5906 -0.0333 -0.8366
 4937TIP3   OH236445   0.612   6.010   1.138 -0.1060  0.2854 -0.6950
 4937TIP3    H136446   0.556   6.046   1.207  1.8001  0.4591  0.8952
 4937TIP3    H236447   0.558   5.945   1.094 -1.6995  0.7980  0.4024
 4938TIP3   OH236448   5.679   0.926   2.543  0.0478  0.4190 -0.5818
 4938TIP3    H136449   5.753   0.866   2.553  0.4757  1.0077 -0.1830
 4938TIP3    H236450   5.622   0.882   2.480  0.4975 -0.2685 -0.5293
 4939TIP3   OH236451   3.008   6.657   1.728  0.2761  0.7792 -0.6686
 4939TIP3    H136452   2.912   6.660   1.730  0.2081 -0.7976 -0.1959
 4939TIP3    H236453   3.032   6.597   1.799  1.5857  0.7112 -1.1358
 4940TIP3   OH236454   0.812   0.143   4.111  0.1197 -0.5273  0.3827
 4940TIP3    H136455   0.833   0.233   4.136  1.3620 -0.9043  0.7823
 4940TIP3    H236456   0.716   0.140   4.112  0.0639  0.5968  1.0525
 4941TIP3   OH236457   6.222   1.200   8.030  0.2275  0.2180  0.1957
 4941TIP3    H136458   6.264   1.115   8.046  2.2501  0.8971 -1.0998
 4941TIP3    H236459   6.232   1.247   8.113  1.0867 -0.0497  0.2597
 4942TIP3   OH236460   1.354   1.556   2.472 -0.1422 -0.1590  0.0723
 4942TIP3    H136461   1.428   1.531   2.417  0.4659  1.5467  0.0806
 4942TIP3    H236462   1.287   1.490   2.453  0.9641 -1.0687 -0.7777
 4943TIP3   OH236463   4.941   3.241   2.981  0.1108 -0.4941  0.0507
 4943TIP3    H136464   4.871   3.249   3.046  0.4259 -0.1745  0.3564
 4943TIP3    H236465   5.021   3.258   3.031  0.2006  2.0402 -0.8554
 4944TIP3   OH236466   0.601   2.081   0.894  0.2696  0.5164  0.0412
 4944TIP3    H136467   0.617   1.987   0.899 -0.0941  0.4060 -0.6795
 4944TIP3    H236468   0.587   2.098   0.801 -0.0341  1.2240  0.2059
 4945TIP3   OH236469   0.309   6.856   0.546 -0.1808 -0.1380 -0.2296
 4945TIP3    H136470   0.228   6.833   0.591 -0.0257  0.9939  0.7059
 4945TIP3    H236471   0.376   6.801   0.588  0.0209  1.1585  1.2544
 4946TIP3   OH236472   0.011   2.290   3.153 -0.2739 -0.4799 -0.6366
 4946TIP3    H136473   0.005   2.202   3.190  1.0431 -0.3853 -0.1378
 4946TIP3    H236474   0.032   2.276   3.061 -0.0426 -0.6876 -0.5520
 4947TIP3   OH236475   3.042   3.942   0.604  1.0254 -0.1989 -0.5730
 4947TIP3    H136476   3.107   4.007   0.632  1.1034  0.1931 -1.6099
 4947TIP3    H236477   3.079   3.858   0.631  0.4750  0.2140  1.6525
 4948TIP3   OH236478   4.983   3.045   0.222 -0.4281  0.3301  0.2470
 4948TIP3    H136479   5.037   3.077   0.149  1.4290  1.1674  1.8895
 4948TIP3    H236480   4.898   3.025   0.182  0.5082  0.7385 -2.1306
 4949TIP3   OH236481   2.084   1.440   8.406 -0.2439  0.0530 -0.1666
 4949TIP3    H136482   2.024   1.393   8.349 -0.9518  0.6062  0.0983
 4949TIP3    H236483   2.029   1.506   8.449  0.0516 -0.9071  1.8205
 4950TIP3   OH236484   5.850   2.781   0.690  0.0109 -0.3633 -0.1569
 4950TIP3    H136485   5.826   2.850   0.628  0.6480 -0.4590 -0.5249
 4950TIP3    H236486   5.820   2.700   0.647  0.3676 -0.4209 -0.3017
 4951TIP3   OH236487   5.834   2.285   8.278 -0.4223 -0.9215 -0.6361
 4951TIP3    H136488   5.810   2.378   8.281 -1.2665 -1.1601  1.2676
 4951TIP3    H236489   5.773   2.242   8.337  2.0914 -2.1901  1.2216
 4952TIP3   OH236490   0.706   3.695   0.147  0.0621 -0.4406  0.2670
 4952TIP3    H136491   0.708   3.696   0.051  2.2812 -0.0088  0.2803
 4952TIP3    H236492   0.742   3.780   0.173  1.2118 -1.2701  1.4881
 4953TIP3   OH236493   6.200   5.166   1.322 -0.0466  0.1660 -0.2060
 4953TIP3    H136494   6.212   5.148   1.416  0.9063 -0.5084 -0.4375
 4953TIP3    H236495   6.283   5.204   1.294 -0.4779  0.7593 -0.6920
 4954TIP3   OH236496   1.854   5.027   2.819  0.7104 -0.0565  0.3966
 4954TIP3    H136497   1.810   4.990   2.743  1.3429  0.2671 -0.1437
 4954TIP3    H236498   1.839   4.964   2.889  0.2602 -0.4424 -0.0399
 4955TIP3   OH236499   0.038   2.851   2.970  0.2988  0.0006 -0.4762
 4955TIP3    H136500   0.072   2.858   2.881 -1.8498  0.0014 -1.3594
 4955TIP3    H236501   0.076   2.925   3.017  0.6956  0.5497 -1.6516
 4956TIP3   OH236502   5.025   4.387   7.804 -0.7486 -0.4799 -0.5725
 4956TIP3    H136503   4.947   4.376   7.750 -1.3387  2.8684 -0.5959
 4956TIP3    H236504   5.008   4.466   7.856  3.1015  1.2329 -1.5640
 4957TIP3   OH236505   1.650   4.738   3.775  0.7036  0.5318 -0.1232
 4957TIP3    H136506   1.713   4.810   3.774 -0.4010  1.5437  0.6405
 4957TIP3    H236507   1.571   4.776   3.812  0.4466 -1.3809  1.4521
 4958TIP3   OH236508   1.983   5.959   1.183 -0.7077  0.1867  0.2231
 4958TIP3    H136509   1.889   5.955   1.168 -0.4333 -1.4662 -1.3967
 4958TIP3    H236510   2.014   6.031   1.127 -0.9966  0.7905  0.8269
 4959TIP3   OH236511   0.861   3.412   2.930  0.3833  0.3094  0.2897
 4959TIP3    H136512   0.850   3.456   2.846 -0.4814 -1.5608 -0.6573
 4959TIP3    H236513   0.783   3.356   2.937  1.1469 -0.6231  1.6633
 4960TIP3   OH236514   6.631   3.861   1.878  0.2207 -0.3302 -0.5850
 4960TIP3    H136515   6.628   3.940   1.824 -0.5152  1.0597  1.3898
 4960TIP3    H236516   6.725   3.842   1.888  0.5093  1.4969  0.5444
 4961TIP3   OH236517   5.302   0.280   2.739  0.2700  0.2060  0.5094
 4961TIP3    H136518   5.353   0.287   2.658 -0.5548 -0.9077 -0.1273
 4961TIP3    H236519   5.339   0.347   2.796  1.9977 -0.0974 -0.1763
 4962TIP3   OH236520   1.302   1.839   2.282  0.4968  0.6703 -0.2617
 4962TIP3    H136521   1.233   1.859   2.345  0.3013 -0.9384  0.0743
 4962TIP3    H236522   1.362   1.782   2.330  1.6248  1.3438 -0.8184
 4963TIP3   OH236523   6.862   1.752   1.518  0.0293 -0.1334  0.4161
 4963TIP3    H136524   6.872   1.811   1.443 -0.6307  0.0267  0.4481
 4963TIP3    H236525   6.809   1.680   1.485 -0.8934  0.3024  0.9221
 4964TIP3   OH236526   4.987   2.491   3.408 -0.4562  0.5657  0.2579
 4964TIP3    H136527   5.073   2.456   3.384 -1.5020 -0.4118 -2.3668
 4964TIP3    H236528   4.963   2.441   3.486  0.6571 -0.3039  0.0844
 4965TIP3   OH236529   4.737   4.834   2.851  0.1787 -0.0041 -0.1379
 4965TIP3    H136530   4.745   4.891   2.927 -0.5331  0.7606 -0.6232
 4965TIP3    H236531   4.818   4.783   2.851  0.5405  0.5456  0.6719
 4966TIP3   OH236532   4.194   0.734   2.217 -0.3758  0.5227 -0.0925
 4966TIP3    H136533   4.215   0.693   2.133 -1.1431  0.0691 -0.0708
 4966TIP3    H236534   4.112   0.780   2.201 -1.1994 -0.6206  0.7319
 4967TIP3   OH236535   6.374   6.857   2.977  0.3630 -0.5373 -0.4176
 4967TIP3    H136536   6.337   6.872   3.064 -0.2863 -0.6749 -0.6647
 4967TIP3    H236537   6.466   6.882   2.985  0.2596 -0.3656  0.2564
 4968TIP3   OH236538   3.272   5.518   2.198  0.1897  0.3275 -0.1390
 4968TIP3    H136539   3.318   5.561   2.126  2.0457 -1.0760  0.1261
 4968TIP3    H236540   3.340   5.501   2.263 -1.0743 -0.2096  1.0876
 4969TIP3   OH236541   0.353   2.102   2.993 -0.4481 -0.2723  0.4203
 4969TIP3    H136542   0.437   2.147   2.987 -0.1694 -0.6289  1.3827
 4969TIP3    H236543   0.357   2.057   3.077 -0.3660 -2.7912 -0.8351
 4970TIP3   OH236544   6.689   5.983   1.075 -0.3311  0.2471 -0.8589
 4970TIP3    H136545   6.719   6.073   1.091 -2.1023  0.5819  1.0147
 4970TIP3    H236546   6.770   5.934   1.062  0.8214  1.7720  0.0844
 4971TIP3   OH236547   5.335   0.833   1.732  0.1809 -0.2674  0.6333
 4971TIP3    H136548   5.348   0.855   1.640 -0.8944 -0.1571  0.4910
 4971TIP3    H236549   5.331   0.918   1.776  0.7385 -0.3209  0.7918
 4972TIP3   OH236550   0.126   4.285   3.534  0.2975  0.5238 -0.1208
 4972TIP3    H136551   0.151   4.196   3.557 -1.5744 -0.0667 -0.2190
 4972TIP3    H236552   0.116   4.284   3.439  0.8678  1.0193 -0.1953
 4973TIP3   OH236553   3.896   4.691   2.436 -0.2903  0.6525 -0.4427
 4973TIP3    H136554   3.881   4.735   2.519  1.6384 -0.5394  0.6005
 4973TIP3    H236555   3.939   4.609   2.459 -2.0561 -0.9519 -2.4467
 4974TIP3   OH236556   6.748   4.632   8.402  1.0065  0.6899  0.2426
 4974TIP3    H136557   6.790   4.551   8.431  0.3133  0.0336 -0.5215
 4974TIP3    H236558   6.821   4.688   8.374  1.7187  1.4315  3.2873
 4975TIP3   OH236559   6.447   4.153   0.656 -0.3912 -0.4917  0.2263
 4975TIP3    H136560   6.400   4.099   0.593 -0.4023 -0.4475  0.1971
 4975TIP3    H236561   6.532   4.170   0.615 -0.6734  0.1637 -0.1052
 4976TIP3   OH236562   5.713   3.857   2.511  0.2299 -0.2820 -0.3418
 4976TIP3    H136563   5.787   3.919   2.508  0.1442 -0.1554  0.0686
 4976TIP3    H236564   5.636   3.913   2.521  0.0632 -0.4062 -0.9404
 4977TIP3   OH236565   1.829   2.374   2.160  0.0693  0.2706 -0.1955
 4977TIP3    H136566   1.738   2.389   2.131  0.1961  0.5222 -0.4688
 4977TIP3    H236567   1.822   2.302   2.222  0.0504 -1.7153 -2.3912
 4978TIP3   OH236568   2.644   6.097   1.029  0.0935  0.1730 -0.3754
 4978TIP3    H136569   2.668   6.155   0.956  1.0362  0.8611  0.4531
 4978TIP3    H236570   2.708   6.026   1.025 -0.5052 -0.3479 -0.8439
 4979TIP3   OH236571   0.319   0.550   3.049 -0.2143  0.2870  0.1699
 4979TIP3    H136572   0.367   0.509   2.977 -0.5759  0.1587 -0.0019
 4979TIP3    H236573   0.358   0.637   3.058 -0.9858  0.7841 -1.0106
 4980TIP3   OH236574   6.350   2.965   1.698 -0.6541 -0.1783  0.0364
 4980TIP3    H136575   6.260   2.948   1.671 -1.0754 -0.4493  1.5137
 4980TIP3    H236576   6.342   3.021   1.775  0.5462  1.9889 -1.3039
 4981TIP3   OH236577   3.024   0.714   1.993 -0.1861  0.1021  0.1424
 4981TIP3    H136578   3.045   0.772   1.920 -1.0599  1.4135  0.8753
 4981TIP3    H236579   2.930   0.725   2.006  0.0190  0.2859  1.7414
 4982TIP3   OH236580   3.158   5.043   1.716  0.1562  0.1840 -0.7197
 4982TIP3    H136581   3.070   5.069   1.742  0.5817 -0.2649  1.4522
 4982TIP3    H236582   3.202   5.125   1.694  0.3404  1.0005  2.2176
 4983TIP3   OH236583   6.068   1.559   0.609 -0.2102  0.1307  0.1884
 4983TIP3    H136584   6.155   1.597   0.592  0.5482 -0.6161  2.1459
 4983TIP3    H236585   6.015   1.631   0.641  0.4495  0.0911  1.3976
 4984TIP3   OH236586   1.196   3.490   8.438 -0.4411  0.3410 -0.4306
 4984TIP3    H136587   1.142   3.451   8.369 -2.3303  0.8559  0.6819
 4984TIP3    H236588   1.140   3.490   8.516  0.4254  2.8029  0.2906
 4985TIP3   OH236589   4.407   5.152   2.535  0.8105  0.3576 -0.3514
 4985TIP3    H136590   4.459   5.107   2.469 -0.3365 -2.2377  0.3812
 4985TIP3    H236591   4.334   5.189   2.486  1.8948  1.7417 -1.0032
 4986TIP3   OH236592   6.085   4.754   0.615 -0.1061  0.0478 -0.1581
 4986TIP3    H136593   6.107   4.744   0.522 -0.3136  1.5456 -0.3993
 4986TIP3    H236594   6.015   4.819   0.617 -0.1118  0.0374  1.0508
 4987TIP3   OH236595   6.042   1.099   2.750 -0.2797  0.2864  1.0702
 4987TIP3    H136596   6.090   1.017   2.734 -2.3907 -0.7005 -0.8497
 4987TIP3    H236597   6.090   1.165   2.700 -0.4479 -0.5305 -0.2185
 4988TIP3   OH236598   2.653   2.531   2.960  0.4405  0.0154  0.3884
 4988TIP3    H136599   2.590   2.482   3.012  0.3743  0.6422  0.9177
 4988TIP3    H236600   2.669   2.611   3.011  1.3286  0.0629  0.0562
 4989TIP3   OH236601   1.019   6.166   0.688  0.2480 -0.0416 -0.4494
 4989TIP3    H136602   1.035   6.074   0.668  1.2223 -0.2046  0.8999
 4989TIP3    H236603   1.097   6.211   0.658 -0.9066  0.6495 -2.6403
 4990TIP3   OH236604   0.827   0.746   3.935 -0.3649 -0.4781  0.3737
 4990TIP3    H136605   0.782   0.769   4.016  0.9383  2.0578  0.4509
 4990TIP3    H236606   0.899   0.689   3.963 -1.7473 -2.2406  0.5550
 4991TIP3   OH236607   1.900   4.012   0.046  0.0639 -0.0687 -0.4807
 4991TIP3    H136608   1.892   3.953  -0.028 -1.9001  0.8798 -1.0886
 4991TIP3    H236609   1.833   3.982   0.108 -0.2134  0.8488 -0.3270
 4992TIP3   OH236610   4.602   6.396   1.038 -0.2664 -0.1750  0.8338
 4992TIP3    H136611   4.685   6.350   1.026  0.2087  0.8522  0.0063
 4992TIP3    H236612   4.538   6.344   0.990  0.1296 -0.3578  0.4987
 4993TIP3   OH236613   1.210   0.528   0.996  0.4437  0.1338  0.2265
 4993TIP3    H136614   1.303   0.546   1.010  0.2250  1.1764  0.3875
 4993TIP3    H236615   1.206   0.492   0.908  1.3003 -2.3826  1.1154
 4994TIP3   OH236616   3.437   6.695   1.621 -0.1376 -0.5761 -0.2956
 4994TIP3    H136617   3.474   6.639   1.689 -1.3277 -0.5725  0.3975
 4994TIP3    H236618   3.366   6.643   1.584 -1.5296  0.5534  0.6322
 4995TIP3   OH236619   3.271   6.720   0.265  0.3108  0.0171  0.4083
 4995TIP3    H136620   3.212   6.742   0.193 -1.5318 -0.7935  1.5944
 4995TIP3    H236621   3.240   6.774   0.338  1.2444 -0.1874  0.9658
 4996TIP3   OH236622   1.869   1.198   8.608 -0.1504 -0.2609  0.2657
 4996TIP3    H136623   1.828   1.177   8.524  0.5615 -1.0626  0.1063
 4996TIP3    H236624   1.833   1.135   8.670  0.6033 -0.7735  0.1891
 4997TIP3   OH236625   0.175   6.344   8.494 -0.5491 -0.0559  0.5057
 4997TIP3    H136626   0.181   6.275   8.429 -0.2811  0.8785 -0.4808
 4997TIP3    H236627   0.102   6.398   8.464 -0.5412  0.2821  1.0838
 4998TIP3   OH236628   0.011   1.290   2.724 -0.1541  0.0534 -0.4208
 4998TIP3    H136629  -0.013   1.288   2.631  0.6213  1.3360 -0.6819
 4998TIP3    H236630   0.032   1.382   2.741 -0.7762 -0.0738  1.1726
 4999TIP3   OH236631   3.490   1.420   1.151 -0.2951 -0.1102  0.2379
 4999TIP3    H136632   3.514   1.372   1.072  1.1966  2.2493 -0.8381
 4999TIP3    H236633   3.394   1.421   1.149 -0.4684 -3.6367  0.7947
 5000TIP3   OH236634   1.743   4.639   0.972 -0.1354  0.7954  0.6830
 5000TIP3    H136635   1.689   4.652   0.894  1.5431  0.5718 -0.5909
 5000TIP3    H236636   1.809   4.708   0.966  1.6077 -0.7983  0.4204
 5001TIP3   OH236637   1.778   0.352   1.704 -0.1094  0.1293 -0.0494
 5001TIP3    H136638   1.756   0.432   1.656  1.5107  1.6346  1.5503
 5001TIP3    H236639   1.749   0.369   1.794  2.0686 -0.2076  0.7665
 5002TIP3   OH236640   0.790   3.230   0.923 -0.4265 -0.2941  0.5118
 5002TIP3    H136641   0.732   3.194   0.990  1.8650 -3.4153  1.0295
 5002TIP3    H236642   0.798   3.160   0.858  1.3101  0.7552 -0.4758
 5003TIP3   OH236643   1.381   4.446   2.175  0.2216 -0.6114  0.1311
 5003TIP3    H136644   1.384   4.514   2.243 -2.1549  1.4796 -1.6840
 5003TIP3    H236645   1.468   4.451   2.134  0.4591  0.5837  0.7178
 5004TIP3   OH236646   2.907   4.025   0.263  0.1487  0.0016 -0.2039
 5004TIP3    H136647   2.913   4.011   0.168 -1.1813  0.7553 -0.4240
 5004TIP3    H236648   2.859   3.949   0.296 -1.7180  0.9942 -0.5346
 5005TIP3   OH236649   5.865   3.739   0.866 -0.2110 -0.7672 -0.2020
 5005TIP3    H136650   5.799   3.737   0.797 -0.3749  1.6713 -0.2096
 5005TIP3    H236651   5.815   3.735   0.947 -0.0770 -2.7023 -0.1815
 5006TIP3   OH236652   6.054   6.294   8.344  0.5292  0.4284 -0.2149
 5006TIP3    H136653   6.131   6.254   8.303  0.2914  2.3511 -2.8248
 5006TIP3    H236654   6.090   6.344   8.418  1.4881 -0.2704 -0.1830
 5007TIP3   OH236655   0.524   2.514   3.011 -0.7786 -1.0094  0.3325
 5007TIP3    H136656   0.620   2.519   3.006 -0.8010  0.7649  0.8215
 5007TIP3    H236657   0.504   2.536   3.102 -1.7785  3.6579 -0.7592
 5008TIP3   OH236658   2.299   2.346   1.643  0.7319 -0.2367 -0.1313
 5008TIP3    H136659   2.344   2.277   1.594  0.7387  0.1708 -0.6968
 5008TIP3    H236660   2.232   2.299   1.692  1.1590 -0.7300 -0.0080
 5009TIP3   OH236661   0.363   0.927   2.138 -0.6067 -0.1986 -0.2376
 5009TIP3    H136662   0.401   1.011   2.110 -1.5831  0.3206 -0.0405
 5009TIP3    H236663   0.279   0.951   2.178 -0.1699 -1.1304  1.2812
 5010TIP3   OH236664   0.346   0.061   2.930  0.2905 -0.1965 -0.1350
 5010TIP3    H136665   0.392   0.139   2.901  1.6291 -0.9368 -0.0745
 5010TIP3    H236666   0.408   0.015   2.987 -0.3950 -1.3769 -0.2880
 5011TIP3   OH236667   1.100   2.250   2.390 -0.3515 -0.0460  0.2478
 5011TIP3    H136668   1.164   2.193   2.432 -0.5301 -0.5863 -0.2217
 5011TIP3    H236669   1.030   2.192   2.361 -0.2205  0.3225 -0.8301
 5012TIP3   OH236670   3.609   2.217   1.735 -0.5015  0.6670  0.4942
 5012TIP3    H136671   3.613   2.145   1.672  0.1708  0.6568  0.5430
 5012TIP3    H236672   3.673   2.280   1.703 -1.6623  1.6275 -0.0132
 5013TIP3   OH236673   5.323   6.728   0.088 -0.5670 -0.5986 -0.4748
 5013TIP3    H136674   5.387   6.799   0.083  1.5248 -2.4123 -0.8021
 5013TIP3    H236675   5.244   6.766   0.049 -0.1006  2.0621  0.9151
 5014TIP3   OH236676   4.352   6.464   3.552 -0.0510 -0.7714  0.1243
 5014TIP3    H136677   4.267   6.479   3.595 -0.7063 -1.3468 -0.9101
 5014TIP3    H236678   4.415   6.510   3.607 -0.9082 -1.0881  1.4315
 5015TIP3   OH236679   0.158   4.511   2.579 -0.3690 -0.0719 -0.0043
 5015TIP3    H136680   0.177   4.429   2.625  1.9252  0.1803 -0.4016
 5015TIP3    H236681   0.191   4.497   2.491 -1.5970  0.6827 -0.6079
 5016TIP3   OH236682   3.496   3.285   8.547 -0.7953  0.1631  0.2482
 5016TIP3    H136683   3.479   3.203   8.501 -0.3186  1.6680 -2.9410
 5016TIP3    H236684   3.413   3.332   8.545 -0.7270  0.3169  0.8260
 5017TIP3   OH236685   6.759   3.131   3.840 -0.5167 -0.3088 -0.4788
 5017TIP3    H136686   6.804   3.123   3.924  0.4081  1.0885 -0.8115
 5017TIP3    H236687   6.826   3.109   3.775  0.0165  2.5811 -1.0295
 5018TIP3   OH236688   6.871   5.170   8.378  0.3225 -0.1112  0.2116
 5018TIP3    H136689   6.939   5.142   8.316 -1.4148  0.6456 -2.1912
 5018TIP3    H236690   6.809   5.098   8.380  0.7006 -0.4394  1.7296
 5019TIP3   OH236691   1.640   0.221   0.130 -0.4513 -0.3742  0.2513
 5019TIP3    H136692   1.717   0.234   0.075  0.1427  0.6357  1.2629
 5019TIP3    H236693   1.569   0.206   0.068  0.1921  0.7028 -0.8046
 5020TIP3   OH236694   0.255   3.439   3.540  0.1580  0.1250  0.6109
 5020TIP3    H136695   0.224   3.359   3.498 -0.7825  0.7122  0.1393
 5020TIP3    H236696   0.350   3.430   3.543 -0.0320 -2.6238  3.8929
 5021TIP3   OH236697   5.604   3.489   2.345 -0.6894 -0.5177 -0.3969
 5021TIP3    H136698   5.673   3.546   2.380  0.0183  0.9650 -3.8158
 5021TIP3    H236699   5.639   3.401   2.353  0.5839  0.0024  0.0209
 5022TIP3   OH236700   0.895   2.247   0.450 -0.4952  0.3044  0.3397
 5022TIP3    H136701   0.972   2.238   0.393 -1.1814  0.3078 -0.5980
 5022TIP3    H236702   0.822   2.259   0.390 -1.1718  0.7982  1.2443
 5023TIP3   OH236703   2.794   0.502   8.719 -0.5928  0.1060 -0.4584
 5023TIP3    H136704   2.838   0.421   8.746  1.6314  1.3447 -0.0937
 5023TIP3    H236705   2.848   0.536   8.648 -1.3724  1.3722 -0.4694
 5024TIP3   OH236706   5.087   3.443   0.728  0.1663 -0.3993  0.3706
 5024TIP3    H136707   5.032   3.517   0.755 -0.7256 -1.4500  1.5548
 5024TIP3    H236708   5.104   3.395   0.809  1.9859 -0.7008 -0.1394
 5025TIP3   OH236709   2.820   2.248   2.640 -0.0377 -0.3934  0.6305
 5025TIP3    H136710   2.737   2.203   2.650  0.4694 -1.8175 -1.1426
 5025TIP3    H236711   2.860   2.209   2.563  0.5230  3.0034 -1.0139
 5026TIP3   OH236712   5.236   5.693   1.917 -0.5318  0.6458  0.7995
 5026TIP3    H136713   5.209   5.711   1.827 -0.3639 -0.9126  0.4146
 5026TIP3    H236714   5.327   5.664   1.909 -1.3215 -2.1495  1.1112
 5027TIP3   OH236715   6.168   4.715   0.321  0.1783  0.3611 -0.5649
 5027TIP3    H136716   6.167   4.810   0.309 -0.8458  0.2942 -1.2029
 5027TIP3    H236717   6.204   4.681   0.240  0.4684  0.2008 -0.3683
 5028TIP3   OH236718   1.859   6.320   8.360 -0.2358  0.2573 -0.0526
 5028TIP3    H136719   1.771   6.284   8.343 -0.7442  0.3954  2.0120
 5028TIP3    H236720   1.919   6.256   8.322 -1.1742 -1.5698  1.4298
 5029TIP3   OH236721   1.508   3.532   2.136 -0.0710 -0.0075 -0.5369
 5029TIP3    H136722   1.486   3.575   2.053  0.5915  0.6153 -0.4000
 5029TIP3    H236723   1.594   3.567   2.159  0.8084 -1.9046 -0.7506
 5030TIP3   OH236724   2.195   5.348   2.125 -0.2474 -0.1649 -0.7762
 5030TIP3    H136725   2.169   5.328   2.215 -0.7602 -1.5190 -1.1984
 5030TIP3    H236726   2.279   5.304   2.114  0.4210  1.0274 -0.6004
 5031TIP3   OH236727   3.485   1.437   1.986 -0.4072  0.0576 -0.0450
 5031TIP3    H136728   3.444   1.521   2.007 -0.9869 -0.6883  2.1131
 5031TIP3    H236729   3.579   1.456   1.984 -0.5210  0.7362  0.5776
 5032TIP3   OH236730   1.343   4.338   2.676  0.1716  0.5940  0.4062
 5032TIP3    H136731   1.394   4.378   2.605 -0.5395  0.2986 -0.2948
 5032TIP3    H236732   1.319   4.251   2.642 -0.6644  0.6712  0.7689
 5033TIP3   OH236733   3.723   6.198   1.386  0.1912 -0.6136  0.1745
 5033TIP3    H136734   3.706   6.122   1.330 -1.3551 -1.8958  2.2489
 5033TIP3    H236735   3.775   6.163   1.458  1.1969  0.7698  0.1606
 5034TIP3   OH236736   2.323   1.473   8.232 -0.1416  0.5000  0.0019
 5034TIP3    H136737   2.315   1.393   8.180  0.2695  0.8731 -0.6524
 5034TIP3    H236738   2.262   1.461   8.304 -0.1883 -0.3450 -0.1665
 5035TIP3   OH236739   5.425   4.323   0.927 -0.1625  0.3069 -0.0435
 5035TIP3    H136740   5.351   4.266   0.910  0.0795  0.1847 -0.6976
 5035TIP3    H236741   5.423   4.387   0.856  1.6625 -1.0256 -1.3798
 5036TIP3   OH236742   2.197   2.212   0.483  0.0266  0.0497  0.3155
 5036TIP3    H136743   2.286   2.204   0.448 -0.6245 -0.3246 -1.3610
 5036TIP3    H236744   2.206   2.269   0.559  1.7202 -0.1164  0.2794
 5037TIP3   OH236745   1.006   1.780   0.873 -0.0988 -0.6572 -0.0483
 5037TIP3    H136746   0.975   1.802   0.785 -3.0031 -1.2348  0.7132
 5037TIP3    H236747   0.926   1.776   0.926  1.3403 -2.3158  2.1773
 5038TIP3   OH236748   3.237   0.344   2.449  0.1330 -0.0773  0.5893
 5038TIP3    H136749   3.142   0.333   2.443  0.5023 -4.2823 -1.0092
 5038TIP3    H236750   3.266   0.355   2.359  1.2588  0.4233  0.9905
 5039TIP3   OH236751   5.668   3.542   1.274  0.2193 -0.1824  0.0972
 5039TIP3    H136752   5.751   3.524   1.317  0.2646 -1.9672 -0.6360
 5039TIP3    H236753   5.691   3.581   1.190  0.2902 -0.0943  0.1581
 5040TIP3   OH236754   1.701   0.758   1.316  0.3860  0.2345  0.1230
 5040TIP3    H136755   1.647   0.815   1.370  2.1853  2.8783 -0.6218
 5040TIP3    H236756   1.703   0.801   1.230 -0.3062 -2.4525 -1.3572
 5041TIP3   OH236757   1.025   3.034   0.296  0.7450 -0.5707  0.3404
 5041TIP3    H136758   1.107   3.022   0.248 -0.3111 -2.0442 -1.2045
 5041TIP3    H236759   0.959   2.989   0.243 -1.5413  2.5183  0.2609
 5042TIP3   OH236760   3.903   2.163   3.054 -0.3737  0.2688  0.4237
 5042TIP3    H136761   3.875   2.187   2.966 -0.2146 -1.9946 -0.3061
 5042TIP3    H236762   3.825   2.125   3.095 -0.9867  2.9750  2.0154
 5043TIP3   OH236763   3.074   5.948   8.642  0.7179 -0.3117 -0.4497
 5043TIP3    H136764   3.013   5.875   8.649  1.5420 -1.1349 -1.5054
 5043TIP3    H236765   3.019   6.022   8.616  0.0558 -0.8828 -0.7266
 5044TIP3   OH236766   3.149   3.717   8.672 -0.0115 -0.3553  0.5180
 5044TIP3    H136767   3.215   3.784   8.654 -1.6133  1.4670  1.0585
 5044TIP3    H236768   3.184   3.669   8.747  0.8333  0.3841  0.6244
 5045TIP3   OH236769   0.989   1.724   2.813  0.3651  0.5743 -0.7236
 5045TIP3    H136770   0.980   1.639   2.856  0.6025 -0.4750 -2.6565
 5045TIP3    H236771   0.947   1.786   2.873  1.8936 -0.5461  1.6627
 5046TIP3   OH236772   3.505   1.641   8.366 -0.3181  0.1299  0.0859
 5046TIP3    H136773   3.574   1.653   8.431 -1.2487 -1.0026  1.3237
 5046TIP3    H236774   3.552   1.620   8.285  0.8443  1.2527  0.4232
 5047TIP3   OH236775   6.733   6.309   1.208 -0.0586  0.7337 -0.3210
 5047TIP3    H136776   6.802   6.257   1.248 -1.5890 -0.6156  0.6787
 5047TIP3    H236777   6.770   6.336   1.124  2.1468  1.1939  0.7309
 5048TIP3   OH236778   4.175   4.089   0.388 -0.7911 -0.3903 -0.1265
 5048TIP3    H136779   4.119   4.165   0.371 -0.3060 -0.3004 -1.4698
 5048TIP3    H236780   4.233   4.085   0.312 -0.4311 -1.7794  0.1981
 5049TIP3   OH236781   5.744   2.578   1.488 -0.2182 -0.0523  0.4673
 5049TIP3    H136782   5.661   2.542   1.519 -1.0455 -1.3167 -2.8042
 5049TIP3    H236783   5.811   2.516   1.520 -0.8083 -0.3602  1.1222
 5050TIP3   OH236784   1.710   5.664   0.199 -0.1807  0.1171  0.1031
 5050TIP3    H136785   1.775   5.713   0.149 -0.9877  0.3789 -0.7201
 5050TIP3    H236786   1.626   5.688   0.159 -0.6875 -1.0473  0.4363
 5051TIP3   OH236787   3.274   0.824   0.699  0.5138 -0.3967  0.5093
 5051TIP3    H136788   3.329   0.752   0.667  0.3674  0.2907 -1.4294
 5051TIP3    H236789   3.332   0.900   0.701 -0.3438  0.4191 -1.9004
 5052TIP3   OH236790   2.122   2.102   3.343 -0.1393  0.0641  0.3978
 5052TIP3    H136791   2.113   2.135   3.432  2.5850  2.8329 -0.1727
 5052TIP3    H236792   2.216   2.088   3.332 -0.5085 -1.1362 -1.7621
 5053TIP3   OH236793   2.346   1.154   0.713  0.0202 -0.0534 -0.6186
 5053TIP3    H136794   2.260   1.142   0.674  0.5352 -0.3437 -1.7114
 5053TIP3    H236795   2.345   1.244   0.746 -0.8546 -0.2098 -0.1783
 5054TIP3   OH236796   0.794   1.392   1.789 -0.1581  0.3298  0.3110
 5054TIP3    H136797   0.740   1.333   1.841  0.5283 -0.4531  0.1711
 5054TIP3    H236798   0.775   1.479   1.823 -0.8009 -0.0274  0.8837
 5055TIP3   OH236799   1.978   2.244   0.834 -0.3763  0.1134  0.0668
 5055TIP3    H136800   2.058   2.278   0.794  0.1072  1.4768  1.9968
 5055TIP3    H236801   1.907   2.280   0.781  0.2497 -1.5647 -2.0066
 5056TIP3   OH236802   5.441   0.921   8.673 -0.1979 -0.2108 -0.1764
 5056TIP3    H136803   5.514   0.910   8.734 -0.5753  1.3614  0.6181
 5056TIP3    H236804   5.471   0.880   8.591  0.5517 -1.8213  0.8668
 5057TIP3   OH236805   6.677   5.962   2.630  0.3387 -0.3002  0.1763
 5057TIP3    H136806   6.605   5.977   2.568 -1.3328 -1.0995  1.8047
 5057TIP3    H236807   6.742   5.914   2.580 -0.5161 -0.0806 -1.2121
 5058TIP3   OH236808   1.015   5.353   2.010 -0.1887  0.3329  0.0269
 5058TIP3    H136809   1.063   5.312   2.082  0.1198  1.1917  0.3168
 5058TIP3    H236810   1.046   5.443   2.008  0.4646  0.1208 -1.7471
 5059TIP3   OH236811   2.362   5.572   3.264  0.0992 -0.1304  0.3398
 5059TIP3    H136812   2.352   5.526   3.347 -0.9050  0.4290  0.5500
 5059TIP3    H236813   2.306   5.524   3.202 -1.5978  1.2012  0.7521
 5060TIP3   OH236814   4.339   0.420   0.663  0.1395  0.6530  0.6508
 5060TIP3    H136815   4.416   0.475   0.678  1.0026 -0.5241  0.6834
 5060TIP3    H236816   4.311   0.441   0.574  1.6571 -0.2577 -0.0795
 5061TIP3   OH236817   4.903   2.881   1.289 -0.1884 -0.2860  0.2444
 5061TIP3    H136818   4.869   2.813   1.348  0.6397 -0.1440  0.8985
 5061TIP3    H236819   4.827   2.905   1.235 -1.1489  0.0604  1.6939
 5062TIP3   OH236820   5.644   5.448   8.458 -0.2905 -0.1384  0.0025
 5062TIP3    H136821   5.561   5.402   8.443  0.4069 -1.7649  0.8478
 5062TIP3    H236822   5.618   5.533   8.495 -1.6258  0.2277 -1.6635
 5063TIP3   OH236823   2.112   5.064   2.269 -0.0575  0.2774 -0.4803
 5063TIP3    H136824   2.079   5.065   2.179 -0.9362 -3.4945 -0.3887
 5063TIP3    H236825   2.057   5.000   2.314  0.7167  1.6284  2.6376
 5064TIP3   OH236826   1.021   0.721   1.037 -0.2143 -0.0979 -0.3605
 5064TIP3    H136827   1.063   0.637   1.024 -0.6221 -0.4686  0.6055
 5064TIP3    H236828   1.064   0.758   1.114 -0.8387  0.0380 -0.0688
 5065TIP3   OH236829   3.722   2.416   8.523  0.2866 -0.0743 -0.2469
 5065TIP3    H136830   3.660   2.486   8.541  1.8855  1.5340 -0.6552
 5065TIP3    H236831   3.691   2.376   8.442  0.6783  1.8635 -1.4216
 5066TIP3   OH236832   1.938   1.146   0.335  0.3871 -0.1885  0.0095
 5066TIP3    H136833   1.999   1.091   0.285 -0.3525  0.1842 -1.3555
 5066TIP3    H236834   1.915   1.093   0.411 -0.6350 -2.0009 -1.4592
 5067TIP3   OH236835   0.853   4.985   1.775 -0.1756  0.0996 -0.5172
 5067TIP3    H136836   0.894   4.899   1.787 -0.7107 -0.1933 -0.7262
 5067TIP3    H236837   0.760   4.965   1.767 -0.6248  0.9211  1.9730
 5068TIP3   OH236838   4.166   5.364   0.184  0.0386 -0.5091  0.3106
 5068TIP3    H136839   4.121   5.286   0.152 -0.2278 -0.2135 -0.0474
 5068TIP3    H236840   4.166   5.355   0.279 -1.1387 -0.3207  0.3400
 5069TIP3   OH236841   0.146   0.809   3.301 -0.0226 -0.1988  0.0451
 5069TIP3    H136842   0.128   0.772   3.387  1.1980 -1.1957 -0.0985
 5069TIP3    H236843   0.138   0.903   3.313  0.6245 -0.2937  1.3853
 5070TIP3   OH236844   5.145   5.837   1.686  0.1489  0.5491 -0.0865
 5070TIP3    H136845   5.049   5.835   1.692  0.1047  2.0496  0.2201
 5070TIP3    H236846   5.171   5.911   1.740  1.5102  0.0700 -0.0364
 5071TIP3   OH236847   2.013   5.013   0.549 -0.8584 -0.1303 -0.2405
 5071TIP3    H136848   2.068   5.044   0.476 -0.8566 -0.2036 -0.2712
 5071TIP3    H236849   2.075   4.972   0.609 -0.8953 -0.3466 -0.3463
 5072TIP3   OH236850   0.680   1.890   1.997 -0.8631  0.4314  0.1016
 5072TIP3    H136851   0.767   1.882   2.036 -1.7183 -0.4849  1.9917
 5072TIP3    H236852   0.653   1.980   2.016 -0.5798  0.5155  0.1023
 5073TIP3   OH236853   4.957   4.700   3.518 -0.3096  0.4799  0.4426
 5073TIP3    H136854   4.925   4.719   3.430 -0.0962 -2.4097 -0.3547
 5073TIP3    H236855   4.883   4.719   3.575 -1.0062  0.8223 -0.5493
 5074TIP3   OH236856   3.110   2.747   2.996  0.1110 -0.1598 -0.4665
 5074TIP3    H136857   3.156   2.774   2.916 -1.4937 -0.0344 -1.3759
 5074TIP3    H236858   3.028   2.708   2.965  0.4506 -2.2356  1.0082
 5075TIP3   OH236859   5.694   3.671   0.640 -0.0717  0.3269 -0.1482
 5075TIP3    H136860   5.633   3.734   0.602 -0.5954  0.9370  1.6057
 5075TIP3    H236861   5.646   3.589   0.642 -1.0699  0.9190  1.6883
 5076TIP3   OH236862   4.774   4.729   3.307 -0.4311 -0.0725  0.3032
 5076TIP3    H136863   4.721   4.809   3.300  0.0983  0.3804  1.2140
 5076TIP3    H236864   4.711   4.658   3.311 -0.9045  0.2321 -1.1747
 5077TIP3   OH236865   1.794   1.449   1.324  0.9691 -0.2622  0.0083
 5077TIP3    H136866   1.728   1.487   1.266  0.7404  0.0252  0.4583
 5077TIP3    H236867   1.867   1.427   1.265  0.3025 -1.0035 -0.5579
 5078TIP3   OH236868   1.984   0.748   0.034  0.8498  0.3580  0.3599
 5078TIP3    H136869   1.967   0.761  -0.059  0.0530  3.3177  0.7962
 5078TIP3    H236870   1.942   0.665   0.056  0.0472  0.1823 -1.6538
 5079TIP3   OH236871   3.025   0.698   0.608  0.0617  0.4690  0.1077
 5079TIP3    H136872   2.950   0.685   0.666 -0.2881  0.2547 -0.3813
 5079TIP3    H236873   3.098   0.718   0.667 -0.4658  1.0847  0.5716
 5080TIP3   OH236874   2.932   2.183   0.476 -0.2573  0.3559 -0.3775
 5080TIP3    H136875   2.982   2.263   0.463 -0.1755  0.2325 -0.8400
 5080TIP3    H236876   2.883   2.171   0.394  0.1925 -0.3834 -0.5519
 5081TIP3   OH236877   0.110   0.461   2.437 -0.6705  0.0268  0.1059
 5081TIP3    H136878   0.181   0.523   2.417 -0.9191  0.1589 -0.3842
 5081TIP3    H236879   0.100   0.466   2.532  1.1145 -1.2227  0.4220
 5082TIP3   OH236880   4.923   2.717   2.245 -0.4513 -0.0189  0.0984
 5082TIP3    H136881   4.832   2.746   2.248 -0.4942 -0.0962 -0.3480
 5082TIP3    H236882   4.931   2.655   2.318 -0.5914  0.4521  0.5141
 5083TIP3   OH236883   5.579   3.083   8.707 -0.3495  0.5453 -0.1799
 5083TIP3    H136884   5.647   3.043   8.761  1.7745  0.4576 -2.7041
 5083TIP3    H236885   5.584   3.176   8.728 -0.2715  0.3958  0.4904
 5084TIP3   OH236886   4.205   5.396   3.837 -0.3051  0.1163  0.1249
 5084TIP3    H136887   4.118   5.355   3.844  0.3432 -1.1008  1.6514
 5084TIP3    H236888   4.196   5.458   3.765 -1.7042 -1.8864 -1.5673
 5085TIP3   OH236889   2.203   2.522   2.494 -0.2720 -0.9068 -0.0000
 5085TIP3    H136890   2.132   2.551   2.436 -0.8588 -0.3777  0.9646
 5085TIP3    H236891   2.161   2.512   2.579  0.8668 -0.3471  0.6403
 5086TIP3   OH236892   1.833   0.902   0.524 -0.1801 -0.1659 -0.1311
 5086TIP3    H136893   1.807   0.935   0.610 -0.5284  0.4099 -0.4461
 5086TIP3    H236894   1.928   0.902   0.525 -0.1465  1.3728 -0.2884
 5087TIP3   OH236895   6.234   6.438   1.109  1.0009 -0.2908  0.3545
 5087TIP3    H136896   6.198   6.445   1.020  0.3506  0.9652  0.6891
 5087TIP3    H236897   6.193   6.510   1.157  0.9546 -1.2524  1.8156
 5088TIP3   OH236898   6.493   0.721   1.054  0.6070 -0.3437 -0.2462
 5088TIP3    H136899   6.458   0.648   1.105  2.4918 -1.7038 -0.7967
 5088TIP3    H236900   6.424   0.742   0.991 -0.2016 -1.2342  0.3265
 5089TIP3   OH236901   4.402   2.949   4.172  0.3332  0.5205  0.1498
 5089TIP3    H136902   4.494   2.974   4.173  0.4937  0.3453 -2.4472
 5089TIP3    H236903   4.358   3.023   4.129 -0.5537  0.1059  0.3174
 5090TIP3   OH236904   0.678   3.205   2.972 -1.2218  0.6557  0.6161
 5090TIP3    H136905   0.584   3.204   2.955 -1.5867  1.5589  2.4037
 5090TIP3    H236906   0.697   3.117   3.005 -1.6055  0.7450  1.0812
 5091TIP3   OH236907   6.458   6.173   3.108  0.1218 -0.0803  0.0552
 5091TIP3    H136908   6.518   6.207   3.042 -1.3940  2.3770 -0.1632
 5091TIP3    H236909   6.486   6.213   3.190 -0.7405  0.5171  0.0734
 5092TIP3   OH236910   5.121   1.343   1.934 -0.7145  0.3236  0.4894
 5092TIP3    H136911   5.142   1.339   2.028  2.2603 -0.3826 -0.1048
 5092TIP3    H236912   5.182   1.408   1.898 -0.8989 -0.3706 -1.1686
 5093TIP3   OH236913   0.016   5.552   3.273  0.7079 -0.2421 -0.4773
 5093TIP3    H136914   0.102   5.591   3.258 -0.7170  3.4441 -0.3313
 5093TIP3    H236915  -0.031   5.565   3.190  0.0068 -1.4008 -0.2815
 5094TIP3   OH236916   0.989   6.171   2.264  0.7581  0.8937 -0.0450
 5094TIP3    H136917   0.927   6.146   2.195  1.7881  0.2456 -0.7585
 5094TIP3    H236918   0.934   6.214   2.330 -0.5056  0.0671 -0.5077
 5095TIP3   OH236919   0.945   3.104   1.873 -0.1180  0.6954 -0.6449
 5095TIP3    H136920   0.851   3.085   1.874 -0.0748  0.4748 -0.4278
 5095TIP3    H236921   0.956   3.170   1.805 -0.1204 -0.9119 -2.2684
 5096TIP3   OH236922   6.117   2.802   0.339 -0.4779 -0.0208 -0.2020
 5096TIP3    H136923   6.170   2.867   0.293 -0.3733 -0.3338 -0.5370
 5096TIP3    H236924   6.115   2.727   0.279 -0.3659 -0.4265  0.3002
 5097TIP3   OH236925   1.292   3.093   3.351  0.1510 -0.1573  0.6547
 5097TIP3    H136926   1.342   3.031   3.298  0.3078 -0.6290  1.3425
 5097TIP3    H236927   1.270   3.045   3.431 -2.4144 -0.3646 -0.0769
 5098TIP3   OH236928   3.948   0.412   2.571 -0.3404 -0.1865 -0.2021
 5098TIP3    H136929   3.900   0.387   2.492  0.6825 -3.4786  0.0852
 5098TIP3    H236930   4.015   0.474   2.540 -1.0218 -0.1062 -1.5790
 5099TIP3   OH236931   6.348   4.008   0.449  0.9573  0.5655  0.1816
 5099TIP3    H136932   6.358   3.958   0.368  1.0666 -0.4614  0.8142
 5099TIP3    H236933   6.253   4.021   0.458  0.6931 -1.6101  1.2060
 5100TIP3   OH236934   2.282   5.607   2.704  1.3071  0.0443  0.4456
 5100TIP3    H136935   2.371   5.643   2.707  0.6912  1.8469 -1.1129
 5100TIP3    H236936   2.267   5.590   2.611  0.1374 -0.5975  0.7385
 5101TIP3   OH236937   1.222   5.999   2.792 -0.2963  0.0839 -0.4027
 5101TIP3    H136938   1.128   6.005   2.808 -0.2535  1.4367 -0.4960
 5101TIP3    H236939   1.263   6.020   2.876 -0.0938  1.3333 -0.7890
 5102TIP3   OH236940   5.199   0.079   0.525 -0.3183  0.6949 -0.0678
 5102TIP3    H136941   5.256   0.029   0.467 -0.1624 -0.7373  1.2569
 5102TIP3    H236942   5.257   0.146   0.562  0.1821  0.1288  0.2013
 5103TIP3   OH236943   0.130   4.346   0.292 -0.2176  0.5352 -0.1077
 5103TIP3    H136944   0.122   4.283   0.365 -1.0732  0.0740 -0.5782
 5103TIP3    H236945   0.223   4.370   0.291  0.1340 -0.7101  0.1089
 5104TIP3   OH236946   1.789   4.369   1.019  0.6467  0.3678  0.0475
 5104TIP3    H136947   1.780   4.462   0.999  0.9024  0.4921  0.5172
 5104TIP3    H236948   1.882   4.350   1.008  0.7363  0.3635  0.8008
 5105TIP3   OH236949   6.279   1.262   3.651  1.1154  0.3825  0.4728
 5105TIP3    H136950   6.337   1.338   3.641  1.0519  0.5466  1.2973
 5105TIP3    H236951   6.191   1.297   3.640  1.1659  0.0763 -1.1084
 5106TIP3   OH236952   1.665   4.213   2.248  0.3576 -0.1766 -0.3139
 5106TIP3    H136953   1.598   4.190   2.182  0.3126 -1.3062  0.0948
 5106TIP3    H236954   1.740   4.158   2.225 -0.2474 -1.9114  1.5576
 5107TIP3   OH236955   3.121   0.945   2.207 -0.0318 -0.1872 -0.4158
 5107TIP3    H136956   3.051   0.886   2.180 -0.3985  0.3110 -0.5592
 5107TIP3    H236957   3.080   1.005   2.270  0.6434 -0.9008  0.7458
 5108TIP3   OH236958   0.263   6.145   0.575  0.3953 -0.0062  0.2076
 5108TIP3    H136959   0.349   6.186   0.561  0.6501 -0.0582  1.4750
 5108TIP3    H236960   0.282   6.068   0.629 -0.4697  0.1107  0.6939
 5109TIP3   OH236961   1.986   3.227   3.429  0.1675  0.1725  0.6777
 5109TIP3    H136962   1.907   3.275   3.454 -0.4263  0.1298 -0.9929
 5109TIP3    H236963   2.057   3.291   3.439 -0.3834  0.8781  0.1772
 5110TIP3   OH236964   1.932   2.143   1.094 -0.0509  0.0152 -0.5936
 5110TIP3    H136965   1.886   2.154   1.011  0.9403 -0.1895 -1.1919
 5110TIP3    H236966   1.940   2.231   1.129  0.6332  0.2680 -1.3478
 5111TIP3   OH236967   3.182   6.138   8.274 -0.4068 -0.7607 -0.4818
 5111TIP3    H136968   3.219   6.094   8.351 -1.2824 -0.1717  0.2978
 5111TIP3    H236969   3.130   6.070   8.230 -0.8864 -0.7940  0.1245
 5112TIP3   OH236970   4.698   1.267   3.171  0.0874  0.4497  0.6846
 5112TIP3    H136971   4.745   1.350   3.165  0.1867  0.3971  0.7265
 5112TIP3    H236972   4.762   1.206   3.208  0.2632  0.1630 -0.0688
 5113TIP3   OH236973   5.710   1.769   7.800  0.7204  0.6418 -0.0600
 5113TIP3    H136974   5.793   1.811   7.824  0.2390  0.9354  1.1503
 5113TIP3    H236975   5.704   1.781   7.705  2.8846 -0.9113 -0.4574
 5114TIP3   OH236976   1.978   0.675   3.676 -0.1650 -0.1205 -0.4222
 5114TIP3    H136977   2.037   0.605   3.704 -1.5017 -0.6276  1.3179
 5114TIP3    H236978   1.982   0.739   3.747 -0.1867  0.8076 -1.2460
 5115TIP3   OH236979   5.019   1.524   0.693  0.5145 -0.1975  0.5131
 5115TIP3    H136980   5.009   1.602   0.747 -0.6924  0.1217 -0.1241
 5115TIP3    H236981   5.056   1.557   0.611 -0.7573 -0.1381 -0.0596
 5116TIP3   OH236982   2.472   6.632   0.681  0.4690  0.4620  0.1016
 5116TIP3    H136983   2.453   6.671   0.767  0.4405  2.3741 -0.7307
 5116TIP3    H236984   2.420   6.683   0.619 -0.6481 -1.8080 -0.9559
 5117TIP3   OH236985   4.686   5.834   2.357  0.4042 -0.3491 -0.7384
 5117TIP3    H136986   4.732   5.908   2.317 -1.5904  1.1828 -0.3169
 5117TIP3    H236987   4.755   5.768   2.371  2.9454  2.5370  1.7472
 5118TIP3   OH236988   2.238   6.570   2.183 -0.8088 -0.1516 -0.0043
 5118TIP3    H136989   2.246   6.661   2.152  0.3247 -0.3344 -0.2952
 5118TIP3    H236990   2.277   6.518   2.113  0.3102 -0.7053  1.0052
 5119TIP3   OH236991   0.473   1.048   2.404 -0.4286  0.1206 -0.1137
 5119TIP3    H136992   0.435   1.129   2.437 -1.6052 -0.5668  0.2658
 5119TIP3    H236993   0.481   1.061   2.309  0.7794  1.2156  0.1101
 5120TIP3   OH236994   0.687   1.558   0.292  0.2922 -0.7274  0.1837
 5120TIP3    H136995   0.621   1.549   0.361 -2.0266  0.4072 -1.7378
 5120TIP3    H236996   0.768   1.579   0.339 -0.7618 -1.6945  2.6225
 5121TIP3   OH236997   6.205   5.302   1.797  0.6048  0.1062 -0.0239
 5121TIP3    H136998   6.285   5.353   1.783  1.1708  0.0302  2.4508
 5121TIP3    H236999   6.143   5.336   1.733  1.9647  1.6776 -0.5686
 5122TIP3   OH237000   3.762   4.796   4.086  0.3097 -0.3549  0.2439
 5122TIP3    H137001   3.852   4.775   4.059 -0.1359  0.7737 -2.4623
 5122TIP3    H237002   3.726   4.713   4.117  1.4294 -1.4819 -1.3304
 5123TIP3   OH237003   0.635   2.507   0.116 -0.2899  0.5727 -0.2979
 5123TIP3    H137004   0.600   2.570   0.179  1.1528 -0.2279  1.4016
 5123TIP3    H237005   0.717   2.546   0.086 -1.0775  1.0594 -1.9451
 5124TIP3   OH237006   4.612   2.044   2.790 -0.7505 -0.1278  0.4038
 5124TIP3    H137007   4.536   2.010   2.837 -0.7967 -1.0438 -0.3018
 5124TIP3    H237008   4.603   2.010   2.701  1.2560 -1.6011  0.6686
 5125TIP3   OH237009   2.241   5.421   8.448  0.3776  0.4103 -0.5955
 5125TIP3    H137010   2.187   5.489   8.408 -0.6601 -0.3487 -0.5116
 5125TIP3    H237011   2.209   5.339   8.410 -0.0820 -0.2495  1.1259
 5126TIP3   OH237012   1.183   2.003   2.093  0.0927 -0.2553  0.0077
 5126TIP3    H137013   1.272   2.031   2.069  0.8650 -1.8576  0.8908
 5126TIP3    H237014   1.196   1.940   2.164 -1.7857 -0.2926  0.3541
 5127TIP3   OH237015   4.903   6.587   8.060 -0.3584 -0.1399 -0.5643
 5127TIP3    H137016   4.938   6.637   7.986  0.6840 -0.0242  0.0014
 5127TIP3    H237017   4.941   6.500   8.050  1.8196  0.5168  1.1763
 5128TIP3   OH237018   3.458   3.212   0.289 -0.4440 -0.0414 -0.4787
 5128TIP3    H137019   3.497   3.261   0.362  0.0034  0.0946 -0.8008
 5128TIP3    H237020   3.374   3.255   0.274  0.1411  0.9493 -1.0633
 5129TIP3   OH237021   1.615   5.497   2.499 -0.4039 -0.2240 -0.3154
 5129TIP3    H137022   1.550   5.431   2.473  0.9776 -2.4234  1.4821
 5129TIP3    H237023   1.697   5.466   2.460  0.4158  0.0134  1.1573
 5130TIP3   OH237024   0.419   4.755   0.232  0.2226 -0.5063  0.3712
 5130TIP3    H137025   0.472   4.789   0.160  0.4958 -0.4752  0.5841
 5130TIP3    H237026   0.421   4.824   0.298 -1.3043  0.1253 -0.1953
 5131TIP3   OH237027   4.419   3.282   3.136 -0.5478 -0.0161 -0.5558
 5131TIP3    H137028   4.405   3.241   3.221  0.1521 -1.6507 -1.1841
 5131TIP3    H237029   4.354   3.351   3.132 -0.3875  0.3107  1.4305
 5132TIP3   OH237030   1.149   2.799   0.767 -0.4416  1.1217  0.2260
 5132TIP3    H137031   1.091   2.843   0.704  1.0124  1.2995 -1.0281
 5132TIP3    H237032   1.119   2.708   0.767 -0.8023  1.2316 -0.3267
 5133TIP3   OH237033   0.047   6.386   1.777  0.1532  0.2157  0.0845
 5133TIP3    H137034  -0.023   6.340   1.824 -0.0741  0.8137  0.3478
 5133TIP3    H237035   0.051   6.343   1.691 -0.7787  0.3893 -0.0586
 5134TIP3   OH237036   6.284   4.427   2.860  0.2535  0.4085  0.1952
 5134TIP3    H137037   6.203   4.404   2.907  0.5351 -0.6176  0.2103
 5134TIP3    H237038   6.346   4.358   2.884  1.1791  1.2396  0.2666
 5135TIP3   OH237039   2.483   3.028   4.013  0.2625 -0.4015  0.3252
 5135TIP3    H137040   2.538   3.081   4.071 -0.4374 -2.9212  3.5623
 5135TIP3    H237041   2.406   3.007   4.065 -1.5116 -1.0800 -2.3593
 5136TIP3   OH237042   3.917   6.545   2.696  0.3643  0.0754 -0.3195
 5136TIP3    H137043   3.897   6.619   2.755 -0.0829 -0.1267 -0.2115
 5136TIP3    H237044   4.005   6.517   2.721 -0.5997 -1.3605  1.7201
 5137TIP3   OH237045   3.417   0.618   2.362 -0.2826  0.0824 -0.1785
 5137TIP3    H137046   3.460   0.546   2.408 -0.9877 -0.0295  0.3291
 5137TIP3    H237047   3.327   0.588   2.348 -0.6800  0.9793  0.3188
 5138TIP3   OH237048   6.647   5.981   1.413  0.4818 -0.0034  0.1682
 5138TIP3    H137049   6.626   5.905   1.359 -1.5027  0.7164 -0.1513
 5138TIP3    H237050   6.568   6.035   1.411  1.2400  1.2578  1.7752
 5139TIP3   OH237051   4.667   2.405   8.062  0.4053  0.6901 -0.7021
 5139TIP3    H137052   4.711   2.340   8.008 -0.4977  1.2455 -2.1502
 5139TIP3    H237053   4.576   2.376   8.066  0.3897  0.8347  0.2634
 5140TIP3   OH237054   5.838   3.006   2.305  0.1035  0.3370  0.5733
 5140TIP3    H137055   5.838   2.940   2.374 -1.1914  0.3115  0.5702
 5140TIP3    H237056   5.922   2.993   2.259  0.2879 -0.6598  1.1658
 5141TIP3   OH237057   3.586   3.245   2.649 -0.1304 -0.3624  0.1010
 5141TIP3    H137058   3.561   3.157   2.621  0.8741 -0.1216 -1.6828
 5141TIP3    H237059   3.633   3.281   2.575  2.1637  0.5894  1.8894
 5142TIP3   OH237060   6.094   3.226   2.888 -0.5629 -0.0945  0.2024
 5142TIP3    H137061   6.090   3.130   2.889 -0.9980 -0.0778 -0.0092
 5142TIP3    H237062   6.038   3.252   2.815 -0.2198  0.3128  0.0796
 5143TIP3   OH237063   2.390   1.908   3.168  0.0145  0.2554  0.0239
 5143TIP3    H137064   2.402   1.984   3.225 -2.4968  1.6743 -1.2010
 5143TIP3    H237065   2.414   1.938   3.081  1.6421 -1.2337 -0.1025
 5144TIP3   OH237066   0.033   3.356   0.729 -0.0334  0.1955  0.3178
 5144TIP3    H137067  -0.024   3.429   0.708  0.1190 -0.6740 -4.0228
 5144TIP3    H237068  -0.025   3.288   0.762 -0.8962  0.6369 -0.2809
 5145TIP3   OH237069   1.952   6.813   0.774 -0.4476 -0.0552  0.5300
 5145TIP3    H137070   1.939   6.821   0.680  1.6198  2.3669  0.3557
 5145TIP3    H237071   1.871   6.844   0.813 -0.2531  1.8577 -0.4896
 5146TIP3   OH237072   5.055   5.119   8.730  0.3855 -0.7703 -0.1312
 5146TIP3    H137073   5.008   5.145   8.810 -2.0245 -1.0278 -1.3620
 5146TIP3    H237074   5.041   5.191   8.669  1.4274 -0.9809 -0.6363
 5147TIP3   OH237075   5.436   2.017   2.410 -0.4456 -0.2569  1.1494
 5147TIP3    H137076   5.464   2.058   2.328  1.8490  1.6084  2.7419
 5147TIP3    H237077   5.463   1.926   2.401  1.0796  0.2366  0.3591
 5148TIP3   OH237078   6.594   2.165   2.361  0.3208 -0.0685  0.1558
 5148TIP3    H137079   6.558   2.220   2.291 -0.4775  1.6289  1.8355
 5148TIP3    H237080   6.685   2.194   2.370  0.8693 -1.2884 -1.0915
 5149TIP3   OH237081   6.266   4.619   3.287  0.2261  0.1484 -0.1767
 5149TIP3    H137082   6.312   4.577   3.360  1.9435  2.5728  0.2782
 5149TIP3    H237083   6.334   4.632   3.221 -0.7873  0.1127 -1.2593
 5150TIP3   OH237084   3.491   6.182   3.435 -0.1314  0.9271  0.1264
 5150TIP3    H137085   3.512   6.245   3.366 -0.6243  1.2720  0.2881
 5150TIP3    H237086   3.408   6.212   3.471 -2.0256 -1.5163 -1.8127
 5151TIP3   OH237087   0.615   0.576   3.772 -0.1273 -0.6747  0.5945
 5151TIP3    H137088   0.532   0.597   3.814 -0.3333  0.6703 -0.4261
 5151TIP3    H237089   0.659   0.661   3.762  0.1950 -1.0188 -1.2639
 5152TIP3   OH237090   1.576   3.015   1.453 -0.3326 -0.5448  0.4949
 5152TIP3    H137091   1.524   3.090   1.483  0.3620  0.0834  0.1566
 5152TIP3    H237092   1.558   3.008   1.360  1.1859  0.5313  0.0771
 5153TIP3   OH237093   5.369   6.857   1.876  0.2800 -0.5606  0.0261
 5153TIP3    H137094   5.317   6.936   1.869  0.3234 -0.5276  0.0806
 5153TIP3    H237095   5.423   6.856   1.797 -0.5067 -1.0982 -0.5221
 5154TIP3   OH237096   2.731   5.949   1.524 -0.0022  0.6943  0.1312
 5154TIP3    H137097   2.671   5.893   1.475 -0.4768  1.8603 -0.6433
 5154TIP3    H237098   2.720   6.036   1.486 -0.1554  1.5847  2.1034
 5155TIP3   OH237099   4.433   1.546   0.356  0.4659  0.5676 -0.1742
 5155TIP3    H137100   4.339   1.561   0.345  0.3059 -1.1531 -1.4490
 5155TIP3    H237101   4.471   1.569   0.271  0.7660 -1.6987 -0.7040
 5156TIP3   OH237102   1.771   0.284   3.129 -0.3125  0.0671  0.3344
 5156TIP3    H137103   1.707   0.214   3.117 -1.9361  1.5425 -0.0454
 5156TIP3    H237104   1.741   0.354   3.072  2.6678  0.2195 -1.2421
 5157TIP3   OH237105   3.377   2.040   3.575 -0.5017  0.4980  0.1335
 5157TIP3    H137106   3.467   2.026   3.605 -0.5103 -3.0861 -1.0272
 5157TIP3    H237107   3.324   2.024   3.653 -0.2034  0.1864  0.2784
 5158TIP3   OH237108   3.790   6.058   2.879 -0.0243 -0.5910 -0.4345
 5158TIP3    H137109   3.696   6.069   2.861 -0.4842 -0.5296  1.6588
 5158TIP3    H237110   3.814   6.136   2.929  1.0061 -0.8728 -0.4657
 5159TIP3   OH237111   0.115   1.433   0.487 -0.0542  0.0946 -0.0390
 5159TIP3    H137112   0.146   1.492   0.417 -1.1616  0.4053 -0.2876
 5159TIP3    H237113   0.029   1.467   0.510 -0.3274 -0.9081  0.4513
 5160TIP3   OH237114   1.237   3.352   1.613  0.4933 -0.9882  0.1405
 5160TIP3    H137115   1.289   3.399   1.678  0.1083 -0.6324  0.1960
 5160TIP3    H237116   1.301   3.301   1.564  1.0812  0.4000 -0.6102
 5161TIP3   OH237117   4.795   4.690   2.497 -0.1739  0.0327  0.4182
 5161TIP3    H137118   4.709   4.691   2.539 -0.8547 -1.0454 -0.8709
 5161TIP3    H237119   4.806   4.777   2.460 -0.8128  0.1124  0.4082
 5162TIP3   OH237120   1.834   4.748   2.208  0.3605  0.1270  0.1750
 5162TIP3    H137121   1.898   4.745   2.137 -0.2763  0.7131 -0.4401
 5162TIP3    H237122   1.761   4.798   2.172 -1.4954 -2.5083 -0.0023
 5163TIP3   OH237123   6.159   3.469   3.959  0.6160 -0.0846  0.2137
 5163TIP3    H137124   6.066   3.464   3.936  0.6258 -1.6910  0.3977
 5163TIP3    H237125   6.159   3.479   4.054  0.6196 -0.8080  0.2969
 5164TIP3   OH237126   2.415   3.401   1.595 -0.8148 -0.4335  0.1810
 5164TIP3    H137127   2.479   3.432   1.532 -0.0826 -0.9808  0.6323
 5164TIP3    H237128   2.344   3.364   1.542  0.0479 -1.4017 -0.3404
 5165TIP3   OH237129   0.706   0.586   2.287  0.1079 -0.2174 -0.1256
 5165TIP3    H137130   0.738   0.497   2.272  1.3428  0.1382  0.3316
 5165TIP3    H237131   0.681   0.588   2.379 -0.0020 -0.1154 -0.1567
 5166TIP3   OH237132   1.237   5.319   3.428 -0.5088 -0.2980 -0.3259
 5166TIP3    H137133   1.177   5.258   3.470 -1.1219  0.5319  0.0438
 5166TIP3    H237134   1.294   5.264   3.374  1.2971 -1.6318  2.6609
 5167TIP3   OH237135   0.251   2.078   3.957 -0.3689  0.4666  0.0474
 5167TIP3    H137136   0.231   2.149   4.017 -0.8140  0.2740  0.1246
 5167TIP3    H237137   0.172   2.024   3.955 -0.2245  0.2650 -0.4187
 5168TIP3   OH237138   1.393   1.614   1.639  0.2611 -0.1652  0.4666
 5168TIP3    H137139   1.345   1.542   1.599 -0.0924  0.3245  0.0012
 5168TIP3    H237140   1.351   1.693   1.606 -0.0001  0.2576  1.7751
 5169TIP3   OH237141   1.772   3.375   3.863 -0.4117 -0.8815  0.1451
 5169TIP3    H137142   1.831   3.442   3.829 -0.1676  0.0060  2.1655
 5169TIP3    H237143   1.685   3.403   3.834 -0.2394 -0.0363  0.4232
 5170TIP3   OH237144   2.158   0.449   2.900  0.1292  0.0522  0.7492
 5170TIP3    H137145   2.250   0.467   2.880 -0.1371  0.4052 -0.2133
 5170TIP3    H237146   2.154   0.449   2.996  1.0264  0.5808  0.8014
 5171TIP3   OH237147   0.251   5.642   2.286 -0.0970 -0.3185  0.2311
 5171TIP3    H137148   0.255   5.735   2.307  1.8644 -0.1711 -0.5641
 5171TIP3    H237149   0.276   5.598   2.367 -1.2740 -0.1849  0.6797
 5172TIP3   OH237150   6.499   5.158   1.758  0.1414  0.4266 -0.5271
 5172TIP3    H137151   6.470   5.242   1.794  2.2272  1.2006 -0.5361
 5172TIP3    H237152   6.517   5.176   1.666  0.4973 -0.0717 -0.5565
 5173TIP3   OH237153   5.227   0.787   0.169 -0.0031 -0.0515  0.0197
 5173TIP3    H137154   5.167   0.758   0.100 -2.5978  3.2391  0.5984
 5173TIP3    H237155   5.175   0.780   0.249  1.9990 -1.2039  1.2985
 5174TIP3   OH237156   3.158   4.723   8.370 -0.2931  0.7910  0.0260
 5174TIP3    H137157   3.246   4.750   8.346 -0.1435  1.1208  0.9044
 5174TIP3    H237158   3.121   4.686   8.290  0.9133 -0.0797 -0.1539
 5175TIP3   OH237159   2.055   2.374   2.019  0.0983 -0.5159 -0.7720
 5175TIP3    H137160   2.047   2.356   1.926 -0.1673  2.8503 -1.5567
 5175TIP3    H237161   1.965   2.375   2.052 -0.1052  1.2349 -1.2489
 5176TIP3   OH237162   0.337   0.599   2.312  0.6368 -0.1528 -0.1594
 5176TIP3    H137163   0.393   0.525   2.335  0.3881  0.4504  2.7668
 5176TIP3    H237164   0.396   0.674   2.308  0.6300 -0.1916 -1.4130
 5177TIP3   OH237165   4.055   2.528   2.158 -0.3559 -0.4008  0.0132
 5177TIP3    H137166   3.993   2.559   2.092 -0.2941  1.5913  0.8412
 5177TIP3    H237167   4.138   2.521   2.110 -0.8428 -1.5948 -0.7237
 5178TIP3   OH237168   4.006   1.925   3.901 -0.4072  0.3150 -0.4743
 5178TIP3    H137169   3.915   1.941   3.926 -0.3251 -1.3933  1.0669
 5178TIP3    H237170   4.007   1.834   3.872  0.7734  0.3942 -0.7286
 5179TIP3   OH237171   2.435   6.695   2.838 -0.2183 -0.5008  0.5172
 5179TIP3    H137172   2.463   6.744   2.915  2.7595  0.7954 -1.2359
 5179TIP3    H237173   2.394   6.760   2.782  0.9307 -0.6397 -0.5089
 5180TIP3   OH237174   3.421   3.022   0.068  0.1721 -0.1263  0.5073
 5180TIP3    H137175   3.414   3.111   0.103  0.4120  0.0277  0.1711
 5180TIP3    H237176   3.508   2.993   0.096  1.0922  0.6337 -1.3786
 5181TIP3   OH237177   3.303   1.776   1.233 -0.1033 -0.2452  0.2856
 5181TIP3    H137178   3.218   1.793   1.193  0.7142  0.7901 -1.1182
 5181TIP3    H237179   3.302   1.827   1.314 -0.9471 -0.5222  0.4533
 5182TIP3   OH237180   0.710   1.857   2.765  0.3897 -0.5801 -0.1785
 5182TIP3    H137181   0.664   1.814   2.693  1.3657 -0.1660 -1.0737
 5182TIP3    H237182   0.696   1.799   2.840 -3.4858  0.6038  0.2205
 5183TIP3   OH237183   2.215   5.755   0.692  0.4596  0.7757 -0.3870
 5183TIP3    H137184   2.283   5.726   0.753 -0.6126 -0.4118  0.2982
 5183TIP3    H237185   2.259   5.762   0.608  1.2677 -0.8226 -0.1326
 5184TIP3   OH237186   4.128   0.528   0.474  0.8201 -0.2048 -0.8419
 5184TIP3    H137187   4.159   0.487   0.393 -0.0284  0.7438 -1.6881
 5184TIP3    H237188   4.064   0.593   0.444  0.6723  0.3382  0.5876
 5185TIP3   OH237189   6.852   5.584   0.258 -0.5507  0.1927 -0.1547
 5185TIP3    H137190   6.926   5.618   0.208  0.6299 -2.3997 -0.2972
 5185TIP3    H237191   6.890   5.517   0.315 -2.8925 -1.8555 -0.8449
 5186TIP3   OH237192   1.757   5.745   3.936 -0.3804 -0.2698  0.2835
 5186TIP3    H137193   1.755   5.820   3.996  0.7693  0.8111 -0.9622
 5186TIP3    H237194   1.756   5.784   3.849 -2.0126 -1.8055 -0.4370
 5187TIP3   OH237195   3.238   6.037   2.525  0.3726 -0.2572  0.6404
 5187TIP3    H137196   3.247   6.078   2.440 -0.1298 -0.0104  0.7042
 5187TIP3    H237197   3.224   5.944   2.506 -1.6001  0.0519  0.3591
 5188TIP3   OH237198   5.327   4.733   2.613  0.1490 -0.2372 -0.2098
 5188TIP3    H137199   5.327   4.778   2.698  2.1034 -2.5398  1.1261
 5188TIP3    H237200   5.414   4.695   2.605 -1.4645 -4.3827 -0.8091
 5189TIP3   OH237201   6.419   5.876   1.697  0.5966 -0.0407 -0.4354
 5189TIP3    H137202   6.361   5.946   1.669  0.7174  0.0522 -0.4555
 5189TIP3    H237203   6.403   5.805   1.635  1.7119  0.5737 -1.4778
 5190TIP3   OH237204   3.665   1.158   3.931  0.5532 -0.3648 -0.0666
 5190TIP3    H137205   3.608   1.144   3.855  2.5617 -0.3633 -1.6716
 5190TIP3    H237206   3.607   1.194   3.998 -1.9075 -2.9999 -0.5709
 5191TIP3   OH237207   1.606   6.624   2.786  0.4706  0.6965 -0.6961
 5191TIP3    H137208   1.644   6.623   2.698 -0.5666  1.3118 -1.1770
 5191TIP3    H237209   1.516   6.595   2.773  0.5513 -0.0507  0.3022
 5192TIP3   OH237210   3.712   3.162   0.336 -0.2254 -0.5762 -0.1090
 5192TIP3    H137211   3.733   3.239   0.282  0.1505  0.1198  0.9863
 5192TIP3    H237212   3.620   3.145   0.318 -0.1858 -0.1741 -0.7402
 5193TIP3   OH237213   3.205   1.216   0.476  0.1063 -0.6232 -0.3896
 5193TIP3    H137214   3.228   1.123   0.475 -1.4843 -1.0349 -0.7007
 5193TIP3    H237215   3.263   1.254   0.542  1.5989 -1.5922 -1.0796
 5194TIP3   OH237216   5.704   2.769   8.361  0.7321  0.4940 -0.2577
 5194TIP3    H137217   5.632   2.752   8.300  0.9273  1.4405 -0.7678
 5194TIP3    H237218   5.781   2.731   8.318  0.6169 -0.1191  0.0767
 5195TIP3   OH237219   6.420   5.770   2.695  0.1670 -0.1387 -0.1215
 5195TIP3    H137220   6.496   5.723   2.730  0.5542 -1.0579 -2.0724
 5195TIP3    H237221   6.347   5.710   2.705 -0.3977  0.7924  1.8672
 5196TIP3   OH237222   5.826   6.159   0.727  0.4857  0.3910 -0.4726
 5196TIP3    H137223   5.883   6.167   0.803  1.4660 -0.9558 -1.0412
 5196TIP3    H237224   5.772   6.239   0.730  2.3382  1.6855  0.0975
 5197TIP3   OH237225   1.391   3.553   2.781 -0.2010  0.6191  0.3547
 5197TIP3    H137226   1.385   3.543   2.876  0.6909  1.2579  0.4864
 5197TIP3    H237227   1.484   3.567   2.764 -0.2189 -0.4934 -0.7234
 5198TIP3   OH237228   1.405   2.815   0.916 -0.4572  0.4359 -0.3530
 5198TIP3    H137229   1.314   2.820   0.887 -0.1242  1.6511 -1.2479
 5198TIP3    H237230   1.412   2.729   0.957 -1.8575  0.1006 -0.7647
 5199TIP3   OH237231   5.650   1.352   1.169 -0.0580  0.2569 -0.0067
 5199TIP3    H137232   5.558   1.365   1.149 -0.2693 -0.9032  0.1778
 5199TIP3    H237233   5.682   1.291   1.103 -0.1147 -1.4929  1.4947
 5200TIP3   OH237234   0.419   5.501   8.547  0.0600 -0.3135  0.1459
 5200TIP3    H137235   0.427   5.595   8.531  1.1735 -0.4188  0.0132
 5200TIP3    H237236   0.503   5.465   8.520  0.3514 -1.1055  1.9562
 5201TIP3   OH237237   5.375   5.028   8.568 -0.2478 -0.1292 -0.1516
 5201TIP3    H137238   5.469   5.010   8.560 -0.4325 -0.6027 -1.4646
 5201TIP3    H237239   5.345   4.969   8.637  0.0663 -1.4160 -1.0726
 5202TIP3   OH237240   0.768   4.293   2.057  0.3666  0.7038 -0.4297
 5202TIP3    H137241   0.765   4.324   2.148  2.1142 -0.3795  0.0294
 5202TIP3    H237242   0.737   4.203   2.061 -0.7572  1.0355 -1.1359
 5203TIP3   OH237243   5.383   5.989   8.373 -0.6934 -0.3265 -0.0437
 5203TIP3    H137244   5.471   5.969   8.341 -0.5243  0.2957  0.0228
 5203TIP3    H237245   5.376   6.085   8.366 -1.1988 -0.3308  0.3727
 5204TIP3   OH237246   1.044   1.680   0.227 -0.3566  0.4193  0.5382
 5204TIP3    H137247   0.987   1.625   0.281  0.8222 -1.5753 -0.1635
 5204TIP3    H237248   1.011   1.769   0.242 -0.9038 -0.1583  3.4960
 5205TIP3   OH237249   4.680   6.278   1.402  0.1300 -0.4256  0.3810
 5205TIP3    H137250   4.641   6.347   1.349  0.9478 -1.7043 -1.9949
 5205TIP3    H237251   4.649   6.296   1.491 -2.2578  1.1243 -0.6770
 5206TIP3   OH237252   6.402   1.078   0.723  0.0413  0.1210  0.2756
 5206TIP3    H137253   6.454   1.002   0.696 -0.6425 -0.5167  0.6977
 5206TIP3    H237254   6.404   1.075   0.819 -1.9178 -0.7816  0.3515
 5207TIP3   OH237255   2.629   1.961   0.540 -0.2301  0.6218  0.4274
 5207TIP3    H137256   2.605   2.054   0.548 -0.4590  0.8374 -1.9879
 5207TIP3    H237257   2.601   1.937   0.452  0.3390 -1.6153  0.8023
 5208TIP3   OH237258   3.116   0.808   1.328 -0.3566  0.2674 -0.4849
 5208TIP3    H137259   3.137   0.864   1.253 -0.8681 -0.3829 -1.1257
 5208TIP3    H237260   3.107   0.869   1.401 -0.4088  0.9735 -1.0643
 5209TIP3   OH237261   1.026   6.420   1.950  0.7961  0.3780  0.5030
 5209TIP3    H137262   1.065   6.384   1.870  2.2407  2.5683  0.1541
 5209TIP3    H237263   1.058   6.510   1.954  2.6606 -0.2477  4.7294
 5210TIP3   OH237264   1.009   3.548   0.752  0.3992 -0.6717 -0.1849
 5210TIP3    H137265   0.985   3.640   0.767 -0.1577 -0.8604  0.1268
 5210TIP3    H237266   0.963   3.500   0.821  0.6634 -1.1886 -0.3652
 5211TIP3   OH237267   5.522   5.408   2.997  0.2675 -0.8164  0.1911
 5211TIP3    H137268   5.515   5.486   3.051 -1.8933 -0.8926  0.1114
 5211TIP3    H237269   5.594   5.426   2.937  0.0492  0.9614  0.4294
 5212TIP3   OH237270   2.422   3.280   8.533  0.1156 -0.3774  0.6242
 5212TIP3    H137271   2.428   3.188   8.558  0.2476 -0.1025  1.6207
 5212TIP3    H237272   2.512   3.307   8.517  0.0798 -0.4027  0.3667
 5213TIP3   OH237273   1.759   5.134   1.332 -0.0902  0.2415 -0.4344
 5213TIP3    H137274   1.752   5.216   1.380 -0.2163  0.4054 -0.7259
 5213TIP3    H237275   1.793   5.159   1.246 -1.1053  0.1307 -0.8885
 5214TIP3   OH237276   3.711   2.225   3.334  0.3723 -0.1146 -0.2712
 5214TIP3    H137277   3.714   2.163   3.261  1.2137 -0.5606  0.1324
 5214TIP3    H237278   3.798   2.220   3.373 -0.8805 -2.1420  2.6185
 5215TIP3   OH237279   4.268   0.369   1.439  0.2252 -0.2180 -0.2616
 5215TIP3    H137280   4.335   0.302   1.425 -1.6891 -2.6121  1.1300
 5215TIP3    H237281   4.307   0.431   1.501  1.2080 -1.4719  0.4108
 5216TIP3   OH237282   1.386   5.144   2.971  0.3234  0.4828 -0.1972
 5216TIP3    H137283   1.391   5.132   3.066  2.8248  0.2469 -0.2945
 5216TIP3    H237284   1.292   5.154   2.953 -0.3017 -0.4769  2.1561
 5217TIP3   OH237285   4.987   3.141   8.703  0.0897 -0.4814  0.3970
 5217TIP3    H137286   5.038   3.211   8.661  0.1382 -0.4311  0.5377
 5217TIP3    H237287   4.900   3.179   8.716  0.2681 -0.2540  0.9696
 5218TIP3   OH237288   1.689   3.025   2.353 -0.3793  0.0041  0.2784
 5218TIP3    H137289   1.703   2.972   2.431 -2.3411  0.6796  1.1368
 5218TIP3    H237290   1.696   3.116   2.384 -0.9003  0.2812 -0.3932
 5219TIP3   OH237291   0.231   3.571   1.478 -0.1509 -0.5252  0.3009
 5219TIP3    H137292   0.278   3.488   1.468  3.0691  1.3402 -1.7897
 5219TIP3    H237293   0.175   3.576   1.401  0.1067 -0.4930  0.1149
 5220TIP3   OH237294   0.625   2.372   2.052  0.4033 -0.5474  0.6013
 5220TIP3    H137295   0.595   2.288   2.086  3.1148 -0.6345  3.2425
 5220TIP3    H237296   0.549   2.429   2.057 -0.7883 -2.1372  1.4495
 5221TIP3   OH237297   1.120   6.274   8.711  0.0275 -0.1845  0.0956
 5221TIP3    H137298   1.130   6.342   8.645 -2.1926 -0.0773 -0.2245
 5221TIP3    H237299   1.184   6.296   8.778  2.1019 -0.0893 -1.7942
 5222TIP3   OH237300   0.588   3.352   0.351 -0.1592 -0.3993  0.1661
 5222TIP3    H137301   0.498   3.347   0.319 -0.4566  0.7192  0.7886
 5222TIP3    H237302   0.614   3.443   0.336  0.0190 -0.0739  2.1722
 5223TIP3   OH237303   6.768   2.172   3.741 -0.5412  0.1590 -0.0967
 5223TIP3    H137304   6.758   2.155   3.835  0.1252 -0.6123 -0.1556
 5223TIP3    H237305   6.765   2.085   3.701 -1.6091  0.5289 -0.8831
 5224TIP3   OH237306   0.899   6.633   0.206 -0.7407  0.5371 -0.1077
 5224TIP3    H137307   0.958   6.708   0.204 -1.6785  1.3336  0.6013
 5224TIP3    H237308   0.834   6.656   0.273 -0.3096 -1.4728  1.0828
 5225TIP3   OH237309   1.189   6.706   8.589  0.3996  0.3711 -0.3270
 5225TIP3    H137310   1.106   6.721   8.545  0.4046 -0.6938 -0.7300
 5225TIP3    H237311   1.244   6.663   8.524  0.1945 -1.8120  0.8465
 5226TIP3   OH237312   5.637   6.453   2.195 -0.3786  0.4153 -0.2804
 5226TIP3    H137313   5.628   6.383   2.130  0.5091 -1.0760  1.1477
 5226TIP3    H237314   5.607   6.531   2.149  1.1115 -0.3886 -2.8173
 5227TIP3   OH237315   0.803   4.659   0.262 -0.5840  0.4668 -0.0239
 5227TIP3    H137316   0.795   4.631   0.171  1.2054  1.8885 -0.6895
 5227TIP3    H237317   0.850   4.588   0.306  0.2338  0.5944 -0.6784
 5228TIP3   OH237318   3.276   0.375   2.131  0.6032  0.1795 -0.0231
 5228TIP3    H137319   3.232   0.458   2.151  1.3127  0.4449  0.4731
 5228TIP3    H237320   3.209   0.323   2.087 -0.0471  0.7756  0.2345
 5229TIP3   OH237321   4.127   6.250   0.901  0.0860  0.7201 -0.5095
 5229TIP3    H137322   4.090   6.246   0.812 -0.0148  0.3104 -0.4495
 5229TIP3    H237323   4.221   6.245   0.888  0.0961  1.1154 -0.6206
 5230TIP3   OH237324   4.205   1.718   8.262 -0.1117 -0.3822  0.7106
 5230TIP3    H137325   4.158   1.637   8.283 -1.1626  0.3812  1.4493
 5230TIP3    H237326   4.236   1.706   8.173 -3.3240 -0.2599 -0.5834
 5231TIP3   OH237327   2.936   3.715   2.817 -0.0303  0.3605  0.3339
 5231TIP3    H137328   3.023   3.746   2.841 -0.6864  1.3544  1.5325
 5231TIP3    H237329   2.932   3.625   2.850  1.1457 -0.3557 -1.3248
 5232TIP3   OH237330   2.472   0.161   2.523  0.3508 -0.3285 -0.4263
 5232TIP3    H137331   2.546   0.151   2.463  0.3774 -0.5973 -0.3477
 5232TIP3    H237332   2.511   0.154   2.610  0.5579  1.5267 -0.3218
 5233TIP3   OH237333   5.730   4.485   1.231 -0.7247  0.7476 -0.4303
 5233TIP3    H137334   5.672   4.532   1.170 -1.9790 -0.6521 -0.3671
 5233TIP3    H237335   5.705   4.518   1.318 -1.8571 -0.2495 -0.3559
 5234TIP3   OH237336   1.075   5.762   1.669 -0.3259 -0.0938 -0.3788
 5234TIP3    H137337   1.163   5.761   1.707 -0.8697 -3.7376  1.2381
 5234TIP3    H237338   1.087   5.728   1.580 -0.1029 -1.2072  0.0550
 5235TIP3   OH237339   2.350   2.379   8.472 -0.9164  0.1155  0.0763
 5235TIP3    H137340   2.378   2.288   8.468  1.4827  0.7833  0.1930
 5235TIP3    H237341   2.356   2.410   8.381  0.8439  0.8069  0.3860
 5236TIP3   OH237342   6.772   2.475   0.822 -0.0543  0.1040  0.6999
 5236TIP3    H137343   6.762   2.561   0.781  0.4292  0.6138  1.6236
 5236TIP3    H237344   6.768   2.492   0.916 -0.3852 -0.9427  0.8943
 5237TIP3   OH237345   2.563   3.913   0.054  0.4785  0.2846  0.1672
 5237TIP3    H137346   2.507   3.890  -0.020  2.3605  0.9201 -1.5700
 5237TIP3    H237347   2.602   3.830   0.082 -0.9505 -0.1018  1.1406
 5238TIP3   OH237348   3.561   0.883   1.522 -0.0099  0.1724  0.1284
 5238TIP3    H137349   3.521   0.909   1.605  0.3941 -2.8570  1.3803
 5238TIP3    H237350   3.499   0.913   1.456 -0.8855  1.6852  1.5516
 5239TIP3   OH237351   1.163   5.726   2.913 -0.5324  0.2148 -0.5432
 5239TIP3    H137352   1.196   5.740   3.002  1.2154  0.7377 -1.2280
 5239TIP3    H237353   1.091   5.789   2.904 -0.7703  0.1118  0.5072
 5240TIP3   OH237354   3.956   2.235   1.916 -0.2612  0.3774  0.9624
 5240TIP3    H137355   3.905   2.161   1.882 -0.7983  1.2794 -0.2745
 5240TIP3    H237356   4.006   2.198   1.989 -0.5858 -1.1796  0.4380
 5241TIP3   OH237357   3.639   0.558   1.663 -0.0267 -0.4216  0.9528
 5241TIP3    H137358   3.656   0.647   1.632 -0.5471 -0.7768 -0.3680
 5241TIP3    H237359   3.679   0.501   1.597 -0.1849 -1.1880  1.5035
 5242TIP3   OH237360   3.198   6.622   1.214  0.0602  0.7200  0.2176
 5242TIP3    H137361   3.246   6.690   1.165  0.7131  1.4831  1.8501
 5242TIP3    H237362   3.249   6.542   1.200 -0.7480  0.4991 -1.7764
 5243TIP3   OH237363   2.456   2.966   0.282  0.6800  0.1493  0.2299
 5243TIP3    H137364   2.528   3.025   0.258  0.9594 -0.0518  0.5580
 5243TIP3    H237365   2.443   2.912   0.205  0.8790  0.1914  0.1667
 5244TIP3   OH237366   3.712   0.847   2.425  0.1037 -0.0422  0.2713
 5244TIP3    H137367   3.679   0.796   2.351  0.4771 -0.8096  0.6208
 5244TIP3    H237368   3.791   0.800   2.453  1.1840  1.4079 -0.1714
 5245TIP3   OH237369   2.314   5.567   2.435 -0.4582  0.0708 -0.3866
 5245TIP3    H137370   2.226   5.595   2.410 -0.5342  0.9307  0.7496
 5245TIP3    H237371   2.372   5.608   2.371 -0.7963  0.6031 -0.3604
 5246TIP3   OH237372   6.077   0.718   3.677 -0.0689  0.2914  0.4156
 5246TIP3    H137373   6.155   0.664   3.691  0.0937  0.1746 -0.8249
 5246TIP3    H237374   6.100   0.775   3.604 -1.5585 -0.6282 -0.8285
 5247TIP3   OH237375   0.130   4.764   0.673  0.3216 -0.6204  0.1495
 5247TIP3    H137376   0.093   4.826   0.736 -0.9564 -0.8807 -0.2932
 5247TIP3    H237377   0.203   4.811   0.632 -1.0839  0.9298 -0.7204
 5248TIP3   OH237378   5.844   2.044   0.275 -0.3168  0.3418 -0.4137
 5248TIP3    H137379   5.781   2.114   0.259 -1.5281 -0.3200  1.0966
 5248TIP3    H237380   5.812   1.971   0.221 -0.1416  0.3801 -0.5686
 5249TIP3   OH237381   1.150   1.606   3.239 -0.5787  0.0363  0.0617
 5249TIP3    H137382   1.184   1.567   3.158 -1.6042 -1.1990  0.1846
 5249TIP3    H237383   1.204   1.569   3.308  0.8076  1.6930 -0.0746
 5250TIP3   OH237384   3.018   6.462   2.966  0.1018 -0.8995 -0.3377
 5250TIP3    H137385   3.075   6.387   2.983 -0.6494 -1.2412  0.7260
 5250TIP3    H237386   2.942   6.424   2.921  0.8009 -0.4013 -2.0431
 5251TIP3   OH237387   5.127   2.390   1.913  0.5256  0.0280 -0.0800
 5251TIP3    H137388   5.110   2.297   1.930  0.8493 -0.0043  0.0799
 5251TIP3    H237389   5.041   2.429   1.905  0.3857 -0.3600 -0.5381
 5252TIP3   OH237390   5.031   6.002   3.265 -0.1127 -0.4308 -0.4008
 5252TIP3    H137391   5.005   6.013   3.356 -1.3897  2.0923 -0.9853
 5252TIP3    H237392   4.949   5.992   3.217  0.2572  1.8995 -1.6423
 5253TIP3   OH237393   2.476   4.628   8.690  0.3679  0.3333  0.5410
 5253TIP3    H137394   2.512   4.711   8.658 -1.1994  1.1308  0.7441
 5253TIP3    H237395   2.529   4.561   8.648  1.5705  1.4387  0.2450
 5254TIP3   OH237396   0.354   1.909   0.939 -0.1099 -0.0572 -1.2005
 5254TIP3    H137397   0.388   1.881   1.024 -1.1289 -0.6974 -0.9799
 5254TIP3    H237398   0.326   1.999   0.953  0.9196  0.2835 -1.2303
 5255TIP3   OH237399   0.695   0.996   7.960  0.3228 -0.2549  1.1710
 5255TIP3    H137400   0.645   0.919   7.934 -1.0035  1.0109 -0.1830
 5255TIP3    H237401   0.783   0.980   7.926 -0.6672  0.1107 -1.8310
 5256TIP3   OH237402   0.993   6.732   2.443  0.0115  0.1408  0.4567
 5256TIP3    H137403   0.960   6.738   2.353 -0.6930  0.7902  0.7419
 5256TIP3    H237404   1.056   6.661   2.441  0.0246  0.1657 -0.5624
 5257TIP3   OH237405   4.648   0.420   0.944 -0.3673 -0.0163 -0.4060
 5257TIP3    H137406   4.680   0.490   1.001 -0.5922  0.8759 -1.3256
 5257TIP3    H237407   4.601   0.361   1.002 -1.6513  1.5018  0.1766
 5258TIP3   OH237408   0.711   5.359   8.531 -0.0182 -0.1260 -0.2934
 5258TIP3    H137409   0.699   5.306   8.609  0.2678  0.3745  0.1039
 5258TIP3    H237410   0.696   5.300   8.458 -1.0300 -0.4247  0.1446
 5259TIP3   OH237411   0.533   4.825   2.644 -0.2656  0.4042 -0.0253
 5259TIP3    H137412   0.604   4.760   2.649 -1.6931 -1.1364  2.7640
 5259TIP3    H237413   0.514   4.832   2.550  2.7828  0.0886 -0.7840
 5260TIP3   OH237414   0.034   3.077   2.143  0.1482 -0.2831  0.0246
 5260TIP3    H137415  -0.062   3.073   2.136  0.2764 -1.2398 -2.5757
 5260TIP3    H237416   0.060   3.139   2.075  1.3960 -0.0992  0.6466
 5261TIP3   OH237417   2.401   6.466   1.944  0.5175  0.2120  0.1366
 5261TIP3    H137418   2.393   6.543   1.888  1.0713 -0.7700 -1.3628
 5261TIP3    H237419   2.428   6.396   1.885 -0.0586 -1.1711  1.4379
 5262TIP3   OH237420   5.939   2.650   1.272  0.0561  0.4603 -0.2822
 5262TIP3    H137421   5.869   2.609   1.323  1.9281 -2.4662  0.1247
 5262TIP3    H237422   5.908   2.645   1.181 -1.0763  1.0065  0.0539
 5263TIP3   OH237423   5.739   4.406   8.507 -0.1238 -0.8141  0.8822
 5263TIP3    H137424   5.735   4.460   8.428 -0.5781 -1.9448  0.1013
 5263TIP3    H237425   5.824   4.426   8.546 -0.3155  0.5229  0.6905
 5264TIP3   OH237426   5.190   4.465   2.478  0.0112  0.4039  0.1894
 5264TIP3    H137427   5.122   4.502   2.421 -0.1148 -0.6649 -0.3614
 5264TIP3    H237428   5.170   4.502   2.565 -1.3749 -0.0003  0.0653
 5265TIP3   OH237429   5.818   2.927   8.591  0.2211  0.2495  0.3993
 5265TIP3    H137430   5.827   3.007   8.540 -2.5964  0.9996  0.8619
 5265TIP3    H237431   5.788   2.861   8.528 -2.8915  1.0825  0.8022
 5266TIP3   OH237432   6.595   5.072   7.833  0.1647  0.0217  0.1844
 5266TIP3    H137433   6.562   5.160   7.852 -0.5899 -0.4040  0.8412
 5266TIP3    H237434   6.658   5.086   7.762  0.4062  1.1550  0.6041
 5267TIP3   OH237435   3.073   3.237   8.718 -0.4299  0.0090 -0.2408
 5267TIP3    H137436   3.121   3.167   8.763  0.8305  0.6804 -0.5005
 5267TIP3    H237437   3.098   3.229   8.626 -2.5956 -1.0310 -0.8002
 5268TIP3   OH237438   6.043   5.916   1.653 -0.0669 -0.3111 -0.2258
 5268TIP3    H137439   6.130   5.885   1.631  0.2264  0.1230  0.3049
 5268TIP3    H237440   6.049   5.943   1.745 -0.8391 -0.5733 -0.0885
 5269TIP3   OH237441   5.492   6.099   1.294  0.3555  0.7643 -0.4559
 5269TIP3    H137442   5.518   6.082   1.203  2.3129  0.5435  0.1186
 5269TIP3    H237443   5.536   6.180   1.318 -2.5976  2.5722 -0.6015
 5270TIP3   OH237444   3.047   0.075   3.296 -0.0665  0.4812  0.0820
 5270TIP3    H137445   3.095   0.156   3.281  0.8369 -0.0455  0.0995
 5270TIP3    H237446   2.962   0.104   3.331  0.8867  1.3535  1.8058
 5271TIP3   OH237447   6.344   5.273   3.229 -0.1416  0.1993 -0.2343
 5271TIP3    H137448   6.263   5.241   3.268 -0.6257  1.1060 -0.4544
 5271TIP3    H237449   6.342   5.238   3.140  0.2200 -0.6227  0.0728
 5272TIP3   OH237450   3.832   0.439   7.944 -0.0470  0.2792  0.1367
 5272TIP3    H137451   3.798   0.513   7.994  0.0638  0.7370 -0.4598
 5272TIP3    H237452   3.926   0.438   7.963 -0.0798  0.1758  0.2931
 5273TIP3   OH237453   5.980   2.056   2.479  0.2131  0.0182 -0.6647
 5273TIP3    H137454   5.960   2.118   2.408  0.7146  0.1519 -0.6878
 5273TIP3    H237455   5.898   2.007   2.490  1.0704 -2.4459 -3.7505
 5274TIP3   OH237456   1.936   2.755   1.437 -0.4609 -0.4503  0.0208
 5274TIP3    H137457   1.942   2.790   1.526  0.2243  0.9381 -0.5471
 5274TIP3    H237458   2.016   2.704   1.426 -0.9522 -1.3406  0.4806
 5275TIP3   OH237459   3.851   1.057   7.765  0.0467  0.0370 -0.3704
 5275TIP3    H137460   3.942   1.088   7.762 -0.6069  2.0539 -0.8863
 5275TIP3    H237461   3.818   1.072   7.676 -0.8027 -0.6683 -0.1810
 5276TIP3   OH237462   4.388   2.018   2.939 -0.1935 -0.1184  0.6437
 5276TIP3    H137463   4.339   1.947   2.980 -2.4385  1.4015  0.8491
 5276TIP3    H237464   4.404   2.080   3.010 -0.0483  0.4748  0.1047
 5277TIP3   OH237465   1.967   5.817   0.660  0.1051 -0.3375  0.2732
 5277TIP3    H137466   1.956   5.805   0.566  0.5409  0.5104  0.1100
 5277TIP3    H237467   2.054   5.781   0.680  0.4021  0.3336  0.1926
 5278TIP3   OH237468   1.014   4.956   3.070  0.1503 -0.1799  0.1259
 5278TIP3    H137469   0.991   5.010   3.146  0.2875 -1.0804  0.8197
 5278TIP3    H237470   1.069   5.013   3.016  0.3791  0.3488  0.8950
 5279TIP3   OH237471   5.194   5.806   3.190  0.0488 -0.5475  0.6541
 5279TIP3    H137472   5.216   5.837   3.103  1.1745 -0.0225  1.1099
 5279TIP3    H237473   5.138   5.875   3.227 -0.9095 -1.0345  0.1645
 5280TIP3   OH237474   1.032   1.538   8.408 -0.3833  0.5266 -0.5902
 5280TIP3    H137475   1.009   1.552   8.316  0.5098  0.2977 -0.8611
 5280TIP3    H237476   1.036   1.443   8.418 -1.7153  0.5192  0.0182
 5281TIP3   OH237477   4.989   4.961   0.610 -0.7271 -0.1419 -0.2334
 5281TIP3    H137478   5.041   4.946   0.531 -1.3593  2.1365 -1.1605
 5281TIP3    H237479   4.899   4.967   0.579 -1.0316  0.3807  0.7095
 5282TIP3   OH237480   4.873   2.340   3.627 -0.3231  0.0151  0.0245
 5282TIP3    H137481   4.788   2.297   3.639  0.8128 -2.4437 -0.2524
 5282TIP3    H237482   4.865   2.422   3.675 -3.1202  0.2627 -0.6783
 5283TIP3   OH237483   3.584   6.188   0.284  0.1109 -0.6751 -0.1391
 5283TIP3    H137484   3.516   6.216   0.223  0.8716 -2.6402 -2.0222
 5283TIP3    H237485   3.536   6.149   0.357 -0.7993  1.1235  0.2800
 5284TIP3   OH237486   0.588   1.324   8.172 -0.3206  0.3021  0.2062
 5284TIP3    H137487   0.566   1.289   8.258 -2.1444 -0.3762 -0.4816
 5284TIP3    H237488   0.566   1.417   8.177 -1.0110  0.1372  0.2979
 5285TIP3   OH237489   2.076   0.315   8.515 -0.0477 -0.0124 -0.4970
 5285TIP3    H137490   2.164   0.300   8.482  0.1345  0.2498 -0.1332
 5285TIP3    H237491   2.039   0.381   8.457 -0.0031 -0.1153 -0.6433
 5286TIP3   OH237492   2.392   4.650   0.269  0.6085 -0.3231 -0.3167
 5286TIP3    H137493   2.432   4.575   0.225  0.2680 -0.0779 -1.0463
 5286TIP3    H237494   2.366   4.616   0.355 -1.5081 -1.6543 -1.3987
 5287TIP3   OH237495   4.288   1.385   2.765 -0.8634 -0.4715 -0.0645
 5287TIP3    H137496   4.353   1.324   2.730 -1.0498 -1.0938  0.6530
 5287TIP3    H237497   4.247   1.424   2.688  0.0662 -0.3882 -0.5228
 5288TIP3   OH237498   2.758   1.940   1.718 -0.0463  0.3655 -0.0347
 5288TIP3    H137499   2.816   1.994   1.664  0.5445 -0.0855  0.1284
 5288TIP3    H237500   2.679   1.992   1.730 -0.0724  0.5840 -1.1036
 5289TIP3   OH237501   6.885   1.007   2.789  0.3512 -0.0815 -0.0929
 5289TIP3    H137502   6.872   1.100   2.768 -0.1394 -0.3172 -0.8762
 5289TIP3    H237503   6.868   0.961   2.707 -1.0394 -0.9946  0.6598
 5290TIP3   OH237504   4.452   0.192   3.551  0.4559 -0.3771 -0.2149
 5290TIP3    H137505   4.424   0.234   3.632  1.7245  0.2491 -0.0742
 5290TIP3    H237506   4.479   0.265   3.495 -1.8362 -0.6631 -1.8219
 5291TIP3   OH237507   0.471   2.020   8.604  0.3337 -0.2618 -0.5691
 5291TIP3    H137508   0.389   1.981   8.575 -0.0269  0.1367 -0.0822
 5291TIP3    H237509   0.536   1.985   8.542 -0.4288  0.6241 -1.9241
 5292TIP3   OH237510   2.822   1.024   2.130 -0.3316 -0.4833  0.3061
 5292TIP3    H137511   2.841   1.075   2.208  0.9097 -0.0781 -0.2291
 5292TIP3    H237512   2.878   1.063   2.062 -1.2382 -0.9404 -0.7347
 5293TIP3   OH237513   6.766   5.338   2.302  0.1971 -0.1659 -0.4729
 5293TIP3    H137514   6.778   5.416   2.248 -1.7427 -0.6730 -1.7374
 5293TIP3    H237515   6.810   5.269   2.254 -1.2407 -0.5500 -1.2849
 5294TIP3   OH237516   4.077   4.257   3.288  0.2162  0.1993 -0.0264
 5294TIP3    H137517   4.071   4.347   3.257 -0.3791  0.6197  1.2106
 5294TIP3    H237518   3.985   4.230   3.299  0.3434 -1.0754 -1.7414
 5295TIP3   OH237519   5.667   4.892   1.504 -0.1893  0.1898  0.1128
 5295TIP3    H137520   5.584   4.915   1.545  0.8663  2.0777  1.3631
 5295TIP3    H237521   5.683   4.963   1.442  1.2654  0.7951  1.1265
 5296TIP3   OH237522   4.030   3.202   8.719  0.1268 -0.3762  0.5790
 5296TIP3    H137523   3.942   3.178   8.689  0.8686 -1.1572 -1.1510
 5296TIP3    H237524   4.029   3.298   8.719 -0.4467 -0.3645 -0.3511
 5297TIP3   OH237525   4.395   0.839   0.230  0.3055  0.2104 -0.0150
 5297TIP3    H137526   4.304   0.825   0.255  0.3573  1.0613  0.7096
 5297TIP3    H237527   4.439   0.865   0.311  0.8651  1.2905 -0.6305
 5298TIP3   OH237528   5.096   4.247   1.993 -0.4281 -0.5639  0.2394
 5298TIP3    H137529   5.033   4.246   1.920  0.5924 -1.4416 -0.6696
 5298TIP3    H237530   5.044   4.271   2.069 -1.6922 -0.4100 -0.6379
 5299TIP3   OH237531   5.945   5.182   0.646 -0.0156  0.1987 -0.3406
 5299TIP3    H137532   5.898   5.218   0.720 -0.8001  0.5730 -1.0054
 5299TIP3    H237533   5.995   5.256   0.611 -0.7440  0.3769 -1.0234
 5300TIP3   OH237534   3.261   2.684   3.240 -0.2130 -0.0330 -0.3289
 5300TIP3    H137535   3.296   2.759   3.288  1.2890 -0.1216 -1.2296
 5300TIP3    H237536   3.240   2.719   3.153 -0.6480 -0.3849 -0.3649
 5301TIP3   OH237537   5.126   4.719   4.070  0.1916  0.1887  0.0116
 5301TIP3    H137538   5.167   4.753   4.150  0.0146 -0.3355  0.3307
 5301TIP3    H237539   5.160   4.630   4.062 -0.8114 -0.2338  0.2399
 5302TIP3   OH237540   6.546   2.922   0.911  0.1390 -0.6390  0.3475
 5302TIP3    H137541   6.563   2.918   0.817  1.9845  2.2787  0.4364
 5302TIP3    H237542   6.454   2.947   0.918  0.3630  0.5484 -0.7513
 5303TIP3   OH237543   3.241   3.751   1.735  0.6535 -0.1684 -0.2131
 5303TIP3    H137544   3.326   3.708   1.726  1.1689  0.9441 -0.9625
 5303TIP3    H237545   3.233   3.771   1.828  1.0693 -0.5575 -0.0917
 5304TIP3   OH237546   2.641   3.517   1.415  0.0552  0.1269  0.2430
 5304TIP3    H137547   2.680   3.528   1.328 -0.3146 -0.9526 -0.0747
 5304TIP3    H237548   2.715   3.514   1.475  0.2495  3.2377  0.2939
 5305TIP3   OH237549   2.159   6.329   0.760 -0.5255 -0.8363 -0.0446
 5305TIP3    H137550   2.124   6.257   0.709 -1.8951  0.2909 -0.7638
 5305TIP3    H237551   2.099   6.402   0.744  0.1809  0.1577  1.5317
 5306TIP3   OH237552   2.626   3.226   1.402  0.5400 -0.0571  0.1909
 5306TIP3    H137553   2.687   3.183   1.462  0.1271  0.3244  0.9042
 5306TIP3    H237554   2.661   3.315   1.391  0.3688  0.0157  0.2288
 5307TIP3   OH237555   5.815   5.119   3.037 -0.3393  0.3258 -0.0813
 5307TIP3    H137556   5.796   5.083   3.123  3.1811 -0.7948  0.3828
 5307TIP3    H237557   5.818   5.214   3.050 -1.8710  0.3163  0.5043
 5308TIP3   OH237558   3.858   3.914   0.275 -0.1590  0.3992  0.5956
 5308TIP3    H137559   3.879   3.998   0.317 -0.4537  1.0460 -0.5160
 5308TIP3    H237560   3.938   3.891   0.227 -0.3564  0.4530  0.2412
 5309TIP3   OH237561   4.582   4.540   3.387  0.0179  0.3595 -0.3460
 5309TIP3    H137562   4.573   4.516   3.479  1.3511 -0.8475 -0.4872
 5309TIP3    H237563   4.513   4.493   3.342  0.7023 -0.8020 -0.2139
 5310TIP3   OH237564   4.171   4.162   4.403  0.1112 -0.6226  0.3403
 5310TIP3    H137565   4.130   4.217   4.336  1.3320  0.0990  0.1537
 5310TIP3    H237566   4.250   4.211   4.428 -0.3929 -0.7817  2.4223
 5311TIP3   OH237567   6.142   2.309   8.152 -0.0238 -0.3652  0.1387
 5311TIP3    H137568   6.114   2.230   8.106  0.3089 -0.3973 -0.0052
 5311TIP3    H237569   6.087   2.379   8.116 -0.6134 -0.5959  0.5614
 5312TIP3   OH237570   1.030   3.130   1.503  0.1956 -0.0271  0.4504
 5312TIP3    H137571   1.082   3.201   1.540 -0.1559 -0.7270  2.3846
 5312TIP3    H237572   1.081   3.101   1.427  1.0286  1.3516  0.4314
 5313TIP3   OH237573   5.397   4.970   1.607  0.6147  0.1654 -0.6057
 5313TIP3    H137574   5.357   4.904   1.664 -0.7476  1.1781 -0.3105
 5313TIP3    H237575   5.323   5.010   1.561  1.4435  1.1424 -1.1392
 5314TIP3   OH237576   4.705   5.249   1.055 -0.0009 -0.4011 -0.0912
 5314TIP3    H137577   4.724   5.266   1.147  0.6349 -2.0126  0.1067
 5314TIP3    H237578   4.611   5.232   1.053 -0.3776  1.4826 -0.0720
 5315TIP3   OH237579   0.308   3.034   8.207  0.1362  0.7157 -0.0573
 5315TIP3    H137580   0.382   3.082   8.171 -0.5184  1.2905 -0.6517
 5315TIP3    H237581   0.231   3.074   8.167 -0.5115  0.2359  0.6777
 5316TIP3   OH237582   1.381   0.707   3.293 -0.1077  0.0578 -0.5361
 5316TIP3    H137583   1.307   0.762   3.267 -0.7997 -0.3657  0.4805
 5316TIP3    H237584   1.433   0.763   3.350 -0.7820 -0.2907  0.4527
 5317TIP3   OH237585   1.619   0.395   0.929 -0.0042 -0.6005  0.0579
 5317TIP3    H137586   1.705   0.392   0.888 -0.4385 -0.4946 -0.8696
 5317TIP3    H237587   1.579   0.310   0.909  0.7544 -1.6070  2.4553
 5318TIP3   OH237588   6.545   2.410   2.529 -0.0574  0.1425  0.0675
 5318TIP3    H137589   6.547   2.372   2.441  0.3678 -0.3085  0.2738
 5318TIP3    H237590   6.544   2.335   2.588 -1.3576  0.4251  0.4382
 5319TIP3   OH237591   6.626   6.252   0.472  0.4835  0.3340  0.2714
 5319TIP3    H137592   6.635   6.160   0.495  0.4212  0.1309 -0.4907
 5319TIP3    H237593   6.532   6.267   0.465  0.5086  0.3336 -0.0769
 5320TIP3   OH237594   3.893   0.581   0.972 -0.3133 -0.2551 -0.8061
 5320TIP3    H137595   3.824   0.623   1.023  1.1447  0.3248  0.7626
 5320TIP3    H237596   3.852   0.564   0.887 -2.2620  0.3925 -0.0565
 5321TIP3   OH237597   0.169   2.909   2.742  0.3871 -0.5918  0.3522
 5321TIP3    H137598   0.219   2.886   2.663  0.4035  1.0641 -0.1733
 5321TIP3    H237599   0.205   2.994   2.768 -1.2404  0.0087  0.7426
 5322TIP3   OH237600   4.982   5.171   0.995 -0.0282 -0.2806 -0.1585
 5322TIP3    H137601   5.017   5.107   1.057 -1.6721 -2.2200 -1.1140
 5322TIP3    H237602   4.891   5.184   1.023 -0.6677 -0.8739 -1.8784
 5323TIP3   OH237603   1.065   5.831   3.738 -0.4068 -0.3708 -0.4328
 5323TIP3    H137604   1.007   5.880   3.796  0.1483 -0.1113 -0.0818
 5323TIP3    H237605   1.144   5.885   3.733 -1.4303  1.0536 -3.6727
 5324TIP3   OH237606   5.327   0.606   2.366 -0.2588  0.6555  0.2646
 5324TIP3    H137607   5.245   0.565   2.338 -0.2576  1.5261 -1.0713
 5324TIP3    H237608   5.309   0.638   2.455 -0.8441 -0.5477  0.6059
 5325TIP3   OH237609   1.632   3.787   3.834  0.0604 -0.2105 -0.4577
 5325TIP3    H137610   1.620   3.772   3.928  0.3261  0.1529 -0.3619
 5325TIP3    H237611   1.572   3.726   3.792 -1.7708  1.1505 -0.0013
 5326TIP3   OH237612   4.104   0.358   0.935 -0.2221  0.0214 -0.2984
 5326TIP3    H137613   4.049   0.305   0.993  1.8298 -3.3930 -1.1841
 5326TIP3    H237614   4.073   0.337   0.847  0.0014  1.1303 -0.6523
 5327TIP3   OH237615   6.324   2.556   0.569  0.1400 -0.6500  0.0150
 5327TIP3    H137616   6.339   2.587   0.480  0.4988 -2.5828 -0.6291
 5327TIP3    H237617   6.402   2.504   0.589 -1.2036 -2.6102  0.3609
 5328TIP3   OH237618   6.356   0.251   0.650 -0.1283 -0.3628  0.7880
 5328TIP3    H137619   6.391   0.339   0.667 -2.2276  0.8399 -0.6028
 5328TIP3    H237620   6.421   0.211   0.592 -0.1269  1.1219 -0.3034
 5329TIP3   OH237621   6.494   0.427   2.530  0.0520 -0.2134 -0.2209
 5329TIP3    H137622   6.448   0.461   2.607  0.9212 -0.7858  0.5810
 5329TIP3    H237623   6.573   0.481   2.524  2.0906 -2.6901  1.8061
 5330TIP3   OH237624   0.445   3.666   1.708 -0.4605  0.3176 -0.3562
 5330TIP3    H137625   0.525   3.616   1.693 -1.5487 -3.1698  3.5495
 5330TIP3    H237626   0.383   3.633   1.643 -0.1455 -0.8202 -0.0906
 5331TIP3   OH237627   1.785   5.362   2.051 -0.5304 -0.0230  0.4831
 5331TIP3    H137628   1.863   5.406   2.084  0.4722 -0.3942 -1.2639
 5331TIP3    H237629   1.818   5.282   2.010 -2.0273 -1.0396  1.1681
 5332TIP3   OH237630   5.619   6.623   1.621 -0.1531 -0.1005 -0.5349
 5332TIP3    H137631   5.552   6.556   1.636  1.0707 -1.1955  0.1553
 5332TIP3    H237632   5.642   6.613   1.529 -0.0450 -0.5762 -0.4597
 5333TIP3   OH237633   2.372   4.414   1.447 -0.5571  0.1246  0.1120
 5333TIP3    H137634   2.451   4.386   1.494  0.1335  1.7744 -0.0128
 5333TIP3    H237635   2.395   4.406   1.355 -1.0622 -0.7693  0.0521
 5334TIP3   OH237636   4.703   3.846   3.664 -0.8008 -0.6181  0.4178
 5334TIP3    H137637   4.727   3.763   3.623  1.9947 -0.2576  1.1320
 5334TIP3    H237638   4.652   3.892   3.597 -0.2319 -1.8761 -0.9335
 5335TIP3   OH237639   0.678   5.027   8.037 -0.6726  0.1473  0.0318
 5335TIP3    H137640   0.594   4.981   8.041 -0.6651  0.2188  1.3856
 5335TIP3    H237641   0.664   5.099   7.976 -1.7692  0.5019  0.6873
 5336TIP3   OH237642   4.119   5.482   3.390 -0.1040 -0.7792 -0.1638
 5336TIP3    H137643   4.150   5.565   3.353 -2.3837 -0.3312 -1.2818
 5336TIP3    H237644   4.107   5.500   3.483  3.2159 -1.1379  0.4634
 5337TIP3   OH237645   2.991   6.443   1.393 -0.1654 -0.4775  0.3796
 5337TIP3    H137646   2.956   6.462   1.306  2.8902  0.8866 -0.7122
 5337TIP3    H237647   2.947   6.504   1.451  1.6270  2.6407 -1.2629
 5338TIP3   OH237648   0.331   5.916   1.086 -0.4823  0.0341  0.0592
 5338TIP3    H137649   0.296   5.861   1.017  0.9092  0.2061 -0.8153
 5338TIP3    H237650   0.265   5.984   1.100 -1.4470 -0.8774 -0.0244
 5339TIP3   OH237651   0.565   5.902   3.475 -0.3349 -0.7079  0.1282
 5339TIP3    H137652   0.590   5.841   3.544  0.5001 -0.0473  0.4263
 5339TIP3    H237653   0.501   5.854   3.422 -0.2780 -1.5514  0.8100
 5340TIP3   OH237654   2.825   4.608   2.286 -0.2975 -0.2481  0.1401
 5340TIP3    H137655   2.730   4.622   2.285 -0.3968 -0.8964 -0.0910
 5340TIP3    H237656   2.841   4.552   2.209 -0.0382 -2.0460  1.4340
 5341TIP3   OH237657   6.423   6.730   0.948 -0.3358 -0.3432 -0.3407
 5341TIP3    H137658   6.477   6.661   0.986 -0.9271 -0.3245  0.5453
 5341TIP3    H237659   6.386   6.776   1.023  0.0135  0.9178 -0.9202
 5342TIP3   OH237660   5.942   2.873   2.547  0.5713 -0.5636 -0.2237
 5342TIP3    H137661   5.868   2.888   2.606  0.8543 -1.5167  0.4038
 5342TIP3    H237662   5.999   2.812   2.595  1.9181  0.3790 -0.5724
 5343TIP3   OH237663   1.717   4.046   0.757 -0.3309  0.1357 -0.1922
 5343TIP3    H137664   1.778   4.026   0.829 -1.7907 -0.5149  0.9115
 5343TIP3    H237665   1.745   4.131   0.726  1.5303 -0.4075 -0.1357
 5344TIP3   OH237666   4.454   3.592   2.409  0.3338 -0.4325 -0.0889
 5344TIP3    H137667   4.373   3.568   2.364  1.2044 -2.3818 -0.7036
 5344TIP3    H237668   4.483   3.511   2.452  1.9900  0.1958  0.0647
 5345TIP3   OH237669   2.037   1.354   1.185  0.7915  0.0353  0.9242
 5345TIP3    H137670   2.088   1.436   1.177  0.2571  0.6896  3.3982
 5345TIP3    H237671   2.100   1.285   1.166  1.5156  0.9637 -0.2103
 5346TIP3   OH237672   0.651   0.658   3.321  0.5740 -0.3138 -0.2942
 5346TIP3    H137673   0.570   0.679   3.274  0.8738 -0.9248 -1.1148
 5346TIP3    H237674   0.621   0.626   3.407 -0.0288 -0.0691 -0.4087
 5347TIP3   OH237675   4.045   3.284   3.208  0.6880  0.2764 -0.4681
 5347TIP3    H137676   3.989   3.210   3.233  0.0098  1.1529  0.6772
 5347TIP3    H237677   4.054   3.275   3.113 -0.2764 -0.6622 -0.4963
 5348TIP3   OH237678   4.344   6.392   8.359 -0.5024 -0.2265 -0.4420
 5348TIP3    H137679   4.265   6.433   8.325  0.5562  1.6195 -0.8455
 5348TIP3    H237680   4.407   6.399   8.287  0.5338 -0.0526  0.4516
 5349TIP3   OH237681   5.440   1.485   8.054 -0.4079  0.1681  0.0135
 5349TIP3    H137682   5.349   1.511   8.041 -0.6278 -0.9952 -0.9214
 5349TIP3    H237683   5.461   1.430   7.979  0.7955 -0.3221  0.6743
 5350TIP3   OH237684   5.970   6.313   3.365 -0.3368  0.0297  0.0256
 5350TIP3    H137685   6.005   6.392   3.409 -1.5946 -0.5937  2.3337
 5350TIP3    H237686   5.926   6.265   3.435 -1.1837 -1.8443 -1.7065
 5351TIP3   OH237687   4.664   3.568   8.306 -0.7737  0.0653  0.0403
 5351TIP3    H137688   4.632   3.479   8.291 -0.5513  0.3270 -2.4344
 5351TIP3    H237689   4.748   3.571   8.261 -1.1170  1.7262 -0.5623
 5352TIP3   OH237690   5.365   6.429   0.966  0.4397 -0.4223 -0.4505
 5352TIP3    H137691   5.310   6.393   1.036 -0.3724  2.2456  0.3891
 5352TIP3    H237692   5.304   6.474   0.908  1.4237 -0.1090 -1.2721
 5353TIP3   OH237693   6.459   5.050   2.486  0.0862 -0.3527  0.1531
 5353TIP3    H137694   6.480   4.976   2.543  1.7798 -0.6019 -0.7427
 5353TIP3    H237695   6.463   5.014   2.398 -2.1955  0.1054 -0.2032
 5354TIP3   OH237696   2.539   0.653   0.195  0.0721  0.3196 -0.2542
 5354TIP3    H137697   2.447   0.636   0.175  0.1100 -0.5252  0.2544
 5354TIP3    H237698   2.537   0.720   0.263 -0.2056 -0.4773  0.5329
 5355TIP3   OH237699   4.439   6.374   2.954 -0.1795  0.0421  0.3037
 5355TIP3    H137700   4.359   6.362   2.903  1.1178 -0.9825 -1.6219
 5355TIP3    H237701   4.440   6.467   2.975 -1.0286  0.3938 -1.0973
 5356TIP3   OH237702   4.666   5.436   0.687  0.2232 -0.2507 -0.2231
 5356TIP3    H137703   4.615   5.357   0.666 -0.6581  0.1955  0.1711
 5356TIP3    H237704   4.631   5.503   0.629 -0.4145  0.3358  0.8145
 5357TIP3   OH237705   6.425   5.390   2.329 -0.1468  0.0006 -0.9085
 5357TIP3    H137706   6.487   5.330   2.289  1.6178  0.5084  0.8969
 5357TIP3    H237707   6.462   5.477   2.314 -0.6663  0.3548 -0.2070
 5358TIP3   OH237708   0.208   4.019   3.290 -0.7146 -0.5573 -0.2965
 5358TIP3    H137709   0.270   3.946   3.282 -1.8643 -1.4921 -1.1325
 5358TIP3    H237710   0.154   3.997   3.366  1.2393  1.3029  1.7464
 5359TIP3   OH237711   6.760   0.386   1.346 -0.1467  0.1155  0.1357
 5359TIP3    H137712   6.664   0.386   1.346 -0.2307  2.9847  1.0600
 5359TIP3    H237713   6.785   0.336   1.423 -0.7721 -2.3013 -1.1325
 5360TIP3   OH237714   4.984   1.009   1.197  0.2332  0.0033 -0.1151
 5360TIP3    H137715   5.049   1.065   1.152  1.0127  0.2934  1.3212
 5360TIP3    H237716   5.036   0.937   1.232 -0.2218  0.2143  1.0126
 5361TIP3   OH237717   2.485   3.917   0.625  0.0141  0.0237 -0.3754
 5361TIP3    H137718   2.415   3.975   0.594 -0.0255 -0.6333 -1.5591
 5361TIP3    H237719   2.446   3.829   0.622  0.1280 -0.1106  1.2330
 5362TIP3   OH237720   1.109   2.243   3.497 -0.7689  0.0021 -1.5693
 5362TIP3    H137721   1.144   2.295   3.424  0.9660  1.8426  0.4193
 5362TIP3    H237722   1.161   2.271   3.572 -3.0158 -1.2206  0.5526
 5363TIP3   OH237723   2.871   2.455   1.845  0.1385 -0.1367 -0.1730
 5363TIP3    H137724   2.860   2.547   1.818 -0.3663 -0.1867 -0.1349
 5363TIP3    H237725   2.952   2.456   1.897  0.6535  0.1150 -0.9567
 5364TIP3   OH237726   0.606   0.808   0.538  0.4372  0.1090 -0.0283
 5364TIP3    H137727   0.687   0.770   0.570 -0.2670 -1.5357 -0.0525
 5364TIP3    H237728   0.539   0.742   0.559 -0.9602  1.5919  0.3665
 5365TIP3   OH237729   1.344   1.650   7.949  0.5325  0.2488  0.2258
 5365TIP3    H137730   1.263   1.699   7.937  0.7166  0.1016 -1.8041
 5365TIP3    H237731   1.316   1.560   7.967  0.2333  0.1587 -0.6551
 5366TIP3   OH237732   0.318   5.020   2.163  0.2379 -0.3191  0.2264
 5366TIP3    H137733   0.376   5.064   2.102 -0.6953  1.0165  0.2670
 5366TIP3    H237734   0.260   4.967   2.108 -0.4463  0.6944 -0.0479
 5367TIP3   OH237735   3.581   3.377   7.944 -0.5105  0.3838 -0.4415
 5367TIP3    H137736   3.546   3.290   7.966 -0.9047  0.6912  0.1623
 5367TIP3    H237737   3.676   3.368   7.955 -0.5800  0.1218 -0.0424
 5368TIP3   OH237738   1.203   6.806   1.314 -0.3573  0.1783 -0.3927
 5368TIP3    H137739   1.123   6.835   1.358 -0.8306 -1.3961 -0.1564
 5368TIP3    H237740   1.264   6.879   1.325 -1.2564  0.7992  0.7418
 5369TIP3   OH237741   6.357   3.931   2.222 -0.0115 -0.2143  0.2661
 5369TIP3    H137742   6.379   4.021   2.242  0.9649  0.0181 -1.5691
 5369TIP3    H237743   6.261   3.928   2.226  0.0084  0.4461  1.9609
 5370TIP3   OH237744   6.576   5.628   2.884 -0.5938 -0.5477  0.2679
 5370TIP3    H137745   6.583   5.561   2.952  1.1050  0.0484  0.7270
 5370TIP3    H237746   6.647   5.608   2.823 -2.0180 -1.0076 -1.3334
 5371TIP3   OH237747   4.464   3.839   0.417  0.1990  0.2874  0.5116
 5371TIP3    H137748   4.554   3.826   0.387 -0.0387  1.1228 -0.6384
 5371TIP3    H237749   4.414   3.770   0.374  0.0345  0.8206 -0.1662
 5372TIP3   OH237750   5.876   6.177   2.802 -0.0182 -0.0266 -0.1646
 5372TIP3    H137751   5.898   6.085   2.817  0.0958 -0.2021 -1.2874
 5372TIP3    H237752   5.900   6.192   2.710  1.6743  1.6041  0.4824
 5373TIP3   OH237753   3.393   3.573   3.310  0.0673 -0.1715 -0.1129
 5373TIP3    H137754   3.370   3.491   3.267  2.3580  0.2707 -2.4278
 5373TIP3    H237755   3.467   3.552   3.366  0.1830  0.1591 -0.1360
 5374TIP3   OH237756   2.607   2.456   4.381  0.5913  0.1268 -0.0272
 5374TIP3    H137757   2.688   2.498   4.353  0.7944 -1.0752 -1.3502
 5374TIP3    H237758   2.624   2.429   4.471  1.2540  0.8226  0.0713
 5375TIP3   OH237759   1.025   3.530   1.585 -0.1548  0.2314  0.4713
 5375TIP3    H137760   1.093   3.464   1.602  0.8100  1.0254 -0.1408
 5375TIP3    H237761   1.068   3.614   1.607 -0.3285  0.9030 -1.5997
 5376TIP3   OH237762   1.423   0.409   1.601  0.1987  0.0800 -0.1371
 5376TIP3    H137763   1.388   0.493   1.628 -0.9996  0.0563 -1.5314
 5376TIP3    H237764   1.432   0.415   1.506  0.2513 -1.3075 -0.2479
 5377TIP3   OH237765   5.688   2.629   0.312 -0.6049 -0.5604  0.5136
 5377TIP3    H137766   5.776   2.590   0.312  0.3876  1.5270  0.7620
 5377TIP3    H237767   5.648   2.596   0.392  0.0377 -1.3492  0.5320
 5378TIP3   OH237768   3.806   1.408   0.610 -0.2896  0.1108  0.0608
 5378TIP3    H137769   3.894   1.407   0.573 -0.2017  0.4237  0.2574
 5378TIP3    H237770   3.814   1.461   0.690 -0.5882 -0.1175  0.2440
 5379TIP3   OH237771   2.954   2.077   3.243 -0.0894  0.0030 -0.4190
 5379TIP3    H137772   2.964   2.098   3.151 -2.2063  2.3994 -0.2140
 5379TIP3    H237773   3.018   2.131   3.288  0.7404 -0.9466 -0.4211
 5380TIP3   OH237774   4.985   3.879   0.428  0.6941 -0.0292  0.1594
 5380TIP3    H137775   4.980   3.789   0.461  0.6680  0.1769  0.7204
 5380TIP3    H237776   5.079   3.895   0.418  0.6696 -0.6952 -1.5679
 5381TIP3   OH237777   4.939   1.476   3.861 -0.4431  0.2881  0.3305
 5381TIP3    H137778   4.917   1.567   3.839  0.2789  0.2646 -0.5313
 5381TIP3    H237779   4.927   1.472   3.956 -2.9318  0.5872  0.1141
 5382TIP3   OH237780   4.022   5.613   0.238 -0.6428 -0.5420  0.0305
 5382TIP3    H137781   3.982   5.529   0.220 -0.0730 -0.6469 -0.7934
 5382TIP3    H237782   4.115   5.593   0.251 -0.2793  0.0909 -1.4110
 5383TIP3   OH237783   1.598   0.601   8.719 -0.2767 -0.2051  0.1158
 5383TIP3    H137784   1.660   0.586   8.648 -0.4580 -0.2545 -0.0312
 5383TIP3    H237785   1.576   0.694   8.712 -0.2411 -0.1942  0.1499
 5384TIP3   OH237786   3.092   5.881   1.861 -0.2706  0.1767 -0.7803
 5384TIP3    H137787   3.104   5.806   1.919 -3.6219 -0.8104 -1.1588
 5384TIP3    H237788   3.008   5.865   1.818  1.7664  1.0129 -5.7183
 5385TIP3   OH237789   2.474   1.032   1.889  0.0409  0.6189  0.5524
 5385TIP3    H137790   2.512   0.999   1.970 -1.1182 -2.5131 -0.0731
 5385TIP3    H237791   2.384   1.054   1.912 -0.1048  0.3435  0.2399
 5386TIP3   OH237792   6.100   0.620   2.831  0.2803 -0.1555  0.8962
 5386TIP3    H137793   6.097   0.525   2.831 -0.0932 -0.2513 -2.2945
 5386TIP3    H237794   6.046   0.646   2.905 -2.1975 -2.4472  0.0353
 5387TIP3   OH237795   4.518   5.567   2.309 -0.3989 -0.2499  1.1066
 5387TIP3    H137796   4.480   5.651   2.334 -2.8458 -1.0797  0.4424
 5387TIP3    H237797   4.443   5.512   2.288  1.2091 -1.6981 -1.3963
 5388TIP3   OH237798   0.983   3.374   8.297  0.5573 -0.2257 -0.3692
 5388TIP3    H137799   0.909   3.340   8.246  0.9252 -1.1031 -0.3357
 5388TIP3    H237800   0.944   3.444   8.351  0.3489  1.3690 -2.4785
 5389TIP3   OH237801   1.338   6.616   8.392  0.2708  0.1620  0.1469
 5389TIP3    H137802   1.412   6.560   8.413  0.3213  0.0086 -0.4331
 5389TIP3    H237803   1.339   6.623   8.297 -0.7136 -0.1911  0.0967
 5390TIP3   OH237804   2.619   3.217   2.852  0.1652 -0.3571 -0.5926
 5390TIP3    H137805   2.652   3.296   2.808  1.4068 -1.1182 -1.0724
 5390TIP3    H237806   2.576   3.167   2.783  0.7189 -0.8093 -0.6153
 5391TIP3   OH237807   5.890   6.076   1.223 -0.2728 -0.3638  0.5069
 5391TIP3    H137808   5.803   6.070   1.184 -0.2907 -1.9160  0.7366
 5391TIP3    H237809   5.892   6.163   1.263 -1.4592 -0.0446 -0.0732
 5392TIP3   OH237810   2.358   1.560   2.220 -0.4159 -0.4442  0.2764
 5392TIP3    H137811   2.382   1.480   2.174  1.9736  0.3952 -0.0941
 5392TIP3    H237812   2.293   1.532   2.285  0.3978 -2.6770  0.2191
 5393TIP3   OH237813   2.122   4.158   1.368 -0.2171 -0.3869 -0.3701
 5393TIP3    H137814   2.153   4.121   1.451  2.7883 -0.8915 -1.5658
 5393TIP3    H237815   2.071   4.235   1.393  1.4404  0.0637  1.9458
 5394TIP3   OH237816   2.053   1.711   3.008 -0.1061 -0.3467 -0.0891
 5394TIP3    H137817   2.082   1.742   3.094  1.5779 -1.1975 -0.2982
 5394TIP3    H237818   1.958   1.701   3.016  0.1175 -1.1630  1.9195
 5395TIP3   OH237819   1.706   4.953   2.095  0.2762  0.0450 -0.4260
 5395TIP3    H137820   1.733   5.008   2.169  3.0902 -3.4773  1.5080
 5395TIP3    H237821   1.691   5.014   2.023  0.4911  3.4533  2.1994
 5396TIP3   OH237822   4.921   3.228   2.193 -0.0126  0.1835  0.1728
 5396TIP3    H137823   4.934   3.139   2.161 -1.4841 -0.1778  0.5195
 5396TIP3    H237824   4.923   3.219   2.289 -0.9300  0.3724  0.2227
 5397TIP3   OH237825   5.099   4.200   2.433  0.2955 -0.4304 -0.1782
 5397TIP3    H137826   5.075   4.153   2.513 -0.1868 -0.2299 -0.2070
 5397TIP3    H237827   5.130   4.285   2.463  2.7421 -1.3106  0.0142
 5398TIP3   OH237828   5.763   0.975   3.631  0.1519  0.5646  0.1372
 5398TIP3    H137829   5.681   1.021   3.641  0.6220  1.7654 -1.1818
 5398TIP3    H237830   5.769   0.919   3.709 -0.4496  2.6966  1.8256
 5399TIP3   OH237831   6.339   5.073   2.129 -0.5102 -0.0725 -0.0542
 5399TIP3    H137832   6.387   4.996   2.098 -1.1813 -1.0772  1.3056
 5399TIP3    H237833   6.405   5.143   2.131  0.1199 -0.5950 -1.2786
 5400TIP3   OH237834   2.868   4.532   0.421 -0.1326  0.5733 -0.3169
 5400TIP3    H137835   2.917   4.464   0.375  1.4859  1.1576  0.5033
 5400TIP3    H237836   2.872   4.506   0.513  1.0523  2.0720  0.0925
 5401TIP3   OH237837   5.041   0.673   8.719 -0.0703  0.0860  0.3251
 5401TIP3    H137838   4.994   0.684   8.802  0.0484 -1.0459  0.5663
 5401TIP3    H237839   4.993   0.604   8.674  0.0820  0.4404 -0.3973
 5402TIP3   OH237840   1.815   2.302   0.320 -0.1249 -0.3842  0.0937
 5402TIP3    H137841   1.825   2.239   0.248  0.5625  1.1886 -1.2647
 5402TIP3    H237842   1.722   2.325   0.318 -0.0346 -0.0625 -0.5520
 5403TIP3   OH237843   2.486   4.214   0.749 -0.0086  0.0393 -0.0280
 5403TIP3    H137844   2.486   4.124   0.780  1.8174  0.0530  0.1376
 5403TIP3    H237845   2.466   4.208   0.656 -0.1121 -0.5122  0.0266
 5404TIP3   OH237846   2.164   1.759   3.256  0.1143  0.4152  0.3454
 5404TIP3    H137847   2.229   1.828   3.244 -0.0747  0.3415 -1.3262
 5404TIP3    H237848   2.209   1.694   3.311  1.6899  0.1055 -1.2248
 5405TIP3   OH237849   1.700   5.476   0.011 -0.4105 -0.8734  0.0662
 5405TIP3    H137850   1.651   5.395   0.026  0.4963 -1.1088  1.9409
 5405TIP3    H237851   1.679   5.532   0.086  0.2794 -0.0067 -0.3677
 5406TIP3   OH237852   1.647   0.867   1.044  0.1090 -0.0291 -0.0553
 5406TIP3    H137853   1.589   0.793   1.025  0.1994 -0.0377 -0.3042
 5406TIP3    H237854   1.691   0.884   0.961  0.6018 -0.1419  0.1827
 5407TIP3   OH237855   0.749   2.689   2.008  0.2762 -0.4161  0.4745
 5407TIP3    H137856   0.691   2.614   2.022  0.1106 -0.2258  0.8338
 5407TIP3    H237857   0.729   2.720   1.920  0.0669 -0.5585  0.4722
 5408TIP3   OH237858   1.169   2.474   1.655  0.8387 -0.1542 -0.3537
 5408TIP3    H137859   1.080   2.478   1.688  1.2656  0.9699  0.7619
 5408TIP3    H237860   1.167   2.524   1.573  0.3972 -0.3696 -0.4758
 5409TIP3   OH237861   0.153   3.254   1.233  0.8516  0.1833 -0.4795
 5409TIP3    H137862   0.119   3.336   1.268 -0.3167  0.1692 -1.4853
 5409TIP3    H237863   0.136   3.189   1.301  1.7352  0.7393  0.3004
 5410TIP3   OH237864   5.221   1.998   0.441  0.2068 -0.1684 -0.1167
 5410TIP3    H137865   5.151   2.059   0.417 -0.4588 -0.2244  1.5168
 5410TIP3    H237866   5.293   2.018   0.382  0.5062  3.0993  1.1509
 5411TIP3   OH237867   0.337   0.232   1.062  0.2490 -0.0533  0.4224
 5411TIP3    H137868   0.298   0.216   0.977  1.8026  0.4911 -0.4253
 5411TIP3    H237869   0.351   0.145   1.099 -1.7996 -0.2756  0.8272
 5412TIP3   OH237870   1.901   6.763   2.128 -0.6835 -0.6741 -0.6382
 5412TIP3    H137871   1.848   6.689   2.098 -0.3487 -0.8736 -0.7437
 5412TIP3    H237872   1.956   6.727   2.197 -0.6215 -0.4893 -0.5910
 5413TIP3   OH237873   5.376   4.719   8.214  0.2321  0.2227  0.6493
 5413TIP3    H137874   5.470   4.713   8.227  0.2556 -0.4049  0.2202
 5413TIP3    H237875   5.339   4.705   8.302  0.5581  1.4214  0.9876
 5414TIP3   OH237876   4.479   2.330   3.049  0.5141 -0.1413 -0.8399
 5414TIP3    H137877   4.515   2.311   2.962  1.1951  1.1760 -0.8733
 5414TIP3    H237878   4.548   2.380   3.093  0.1654 -0.7546  0.4554
 5415TIP3   OH237879   3.217   6.714   3.595  0.5561  0.1619  0.1821
 5415TIP3    H137880   3.200   6.808   3.604 -0.1493  0.1651 -0.9534
 5415TIP3    H237881   3.279   6.694   3.666 -1.4284  0.8961  2.2572
 5416TIP3   OH237882   6.620   3.423   1.387  0.2917 -0.1627 -0.2032
 5416TIP3    H137883   6.655   3.463   1.466  0.9669  1.0877 -1.1045
 5416TIP3    H237884   6.525   3.420   1.402  0.3356  0.7629  0.3622
 5417TIP3   OH237885   6.577   4.048   1.703 -0.1894  0.3891  0.3221
 5417TIP3    H137886   6.540   4.055   1.615  0.3574  0.8031  0.1216
 5417TIP3    H237887   6.659   4.098   1.699 -0.1591  0.4114  1.0636
 5418TIP3   OH237888   3.589   4.371   8.614 -0.4062 -0.6794  0.1045
 5418TIP3    H137889   3.495   4.373   8.630 -0.4724 -2.4819  0.0966
 5418TIP3    H237890   3.597   4.345   8.522  0.1017 -0.9876  0.2324
 5419TIP3   OH237891   6.801   5.280   0.620  0.1862  0.2470 -0.0707
 5419TIP3    H137892   6.772   5.226   0.547 -0.0506  1.2037 -0.7105
 5419TIP3    H237893   6.721   5.296   0.671  0.5793 -1.5381  1.1986
 5420TIP3   OH237894   5.833   4.486   2.521  0.0474 -0.0840  0.2544
 5420TIP3    H137895   5.852   4.434   2.443  0.3614  0.4569 -0.0311
 5420TIP3    H237896   5.918   4.497   2.564 -0.0682 -0.0790  0.4822
 5421TIP3   OH237897   6.837   5.845   8.148 -0.5045  0.1278  0.3842
 5421TIP3    H137898   6.900   5.917   8.140  0.3314 -0.3900  1.8195
 5421TIP3    H237899   6.768   5.866   8.086  0.4972  1.3506 -0.3660
 5422TIP3   OH237900   1.660   5.124   1.882  0.0329 -0.7986 -0.2602
 5422TIP3    H137901   1.586   5.183   1.895  0.6862 -0.0519  0.1599
 5422TIP3    H237902   1.675   5.125   1.788 -1.1480 -1.7862 -0.4826
 5423TIP3   OH237903   3.983   3.025   0.922  0.5574 -0.6534 -0.7789
 5423TIP3    H137904   4.077   3.039   0.924  0.2940  1.1663  0.0090
 5423TIP3    H237905   3.971   2.953   0.859  2.4915 -1.2983 -0.4566
 5424TIP3   OH237906   0.126   2.165   1.231 -0.5052 -0.2689  0.1177
 5424TIP3    H137907   0.164   2.248   1.257 -0.1056 -0.5660  0.4989
 5424TIP3    H237908   0.170   2.143   1.148 -1.3020  0.3541 -0.4906
 5425TIP3   OH237909   0.256   2.971   3.764 -0.3679 -0.5334  0.3429
 5425TIP3    H137910   0.266   2.932   3.850  0.7307 -0.8313  0.0986
 5425TIP3    H237911   0.177   2.931   3.728 -1.4229  0.3589  1.5925
 5426TIP3   OH237912   4.586   4.989   1.350 -0.7875 -0.3654 -0.5477
 5426TIP3    H137913   4.517   5.050   1.376 -1.3795 -0.6910 -1.3207
 5426TIP3    H237914   4.663   5.018   1.398 -1.1465  0.7845 -0.6466
 5427TIP3   OH237915   0.607   2.226   0.646 -0.0932  0.1967 -0.5725
 5427TIP3    H137916   0.629   2.235   0.554 -1.3643  1.1419 -0.8055
 5427TIP3    H237917   0.607   2.316   0.679  0.6514 -0.1506  0.4379
 5428TIP3   OH237918   4.056   2.511   1.745 -0.1351  0.3763  0.1960
 5428TIP3    H137919   4.085   2.420   1.741  2.1659  1.0896 -2.2456
 5428TIP3    H237920   4.119   2.553   1.804 -1.2401  0.3976  1.3830
 5429TIP3   OH237921   2.607   2.605   8.485  0.1393 -0.1116  0.1870
 5429TIP3    H137922   2.668   2.666   8.527  0.1599  0.7633 -1.0529
 5429TIP3    H237923   2.582   2.649   8.403 -0.4206 -1.4566 -0.3917
 5430TIP3   OH237924   3.164   0.370   1.492 -0.2184 -0.2178 -0.1824
 5430TIP3    H137925   3.204   0.444   1.536 -1.9891  1.4746 -1.2723
 5430TIP3    H237926   3.236   0.328   1.445  1.1441 -0.3258  1.8722
 5431TIP3   OH237927   5.782   6.432   7.576  0.0489  0.0711  0.4511
 5431TIP3    H137928   5.794   6.337   7.584  2.6909  0.4384  2.4890
 5431TIP3    H237929   5.776   6.463   7.667 -0.0887  1.9200 -0.1415
 5432TIP3   OH237930   4.449   4.414   2.065  0.3271  0.5321  0.5466
 5432TIP3    H137931   4.372   4.357   2.062  0.1665  0.7775 -0.1392
 5432TIP3    H237932   4.444   4.466   1.984  2.0154 -0.5153 -0.2982
 5433TIP3   OH237933   1.563   6.057   8.538  0.7223  0.2108 -0.4957
 5433TIP3    H137934   1.612   6.107   8.473  3.4702 -2.2731 -0.5580
 5433TIP3    H237935   1.628   6.034   8.604 -0.0722 -3.8041 -0.8596
 5434TIP3   OH237936   5.145   1.556   3.042 -0.1792  0.1419  0.5546
 5434TIP3    H137937   5.098   1.609   3.106  0.0648 -0.4637  1.2429
 5434TIP3    H237938   5.230   1.600   3.032  0.4215 -0.6431  1.8854
 5435TIP3   OH237939   3.704   1.884   2.355  0.5088 -0.6390  0.2071
 5435TIP3    H137940   3.689   1.807   2.408 -1.8003  0.3262  1.1157
 5435TIP3    H237941   3.618   1.926   2.348  0.8624 -0.1180 -3.4226
 5436TIP3   OH237942   6.700   0.196   0.314  0.2240  0.0007  0.3726
 5436TIP3    H137943   6.751   0.159   0.242 -1.6785  0.4587 -1.3333
 5436TIP3    H237944   6.611   0.163   0.299 -0.3961  0.8211  2.0191
 5437TIP3   OH237945   5.314   3.800   2.835  0.1042 -0.3021  0.1753
 5437TIP3    H137946   5.325   3.868   2.767 -1.2765  0.5961  0.8007
 5437TIP3    H237947   5.301   3.719   2.785 -0.7048  0.3077 -0.6424
 5438TIP3   OH237948   1.682   6.835   3.991  0.0249  0.1141  0.1864
 5438TIP3    H137949   1.613   6.882   4.036  0.5146  1.3926 -0.3540
 5438TIP3    H237950   1.755   6.897   3.988  1.2540 -1.2411  0.8622
 5439TIP3   OH237951   3.452   0.620   0.613 -0.4574 -0.6053  0.4648
 5439TIP3    H137952   3.435   0.547   0.554 -0.2300  1.0740 -1.7954
 5439TIP3    H237953   3.541   0.604   0.645 -0.3231 -1.2057 -0.1733
 5440TIP3   OH237954   1.673   5.181   0.389  0.1759  0.4357 -0.3230
 5440TIP3    H137955   1.693   5.274   0.395  1.0303  0.2056  0.6493
 5440TIP3    H237956   1.630   5.160   0.473  0.9914 -0.2656 -0.0650
 5441TIP3   OH237957   1.817   0.610   3.136 -0.3955  0.2567 -0.8638
 5441TIP3    H137958   1.902   0.588   3.176 -1.3440 -1.0006  0.5798
 5441TIP3    H237959   1.770   0.658   3.204 -0.7706  1.1691 -1.7422
 5442TIP3   OH237960   1.718   2.105   1.304  0.6278  0.2599 -0.4268
 5442TIP3    H137961   1.763   2.030   1.343  0.0614 -0.0505 -0.3720
 5442TIP3    H237962   1.770   2.127   1.226  1.5091  0.5998  0.2355
 5443TIP3   OH237963   0.318   3.767   2.775  0.2290 -0.2306 -0.4437
 5443TIP3    H137964   0.357   3.681   2.759 -0.0228 -0.1911 -1.3009
 5443TIP3    H237965   0.318   3.775   2.871 -1.9505 -2.2516 -0.1663
 5444TIP3   OH237966   3.359   2.419   8.236  0.3722  0.0829 -0.3280
 5444TIP3    H137967   3.367   2.472   8.156 -0.4399  0.3779 -0.2242
 5444TIP3    H237968   3.298   2.468   8.291 -1.0500 -1.3393 -0.5545
 5445TIP3   OH237969   3.170   0.326   3.347 -0.4895  0.2068  0.0702
 5445TIP3    H137970   3.255   0.307   3.308 -0.6801 -1.8787  0.5918
 5445TIP3    H237971   3.185   0.324   3.441 -1.0836  0.0094  0.1674
 5446TIP3   OH237972   6.509   4.513   1.613 -0.3555  0.1239 -0.1323
 5446TIP3    H137973   6.576   4.576   1.586 -0.6239  0.2597 -0.4874
 5446TIP3    H237974   6.426   4.559   1.599 -0.5023  0.9739  2.8003
 5447TIP3   OH237975   0.805   5.137   3.076 -0.6588  0.2356 -0.0456
 5447TIP3    H137976   0.830   5.228   3.061 -1.1508  0.3443 -0.2207
 5447TIP3    H237977   0.775   5.105   2.991 -1.4181  0.2090  0.2264
 5448TIP3   OH237978   6.526   3.023   3.949 -0.3324 -0.2725 -0.4372
 5448TIP3    H137979   6.603   3.067   3.912  0.5426  0.7739  2.3733
 5448TIP3    H237980   6.554   2.932   3.962  1.1298  0.4550  2.1018
 5449TIP3   OH237981   2.950   4.417   2.844  0.2783 -0.2626 -0.3585
 5449TIP3    H137982   2.944   4.328   2.880 -0.9239 -0.1132 -0.1242
 5449TIP3    H237983   2.925   4.473   2.918  2.2327  0.3772 -0.1339
 5450TIP3   OH237984   1.642   4.625   3.234 -0.2820  0.5663 -0.7026
 5450TIP3    H137985   1.656   4.607   3.327  1.1913  0.3019 -0.9489
 5450TIP3    H237986   1.728   4.615   3.195 -0.6554  1.8351 -1.9186
 5451TIP3   OH237987   3.391   6.469   7.971  0.6179  0.1552 -0.6217
 5451TIP3    H137988   3.317   6.499   7.918 -0.4010  1.3024  1.3374
 5451TIP3    H237989   3.439   6.550   7.992  1.1192 -0.3013  0.0195
 5452TIP3   OH237990   2.815   6.318   0.196  0.1186 -0.1747  0.0599
 5452TIP3    H137991   2.814   6.316   0.291 -0.8985  0.7614  0.0875
 5452TIP3    H237992   2.736   6.268   0.171  0.3514 -0.3708 -0.2911
 5453TIP3   OH237993   1.776   0.222   8.330  0.4614 -0.1302 -0.5272
 5453TIP3    H137994   1.701   0.163   8.333  1.2656 -1.1376  0.3532
 5453TIP3    H237995   1.778   0.253   8.239  0.0400 -1.5031 -1.0280
 5454TIP3   OH237996   3.576   2.316   4.072 -0.3161 -0.3501 -0.0749
 5454TIP3    H137997   3.583   2.291   3.980 -0.6247  1.3152 -0.5884
 5454TIP3    H237998   3.658   2.287   4.111  0.3889  0.0964 -1.1852
 5455TIP3   OH237999   6.243   1.947   8.218 -0.2277  0.1357 -0.2021
 5455TIP3    H138000   6.162   1.944   8.168 -1.0139 -0.6040  1.0394
 5455TIP3    H238001   6.215   1.937   8.309  1.1650  1.1799  0.3751
 5456TIP3   OH238002   5.391   0.269   1.900 -0.6432  0.0968 -0.2695
 5456TIP3    H138003   5.384   0.325   1.978 -1.6328 -2.4255  1.6043
 5456TIP3    H238004   5.483   0.241   1.899 -0.4463  0.7312 -0.4823
 5457TIP3   OH238005   2.084   5.557   3.471 -0.3853 -0.4830 -0.1646
 5457TIP3    H138006   2.129   5.641   3.471 -0.5315 -0.3883  1.0104
 5457TIP3    H238007   2.153   5.493   3.492 -0.2281 -0.7084 -1.2662
 5458TIP3   OH238008   0.889   1.566   2.567  0.3428 -0.2927  0.1770
 5458TIP3    H138009   0.941   1.634   2.610  0.0946  0.4893 -0.7039
 5458TIP3    H238010   0.819   1.614   2.523  0.8660 -0.9667 -1.4972
 5459TIP3   OH238011   6.263   0.956   1.886 -0.4563  0.3647 -0.9706
 5459TIP3    H138012   6.301   0.948   1.798  1.3887 -1.4326 -0.1302
 5459TIP3    H238013   6.227   0.869   1.904 -3.0508  1.3862 -0.8115
 5460TIP3   OH238014   1.014   0.199   1.257 -0.0468 -0.2742 -0.3250
 5460TIP3    H138015   0.981   0.165   1.341 -2.1131  0.6125 -0.6992
 5460TIP3    H238016   1.055   0.123   1.215 -0.0018 -1.0198  0.9895
 5461TIP3   OH238017   5.482   3.109   3.661  0.1869 -0.2220  0.0155
 5461TIP3    H138018   5.475   3.147   3.749  0.2344 -0.5467  0.1593
 5461TIP3    H238019   5.574   3.087   3.652 -0.2283 -2.6742  0.9328
 5462TIP3   OH238020   5.370   3.061   0.602  0.4801  0.0771  0.5301
 5462TIP3    H138021   5.328   3.114   0.534 -1.7090 -0.2264  1.5350
 5462TIP3    H238022   5.414   2.991   0.554 -0.9469 -0.0900 -0.6087
 5463TIP3   OH238023   1.296   6.574   3.417 -0.4361 -0.7046  0.0493
 5463TIP3    H138024   1.215   6.525   3.433 -0.0181 -1.2686  0.5022
 5463TIP3    H238025   1.365   6.507   3.418 -0.0391 -0.3412 -1.0830
 5464TIP3   OH238026   4.194   1.976   0.855  0.3557  0.5733 -0.2566
 5464TIP3    H138027   4.216   1.978   0.762  0.6489 -0.2549 -0.2133
 5464TIP3    H238028   4.215   2.064   0.886  0.3188  0.8368 -0.9555
 5465TIP3   OH238029   0.886   1.624   1.227 -0.4469 -0.0762  0.1809
 5465TIP3    H138030   0.898   1.681   1.303 -0.9835  1.5801 -0.9186
 5465TIP3    H238031   0.975   1.608   1.196 -0.2821  0.0504  0.5788
 5466TIP3   OH238032   2.117   5.181   8.316 -0.5847  0.0143 -0.1742
 5466TIP3    H138033   2.174   5.106   8.331  0.6275  0.7331 -0.9783
 5466TIP3    H238034   2.162   5.233   8.250 -1.2310  1.6222  0.5767
 5467TIP3   OH238035   0.811   4.971   2.153 -0.3894  0.1406 -0.3553
 5467TIP3    H138036   0.852   5.036   2.096 -0.5849  0.6674  0.1001
 5467TIP3    H238037   0.767   4.910   2.093  1.2526 -0.5966 -0.8887
 5468TIP3   OH238038   4.339   2.702   1.551 -0.0918  0.1960 -0.4441
 5468TIP3    H138039   4.381   2.641   1.611  1.0001  0.2485 -1.1205
 5468TIP3    H238040   4.245   2.685   1.560  0.1790 -1.4533 -0.5047
 5469TIP3   OH238041   4.837   5.396   3.467 -0.1206 -0.0999 -0.0217
 5469TIP3    H138042   4.778   5.436   3.530  1.4002  0.5823  1.0279
 5469TIP3    H238043   4.924   5.404   3.506  0.6345 -1.5018 -1.2880
 5470TIP3   OH238044   4.459   3.994   2.974 -0.0599  0.9643 -0.3802
 5470TIP3    H138045   4.492   4.040   2.896 -0.5042 -1.1372 -1.9001
 5470TIP3    H238046   4.537   3.963   3.019  0.1691  1.0665 -0.7037
 5471TIP3   OH238047   4.628   6.557   1.739 -0.3728  0.2942 -0.3192
 5471TIP3    H138048   4.618   6.637   1.791  1.5271  1.3030 -1.3988
 5471TIP3    H238049   4.614   6.486   1.802 -0.3506  1.4786  1.0827
 5472TIP3   OH238050   3.498   2.964   1.667 -0.0239 -0.2298 -0.0643
 5472TIP3    H138051   3.573   2.919   1.629 -0.5214 -1.6272  0.5265
 5472TIP3    H238052   3.446   2.992   1.592  1.8247  2.1612 -0.5360
 5473TIP3   OH238053   5.674   1.310   0.429  0.6665  0.2362 -0.5021
 5473TIP3    H138054   5.742   1.255   0.468 -0.7992 -0.9051  0.5534
 5473TIP3    H238055   5.636   1.256   0.360  1.5346  1.2907 -1.8489
 5474TIP3   OH238056   4.390   1.904   0.133 -0.2030 -0.0780  0.2977
 5474TIP3    H138057   4.416   1.957   0.209  1.6254 -1.1845  0.5246
 5474TIP3    H238058   4.329   1.839   0.169 -1.0150  0.7196  0.3784
 5475TIP3   OH238059   0.252   2.691   0.499 -0.2433  0.4630 -0.6747
 5475TIP3    H138060   0.249   2.614   0.555 -1.1031  0.4078 -0.7821
 5475TIP3    H238061   0.269   2.764   0.558 -1.2746  0.4219 -0.3061
 5476TIP3   OH238062   3.798   6.299   0.856  0.3279 -0.3731 -0.1895
 5476TIP3    H138063   3.828   6.382   0.819 -0.1720  0.4145  1.0833
 5476TIP3    H238064   3.819   6.306   0.950 -1.6651 -0.7594  0.3305
 5477TIP3   OH238065   3.147   1.505   1.846 -0.0435  0.8912 -0.0981
 5477TIP3    H138066   3.066   1.512   1.796  0.6437  0.1765 -1.3421
 5477TIP3    H238067   3.195   1.434   1.805  1.3181  1.4407  0.4830
 5478TIP3   OH238068   6.130   6.343   1.435 -0.0089 -0.0198  0.3039
 5478TIP3    H138069   6.167   6.262   1.399 -0.9580 -1.0776  1.6300
 5478TIP3    H238070   6.038   6.341   1.408  0.1367  1.0785 -0.3746
 5479TIP3   OH238071   5.643   4.302   1.467  0.2129  0.0769 -0.4737
 5479TIP3    H138072   5.705   4.277   1.536 -0.3520  0.3042  0.1250
 5479TIP3    H238073   5.690   4.285   1.385  1.3105  0.8544 -0.0264
 5480TIP3   OH238074   5.589   3.358   0.004  0.0668 -0.6320 -0.6850
 5480TIP3    H138075   5.600   3.444  -0.034 -2.4803 -0.0127 -0.1991
 5480TIP3    H238076   5.571   3.375   0.097 -2.2181 -1.4982 -0.9070
 5481TIP3   OH238077   0.917   2.408   1.728  0.8193 -0.1162 -0.2001
 5481TIP3    H138078   0.843   2.387   1.672 -1.8616 -0.5890  3.1468
 5481TIP3    H238079   0.935   2.326   1.775  0.2165  1.0935  2.3549
 5482TIP3   OH238080   5.260   1.319   3.538 -0.4271 -0.0699  0.1905
 5482TIP3    H138081   5.211   1.347   3.461  2.1398  1.3602 -1.0479
 5482TIP3    H238082   5.194   1.314   3.607 -2.5774  0.0253 -1.7214
 5483TIP3   OH238083   0.471   4.083   2.974  0.1859  0.0991 -0.2647
 5483TIP3    H138084   0.452   3.999   2.932  1.8367 -0.8121  0.7184
 5483TIP3    H238085   0.564   4.099   2.957  0.3211  0.8569  1.0403
 5484TIP3   OH238086   2.203   6.864   1.543  0.0094 -0.3553 -0.7421
 5484TIP3    H138087   2.295   6.841   1.527  0.4409 -0.5221  1.6127
 5484TIP3    H238088   2.154   6.788   1.513  0.6990 -0.6555 -1.1567
 5485TIP3   OH238089   5.908   3.682   8.456  0.2690 -0.2942  0.1543
 5485TIP3    H138090   5.824   3.725   8.472  0.4555  0.1150  0.0640
 5485TIP3    H238091   5.932   3.709   8.367  1.3577  1.0872  0.8265
 5486TIP3   OH238092   1.203   5.899   3.123 -0.3168  0.0203 -0.4035
 5486TIP3    H138093   1.185   5.975   3.178  0.4718  0.6191 -0.9411
 5486TIP3    H238094   1.286   5.920   3.080 -1.3112 -0.0204 -2.4865
 5487TIP3   OH238095   5.886   6.175   1.571 -0.3213 -0.4422 -0.0064
 5487TIP3    H138096   5.968   6.126   1.569 -0.3750 -0.5860  1.1205
 5487TIP3    H238097   5.907   6.258   1.615 -0.5897 -0.1109 -0.4856
 5488TIP3   OH238098   4.619   3.457   3.074  0.5787  0.3837 -0.4249
 5488TIP3    H138099   4.548   3.404   3.111  1.3064 -0.1902  0.1869
 5488TIP3    H238100   4.575   3.514   3.010 -0.3723 -0.2279 -0.3496
 5489TIP3   OH238101   4.747   4.924   3.554 -0.2648 -0.0407 -0.1772
 5489TIP3    H138102   4.767   4.864   3.626 -0.5004  0.3458  0.2145
 5489TIP3    H238103   4.787   5.007   3.580  1.3165 -0.3722 -1.3735
 5490TIP3   OH238104   2.127   3.337   1.788 -0.0133 -0.0426 -0.6657
 5490TIP3    H138105   2.191   3.335   1.858 -0.0396  0.1210 -0.6352
 5490TIP3    H238106   2.121   3.247   1.757 -0.2201 -0.1733 -0.2575
 5491TIP3   OH238107   2.693   4.672   1.460 -0.1457 -0.5018  0.4912
 5491TIP3    H138108   2.725   4.609   1.396 -0.0742 -2.1007  2.0224
 5491TIP3    H238109   2.606   4.640   1.483  0.3764 -0.7905  2.1878
 5492TIP3   OH238110   6.070   5.055   2.054 -0.4045  0.1687 -0.2546
 5492TIP3    H138111   6.013   5.099   2.118  0.8077 -0.6375  1.4280
 5492TIP3    H238112   6.159   5.076   2.082  0.1755 -1.1021 -1.0432
 5493TIP3   OH238113   5.923   0.995   0.185  0.0351  0.1809 -0.1968
 5493TIP3    H138114   5.948   1.063   0.248 -1.7089 -1.0638  1.9721
 5493TIP3    H238115   5.853   1.034   0.134  0.2376  0.5999 -0.1598
 5494TIP3   OH238116   1.824   3.536   0.251  0.3307 -0.7181  0.3655
 5494TIP3    H138117   1.810   3.603   0.318  0.8442 -1.2847  1.0628
 5494TIP3    H238118   1.898   3.485   0.285  1.4216 -0.2699 -1.2216
 5495TIP3   OH238119   5.383   3.502   3.577 -0.1011  0.1084 -0.1697
 5495TIP3    H138120   5.431   3.435   3.529  1.4859  1.4314 -0.5190
 5495TIP3    H238121   5.435   3.515   3.657 -2.9787 -2.4831  2.4132
 5496TIP3   OH238122   6.442   5.805   3.522 -0.1684  0.4546 -0.2348
 5496TIP3    H138123   6.414   5.881   3.573 -0.1156  0.5398 -0.3325
 5496TIP3    H238124   6.462   5.841   3.436  0.6348  0.4612 -0.0505
 5497TIP3   OH238125   2.264   1.881   3.835 -0.9059  0.3485 -0.5191
 5497TIP3    H138126   2.341   1.854   3.885  0.1487  1.9406 -1.2226
 5497TIP3    H238127   2.241   1.966   3.871 -2.0985  0.0947 -0.6260
 5498TIP3   OH238128   3.418   1.936   2.377 -0.0825 -0.3416 -0.0629
 5498TIP3    H138129   3.381   1.935   2.289 -0.3570  0.1061  0.0453
 5498TIP3    H238130   3.373   2.008   2.421  0.3153 -0.3316  0.3303
 5499TIP3   OH238131   4.074   5.012   8.690  0.0779 -0.1946  0.3454
 5499TIP3    H138132   4.014   4.939   8.677 -1.3740  0.9778  0.2360
 5499TIP3    H238133   4.098   5.040   8.602  0.4610 -0.3852  0.3854
 5500TIP3   OH238134   0.148   6.088   8.709 -0.0902  0.1064 -0.1266
 5500TIP3    H138135   0.231   6.113   8.669  0.2693 -2.4288 -1.1732
 5500TIP3    H238136   0.085   6.092   8.638 -0.0772 -1.4615 -0.2637
 5501TIP3   OH238137   2.576   2.865   3.635 -0.0649  0.4164  0.4603
 5501TIP3    H138138   2.518   2.934   3.668  0.5384  0.8720  0.5803
 5501TIP3    H238139   2.657   2.875   3.685 -0.1070 -0.6457  0.7676
 5502TIP3   OH238140   1.218   0.369   1.375  0.2960  0.7871  0.3460
 5502TIP3    H138141   1.177   0.450   1.407 -1.6725 -0.0322  0.0446
 5502TIP3    H238142   1.146   0.321   1.333  1.7259 -0.4639 -0.7967
 5503TIP3   OH238143   1.727   5.219   1.614  0.4317 -0.1418  0.1081
 5503TIP3    H138144   1.821   5.211   1.600  0.2108 -1.0617 -0.9522
 5503TIP3    H238145   1.712   5.313   1.627  1.6271 -0.1139  1.4032
 5504TIP3   OH238146   5.245   5.634   4.249  0.0824 -0.0387  0.8350
 5504TIP3    H138147   5.285   5.556   4.211 -0.0049  0.5354 -0.5224
 5504TIP3    H238148   5.152   5.611   4.260  0.1308 -0.2513  0.7988
 5505TIP3   OH238149   2.860   3.462   2.885  0.2347 -0.1014 -0.5138
 5505TIP3    H138150   2.794   3.459   2.815 -0.7171  0.4651  0.3325
 5505TIP3    H238151   2.814   3.501   2.959  0.9531 -1.5418  0.7387
 5506TIP3   OH238152   6.292   2.885   8.203 -0.1547  0.8469 -0.8291
 5506TIP3    H138153   6.233   2.942   8.252 -0.9424  0.4931 -1.3532
 5506TIP3    H238154   6.357   2.856   8.267 -1.0309  0.5866 -0.0464
 5507TIP3   OH238155   3.914   1.952   0.394 -0.2574 -0.4648 -0.0297
 5507TIP3    H138156   3.998   1.921   0.428  0.5474 -0.3670 -1.7855
 5507TIP3    H238157   3.881   2.012   0.461  1.3363 -0.1097  0.4850
 5508TIP3   OH238158   4.572   1.181   0.743 -0.1746  0.1707 -0.3915
 5508TIP3    H138159   4.643   1.226   0.790  0.1378 -0.1738 -0.5312
 5508TIP3    H238160   4.541   1.246   0.680 -0.1754  0.4222 -0.1337
 5509TIP3   OH238161   4.899   6.082   2.775  0.3277 -0.3461  0.0937
 5509TIP3    H138162   4.890   5.988   2.759  0.7585 -0.6113  1.3277
 5509TIP3    H238163   4.816   6.108   2.815  1.0000 -0.6616  1.7588
 5510TIP3   OH238164   6.239   0.941   2.260 -0.0383  0.3308 -0.3002
 5510TIP3    H138165   6.332   0.942   2.236 -0.3227 -0.5960 -1.5105
 5510TIP3    H238166   6.197   0.994   2.193 -0.4093  0.6074  0.1502
 5511TIP3   OH238167   4.179   5.725   1.053  0.1228  0.1515  0.0432
 5511TIP3    H138168   4.195   5.703   1.145 -0.9408 -0.7028  0.0343
 5511TIP3    H238169   4.180   5.641   1.007  1.1001  0.6079 -0.8213
 5512TIP3   OH238170   3.377   3.905   0.217  0.3797  0.0831 -0.2708
 5512TIP3    H138171   3.464   3.946   0.214 -0.6103  2.2484 -1.7760
 5512TIP3    H238172   3.378   3.840   0.147  1.4068 -1.3941  1.0456
 5513TIP3   OH238173   1.094   2.840   3.210 -0.1449 -0.1645  0.0747
 5513TIP3    H138174   1.139   2.826   3.293  0.1968 -0.7055 -0.1979
 5513TIP3    H238175   1.122   2.767   3.154 -2.2340 -1.1865  0.2612
 5514TIP3   OH238176   4.943   4.175   0.448 -0.5873 -0.1601 -0.4173
 5514TIP3    H138177   4.872   4.159   0.510  0.7587  1.2769  1.6198
 5514TIP3    H238178   4.984   4.089   0.437 -0.2112 -0.2943  1.5802
 5515TIP3   OH238179   5.271   6.785   0.794  0.4687  0.2224  0.2309
 5515TIP3    H138180   5.257   6.696   0.762 -0.5637  0.3639  0.2423
 5515TIP3    H238181   5.309   6.832   0.720 -0.2151  0.0942 -0.2124
 5516TIP3   OH238182   2.887   5.736   0.404  0.4637  0.2762 -0.1338
 5516TIP3    H138183   2.919   5.703   0.488 -0.6969 -1.0186 -0.1748
 5516TIP3    H238184   2.946   5.808   0.383  1.0293  0.3495  1.5820
 5517TIP3   OH238185   0.450   0.865   2.773 -0.3520  0.0528 -0.0347
 5517TIP3    H138186   0.510   0.828   2.838  0.2126 -1.7341 -1.4634
 5517TIP3    H238187   0.425   0.790   2.719  0.6281  1.6630 -2.9630
 5518TIP3   OH238188   5.397   4.464   1.382  0.6815  0.3189  0.2291
 5518TIP3    H138189   5.436   4.401   1.321  0.9516  0.0691  0.6577
 5518TIP3    H238190   5.451   4.458   1.460  0.2485  0.5341  0.5455
 5519TIP3   OH238191   6.120   5.013   0.368  0.1281 -0.1338  0.3381
 5519TIP3    H138192   6.040   5.018   0.419  0.4691  0.3311  0.8318
 5519TIP3    H238193   6.141   5.103   0.346  0.4067 -0.2694  0.0374
 5520TIP3   OH238194   1.449   6.542   0.529 -0.2356  0.1415  0.1596
 5520TIP3    H138195   1.449   6.608   0.459  2.0080  0.3794  0.3068
 5520TIP3    H238196   1.496   6.584   0.601 -1.1097 -0.6814  1.2340
 5521TIP3   OH238197   5.814   3.624   2.452 -0.3525 -0.0183 -0.1760
 5521TIP3    H138198   5.796   3.707   2.496  1.3126 -0.3678  1.2714
 5521TIP3    H238199   5.873   3.648   2.380  1.9690 -0.0944  1.5585
 5522TIP3   OH238200   4.191   1.600   0.662 -0.5855  0.3341 -0.3534
 5522TIP3    H138201   4.277   1.641   0.664  0.4379 -1.6891 -0.3854
 5522TIP3    H238202   4.157   1.612   0.751 -0.0238  0.6636 -0.1778
 5523TIP3   OH238203   6.552   5.358   0.729  0.6708 -0.1799  0.6786
 5523TIP3    H138204   6.502   5.365   0.810  0.5255  1.5716  0.4742
 5523TIP3    H238205   6.577   5.448   0.709  2.8007 -0.8527  0.0795
 5524TIP3   OH238206   5.010   3.344   8.044 -0.4838 -0.1713  0.0833
 5524TIP3    H138207   4.969   3.431   8.049  0.6163  0.3516  0.6131
 5524TIP3    H238208   5.016   3.326   7.950 -0.6365  0.3804 -0.0410
 5525TIP3   OH238209   3.483   6.786   2.784 -0.2565 -0.0414 -0.4052
 5525TIP3    H138210   3.501   6.705   2.832 -0.1829 -0.2250 -0.7394
 5525TIP3    H238211   3.427   6.759   2.712  2.1536 -0.3371 -2.2842
 5526TIP3   OH238212   4.042   5.323   1.425 -0.0010 -0.2550 -0.3456
 5526TIP3    H138213   3.947   5.324   1.435 -0.1721 -0.8372 -1.6220
 5526TIP3    H238214   4.076   5.328   1.514 -1.1946  1.7744  0.0428
 5527TIP3   OH238215   3.361   6.530   0.074 -0.0030 -0.5686 -0.3961
 5527TIP3    H138216   3.341   6.565  -0.013  1.8982 -2.2106 -1.5751
 5527TIP3    H238217   3.356   6.606   0.132 -2.4982  0.3669 -1.6604
 5528TIP3   OH238218   2.892   6.382   8.485  0.1756  0.0414 -0.1027
 5528TIP3    H138219   2.984   6.395   8.510  0.2008  0.3428 -0.3487
 5528TIP3    H238220   2.855   6.330   8.556  1.2014 -2.4127 -1.2575
 5529TIP3   OH238221   1.259   1.236   1.680  0.7045  0.3665  0.1580
 5529TIP3    H138222   1.308   1.215   1.601 -1.9175 -0.9335 -1.2650
 5529TIP3    H238223   1.180   1.182   1.675 -2.4886  4.4353  0.5884
 5530TIP3   OH238224   0.903   6.429   0.948  0.3430  0.3146  0.1952
 5530TIP3    H138225   0.904   6.335   0.966  1.2183  0.4729  1.0876
 5530TIP3    H238226   0.842   6.465   1.013 -0.9012  0.2522 -0.8957
 5531TIP3   OH238227   6.811   1.478   3.414 -0.1066  0.0504 -0.6032
 5531TIP3    H138228   6.810   1.572   3.426 -0.3965  0.3152 -2.3533
 5531TIP3    H238229   6.746   1.444   3.475  0.3678  0.9075  0.4051
 5532TIP3   OH238230   4.447   2.062   0.334  0.7259 -0.0659 -0.1794
 5532TIP3    H138231   4.391   2.059   0.411 -0.3522 -0.3442 -0.9571
 5532TIP3    H238232   4.443   2.153   0.304 -0.0352 -0.2777 -0.7455
 5533TIP3   OH238233   2.780   5.667   1.209  0.1639  0.0669 -0.2151
 5533TIP3    H138234   2.833   5.682   1.288  1.0470 -0.8332 -0.6224
 5533TIP3    H238235   2.691   5.654   1.242  0.8856 -2.7456  0.9088
 5534TIP3   OH238236   6.638   4.769   3.229  0.3695  0.0329  0.1641
 5534TIP3    H138237   6.716   4.772   3.284  1.1209 -0.2430 -0.8495
 5534TIP3    H238238   6.624   4.859   3.202 -1.0143  0.4622  2.1343
 5535TIP3   OH238239   2.357   0.108   2.944 -0.1482 -0.1877  0.1265
 5535TIP3    H138240   2.432   0.160   2.973 -1.1150  1.4881 -0.2488
 5535TIP3    H238241   2.321   0.158   2.871 -0.6222 -1.8535 -0.8194
 5536TIP3   OH238242   6.694   3.400   1.679 -0.1574 -0.2422 -0.2072
 5536TIP3    H138243   6.784   3.411   1.647  0.1861  1.5524  1.1946
 5536TIP3    H238244   6.695   3.438   1.767 -1.9704 -1.4813  0.4184
 5537TIP3   OH238245   5.486   1.757   8.584  0.2682  0.3062  0.3266
 5537TIP3    H138246   5.405   1.774   8.632  0.1363 -0.5171  0.4102
 5537TIP3    H238247   5.460   1.697   8.515  0.8893 -0.2881  0.6031
 5538TIP3   OH238248   2.232   6.596   8.521  0.5982  0.1054  0.0817
 5538TIP3    H138249   2.232   6.522   8.461 -0.2630  0.1569  0.0079
 5538TIP3    H238250   2.153   6.585   8.573  1.8910 -0.5821  2.0161
 5539TIP3   OH238251   6.702   5.392   1.144  0.7247  0.7098  0.1258
 5539TIP3    H138252   6.691   5.475   1.097  0.2043  1.1528  1.0050
 5539TIP3    H238253   6.721   5.328   1.076 -3.0291  0.6901 -1.1264
 5540TIP3   OH238254   2.140   6.269   2.276 -0.0091 -0.1136 -0.4045
 5540TIP3    H138255   2.153   6.214   2.353  1.5984  2.1658  1.1024
 5540TIP3    H238256   2.222   6.262   2.228  0.4902  1.3784  0.1621
 5541TIP3   OH238257   4.993   1.998   8.536 -1.0030  0.0096  0.3806
 5541TIP3    H138258   5.010   2.040   8.452  0.1552 -1.2892 -0.0698
 5541TIP3    H238259   4.984   2.071   8.598  0.8299  0.9489 -0.3880
 5542TIP3   OH238260   3.560   2.394   0.559 -0.1379 -0.5484  0.4237
 5542TIP3    H138261   3.631   2.410   0.496 -0.8413  1.1834  0.0391
 5542TIP3    H238262   3.480   2.412   0.510 -0.7828 -0.9794  1.3069
 5543TIP3   OH238263   1.645   1.076   3.592  0.3517  0.0076  0.3315
 5543TIP3    H138264   1.552   1.096   3.602 -0.4258 -1.8592 -2.2852
 5543TIP3    H238265   1.665   1.099   3.502  2.4640  0.2987  0.8210
 5544TIP3   OH238266   0.605   1.451   3.626 -0.0636  0.0470 -0.1510
 5544TIP3    H138267   0.672   1.412   3.570  0.4184 -1.7940  1.5604
 5544TIP3    H238268   0.641   1.536   3.651  1.1625 -0.4684 -0.1070
 5545TIP3   OH238269   3.239   6.609   0.594  0.4231 -0.7136  0.5161
 5545TIP3    H138270   3.189   6.537   0.630 -2.2606 -2.1650 -4.9998
 5545TIP3    H238271   3.184   6.686   0.605 -1.1350 -1.4482 -1.4660
 5546TIP3   OH238272   2.829   5.517   2.519  0.2759 -0.3313 -0.2087
 5546TIP3    H138273   2.898   5.474   2.469 -0.1713 -1.3334  0.0143
 5546TIP3    H238274   2.806   5.454   2.588  1.2293  1.2049  1.6097
 5547TIP3   OH238275   3.579   2.291   2.252 -0.2543  0.4300  0.0283
 5547TIP3    H138276   3.665   2.278   2.292 -0.4555  0.1970  0.3962
 5547TIP3    H238277   3.582   2.380   2.218 -0.1024  0.6648  0.6441
 5548TIP3   OH238278   2.542   5.762   8.694 -0.0004 -0.3296  0.4395
 5548TIP3    H138279   2.520   5.853   8.712 -0.4998 -0.0897 -1.1791
 5548TIP3    H238280   2.586   5.731   8.773 -1.7810  0.6430  1.8949
 5549TIP3   OH238281   2.068   2.512   8.252 -0.0666  0.4191 -0.1849
 5549TIP3    H138282   2.154   2.555   8.246  0.0864 -0.0176 -1.2356
 5549TIP3    H238283   2.077   2.452   8.326  1.5094 -1.6872 -1.9402
 5550TIP3   OH238284   0.270   0.829   0.101 -0.0716 -0.6510 -0.1478
 5550TIP3    H138285   0.334   0.873   0.158 -0.9459  1.2381 -0.5516
 5550TIP3    H238286   0.230   0.762   0.157  0.1524  0.1569  1.0153
 5551TIP3   OH238287   5.073   3.498   1.918  0.0580  0.0901  0.0796
 5551TIP3    H138288   5.151   3.533   1.876 -2.2251  2.5402 -2.5756
 5551TIP3    H238289   5.050   3.421   1.866 -0.3357  0.5486 -0.4458
 5552TIP3   OH238290   3.318   1.422   8.279  0.1366  0.2402 -0.0025
 5552TIP3    H138291   3.323   1.486   8.349  2.3978  1.2525 -0.9749
 5552TIP3    H238292   3.383   1.356   8.302 -1.1477 -0.9702  0.2610
 5553TIP3   OH238293   2.393   4.364   2.574 -0.2799  0.1172  0.1523
 5553TIP3    H138294   2.363   4.303   2.641  1.2222 -0.9731 -0.1267
 5553TIP3    H238295   2.480   4.391   2.603  0.0321  0.3155 -0.9207
 5554TIP3   OH238296   3.554   5.166   1.678  0.0713  0.2161  0.0314
 5554TIP3    H138297   3.477   5.216   1.653 -0.2231 -1.1925 -2.1171
 5554TIP3    H238298   3.551   5.087   1.624  2.1015 -0.7205  1.1398
 5555TIP3   OH238299   1.885   2.952   2.665 -0.0317 -0.1734  0.4735
 5555TIP3    H138300   1.886   2.954   2.761  0.8504  1.7774  0.4801
 5555TIP3    H238301   1.794   2.931   2.642 -0.0813 -1.4715  1.7038
 5556TIP3   OH238302   5.293   5.215   3.972  0.4091 -0.1181 -0.1361
 5556TIP3    H138303   5.214   5.188   3.926  0.9629 -1.8923 -0.1119
 5556TIP3    H238304   5.355   5.143   3.959  2.3087  1.5248 -0.7915
 5557TIP3   OH238305   3.844   2.731   8.446  0.1071  0.4054 -0.0199
 5557TIP3    H138306   3.880   2.817   8.426 -2.0693  0.9865 -1.9401
 5557TIP3    H238307   3.903   2.669   8.403  1.2201  0.9656  0.6668
 5558TIP3   OH238308   5.154   2.056   0.150  0.2040  0.8581  0.5225
 5558TIP3    H138309   5.111   2.103   0.079 -0.1025 -1.1789 -0.7342
 5558TIP3    H238310   5.086   1.996   0.182  1.5499 -1.3189 -0.4527
 5559TIP3   OH238311   5.395   5.213   2.741  0.3163  0.0463 -0.1452
 5559TIP3    H138312   5.448   5.134   2.754 -1.3747 -1.2377 -0.7321
 5559TIP3    H238313   5.419   5.244   2.653  0.9393  0.1734  0.0630
 5560TIP3   OH238314   2.928   5.538   0.681  0.3341 -0.9262  0.3065
 5560TIP3    H138315   2.887   5.526   0.766  1.9113 -1.7554  1.0001
 5560TIP3    H238316   2.982   5.617   0.692 -1.5384  0.6201 -0.8299
 5561TIP3   OH238317   5.757   5.609   1.549 -0.2200 -0.2014 -0.2221
 5561TIP3    H138318   5.706   5.634   1.626 -1.1498  1.4759 -1.3083
 5561TIP3    H238319   5.729   5.520   1.528 -0.3862 -0.4517  1.0148
 5562TIP3   OH238320   4.889   3.272   1.730  0.2847 -0.2170 -0.1919
 5562TIP3    H138321   4.904   3.295   1.822  1.9110 -0.8631 -0.2655
 5562TIP3    H238322   4.976   3.276   1.690 -0.2550 -0.9163 -1.4747
 5563TIP3   OH238323   3.718   1.861   0.721  0.4019  0.1889 -0.3139
 5563TIP3    H138324   3.637   1.826   0.683  0.8765 -2.1015  0.6252
 5563TIP3    H238325   3.729   1.946   0.680 -0.8829 -0.7272 -2.7461
 5564TIP3   OH238326   6.011   2.957   1.535 -0.4747  0.2470 -0.1849
 5564TIP3    H138327   5.923   2.923   1.517  0.2433 -1.8709 -0.0167
 5564TIP3    H238328   6.065   2.878   1.545  1.6004  1.4831 -1.0101
 5565TIP3   OH238329   3.650   6.462   0.312  0.0366 -0.0628 -0.1173
 5565TIP3    H138330   3.651   6.372   0.342  2.3915  0.1759  0.6609
 5565TIP3    H238331   3.694   6.460   0.227 -0.5198  0.2731 -0.4250
 5566TIP3   OH238332   0.817   4.800   3.534  0.1054  0.4000 -0.2134
 5566TIP3    H138333   0.776   4.759   3.609  0.0576  1.9250  0.6456
 5566TIP3    H238334   0.807   4.894   3.550  1.5858  0.7830 -1.2814
 5567TIP3   OH238335   1.514   5.123   0.648 -0.4668  0.1258 -0.0827
 5567TIP3    H138336   1.538   5.049   0.703  1.1555  0.1548 -0.6964
 5567TIP3    H238337   1.452   5.088   0.585 -0.3738 -0.4996  0.1702
 5568TIP3   OH238338   6.795   3.151   0.274  0.1485  0.2379  0.2727
 5568TIP3    H138339   6.750   3.193   0.347 -1.0651 -1.2442  0.4463
 5568TIP3    H238340   6.735   3.160   0.200  0.5482  0.1619 -0.0626
 5569TIP3   OH238341   0.017   0.907   2.031 -0.1736  0.2642  0.6401
 5569TIP3    H138342   0.029   0.821   2.071  1.1368 -0.0044 -0.2626
 5569TIP3    H238343   0.065   0.967   2.089 -0.6362  0.3114  0.9783
 5570TIP3   OH238344   1.289   0.089   3.532 -0.0649  0.3019  0.2811
 5570TIP3    H138345   1.237   0.169   3.525 -0.2387  0.1494 -0.2129
 5570TIP3    H238346   1.380   0.120   3.534  0.0622  0.4248 -2.7274
 5571TIP3   OH238347   3.934   2.048   2.540 -0.5723 -0.0974  0.4008
 5571TIP3    H138348   3.984   2.015   2.614 -1.0537  0.8369  1.1663
 5571TIP3    H238349   3.850   2.003   2.546 -0.5884 -0.0691  0.3896
 5572TIP3   OH238350   0.561   5.112   2.623  0.4455 -0.0462  0.9249
 5572TIP3    H138351   0.609   5.120   2.541  1.9927  0.3562  1.8249
 5572TIP3    H238352   0.571   5.021   2.649 -0.8623 -0.4149  0.2201
 5573TIP3   OH238353   0.354   3.532   2.265  0.2181  0.4575 -0.0667
 5573TIP3    H138354   0.326   3.600   2.204  2.4552  1.6276  0.1401
 5573TIP3    H238355   0.411   3.577   2.328  0.8327 -1.3863  0.7656
 5574TIP3   OH238356   5.658   5.305   0.623 -0.3434 -0.0236  0.2308
 5574TIP3    H138357   5.680   5.278   0.712 -0.8895 -0.1425  0.3343
 5574TIP3    H238358   5.700   5.239   0.567 -0.1309 -0.0377  0.4032
 5575TIP3   OH238359   1.326   2.379   1.869 -0.2784 -0.0269 -0.0558
 5575TIP3    H138360   1.299   2.434   1.796  0.0864 -2.0580 -1.8122
 5575TIP3    H238361   1.245   2.343   1.904 -0.4151  0.5886  0.2857
 5576TIP3   OH238362   0.584   0.616   0.798 -0.5133 -0.1370 -0.8385
 5576TIP3    H138363   0.552   0.696   0.841 -0.4681 -0.2449 -0.6036
 5576TIP3    H238364   0.539   0.615   0.714 -1.9358 -0.8264 -0.1086
 5577TIP3   OH238365   2.828   3.281   2.036  0.1072  0.5297 -0.5245
 5577TIP3    H138366   2.827   3.341   1.961  2.9724  1.3382 -0.0277
 5577TIP3    H238367   2.918   3.285   2.069  0.1756 -3.2538  0.2110
 5578TIP3   OH238368   1.216   6.642   4.049 -0.1214 -0.1328 -0.7401
 5578TIP3    H138369   1.213   6.550   4.025  1.1484  0.0785 -1.8490
 5578TIP3    H238370   1.292   6.649   4.107 -0.5722  0.1193 -0.1720
 5579TIP3   OH238371   4.347   2.901   0.794  0.6243 -0.4768  0.2845
 5579TIP3    H138372   4.308   2.988   0.802 -1.0474 -1.2850  1.3052
 5579TIP3    H238373   4.339   2.880   0.701 -3.5749 -1.4851  0.6696
 5580TIP3   OH238374   6.817   5.036   0.077  0.2266 -0.3846 -0.3405
 5580TIP3    H138375   6.793   4.973   0.145  0.3798  0.8148  0.8780
 5580TIP3    H238376   6.841   4.982   0.001 -3.3348 -1.7323 -0.6851
 5581TIP3   OH238377   1.891   5.935   2.108  0.0060  0.6136  0.3392
 5581TIP3    H138378   1.889   5.946   2.204  0.0798  2.7469  0.1368
 5581TIP3    H238379   1.863   6.019   2.074  2.7853  0.9042 -1.5571
 5582TIP3   OH238380   1.725   6.007   0.083  0.7670 -0.4324 -0.0266
 5582TIP3    H138381   1.738   6.099   0.059  0.0260 -0.3501 -0.1316
 5582TIP3    H238382   1.795   5.961   0.037  0.5187 -0.0457 -0.8157
 5583TIP3   OH238383   4.417   4.393   8.232 -0.6504  0.0111  0.1840
 5583TIP3    H138384   4.498   4.349   8.257  0.6133  1.9317 -0.3285
 5583TIP3    H238385   4.371   4.329   8.177  0.5207 -1.1062  0.4600
 5584TIP3   OH238386   5.212   2.567   7.907 -0.0339 -0.4798 -0.2247
 5584TIP3    H138387   5.239   2.636   7.967  1.6560 -2.0643  0.9296
 5584TIP3    H238388   5.116   2.563   7.917 -0.2907  2.1784 -0.9459
 5585TIP3   OH238389   6.279   1.390   1.074  0.7722  0.0329  0.0650
 5585TIP3    H138390   6.208   1.452   1.055 -0.3276 -0.3215  2.6474
 5585TIP3    H238391   6.310   1.415   1.161  3.2092 -0.4488 -0.5872
 5586TIP3   OH238392   0.843   5.303   0.315 -0.2091 -0.3111  0.0535
 5586TIP3    H138393   0.791   5.370   0.360 -0.5684  0.7583 -1.8764
 5586TIP3    H238394   0.836   5.226   0.372  0.3134  1.2861  2.3903
 5587TIP3   OH238395   4.360   5.366   2.201  0.2347  0.1254  0.2678
 5587TIP3    H138396   4.339   5.404   2.117  0.8479  1.7847  0.8245
 5587TIP3    H238397   4.429   5.302   2.182 -0.6992 -0.6301 -0.6637
 5588TIP3   OH238398   6.389   3.144   3.252  0.2375  0.2257 -0.2403
 5588TIP3    H138399   6.356   3.171   3.166 -0.6102 -2.4462 -0.8678
 5588TIP3    H238400   6.324   3.177   3.314  0.0751  0.9245 -0.7763
 5589TIP3   OH238401   0.053   0.312   2.080  0.0447 -0.1323 -0.1815
 5589TIP3    H138402  -0.003   0.234   2.082  0.0534 -0.1588 -0.7514
 5589TIP3    H238403   0.132   0.286   2.127 -0.0906 -0.3578 -0.0772
 5590TIP3   OH238404   2.402   3.594   1.277  0.1314 -1.1113  0.3118
 5590TIP3    H138405   2.461   3.575   1.350  1.7949 -1.2250 -0.9912
 5590TIP3    H238406   2.454   3.651   1.219 -1.3244 -0.5733 -0.5130
 5591TIP3   OH238407   5.117   1.185   1.008  0.1151  0.0557  0.4627
 5591TIP3    H138408   5.197   1.185   0.955  0.2658  0.7689  0.6736
 5591TIP3    H238409   5.077   1.271   0.991 -1.0224 -0.5826 -0.2464
 5592TIP3   OH238410   3.136   3.699   2.198  0.4481  0.0733  0.2817
 5592TIP3    H138411   3.114   3.623   2.252 -0.5642  1.1965  1.5466
 5592TIP3    H238412   3.068   3.763   2.219  0.7754  1.0274 -1.4053
 5593TIP3   OH238413   0.473   2.697   0.272 -0.0609 -0.0901 -0.2625
 5593TIP3    H138414   0.396   2.704   0.328 -0.5763  0.2918 -1.0066
 5593TIP3    H238415   0.494   2.788   0.249 -0.6484 -0.2934 -1.7288
 5594TIP3   OH238416   4.455   4.214   1.156  0.2628 -0.4766 -0.6958
 5594TIP3    H138417   4.446   4.284   1.220 -0.5543 -0.4409 -0.8291
 5594TIP3    H238418   4.481   4.137   1.207  0.9968 -0.1206 -0.5259
 5595TIP3   OH238419   0.767   3.850   0.496  0.3364  0.2369 -0.4352
 5595TIP3    H138420   0.772   3.814   0.584  1.3891 -0.2179 -0.6702
 5595TIP3    H238421   0.855   3.883   0.479 -0.6428  3.4163 -0.0454
 5596TIP3   OH238422   1.305   6.103   2.055 -0.1484 -0.2292 -0.2033
 5596TIP3    H138423   1.227   6.158   2.050  0.1855  0.1887 -0.9855
 5596TIP3    H238424   1.311   6.078   2.147 -1.1916 -0.2482 -0.1275
 5597TIP3   OH238425   6.408   3.407   8.468  0.0394  0.3876 -0.3975
 5597TIP3    H138426   6.353   3.385   8.393 -0.0029  1.2833 -0.6383
 5597TIP3    H238427   6.410   3.327   8.521 -0.4736 -0.0394 -1.0159
 5598TIP3   OH238428   4.205   3.403   2.733 -0.8650  0.2355  0.2196
 5598TIP3    H138429   4.141   3.360   2.791 -1.6113 -0.8271 -1.3373
 5598TIP3    H238430   4.167   3.489   2.715 -0.8493  0.3960  0.9204
 5599TIP3   OH238431   1.784   2.181   0.070 -0.5854  0.2539 -0.1302
 5599TIP3    H138432   1.860   2.131   0.041 -0.3433  0.7932 -0.4323
 5599TIP3    H238433   1.710   2.122   0.056 -0.2295 -0.2659  0.1476
 5600TIP3   OH238434   4.716   4.782   0.232  0.1178 -0.5558  0.6551
 5600TIP3    H138435   4.755   4.746   0.153  0.5548  1.8633 -0.3154
 5600TIP3    H238436   4.788   4.790   0.294  0.2535 -0.2934  0.4634
 5601TIP3   OH238437   6.592   0.141   2.740 -0.3653 -0.6213 -0.0809
 5601TIP3    H138438   6.620   0.180   2.656 -2.2313 -0.0565 -0.4737
 5601TIP3    H238439   6.555   0.214   2.789 -0.5282 -1.2192  0.7042
 5602TIP3   OH238440   1.860   1.729   3.800 -0.1050  0.1418 -0.3950
 5602TIP3    H138441   1.885   1.820   3.784  0.8585 -0.4607 -2.7227
 5602TIP3    H238442   1.798   1.708   3.731  1.7037 -1.6921 -1.5741
 5603TIP3   OH238443   6.245   3.295   8.304 -0.1306  0.6247 -0.3121
 5603TIP3    H138444   6.200   3.215   8.332 -1.1157  1.5192  0.7935
 5603TIP3    H238445   6.292   3.270   8.225  0.6405 -1.3887  0.6965
 5604TIP3   OH238446   2.076   3.064   0.498  0.2391 -0.3488 -0.4206
 5604TIP3    H138447   2.130   3.059   0.419  2.2212  1.3388  0.7215
 5604TIP3    H238448   2.139   3.074   0.569 -1.4417 -2.6015  1.5277
 5605TIP3   OH238449   4.041   4.758   4.054  0.0844 -0.6157 -0.6090
 5605TIP3    H138450   4.120   4.730   4.101  0.3468  0.1757 -0.5746
 5605TIP3    H238451   4.031   4.693   3.984 -0.2898 -1.7871  0.4945
 5606TIP3   OH238452   6.623   3.547   1.924  0.1555 -0.3533 -0.3687
 5606TIP3    H138453   6.539   3.588   1.947  0.0306 -1.6210  1.7283
 5606TIP3    H238454   6.688   3.614   1.945 -0.1956 -0.2841  0.5790
 5607TIP3   OH238455   0.009   0.828   0.866  0.2607 -0.1907  0.2102
 5607TIP3    H138456   0.053   0.844   0.950  1.6408 -1.2376 -0.2861
 5607TIP3    H238457  -0.085   0.830   0.888  0.5870  0.0223  1.6920
 5608TIP3   OH238458   6.316   2.859   1.296  0.5462  0.0543 -0.2482
 5608TIP3    H138459   6.288   2.849   1.205  2.1129  0.4483 -0.8036
 5608TIP3    H238460   6.303   2.952   1.315  1.4642  0.2406 -0.5128
 5609TIP3   OH238461   6.502   2.417   8.702  0.1387  0.1145 -0.0267
 5609TIP3    H138462   6.533   2.327   8.698  0.6491  0.1821  1.7027
 5609TIP3    H238463   6.581   2.471   8.700 -0.0630  0.4460  0.6080
 5610TIP3   OH238464   3.688   1.665   2.515  0.0489 -0.3114 -0.1932
 5610TIP3    H138465   3.781   1.639   2.520  0.2003  0.1929 -0.3438
 5610TIP3    H238466   3.641   1.582   2.503  0.5564 -0.4791 -1.1015
 5611TIP3   OH238467   4.639   3.775   2.050  0.0435 -0.5715 -0.1200
 5611TIP3    H138468   4.672   3.782   2.140 -0.7735  1.0677  0.0840
 5611TIP3    H238469   4.700   3.828   1.999 -1.2844  1.1649  0.0100
 5612TIP3   OH238470   3.529   1.423   3.738  0.0383 -0.1271 -0.2806
 5612TIP3    H138471   3.617   1.442   3.773 -0.0288 -1.6014  0.7645
 5612TIP3    H238472   3.470   1.449   3.809 -0.2633 -0.6586 -0.3385
 5613TIP3   OH238473   1.506   5.371   0.238 -0.2919  0.5250  0.6953
 5613TIP3    H138474   1.421   5.343   0.271  0.0450  1.3977  2.4852
 5613TIP3    H238475   1.542   5.424   0.310  1.1965  1.2537 -0.5385
 5614TIP3   OH238476   5.760   3.235   1.295  0.6177  0.0625  0.2355
 5614TIP3    H138477   5.827   3.212   1.359  0.0358  0.7178  1.0992
 5614TIP3    H238478   5.682   3.253   1.347 -0.6415 -1.9809 -0.7951
 5615TIP3   OH238479   1.211   4.767   0.459  0.1499 -0.2093  0.2276
 5615TIP3    H138480   1.169   4.693   0.502  0.5354 -0.7328 -0.2712
 5615TIP3    H238481   1.300   4.737   0.441  0.3332  0.4006  0.0760
 5616TIP3   OH238482   0.061   1.949   2.809  0.1858 -0.8245  0.5451
 5616TIP3    H138483   0.032   1.866   2.772 -0.8379 -0.6810  0.9837
 5616TIP3    H238484   0.125   1.983   2.746 -0.4327 -1.2743 -0.3362
 5617TIP3   OH238485   4.127   1.934   2.757 -0.3588 -0.0145  0.3754
 5617TIP3    H138486   4.118   1.929   2.853  2.8739 -0.6138  0.7482
 5617TIP3    H238487   4.144   2.026   2.740  0.2700 -0.0972  0.5348
 5618TIP3   OH238488   1.838   5.334   2.405  0.2257  0.2750  0.7365
 5618TIP3    H138489   1.858   5.291   2.488 -0.1514 -0.0018  0.6869
 5618TIP3    H238490   1.923   5.342   2.361  0.1038 -2.6231 -0.3063
 5619TIP3   OH238491   0.011   0.206   2.852  0.0008 -0.1637 -0.0854
 5619TIP3    H138492  -0.020   0.262   2.923  1.7413  0.5877  0.1385
 5619TIP3    H238493  -0.034   0.123   2.866 -2.4964  1.0546 -0.3024
 5620TIP3   OH238494   1.874   1.640   0.196 -0.2307  0.1949 -0.0477
 5620TIP3    H138495   1.899   1.732   0.192 -0.3476  0.3998  2.5784
 5620TIP3    H238496   1.801   1.637   0.257  0.8063 -1.8142  1.2096
 5621TIP3   OH238497   4.520   6.180   8.000  0.5764 -0.3105  0.6603
 5621TIP3    H138498   4.439   6.232   8.004  1.0170  0.5028 -0.3301
 5621TIP3    H238499   4.557   6.202   7.915  1.2283 -1.6207  0.5860
 5622TIP3   OH238500   5.787   5.405   2.221 -0.5445  0.9965  0.4754
 5622TIP3    H138501   5.879   5.389   2.199  0.3701  1.0379  3.7125
 5622TIP3    H238502   5.739   5.387   2.140  2.1355 -0.6933 -0.8779
 5623TIP3   OH238503   1.488   5.829   3.576  0.9200  0.9747  0.5829
 5623TIP3    H138504   1.550   5.782   3.632 -1.2826 -2.1000  0.6943
 5623TIP3    H238505   1.414   5.849   3.634 -0.1416  0.3667 -0.5166
 5624TIP3   OH238506   3.357   5.807   1.299  0.3355  0.6238 -0.2488
 5624TIP3    H138507   3.272   5.789   1.261 -0.6347  0.5722  1.8270
 5624TIP3    H238508   3.365   5.903   1.295  0.0551  0.6502 -0.2044
 5625TIP3   OH238509   6.262   4.928   0.858 -0.4547  0.0811  0.1725
 5625TIP3    H138510   6.182   4.973   0.829 -1.1029 -0.8734  0.4257
 5625TIP3    H238511   6.242   4.897   0.946  0.0673 -0.4919  0.0946
 5626TIP3   OH238512   4.248   5.589   1.310 -0.5992 -0.0429 -0.3057
 5626TIP3    H138513   4.338   5.560   1.295  0.4186  2.0239  1.3197
 5626TIP3    H238514   4.194   5.522   1.268  1.6493 -1.8993 -0.4232
 5627TIP3   OH238515   0.144   4.304   3.260  0.1352 -0.4512 -0.4984
 5627TIP3    H138516   0.225   4.336   3.220  0.9668 -1.0020  0.6755
 5627TIP3    H238517   0.136   4.214   3.231  0.8454 -0.9149  0.6624
 5628TIP3   OH238518   2.627   5.131   0.577 -0.0149 -0.0105 -0.4548
 5628TIP3    H138519   2.640   5.094   0.664 -6.5539  1.1240  1.5690
 5628TIP3    H238520   2.615   5.054   0.520  1.0705 -0.8023  0.3492
 5629TIP3   OH238521   0.301   5.600   2.551 -0.1930 -0.2031 -0.1306
 5629TIP3    H138522   0.247   5.559   2.618  1.9840 -1.5898  0.8698
 5629TIP3    H238523   0.362   5.531   2.524  0.3427  0.9476 -2.0591
 5630TIP3   OH238524   3.608   3.244   2.164  0.1046  0.0067 -0.3023
 5630TIP3    H138525   3.664   3.254   2.241 -1.9017 -0.5494  1.2873
 5630TIP3    H238526   3.619   3.153   2.137 -0.7864 -0.3958  0.6478
 5631TIP3   OH238527   4.536   5.324   2.693 -0.6446  0.1028  0.5899
 5631TIP3    H138528   4.499   5.259   2.633  1.2992  2.0384 -2.9799
 5631TIP3    H238529   4.486   5.404   2.675  0.3096  0.8504  1.2182
 5632TIP3   OH238530   3.436   2.954   2.228  0.3439  0.1778  0.0904
 5632TIP3    H138531   3.369   2.987   2.169 -0.0087  1.8955  1.3783
 5632TIP3    H238532   3.519   2.967   2.181 -0.0211  0.3016 -0.5214
 5633TIP3   OH238533   1.971   2.767   1.105  0.5250 -0.3049  0.7483
 5633TIP3    H138534   1.963   2.715   1.025 -1.4200 -0.0234  0.7197
 5633TIP3    H238535   1.915   2.723   1.169 -0.6456  1.3057  0.9190
 5634TIP3   OH238536   4.108   5.758   3.091  0.0446 -0.0425  0.7529
 5634TIP3    H138537   4.031   5.814   3.082 -0.8717 -1.3000  0.4326
 5634TIP3    H238538   4.137   5.772   3.181  0.6523  1.9125  0.2937
 5635TIP3   OH238539   5.858   2.283   3.730  0.2084  0.5233 -0.1103
 5635TIP3    H138540   5.931   2.344   3.730  0.6090  0.1089  1.6345
 5635TIP3    H238541   5.870   2.230   3.651  0.9865  1.3801 -0.5741
 5636TIP3   OH238542   0.781   3.041   1.587 -0.0204  0.0629 -0.1936
 5636TIP3    H138543   0.772   2.945   1.581  1.8647 -0.1569 -0.1493
 5636TIP3    H238544   0.871   3.058   1.561  0.3215  1.6205  1.7625
 5637TIP3   OH238545   6.510   5.566   1.376 -0.2388  0.0736 -0.1531
 5637TIP3    H138546   6.528   5.630   1.308  1.4153 -0.7682 -0.5542
 5637TIP3    H238547   6.587   5.568   1.432 -1.0570 -0.1125  1.0186
 5638TIP3   OH238548   5.583   6.649   0.385 -0.7109  0.4626  0.7297
 5638TIP3    H138549   5.496   6.685   0.405 -1.0395 -0.5882  1.2333
 5638TIP3    H238550   5.640   6.726   0.384 -1.4913  1.0693  1.2421
 5639TIP3   OH238551   3.348   6.524   2.444 -1.0478 -0.4027 -0.0892
 5639TIP3    H138552   3.274   6.538   2.385 -1.6734 -0.1494  0.7404
 5639TIP3    H238553   3.310   6.482   2.521 -0.6826  1.4176  1.1528
 5640TIP3   OH238554   5.956   0.889   8.406 -0.0120  0.1419  0.2379
 5640TIP3    H138555   5.948   0.840   8.323  0.1296 -1.3901  1.0860
 5640TIP3    H238556   5.997   0.971   8.380  0.7007 -0.5939 -1.1407
 5641TIP3   OH238557   3.430   6.320   0.584  0.3723 -0.3890 -0.0167
 5641TIP3    H138558   3.512   6.272   0.589 -0.5151 -1.9604  0.3262
 5641TIP3    H238559   3.426   6.352   0.494  0.8522 -1.2618 -0.3640
 5642TIP3   OH238560   5.015   4.574   2.646  0.5801 -0.6400 -0.3953
 5642TIP3    H138561   5.026   4.615   2.732  1.6947 -0.9882 -0.3522
 5642TIP3    H238562   4.973   4.642   2.592 -0.6695 -0.6157  0.5584
 5643TIP3   OH238563   2.116   3.748   0.077  0.4643  0.5325 -0.2169
 5643TIP3    H138564   2.033   3.756   0.030 -0.1703  1.3433  0.9809
 5643TIP3    H238565   2.178   3.799   0.025 -0.8586  3.8389  1.1083
 5644TIP3   OH238566   4.163   5.223   2.339  0.1897 -0.7778  0.6703
 5644TIP3    H138567   4.225   5.289   2.307 -0.0174 -0.6089  0.6116
 5644TIP3    H238568   4.103   5.210   2.266 -0.0648 -0.6653  0.8578
 5645TIP3   OH238569   3.728   4.491   4.203 -0.4172 -0.8786  0.3465
 5645TIP3    H138570   3.707   4.479   4.296 -0.8811 -2.1641  0.0985
 5645TIP3    H238571   3.818   4.460   4.195 -1.1482 -3.0589 -0.0316
 5646TIP3   OH238572   6.758   6.546   1.366  0.2143  0.1093  0.1420
 5646TIP3    H138573   6.748   6.461   1.323 -0.5151  0.0945  0.3231
 5646TIP3    H238574   6.795   6.603   1.299  0.0298 -0.1673 -0.1946
 5647TIP3   OH238575   3.629   6.514   2.398 -0.0639  0.2580 -0.2466
 5647TIP3    H138576   3.656   6.474   2.480  0.4286  0.8761 -0.0977
 5647TIP3    H238577   3.536   6.533   2.409  0.0383  0.4974  0.2367
 5648TIP3   OH238578   0.413   6.599   2.408  0.1951  0.1819 -0.8300
 5648TIP3    H138579   0.454   6.574   2.325 -0.5793 -2.0978 -0.6023
 5648TIP3    H238580   0.319   6.595   2.391  0.0333  1.1962 -0.2352
 5649TIP3   OH238581   5.025   0.243   1.821  0.3044  0.2193 -0.3080
 5649TIP3    H138582   5.101   0.226   1.764  1.0382  1.0847  0.3894
 5649TIP3    H238583   4.986   0.156   1.834  0.6583 -0.1255 -1.3720
 5650TIP3   OH238584   4.674   6.537   2.390  0.0162 -0.0318  0.0381
 5650TIP3    H138585   4.636   6.550   2.302 -0.8007 -1.8747  0.0633
 5650TIP3    H238586   4.746   6.600   2.395  0.5157 -0.3337 -2.2334
 5651TIP3   OH238587   3.823   2.021   8.465 -0.0852 -0.3955 -0.4787
 5651TIP3    H138588   3.854   2.033   8.555  0.8198  0.0106 -0.8308
 5651TIP3    H238589   3.728   2.031   8.470  0.0032  0.0502  0.3661
 5652TIP3   OH238590   1.385   2.268   0.899  0.1530 -0.3144  0.4268
 5652TIP3    H138591   1.339   2.343   0.937  0.6560 -0.0636  0.5585
 5652TIP3    H238592   1.317   2.219   0.853 -0.4904 -0.6790  1.7210
 5653TIP3   OH238593   3.094   2.109   8.699  0.5786 -0.4942 -0.2656
 5653TIP3    H138594   3.120   2.200   8.684 -3.3322  0.7269 -0.9812
 5653TIP3    H238595   3.038   2.088   8.624 -0.2127 -2.7779  0.8740
 5654TIP3   OH238596   5.124   2.269   2.175  0.0629 -0.1927  0.4034
 5654TIP3    H138597   5.041   2.267   2.127 -0.0557  0.0346  0.5993
 5654TIP3    H238598   5.099   2.266   2.267  0.3169 -1.4435  0.4504
 5655TIP3   OH238599   2.177   5.146   0.362 -0.3514  1.0029 -0.1759
 5655TIP3    H138600   2.260   5.118   0.322 -0.8583 -0.7263 -0.1183
 5655TIP3    H238601   2.169   5.239   0.340  2.1149  1.5037  0.7404
 5656TIP3   OH238602   1.244   0.038   8.405  0.1007  0.1059  0.0168
 5656TIP3    H138603   1.279  -0.044   8.440 -0.2280 -0.8295 -1.7341
 5656TIP3    H238604   1.149   0.028   8.413 -0.0388 -0.5532 -1.9040
 5657TIP3   OH238605   5.135   5.104   8.083 -0.1275  0.2310 -0.2854
 5657TIP3    H138606   5.161   5.177   8.139  1.5895  1.3134 -2.3645
 5657TIP3    H238607   5.117   5.143   7.998 -1.1805 -1.5480 -0.9522
 5658TIP3   OH238608   3.398   3.761   3.089  0.3727  0.0452 -0.0329
 5658TIP3    H138609   3.444   3.711   3.022  0.5317  0.1677 -0.0160
 5658TIP3    H238610   3.399   3.705   3.167  1.4559  0.4873  0.2955
 5659TIP3   OH238611   4.713   6.749   2.677  0.2781  0.1835  0.0328
 5659TIP3    H138612   4.631   6.759   2.628  0.0294 -0.0466  0.3971
 5659TIP3    H238613   4.718   6.655   2.695  0.3521  0.2716  0.4714
 5660TIP3   OH238614   1.837   6.146   2.604  0.0883 -0.4086  0.3500
 5660TIP3    H138615   1.783   6.225   2.595 -1.4655 -1.4697 -0.0841
 5660TIP3    H238616   1.861   6.143   2.696  0.2258  0.5863  0.3581
 5661TIP3   OH238617   2.061   6.524   3.785 -0.0040  0.1105 -0.4593
 5661TIP3    H138618   2.120   6.588   3.826  1.3374 -0.9136 -0.7002
 5661TIP3    H238619   2.018   6.573   3.715  0.6734  0.8676 -0.3663
 5662TIP3   OH238620   3.784   2.380   1.623 -0.5435 -0.2677  0.5907
 5662TIP3    H138621   3.808   2.463   1.582  0.6656 -0.0269  1.7288
 5662TIP3    H238622   3.853   2.319   1.595 -0.9035 -0.6522  0.5295
 5663TIP3   OH238623   3.448   4.748   3.506  0.2445 -0.0422  0.0527
 5663TIP3    H138624   3.461   4.769   3.598 -0.8985  0.6342  0.0835
 5663TIP3    H238625   3.533   4.716   3.476  0.9200  0.7394  1.0666
 5664TIP3   OH238626   4.130   2.029   2.033 -0.1492  0.1719  0.2876
 5664TIP3    H138627   4.090   2.022   2.119 -0.6465  0.2117  0.0640
 5664TIP3    H238628   4.142   1.939   2.004 -1.4602  0.1557 -0.2685
 5665TIP3   OH238629   1.909   5.208   2.630 -0.1732 -0.0958 -0.0660
 5665TIP3    H138630   1.898   5.157   2.711  0.3396 -1.6062 -0.9144
 5665TIP3    H238631   1.977   5.271   2.652 -0.5162 -0.0308  0.8902
 5666TIP3   OH238632   2.984   2.971   0.570 -0.1219  0.3942 -0.1776
 5666TIP3    H138633   2.888   2.976   0.564 -0.0303  0.5769 -2.2253
 5666TIP3    H238634   3.008   3.046   0.624 -1.1768 -0.2384  1.2159
 5667TIP3   OH238635   4.918   4.073   4.304 -0.7321 -0.9332  1.0434
 5667TIP3    H138636   4.875   4.096   4.222  0.6370 -0.6144  0.3904
 5667TIP3    H238637   4.964   4.153   4.331  3.9029 -2.4881 -1.1291
 5668TIP3   OH238638   5.441   3.281   3.424  0.0945 -0.2827 -0.2145
 5668TIP3    H138639   5.504   3.241   3.364 -0.8354 -1.5455 -0.3835
 5668TIP3    H238640   5.442   3.224   3.501 -0.0344  0.3251  0.2481
 5669TIP3   OH238641   0.403   0.120   0.354  0.1034 -0.5550 -0.1327
 5669TIP3    H138642   0.496   0.102   0.370 -0.2005 -2.3863 -0.2826
 5669TIP3    H238643   0.358   0.081   0.428 -0.6379 -0.7498 -0.6808
 5670TIP3   OH238644   4.000   3.702   3.463 -0.0588 -0.4363  0.3937
 5670TIP3    H138645   3.983   3.787   3.423 -0.0248 -0.2898  0.6903
 5670TIP3    H238646   4.042   3.651   3.393 -1.4529 -0.7265 -0.2614
 5671TIP3   OH238647   5.954   2.575   2.178  0.3817  0.3976  0.3212
 5671TIP3    H138648   5.884   2.569   2.243 -0.9972  2.9544 -0.7881
 5671TIP3    H238649   5.910   2.558   2.094  1.6784 -0.6282 -0.1797
 5672TIP3   OH238650   3.784   3.475   0.703 -0.1707 -0.1967  0.3992
 5672TIP3    H138651   3.823   3.542   0.758  1.1960 -0.0859 -0.6652
 5672TIP3    H238652   3.818   3.392   0.738  1.8852 -0.0608 -1.0828
 5673TIP3   OH238653   5.971   0.159   0.069  0.1256 -0.5124  0.0106
 5673TIP3    H138654   6.022   0.215   0.128  0.9364  1.3708 -2.2708
 5673TIP3    H238655   6.016   0.075   0.070 -0.1472 -0.6822  2.3234
 5674TIP3   OH238656   6.508   2.322   3.734 -0.3069 -0.5412 -0.4814
 5674TIP3    H138657   6.449   2.272   3.676  0.7461 -0.9091 -1.2582
 5674TIP3    H238658   6.594   2.283   3.720  0.0404 -0.4442  1.1326
 5675TIP3   OH238659   5.355   0.586   8.238 -0.0755 -0.0235  0.2162
 5675TIP3    H138660   5.314   0.664   8.275 -0.6717  0.5605 -1.5930
 5675TIP3    H238661   5.307   0.570   8.157  2.1230 -0.3649 -1.1014
 5676TIP3   OH238662   6.388   0.584   2.723  0.6046 -0.0066  0.2074
 5676TIP3    H138663   6.301   0.549   2.743  0.4154  0.2103 -0.2097
 5676TIP3    H238664   6.387   0.672   2.760  0.8478 -0.2049  0.6887
 5677TIP3   OH238665   6.124   1.735   3.482  0.3052  0.4179 -0.4114
 5677TIP3    H138666   6.170   1.657   3.451 -0.4002  0.2490 -1.0739
 5677TIP3    H238667   6.059   1.754   3.413 -0.1512  1.0448  0.1730
 5678TIP3   OH238668   5.698   0.045   0.171  0.1266 -0.1126 -0.0297
 5678TIP3    H138669   5.709  -0.031   0.114 -0.4305  0.4255 -0.8808
 5678TIP3    H238670   5.778   0.097   0.156  0.1138 -0.1125 -0.0975
 5679TIP3   OH238671   0.091   3.098   8.600  0.4651 -0.0486 -0.7369
 5679TIP3    H138672   0.055   3.178   8.639  2.0437 -0.9665  2.9741
 5679TIP3    H238673   0.184   3.116   8.588  0.3917 -0.5356 -2.2144
 5680TIP3   OH238674   6.257   4.759   8.649 -0.0563 -0.4833  0.4249
 5680TIP3    H138675   6.188   4.797   8.703  1.7870  1.2121  1.7086
 5680TIP3    H238676   6.298   4.692   8.704  0.7509  0.0841  0.5353
 5681TIP3   OH238677   0.732   4.471   8.366  0.3419  0.3620 -0.0950
 5681TIP3    H138678   0.688   4.528   8.303 -0.1181 -0.3561 -0.4427
 5681TIP3    H238679   0.821   4.505   8.371  0.3735  0.4657 -1.1046
 5682TIP3   OH238680   4.945   5.359   1.800  0.0286  0.8360  0.2743
 5682TIP3    H138681   4.962   5.382   1.892 -0.8461  1.4555  0.2934
 5682TIP3    H238682   4.872   5.415   1.775  0.3550  0.7662 -0.8516
 5683TIP3   OH238683   0.830   0.032   0.833  0.0636 -0.6520  0.2139
 5683TIP3    H138684   0.876   0.116   0.819 -0.4522 -0.2615  0.8200
 5683TIP3    H238685   0.874  -0.006   0.909 -1.0396  0.0507  1.2386
 5684TIP3   OH238686   5.001   5.931   0.208  0.6267 -0.0981  0.1447
 5684TIP3    H138687   4.950   5.850   0.215 -0.2460  0.4953  0.8624
 5684TIP3    H238688   5.036   5.945   0.296 -0.5257  1.1232  0.4267
 5685TIP3   OH238689   4.949   1.640   2.017  0.0960 -0.0485  0.0400
 5685TIP3    H138690   5.008   1.681   1.955  1.0031 -1.3828 -0.0333
 5685TIP3    H238691   4.900   1.575   1.965 -2.4567  1.9000 -0.1927
 5686TIP3   OH238692   6.549   0.692   8.503 -0.1668  0.3077 -0.0101
 5686TIP3    H138693   6.638   0.724   8.515 -0.3962  0.4411  1.4980
 5686TIP3    H238694   6.505   0.760   8.452  0.4832  0.4082 -0.4440
 5687TIP3   OH238695   3.842   1.235   0.946 -0.6798  0.2680  0.2271
 5687TIP3    H138696   3.812   1.301   1.008  0.0797  0.3848  0.4767
 5687TIP3    H238697   3.937   1.238   0.951 -0.6244 -0.4302 -0.1981
 5688TIP3   OH238698   4.437   5.969   3.558  0.0133  0.5184  0.1822
 5688TIP3    H138699   4.468   5.901   3.498 -2.2897 -0.4984  0.0265
 5688TIP3    H238700   4.515   5.995   3.607  1.0614 -2.1014  0.1023
 5689TIP3   OH238701   2.142   4.300   0.310 -0.3265 -0.0470 -0.0503
 5689TIP3    H138702   2.099   4.215   0.319 -0.2369 -0.2109 -1.0107
 5689TIP3    H238703   2.218   4.282   0.255  0.1737  0.5023  0.4543
 5690TIP3   OH238704   3.611   1.023   1.022 -0.1943 -0.6506 -0.4075
 5690TIP3    H138705   3.642   0.981   1.103  2.2673 -4.6200 -3.0660
 5690TIP3    H238706   3.689   1.033   0.968 -1.9235  0.4138 -2.9043
 5691TIP3   OH238707   3.486   2.130   0.074 -0.9848  0.2413  0.2383
 5691TIP3    H138708   3.428   2.201   0.101 -1.1192  0.0185  0.5332
 5691TIP3    H238709   3.565   2.175   0.043 -1.3558  0.5458 -0.2787
 5692TIP3   OH238710   1.440   6.375   1.945 -0.6103 -0.0409  0.6102
 5692TIP3    H138711   1.524   6.340   1.917 -0.6611 -0.6934  1.2187
 5692TIP3    H238712   1.377   6.336   1.884 -0.6265 -0.7620  1.0672
 5693TIP3   OH238713   0.931   5.247   2.741  0.6223 -0.1826  0.6095
 5693TIP3    H138714   0.860   5.183   2.734 -0.8892  1.4555  0.1897
 5693TIP3    H238715   0.958   5.262   2.650  0.8120 -0.0664  0.6861
 5694TIP3   OH238716   3.233   2.871   7.775 -0.5442  0.2320  0.2180
 5694TIP3    H138717   3.310   2.816   7.787 -0.2712 -0.1312 -2.5868
 5694TIP3    H238718   3.264   2.960   7.787  0.7592  0.2055 -2.3194
 5695TIP3   OH238719   2.919   3.362   0.905 -0.1961 -0.2350  0.3582
 5695TIP3    H138720   2.916   3.404   0.991 -0.7059 -1.4367  0.9548
 5695TIP3    H238721   2.928   3.434   0.843 -0.3370  0.6899  1.3865
 5696TIP3   OH238722   1.879   6.272   2.200  0.3102 -0.0326 -0.0442
 5696TIP3    H138723   1.964   6.287   2.240 -0.3618 -0.9229  1.8235
 5696TIP3    H238724   1.815   6.296   2.268 -1.0134  1.9159 -1.8351
 5697TIP3   OH238725   3.580   5.805   1.136 -0.1250  0.2019  0.4981
 5697TIP3    H138726   3.504   5.797   1.193 -1.0371  0.3799 -0.6607
 5697TIP3    H238727   3.575   5.729   1.078  1.0247 -0.2051  0.9042
 5698TIP3   OH238728   4.193   1.454   2.398  0.1894 -0.4916  0.2316
 5698TIP3    H138729   4.101   1.444   2.423  0.5134 -0.0309  1.6840
 5698TIP3    H238730   4.232   1.368   2.416 -0.5095 -1.6945 -3.2066
 5699TIP3   OH238731   6.673   0.500   1.067  0.1511  0.1900 -0.2212
 5699TIP3    H138732   6.651   0.590   1.090 -0.3893  0.0123 -0.0221
 5699TIP3    H238733   6.681   0.455   1.151 -0.0314 -0.0509 -0.3319
 5700TIP3   OH238734   0.108   1.012   8.661 -0.1433 -0.2341  0.3535
 5700TIP3    H138735   0.178   1.072   8.635  1.1537 -1.4545  0.9412
 5700TIP3    H238736   0.152   0.942   8.708 -1.6080 -1.7809 -0.4889
 5701TIP3   OH238737   0.084   3.152   4.006 -0.4834 -0.2286  0.8563
 5701TIP3    H138738   0.119   3.064   4.016 -0.5347 -0.3346  0.1279
 5701TIP3    H238739   0.160   3.206   3.986 -0.2186  0.1717  2.7394
 5702TIP3   OH238740   0.594   1.683   2.585  0.1980 -0.5947 -0.0355
 5702TIP3    H138741   0.606   1.690   2.491  1.8201  0.2166  0.2078
 5702TIP3    H238742   0.558   1.595   2.598  2.2812 -1.6973 -1.2253
 5703TIP3   OH238743   1.809   1.322   1.005  0.2654 -0.7024 -0.0140
 5703TIP3    H138744   1.885   1.363   1.046 -0.6550  0.4065  0.6380
 5703TIP3    H238745   1.762   1.394   0.962 -0.7965 -1.2324  0.2053
 5704TIP3   OH238746   5.869   5.274   0.340 -0.0135  0.0837 -0.0771
 5704TIP3    H138747   5.922   5.290   0.418 -0.7180 -0.3464  0.5035
 5704TIP3    H238748   5.896   5.341   0.277  0.4922  0.4911  0.5757
 5705TIP3   OH238749   5.191   5.096   2.430  0.1714 -0.1003 -0.2474
 5705TIP3    H138750   5.197   5.012   2.384 -1.1044 -0.6075  0.4616
 5705TIP3    H238751   5.144   5.153   2.369  1.8280  0.4304 -1.1134
 5706TIP3   OH238752   3.643   0.223   0.676 -0.2430 -0.2809 -0.1270
 5706TIP3    H138753   3.693   0.303   0.662 -0.8823  0.0930 -0.3499
 5706TIP3    H238754   3.701   0.153   0.648 -1.0186  0.3400 -3.7664
 5707TIP3   OH238755   1.945   1.493   8.734  0.2270  0.4681  0.2240
 5707TIP3    H138756   1.922   1.566   8.676  1.6049  1.6647  1.1232
 5707TIP3    H238757   1.917   1.521   8.821 -0.6110 -0.7457  0.3679
 5708TIP3   OH238758   6.465   2.696   0.361  0.0317 -0.3933 -0.0808
 5708TIP3    H138759   6.520   2.768   0.331 -2.3355  2.3968  1.8033
 5708TIP3    H238760   6.514   2.657   0.433  1.2741 -0.6876 -1.0342
 5709TIP3   OH238761   0.180   3.083   0.832  0.9348  0.0216 -0.0881
 5709TIP3    H138762   0.096   3.046   0.857  0.4430  0.6798 -0.7414
 5709TIP3    H238763   0.159   3.155   0.773  1.9502  0.2439 -0.2071
 5710TIP3   OH238764   3.226   0.336   0.204  0.2896 -0.6752 -0.6863
 5710TIP3    H138765   3.257   0.423   0.232  0.2917 -0.7559 -0.4397
 5710TIP3    H238766   3.295   0.304   0.146  0.2812 -0.5058 -0.7929
 5711TIP3   OH238767   4.093   4.515   3.212 -0.0417 -0.1740 -0.1205
 5711TIP3    H138768   4.160   4.525   3.279  0.9564 -0.8523 -1.0001
 5711TIP3    H238769   4.090   4.600   3.169 -0.3793  0.1290  0.4858
 5712TIP3   OH238770   5.416   6.789   1.020  0.2659 -0.4338  0.5906
 5712TIP3    H138771   5.362   6.768   0.943  0.8370 -2.2177  0.6203
 5712TIP3    H238772   5.431   6.883   1.014  0.2541 -0.5163 -1.4556
 5713TIP3   OH238773   4.732   0.723   2.714 -0.5993 -0.4607  0.5168
 5713TIP3    H138774   4.795   0.708   2.644 -0.0914  0.0667  0.8568
 5713TIP3    H238775   4.673   0.791   2.679 -0.5594 -0.4522  0.4660
 5714TIP3   OH238776   2.166   1.753   8.532 -0.0166  0.4187 -0.0969
 5714TIP3    H138777   2.092   1.694   8.547 -0.2026  0.8108  0.5483
 5714TIP3    H238778   2.142   1.804   8.455  0.5807 -1.0302 -1.3184
 5715TIP3   OH238779   0.214   5.463   0.117 -0.2366  0.3614  0.2998
 5715TIP3    H138780   0.222   5.474   0.022 -1.0189  0.1074  0.1982
 5715TIP3    H238781   0.138   5.405   0.128 -0.8134  1.2539  1.1236
 5716TIP3   OH238782   4.001   3.609   1.890 -0.4928  0.1126  0.0848
 5716TIP3    H138783   3.960   3.665   1.956  0.1941 -1.5215  2.0001
 5716TIP3    H238784   3.975   3.520   1.915  1.1805 -0.6811 -0.8503
 5717TIP3   OH238785   2.681   1.001   8.724  0.0364  0.2160 -0.1345
 5717TIP3    H138786   2.764   1.040   8.696  0.2400 -0.6108 -0.7247
 5717TIP3    H238787   2.688   0.909   8.698 -0.9086  0.0495  0.1667
 5718TIP3   OH238788   5.109   0.440   2.326 -0.4730 -0.7164  0.1719
 5718TIP3    H138789   5.045   0.419   2.394 -0.1055 -0.9764  0.4378
 5718TIP3    H238790   5.145   0.356   2.299 -1.2700 -0.7078 -1.0036
 5719TIP3   OH238791   1.314   0.932   2.270 -0.3348 -0.3928  0.6196
 5719TIP3    H138792   1.254   0.871   2.312  1.5448 -3.0770 -0.3505
 5719TIP3    H238793   1.400   0.910   2.306  0.8937 -0.6399 -2.2203
 5720TIP3   OH238794   5.541   5.036   1.075  0.7162 -0.5289  0.0563
 5720TIP3    H138795   5.600   4.967   1.107  1.3870  0.5584  1.2755
 5720TIP3    H238796   5.470   5.038   1.139  0.8148  0.0540  0.1484
 5721TIP3   OH238797   6.599   3.088   1.146  0.2232 -0.6615  0.3552
 5721TIP3    H138798   6.554   3.164   1.108 -0.6161 -1.7310 -0.8350
 5721TIP3    H238799   6.588   3.018   1.082  1.5554 -1.6297  1.1328
 5722TIP3   OH238800   0.704   6.380   1.157 -0.1856  0.7360 -0.3060
 5722TIP3    H138801   0.725   6.473   1.170 -1.0672  1.0625 -1.0823
 5722TIP3    H238802   0.620   6.381   1.111  0.4495 -0.4264 -1.5498
 5723TIP3   OH238803   3.265   1.107   7.906  0.4271 -0.1336  0.5294
 5723TIP3    H138804   3.210   1.066   7.974 -2.6891 -0.2205 -1.8066
 5723TIP3    H238805   3.316   1.034   7.870 -0.1656 -0.6933  0.7903
 5724TIP3   OH238806   1.461   4.688   0.386 -0.4909 -0.0136 -0.0305
 5724TIP3    H138807   1.515   4.641   0.449 -0.3935  0.9423  0.6169
 5724TIP3    H238808   1.523   4.723   0.322 -0.2630  1.4429  0.9462
 5725TIP3   OH238809   2.273   2.191   8.036  0.3829 -0.0498  0.3281
 5725TIP3    H138810   2.287   2.280   8.067 -1.1608  0.0330  0.8618
 5725TIP3    H238811   2.189   2.165   8.074  1.1905 -2.0540  0.9029
 5726TIP3   OH238812   2.762   0.742   1.980 -0.0747 -0.2940  0.3038
 5726TIP3    H138813   2.698   0.673   1.998  0.0314 -0.2313  0.9766
 5726TIP3    H238814   2.737   0.814   2.039 -2.6589  1.9239 -3.1390
 5727TIP3   OH238815   6.144   4.198   0.657 -0.1513 -0.2203 -0.3705
 5727TIP3    H138816   6.073   4.255   0.627  1.4401  0.7375 -2.4819
 5727TIP3    H238817   6.152   4.131   0.589  1.2250 -0.0717 -0.3799
 5728TIP3   OH238818   5.572   3.646   2.648  0.1856  0.3239  0.3447
 5728TIP3    H138819   5.627   3.683   2.579 -0.1549 -0.5953 -0.4387
 5728TIP3    H238820   5.490   3.623   2.604 -0.3879  0.5557  1.2502
 5729TIP3   OH238821   2.281   6.837   2.023 -0.0902 -0.3026 -0.2398
 5729TIP3    H138822   2.221   6.900   1.983  1.6861  1.3627 -0.4272
 5729TIP3    H238823   2.336   6.807   1.950  0.6132 -0.2402  0.2565
 5730TIP3   OH238824   2.381   5.047   3.925  0.0991  0.0146 -0.1842
 5730TIP3    H138825   2.376   4.952   3.921 -0.1700  0.0537 -0.8136
 5730TIP3    H238826   2.356   5.068   4.015 -1.9462 -0.3817 -0.6202
 5731TIP3   OH238827   0.850   0.686   0.590  0.5391  0.5075  0.1183
 5731TIP3    H138828   0.829   0.592   0.589 -0.2526  0.6815 -0.1268
 5731TIP3    H238829   0.930   0.692   0.643  0.4115 -0.2683  0.4135
 5732TIP3   OH238830   6.644   4.237   2.379  0.1402  0.5929  0.3431
 5732TIP3    H138831   6.715   4.280   2.331  0.1896 -1.2238 -1.3087
 5732TIP3    H238832   6.687   4.172   2.434 -0.2435 -1.3085 -1.5132
 5733TIP3   OH238833   2.428   6.406   1.073  0.4634  0.0652  0.3035
 5733TIP3    H138834   2.443   6.400   0.979 -0.7702  0.8559  0.0344
 5733TIP3    H238835   2.384   6.324   1.096  2.3592 -0.9346  0.5562
 5734TIP3   OH238836   3.029   5.500   1.176  1.0963 -0.3547 -0.2049
 5734TIP3    H138837   2.953   5.530   1.126  0.4941 -2.2559 -0.5274
 5734TIP3    H238838   3.093   5.571   1.168 -1.1243  1.9864  1.3188
 5735TIP3   OH238839   2.783   6.785   0.606  0.1624 -0.1836  0.5818
 5735TIP3    H138840   2.726   6.846   0.560  0.4473  0.1501  0.6723
 5735TIP3    H238841   2.744   6.699   0.590 -0.4796  0.0581  0.8001
 5736TIP3   OH238842   5.831   6.583   2.920 -0.3509  0.2260 -0.4782
 5736TIP3    H138843   5.764   6.650   2.909  1.1041  2.1274  1.3563
 5736TIP3    H238844   5.852   6.585   3.014  1.6982 -0.8225 -0.8545
 5737TIP3   OH238845   2.213   3.128   2.564  0.0532  0.1313  0.5860
 5737TIP3    H138846   2.188   3.037   2.550  1.3008 -0.1980  0.4120
 5737TIP3    H238847   2.189   3.147   2.654  0.4546 -0.6022  0.8489
 5738TIP3   OH238848   3.315   2.669   2.710 -0.2529 -0.1255 -0.4927
 5738TIP3    H138849   3.241   2.641   2.656 -1.8920 -0.2078  1.6407
 5738TIP3    H238850   3.295   2.760   2.733  0.8282  0.1743 -0.6933
 5739TIP3   OH238851   3.205   6.841   2.679  0.2424 -1.0552  0.2615
 5739TIP3    H138852   3.178   6.840   2.771 -0.6188  0.6708  0.0638
 5739TIP3    H238853   3.138   6.790   2.633  0.1717 -1.1416  0.4604
 5740TIP3   OH238854   6.433   1.068   3.078 -0.1848  0.3998  0.0073
 5740TIP3    H138855   6.504   1.015   3.114  0.4084 -0.0875 -1.7692
 5740TIP3    H238856   6.353   1.031   3.117  0.4838  1.1342  2.2490
 5741TIP3   OH238857   3.294   5.229   1.543  0.2622  0.0962  0.2503
 5741TIP3    H138858   3.267   5.300   1.485 -0.6146 -0.4205  0.0026
 5741TIP3    H238859   3.261   5.149   1.501  0.2947 -0.3612  1.0577
 5742TIP3   OH238860   2.154   4.779   3.099  0.5737 -0.1777  0.5518
 5742TIP3    H138861   2.147   4.728   3.180  1.5139 -1.1705  0.0328
 5742TIP3    H238862   2.186   4.717   3.034 -1.5103  0.2295 -0.9704
 5743TIP3   OH238863   6.408   2.099   1.728 -0.0558  0.4032  0.8364
 5743TIP3    H138864   6.489   2.048   1.722 -0.0574  0.4176  0.6900
 5743TIP3    H238865   6.338   2.034   1.732 -0.0969  0.3936  0.0877
 5744TIP3   OH238866   2.969   1.734   2.837  0.0846  0.7573  0.1111
 5744TIP3    H138867   2.969   1.791   2.915  1.0127  1.4041 -0.3464
 5744TIP3    H238868   2.982   1.646   2.872  0.7784  1.0706  0.6802
 5745TIP3   OH238869   5.946   5.145   3.859 -0.2335 -0.1628  0.0002
 5745TIP3    H138870   5.941   5.224   3.806  2.2625  0.1398  0.0784
 5745TIP3    H238871   5.899   5.079   3.808  1.3530  0.3169 -2.2641
 5746TIP3   OH238872   6.045   5.429   0.592 -0.9095 -0.4431  0.1221
 5746TIP3    H138873   6.042   5.470   0.678 -3.2373 -1.5708  0.6455
 5746TIP3    H238874   6.084   5.496   0.535 -0.7879  0.9103  1.7170
 5747TIP3   OH238875   0.939   2.298   0.943 -0.1766 -0.4502  0.5759
 5747TIP3    H138876   0.871   2.257   0.889  1.4366 -0.3793 -1.6504
 5747TIP3    H238877   0.994   2.226   0.972  0.3515 -0.2639  0.0556
 5748TIP3   OH238878   1.418   6.494   0.815 -0.1395  0.1242  0.1924
 5748TIP3    H138879   1.446   6.444   0.891  0.7156 -0.2538 -0.3626
 5748TIP3    H238880   1.430   6.585   0.840  1.9342 -0.0144 -0.1260
 5749TIP3   OH238881   6.500   0.116   1.965 -0.0644  0.3026  0.1044
 5749TIP3    H138882   6.516   0.032   1.921 -0.6735  0.4550 -0.4243
 5749TIP3    H238883   6.557   0.178   1.920  2.3954 -0.2740  2.1908
 5750TIP3   OH238884   3.531   0.283   1.056 -0.2596 -0.2769 -0.5524
 5750TIP3    H138885   3.560   0.195   1.029 -0.0359  0.0633 -1.4541
 5750TIP3    H238886   3.456   0.302   1.000 -1.9957 -0.9290  1.4125
 5751TIP3   OH238887   4.169   1.612   1.381  0.4244  0.3390  0.2527
 5751TIP3    H138888   4.126   1.537   1.339 -0.9967  1.7031 -0.8319
 5751TIP3    H238889   4.206   1.576   1.462  0.9872 -1.8091 -0.8696
 5752TIP3   OH238890   0.189   4.790   1.742 -0.2177 -0.0021  0.0165
 5752TIP3    H138891   0.099   4.756   1.749 -0.2778  0.2271  0.3747
 5752TIP3    H238892   0.191   4.865   1.801 -0.2249  0.9309 -1.1294
 5753TIP3   OH238893   1.456   6.626   3.123  0.0888  0.0714  0.1371
 5753TIP3    H138894   1.372   6.652   3.084 -1.3258 -1.0016  2.2640
 5753TIP3    H238895   1.433   6.596   3.211  2.4278 -2.4364  0.0116
 5754TIP3   OH238896   3.588   0.028   1.005  0.4600 -0.3577  0.2696
 5754TIP3    H138897   3.595  -0.056   1.051 -0.5682 -0.4348  0.3073
 5754TIP3    H238898   3.581   0.004   0.913 -1.6362 -0.4392  0.4065
 5755TIP3   OH238899   2.982   1.083   2.390  0.0090  0.5875 -0.2971
 5755TIP3    H138900   3.019   1.118   2.471  0.2376 -2.1461  0.8668
 5755TIP3    H238901   2.916   1.019   2.418  1.1685 -1.6019 -2.1637
 5756TIP3   OH238902   4.376   5.253   1.056 -0.2758  0.3299 -0.0666
 5756TIP3    H138903   4.323   5.287   1.128 -2.2894  1.2562 -1.8778
 5756TIP3    H238904   4.312   5.230   0.989  1.3170 -2.9141 -0.6610
 5757TIP3   OH238905   1.619   3.352   1.511 -0.3298 -0.0867 -0.0990
 5757TIP3    H138906   1.705   3.315   1.492 -0.4744 -0.6533  0.3072
 5757TIP3    H238907   1.605   3.418   1.443 -0.0184 -0.7161 -0.7950
 5758TIP3   OH238908   5.029   1.744   3.259 -0.0317  0.4899  0.0231
 5758TIP3    H138909   5.018   1.802   3.335 -1.8199  0.0441  0.1568
 5758TIP3    H238910   5.048   1.658   3.297  0.7179  0.5880 -0.1113
 5759TIP3   OH238911   1.105   6.637   0.966  0.0001  0.5383 -0.1647
 5759TIP3    H138912   1.037   6.570   0.963 -0.3294  0.8871 -1.2686
 5759TIP3    H238913   1.113   6.667   0.875  0.5796  1.5516  0.1962
 5760TIP3   OH238914   1.426   3.548   1.392  0.4939 -0.7864 -0.1803
 5760TIP3    H138915   1.437   3.560   1.298 -0.1132 -1.3716 -0.3372
 5760TIP3    H238916   1.379   3.465   1.400  0.3964 -0.6627  0.6328
 5761TIP3   OH238917   1.773   2.214   2.598  0.0839 -0.4272 -0.2238
 5761TIP3    H138918   1.709   2.147   2.623  1.1623 -2.0710 -1.6108
 5761TIP3    H238919   1.854   2.187   2.642 -0.2393  2.0672  2.1698
 5762TIP3   OH238920   6.360   3.482   0.918  0.3305 -0.3870  0.0641
 5762TIP3    H138921   6.288   3.452   0.973  0.1559  0.2302  0.1734
 5762TIP3    H238922   6.325   3.478   0.829  0.9718 -2.4775 -0.1654
 5763TIP3   OH238923   1.276   1.458   2.164  0.0881  0.1508 -0.5969
 5763TIP3    H138924   1.319   1.434   2.082  0.1412  0.0052 -0.5276
 5763TIP3    H238925   1.305   1.391   2.227  0.9991  0.9421 -0.1551
 5764TIP3   OH238926   5.642   3.589   8.597  0.2692 -0.2357  0.2973
 5764TIP3    H138927   5.653   3.583   8.502  1.9201 -0.4071  0.4750
 5764TIP3    H238928   5.628   3.682   8.614  2.1174  0.1270  0.0523
 5765TIP3   OH238929   1.195   0.369   3.264  0.1440 -0.2045 -0.0398
 5765TIP3    H138930   1.262   0.302   3.253 -0.2194 -0.5845  0.0197
 5765TIP3    H238931   1.125   0.324   3.313 -0.7630 -0.2258 -1.3085
 5766TIP3   OH238932   4.821   5.866   0.707 -0.6755 -0.0249  0.0403
 5766TIP3    H138933   4.776   5.789   0.741  0.5383 -1.2148 -0.9308
 5766TIP3    H238934   4.757   5.910   0.652 -1.2596 -0.5623  0.2883
 5767TIP3   OH238935   2.928   6.828   1.989 -0.0909  0.5541 -0.0672
 5767TIP3    H138936   3.008   6.812   1.939  0.1911  3.0712 -0.5133
 5767TIP3    H238937   2.954   6.891   2.056 -1.3876  0.2677  0.7370
 5768TIP3   OH238938   3.678   0.358   8.184 -0.3365  0.9583  0.8757
 5768TIP3    H138939   3.764   0.349   8.225  0.2257  2.2921  0.0690
 5768TIP3    H238940   3.698   0.384   8.094 -1.5638 -0.2201  0.2307
 5769TIP3   OH238941   5.726   3.853   8.278  0.0832 -0.4174 -0.9130
 5769TIP3    H138942   5.757   3.808   8.199 -0.1743  0.9019 -1.7955
 5769TIP3    H238943   5.631   3.853   8.269 -0.0733 -1.8895  0.3498
 5770TIP3   OH238944   6.111   0.334   3.771 -0.5080  0.2385  0.2630
 5770TIP3    H138945   6.085   0.326   3.863 -1.8840  0.9521 -0.0365
 5770TIP3    H238946   6.200   0.300   3.768 -1.1942 -1.8840  1.4708
 5771TIP3   OH238947   3.937   6.297   0.552  0.7511 -0.0369  0.0527
 5771TIP3    H138948   3.964   6.220   0.502  0.0840 -0.5513  0.4639
 5771TIP3    H238949   3.863   6.266   0.605  1.9494  0.2712  1.9729
 5772TIP3   OH238950   4.111   1.369   1.835 -0.0066  0.6037  0.9816
 5772TIP3    H138951   4.030   1.342   1.792  0.3765  0.2795  0.4524
 5772TIP3    H238952   4.084   1.395   1.923 -0.2871 -2.3953  1.8891
 5773TIP3   OH238953   5.314   6.196   2.124  0.2333  0.3934 -0.1377
 5773TIP3    H138954   5.281   6.251   2.053 -3.1882 -2.0796 -0.7002
 5773TIP3    H238955   5.382   6.142   2.083 -0.2122  0.4575 -0.9685
 5774TIP3   OH238956   4.907   4.354   2.794 -0.1284 -0.7115  0.6060
 5774TIP3    H138957   4.930   4.265   2.768  0.0435 -0.2541 -0.8827
 5774TIP3    H238958   4.979   4.408   2.763 -0.5047  0.0229  0.9866
 5775TIP3   OH238959   0.585   5.480   8.206 -0.4959 -0.4202 -0.1904
 5775TIP3    H138960   0.526   5.466   8.132  0.9850 -0.4346 -1.4011
 5775TIP3    H238961   0.632   5.397   8.217  0.0414 -0.0892  0.0901
 5776TIP3   OH238962   5.770   1.633   1.640 -0.2928  0.1676 -0.0093
 5776TIP3    H138963   5.844   1.595   1.688  0.2870  1.1120 -0.1223
 5776TIP3    H238964   5.774   1.591   1.554 -1.0751 -1.2110  0.5821
 5777TIP3   OH238965   4.969   2.191   3.248  0.0043  0.2546 -0.3438
 5777TIP3    H138966   5.018   2.169   3.327 -0.0929  1.5621  0.1039
 5777TIP3    H238967   5.037   2.210   3.183  0.0980  0.8027 -0.0911
 5778TIP3   OH238968   5.415   4.372   2.587 -0.1037  0.0630 -0.1335
 5778TIP3    H138969   5.472   4.447   2.569  2.2042 -1.5087  0.1938
 5778TIP3    H238970   5.330   4.398   2.550  0.9440  2.2665 -1.2489
 5779TIP3   OH238971   4.702   2.772   8.727 -0.1460  0.3291  0.2766
 5779TIP3    H138972   4.785   2.812   8.699 -0.1185 -0.8064 -1.4053
 5779TIP3    H238973   4.639   2.801   8.661 -0.9998  0.7474  1.2531
 5780TIP3   OH238974   1.256   1.889   1.534  0.0974  0.3727 -0.2685
 5780TIP3    H138975   1.224   1.917   1.620  2.1731  0.3465  0.5701
 5780TIP3    H238976   1.313   1.960   1.505 -0.5983  0.3934 -1.6735
 5781TIP3   OH238977   0.774   4.874   1.247  0.6118 -0.1151  0.1071
 5781TIP3    H138978   0.797   4.933   1.319  0.4574 -0.8723  0.7893
 5781TIP3    H238979   0.827   4.905   1.174  1.3348  0.2153  0.7475
 5782TIP3   OH238980   4.343   3.941   4.327  0.0131  0.1068  0.0773
 5782TIP3    H138981   4.279   3.994   4.375 -0.7044  0.6506 -1.4035
 5782TIP3    H238982   4.298   3.859   4.309  0.2386 -0.0513  0.2302
 5783TIP3   OH238983   3.727   0.270   8.483  0.2509 -0.0325  0.8425
 5783TIP3    H138984   3.709   0.177   8.475 -0.5933  0.2938 -2.2642
 5783TIP3    H238985   3.809   0.284   8.437 -0.8127  1.0077 -0.8770
 5784TIP3   OH238986   2.939   5.889   0.901 -0.5546 -0.1353  0.0682
 5784TIP3    H138987   3.022   5.846   0.878 -1.0512 -0.6920 -0.7362
 5784TIP3    H238988   2.925   5.954   0.832 -0.8781 -0.1722  0.0962
 5785TIP3   OH238989   2.810   0.373   3.386 -0.5922 -0.2755  0.0739
 5785TIP3    H138990   2.738   0.372   3.324 -0.9883  1.1655  0.4809
 5785TIP3    H238991   2.879   0.423   3.342  0.5047 -2.2944 -0.6360
 5786TIP3   OH238992   4.592   6.148   2.495 -0.1270  0.2482 -0.3204
 5786TIP3    H138993   4.679   6.179   2.517 -0.1478  0.1986 -0.1689
 5786TIP3    H238994   4.604   6.056   2.471 -0.3166 -0.1137  0.9077
 5787TIP3   OH238995   1.904   1.256   2.157  0.2646  0.1202 -0.0472
 5787TIP3    H138996   1.941   1.171   2.132 -0.5929 -0.9487  2.0934
 5787TIP3    H238997   1.960   1.320   2.112  3.1220 -1.4780  0.9691
 5788TIP3   OH238998   5.268   1.160   2.220 -0.1126 -0.0099 -0.4543
 5788TIP3    H138999   5.361   1.178   2.237 -0.1117 -0.7551  0.4319
 5788TIP3    H239000   5.224   1.241   2.245  0.2209  0.0457 -0.0209
 5789TIP3   OH239001   0.062   1.822   0.907  0.1415 -0.0590 -0.1511
 5789TIP3    H139002   0.152   1.830   0.939  0.5952 -1.7167 -0.8670
 5789TIP3    H239003   0.043   1.907   0.867  0.7862  0.8603  1.4050
 5790TIP3   OH239004   1.354   3.174   1.408  0.1333 -0.9737  0.7650
 5790TIP3    H139005   1.417   3.212   1.347  0.1894 -1.8095  0.2920
 5790TIP3    H239006   1.284   3.141   1.352 -0.0938 -1.2259  1.1959
 5791TIP3   OH239007   6.174   3.638   3.751 -0.1741 -0.3362  0.2373
 5791TIP3    H139008   6.171   3.584   3.830  0.7391  1.8791  1.8728
 5791TIP3    H239009   6.267   3.651   3.734 -0.3564 -0.6977 -1.1965
 5792TIP3   OH239010   4.067   1.490   1.071 -0.0770  0.0869  0.2736
 5792TIP3    H139011   4.039   1.571   1.028 -1.3806 -1.1198 -1.2960
 5792TIP3    H239012   3.985   1.445   1.092  0.6225 -1.1907  0.3451
 5793TIP3   OH239013   4.438   2.060   8.618 -0.3453  0.2560 -0.2334
 5793TIP3    H139014   4.408   2.089   8.705  3.0219  1.8785  0.5560
 5793TIP3    H239015   4.410   1.969   8.612  0.5652 -0.4188  3.2947
 5794TIP3   OH239016   6.707   1.811   1.185  0.0949  0.3900  0.0881
 5794TIP3    H139017   6.797   1.806   1.219  0.2268 -0.6116 -0.3619
 5794TIP3    H239018   6.713   1.774   1.097 -1.3442 -3.2398  1.3063
 5795TIP3   OH239019   6.326   2.636   3.122  0.4576  0.0090 -0.3107
 5795TIP3    H139020   6.323   2.707   3.187  0.5867 -0.8328  0.6307
 5795TIP3    H239021   6.356   2.560   3.171  0.3553 -0.6962 -1.3245
 5796TIP3   OH239022   0.926   2.703   8.539  0.4037  0.3687  0.0872
 5796TIP3    H139023   0.849   2.666   8.496  0.7260  0.5582 -0.6634
 5796TIP3    H239024   0.994   2.637   8.529  0.8545  0.9591 -0.8620
 5797TIP3   OH239025   2.873   2.521   7.723 -0.1395 -0.0826 -0.2494
 5797TIP3    H139026   2.849   2.479   7.641  1.2999  0.8526 -1.2056
 5797TIP3    H239027   2.811   2.593   7.733  0.7618  0.9032 -1.4851
 5798TIP3   OH239028   3.103   4.873   8.098  0.2039 -0.1540 -0.3728
 5798TIP3    H139029   3.062   4.928   8.032 -3.5600 -0.3548  1.5030
 5798TIP3    H239030   3.118   4.931   8.173 -0.4433 -0.9197  0.3693
 5799TIP3   OH239031   2.909   2.701   4.507  0.1424  0.0224  0.0068
 5799TIP3    H139032   2.892   2.658   4.424 -2.2402 -0.9350  0.9124
 5799TIP3    H239033   2.882   2.792   4.493  0.6182  0.0904 -0.5081
 5800TIP3   OH239034   1.672   4.339   0.327 -0.5799  0.1362 -0.7601
 5800TIP3    H139035   1.606   4.284   0.286  0.7699  0.8756 -4.3160
 5800TIP3    H239036   1.744   4.342   0.263  1.6828  1.6583  1.6416
 5801TIP3   OH239037   1.286   4.762   3.401 -0.0226 -0.2928  0.2266
 5801TIP3    H139038   1.314   4.800   3.484 -0.7203 -0.8765  0.7444
 5801TIP3    H239039   1.367   4.750   3.352  0.3003  1.0320  0.3884
 5802TIP3   OH239040   5.176   3.867   3.599 -0.0514  0.1635 -0.5121
 5802TIP3    H139041   5.172   3.843   3.507  2.8009  1.0774 -0.9594
 5802TIP3    H239042   5.202   3.959   3.600 -0.1747  0.2243  1.1930
 5803TIP3   OH239043   6.680   1.343   2.276 -0.1087 -0.1316 -0.5022
 5803TIP3    H139044   6.689   1.319   2.184 -0.5415  2.0787 -1.1713
 5803TIP3    H239045   6.586   1.332   2.295 -0.2920  0.8901 -0.7845
 5804TIP3   OH239046   5.931   5.823   0.707 -0.2034 -0.4798 -0.1125
 5804TIP3    H139047   5.867   5.753   0.689  0.3813 -0.5455 -2.2113
 5804TIP3    H239048   5.917   5.886   0.636  0.1398  0.9274  1.0438
 5805TIP3   OH239049   1.374   5.557   1.866  0.2582 -0.2955 -0.2652
 5805TIP3    H139050   1.363   5.604   1.783  0.1002 -0.6338 -0.4403
 5805TIP3    H239051   1.469   5.548   1.877  0.3963  1.8196  0.7814
 5806TIP3   OH239052   1.905   5.186   0.723  0.2045 -0.4568  0.2478
 5806TIP3    H139053   1.998   5.189   0.745  0.1426  0.9136  0.3945
 5806TIP3    H239054   1.902   5.134   0.642  1.1065 -0.4179  0.1748
 5807TIP3   OH239055   3.377   1.283   0.694  0.2420  0.0449 -0.3856
 5807TIP3    H139056   3.401   1.193   0.716  0.0351 -0.0706 -0.6313
 5807TIP3    H239057   3.313   1.308   0.761 -0.7185 -0.4580 -1.1031
 5808TIP3   OH239058   6.439   0.178   1.145 -0.3623 -0.2789  0.2798
 5808TIP3    H139059   6.437   0.265   1.184  2.3168  0.1072 -0.2420
 5808TIP3    H239060   6.403   0.190   1.057  2.4678  1.0164 -0.8262
 5809TIP3   OH239061   3.730   3.504   2.561 -0.4457 -0.2606  0.7368
 5809TIP3    H139062   3.760   3.594   2.549  1.1579 -0.7993  0.5564
 5809TIP3    H239063   3.704   3.499   2.653 -1.6050  0.6574  0.4955
 5810TIP3   OH239064   1.408   0.920   8.440 -0.0756 -0.6131 -0.0037
 5810TIP3    H139065   1.352   0.874   8.377  1.1790  1.8281 -3.2224
 5810TIP3    H239066   1.496   0.917   8.402  0.3332  2.9905  0.2409
 5811TIP3   OH239067   2.047   6.102   0.594 -0.1512 -0.5472  0.0734
 5811TIP3    H139068   2.014   6.018   0.624 -0.7943 -0.3762 -0.1201
 5811TIP3    H239069   2.119   6.081   0.535 -1.7001 -1.0771 -1.7091
 5812TIP3   OH239070   0.682   0.658   1.436 -0.1103  0.1034  0.1125
 5812TIP3    H139071   0.749   0.719   1.406  0.2113 -0.8948 -1.2832
 5812TIP3    H239072   0.716   0.624   1.519  0.0505  1.2495  0.5287
 5813TIP3   OH239073   2.052   0.554   1.432 -0.2973 -0.1861 -0.2132
 5813TIP3    H139074   2.011   0.545   1.345 -0.1898 -0.1029 -0.2728
 5813TIP3    H239075   2.044   0.467   1.471  1.4001 -0.7814 -1.0879
 5814TIP3   OH239076   1.456   4.120   0.864 -0.1450 -0.2942 -0.0340
 5814TIP3    H139077   1.491   4.133   0.952  0.3595 -0.6629 -0.1775
 5814TIP3    H239078   1.524   4.071   0.818 -0.6064 -0.5080 -0.4928
 5815TIP3   OH239079   2.957   1.479   2.108  0.1139 -0.2878 -0.0170
 5815TIP3    H139080   2.980   1.440   2.024  2.4127  0.4132  0.2433
 5815TIP3    H239081   2.865   1.453   2.121  1.2617 -5.4779  0.0293
 5816TIP3   OH239082   3.159   3.338   1.376 -0.1644  0.1352 -0.0516
 5816TIP3    H139083   3.177   3.355   1.283 -1.4359  0.1222 -0.3200
 5816TIP3    H239084   3.075   3.291   1.376  0.1735 -0.5042  1.0641
 5817TIP3   OH239085   3.107   0.705   0.897  0.0085  0.1781  0.2526
 5817TIP3    H139086   3.150   0.774   0.847 -0.2747  0.3541  0.2467
 5817TIP3    H239087   3.036   0.750   0.943 -0.6059 -0.2190 -0.2828
 5818TIP3   OH239088   0.497   4.693   3.031 -0.2672  0.2195 -0.6486
 5818TIP3    H139089   0.541   4.615   2.997 -0.9153 -0.4384 -0.0183
 5818TIP3    H239090   0.504   4.757   2.960  1.6807  0.1446 -0.5611
 5819TIP3   OH239091   0.243   5.021   0.624 -0.1682  0.0531  0.3884
 5819TIP3    H139092   0.201   5.063   0.699  0.2061  0.2939  0.4664
 5819TIP3    H239093   0.180   5.031   0.552  0.1479  1.2624  0.2607
 5820TIP3   OH239094   1.176   0.290   0.259  0.4021 -0.0473  0.1309
 5820TIP3    H139095   1.137   0.266   0.343 -0.1570 -1.5427 -0.5141
 5820TIP3    H239096   1.266   0.315   0.280 -0.8413  3.8998  1.7358
 5821TIP3   OH239097   2.398   0.914   0.052  0.0362 -0.3687  0.1248
 5821TIP3    H139098   2.490   0.938   0.047 -0.1140  0.3703  0.7886
 5821TIP3    H239099   2.392   0.860   0.131 -0.6413  2.2881  2.0374
 5822TIP3   OH239100   0.572   6.850   0.839 -0.0314 -0.1318  0.1178
 5822TIP3    H139101   0.660   6.885   0.851  0.2325 -0.7986  0.1855
 5822TIP3    H239102   0.516   6.905   0.893  0.8165 -1.8136  2.9146
 5823TIP3   OH239103   0.531   3.328   0.838  0.0224  0.4966 -0.2788
 5823TIP3    H139104   0.620   3.308   0.866  0.1338  1.2688 -0.0489
 5823TIP3    H239105   0.524   3.293   0.750  0.2919 -0.2712 -0.0060
 5824TIP3   OH239106   2.969   0.581   1.326 -0.1465  0.3090 -0.0521
 5824TIP3    H139107   3.013   0.664   1.344 -1.1305  0.6321  0.9440
 5824TIP3    H239108   2.976   0.532   1.408 -2.5004  0.7818  0.4996
 5825TIP3   OH239109   6.412   5.759   8.711 -0.0987  0.1267 -0.3333
 5825TIP3    H139110   6.421   5.720   8.625  0.7557 -2.2151  0.7370
 5825TIP3    H239111   6.481   5.826   8.714 -0.3382  0.4556 -1.5241
 5826TIP3   OH239112   6.298   0.337   4.120 -0.0421  0.1284 -0.0989
 5826TIP3    H139113   6.325   0.252   4.084 -0.0569 -0.2865  0.8394
 5826TIP3    H239114   6.371   0.365   4.175  0.6249  1.4873 -1.6094
 5827TIP3   OH239115   5.344   5.174   3.072 -0.1147 -0.5797  0.1899
 5827TIP3    H139116   5.272   5.148   3.015 -0.7056  0.2955  0.5119
 5827TIP3    H239117   5.365   5.263   3.046  0.4709 -0.6223  0.4939
 5828TIP3   OH239118   3.551   0.856   3.271  0.0308 -0.1178 -0.1342
 5828TIP3    H139119   3.583   0.852   3.181  0.5414 -0.8466  0.0646
 5828TIP3    H239120   3.578   0.942   3.303  0.1408  0.0104 -0.5715
 5829TIP3   OH239121   6.809   2.223   1.031 -0.0546 -0.0686  0.5341
 5829TIP3    H139122   6.874   2.198   1.097 -1.3323 -1.2455  1.4043
 5829TIP3    H239123   6.783   2.312   1.056  1.5946  0.6707 -0.1861
 5830TIP3   OH239124   0.377   2.508   0.032  0.1788  0.3111  0.0837
 5830TIP3    H139125   0.305   2.448   0.048 -0.1546  0.6617 -0.0961
 5830TIP3    H239126   0.454   2.463   0.068  0.3340 -1.2126 -2.0087
 5831TIP3   OH239127   1.583   2.491   1.173  0.2312 -0.1190  0.2099
 5831TIP3    H139128   1.675   2.512   1.158 -0.1162 -0.3590 -2.9478
 5831TIP3    H239129   1.585   2.410   1.224  1.7106  0.2838  0.8669
 5832TIP3   OH239130   5.337   1.350   0.623  0.5854  0.2931 -0.4820
 5832TIP3    H139131   5.308   1.319   0.537  1.5533 -0.6149 -0.5152
 5832TIP3    H239132   5.397   1.422   0.604  1.3201 -0.3389 -0.6254
 5833TIP3   OH239133   1.234   3.796   2.072  0.3640 -0.2137 -0.6974
 5833TIP3    H139134   1.209   3.802   2.164 -0.3612  1.8903 -0.9730
 5833TIP3    H239135   1.330   3.805   2.073  0.2595  1.2241 -0.1899
 5834TIP3   OH239136   3.199   3.490   3.050  0.0048  0.0161 -0.3351
 5834TIP3    H139137   3.154   3.558   3.100 -0.2493  0.8334 -1.6284
 5834TIP3    H239138   3.147   3.411   3.065 -1.0284  0.6236 -0.6562
 5835TIP3   OH239139   2.248   6.223   0.303  0.6023  0.2254  0.2230
 5835TIP3    H139140   2.317   6.289   0.303  1.0054 -0.0985 -2.3997
 5835TIP3    H239141   2.292   6.143   0.331  0.0868  0.9338  3.5378
 5836TIP3   OH239142   1.653   2.544   1.590  0.0543 -0.3648  0.2676
 5836TIP3    H139143   1.618   2.472   1.642  0.9672 -1.7944 -1.0087
 5836TIP3    H239144   1.575   2.589   1.557 -0.5428 -1.0743  0.6696
 5837TIP3   OH239145   2.835   3.885   3.265 -0.0423 -0.1302 -0.2086
 5837TIP3    H139146   2.782   3.965   3.265 -1.3823 -0.9702 -1.5459
 5837TIP3    H239147   2.888   3.891   3.185 -0.1135 -0.5468 -0.2905
 5838TIP3   OH239148   0.710   5.665   8.601  0.3320  0.4529  0.3043
 5838TIP3    H139149   0.645   5.676   8.670  1.2283 -1.3799  1.5236
 5838TIP3    H239150   0.757   5.585   8.625  0.9122 -0.0550 -2.2492
 5839TIP3   OH239151   1.906   4.966   0.955 -0.6970 -0.9880  0.1936
 5839TIP3    H139152   1.878   4.945   0.866  2.8767 -0.1091 -1.3036
 5839TIP3    H239153   1.973   4.900   0.976  0.2418  0.2200  1.2292
 5840TIP3   OH239154   6.612   3.053   1.606  0.1783  0.5601  0.0112
 5840TIP3    H139155   6.620   3.094   1.520  0.1304 -1.2296 -0.8977
 5840TIP3    H239156   6.522   3.020   1.609  0.3170  0.2071  0.5641
 5841TIP3   OH239157   0.516   2.873   2.227 -0.0513 -0.2922  0.0832
 5841TIP3    H139158   0.565   2.791   2.237  1.5367  0.6922  0.7444
 5841TIP3    H239159   0.443   2.850   2.169  1.2278 -1.8244 -1.0153
 5842TIP3   OH239160   2.672   5.969   3.766  0.1098  0.6333  0.8272
 5842TIP3    H139161   2.577   5.973   3.753  0.3139  0.8829 -0.7746
 5842TIP3    H239162   2.689   5.878   3.794 -0.3189 -0.3154 -1.7677
 5843TIP3   OH239163   2.439   4.534   3.194  0.0705 -1.1051  0.3789
 5843TIP3    H139164   2.433   4.440   3.180  2.7385 -1.2415 -0.3971
 5843TIP3    H239165   2.410   4.573   3.111  1.7473 -1.4216 -0.4173
 5844TIP3   OH239166   2.615   0.061   0.173  0.7044  0.3679 -0.4032
 5844TIP3    H139167   2.524   0.087   0.160  0.5411  0.1401  0.2315
 5844TIP3    H239168   2.662   0.099   0.098 -0.3254 -1.7232 -2.2463
 5845TIP3   OH239169   0.780   5.251   0.685  0.0688  0.3099 -0.7024
 5845TIP3    H139170   0.793   5.340   0.652 -1.9473  0.8134 -0.2695
 5845TIP3    H239171   0.690   5.250   0.717 -0.4277 -2.3010 -1.9374
 5846TIP3   OH239172   5.160   5.551   1.072 -0.5724  0.0083  0.0151
 5846TIP3    H139173   5.127   5.640   1.072 -0.8043 -0.0772 -0.3889
 5846TIP3    H239174   5.160   5.524   0.980  2.0578  0.5191 -0.2257
 5847TIP3   OH239175   0.783   4.277   1.242 -0.3890 -0.0707 -0.1898
 5847TIP3    H139176   0.850   4.219   1.279 -0.7166 -0.4150 -0.1231
 5847TIP3    H239177   0.817   4.365   1.257  0.4888 -0.2572 -1.0036
 5848TIP3   OH239178   3.252   2.938   3.377  0.4551  0.3040 -0.3251
 5848TIP3    H139179   3.307   2.969   3.450 -0.1380  0.5740  0.0176
 5848TIP3    H239180   3.173   2.904   3.420  0.6283 -0.6968 -0.7695
 5849TIP3   OH239181   0.944   5.069   8.048 -0.1936  0.8399 -0.4530
 5849TIP3    H139182   0.998   5.081   8.126 -1.1215  2.7532 -0.0465
 5849TIP3    H239183   0.855   5.061   8.081 -0.5302  1.0504 -1.2821
 5850TIP3   OH239184   4.858   5.697   0.264 -0.1121  1.0132  0.6641
 5850TIP3    H139185   4.857   5.623   0.203  1.4128  2.5404 -1.3587
 5850TIP3    H239186   4.766   5.708   0.289 -0.9852  0.8087 -2.0512
 5851TIP3   OH239187   1.276   1.229   3.299  0.5651 -0.1253 -0.5256
 5851TIP3    H139188   1.288   1.167   3.371 -2.4636 -2.2124 -1.6232
 5851TIP3    H239189   1.293   1.314   3.338  0.3426 -1.2666  2.3152
 5852TIP3   OH239190   2.670   3.630   0.547 -1.1731  0.4519 -0.0474
 5852TIP3    H139191   2.574   3.632   0.551 -1.2163  1.8722 -1.1833
 5852TIP3    H239192   2.694   3.707   0.496  0.5230 -0.4908 -0.7683
 5853TIP3   OH239193   6.689   2.036   0.890  0.3968 -0.5698  0.1036
 5853TIP3    H139194   6.635   1.996   0.958  1.8089 -0.8111  1.1389
 5853TIP3    H239195   6.729   2.112   0.933  0.4625 -0.0893 -0.7876
 5854TIP3   OH239196   4.238   0.274   0.325 -0.8150 -0.3800 -0.0597
 5854TIP3    H139197   4.188   0.214   0.382 -0.1181  0.6574  1.7332
 5854TIP3    H239198   4.328   0.242   0.330 -1.0365 -1.5497 -2.3598
 5855TIP3   OH239199   2.671   1.631   1.948 -0.1401  0.5199 -0.0394
 5855TIP3    H139200   2.577   1.647   1.943 -0.4391 -0.9299  0.4075
 5855TIP3    H239201   2.695   1.659   2.037 -0.2492  0.4037  0.0273
 5856TIP3   OH239202   2.976   4.930   0.000 -0.8996 -0.0415 -0.6109
 5856TIP3    H139203   3.025   4.955  -0.079  1.3882 -1.8211  0.1225
 5856TIP3    H239204   2.990   4.835   0.008 -0.9226  0.0936  1.9669
 5857TIP3   OH239205   5.654   5.153   2.062  0.4456  0.3185 -0.1463
 5857TIP3    H139206   5.584   5.213   2.089 -0.9629 -1.6352  0.8320
 5857TIP3    H239207   5.702   5.133   2.142  0.6165 -0.1810 -0.3635
 5858TIP3   OH239208   0.144   0.831   3.796 -0.3496 -0.7306 -0.1646
 5858TIP3    H139209   0.162   0.923   3.775  2.1695 -0.7904  1.4160
 5858TIP3    H239210   0.055   0.833   3.833 -0.2419  1.1307  0.1192
 5859TIP3   OH239211   4.176   4.953   2.349 -0.2525  0.2244 -0.1030
 5859TIP3    H139212   4.162   5.048   2.346 -0.6853  0.1750  0.2081
 5859TIP3    H239213   4.128   4.925   2.427  1.3948  0.0002  0.8639
 5860TIP3   OH239214   4.502   3.650   8.688 -0.2513  0.2455  0.4822
 5860TIP3    H139215   4.412   3.625   8.667 -0.3854  0.8279  0.3411
 5860TIP3    H239216   4.532   3.701   8.613 -0.5797  1.9453  1.4423
 5861TIP3   OH239217   4.541   3.074   2.408 -0.2404 -0.1528  0.1262
 5861TIP3    H139218   4.546   3.150   2.350 -0.1880 -1.0290 -1.0555
 5861TIP3    H239219   4.458   3.032   2.385 -0.1590 -0.5832  0.6050
 5862TIP3   OH239220   1.018   1.656   2.220  0.7495  0.1648  0.2721
 5862TIP3    H139221   0.993   1.727   2.161  1.6741  1.0665  0.9263
 5862TIP3    H239222   1.102   1.625   2.186  0.2197 -0.8205 -0.1713
 5863TIP3   OH239223   4.691   3.211   4.162 -0.1074  0.0515  0.1211
 5863TIP3    H139224   4.758   3.147   4.137  0.6200  0.7764  0.1624
 5863TIP3    H239225   4.666   3.185   4.251 -0.9559 -1.0909 -0.4279
 5864TIP3   OH239226   3.495   5.997   2.704 -0.0356  1.4694  0.4085
 5864TIP3    H139227   3.477   6.010   2.611  0.3798  0.0010  0.1135
 5864TIP3    H239228   3.453   5.914   2.726  2.0605  0.4728  0.9004
 5865TIP3   OH239229   1.196   3.001   1.791 -0.8176 -0.0073 -0.1446
 5865TIP3    H139230   1.160   2.969   1.708 -0.4274  0.5995 -0.5553
 5865TIP3    H239231   1.119   3.024   1.843 -1.0523  1.2103 -0.9838
 5866TIP3   OH239232   3.997   4.135   2.930 -0.6317 -0.2463 -0.2951
 5866TIP3    H139233   3.976   4.229   2.927  1.3406  0.2169 -1.8167
 5866TIP3    H239234   4.060   4.127   3.001  0.9815  0.0425 -1.6435
 5867TIP3   OH239235   4.632   4.986   3.325 -0.0565 -0.2507 -0.7881
 5867TIP3    H139236   4.662   4.968   3.414 -2.5406 -0.5754  0.0634
 5867TIP3    H239237   4.600   5.076   3.327 -3.1884 -1.2503 -0.3250
 5868TIP3   OH239238   4.499   1.644   0.096  0.7174  0.0016  0.4317
 5868TIP3    H139239   4.460   1.629   0.011  1.0560  0.7315  0.1411
 5868TIP3    H239240   4.470   1.731   0.122  3.3338  1.2643 -0.4986
 5869TIP3   OH239241   3.834   6.561   8.097  0.2100  0.6168  0.2883
 5869TIP3    H139242   3.871   6.615   8.027  0.5398 -1.9387 -1.6663
 5869TIP3    H239243   3.748   6.534   8.063 -0.3411  0.6234  1.6110
 5870TIP3   OH239244   5.341   4.007   1.502 -0.2558 -0.0885  0.2875
 5870TIP3    H139245   5.395   4.075   1.544 -1.6846  2.2584 -1.4304
 5870TIP3    H239246   5.404   3.946   1.464  1.0806 -0.5011  2.8840
 5871TIP3   OH239247   1.114   4.350   0.570 -0.2566 -0.2553 -0.3411
 5871TIP3    H139248   1.194   4.349   0.622 -1.1539 -1.0696  1.0847
 5871TIP3    H239249   1.083   4.441   0.574  1.4082  0.4739 -2.2920
 5872TIP3   OH239250   3.179   3.667   1.351 -0.3194  0.6648 -0.3680
 5872TIP3    H139251   3.222   3.752   1.351  0.7583  0.1372  0.2508
 5872TIP3    H239252   3.244   3.607   1.388 -1.2363 -0.3380 -0.3408
 5873TIP3   OH239253   5.566   3.029   4.048 -0.4363  0.4356 -0.2568
 5873TIP3    H139254   5.504   3.091   4.010 -1.0815  0.5813  0.9804
 5873TIP3    H239255   5.520   2.945   4.049  0.3482 -0.0514 -1.7033
 5874TIP3   OH239256   6.361   0.673   0.389 -0.3428  0.2922  0.3551
 5874TIP3    H139257   6.352   0.648   0.297 -0.1611  1.7379 -0.0729
 5874TIP3    H239258   6.438   0.729   0.392  0.9336 -1.4284  1.7826
 5875TIP3   OH239259   5.564   2.082   1.421  0.6020  0.2694  0.4425
 5875TIP3    H139260   5.496   2.038   1.372  1.2204 -0.5472  0.2943
 5875TIP3    H239261   5.580   2.026   1.497  0.6920  0.7566  0.7914
 5876TIP3   OH239262   5.427   5.748   2.388  0.0064 -0.0095  0.4652
 5876TIP3    H139263   5.420   5.680   2.455  0.6696 -0.8840 -0.3378
 5876TIP3    H239264   5.498   5.719   2.331 -0.2929  0.9086 -0.4031
 5877TIP3   OH239265   1.689   4.616   0.221 -0.1388  0.3431  0.1484
 5877TIP3    H139266   1.746   4.692   0.234  1.5071 -0.5214 -1.4388
 5877TIP3    H239267   1.734   4.544   0.264  0.7385 -0.6247 -2.2041
 5878TIP3   OH239268   5.430   2.057   3.741  0.3037  0.5481  0.1483
 5878TIP3    H139269   5.477   2.094   3.666  1.3963  0.9085  0.9856
 5878TIP3    H239270   5.370   2.126   3.769 -1.6887 -0.3252 -1.6562
 5879TIP3   OH239271   3.426   3.326   2.860  0.1531  0.0631  0.3525
 5879TIP3    H139272   3.333   3.316   2.837  0.7793 -0.5540 -2.1860
 5879TIP3    H239273   3.473   3.292   2.785  2.4832  0.9977  1.3028
 5880TIP3   OH239274   5.829   4.926   0.545  0.4837  0.1442  0.2782
 5880TIP3    H139275   5.770   4.973   0.487 -2.9773 -0.5672  2.9133
 5880TIP3    H239276   5.875   4.995   0.593  0.4814  0.7366 -0.5580
 5881TIP3   OH239277   1.548   6.676   1.369  0.7205 -0.2552 -0.5538
 5881TIP3    H139278   1.545   6.732   1.446  3.1466  0.1264 -0.6416
 5881TIP3    H239279   1.590   6.595   1.400 -0.3680 -1.0161 -0.9982
 5882TIP3   OH239280   0.356   3.899   0.493  0.3016  0.6502  0.6326
 5882TIP3    H139281   0.313   3.815   0.479 -0.5581  1.4099 -1.8025
 5882TIP3    H239282   0.341   3.919   0.585  1.6055 -2.3720  1.6373
 5883TIP3   OH239283   1.813   4.044   8.267  0.0127  0.4566 -0.1901
 5883TIP3    H139284   1.851   4.058   8.180 -0.3176  1.5433 -0.1814
 5883TIP3    H239285   1.722   4.020   8.250 -0.2192  1.2772 -0.1404
 5884TIP3   OH239286   0.979   0.691   1.683 -0.0553 -0.0990  0.3642
 5884TIP3    H139287   0.936   0.775   1.693 -0.5200 -0.3080  0.1433
 5884TIP3    H239288   1.064   0.702   1.727 -0.8068 -0.0587  1.8526
 5885TIP3   OH239289   1.333   4.937   0.853 -0.1114  0.0455  0.1926
 5885TIP3    H139290   1.410   4.921   0.798 -1.3313  0.1427 -1.6133
 5885TIP3    H239291   1.355   5.017   0.901  1.4784 -0.7197  0.8066
 5886TIP3   OH239292   5.173   0.765   1.023 -0.0523 -0.5956 -0.1442
 5886TIP3    H139293   5.166   0.675   1.053  2.5124 -0.8287 -0.0064
 5886TIP3    H239294   5.210   0.813   1.097 -1.7965  0.7361 -0.0487
 5887TIP3   OH239295   3.056   6.231   2.293  0.3813 -0.2345 -0.0827
 5887TIP3    H139296   3.033   6.201   2.381  1.1900 -2.6566 -0.6300
 5887TIP3    H239297   2.972   6.257   2.255 -0.0423  0.4403  1.2307
 5888TIP3   OH239298   5.575   5.950   0.016 -0.0756  0.7882  0.1987
 5888TIP3    H139299   5.517   5.906   0.077 -1.6752  0.8970 -1.1537
 5888TIP3    H239300   5.524   6.024  -0.017  0.2944  0.1227 -2.0385
 5889TIP3   OH239301   3.342   4.451   8.603 -0.0559  0.3466  0.2592
 5889TIP3    H139302   3.283   4.464   8.529  0.6813 -0.3865 -0.4650
 5889TIP3    H239303   3.294   4.392   8.661  0.1506 -0.6742 -0.5757
 5890TIP3   OH239304   1.109   4.087   1.996 -0.4914  0.3619 -0.3073
 5890TIP3    H139305   1.162   4.013   2.026 -1.6871 -0.7376 -0.8195
 5890TIP3    H239306   1.167   4.136   1.938  0.5193  0.1999  0.5441
 5891TIP3   OH239307   6.550   5.807   1.230 -0.1893  0.1205  0.7067
 5891TIP3    H139308   6.465   5.808   1.185  1.0474 -2.4318 -2.0639
 5891TIP3    H239309   6.609   5.854   1.172  1.1549 -1.9640  0.2728
 5892TIP3   OH239310   3.784   3.822   0.741 -0.1539  0.3828 -0.0592
 5892TIP3    H139311   3.872   3.853   0.759 -0.1259  1.3489 -1.7094
 5892TIP3    H239312   3.786   3.729   0.764  2.0281 -0.2237 -2.2628
 5893TIP3   OH239313   4.550   2.487   0.320 -0.0610 -0.2909 -0.3990
 5893TIP3    H139314   4.553   2.504   0.414  2.2256  1.6059 -0.6980
 5893TIP3    H239315   4.621   2.425   0.305 -2.0575 -2.6349 -0.6239
 5894TIP3   OH239316   2.001   0.782   2.952  0.1411 -0.1719 -0.2551
 5894TIP3    H139317   2.043   0.765   3.035  0.7849  2.1319 -0.0468
 5894TIP3    H239318   2.073   0.796   2.890 -0.3226 -0.1776 -0.8110
 5895TIP3   OH239319   3.871   2.890   3.313 -0.4737 -0.4695  0.1420
 5895TIP3    H139320   3.966   2.894   3.303 -0.3033 -1.6868  1.1077
 5895TIP3    H239321   3.850   2.968   3.364 -0.1122  0.2031 -0.6936
 5896TIP3   OH239322   3.967   2.224   3.430  0.3570  0.0626  0.3877
 5896TIP3    H139323   4.027   2.296   3.450  0.5249 -0.0347  0.2392
 5896TIP3    H239324   4.021   2.161   3.382  0.0354  0.1513 -0.0944
 5897TIP3   OH239325   1.821   0.453   0.697 -0.4994 -0.1140  0.2978
 5897TIP3    H139326   1.852   0.511   0.766 -1.1128  0.4569  0.1025
 5897TIP3    H239327   1.875   0.475   0.621 -1.7578  1.3197 -0.2201
 5898TIP3   OH239328   0.534   5.432   2.840 -0.1425  0.4091 -0.1866
 5898TIP3    H139329   0.536   5.505   2.903  2.1100  0.7253 -0.5679
 5898TIP3    H239330   0.548   5.354   2.894  0.1782  0.5263 -0.0966
 5899TIP3   OH239331   1.145   5.532   3.281  0.0719 -0.6516 -0.1979
 5899TIP3    H139332   1.178   5.457   3.330  0.7318 -0.7584 -0.7874
 5899TIP3    H239333   1.157   5.607   3.338 -1.2424 -1.0728  0.6836
 5900TIP3   OH239334   2.391   5.421   0.972  0.1399 -0.2499 -0.0930
 5900TIP3    H139335   2.324   5.381   1.027 -0.0224  0.4172  0.2087
 5900TIP3    H239336   2.352   5.503   0.943  0.3859 -0.4038 -0.8737
 5901TIP3   OH239337   3.734   4.042   0.577  0.3741 -0.1058  0.1596
 5901TIP3    H139338   3.758   3.954   0.606  0.7187  0.2446  0.9610
 5901TIP3    H239339   3.807   4.097   0.603 -0.5692  0.7088  1.1761
 5902TIP3   OH239340   2.229   5.905   1.333  0.3812  0.3816  0.0135
 5902TIP3    H139341   2.153   5.926   1.280  0.5058  0.8713  0.0258
 5902TIP3    H239342   2.292   5.868   1.272  0.3655  0.5559 -0.1088
 5903TIP3   OH239343   5.154   5.763   0.755  0.3133 -0.4811 -0.3009
 5903TIP3    H139344   5.128   5.671   0.748  0.5752 -0.5915  0.1463
 5903TIP3    H239345   5.231   5.772   0.698  0.0537 -0.4446 -0.6493
 5904TIP3   OH239346   0.286   2.178   0.983 -0.0358  0.5381 -0.0833
 5904TIP3    H139347   0.218   2.217   0.927 -0.2370  0.8082  0.3359
 5904TIP3    H239348   0.354   2.246   0.988 -0.9228  1.3633  1.6199
 5905TIP3   OH239349   1.633   4.589   1.597  0.1952  0.1859 -0.2595
 5905TIP3    H139350   1.719   4.605   1.559  0.9899 -0.1138  1.3348
 5905TIP3    H239351   1.588   4.673   1.592  1.4858  0.9979  1.0728
 5906TIP3   OH239352   2.111   2.316   2.288  0.2214  0.4383 -0.1627
 5906TIP3    H139353   2.111   2.338   2.195  0.5324 -0.3888 -0.3687
 5906TIP3    H239354   2.029   2.352   2.322 -0.7947 -0.8349 -1.1610
 5907TIP3   OH239355   3.901   2.415   1.360 -0.3674 -0.6860 -0.2263
 5907TIP3    H139356   3.875   2.324   1.378 -2.0465 -0.3273 -0.6875
 5907TIP3    H239357   3.849   2.440   1.284  0.9929  0.2912 -0.8743
 5908TIP3   OH239358   6.072   6.704   2.506 -0.1603 -0.2242 -0.1657
 5908TIP3    H139359   6.102   6.661   2.586 -1.2686  0.8017  0.8402
 5908TIP3    H239360   6.153   6.735   2.465  0.4344 -0.7833  0.5426
 5909TIP3   OH239361   5.462   1.045   2.839  0.1256 -0.5389 -0.3043
 5909TIP3    H139362   5.546   1.000   2.844  0.9839  1.0219 -0.1431
 5909TIP3    H239363   5.433   1.033   2.749  1.2854  0.2112 -0.7995
 5910TIP3   OH239364   3.890   2.849   2.520  0.0396 -0.0500  0.0759
 5910TIP3    H139365   3.861   2.846   2.429  2.8230 -0.7453 -0.8956
 5910TIP3    H239366   3.913   2.758   2.541 -1.2534 -0.0191  1.7433
 5911TIP3   OH239367   3.362   1.037   2.398 -0.2223 -0.3437 -0.3846
 5911TIP3    H139368   3.350   0.976   2.325 -0.7440 -0.6019 -0.0841
 5911TIP3    H239369   3.315   1.116   2.370  0.4313 -0.0696 -0.7613
 5912TIP3   OH239370   4.633   0.958   0.558 -0.1734 -0.3320 -0.1011
 5912TIP3    H139371   4.719   0.978   0.594  0.2455 -1.1364 -0.6244
 5912TIP3    H239372   4.583   1.039   0.570  1.0190  0.5540 -0.8924
 5913TIP3   OH239373   1.886   4.942   1.590 -0.1099  0.0412  0.1525
 5913TIP3    H139374   1.833   4.873   1.630 -0.1671  0.7369  1.3068
 5913TIP3    H239375   1.822   5.005   1.556 -0.0362  0.1131  0.1477
 5914TIP3   OH239376   2.421   1.687   8.609  0.0147  0.1727 -0.3131
 5914TIP3    H139377   2.337   1.721   8.580 -0.5719 -1.2167 -0.3447
 5914TIP3    H239378   2.470   1.670   8.529 -1.0046 -2.1767 -0.5319
 5915TIP3   OH239379   0.671   6.619   0.409  0.2474 -0.0527 -0.6336
 5915TIP3    H139380   0.597   6.575   0.452  1.5461 -0.9199  0.8182
 5915TIP3    H239381   0.709   6.674   0.478  1.0111  0.3220 -1.3362
 5916TIP3   OH239382   1.656   3.143   3.113 -0.1887  0.2781  0.5692
 5916TIP3    H139383   1.624   3.229   3.140 -0.7293 -0.0796  1.1102
 5916TIP3    H239384   1.579   3.087   3.118  0.3451 -0.4228  1.0568
 5917TIP3   OH239385   4.835   6.559   0.632 -0.2816  0.1289 -0.2536
 5917TIP3    H139386   4.741   6.541   0.626 -0.2787  0.4798 -2.1306
 5917TIP3    H239387   4.876   6.484   0.590  0.2294  0.3079 -0.0739
 5918TIP3   OH239388   6.647   6.338   0.744 -0.1085  0.2547 -0.1080
 5918TIP3    H139389   6.563   6.299   0.768 -0.0385 -0.0723 -0.3809
 5918TIP3    H239390   6.677   6.286   0.669  0.5717  0.0491  0.2978
 5919TIP3   OH239391   2.506   2.376   0.139  1.0932  0.0206  0.4342
 5919TIP3    H139392   2.552   2.346   0.060  0.7682  0.2569  0.1508
 5919TIP3    H239393   2.480   2.466   0.119 -0.8534 -0.5796 -0.0433
 5920TIP3   OH239394   0.218   5.355   1.428  0.0410  0.0346  0.2515
 5920TIP3    H139395   0.300   5.392   1.461 -0.1373  1.5509 -0.9142
 5920TIP3    H239396   0.237   5.329   1.338 -0.6285 -0.0624  0.1291
 5921TIP3   OH239397   6.209   5.094   3.804 -0.1563  0.1958 -0.4560
 5921TIP3    H139398   6.131   5.145   3.827  0.3161  0.4995  0.5631
 5921TIP3    H239399   6.203   5.016   3.859  0.5402  0.4937  0.0552
 5922TIP3   OH239400   2.601   1.752   0.067 -0.2299 -0.0556 -1.0711
 5922TIP3    H139401   2.672   1.710   0.019 -0.5825 -0.3120 -1.3799
 5922TIP3    H239402   2.522   1.727   0.018 -0.4622  0.8276 -1.1642
 5923TIP3   OH239403   5.752   6.731   1.851  0.1078 -0.2068 -0.6831
 5923TIP3    H139404   5.727   6.694   1.766  0.8481 -0.0503 -0.9766
 5923TIP3    H239405   5.842   6.701   1.864 -0.2636 -0.8891  0.4186
 5924TIP3   OH239406   3.016   6.657   2.606 -0.5500  0.1785  0.1416
 5924TIP3    H139407   2.948   6.693   2.549  0.6973 -0.0420 -1.5396
 5924TIP3    H239408   2.986   6.567   2.625 -0.3046 -0.2337 -1.3432
 5925TIP3   OH239409   4.921   0.699   3.771 -0.1872  0.3951  0.5162
 5925TIP3    H139410   4.930   0.620   3.824 -0.0270 -2.0214 -2.8179
 5925TIP3    H239411   5.010   0.730   3.760  0.1127 -0.7967 -0.6355
 5926TIP3   OH239412   3.863   5.901   3.134  0.2864  0.5550  0.1807
 5926TIP3    H139413   3.897   5.940   3.215  1.8750  0.3402 -0.3451
 5926TIP3    H239414   3.825   5.974   3.086 -0.5606  0.7057  1.0540
 5927TIP3   OH239415   3.991   4.596   3.826  0.0263  0.0841 -0.0257
 5927TIP3    H139416   4.007   4.589   3.732 -1.2684 -1.1480 -0.1955
 5927TIP3    H239417   3.982   4.505   3.855  1.6341  0.3714  1.5415
 5928TIP3   OH239418   3.061   0.038   1.310  0.3110 -0.2063  0.0323
 5928TIP3    H139419   3.113   0.009   1.235  0.3211 -0.3633  0.1016
 5928TIP3    H239420   3.123   0.085   1.365 -0.0275  1.3733 -0.8644
 5929TIP3   OH239421   1.526   0.109   4.169  0.2613  0.2429  0.0491
 5929TIP3    H139422   1.491   0.162   4.098  2.1012  0.6683 -0.5949
 5929TIP3    H239423   1.526   0.168   4.245  4.1011  2.0005 -1.0871
 5930TIP3   OH239424   2.763   6.758   3.615  0.0864 -0.2160 -0.1933
 5930TIP3    H139425   2.787   6.778   3.705  1.1640 -1.2650 -0.2121
 5930TIP3    H239426   2.817   6.816   3.562  1.3818 -1.3618 -0.1915
 5931TIP3   OH239427   4.173   4.428   0.562  0.0749  0.3853  0.3558
 5931TIP3    H139428   4.136   4.421   0.650  1.4926 -0.8188  0.8907
 5931TIP3    H239429   4.267   4.412   0.574  0.3365  0.5025 -1.3341
 5932TIP3   OH239430   0.376   2.488   0.623  0.2898 -1.2872  0.4644
 5932TIP3    H139431   0.390   2.457   0.534 -0.2849 -1.5150  0.4490
 5932TIP3    H239432   0.463   2.487   0.663  0.5840 -0.9714 -0.1593
 5933TIP3   OH239433   2.207   1.101   8.718  0.1442  0.3889  0.8398
 5933TIP3    H139434   2.151   1.065   8.786  0.8372 -0.3429  1.0356
 5933TIP3    H239435   2.295   1.071   8.741  0.5897  1.3198  0.4100
 5934TIP3   OH239436   5.582   5.565   8.109  0.0739  0.4150 -0.0879
 5934TIP3    H139437   5.676   5.558   8.092  0.1482 -0.0478  0.4903
 5934TIP3    H239438   5.553   5.636   8.051  0.7180  0.3564 -0.4989
 5935TIP3   OH239439   5.723   1.063   2.265  0.0730 -0.1780 -0.0880
 5935TIP3    H139440   5.737   0.985   2.211 -0.3922  0.7803 -1.6687
 5935TIP3    H239441   5.790   1.058   2.332  0.3873 -1.6664 -0.4788
 5936TIP3   OH239442   5.063   1.928   3.488  0.4425  0.0246  0.4837
 5936TIP3    H139443   5.111   1.996   3.440  0.3322 -0.7954 -0.8375
 5936TIP3    H239444   5.118   1.909   3.563  2.3655 -1.0524 -1.0948
 5937TIP3   OH239445   4.147   3.769   3.036 -0.2793  0.1301  0.7288
 5937TIP3    H139446   4.179   3.851   3.074  0.4816 -0.9568  2.5337
 5937TIP3    H239447   4.159   3.781   2.941 -1.1627  2.4795  0.8419
 5938TIP3   OH239448   2.447   1.925   1.849 -0.0724 -0.5450  0.0780
 5938TIP3    H139449   2.503   2.003   1.854  0.8063 -1.2002  0.7898
 5938TIP3    H239450   2.442   1.894   1.939 -1.9690 -0.2691  0.1136
 5939TIP3   OH239451   5.610   4.529   0.112  0.3718  0.2896  0.0368
 5939TIP3    H139452   5.519   4.535   0.143  0.7496  0.5119  1.1461
 5939TIP3    H239453   5.640   4.620   0.108  0.9454  0.1554  0.9451
 5940TIP3   OH239454   2.471   2.548   2.444 -0.7773 -0.1909  0.5998
 5940TIP3    H139455   2.377   2.555   2.461 -0.6164 -1.9889  2.5192
 5940TIP3    H239456   2.512   2.567   2.527  0.5891  0.4062 -0.1837
 5941TIP3   OH239457   3.553   0.165   0.321  0.4579 -0.5650  0.2369
 5941TIP3    H139458   3.462   0.185   0.343  0.2383 -0.0904 -1.0034
 5941TIP3    H239459   3.602   0.243   0.347 -0.1961  1.2283 -3.2930
 5942TIP3   OH239460   0.299   2.002   2.647 -0.4904 -0.1972 -0.3374
 5942TIP3    H139461   0.275   2.095   2.654 -0.9266 -0.3556  0.3773
 5942TIP3    H239462   0.285   1.980   2.556  0.9306  0.7958 -0.8458
 5943TIP3   OH239463   1.831   4.278   3.481 -0.0287 -0.2424  1.4245
 5943TIP3    H139464   1.871   4.317   3.558  1.3605  0.5408  0.3551
 5943TIP3    H239465   1.742   4.313   3.479  0.1186  0.1918  2.3333
 5944TIP3   OH239466   0.231   6.510   0.853  0.2385  0.3618 -0.1821
 5944TIP3    H139467   0.145   6.529   0.892 -0.3351 -0.7346 -0.8727
 5944TIP3    H239468   0.224   6.541   0.763  0.6336  0.4462 -0.1835
 5945TIP3   OH239469   3.513   6.470   0.815  0.5306 -0.1335 -0.1321
 5945TIP3    H139470   3.510   6.565   0.809 -3.7765  0.0263  1.4409
 5945TIP3    H239471   3.479   6.439   0.731  0.1764 -0.2299  0.0474
 5946TIP3   OH239472   3.014   1.861   3.391 -0.5749  0.3305  0.1973
 5946TIP3    H139473   3.021   1.941   3.338 -0.4576 -0.4023 -0.9201
 5946TIP3    H239474   2.971   1.798   3.334 -1.4683 -0.1529  1.3741
 5947TIP3   OH239475   4.530   5.179   0.557 -0.5392 -0.1613  0.4098
 5947TIP3    H139476   4.458   5.133   0.513 -0.1270 -1.7796  1.3167
 5947TIP3    H239477   4.555   5.120   0.629  1.6943  0.3416  0.1170
 5948TIP3   OH239478   5.305   1.078   7.815  0.3025 -0.0388 -0.4513
 5948TIP3    H139479   5.383   1.024   7.827 -0.1405 -0.5003  0.4273
 5948TIP3    H239480   5.232   1.019   7.831 -0.2529  0.3197 -1.5291
 5949TIP3   OH239481   6.188   5.693   1.862  0.3182 -0.0176  0.3231
 5949TIP3    H139482   6.281   5.672   1.870  0.8562  1.5524 -1.2146
 5949TIP3    H239483   6.170   5.750   1.937  0.5795 -0.2842  0.5951
 5950TIP3   OH239484   5.126   5.087   2.698 -0.1367  0.0553 -0.0467
 5950TIP3    H139485   5.211   5.116   2.730 -0.1090 -1.3017  1.1876
 5950TIP3    H239486   5.132   5.095   2.603  1.7804 -1.0688 -0.0730
 5951TIP3   OH239487   3.288   0.153   8.541 -0.0395  0.0508 -0.1271
 5951TIP3    H139488   3.284   0.135   8.447 -0.2695  0.5235 -0.2100
 5951TIP3    H239489   3.203   0.122   8.575  1.0787 -2.7304  0.4090
 5952TIP3   OH239490   1.685   0.101   2.912 -0.2458 -0.3805 -0.4954
 5952TIP3    H139491   1.625   0.152   2.858  0.1125  1.0892  0.4356
 5952TIP3    H239492   1.773   0.124   2.879 -0.1112 -0.9942 -0.5700
 5953TIP3   OH239493   1.787   2.218   1.725 -0.1261  0.1083 -0.4374
 5953TIP3    H139494   1.743   2.139   1.756 -0.0871 -0.3731 -1.5728
 5953TIP3    H239495   1.740   2.290   1.767 -0.7645 -0.4766 -0.1380
 5954TIP3   OH239496   3.016   1.539   8.519  0.5466 -0.1988  0.6960
 5954TIP3    H139497   3.002   1.627   8.484  0.0491  0.1555  1.7622
 5954TIP3    H239498   2.974   1.482   8.455  3.2356  0.0534 -1.5082
 5955TIP3   OH239499   2.059   4.646   0.461 -0.0639  0.1749  0.3116
 5955TIP3    H139500   2.130   4.630   0.523 -0.9908 -0.0291  1.3317
 5955TIP3    H239501   1.980   4.613   0.504 -1.2271  2.7081  0.3298
 5956TIP3   OH239502   4.742   0.203   7.867 -0.3765  0.0231 -0.3155
 5956TIP3    H139503   4.751   0.298   7.871 -0.6832  0.0419  0.0037
 5956TIP3    H239504   4.822   0.170   7.907  0.3899  0.1189 -1.6925
 5957TIP3   OH239505   0.674   2.785   0.591  0.2695  0.5062 -0.2875
 5957TIP3    H139506   0.702   2.716   0.530  0.2966  1.3726 -1.2861
 5957TIP3    H239507   0.592   2.817   0.554 -0.8026 -0.3203  1.2672
 5958TIP3   OH239508   6.869   3.174   3.601  0.2776 -0.3570  0.2946
 5958TIP3    H139509   6.904   3.241   3.660 -2.5527  0.7762  0.8477
 5958TIP3    H239510   6.927   3.176   3.525  1.6831  0.9882  1.3456
 5959TIP3   OH239511   5.280   0.689   0.721  0.0809 -0.4061  0.0431
 5959TIP3    H139512   5.324   0.640   0.790  1.2746 -0.2620 -0.5860
 5959TIP3    H239513   5.324   0.774   0.720 -0.1509 -0.2832 -0.6687
 5960TIP3   OH239514   2.010   5.169   3.048  0.0317  0.7352  0.3976
 5960TIP3    H139515   2.099   5.135   3.043 -0.1705  0.2458  0.0849
 5960TIP3    H239516   1.956   5.093   3.067 -0.2828  1.0906  0.9884
 5961TIP3   OH239517   4.547   2.478   1.365  0.3254 -0.2615  0.2519
 5961TIP3    H139518   4.563   2.454   1.273  0.6087  1.2840 -0.1193
 5961TIP3    H239519   4.459   2.515   1.366 -0.4044 -1.8855  0.9639
 5962TIP3   OH239520   6.177   2.764   7.704 -0.5309  0.6459 -0.3883
 5962TIP3    H139521   6.205   2.809   7.783 -0.0162 -3.4279  2.0793
 5962TIP3    H239522   6.241   2.789   7.637  0.6424  2.1615  1.2156
 5963TIP3   OH239523   2.418   2.642   3.586 -0.1353  0.2703  0.0192
 5963TIP3    H139524   2.469   2.718   3.611  0.4308 -0.4881  1.2425
 5963TIP3    H239525   2.470   2.567   3.614 -1.1751 -0.5528 -0.1656
 5964TIP3   OH239526   1.820   2.652   8.366  0.2597  0.2793  0.1647
 5964TIP3    H139527   1.871   2.697   8.433 -0.4539  1.0687  0.1984
 5964TIP3    H239528   1.885   2.611   8.309  1.0109  2.2462 -0.4842
 5965TIP3   OH239529   4.399   6.576   0.728  0.2767 -0.0294 -0.4713
 5965TIP3    H139530   4.397   6.483   0.750 -1.0849  0.0494 -0.1532
 5965TIP3    H239531   4.332   6.615   0.785  3.4352  1.8231  2.3444
 5966TIP3   OH239532   2.900   5.056   2.634  0.5906 -0.5218  0.7202
 5966TIP3    H139533   2.833   5.026   2.696 -1.8456  0.2851 -1.3322
 5966TIP3    H239534   2.945   5.127   2.681 -2.4662  1.4061  1.0543
 5967TIP3   OH239535   5.075   4.110   2.993  0.2428  0.0426 -0.1844
 5967TIP3    H139536   5.035   4.105   2.906  4.0693 -1.2323 -2.1068
 5967TIP3    H239537   5.138   4.038   2.994  0.5981  0.2199  3.5988
 5968TIP3   OH239538   0.313   2.928   0.657  0.0999  0.1116  0.5840
 5968TIP3    H139539   0.365   2.987   0.602  0.2090 -0.2086  0.3342
 5968TIP3    H239540   0.257   2.985   0.708 -1.1498  0.3811 -1.0021
 5969TIP3   OH239541   2.011   4.299   2.444  0.2812 -0.0445 -0.8460
 5969TIP3    H139542   1.930   4.296   2.496 -0.0528  1.5914 -1.2060
 5969TIP3    H239543   1.997   4.234   2.374 -0.5416 -0.0839 -0.6538
 5970TIP3   OH239544   0.739   4.665   2.591  0.2772 -0.7174  0.4327
 5970TIP3    H139545   0.827   4.644   2.622  0.9308 -1.1067 -1.5410
 5970TIP3    H239546   0.744   4.654   2.496 -0.8462  3.0184 -0.2021
 5971TIP3   OH239547   2.226   1.686   2.801 -0.0398  0.4353  0.2145
 5971TIP3    H139548   2.166   1.673   2.874 -0.5701 -1.2860 -0.4781
 5971TIP3    H239549   2.294   1.620   2.813 -0.2144  0.0282 -0.8972
 5972TIP3   OH239550   1.054   4.037   8.541  0.1315  0.3054 -0.0636
 5972TIP3    H139551   1.127   3.976   8.536 -0.0842  0.0997 -0.7627
 5972TIP3    H239552   1.090   4.114   8.587  0.6310 -0.0045  0.0685
 5973TIP3   OH239553   6.410   5.337   0.491  0.3442 -0.2992 -0.4709
 5973TIP3    H139554   6.475   5.390   0.444  1.8465 -0.9918  0.7337
 5973TIP3    H239555   6.438   5.341   0.583 -0.6760 -1.5509 -0.0789
 5974TIP3   OH239556   3.183   2.006   1.027  0.3261 -0.0224  0.3500
 5974TIP3    H139557   3.100   2.007   0.979  0.5035 -1.6118 -0.0357
 5974TIP3    H239558   3.172   2.072   1.096 -0.9079  0.4292 -0.2558
 5975TIP3   OH239559   4.252   5.522   0.576  0.5671  0.8394  0.2018
 5975TIP3    H139560   4.248   5.579   0.652  0.2054  1.4061 -0.2321
 5975TIP3    H239561   4.332   5.548   0.530  0.0528  1.4879 -0.3585
 5976TIP3   OH239562   3.027   6.436   1.881 -0.2481 -0.1919 -0.0944
 5976TIP3    H139563   3.036   6.341   1.884  0.7580 -0.1046  2.9572
 5976TIP3    H239564   2.933   6.451   1.893 -0.1924 -0.8372  1.4447
 5977TIP3   OH239565   0.834   0.515   3.202  0.5772  0.3316 -0.6813
 5977TIP3    H139566   0.788   0.432   3.217  0.4060  0.8301  2.0518
 5977TIP3    H239567   0.773   0.582   3.234  1.0177  1.4690 -2.1530
 5978TIP3   OH239568   2.206   3.356   0.664  0.0648  0.0178  0.2428
 5978TIP3    H139569   2.130   3.308   0.698 -0.5565  0.1502 -0.9026
 5978TIP3    H239570   2.189   3.447   0.687 -1.6309  0.4967 -2.5160
 5979TIP3   OH239571   5.090   5.205   0.724 -0.1985  0.2043  0.1676
 5979TIP3    H139572   5.061   5.204   0.815  1.6696  0.5080  0.8104
 5979TIP3    H239573   5.067   5.119   0.690 -1.1029  0.1668  0.8453
 5980TIP3   OH239574   0.477   2.144   0.115  0.0453  0.0528 -0.2468
 5980TIP3    H139575   0.415   2.196   0.064  1.2287 -0.3945 -2.2949
 5980TIP3    H239576   0.483   2.061   0.066 -0.5841 -1.4118  2.0224
 5981TIP3   OH239577   3.529   0.825   0.415  0.0688  0.2854  0.5705
 5981TIP3    H139578   3.599   0.858   0.472  0.1640  1.4735 -0.2034
 5981TIP3    H239579   3.516   0.734   0.443  3.3864 -0.7059 -0.6361
 5982TIP3   OH239580   1.971   1.989   3.765 -0.0305 -0.5795  0.0888
 5982TIP3    H139581   2.009   2.043   3.696 -0.3731 -0.7117 -0.2111
 5982TIP3    H239582   2.035   1.990   3.836  0.2920 -0.3822 -0.2062
 5983TIP3   OH239583   1.263   3.081   2.558 -0.8170  0.0430  0.0004
 5983TIP3    H139584   1.340   3.130   2.589 -1.5219  1.8084 -0.9132
 5983TIP3    H239585   1.255   3.009   2.620  0.5277  0.8270  1.1716
 5984TIP3   OH239586   1.185   2.378   1.150  0.6567  0.8251 -0.8992
 5984TIP3    H139587   1.094   2.397   1.175  0.5368  1.6437 -1.8674
 5984TIP3    H239588   1.208   2.301   1.201 -0.9352 -0.0396 -1.3966
 5985TIP3   OH239589   4.192   3.777   2.088  0.2276  0.1577  0.9374
 5985TIP3    H139590   4.199   3.764   1.993 -0.0397  4.4294  0.1351
 5985TIP3    H239591   4.279   3.808   2.114 -0.4174  1.5238  1.5328
 5986TIP3   OH239592   5.824   1.663   1.327  0.5254  0.7859  0.0849
 5986TIP3    H139593   5.905   1.663   1.378  0.0810 -1.5344  0.8971
 5986TIP3    H239594   5.816   1.754   1.296  2.2157  1.6331  1.8794
 5987TIP3   OH239595   6.070   6.501   0.795  0.1864  0.3820 -0.9948
 5987TIP3    H139596   6.095   6.498   0.702  0.1577  0.7294 -1.0125
 5987TIP3    H239597   5.989   6.552   0.796 -0.7154 -1.0008 -0.9825
 5988TIP3   OH239598   0.366   0.401   0.324 -0.0463 -0.7009  0.0681
 5988TIP3    H139599   0.383   0.308   0.340 -0.3931 -0.8397 -0.3477
 5988TIP3    H239600   0.271   0.411   0.337 -0.0994 -0.5229 -0.4354
 5989TIP3   OH239601   3.535   4.597   1.209  0.1072 -0.2749 -0.2166
 5989TIP3    H139602   3.527   4.525   1.147 -0.8762 -2.0138  1.8130
 5989TIP3    H239603   3.577   4.559   1.285  1.3504  1.8199  0.2318
 5990TIP3   OH239604   0.350   3.653   3.733  0.2358 -0.8042 -0.3971
 5990TIP3    H139605   0.361   3.596   3.657 -0.7295 -0.0377 -1.1316
 5990TIP3    H239606   0.421   3.717   3.724  1.2953 -1.8156  0.4064
 5991TIP3   OH239607   1.575   0.574   0.670  0.0731  0.2037 -0.4868
 5991TIP3    H139608   1.602   0.588   0.579  1.1761 -0.4297 -0.2752
 5991TIP3    H239609   1.644   0.519   0.707 -0.0483  0.9403  0.9045
 5992TIP3   OH239610   5.429   1.580   8.357  0.9125 -0.3229  0.4646
 5992TIP3    H139611   5.451   1.614   8.271  2.7901  0.0428  1.0547
 5992TIP3    H239612   5.334   1.594   8.365  0.8434  0.3258 -1.2134
 5993TIP3   OH239613   4.521   3.322   3.674 -0.1393 -0.3756  0.6433
 5993TIP3    H139614   4.521   3.306   3.768 -1.4552  0.3631  0.7837
 5993TIP3    H239615   4.600   3.374   3.658  0.9979 -1.8949  1.0546
 5994TIP3   OH239616   5.331   4.035   3.920  0.3244  0.6531 -0.3522
 5994TIP3    H139617   5.370   4.122   3.911  0.1264  0.9311  1.1454
 5994TIP3    H239618   5.364   4.003   4.004  1.2893 -1.2162 -1.3829
 5995TIP3   OH239619   1.544   2.290   2.350  0.1591 -0.1134  0.1047
 5995TIP3    H139620   1.616   2.229   2.362  0.8541  0.4223 -1.1226
 5995TIP3    H239621   1.561   2.331   2.265 -1.4831  0.1715 -0.1289
 5996TIP3   OH239622   5.950   6.470   2.699  0.0311 -1.1618 -0.0365
 5996TIP3    H139623   6.025   6.413   2.718  0.5867 -0.7515 -0.9529
 5996TIP3    H239624   5.919   6.498   2.785  2.1930  0.2710  0.3389
 5997TIP3   OH239625   5.613   3.873   8.538 -0.8215 -0.1461  0.2055
 5997TIP3    H139626   5.592   3.962   8.568 -0.7674 -0.2652  0.5990
 5997TIP3    H239627   5.594   3.875   8.444  0.9463  0.8245 -0.1820
 5998TIP3   OH239628   6.604   5.662   1.893  0.5805 -0.5133  0.2036
 5998TIP3    H139629   6.582   5.687   1.803  2.0246  0.2066  0.0218
 5998TIP3    H239630   6.526   5.684   1.944  0.1658  0.1597 -0.6948
 5999TIP3   OH239631   1.403   5.401   3.631  0.1380 -0.3418 -0.1577
 5999TIP3    H139632   1.369   5.364   3.713  0.8662 -2.2001 -0.6415
 5999TIP3    H239633   1.361   5.350   3.562  0.4619  0.3789 -0.9097
 6000TIP3   OH239634   4.724   4.676   2.040  0.0735 -0.5041 -0.1066
 6000TIP3    H139635   4.815   4.679   2.011 -0.1281 -0.3464 -0.7287
 6000TIP3    H239636   4.724   4.611   2.111  0.8794  0.3086  0.6741
 6001TIP3   OH239637   6.128   0.717   3.351  0.0668  0.1592 -0.3134
 6001TIP3    H139638   6.215   0.748   3.327 -0.1061  0.8920 -0.0308
 6001TIP3    H239639   6.078   0.797   3.369 -0.8687 -0.2070 -1.1718
 6002TIP3   OH239640   4.240   2.682   1.178 -0.6941 -0.1157  0.0991
 6002TIP3    H139641   4.195   2.600   1.159  0.6322 -1.3647  1.9921
 6002TIP3    H239642   4.310   2.687   1.112 -0.0185 -1.1843  0.6960
 6003TIP3   OH239643   1.195   1.201   0.160  0.0114  0.2282  0.4568
 6003TIP3    H139644   1.217   1.282   0.115  1.1102 -0.3884 -0.1610
 6003TIP3    H239645   1.109   1.176   0.125  1.0688 -0.5254 -1.7782
 6004TIP3   OH239646   0.386   6.110   8.585  0.3458 -0.5611 -0.0411
 6004TIP3    H139647   0.341   6.107   8.500  1.8443 -0.0508 -0.8875
 6004TIP3    H239648   0.477   6.088   8.565  0.6177 -1.0460  1.5446
 6005TIP3   OH239649   2.899   3.114   2.714  0.2743  0.5553 -0.6302
 6005TIP3    H139650   2.841   3.156   2.778 -0.9707  0.5481 -1.6925
 6005TIP3    H239651   2.870   3.149   2.630  1.2457 -0.1318 -1.2706
 6006TIP3   OH239652   3.459   1.404   2.624  0.4880 -0.3286  0.1627
 6006TIP3    H139653   3.518   1.412   2.549  0.2217  1.5738  0.1127
 6006TIP3    H239654   3.371   1.414   2.587  0.2808 -0.4975  0.5982
 6007TIP3   OH239655   4.421   6.050   1.536  0.4553 -0.3194 -0.1616
 6007TIP3    H139656   4.366   6.094   1.471  0.3817  1.9039  1.2891
 6007TIP3    H239657   4.360   6.020   1.603  0.8084  0.6049  0.6004
 6008TIP3   OH239658   1.053   3.817   8.713 -0.1390  0.7375  0.4052
 6008TIP3    H139659   1.045   3.896   8.768 -1.5585  0.4828  0.5969
 6008TIP3    H239660   1.013   3.842   8.630 -1.0725  0.0630  0.6431
 6009TIP3   OH239661   5.128   6.018   4.063  0.1380  0.3355 -0.0323
 6009TIP3    H139662   5.209   5.980   4.098  0.1223  0.8783  0.6085
 6009TIP3    H239663   5.151   6.046   3.974  0.3241 -0.5767 -0.2791
 6010TIP3   OH239664   1.007   5.566   0.594  0.3191  0.4212  0.0533
 6010TIP3    H139665   1.060   5.644   0.608 -0.9086  1.2859  0.0481
 6010TIP3    H239666   0.973   5.545   0.681  3.6527 -2.4512  0.8965
 6011TIP3   OH239667   6.483   3.668   8.567 -0.3066  0.0026  0.0154
 6011TIP3    H139668   6.417   3.630   8.625  0.3180  0.6041  1.1851
 6011TIP3    H239669   6.459   3.639   8.480 -1.2216 -1.0496  0.5924
 6012TIP3   OH239670   6.270   2.190   2.168  0.4152 -0.0353 -0.0785
 6012TIP3    H139671   6.326   2.232   2.102 -1.2154 -0.1592 -1.6244
 6012TIP3    H239672   6.284   2.096   2.154  1.0680 -0.0613  0.6860
 6013TIP3   OH239673   2.937   3.917   0.010 -0.2259 -0.2596  0.3771
 6013TIP3    H139674   2.910   3.950  -0.076  1.1776  1.0333  0.3869
 6013TIP3    H239675   2.997   3.845  -0.009 -0.4178 -0.3947  0.2844
 6014TIP3   OH239676   0.284   3.792   8.203 -0.6504 -0.2782 -0.0615
 6014TIP3    H139677   0.287   3.841   8.285  0.3767  0.7523 -0.6859
 6014TIP3    H239678   0.251   3.854   8.139  1.6041 -0.0306 -1.0747
 6015TIP3   OH239679   5.507   1.642   1.338  0.3969  0.3414 -0.2806
 6015TIP3    H139680   5.467   1.565   1.298 -0.8120  0.4479  0.6572
 6015TIP3    H239681   5.562   1.606   1.408 -1.2161  0.3319  1.0521
 6016TIP3   OH239682   6.357   0.223   2.177 -0.3064  0.2341 -0.0556
 6016TIP3    H139683   6.406   0.304   2.167 -1.4438  0.6695 -3.5064
 6016TIP3    H239684   6.399   0.161   2.117 -0.8574 -1.0207  0.7921
 6017TIP3   OH239685   1.112   3.421   1.291  0.2401 -0.3777 -0.4024
 6017TIP3    H139686   1.100   3.503   1.338  4.1632  0.0368  0.2456
 6017TIP3    H239687   1.023   3.392   1.269 -1.3829  3.1447  0.7711
 6018TIP3   OH239688   1.765   0.997   0.020 -0.6942  0.0950 -0.2335
 6018TIP3    H139689   1.695   0.945  -0.020 -0.7651  0.4259 -0.5377
 6018TIP3    H239690   1.827   0.931   0.052  0.2929 -0.1755 -2.5238
 6019TIP3   OH239691   1.994   0.340   2.206  0.0023 -0.2710  0.3869
 6019TIP3    H139692   1.966   0.431   2.196  0.8197 -0.1112 -0.6987
 6019TIP3    H239693   2.089   0.343   2.191 -0.1357 -1.4524 -0.9117
 6020TIP3   OH239694   1.192   1.145   2.156  0.5804  0.2082  0.7351
 6020TIP3    H139695   1.254   1.148   2.083 -0.9549 -1.6710 -0.7522
 6020TIP3    H239696   1.211   1.062   2.199 -0.2244  0.1016  0.8910
 6021TIP3   OH239697   1.808   6.709   1.558  0.3642 -0.0877  0.6694
 6021TIP3    H139698   1.873   6.709   1.629  0.4560  1.0780  0.6114
 6021TIP3    H239699   1.745   6.776   1.584  0.2568  0.1663 -0.2304
 6022TIP3   OH239700   1.197   0.888   3.259  0.0043  0.5043  0.3648
 6022TIP3    H139701   1.194   0.935   3.176 -0.9606 -0.9018 -0.4422
 6022TIP3    H239702   1.191   0.956   3.325 -1.0731  1.5371 -0.7382
 6023TIP3   OH239703   2.829   2.324   3.121 -0.6374  0.1451  0.4106
 6023TIP3    H139704   2.735   2.330   3.139 -0.5803  0.9040  0.4857
 6023TIP3    H239705   2.837   2.252   3.058 -1.3078  0.3175  0.1204
 6024TIP3   OH239706   2.242   4.414   8.482 -0.0135 -0.1452  0.3474
 6024TIP3    H139707   2.222   4.462   8.562  0.2114 -0.6455  0.7028
 6024TIP3    H239708   2.293   4.339   8.511 -0.1516 -0.4673 -0.2392
 6025TIP3   OH239709   1.599   3.736   2.831 -0.5096 -0.4262  0.1111
 6025TIP3    H139710   1.601   3.797   2.757 -0.0662 -1.2557 -0.5748
 6025TIP3    H239711   1.554   3.784   2.901 -1.0827  0.3102 -0.7486
 6026TIP3   OH239712   1.243   2.784   8.668  0.3034 -0.0786  0.2712
 6026TIP3    H139713   1.256   2.752   8.579 -2.8102 -2.9311  0.6507
 6026TIP3    H239714   1.177   2.853   8.659  0.3592 -0.0196  0.3157
 6027TIP3   OH239715   1.859   0.634   0.896 -0.2873 -0.3173  0.3176
 6027TIP3    H139716   1.885   0.617   0.986  0.0684  0.6660  0.4207
 6027TIP3    H239717   1.885   0.725   0.881  0.5578 -0.7580 -1.0833
 6028TIP3   OH239718   4.346   1.168   0.145 -0.2556  0.1045  0.3737
 6028TIP3    H139719   4.275   1.220   0.107  1.6222  1.3795 -1.5842
 6028TIP3    H239720   4.364   1.100   0.080 -1.6889 -2.2683  2.2599
 6029TIP3   OH239721   3.859   4.603   0.815  0.4481 -0.2782 -0.0354
 6029TIP3    H139722   3.925   4.662   0.851  2.1248 -2.4457  0.6515
 6029TIP3    H239723   3.870   4.522   0.864 -1.9084 -1.1284 -0.7907
 6030TIP3   OH239724   1.530   5.768   2.476  0.0202  0.0089 -0.4298
 6030TIP3    H139725   1.558   5.678   2.492 -0.6872 -0.0766  0.4050
 6030TIP3    H239726   1.440   5.771   2.507  0.5887  1.4439  1.2745
 6031TIP3   OH239727   0.259   3.077   2.320 -0.1279 -0.5627  0.7017
 6031TIP3    H139728   0.263   3.166   2.355 -0.3511 -0.5945  0.8120
 6031TIP3    H239729   0.182   3.078   2.263  0.6714 -0.3008 -0.3948
 6032TIP3   OH239730   3.374   6.825   3.925 -0.3634  0.6501  0.0120
 6032TIP3    H139731   3.388   6.897   3.863 -1.7648  0.4917 -0.5282
 6032TIP3    H239732   3.288   6.843   3.962 -0.7382 -0.7702 -0.1462
 6033TIP3   OH239733   0.888   5.550   0.843 -0.4531 -0.2056 -0.8143
 6033TIP3    H139734   0.831   5.534   0.918 -1.6660 -0.8018 -1.8159
 6033TIP3    H239735   0.864   5.637   0.811  1.0482  0.6510  0.2944
 6034TIP3   OH239736   4.342   2.306   0.336 -0.5635  0.0748 -0.4591
 6034TIP3    H139737   4.381   2.378   0.286 -2.6820  0.5014 -1.6129
 6034TIP3    H239738   4.327   2.343   0.423 -0.1909  0.5124 -0.5733
 6035TIP3   OH239739   5.078   3.850   2.495  0.0412  1.0437 -0.6594
 6035TIP3    H139740   5.160   3.833   2.541 -0.6538 -0.9406 -0.0420
 6035TIP3    H239741   5.062   3.943   2.507  0.8232  0.9493  1.5420
 6036TIP3   OH239742   5.218   4.706   7.997  0.0275  0.0889 -0.0986
 6036TIP3    H139743   5.253   4.639   7.940  0.5150 -0.0829  0.3986
 6036TIP3    H239744   5.291   4.730   8.055 -0.5096  0.1097  0.5872
 6037TIP3   OH239745   5.062   5.730   2.734 -0.3822  0.2458  0.5126
 6037TIP3    H139746   5.063   5.750   2.640 -1.1934 -1.0580  0.2011
 6037TIP3    H239747   5.018   5.646   2.740  1.6776 -0.8322  1.8528
 6038TIP3   OH239748   3.697   2.014   3.154  0.0303 -0.0225  0.4309
 6038TIP3    H139749   3.618   2.013   3.208 -1.1262  2.7480 -1.0043
 6038TIP3    H239750   3.666   1.996   3.065  1.2200 -0.0547  0.0026
 6039TIP3   OH239751   3.705   4.467   1.463  0.4160  0.0312 -0.3254
 6039TIP3    H139752   3.788   4.425   1.439  0.6674 -0.2620  1.0081
 6039TIP3    H239753   3.728   4.559   1.476 -0.1776  0.7393 -3.4772
 6040TIP3   OH239754   6.394   3.186   8.630 -0.1146 -0.2153 -0.3458
 6040TIP3    H139755   6.371   3.215   8.718  0.7360  0.3370 -0.2910
 6040TIP3    H239756   6.377   3.092   8.630  0.8520 -0.4069  0.7447
 6041TIP3   OH239757   2.842   4.430   1.954  0.2492 -0.1251 -0.2294
 6041TIP3    H139758   2.884   4.365   1.898  0.2856 -0.6143  0.3683
 6041TIP3    H239759   2.915   4.482   1.989  0.1913  0.5427 -1.0710
 6042TIP3   OH239760   3.406   4.025   3.115 -0.1486  0.3831 -0.1429
 6042TIP3    H139761   3.403   3.929   3.114  0.3946  0.3600  0.0075
 6042TIP3    H239762   3.476   4.046   3.178  0.2442  0.8588 -0.7244
 6043TIP3   OH239763   0.381   1.892   0.303  0.7944  0.5842  0.5660
 6043TIP3    H139764   0.469   1.861   0.323 -0.3679 -2.0649  2.1252
 6043TIP3    H239765   0.352   1.934   0.384  0.5958  1.4468  0.0590
 6044TIP3   OH239766   5.800   4.348   3.839 -0.1124  0.1122 -0.1896
 6044TIP3    H139767   5.873   4.343   3.777 -0.7774 -0.1325 -0.9777
 6044TIP3    H239768   5.788   4.441   3.854 -0.4836  0.2272 -1.1119
 6045TIP3   OH239769   0.283   5.379   3.158 -0.3660 -0.0044  0.8023
 6045TIP3    H139770   0.210   5.321   3.136  0.8524 -1.4108  0.2597
 6045TIP3    H239771   0.344   5.323   3.207  1.2531  0.5420 -0.4902
 6046TIP3   OH239772   0.890   4.044   2.211  0.1412  0.2153 -0.5505
 6046TIP3    H139773   0.844   3.962   2.194  0.6498 -0.0295 -0.7735
 6046TIP3    H239774   0.946   4.056   2.134 -1.9457  2.2086 -1.8990
 6047TIP3   OH239775   5.660   0.321   8.511  0.7803  0.3553 -0.7069
 6047TIP3    H139776   5.626   0.347   8.426 -0.2808  0.9011 -0.1426
 6047TIP3    H239777   5.595   0.353   8.573  0.4519 -1.8858  0.1785
 6048TIP3   OH239778   1.108   3.815   3.241 -0.0382  0.3607  0.7984
 6048TIP3    H139779   1.101   3.884   3.307 -1.6220 -0.2655  1.3264
 6048TIP3    H239780   1.020   3.807   3.204  0.7617  0.5643 -1.2908
 6049TIP3   OH239781   0.079   5.797   2.643  0.0439  0.5879  0.3860
 6049TIP3    H139782   0.157   5.779   2.591  0.3538  2.0175  0.3215
 6049TIP3    H239783   0.014   5.828   2.580 -0.3477  0.1011  0.5420
 6050TIP3   OH239784   0.767   1.165   2.337 -0.3885 -0.2448  0.3192
 6050TIP3    H139785   0.689   1.147   2.284 -0.5223 -1.5052  0.9222
 6050TIP3    H239786   0.782   1.259   2.325  0.4295 -0.6593 -3.0745
 6051TIP3   OH239787   2.892   0.291   0.513  0.2498 -0.8017  0.0047
 6051TIP3    H139788   2.962   0.335   0.560 -0.3420 -0.6698  0.7885
 6051TIP3    H239789   2.845   0.241   0.581 -0.8743 -0.2759 -0.3619
 6052TIP3   OH239790   2.761   4.766   0.499 -0.6404  0.4835 -0.0428
 6052TIP3    H139791   2.806   4.696   0.453  0.5910  1.6493 -0.6736
 6052TIP3    H239792   2.735   4.727   0.583  0.6594 -0.5059 -0.0747
 6053TIP3   OH239793   4.743   1.797   2.930 -0.4344  0.0972 -0.1978
 6053TIP3    H139794   4.656   1.789   2.891 -0.7833 -0.3748  0.6644
 6053TIP3    H239795   4.737   1.876   2.984 -0.2239  0.2394 -0.3781
 6054TIP3   OH239796   6.730   0.523   3.137  0.0419 -0.0648  0.2592
 6054TIP3    H139797   6.669   0.595   3.118 -0.5490  0.4150  3.4274
 6054TIP3    H239798   6.677   0.444   3.126  0.1294  0.0354 -1.1951
 6055TIP3   OH239799   4.604   0.736   8.612  0.1056 -0.1937  0.0510
 6055TIP3    H139800   4.628   0.769   8.526 -2.6603 -0.2438 -0.8540
 6055TIP3    H239801   4.607   0.641   8.602 -3.5238 -0.3354 -1.2393
 6056TIP3   OH239802   6.548   3.403   2.577 -0.1438 -0.3083  0.3830
 6056TIP3    H139803   6.528   3.443   2.492 -1.8021 -1.2626  0.2697
 6056TIP3    H239804   6.493   3.325   2.580  2.0271 -1.9148  1.1265
 6057TIP3   OH239805   0.301   2.193   2.230  0.3404  0.2765 -0.1420
 6057TIP3    H139806   0.223   2.187   2.175  0.7968 -0.8195 -0.7141
 6057TIP3    H239807   0.296   2.279   2.271 -3.1784 -1.0625  2.8435
 6058TIP3   OH239808   0.690   2.663   0.922 -0.0183 -0.1637 -0.5606
 6058TIP3    H139809   0.734   2.703   0.997 -1.2940  1.4289 -0.6073
 6058TIP3    H239810   0.614   2.718   0.906 -0.1540 -0.8456 -2.6288
 6059TIP3   OH239811   4.525   4.730   0.062 -0.3392 -0.3116 -0.3607
 6059TIP3    H139812   4.562   4.642   0.066  1.5546  0.4252 -0.7038
 6059TIP3    H239813   4.572   4.780   0.129 -2.4845  0.0945  0.9335
 6060TIP3   OH239814   3.290   5.471   0.743 -0.6375  0.4156 -0.2196
 6060TIP3    H139815   3.231   5.396   0.748 -0.7287  0.5086  0.1038
 6060TIP3    H239816   3.357   5.443   0.680  0.0863 -0.4844  0.9018
 6061TIP3   OH239817   0.163   5.823   2.909 -0.3455  0.2574 -0.7203
 6061TIP3    H139818   0.149   5.805   2.816 -1.5124  0.8261 -0.6666
 6061TIP3    H239819   0.076   5.835   2.945  0.0460 -0.6678  0.6173
 6062TIP3   OH239820   6.136   4.875   2.444  0.6954 -0.2546 -0.5498
 6062TIP3    H139821   6.084   4.846   2.369  0.1621  0.1077 -0.3214
 6062TIP3    H239822   6.152   4.795   2.495 -2.0321 -0.0075  0.8757
 6063TIP3   OH239823   0.373   3.863   1.896  0.0570 -0.2003  0.2535
 6063TIP3    H139824   0.392   3.800   1.827 -1.4604 -0.8732  0.4031
 6063TIP3    H239825   0.449   3.920   1.898  1.4226 -1.9137 -0.0098
 6064TIP3   OH239826   2.457   6.765   0.955  0.7433  0.5116  0.0041
 6064TIP3    H139827   2.534   6.787   1.008  0.1094  1.6754  0.4804
 6064TIP3    H239828   2.389   6.746   1.019  0.5265 -0.1422 -0.4142
 6065TIP3   OH239829   5.351   5.960   8.036 -0.0681  0.4534  0.0393
 6065TIP3    H139830   5.287   5.921   8.096  0.7615  1.6245  1.7687
 6065TIP3    H239831   5.316   6.047   8.018  0.4400  0.6541  0.0239
 6066TIP3   OH239832   5.267   3.793   8.540 -0.1128 -0.3083 -0.5497
 6066TIP3    H139833   5.353   3.791   8.498  0.1009  0.4509 -0.1652
 6066TIP3    H239834   5.207   3.818   8.471  0.3641  1.8889 -0.2488
 6067TIP3   OH239835   5.970   3.076   0.473  0.0493  0.1069  0.1247
 6067TIP3    H139836   6.001   3.010   0.411 -0.1013 -0.2136  0.3860
 6067TIP3    H239837   6.012   3.053   0.556 -0.5236 -0.0544  0.3727
 6068TIP3   OH239838   5.237   5.787   1.406  0.3626  0.2632  0.1913
 6068TIP3    H139839   5.197   5.814   1.488 -0.0473  0.0617  0.0620
 6068TIP3    H239840   5.331   5.780   1.425  0.1470 -0.8250  0.9332
 6069TIP3   OH239841   4.655   0.793   0.142 -0.0681 -0.9952 -0.4198
 6069TIP3    H139842   4.637   0.796   0.048 -1.1186 -0.6441 -0.2217
 6069TIP3    H239843   4.569   0.791   0.183  0.2895  1.3117  0.6108
 6070TIP3   OH239844   2.673   4.922   1.107 -0.1965  0.5095 -0.6033
 6070TIP3    H139845   2.673   5.017   1.101  1.0243  0.4473 -2.4354
 6070TIP3    H239846   2.765   4.898   1.116 -0.2643 -0.5325 -2.1242
 6071TIP3   OH239847   1.806   2.581   0.295 -0.3845  0.1493  0.7542
 6071TIP3    H139848   1.835   2.602   0.206  0.2597  0.8263  1.1057
 6071TIP3    H239849   1.833   2.490   0.308  2.2192  0.9054  1.2716
 6072TIP3   OH239850   3.678   6.846   3.783 -0.1730  0.1063 -0.0044
 6072TIP3    H139851   3.634   6.899   3.849 -1.2593  0.2807 -0.8477
 6072TIP3    H239852   3.744   6.797   3.832 -0.5412  0.6866  1.1049
 6073TIP3   OH239853   4.346   1.985   2.457 -0.2422  0.0021 -0.1862
 6073TIP3    H139854   4.400   1.968   2.535 -0.8900  0.3980  0.3603
 6073TIP3    H239855   4.354   2.079   2.442 -0.3635 -0.0225 -0.4039
 6074TIP3   OH239856   6.203   1.168   1.276  0.0980  0.0499 -0.2524
 6074TIP3    H139857   6.269   1.102   1.297  0.4568  0.3792 -0.3293
 6074TIP3    H239858   6.211   1.182   1.181  0.4387  0.6340 -0.1458
 6075TIP3   OH239859   0.891   5.698   1.869 -0.0604 -0.1873 -0.3398
 6075TIP3    H139860   0.926   5.703   1.780 -1.2560  1.4657 -0.7562
 6075TIP3    H239861   0.967   5.679   1.923  1.0482  0.7591 -1.4984
 6076TIP3   OH239862   1.220   1.212   0.856  1.1944  0.3722 -0.2917
 6076TIP3    H139863   1.229   1.233   0.949 -0.8774 -1.5494  0.4538
 6076TIP3    H239864   1.144   1.263   0.828  1.1995  0.1927 -0.6355
 6077TIP3   OH239865   2.793   5.485   1.455 -0.0309 -0.4315  0.4670
 6077TIP3    H139866   2.724   5.514   1.515 -0.5153  0.0819 -0.3046
 6077TIP3    H239867   2.808   5.394   1.478 -0.3475 -0.3021  1.2263
 6078TIP3   OH239868   0.928   6.349   1.546  0.2372  0.2295 -0.0685
 6078TIP3    H139869   0.985   6.339   1.622  0.3946 -2.2978 -0.4229
 6078TIP3    H239870   0.941   6.440   1.518  0.8878  0.9435  2.3133
 6079TIP3   OH239871   2.815   4.922   1.561  0.3689  0.3462 -0.0648
 6079TIP3    H139872   2.750   4.860   1.528 -0.3889  0.5974  0.9127
 6079TIP3    H239873   2.885   4.920   1.496 -0.6973  0.2201 -1.2469
 6080TIP3   OH239874   3.830   3.121   2.544 -0.4990 -0.2932 -0.7118
 6080TIP3    H139875   3.858   3.033   2.516  2.5224  0.7023 -1.1961
 6080TIP3    H239876   3.851   3.124   2.637 -2.0499 -0.5350 -0.3211
 6081TIP3   OH239877   2.554   6.455   2.162  0.1881  0.4706 -0.4690
 6081TIP3    H139878   2.571   6.548   2.181 -0.4548  0.2598  1.3523
 6081TIP3    H239879   2.524   6.454   2.071 -0.8151  2.1904 -0.2067
 6082TIP3   OH239880   0.719   0.228   3.578  0.0482 -0.5884 -0.1349
 6082TIP3    H139881   0.645   0.184   3.620 -0.3598 -0.9853 -1.2334
 6082TIP3    H239882   0.752   0.288   3.645 -2.0009  0.4595  0.0465
 6083TIP3   OH239883   2.010   4.442   2.886 -0.4091 -0.0640  0.0070
 6083TIP3    H139884   2.026   4.493   2.806  1.1940 -0.8352 -0.2090
 6083TIP3    H239885   2.057   4.360   2.871 -1.4960 -0.8994  1.0705
 6084TIP3   OH239886   2.125   2.481   0.268  0.2207 -0.3498  0.0652
 6084TIP3    H139887   2.206   2.514   0.306  0.7156 -0.3832 -0.9245
 6084TIP3    H239888   2.153   2.414   0.206 -0.5397 -0.1731 -0.4854
 6085TIP3   OH239889   4.847   2.518   0.068 -0.0810 -0.1376 -0.3641
 6085TIP3    H139890   4.810   2.606   0.062  0.4138  0.0831 -0.2900
 6085TIP3    H239891   4.938   2.529   0.038  0.2713 -0.4388  0.5598
 6086TIP3   OH239892   1.007   2.691   1.226 -0.5936  0.7583 -0.2053
 6086TIP3    H139893   0.969   2.720   1.143  1.7015 -1.0609 -2.0577
 6086TIP3    H239894   0.986   2.598   1.230 -1.7472  1.0687  1.9520
 6087TIP3   OH239895   1.545   2.588   0.193  0.1846  0.6476 -0.1779
 6087TIP3    H139896   1.515   2.679   0.200  1.9493  1.3633 -1.2890
 6087TIP3    H239897   1.637   2.590   0.219 -0.2397 -1.2171  1.7007
 6088TIP3   OH239898   1.034   4.099   0.631  0.2902  1.0401 -0.0179
 6088TIP3    H139899   1.011   4.093   0.724  0.4505 -1.6054 -0.0660
 6088TIP3    H239900   1.070   4.187   0.621  2.3210  0.6968  2.9301
 6089TIP3   OH239901   3.770   0.089   1.801 -0.4430 -0.1303  0.3770
 6089TIP3    H139902   3.799   0.151   1.868 -1.6359  0.1867  0.6270
 6089TIP3    H239903   3.730   0.018   1.851  1.5112 -1.4739  0.1333
 6090TIP3   OH239904   4.483   3.746   0.679 -0.8647  0.5385 -0.2078
 6090TIP3    H139905   4.505   3.767   0.588  1.5262 -0.9184 -0.0680
 6090TIP3    H239906   4.412   3.682   0.673  0.3385 -0.7710 -1.1743
 6091TIP3   OH239907   3.475   4.805   3.782 -0.0554  0.0942  0.0166
 6091TIP3    H139908   3.391   4.851   3.788 -0.7601 -0.3354 -3.8641
 6091TIP3    H239909   3.539   4.867   3.818 -1.8128  0.8439  2.1087
 6092TIP3   OH239910   1.522   0.303   1.823 -0.1571  0.4197  0.0772
 6092TIP3    H139911   1.473   0.354   1.888 -1.8270  0.5768 -1.2329
 6092TIP3    H239912   1.481   0.325   1.740  1.6592 -0.0923 -1.0106
 6093TIP3   OH239913   6.333   3.792   8.300  0.6305  0.3437 -0.3643
 6093TIP3    H139914   6.415   3.743   8.302  0.6284  0.1788 -2.4827
 6093TIP3    H239915   6.360   3.883   8.296  0.6416  0.4817  1.6838
 6094TIP3   OH239916   0.544   0.143   2.267 -0.0418  0.5277 -0.0977
 6094TIP3    H139917   0.583   0.143   2.179  2.3134 -0.3794  0.8635
 6094TIP3    H239918   0.542   0.050   2.292  0.3474  0.8544  1.2173
 6095TIP3   OH239919   3.621   3.766   3.353  0.2107 -0.2698  0.0674
 6095TIP3    H139920   3.686   3.804   3.294  0.7683 -0.4905  0.5381
 6095TIP3    H239921   3.590   3.840   3.405 -1.0594  0.1384 -1.1910
 6096TIP3   OH239922   3.842   3.071   1.570  0.8424 -0.0238  0.1406
 6096TIP3    H139923   3.781   3.004   1.538 -1.9748  2.2278  0.3737
 6096TIP3    H239924   3.888   3.101   1.491  0.0935 -0.3113 -0.4190
 6097TIP3   OH239925   5.695   3.852   2.185  0.0999 -0.0928  0.2314
 6097TIP3    H139926   5.745   3.908   2.245 -1.0767  1.0334  0.2189
 6097TIP3    H239927   5.749   3.774   2.174  1.2968  0.5717  1.1229
 6098TIP3   OH239928   5.237   0.212   3.231  0.4457 -0.0519  0.0374
 6098TIP3    H139929   5.143   0.203   3.246  0.2354  0.9474 -0.5896
 6098TIP3    H239930   5.275   0.217   3.319 -0.0088 -1.0395  0.3068
 6099TIP3   OH239931   1.010   1.600   1.668 -0.0865 -0.0110  0.6748
 6099TIP3    H139932   0.962   1.683   1.668  0.0896  0.4691 -4.8298
 6099TIP3    H239933   0.941   1.533   1.670 -1.2798  0.6490 -4.3633
 6100TIP3   OH239934   6.428   2.259   0.362  0.0880 -0.3729  0.1760
 6100TIP3    H139935   6.415   2.183   0.305 -0.6743  1.0146 -1.6396
 6100TIP3    H239936   6.506   2.302   0.327  1.0192 -0.7434  1.7240
 6101TIP3   OH239937   1.911   6.286   3.393  0.0717 -0.6806  0.5343
 6101TIP3    H139938   1.887   6.193   3.385 -0.3817 -0.4904 -0.5493
 6101TIP3    H239939   1.992   6.294   3.344  0.5280 -0.6465  1.2858
 6102TIP3   OH239940   2.392   1.336   3.908 -0.3104  0.3607 -0.2119
 6102TIP3    H139941   2.303   1.371   3.915 -0.4607 -0.3172  2.2731
 6102TIP3    H239942   2.380   1.242   3.894 -0.0380  0.1304  0.9817
 6103TIP3   OH239943   4.275   0.876   3.388 -0.1377  0.8532 -0.5816
 6103TIP3    H139944   4.183   0.865   3.414 -0.0077 -0.7562 -0.7194
 6103TIP3    H239945   4.273   0.950   3.327 -1.6202 -0.1134 -1.8011
 6104TIP3   OH239946   3.912   5.391   8.191  0.2267 -0.0103  0.7106
 6104TIP3    H139947   3.825   5.355   8.176  0.5184 -0.2734 -0.3641
 6104TIP3    H239948   3.912   5.474   8.144  1.1370 -0.8335 -0.8085
 6105TIP3   OH239949   0.097   2.595   2.541  0.0200 -0.2089  0.2582
 6105TIP3    H139950   0.031   2.621   2.606 -0.0624  3.2725 -0.9983
 6105TIP3    H239951   0.180   2.598   2.588 -0.2358  0.3744  0.6841
 6106TIP3   OH239952   4.660   0.809   3.689 -0.2078 -0.2521  0.2772
 6106TIP3    H139953   4.663   0.891   3.640 -0.1591  0.9827  2.2708
 6106TIP3    H239954   4.751   0.779   3.691 -0.2088 -0.3133 -0.3671
 6107TIP3   OH239955   4.985   1.224   3.363 -0.5873  0.0791 -0.0558
 6107TIP3    H139956   4.951   1.161   3.299 -0.5726 -1.0652  1.0239
 6107TIP3    H239957   4.988   1.176   3.445  0.5365  1.1587  0.5763
 6108TIP3   OH239958   3.996   1.249   2.212  0.1016  0.6409 -0.1629
 6108TIP3    H139959   3.926   1.198   2.252 -0.8877  1.5828 -0.6588
 6108TIP3    H239960   4.076   1.212   2.249 -0.7064  0.4767  1.5080
 6109TIP3   OH239961   1.363   6.850   2.907  0.0254  0.1326 -0.2819
 6109TIP3    H139962   1.304   6.920   2.934 -0.8163 -0.8744  0.5470
 6109TIP3    H239963   1.307   6.773   2.898  1.4527 -1.3661  2.5187
 6110TIP3   OH239964   4.926   2.221   2.016  0.0318  0.1314 -0.6195
 6110TIP3    H139965   4.842   2.267   2.013 -0.0486  0.1178  0.9430
 6110TIP3    H239966   4.903   2.129   2.029  0.2635 -0.0626 -1.5130
 6111TIP3   OH239967   4.288   3.803   0.997  0.4121 -0.3999  0.6808
 6111TIP3    H139968   4.381   3.801   1.022  1.1922 -2.0324 -1.9368
 6111TIP3    H239969   4.249   3.729   1.043  0.6385 -0.3348  0.9822
 6112TIP3   OH239970   5.689   3.241   2.817 -0.1008  0.3310 -0.0160
 6112TIP3    H139971   5.747   3.307   2.778 -1.2728  1.3785 -0.0457
 6112TIP3    H239972   5.604   3.257   2.776 -0.3763 -1.3364 -0.1468
 6113TIP3   OH239973   4.404   3.828   1.891 -0.0369  0.2398  0.4211
 6113TIP3    H139974   4.480   3.829   1.949  0.5549 -0.9745 -0.2917
 6113TIP3    H239975   4.430   3.771   1.818 -1.3610  0.3966 -0.2061
 6114TIP3   OH239976   2.153   5.344   3.728  0.3057  0.4015  0.2200
 6114TIP3    H139977   2.196   5.290   3.662  0.2858  0.1717  0.3940
 6114TIP3    H239978   2.123   5.282   3.794 -0.6619  0.5028 -0.0995
 6115TIP3   OH239979   1.457   6.409   4.162 -0.2705 -0.1105  0.0108
 6115TIP3    H139980   1.493   6.482   4.212 -0.3185  0.1179 -0.2809
 6115TIP3    H239981   1.364   6.430   4.153 -0.7686 -1.3053  1.8268
 6116TIP3   OH239982   3.891   0.297   1.153 -0.2822 -0.2494  0.0238
 6116TIP3    H139983   3.807   0.326   1.117 -0.8433 -0.2853  1.2671
 6116TIP3    H239984   3.869   0.221   1.206  0.2929  0.6276  1.5750
 6117TIP3   OH239985   1.942   5.149   1.913  0.5237  0.1724  0.1268
 6117TIP3    H139986   1.996   5.081   1.954  0.3499 -0.9601 -1.4174
 6117TIP3    H239987   1.857   5.107   1.899  0.2518  0.8720 -0.3840
 6118TIP3   OH239988   4.208   5.341   1.651  0.3242  0.3910 -0.1727
 6118TIP3    H139989   4.220   5.308   1.740  2.9358  0.3471 -0.4723
 6118TIP3    H239990   4.242   5.431   1.654 -1.3515  1.0852 -0.7212
 6119TIP3   OH239991   3.817   1.004   0.085 -0.3258 -0.1360 -0.2000
 6119TIP3    H139992   3.742   1.005   0.144 -0.0498 -1.3854  0.1978
 6119TIP3    H239993   3.870   1.079   0.112 -1.9666  1.4949 -1.2545
 6120TIP3   OH239994   1.767   6.722   3.152 -0.1240  0.4757 -0.2964
 6120TIP3    H139995   1.836   6.782   3.181  0.6529 -0.2922 -0.4841
 6120TIP3    H239996   1.758   6.660   3.224  1.6536 -1.3039 -1.4826
 6121TIP3   OH239997   5.248   5.482   3.210  0.5852  0.0903  0.2236
 6121TIP3    H139998   5.210   5.440   3.133 -0.2690  2.5310 -0.7997
 6121TIP3    H239999   5.311   5.545   3.174  0.0305  1.4161  1.4651
 6122TIP3   OH240000   2.080   1.151   3.203  0.3758  0.4590 -0.7900
 6122TIP3    H140001   2.031   1.082   3.247  1.6292  0.2994  0.4516
 6122TIP3    H240002   2.154   1.169   3.262 -0.5207  3.7054 -0.4183
 6123TIP3   OH240003   5.668   3.879   1.616  0.0811 -0.1667 -0.1690
 6123TIP3    H140004   5.689   3.841   1.702  0.3666  1.2550  0.4258
 6123TIP3    H240005   5.637   3.805   1.564 -1.9397 -0.7744  1.7439
 6124TIP3   OH240006   6.280   1.594   2.524 -0.1436  0.3198 -0.4370
 6124TIP3    H140007   6.261   1.686   2.543  1.2693  0.5142  0.1202
 6124TIP3    H240008   6.339   1.597   2.449  0.3154 -0.1092 -0.0942
 6125TIP3   OH240009   2.175   3.860   3.168 -0.2593 -0.4237 -0.0576
 6125TIP3    H140010   2.173   3.861   3.264  0.4175 -3.1438  0.0780
 6125TIP3    H240011   2.251   3.806   3.146 -1.4877 -1.4743 -2.0680
 6126TIP3   OH240012   3.004   4.077   2.671  0.0331  0.5609 -0.1480
 6126TIP3    H140013   2.964   4.038   2.749 -0.3272  1.6204  0.2148
 6126TIP3    H240014   3.093   4.099   2.698  0.5822 -0.8835 -0.6578
 6127TIP3   OH240015   0.216   4.283   1.002 -0.3566  0.0855  0.0305
 6127TIP3    H140016   0.136   4.242   1.035 -1.2189  1.6192 -0.0702
 6127TIP3    H240017   0.240   4.231   0.925 -0.5122 -1.1764  0.8169
 6128TIP3   OH240018   0.977   3.370   0.381  0.5359  0.4564  0.1173
 6128TIP3    H140019   1.072   3.361   0.374  0.7043  1.9194  0.1164
 6128TIP3    H240020   0.959   3.459   0.351 -1.1296 -0.6194 -2.5119
 6129TIP3   OH240021   3.210   3.313   0.219  0.5452  0.3239 -0.2242
 6129TIP3    H140022   3.138   3.325   0.281 -0.0002  0.1101 -0.8049
 6129TIP3    H240023   3.168   3.283   0.139  1.3192 -0.1368 -0.4715
 6130TIP3   OH240024   0.593   1.214   4.021 -0.1551  0.4554  0.2703
 6130TIP3    H140025   0.554   1.263   3.949  0.5961  1.1557  0.3340
 6130TIP3    H240026   0.519   1.188   4.076 -0.7605 -0.2646 -0.8468
 6131TIP3   OH240027   2.038   0.400   3.170  0.0553  0.3478 -0.8134
 6131TIP3    H140028   1.958   0.347   3.162  0.1366  0.3336 -1.5752
 6131TIP3    H240029   2.095   0.348   3.227  1.0919 -1.6047 -3.4312
 6132TIP3   OH240030   0.211   5.398   2.139 -0.5269  0.0721 -0.1852
 6132TIP3    H140031   0.174   5.413   2.052  0.9010  1.4107 -0.6091
 6132TIP3    H240032   0.241   5.484   2.168  1.5461 -0.7734  0.4182
 6133TIP3   OH240033   1.383   6.353   2.451 -0.4220 -0.0078 -0.1773
 6133TIP3    H140034   1.346   6.271   2.484 -0.2044 -0.1602 -0.3053
 6133TIP3    H240035   1.410   6.332   2.362 -2.7623  0.9210 -1.1809
 6134TIP3   OH240036   0.819   6.140   1.396 -0.2546  0.3816  0.0780
 6134TIP3    H140037   0.878   6.213   1.414  0.9014 -0.5305  0.1268
 6134TIP3    H240038   0.776   6.123   1.481  1.4420 -0.6715  0.7665
 6135TIP3   OH240039   0.542   1.078   1.702  0.6775  0.2062  0.3631
 6135TIP3    H140040   0.519   0.986   1.708  0.7421  0.1694  0.0348
 6135TIP3    H240041   0.459   1.124   1.714  0.5223  0.0865 -0.2315
 6136TIP3   OH240042   1.705   1.891   0.818  0.0377  0.4964 -0.5709
 6136TIP3    H140043   1.680   1.975   0.856 -0.0584 -0.6560  2.1522
 6136TIP3    H240044   1.801   1.894   0.815  0.0341  0.7201 -0.4904
 6137TIP3   OH240045   5.708   3.038   0.558 -0.1125  0.1744 -0.4290
 6137TIP3    H140046   5.682   3.092   0.633 -0.5353 -1.4073  0.6268
 6137TIP3    H240047   5.786   3.081   0.524  0.1331  0.9249  0.9760
 6138TIP3   OH240048   0.111   3.904   1.288  0.4954  0.2364 -0.0798
 6138TIP3    H140049   0.141   3.873   1.203  0.0104  1.0699 -0.5702
 6138TIP3    H240050   0.191   3.936   1.331  0.4952  1.6227 -1.0198
 6139TIP3   OH240051   6.866   4.145   2.845 -0.1446 -0.7852 -0.3531
 6139TIP3    H140052   6.890   4.067   2.794  2.0286 -0.5955  0.2831
 6139TIP3    H240053   6.881   4.119   2.936 -0.3767  0.0619 -0.0696
 6140TIP3   OH240054   5.850   0.161   2.095  0.2544  0.1390  0.2252
 6140TIP3    H140055   5.834   0.214   2.173 -0.1856  0.7591 -0.2700
 6140TIP3    H240056   5.941   0.178   2.072 -0.5369  2.7927 -1.4199
 6141TIP3   OH240057   4.345   1.504   8.439 -0.2838  0.2612 -0.0935
 6141TIP3    H140058   4.337   1.427   8.494  0.4483 -0.0680 -0.4429
 6141TIP3    H240059   4.313   1.476   8.353  0.7898  0.0887 -0.4466
 6142TIP3   OH240060   4.272   4.913   1.769  0.0381  0.0827 -1.0521
 6142TIP3    H140061   4.355   4.886   1.808  0.7170  1.8212 -1.1670
 6142TIP3    H240062   4.291   4.920   1.675 -0.5810 -0.6315 -1.2389
 6143TIP3   OH240063   3.593   4.345   2.311 -0.2680  0.2825  0.4366
 6143TIP3    H140064   3.592   4.255   2.279 -2.6931  0.5995 -0.5942
 6143TIP3    H240065   3.554   4.340   2.399 -3.3700  0.5713 -0.7827
 6144TIP3   OH240066   3.502   6.522   2.904  0.0024 -0.0155  0.3983
 6144TIP3    H140067   3.416   6.481   2.897  1.2675 -2.9045  0.5593
 6144TIP3    H240068   3.563   6.457   2.871  2.0093  2.8377 -2.0709
 6145TIP3   OH240069   1.126   1.175   1.127 -0.2787  0.1630  0.4746
 6145TIP3    H140070   1.102   1.132   1.209 -1.4215 -1.2418 -0.5355
 6145TIP3    H240071   1.210   1.136   1.103 -0.8103 -0.7853  0.0931
 6146TIP3   OH240072   5.138   4.180   0.135  0.2419  0.1520 -0.6605
 6146TIP3    H140073   5.058   4.165   0.187  1.9361  0.9065  2.4372
 6146TIP3    H240074   5.185   4.096   0.140  0.3634  0.1917 -1.1277
 6147TIP3   OH240075   3.453   0.033   2.298  0.0245 -0.1118 -0.0834
 6147TIP3    H140076   3.527  -0.008   2.254  1.6316  1.5950  0.8650
 6147TIP3    H240077   3.477   0.031   2.391 -1.6347 -0.4421  0.3734
 6148TIP3   OH240078   0.238   3.495   2.874 -0.2473 -0.0654  0.5619
 6148TIP3    H140079   0.198   3.409   2.860 -0.0313  0.0034 -0.6040
 6148TIP3    H240080   0.180   3.538   2.937 -1.3002 -0.4444 -0.1212
 6149TIP3   OH240081   4.191   6.840   1.486 -0.1801 -0.2179  0.3288
 6149TIP3    H140082   4.132   6.770   1.461 -1.2230 -0.0530  2.1539
 6149TIP3    H240083   4.135   6.917   1.493  0.2185 -0.0382  2.0110
 6150TIP3   OH240084   3.208   6.173   0.436 -0.1555  0.2744  0.1757
 6150TIP3    H140085   3.272   6.102   0.435 -1.0470 -0.5749  0.7554
 6150TIP3    H240086   3.259   6.253   0.421  0.7245 -0.5933 -1.7015
 6151TIP3   OH240087   5.486   3.494   1.518  0.3516 -0.5237 -0.5951
 6151TIP3    H140088   5.561   3.468   1.571  0.9455 -0.9896 -1.6270
 6151TIP3    H240089   5.522   3.503   1.430 -0.7509 -0.4608 -1.0491
 6152TIP3   OH240090   5.416   4.691   4.315 -0.0300 -0.8918  0.2000
 6152TIP3    H140091   5.341   4.748   4.330  0.5026 -0.5114  1.5245
 6152TIP3    H240092   5.390   4.606   4.351 -0.2192 -1.0667 -0.3311
 6153TIP3   OH240093   4.788   2.995   3.510  0.2236  0.7631 -0.0777
 6153TIP3    H140094   4.821   2.923   3.457 -0.6886 -0.2507  0.7053
 6153TIP3    H240095   4.714   3.030   3.460 -0.2003  0.2587  0.1943
 6154TIP3   OH240096   1.063   4.848   2.236  0.0570 -0.4496 -0.5215
 6154TIP3    H140097   1.112   4.826   2.157 -1.7664 -1.3244 -1.4760
 6154TIP3    H240098   0.979   4.880   2.204 -0.7362 -0.8186  1.0681
 6155TIP3   OH240099   3.852   6.627   3.877  0.1818 -0.3331  0.0464
 6155TIP3    H140100   3.808   6.628   3.962  0.4658 -1.6745  0.2289
 6155TIP3    H240101   3.861   6.534   3.856  3.3977 -0.1696  0.2791
 6156TIP3   OH240102   5.353   3.142   1.303 -0.0801 -0.3840 -0.2837
 6156TIP3    H140103   5.367   3.050   1.280 -2.1292 -1.0114  0.6726
 6156TIP3    H240104   5.370   3.146   1.397 -0.4939  0.0778 -0.2219
 6157TIP3   OH240105   6.500   1.759   1.409 -0.2723 -0.3793 -0.3419
 6157TIP3    H140106   6.552   1.679   1.422  0.3823 -0.0585 -0.9270
 6157TIP3    H240107   6.560   1.820   1.368 -0.1104  1.1953  2.0298
 6158TIP3   OH240108   5.795   4.229   1.654  0.4190 -0.4078 -0.4885
 6158TIP3    H140109   5.819   4.157   1.712 -0.5846  0.8330  1.5830
 6158TIP3    H240110   5.870   4.288   1.655  1.1080 -1.2154 -1.9210
 6159TIP3   OH240111   1.988   1.301   2.729  0.2939 -0.5649  0.5993
 6159TIP3    H140112   1.927   1.374   2.721  2.2207  1.2414  1.3953
 6159TIP3    H240113   1.986   1.277   2.822  1.0064 -0.2690  0.6997
 6160TIP3   OH240114   5.510   6.521   0.154  0.3442 -0.8068 -1.1072
 6160TIP3    H140115   5.445   6.590   0.140  1.3541  0.0202 -1.8817
 6160TIP3    H240116   5.563   6.551   0.227  1.6254 -0.0669 -2.2822
 6161TIP3   OH240117   6.646   6.813   0.071  0.1390 -0.1191 -0.2546
 6161TIP3    H140118   6.598   6.828   0.152  1.3791 -1.3843  0.7572
 6161TIP3    H240119   6.714   6.880   0.069 -0.5925  0.6452 -0.8805
 6162TIP3   OH240120   3.483   4.417   2.545  0.7709 -0.7785 -0.3780
 6162TIP3    H140121   3.543   4.487   2.569  2.7278 -2.4429 -0.1210
 6162TIP3    H240122   3.509   4.343   2.601 -1.9914 -1.3977  0.2248
 6163TIP3   OH240123   4.565   0.431   3.503 -0.2980 -0.0456  0.1730
 6163TIP3    H140124   4.651   0.453   3.537 -0.1634 -1.2354  0.6394
 6163TIP3    H240125   4.506   0.493   3.546  0.4286  1.4082 -0.8871
 6164TIP3   OH240126   1.289   5.962   3.436  0.2015 -0.1779 -0.5630
 6164TIP3    H140127   1.237   6.007   3.503 -0.7436 -3.3260  0.9760
 6164TIP3    H240128   1.374   5.947   3.478 -0.9216 -3.6444  0.7512
 6165TIP3   OH240129   2.909   4.390   2.572 -0.2529 -0.5625  0.4288
 6165TIP3    H140130   2.919   4.297   2.553  3.7548 -0.4139  1.0181
 6165TIP3    H240131   2.933   4.399   2.664 -1.7678  0.9565  0.7308
 6166TIP3   OH240132   4.046   0.790   3.495 -0.7122  0.4619 -0.0051
 6166TIP3    H140133   3.983   0.813   3.563 -0.2844  0.7906  0.2916
 6166TIP3    H240134   4.022   0.701   3.469  0.2146 -0.4209  1.8797
 6167TIP3   OH240135   4.046   1.721   1.835 -0.4034 -0.4427 -0.4884
 6167TIP3    H140136   4.015   1.696   1.922 -0.2026 -0.4832 -0.4280
 6167TIP3    H240137   4.139   1.696   1.834 -0.6674 -1.4771 -1.1070
 6168TIP3   OH240138   1.522   2.879   8.312  0.2900 -0.9786  0.4753
 6168TIP3    H140139   1.459   2.926   8.257 -0.7538  0.3757  2.7069
 6168TIP3    H240140   1.590   2.944   8.331 -0.4071 -0.7407  2.3721
 6169TIP3   OH240141   0.906   4.126   0.377 -0.1839  0.2646 -0.2482
 6169TIP3    H140142   0.879   4.217   0.383 -0.7283  0.0985 -0.0999
 6169TIP3    H240143   0.953   4.110   0.459  1.6919  0.9594 -1.1205
 6170TIP3   OH240144   3.791   2.475   2.911  0.1817 -0.2747 -0.6773
 6170TIP3    H140145   3.776   2.562   2.873 -1.7783 -0.3671 -0.2333
 6170TIP3    H240146   3.708   2.453   2.953  0.6917 -2.3041 -0.6365
 6171TIP3   OH240147   6.561   2.370   2.198  0.4366 -0.1299 -0.2826
 6171TIP3    H140148   6.629   2.428   2.165  0.5493  1.6195  2.6658
 6171TIP3    H240149   6.481   2.400   2.154  0.5636  2.0875  0.8531
 6172TIP3   OH240150   0.007   3.683   0.012 -0.8782  0.0939  0.4524
 6172TIP3    H140151   0.025   3.692  -0.081  0.1356  3.6226  0.8503
 6172TIP3    H240152   0.069   3.617   0.042 -0.5327 -0.3766 -1.1738
 6173TIP3   OH240153   0.929   1.334   1.392 -0.0441  0.7645  0.1131
 6173TIP3    H140154   0.861   1.400   1.384 -0.8007 -0.1523 -1.5220
 6173TIP3    H240155   0.991   1.355   1.322  0.6230  0.7723  0.7021
 6174TIP3   OH240156   5.193   0.632   1.393  0.3570  0.1484 -0.7338
 6174TIP3    H140157   5.188   0.723   1.422  0.8503  0.1490 -0.6371
 6174TIP3    H240158   5.109   0.615   1.352 -0.3613  0.1673  0.6562
 6175TIP3   OH240159   4.964   6.561   0.307 -0.2288  0.2636 -0.3235
 6175TIP3    H140160   4.933   6.650   0.324 -0.8942 -0.1510  0.7281
 6175TIP3    H240161   4.885   6.510   0.289 -0.0686 -0.5121  1.0243
 6176TIP3   OH240162   3.356   1.528   3.930 -0.0479 -0.2411 -0.2689
 6176TIP3    H140163   3.269   1.504   3.963  0.7572 -0.9206  1.4923
 6176TIP3    H240164   3.360   1.623   3.939  0.2703 -0.4236  2.0929
 6177TIP3   OH240165   0.436   5.130   1.732 -0.5318  0.2185  0.7304
 6177TIP3    H140166   0.345   5.105   1.719 -0.5220  0.5151  0.0419
 6177TIP3    H240167   0.451   5.121   1.826 -0.4149 -2.7642  0.5190
 6178TIP3   OH240168   5.541   4.224   2.925 -0.5129 -0.1563  0.3438
 6178TIP3    H140169   5.610   4.209   2.990 -0.9023 -1.4749  0.4923
 6178TIP3    H240170   5.483   4.149   2.935 -0.0027 -0.9998 -2.3126
 6179TIP3   OH240171   0.219   5.926   2.338  0.2021 -0.3638 -0.1332
 6179TIP3    H140172   0.238   6.002   2.393 -1.2493  1.4180 -1.9262
 6179TIP3    H240173   0.281   5.933   2.265  2.4904 -3.0054  1.3313
 6180TIP3   OH240174   2.319   1.073   3.808 -0.4177 -0.2280  1.0100
 6180TIP3    H140175   2.225   1.072   3.790 -0.4049  1.1361  0.7836
 6180TIP3    H240176   2.356   1.007   3.748 -0.8620  1.4483 -1.2467
 6181TIP3   OH240177   6.071   3.346   2.305 -0.4770  0.2220  0.3980
 6181TIP3    H140178   6.078   3.392   2.222 -1.7171  1.2852  0.8685
 6181TIP3    H240179   6.140   3.279   2.300 -0.6750  0.0989 -1.5664
 6182TIP3   OH240180   6.765   0.887   1.792 -0.5836 -0.0018  0.0790
 6182TIP3    H140181   6.708   0.964   1.785 -0.9710 -0.3588 -0.9468
 6182TIP3    H240182   6.811   0.898   1.875 -0.6486  1.3233 -0.0455
 6183TIP3   OH240183   3.473   4.074   0.624 -0.7792 -0.1231  0.3448
 6183TIP3    H140184   3.562   4.085   0.591 -0.3812  0.3845  1.5295
 6183TIP3    H240185   3.460   3.980   0.627 -0.1060 -0.2127  0.6032
 6184TIP3   OH240186   1.573   2.908   1.711  0.3442 -0.6885 -0.3364
 6184TIP3    H140187   1.497   2.853   1.692 -0.6584 -0.1002  1.6855
 6184TIP3    H240188   1.610   2.928   1.625 -1.9081 -0.8327 -1.4140
 6185TIP3   OH240189   0.145   5.856   3.803  0.1643 -0.1546  0.5054
 6185TIP3    H140190   0.084   5.793   3.841  2.0630 -3.1978 -1.0826
 6185TIP3    H240191   0.117   5.865   3.712 -0.0629  1.3861  0.6982
 6186TIP3   OH240192   6.146   1.667   2.925  0.1543 -0.1523 -0.3345
 6186TIP3    H140193   6.062   1.640   2.963  1.0200 -1.6243  0.6469
 6186TIP3    H240194   6.171   1.745   2.974  0.7772 -1.4648  1.5636
 6187TIP3   OH240195   1.647   1.305   1.794 -0.1187 -0.5358  0.5079
 6187TIP3    H140196   1.674   1.308   1.885  1.5623 -1.3327  0.0819
 6187TIP3    H240197   1.713   1.358   1.748 -1.0171 -0.0321 -0.2261
 6188TIP3   OH240198   1.351   5.799   1.710  0.0580  0.7258  0.4885
 6188TIP3    H140199   1.421   5.834   1.765  0.7499 -1.0833  0.8209
 6188TIP3    H240200   1.384   5.807   1.620  0.8196 -0.3375  0.6607
 6189TIP3   OH240201   6.827   6.718   1.565  0.1159 -0.2729  0.1455
 6189TIP3    H140202   6.751   6.774   1.545 -1.0905 -1.5307  1.0199
 6189TIP3    H240203   6.812   6.639   1.514  0.8846 -0.5156  0.2889
 6190TIP3   OH240204   0.916   3.869   1.263 -0.7217  0.4352  0.0804
 6190TIP3    H140205   0.909   3.961   1.288 -2.8364  0.6450 -1.0906
 6190TIP3    H240206   0.876   3.821   1.336 -1.8153  0.6365 -0.3763
 6191TIP3   OH240207   2.862   5.445   2.962 -0.1784 -0.9298 -0.3561
 6191TIP3    H140208   2.863   5.538   2.982 -2.2272 -1.1138  0.9335
 6191TIP3    H240209   2.823   5.439   2.875 -0.3406 -0.5869 -0.3068
 6192TIP3   OH240210   4.067   2.822   0.243  0.3683  0.1181 -0.4677
 6192TIP3    H140211   4.067   2.803   0.149  1.2834 -0.6264 -0.3308
 6192TIP3    H240212   4.157   2.850   0.262 -0.0804  1.2912 -0.0058
 6193TIP3   OH240213   4.043   2.367   0.710  0.6582  0.2115 -0.8159
 6193TIP3    H140214   3.961   2.346   0.756  0.7762 -0.3942 -0.8812
 6193TIP3    H240215   4.016   2.425   0.639  0.1872 -0.5442 -1.2651
 6194TIP3   OH240216   6.555   6.759   8.119 -0.3426  0.2587  0.1193
 6194TIP3    H140217   6.634   6.745   8.171 -0.3251 -0.6582 -0.1433
 6194TIP3    H240218   6.507   6.826   8.167 -0.8729 -1.3388  1.9601
 6195TIP3   OH240219   5.791   0.081   0.467  0.7535 -0.2292  0.4801
 6195TIP3    H140220   5.718   0.097   0.526  0.4190 -1.2417  0.3444
 6195TIP3    H240221   5.867   0.119   0.513  0.0554  1.4707  0.2973
 6196TIP3   OH240222   3.286   6.721   8.603  1.0726  0.0319 -0.1463
 6196TIP3    H140223   3.324   6.802   8.635  0.9492  0.3089 -0.6804
 6196TIP3    H240224   3.244   6.745   8.520 -1.1141 -0.0322  0.8486
 6197TIP3   OH240225   0.025   3.414   3.786  0.6544 -0.0012  0.0135
 6197TIP3    H140226  -0.034   3.374   3.850 -0.8211 -0.6458 -1.6513
 6197TIP3    H240227   0.083   3.469   3.837 -0.6997 -0.1981  1.8498
 6198TIP3   OH240228   3.240   6.710   1.966 -0.7124  0.1518 -0.0576
 6198TIP3    H140229   3.336   6.713   1.973 -0.5448 -0.1567 -1.8777
 6198TIP3    H240230   3.218   6.619   1.987 -0.6459  0.2679  0.5539
 6199TIP3   OH240231   3.913   5.102   1.615 -0.3029  0.2423 -0.0477
 6199TIP3    H140232   3.969   5.101   1.693  0.0279  1.0221 -0.2647
 6199TIP3    H240233   3.833   5.058   1.642 -0.7714  1.7739  1.1810
 6200TIP3   OH240234   0.042   5.610   0.889 -0.4184 -0.9133  0.0075
 6200TIP3    H140235   0.120   5.663   0.875 -1.3959  0.8327  0.9419
 6200TIP3    H240236   0.076   5.522   0.905  1.3876 -0.1039  0.8942
 6201TIP3   OH240237   1.188   0.813   0.204  0.3657  0.5202  0.1277
 6201TIP3    H140238   1.219   0.756   0.274  0.8628  0.2037 -0.3405
 6201TIP3    H240239   1.267   0.861   0.175 -0.0239  1.3884  0.4585
 6202TIP3   OH240240   4.864   1.250   2.087 -0.0909 -0.3024  0.0441
 6202TIP3    H140241   4.951   1.212   2.098 -0.1426 -0.3870  0.1703
 6202TIP3    H240242   4.805   1.174   2.081  0.0693 -0.3144 -2.2312
 6203TIP3   OH240243   6.599   3.159   2.792 -0.4155  0.4209 -0.9806
 6203TIP3    H140244   6.560   3.175   2.706 -0.7681  0.4892 -0.8089
 6203TIP3    H240245   6.566   3.073   2.817  1.5998 -0.7066 -1.9727
 6204TIP3   OH240246   6.108   2.950   0.688  0.5728 -0.3210 -0.3285
 6204TIP3    H140247   6.101   2.865   0.731 -0.1653 -0.9459 -1.6425
 6204TIP3    H240248   6.172   2.937   0.619  0.7873  0.3281 -0.2574
 6205TIP3   OH240249   1.959   2.416   0.508  0.3801 -0.5939 -0.2295
 6205TIP3    H140250   2.014   2.450   0.438  1.4790 -1.5527  0.1380
 6205TIP3    H240251   1.892   2.365   0.463 -0.4217  0.8160 -0.6961
 6206TIP3   OH240252   4.429   4.651   8.352 -0.2856  0.4483 -0.3026
 6206TIP3    H140253   4.462   4.575   8.304  2.0378  0.0077  1.7627
 6206TIP3    H240254   4.354   4.681   8.301  0.5391 -1.3941 -2.8092
 6207TIP3   OH240255   5.461   0.093   0.025  0.0215 -0.3830  0.7550
 6207TIP3    H140256   5.545   0.061   0.057  0.8438  0.0167 -0.8872
 6207TIP3    H240257   5.470   0.092  -0.071 -1.6902  0.0729  0.5556
 6208TIP3   OH240258   6.359   4.719   1.951 -0.4740  0.2504 -0.3313
 6208TIP3    H140259   6.367   4.810   1.920  1.2358  0.6501  1.1591
 6208TIP3    H240260   6.442   4.701   1.995 -1.1681 -1.7247  0.2549
 6209TIP3   OH240261   2.632   1.812   3.421 -0.1000 -0.0983 -0.7026
 6209TIP3    H140262   2.623   1.891   3.474 -0.5161 -1.7258  1.8113
 6209TIP3    H240263   2.679   1.841   3.343 -3.1294  3.3139 -1.5633
 6210TIP3   OH240264   3.567   2.249   1.400 -0.0806 -0.9423 -0.0120
 6210TIP3    H140265   3.546   2.326   1.346  0.3407  0.8780  2.2750
 6210TIP3    H240266   3.661   2.258   1.419  0.1888 -2.5487 -0.3978
 6211TIP3   OH240267   2.027   3.235   2.404 -0.2078  0.6651  0.5779
 6211TIP3    H140268   2.065   3.278   2.328  0.5934  0.2908  0.7515
 6211TIP3    H240269   2.096   3.176   2.435 -1.0602 -0.2986  0.6920
 6212TIP3   OH240270   6.104   1.312   3.066 -0.2561 -0.2154  0.1256
 6212TIP3    H140271   6.046   1.354   3.002 -0.5927 -0.4230  0.2898
 6212TIP3    H240272   6.075   1.347   3.150 -0.7660 -1.0283  0.2981
 6213TIP3   OH240273   0.673   1.666   2.952 -0.4757  0.2164  0.1137
 6213TIP3    H140274   0.737   1.615   3.002 -1.2395 -0.2546  0.6451
 6213TIP3    H240275   0.595   1.610   2.950 -0.8200  0.7118 -0.6521
 6214TIP3   OH240276   3.847   2.789   0.407  0.8972 -0.6420  0.0446
 6214TIP3    H140277   3.915   2.766   0.344  0.7892 -0.5246 -0.1174
 6214TIP3    H240278   3.883   2.863   0.455  0.9121 -0.6250  0.0072
 6215TIP3   OH240279   6.652   2.352   4.193 -0.3342 -0.1826  0.1496
 6215TIP3    H140280   6.604   2.288   4.140  1.1978 -0.6935 -0.6941
 6215TIP3    H240281   6.662   2.428   4.135  1.2061 -0.6816 -0.2946
 6216TIP3   OH240282   2.039   3.642   2.603  0.8812 -0.1826  0.3042
 6216TIP3    H140283   2.005   3.731   2.615 -0.7529 -0.6497 -0.5034
 6216TIP3    H240284   2.052   3.609   2.692  0.0681  0.3679  0.6407
 6217TIP3   OH240285   1.951   2.868   1.695  0.0176 -0.0653 -0.0353
 6217TIP3    H140286   1.919   2.955   1.670 -3.6825 -1.6942 -1.6540
 6217TIP3    H240287   1.895   2.843   1.769  2.6300 -0.2714  2.0311
 6218TIP3   OH240288   3.586   2.747   0.387  0.1731 -0.3392 -0.3980
 6218TIP3    H140289   3.674   2.759   0.422  0.2380  1.4392 -1.0565
 6218TIP3    H240290   3.536   2.823   0.420  0.2868  1.5861 -4.0852
 6219TIP3   OH240291   5.437   0.447   8.626  0.1342 -0.3064  0.4992
 6219TIP3    H140292   5.416   0.532   8.586  1.6178 -0.0096  0.2624
 6219TIP3    H240293   5.428   0.461   8.720  1.5225  0.5074  0.5481
 6220TIP3   OH240294   4.492   4.460   1.605 -0.2995 -0.4670 -0.2123
 6220TIP3    H140295   4.521   4.551   1.609 -0.3868 -0.4771  2.1135
 6220TIP3    H240296   4.487   4.432   1.696  0.1848 -2.9680 -0.8593
 6221TIP3   OH240297   0.698   0.539   2.976 -0.3155 -0.2646  0.8347
 6221TIP3    H140298   0.777   0.521   3.026 -0.9002 -0.3761  1.7275
 6221TIP3    H240299   0.681   0.632   2.991  0.4847  0.1495 -0.5937
 6222TIP3   OH240300   4.538   2.011   2.218  0.1230  0.1654 -0.4039
 6222TIP3    H140301   4.586   1.930   2.238  1.3563  0.8411 -0.5643
 6222TIP3    H240302   4.491   2.031   2.300  1.2876  0.2867  0.2513
 6223TIP3   OH240303   2.094   1.942   1.205 -0.7503 -0.1963  0.0910
 6223TIP3    H140304   2.041   1.878   1.253 -1.2265 -0.2615 -0.5078
 6223TIP3    H240305   2.030   2.005   1.170 -0.1888  1.4479  1.8633
 6224TIP3   OH240306   4.061   2.481   3.572 -0.4700  0.0681  0.3120
 6224TIP3    H140307   4.127   2.550   3.567 -0.7774  0.4312  1.1307
 6224TIP3    H240308   4.008   2.494   3.493  1.1183 -0.9755 -1.0106
 6225TIP3   OH240309   6.304   5.470   1.539  0.6403 -0.0457 -0.2046
 6225TIP3    H140310   6.354   5.496   1.462  0.3014 -2.4418 -1.3291
 6225TIP3    H240311   6.368   5.423   1.594  0.0177 -1.8854 -0.9874
 6226TIP3   OH240312   5.987   4.983   1.804  0.4065 -0.3118  0.1527
 6226TIP3    H140313   6.010   4.998   1.896  0.8955  1.7924 -0.2645
 6226TIP3    H240314   5.903   5.028   1.793  1.0708  0.7579 -0.7607
 6227TIP3   OH240315   3.933   6.500   0.085 -0.0416 -0.3019 -0.1376
 6227TIP3    H140316   3.997   6.540   0.026 -0.3826  0.3126 -0.0944
 6227TIP3    H240317   3.851   6.500   0.035  0.0985 -1.5908 -0.4050
 6228TIP3   OH240318   6.617   1.378   0.916  0.6196  0.0612  0.2274
 6228TIP3    H140319   6.629   1.284   0.927 -2.6755 -0.6063 -0.9159
 6228TIP3    H240320   6.629   1.394   0.823 -0.5988  0.4232  0.1171
 6229TIP3   OH240321   4.947   5.251   0.223 -0.1354 -0.0108  0.0807
 6229TIP3    H140322   4.913   5.245   0.312  0.2664  0.7669  0.3028
 6229TIP3    H240323   5.006   5.327   0.226  1.4780 -1.2042 -0.3255
 6230TIP3   OH240324   3.876   0.893   0.834 -0.5303 -0.2402  0.0386
 6230TIP3    H140325   3.911   0.805   0.819  1.2576  0.6953 -1.8464
 6230TIP3    H240326   3.934   0.932   0.899  0.5380  0.4880 -1.2948
 6231TIP3   OH240327   3.391   0.173   2.651 -0.4363 -0.0827  0.0214
 6231TIP3    H140328   3.332   0.221   2.593 -0.9836 -0.5129  0.2125
 6231TIP3    H240329   3.350   0.087   2.662  0.7351 -0.7565 -0.6520
 6232TIP3   OH240330   1.511   0.240   3.550  0.1031 -0.2181 -0.1740
 6232TIP3    H140331   1.498   0.296   3.627  1.4114  0.0100 -0.0961
 6232TIP3    H240332   1.535   0.301   3.480 -0.5408 -0.4812 -0.6313
 6233TIP3   OH240333   4.934   1.406   0.916  0.0488 -0.8788  0.1883
 6233TIP3    H140334   4.847   1.369   0.930 -1.2293  2.2656  1.3524
 6233TIP3    H240335   4.926   1.454   0.834  0.0889  0.9214  1.2075
 6234TIP3   OH240336   1.787   6.875   4.330 -0.1692  0.3290  0.3632
 6234TIP3    H140337   1.881   6.894   4.326  0.0684 -0.7738  0.1954
 6234TIP3    H240338   1.745   6.951   4.292  0.5598  1.5705  1.9349
 6235TIP3   OH240339   3.503   0.527   3.067 -0.1090  0.1041  0.1635
 6235TIP3    H140340   3.493   0.432   3.055 -0.3251  0.1406  0.0345
 6235TIP3    H240341   3.594   0.539   3.092 -0.6189 -0.3634  2.4256
 6236TIP3   OH240342   4.186   1.996   3.713  0.3550 -0.1214 -0.0666
 6236TIP3    H140343   4.144   1.959   3.636  1.9437 -0.9966 -0.5581
 6236TIP3    H240344   4.132   1.968   3.787 -0.0665 -0.9873 -0.6962
 6237TIP3   OH240345   6.221   6.196   0.693  0.1113 -0.0892 -0.2432
 6237TIP3    H140346   6.222   6.166   0.602 -1.8509 -1.3553  0.0718
 6237TIP3    H240347   6.153   6.263   0.696 -1.0427 -1.2307  0.5523
 6238TIP3   OH240348   5.733   5.956   2.478 -0.4916  0.0508  0.6069
 6238TIP3    H140349   5.779   5.939   2.396 -0.6519  1.4413  0.2062
 6238TIP3    H240350   5.709   5.869   2.510 -3.1793 -0.5337 -2.4107
 6239TIP3   OH240351   2.117   2.964   1.318 -0.1185  0.5822 -0.2095
 6239TIP3    H140352   2.158   2.879   1.331  1.6812  1.5263  0.5332
 6239TIP3    H240353   2.023   2.945   1.314  0.2570 -1.4381 -0.2674
 6240TIP3   OH240354   3.437   5.179   0.904 -0.3085 -0.2278  0.0660
 6240TIP3    H140355   3.367   5.194   0.841 -0.3541 -2.3449 -0.4451
 6240TIP3    H240356   3.514   5.222   0.866 -1.2652  2.1468  0.6485
 6241TIP3   OH240357   5.865   3.373   2.006  0.3554 -0.0794  0.3609
 6241TIP3    H140358   5.816   3.300   1.967 -1.0334 -0.8198  3.2015
 6241TIP3    H240359   5.925   3.401   1.937 -1.4823 -1.5963 -2.0422
 6242TIP3   OH240360   6.787   2.793   1.900  0.2747 -0.5677 -0.4303
 6242TIP3    H140361   6.719   2.748   1.850  0.2966 -0.1384 -0.8535
 6242TIP3    H240362   6.739   2.850   1.960  0.2531 -0.7508 -0.2731
 6243TIP3   OH240363   1.146   4.663   3.065 -0.0194 -0.2378 -0.1527
 6243TIP3    H140364   1.162   4.637   2.974  1.4498  1.6657 -0.5044
 6243TIP3    H240365   1.233   4.682   3.099 -0.7314  1.0940  1.0063
 6244TIP3   OH240366   1.052   6.431   3.473 -0.1291 -0.1526  0.5133
 6244TIP3    H140367   0.962   6.415   3.501 -0.2030 -1.2693 -0.3071
 6244TIP3    H240368   1.078   6.351   3.428  0.2852  1.1949 -1.8150
 6245TIP3   OH240369   2.329   1.902   1.336 -0.0492 -0.1999 -0.2647
 6245TIP3    H140370   2.396   1.888   1.269 -0.0975  1.3893 -0.6737
 6245TIP3    H240371   2.259   1.948   1.291 -0.3000  0.4660  0.7688
 6246TIP3   OH240372   5.435   4.864   0.465  0.2522  0.4761  0.1466
 6246TIP3    H140373   5.431   4.768   0.470 -1.5639  0.4940 -0.4619
 6246TIP3    H240374   5.526   4.882   0.439  0.6711 -1.0607  0.4123
 6247TIP3   OH240375   2.927   0.419   0.234 -0.3630  0.1939  0.2527
 6247TIP3    H140376   3.015   0.405   0.200 -0.0470  1.5923  0.4210
 6247TIP3    H240377   2.918   0.355   0.305  0.3932 -0.1636  0.0319
 6248TIP3   OH240378   4.051   3.480   0.004  0.0154 -0.3487 -0.5551
 6248TIP3    H140379   4.083   3.486   0.094 -1.5071 -1.6828  0.1120
 6248TIP3    H240380   3.998   3.560  -0.008 -0.0651 -0.3411 -0.1465
 6249TIP3   OH240381   6.659   1.206   2.900 -0.0890 -0.0549  0.5485
 6249TIP3    H140382   6.748   1.217   2.865 -0.1528 -0.6698  0.1718
 6249TIP3    H240383   6.666   1.232   2.992  0.6415 -0.7155  0.6961
 6250TIP3   OH240384   3.020   3.283   3.079 -0.1302  0.0572 -0.2757
 6250TIP3    H140385   2.968   3.203   3.076 -1.1701  0.3827  3.6705
 6250TIP3    H240386   2.973   3.343   3.020 -4.0966  0.1225  2.5384
 6251TIP3   OH240387   6.671   5.397   0.185 -0.1322 -0.3603  0.0450
 6251TIP3    H140388   6.679   5.418   0.092 -1.5830 -0.4203 -0.1165
 6251TIP3    H240389   6.703   5.476   0.230 -1.2826  0.4697 -0.5349
 6252TIP3   OH240390   2.378   4.267   3.155  0.4130 -0.0549  0.5668
 6252TIP3    H140391   2.374   4.239   3.247  1.4461 -0.6445  0.4426
 6252TIP3    H240392   2.462   4.235   3.123 -0.4256 -0.8867 -0.9310
 6253TIP3   OH240393   0.120   2.539   3.414  0.5992  0.0702  0.5000
 6253TIP3    H140394   0.196   2.553   3.469  1.6532 -0.2131 -0.8237
 6253TIP3    H240395   0.130   2.600   3.341 -0.1722 -0.3162  0.0429
 6254TIP3   OH240396   6.160   2.345   1.840 -0.0551  0.9766 -0.0193
 6254TIP3    H140397   6.080   2.297   1.862  1.5969 -0.7766  2.7483
 6254TIP3    H240398   6.141   2.436   1.863 -0.9059  0.4039  1.7185
 6255TIP3   OH240399   2.369   1.447   0.635  0.2810 -0.3884  0.1484
 6255TIP3    H140400   2.444   1.506   0.636 -0.2224  0.2738  0.1067
 6255TIP3    H240401   2.318   1.475   0.559  0.1286 -1.0075  0.0168
 6256TIP3   OH240402   4.745   3.011   1.900  0.0711 -0.2154 -0.0914
 6256TIP3    H140403   4.809   3.070   1.860 -0.1313  0.0598 -0.0040
 6256TIP3    H240404   4.669   3.066   1.918  0.4364 -0.1699  1.3861
 6257TIP3   OH240405   4.483   2.545   2.358  0.9553 -0.2260 -0.3666
 6257TIP3    H140406   4.528   2.624   2.329 -0.9359  0.5126 -1.5026
 6257TIP3    H240407   4.497   2.481   2.288 -2.1859  1.0084 -2.3231
 6258TIP3   OH240408   5.991   1.893   8.370 -0.2101  0.4069  0.6346
 6258TIP3    H140409   6.015   1.801   8.383  0.1636  0.0940 -1.7272
 6258TIP3    H240410   5.939   1.892   8.290 -1.8073  2.0570  1.5914
 6259TIP3   OH240411   3.814   6.035   3.517  0.0013 -0.2388 -0.3578
 6259TIP3    H140412   3.761   5.997   3.587 -1.6542  0.5851 -1.0986
 6259TIP3    H240413   3.875   6.093   3.561  0.8202 -1.7538  0.5846
 6260TIP3   OH240414   0.045   5.828   1.107  0.7588  0.0174  0.4703
 6260TIP3    H140415   0.055   5.771   1.031 -1.0591  1.1189 -0.6634
 6260TIP3    H240416   0.104   5.791   1.173  1.5441 -1.6260 -1.0752
 6261TIP3   OH240417   1.842   5.815   3.038 -0.5344  0.3793 -0.3049
 6261TIP3    H140418   1.889   5.789   3.117 -5.0059 -0.2880  2.4459
 6261TIP3    H240419   1.830   5.734   2.989 -0.6454  0.1582  0.0829
 6262TIP3   OH240420   3.308   1.947   1.464 -0.5728  0.4062  0.5842
 6262TIP3    H140421   3.343   2.021   1.414 -0.0814 -0.0947  0.1738
 6262TIP3    H240422   3.296   1.982   1.553  1.3633  0.4993  0.8512
 6263TIP3   OH240423   4.135   2.080   1.306  0.0462 -0.1410  0.2932
 6263TIP3    H140424   4.068   2.081   1.237 -0.0728 -0.9758  0.3914
 6263TIP3    H240425   4.118   2.000   1.355 -0.2692  0.7347  1.6941
 6264TIP3   OH240426   1.716   1.130   3.008  0.2437 -0.4356 -0.7770
 6264TIP3    H140427   1.637   1.176   2.981  0.7253  0.2709 -1.0257
 6264TIP3    H240428   1.786   1.195   3.000  0.3955 -0.0216  2.6248
 6265TIP3   OH240429   6.636   2.229   1.512 -0.0645 -0.7418 -1.4743
 6265TIP3    H140430   6.704   2.213   1.577  0.0641 -1.4346 -1.7770
 6265TIP3    H240431   6.612   2.321   1.525 -1.5487 -1.3703  1.0215
 6266TIP3   OH240432   1.338   0.075   8.154  0.0178 -0.1704 -0.0073
 6266TIP3    H140433   1.302   0.153   8.111  0.7410  0.2667  0.1690
 6266TIP3    H240434   1.294   0.072   8.239 -0.8713 -0.6213 -0.4629
 6267TIP3   OH240435   0.411   3.608   0.589 -0.5031  0.1792  0.0119
 6267TIP3    H140436   0.483   3.620   0.528 -1.3554 -1.1285 -1.3109
 6267TIP3    H240437   0.449   3.625   0.675  1.2591 -0.0385 -0.6905
 6268TIP3   OH240438   3.390   2.129   3.048 -0.1985  0.0351  0.5537
 6268TIP3    H140439   3.299   2.158   3.052 -0.2868 -0.2234  0.4884
 6268TIP3    H240440   3.408   2.094   3.135 -0.0143  0.5118  0.7081
 6269TIP3   OH240441   4.613   2.970   8.362 -0.3871 -0.7935 -0.3404
 6269TIP3    H140442   4.526   3.009   8.352 -0.6503 -1.8397 -3.0233
 6269TIP3    H240443   4.674   3.041   8.341 -0.6358 -0.3722  0.3509
 6270TIP3   OH240444   0.957   5.901   2.850  0.2429  0.2459  0.3177
 6270TIP3    H140445   0.879   5.926   2.801  0.3784  1.3882  0.6624
 6270TIP3    H240446   0.939   5.931   2.940  0.5334 -0.6630  0.6895
 6271TIP3   OH240447   4.363   0.692   3.639  0.2454 -0.2593  0.1680
 6271TIP3    H140448   4.296   0.625   3.653 -0.1849  0.1902  0.3122
 6271TIP3    H240449   4.331   0.740   3.562  0.7032 -0.4027 -0.1161
 6272TIP3   OH240450   4.130   1.845   0.500  0.0529  0.1498 -0.2458
 6272TIP3    H140451   4.187   1.910   0.543 -0.3423 -0.5105  1.3391
 6272TIP3    H240452   4.113   1.780   0.568 -2.4464  0.2079 -0.7280
 6273TIP3   OH240453   0.977   2.985   2.765  0.4322 -0.2728 -0.7281
 6273TIP3    H140454   1.008   2.978   2.674  0.3306  0.4255 -0.8223
 6273TIP3    H240455   0.933   3.070   2.769 -1.3970 -1.1740 -0.5644
 6274TIP3   OH240456   4.311   4.242   2.739  0.1070 -0.2166  0.2284
 6274TIP3    H140457   4.395   4.286   2.748  1.1039 -1.5803 -1.9008
 6274TIP3    H240458   4.289   4.216   2.829  0.9689  1.8208  1.0977
 6275TIP3   OH240459   3.461   0.963   8.343 -0.5850  0.1847 -0.0693
 6275TIP3    H140460   3.542   0.913   8.358 -0.1218 -0.1177 -2.9602
 6275TIP3    H240461   3.481   1.018   8.267 -2.7778  0.8563 -0.2149
 6276TIP3   OH240462   3.697   5.397   0.204 -0.2379  0.9206  0.3414
 6276TIP3    H140463   3.687   5.452   0.282 -0.9819  1.8751 -0.4029
 6276TIP3    H240464   3.667   5.311   0.232  0.7056  0.9240  1.4593
 6277TIP3   OH240465   1.932   2.036   8.099  0.4816  0.5959 -0.1769
 6277TIP3    H140466   1.846   2.029   8.057  0.2092  2.3491  0.0252
 6277TIP3    H240467   1.941   2.128   8.121  1.6301  0.1347  1.5000
 6278TIP3   OH240468   0.614   4.471   2.883 -0.6613 -0.0118 -0.3089
 6278TIP3    H140469   0.573   4.460   2.797  0.4449 -1.1969 -0.7110
 6278TIP3    H240470   0.671   4.395   2.893 -0.7877  0.0850  1.5049
 6279TIP3   OH240471   2.079   4.924   3.746  0.1533  0.7656 -0.2976
 6279TIP3    H140472   2.103   4.988   3.813  1.7587 -1.5160  1.4562
 6279TIP3    H240473   2.163   4.887   3.717 -0.7049 -0.4647 -1.3112
 6280TIP3   OH240474   1.739   4.564   3.945  0.0568  0.0255 -0.4057
 6280TIP3    H140475   1.717   4.640   3.893 -0.6011  0.4368  0.4484
 6280TIP3    H240476   1.695   4.491   3.901 -1.7662  0.5902  0.3685
 6281TIP3   OH240477   4.793   6.184   0.698 -0.0902 -0.0609  0.3256
 6281TIP3    H140478   4.765   6.258   0.752  0.4650 -0.0097  0.5464
 6281TIP3    H240479   4.825   6.119   0.761 -2.4052 -1.3368  0.3176
 6282TIP3   OH240480   6.191   6.805   0.839  0.1966 -0.0775 -0.3605
 6282TIP3    H140481   6.277   6.777   0.869 -0.6878  0.4073  2.9999
 6282TIP3    H240482   6.147   6.724   0.814  1.0203 -0.5219 -0.4144
 6283TIP3   OH240483   2.449   4.849   1.239 -0.3051  0.0008 -0.3786
 6283TIP3    H140484   2.455   4.788   1.313 -0.8371  0.8564  0.3922
 6283TIP3    H240485   2.538   4.854   1.204 -0.0846 -0.5469  0.0914
 6284TIP3   OH240486   2.450   0.795   2.062  0.1369  0.5004 -0.4566
 6284TIP3    H140487   2.382   0.855   2.092 -0.6497 -0.3633 -0.4651
 6284TIP3    H240488   2.425   0.773   1.972  0.8487  0.7706 -0.7250
 6285TIP3   OH240489   5.239   4.658   1.270  0.2540  0.0776 -0.1741
 6285TIP3    H140490   5.173   4.601   1.230 -0.4632 -0.2289  1.3757
 6285TIP3    H240491   5.308   4.598   1.299  0.3063  0.1945 -0.0574
 6286TIP3   OH240492   0.452   3.773   1.159  0.1188 -0.0437 -0.5178
 6286TIP3    H140493   0.444   3.824   1.239 -0.5101  0.4470 -0.8832
 6286TIP3    H240494   0.363   3.768   1.124  0.2829 -0.7874 -0.8594
 6287TIP3   OH240495   1.192   5.375   8.548 -0.0039 -0.2559 -0.0845
 6287TIP3    H140496   1.192   5.365   8.452  0.8648 -0.5176 -0.0612
 6287TIP3    H240497   1.252   5.447   8.565 -0.8984  0.4366  0.2156
 6288TIP3   OH240498   0.162   4.576   2.893  0.2563 -0.1593  0.1341
 6288TIP3    H140499   0.100   4.503   2.895 -0.1315  0.1417 -0.4626
 6288TIP3    H240500   0.248   4.534   2.886 -0.0082 -0.5600 -0.8886
 6289TIP3   OH240501   3.561   0.746   0.829  0.0681  0.6510 -0.9088
 6289TIP3    H140502   3.506   0.673   0.858  0.5627  0.1075 -1.3091
 6289TIP3    H240503   3.636   0.704   0.787  0.1839  1.3964 -1.4699
 6290TIP3   OH240504   0.783   5.276   1.063 -0.0993  0.2465 -0.0276
 6290TIP3    H140505   0.862   5.281   1.010  0.0494 -0.4919  0.1107
 6290TIP3    H240506   0.796   5.341   1.132  0.3421  0.2064 -0.0720
 6291TIP3   OH240507   3.381   2.706   8.254 -0.3231  0.3197  0.4867
 6291TIP3    H140508   3.360   2.793   8.220  0.5397 -0.2942 -1.8171
 6291TIP3    H240509   3.431   2.664   8.183  1.1400 -1.2876  2.3521
 6292TIP3   OH240510   6.028   1.018   0.669  0.3929  0.7378 -0.7865
 6292TIP3    H140511   6.112   1.037   0.710  0.5632 -0.5287 -0.5074
 6292TIP3    H240512   6.025   0.922   0.662 -1.9528  0.5460  1.2096
 6293TIP3   OH240513   1.953   1.658   2.189  0.0765 -0.0476 -0.1577
 6293TIP3    H140514   2.011   1.678   2.262 -0.8471  0.9100  0.3377
 6293TIP3    H240515   1.998   1.588   2.141  0.6595 -0.7523  1.3632
 6294TIP3   OH240516   1.437   1.282   3.059  0.2873  0.6442 -0.7177
 6294TIP3    H140517   1.491   1.351   3.098  1.1876  0.2151 -1.1667
 6294TIP3    H240518   1.358   1.279   3.114  0.7427  1.2521 -0.0136
 6295TIP3   OH240519   5.872   1.777   3.352 -0.1323 -0.4417  0.2037
 6295TIP3    H140520   5.782   1.809   3.362 -0.1612 -0.3886 -0.2142
 6295TIP3    H240521   5.866   1.683   3.367  0.2506 -0.0836  3.4185
 6296TIP3   OH240522   0.253   1.733   2.064 -0.3016  0.0128  0.1830
 6296TIP3    H140523   0.260   1.698   1.975 -1.7895  0.6617 -0.2219
 6296TIP3    H240524   0.161   1.721   2.088 -0.5420  2.1604  0.6156
 6297TIP3   OH240525   1.049   0.105   2.012  0.2057  0.2890 -0.1825
 6297TIP3    H140526   1.132   0.141   1.981  0.0502  0.1438 -0.7855
 6297TIP3    H240527   1.010   0.174   2.065  0.7044  0.3631  0.0919
 6298TIP3   OH240528   5.398   6.511   2.720  0.2127  0.0998 -0.1255
 6298TIP3    H140529   5.384   6.530   2.813 -1.1064  0.1351 -0.3236
 6298TIP3    H240530   5.384   6.416   2.713 -2.4516  0.4751 -0.7349
 6299TIP3   OH240531   1.648   6.193   1.009  0.1901  0.1995 -0.2514
 6299TIP3    H140532   1.721   6.254   1.001  0.1365  0.5262  1.4199
 6299TIP3    H240533   1.623   6.173   0.919  1.6564  0.8938 -0.8343
 6300TIP3   OH240534   2.948   6.400   2.646  0.0458 -0.1111  0.1388
 6300TIP3    H140535   2.888   6.378   2.574 -0.7422  0.2829  0.6644
 6300TIP3    H240536   2.923   6.341   2.717 -0.5387  0.8738  0.7688
 6301TIP3   OH240537   6.218   2.498   2.325 -0.4458  0.1498 -0.9278
 6301TIP3    H140538   6.132   2.534   2.305 -0.4034 -0.0228 -1.4365
 6301TIP3    H240539   6.202   2.435   2.395 -0.3114  2.2076  1.0723
 6302TIP3   OH240540   2.335   4.938   3.474 -0.3721  0.3919  0.2051
 6302TIP3    H140541   2.301   5.024   3.497 -1.1653 -0.2300  1.4267
 6302TIP3    H240542   2.378   4.907   3.554  0.8582  0.0791 -0.5395
 6303TIP3   OH240543   1.028   3.072   1.000  0.1059 -0.1051  0.0738
 6303TIP3    H140544   0.949   3.121   0.974  0.2888  1.1130  1.6485
 6303TIP3    H240545   1.094   3.097   0.935 -0.3591  0.1372 -0.3140
 6304TIP3   OH240546   3.992   5.906   1.881  0.1457  0.0406  0.3685
 6304TIP3    H140547   3.931   5.970   1.843  0.2950 -0.1625 -0.2170
 6304TIP3    H240548   3.969   5.904   1.974  0.2197  1.0329  0.4116
 6305TIP3   OH240549   1.375   1.066   3.626 -0.4159 -0.3506  0.0009
 6305TIP3    H140550   1.297   1.048   3.572 -0.0032  0.3266 -0.8488
 6305TIP3    H240551   1.341   1.116   3.701 -0.7307  0.5012 -0.6865
 6306TIP3   OH240552   2.660   3.359   0.668 -0.5375 -0.0302  0.0119
 6306TIP3    H140553   2.629   3.383   0.756  0.5780  1.8824 -0.0608
 6306TIP3    H240554   2.645   3.438   0.616 -1.2253 -1.1643 -1.5562
 6307TIP3   OH240555   0.510   4.326   1.746 -0.4895 -0.4982  0.1914
 6307TIP3    H140556   0.440   4.270   1.711 -1.5943 -0.2185  1.8228
 6307TIP3    H240557   0.478   4.415   1.733 -0.1676 -0.3480  0.4173
 6308TIP3   OH240558   2.712   3.094   8.670 -0.0949 -0.5226  0.6783
 6308TIP3    H140559   2.621   3.097   8.641  0.5678  2.8063 -1.5929
 6308TIP3    H240560   2.712   3.142   8.753 -0.0946  2.3050 -0.8433
 6309TIP3   OH240561   2.347   0.641   1.568 -0.3765  0.9140  0.1866
 6309TIP3    H140562   2.263   0.687   1.558 -0.8602  0.0409  0.1632
 6309TIP3    H240563   2.386   0.680   1.647 -0.0632  2.4222 -0.6632
 6310TIP3   OH240564   6.656   5.709   3.724 -0.0321 -0.6661  0.6186
 6310TIP3    H140565   6.741   5.708   3.766  0.5591 -0.7219 -0.5269
 6310TIP3    H240566   6.604   5.772   3.774  0.6638 -0.6598  1.3430
 6311TIP3   OH240567   0.376   2.999   1.039  0.5046 -0.3795  0.1291
 6311TIP3    H140568   0.323   2.976   1.115  1.4225  2.6215  1.8546
 6311TIP3    H240569   0.319   3.053   0.985  1.2663  1.8015  1.3671
 6312TIP3   OH240570   3.105   5.998   2.769 -0.6467 -0.0218  0.2769
 6312TIP3    H140571   3.013   6.014   2.752 -0.9493 -1.9320 -0.1216
 6312TIP3    H240572   3.150   6.031   2.691 -1.2445 -1.1149 -0.5723
 6313TIP3   OH240573   0.281   2.262   2.752  0.2839  0.3603  0.3142
 6313TIP3    H140574   0.296   2.230   2.841 -0.1203  0.2201  0.3309
 6313TIP3    H240575   0.341   2.337   2.743  0.2462  0.4416  0.7375
 6314TIP3   OH240576   5.208   6.300   3.170 -0.6519 -0.2169 -0.4971
 6314TIP3    H140577   5.268   6.288   3.244 -2.2839  0.0913  0.9506
 6314TIP3    H240578   5.185   6.212   3.142 -0.4302 -0.3420 -0.2809
 6315TIP3   OH240579   6.286   0.778   0.727 -0.1853 -0.4877  0.6156
 6315TIP3    H140580   6.370   0.732   0.730 -0.1935 -0.4485  1.8853
 6315TIP3    H240581   6.253   0.762   0.638  0.6935 -1.3357  0.4261
 6316TIP3   OH240582   0.332   2.580   3.558  0.0211  0.1317  0.5954
 6316TIP3    H140583   0.384   2.660   3.574  0.1475  0.0332  0.6873
 6316TIP3    H240584   0.387   2.510   3.593 -0.1916  0.0295  0.7239
 6317TIP3   OH240585   2.987   3.973   1.763  0.0069  0.1380 -0.0273
 6317TIP3    H140586   3.065   3.935   1.803 -0.5594  0.6521  1.6996
 6317TIP3    H240587   2.973   3.922   1.684  1.3224 -0.8412  0.3288
 6318TIP3   OH240588   1.121   2.354   2.971 -0.0040  0.5644 -0.8051
 6318TIP3    H140589   1.063   2.349   2.895  0.1320 -1.6579 -0.8386
 6318TIP3    H240590   1.127   2.264   3.003  1.3271  1.1568  0.8053
 6319TIP3   OH240591   0.724   3.530   2.377  0.1338  0.4380  0.3647
 6319TIP3    H140592   0.682   3.468   2.316 -0.7761  0.1795  1.2357
 6319TIP3    H240593   0.817   3.518   2.361 -0.0831  0.4529 -1.0611
 6320TIP3   OH240594   2.403   6.258   8.048  0.3568 -0.3998  0.2176
 6320TIP3    H140595   2.415   6.198   8.121 -0.9123  0.1262  0.8868
 6320TIP3    H240596   2.311   6.281   8.051  0.5051  0.4293 -0.9415
 6321TIP3   OH240597   6.036   3.579   2.762 -0.9748  0.4103 -0.5860
 6321TIP3    H140598   6.061   3.670   2.753  2.3417 -0.4674 -1.3794
 6321TIP3    H240599   6.051   3.541   2.675 -1.0436 -1.1475  0.0525
 6322TIP3   OH240600   4.761   1.997   3.108 -0.2282  0.6833  0.3881
 6322TIP3    H140601   4.685   2.056   3.111 -0.8644 -0.1611  1.6683
 6322TIP3    H240602   4.769   1.963   3.197  0.8076 -0.3120 -0.0596
 6323TIP3   OH240603   1.516   4.609   0.796 -0.4552  0.2158 -0.1693
 6323TIP3    H140604   1.500   4.537   0.735 -2.1287  1.4583 -1.3166
 6323TIP3    H240605   1.489   4.575   0.881  2.0910 -1.6118  0.0073
 6324TIP3   OH240606   4.191   0.666   3.008 -0.5641 -0.3934 -0.1745
 6324TIP3    H140607   4.172   0.601   2.941  0.5693  2.0130 -3.0360
 6324TIP3    H240608   4.286   0.663   3.019 -0.7062 -0.5763  1.1820
 6325TIP3   OH240609   3.435   1.758   3.701  0.7552  0.2982 -0.1499
 6325TIP3    H140610   3.395   1.773   3.786  1.4013 -0.8349  0.3868
 6325TIP3    H240611   3.362   1.757   3.639 -0.3119 -3.0857  0.9700
 6326TIP3   OH240612   0.825   6.166   2.750 -0.4318  0.2581  0.5973
 6326TIP3    H140613   0.765   6.091   2.748  0.0652 -0.1358 -1.1040
 6326TIP3    H240614   0.820   6.198   2.840 -2.6174 -0.2234  0.7032
 6327TIP3   OH240615   5.568   2.362   7.636  0.4547 -0.3771  0.9239
 6327TIP3    H140616   5.648   2.329   7.594  0.1465 -0.2649  0.2531
 6327TIP3    H240617   5.600   2.406   7.715  0.9722 -1.2502  1.2253
 6328TIP3   OH240618   3.611   5.083   1.988 -0.0393 -0.5557  0.0770
 6328TIP3    H140619   3.703   5.069   2.013  0.4391  1.0758 -0.6172
 6328TIP3    H240620   3.614   5.158   1.928 -1.9043 -0.0461  0.5620
 6329TIP3   OH240621   4.844   5.047   1.478 -0.3695  0.1591  0.5570
 6329TIP3    H140622   4.889   5.083   1.554  0.9464  2.3135 -1.1086
 6329TIP3    H240623   4.870   4.955   1.475  3.4239  1.0835  0.1498
 6330TIP3   OH240624   3.469   4.728   8.142 -0.2071 -0.3524 -0.5083
 6330TIP3    H140625   3.448   4.773   8.224  0.3791  0.7411 -0.9354
 6330TIP3    H240626   3.519   4.651   8.169 -0.3224 -0.1984  0.1756
 6331TIP3   OH240627   3.194   6.831   2.219  0.1576  0.5397 -0.4323
 6331TIP3    H140628   3.277   6.858   2.258  1.1813 -2.4898 -0.2832
 6331TIP3    H240629   3.219   6.775   2.145 -1.7888  1.2281 -1.6873
 6332TIP3   OH240630   5.483   5.652   3.114 -0.0632 -0.2469  0.3566
 6332TIP3    H140631   5.516   5.695   3.035 -1.5778  0.6475  0.1784
 6332TIP3    H240632   5.535   5.689   3.185  1.4556 -1.2014 -0.1823
 6333TIP3   OH240633   0.973   2.422   0.126 -0.2156  0.2578  0.1985
 6333TIP3    H140634   1.064   2.400   0.109 -0.5849 -1.6482  0.4514
 6333TIP3    H240635   0.970   2.517   0.125  1.9676  0.3909  1.1643
 6334TIP3   OH240636   3.778   2.003   2.132  0.1199  0.0571 -0.5674
 6334TIP3    H140637   3.798   2.092   2.160 -0.6959  0.1389 -0.2263
 6334TIP3    H240638   3.738   1.962   2.209  0.7310 -0.6881 -0.6322
 6335TIP3   OH240639   2.394   1.809   2.467  0.3560  0.5268  0.3873
 6335TIP3    H140640   2.359   1.734   2.419  0.0274  1.1722 -0.4232
 6335TIP3    H240641   2.320   1.841   2.519 -0.4758  2.1490 -1.6492
 6336TIP3   OH240642   6.337   5.386   2.602  0.3388 -0.4806  0.1093
 6336TIP3    H140643   6.366   5.366   2.513  0.1568  0.4505 -0.1652
 6336TIP3    H240644   6.413   5.365   2.656  0.6040 -0.6287 -0.3111
 6337TIP3   OH240645   2.427   6.287   0.010  0.0608 -0.0641  0.4752
 6337TIP3    H140646   2.344   6.334   0.002  1.5149  2.9602  1.6274
 6337TIP3    H240647   2.477   6.313  -0.068  0.8571  0.2558  1.0783
 6338TIP3   OH240648   2.772   3.723   7.939  0.2561  0.4499 -0.3382
 6338TIP3    H140649   2.684   3.735   7.975  0.6628  1.6144  0.3175
 6338TIP3    H240650   2.825   3.789   7.983  1.4356 -0.1375 -0.8346
 6339TIP3   OH240651   0.836   5.843   0.315 -0.0401  0.1449  0.2709
 6339TIP3    H140652   0.806   5.810   0.399  1.8661 -0.1878  0.8785
 6339TIP3    H240653   0.816   5.773   0.253 -1.3024  0.3198  0.4646
 6340TIP3   OH240654   1.140   1.887   0.058 -0.1662  0.0892  0.2440
 6340TIP3    H140655   1.164   1.827   0.129 -1.4672  0.2500  0.8458
 6340TIP3    H240656   1.117   1.829  -0.015 -0.1580 -0.1139  0.3997
 6341TIP3   OH240657   4.301   2.714   3.457  0.2138  0.1509  0.3261
 6341TIP3    H140658   4.235   2.680   3.397  1.0486 -0.4120 -0.3035
 6341TIP3    H240659   4.350   2.637   3.485 -0.7634  0.2627  2.5253
 6342TIP3   OH240660   4.014   3.523   0.493  0.2705 -0.3404 -0.8455
 6342TIP3    H140661   3.924   3.522   0.527  0.8368  0.1314  0.7780
 6342TIP3    H240662   4.042   3.614   0.504  1.3302 -0.7207 -0.2380
 6343TIP3   OH240663   0.202   0.150   0.815 -0.0468 -0.3989  0.1231
 6343TIP3    H140664   0.108   0.143   0.801 -0.6713  1.5824  2.5711
 6343TIP3    H240665   0.229   0.062   0.843 -1.7545 -0.3468  2.1284
 6344TIP3   OH240666   3.272   6.177   0.758  0.5133  0.1872 -0.1109
 6344TIP3    H140667   3.295   6.231   0.683 -0.5565  0.2687 -0.4006
 6344TIP3    H240668   3.301   6.228   0.834  0.8110  0.5015 -0.4339
 6345TIP3   OH240669   0.280   2.821   1.259 -0.2145  0.4441 -0.1095
 6345TIP3    H140670   0.342   2.874   1.310  0.1570  0.2743 -0.3794
 6345TIP3    H240671   0.226   2.777   1.325 -1.5387  2.3164  0.1185
 6346TIP3   OH240672   3.030   4.128   7.907  0.2834  0.1873  0.2598
 6346TIP3    H140673   2.946   4.173   7.898 -0.1265 -0.5594  0.2464
 6346TIP3    H240674   3.063   4.157   7.992  0.9833  2.0343 -0.5916
 6347TIP3   OH240675   0.463   0.978   0.267  0.7052 -0.2849  0.4176
 6347TIP3    H140676   0.463   0.934   0.352  1.1230 -0.2717  0.4251
 6347TIP3    H240677   0.555   0.980   0.241  0.5166 -0.9109 -0.3517
 6348TIP3   OH240678   2.249   3.471   7.608  0.1870 -0.3686  0.2052
 6348TIP3    H140679   2.167   3.422   7.611 -0.0446  0.0406  0.6862
 6348TIP3    H240680   2.222   3.563   7.598  0.5932 -0.2682  0.0119
 6349TIP3   OH240681   1.532   1.545   0.594 -0.5010  0.1097  0.1671
 6349TIP3    H140682   1.498   1.467   0.636  0.6216 -0.4361  0.0880
 6349TIP3    H240683   1.603   1.575   0.650  0.1357  0.1399 -0.6380
 6350TIP3   OH240684   4.820   0.131   1.514  0.0065  0.1023 -0.6006
 6350TIP3    H140685   4.774   0.157   1.594  0.5865  0.5357 -0.3953
 6350TIP3    H240686   4.817   0.035   1.514  0.1473  0.0907  0.0391
 6351TIP3   OH240687   6.155   4.276   2.382 -0.1412 -0.7144 -0.5342
 6351TIP3    H140688   6.194   4.357   2.414 -1.1868 -0.5812  0.4697
 6351TIP3    H240689   6.229   4.225   2.348  0.6908  0.1244 -0.0158
 6352TIP3   OH240690   0.730   3.029   8.611 -0.0407 -0.4004 -0.2205
 6352TIP3    H140691   0.749   3.118   8.583 -1.4191  0.4171  1.2452
 6352TIP3    H240692   0.646   3.008   8.570 -0.3432 -0.5288  0.4447
 6353TIP3   OH240693   5.186   5.396   0.350  0.2959 -0.2982 -0.3096
 6353TIP3    H140694   5.158   5.472   0.402 -0.2694 -0.6236 -0.1243
 6353TIP3    H240695   5.237   5.343   0.411  0.3836 -0.2412 -0.3346
 6354TIP3   OH240696   5.402   2.554   0.122 -0.5383  0.2149  0.3072
 6354TIP3    H140697   5.399   2.649   0.117 -1.0998  0.4222  2.8357
 6354TIP3    H240698   5.488   2.535   0.161 -0.4359 -0.3056 -0.1663
 6355TIP3   OH240699   3.235   1.844   3.150 -0.0703 -0.3984 -0.0976
 6355TIP3    H140700   3.144   1.826   3.174  0.3631 -1.6733  0.6955
 6355TIP3    H240701   3.243   1.813   3.060 -0.4966  0.0731 -0.3091
 6356TIP3   OH240702   1.965   2.787   8.546  0.5409  0.3665 -0.3258
 6356TIP3    H140703   2.058   2.767   8.553  0.6920  1.2813  0.4007
 6356TIP3    H240704   1.962   2.869   8.496  0.0734 -0.1026 -1.0876
 6357TIP3   OH240705   3.534   3.329   0.851 -0.3073 -0.3423  0.0256
 6357TIP3    H140706   3.581   3.399   0.807  1.3855 -2.2300 -1.3492
 6357TIP3    H240707   3.599   3.260   0.864 -2.2701 -2.3902 -0.3419
 6358TIP3   OH240708   0.416   1.646   3.474  0.0942 -0.0025 -0.4448
 6358TIP3    H140709   0.338   1.658   3.420 -0.0153  1.6160  0.0054
 6358TIP3    H240710   0.404   1.708   3.546  1.6999  0.1146 -0.2507
 6359TIP3   OH240711   2.728   5.329   2.747  0.3745 -0.4269 -0.5997
 6359TIP3    H140712   2.734   5.241   2.783 -0.8067 -0.1770  0.2664
 6359TIP3    H240713   2.638   5.335   2.715  0.0132  0.9038  0.5854
 6360TIP3   OH240714   3.793   1.061   0.384 -0.1449 -0.0779 -0.1939
 6360TIP3    H140715   3.788   1.003   0.460 -1.8478  1.0841  0.6667
 6360TIP3    H240716   3.872   1.035   0.338  0.9835 -0.8003  2.0132
 6361TIP3   OH240717   6.109   6.346   0.204 -0.6661 -0.2771  0.7781
 6361TIP3    H140718   6.035   6.349   0.142  0.5858  0.9441 -0.7600
 6361TIP3    H240719   6.117   6.254   0.227 -0.2021 -1.1037 -2.2247
 6362TIP3   OH240720   5.671   1.208   3.410 -0.4578 -0.0529 -0.3019
 6362TIP3    H140721   5.609   1.167   3.471 -0.8067  0.6725 -0.1635
 6362TIP3    H240722   5.704   1.285   3.457  0.6969 -0.5196 -0.3011
 6363TIP3   OH240723   0.437   1.859   3.220 -0.4918 -0.1537 -0.5238
 6363TIP3    H140724   0.483   1.775   3.223 -0.3390 -0.1847 -2.2487
 6363TIP3    H240725   0.350   1.838   3.184 -0.2615  0.4649 -1.4983
 6364TIP3   OH240726   1.116   5.846   0.274  0.1903  0.5032 -0.2488
 6364TIP3    H140727   1.032   5.853   0.318  1.2057  0.3060  1.8705
 6364TIP3    H240728   1.143   5.936   0.258  0.4779  0.6577  0.9903
 6365TIP3   OH240729   1.191   0.063   2.323  0.0350 -0.9505  0.2111
 6365TIP3    H140730   1.099   0.047   2.344 -0.3012 -0.9528 -1.1698
 6365TIP3    H240731   1.237  -0.017   2.351 -0.3673 -0.9566  0.8822
 6366TIP3   OH240732   5.634   3.848   2.841 -0.2990  0.5459 -0.5864
 6366TIP3    H140733   5.678   3.914   2.787 -1.4739  1.1702 -0.8116
 6366TIP3    H240734   5.595   3.788   2.778  1.3830 -0.8338 -0.3840
 6367TIP3   OH240735   1.088   5.520   2.346  0.4503  0.3420 -0.1010
 6367TIP3    H140736   1.063   5.608   2.321  0.2666 -0.2017 -1.9828
 6367TIP3    H240737   1.172   5.505   2.303  0.4990 -0.3846  0.2234
 6368TIP3   OH240738   3.022   4.352   2.275  0.1586  0.2269  0.1792
 6368TIP3    H140739   3.032   4.257   2.281  1.4727  0.3498  0.3457
 6368TIP3    H240740   3.112   4.384   2.262 -0.5668  1.0976 -4.7486
 6369TIP3   OH240741   0.296   3.259   2.004 -0.4666 -0.1560 -0.1223
 6369TIP3    H140742   0.320   3.200   2.075 -3.6930 -0.4650  0.8451
 6369TIP3    H240743   0.372   3.317   1.994  1.2172 -1.9665  1.5462
 6370TIP3   OH240744   4.144   5.321   0.438 -0.1366  0.3526 -0.4507
 6370TIP3    H140745   4.179   5.382   0.503 -0.0917 -1.4583  1.3084
 6370TIP3    H240746   4.059   5.295   0.473  0.5356 -1.8050 -0.2855
 6371TIP3   OH240747   0.247   1.200   1.765  0.1605 -0.1851  0.0624
 6371TIP3    H140748   0.190   1.123   1.755  0.1839 -0.1401 -0.4949
 6371TIP3    H240749   0.213   1.263   1.701  0.2160  0.2256  0.4327
 6372TIP3   OH240750   5.724   5.120   0.118 -0.8898 -0.5501  0.4873
 6372TIP3    H140751   5.788   5.177   0.161 -3.1503  1.5567  1.2842
 6372TIP3    H240752   5.700   5.167   0.038 -1.2708 -1.4415  0.0606
 6373TIP3   OH240753   3.881   4.781   8.733  0.4734  0.3468  0.3659
 6373TIP3    H140754   3.950   4.750   8.793  0.1202 -1.4088 -0.0801
 6373TIP3    H240755   3.801   4.779   8.785 -0.3044 -3.5621 -0.6532
 6374TIP3   OH240756   5.261   4.361   2.825  0.5608  0.0221  0.1074
 6374TIP3    H140757   5.249   4.279   2.778  0.1507 -0.1682  0.5312
 6374TIP3    H240758   5.321   4.412   2.771 -0.1322 -0.0672 -0.7632
 6375TIP3   OH240759   1.672   1.575   2.281 -0.2881  0.1909  0.1429
 6375TIP3    H140760   1.762   1.575   2.250  1.0169  2.4245  3.3273
 6375TIP3    H240761   1.645   1.667   2.276 -1.3634  0.0001  1.7138
 6376TIP3   OH240762   1.001   6.879   2.706  0.1573 -0.6603  0.2740
 6376TIP3    H140763   0.992   6.827   2.626 -0.6226  0.7120 -0.5744
 6376TIP3    H240764   0.912   6.906   2.727  0.4014 -0.6854  1.4051
 6377TIP3   OH240765   4.329   4.887   1.109  0.0429 -0.4589  0.1314
 6377TIP3    H140766   4.306   4.928   1.192  0.6558 -0.9786  0.5685
 6377TIP3    H240767   4.263   4.919   1.047  0.6437  1.3650  0.3843
 6378TIP3   OH240768   3.939   6.749   0.485 -0.5633 -0.5156 -0.3327
 6378TIP3    H140769   3.928   6.811   0.557 -0.4966  0.1137 -0.8573
 6378TIP3    H240770   3.858   6.755   0.435  0.7869  1.8451 -2.4305
 6379TIP3   OH240771   6.365   1.287   1.475 -0.4303 -0.3611 -0.1307
 6379TIP3    H140772   6.368   1.383   1.472  0.5093 -0.3632  0.2740
 6379TIP3    H240773   6.322   1.262   1.394 -0.9379  0.4127 -0.1148
 6380TIP3   OH240774   6.280   4.845   1.561 -0.0379  0.3758  0.3678
 6380TIP3    H140775   6.273   4.921   1.620 -1.3224  0.0108  0.7310
 6380TIP3    H240776   6.253   4.771   1.615 -0.2015 -0.1168 -0.3815
 6381TIP3   OH240777   6.388   0.837   3.372 -0.6546  0.1377  0.6204
 6381TIP3    H140778   6.386   0.929   3.399 -0.5543  0.7279 -1.2463
 6381TIP3    H240779   6.449   0.835   3.299  0.0091 -1.6028  1.1784
 6382TIP3   OH240780   1.098   1.462   0.058 -0.1654  0.3251 -0.0408
 6382TIP3    H140781   1.017   1.445   0.009 -0.0824 -0.8993  0.2225
 6382TIP3    H240782   1.073   1.523   0.127 -0.8645 -0.0213  0.0147
 6383TIP3   OH240783   5.532   4.508   2.861 -0.6367 -0.4780 -0.8898
 6383TIP3    H140784   5.473   4.541   2.929  2.6380 -1.7221  3.0214
 6383TIP3    H240785   5.527   4.413   2.869 -0.4847 -0.6908 -2.8342
 6384TIP3   OH240786   1.171   2.535   2.694  0.2051  0.5564 -0.0351
 6384TIP3    H140787   1.097   2.493   2.738 -0.7697  0.2901 -1.8397
 6384TIP3    H240788   1.240   2.469   2.694 -0.8299 -0.5830 -1.5693
 6385TIP3   OH240789   0.469   1.443   3.018  0.4659  0.2625 -0.2866
 6385TIP3    H140790   0.387   1.486   2.995  0.4298  0.1039 -0.4569
 6385TIP3    H240791   0.500   1.490   3.095  0.6459  0.8770 -0.7247
 6386TIP3   OH240792   6.317   5.010   8.394  0.1495 -0.1511  0.5931
 6386TIP3    H140793   6.234   5.043   8.428  0.8575  1.1241  1.1258
 6386TIP3    H240794   6.303   5.005   8.300 -0.7761 -0.6846  0.7392
 6387TIP3   OH240795   2.605   6.144   8.317 -0.2327 -0.1489 -0.1930
 6387TIP3    H140796   2.625   6.130   8.224  1.3059 -0.1111  0.1046
 6387TIP3    H240797   2.586   6.056   8.351  0.1169 -0.2824 -0.3414
 6388TIP3   OH240798   5.639   3.608   3.745  0.2664  0.3128 -0.3301
 6388TIP3    H140799   5.621   3.528   3.795 -1.1035  0.0695 -1.1602
 6388TIP3    H240800   5.725   3.594   3.707  0.2962 -0.5191  0.0210
 6389TIP3   OH240801   3.893   3.727   8.053 -0.3281  0.1673 -0.1606
 6389TIP3    H140802   3.810   3.775   8.051 -0.2379  0.3012 -1.0655
 6389TIP3    H240803   3.946   3.768   7.985 -0.1817 -1.0717 -0.8315
 6390TIP3   OH240804   1.024   1.469   3.484 -0.2795 -0.0958  0.1317
 6390TIP3    H140805   1.036   1.461   3.578 -1.2306 -0.9248  0.2019
 6390TIP3    H240806   1.108   1.445   3.446  0.0484  0.0528  0.7625
 6391TIP3   OH240807   5.862   0.070   2.919 -0.5259 -0.7123 -0.1718
 6391TIP3    H140808   5.784   0.013   2.921 -1.5499  0.6580  1.2331
 6391TIP3    H240809   5.936   0.009   2.916 -1.6192 -2.0683 -0.9870
 6392TIP3   OH240810   5.807   4.870   0.202  0.4343 -0.2870 -0.4732
 6392TIP3    H140811   5.805   4.961   0.172 -0.1357 -0.4983 -1.0962
 6392TIP3    H240812   5.718   4.838   0.189 -0.1772 -0.0618  2.5136
 6393TIP3   OH240813   4.553   0.143   1.179 -0.3211  0.6561 -0.3744
 6393TIP3    H140814   4.517   0.225   1.145  1.0011  2.7159  2.7678
 6393TIP3    H240815   4.524   0.141   1.270  1.2529 -1.4380  0.1365
 6394TIP3   OH240816   0.311   6.340   1.649 -0.8947 -0.0573  0.1585
 6394TIP3    H140817   0.274   6.278   1.586  0.2552  0.0384 -0.6428
 6394TIP3    H240818   0.243   6.406   1.660 -1.8489 -1.0551  0.4603
 6395TIP3   OH240819   6.404   5.929   0.227  0.4800 -0.3502 -0.1555
 6395TIP3    H140820   6.356   5.861   0.275  0.9006 -0.2352  0.4422
 6395TIP3    H240821   6.496   5.911   0.246  0.5526  1.2710  1.2302
 6396TIP3   OH240822   6.794   2.905   2.559 -0.1887 -0.1446 -0.0324
 6396TIP3    H140823   6.785   2.911   2.654 -0.4028  0.6253 -0.0986
 6396TIP3    H240824   6.886   2.881   2.545 -0.3740 -1.1581  0.3924
 6397TIP3   OH240825   5.465   0.282   2.504  0.1969  0.0517 -0.5188
 6397TIP3    H140826   5.549   0.324   2.482 -0.0334  0.7424 -0.1112
 6397TIP3    H240827   5.433   0.247   2.420  1.1822 -0.7769 -0.5720
 6398TIP3   OH240828   3.390   5.506   0.397 -0.9293 -0.1466  0.2596
 6398TIP3    H140829   3.329   5.456   0.342 -0.3281 -1.4520  0.7276
 6398TIP3    H240830   3.411   5.446   0.469 -0.6247  1.0175  1.1671
 6399TIP3   OH240831   1.558   3.422   1.775  0.2017  0.0166  0.0782
 6399TIP3    H140832   1.528   3.339   1.812 -1.2710  0.3849 -0.2249
 6399TIP3    H240833   1.568   3.405   1.682  1.5830 -0.2627  0.2567
 6400TIP3   OH240834   1.989   1.319   1.823 -0.1868  0.5679 -0.0317
 6400TIP3    H140835   1.931   1.350   1.753 -0.2938 -0.3749 -0.3762
 6400TIP3    H240836   2.003   1.227   1.803  0.5863  0.5272  0.6456
 6401TIP3   OH240837   3.895   3.072   2.821  1.2190  0.1082 -0.3919
 6401TIP3    H140838   3.945   3.060   2.902  1.9770  0.2951 -0.8229
 6401TIP3    H240839   3.847   2.990   2.810  0.8555  0.2001  0.4106
 6402TIP3   OH240840   5.403   4.374   1.682 -0.0411 -0.1538  0.1936
 6402TIP3    H140841   5.343   4.387   1.755  0.5393 -0.3883  0.7180
 6402TIP3    H240842   5.434   4.284   1.691  0.0930 -0.1639 -0.2998
 6403TIP3   OH240843   0.595   4.208   2.636 -0.1016  0.0197 -0.1747
 6403TIP3    H140844   0.661   4.180   2.572  1.9488 -2.3489  2.6710
 6403TIP3    H240845   0.552   4.127   2.662 -1.6301  1.0696  0.7079
 6404TIP3   OH240846   3.548   0.398   2.509  0.7604 -0.1799 -0.0246
 6404TIP3    H140847   3.565   0.448   2.589  2.8376 -0.4082 -0.2566
 6404TIP3    H240848   3.487   0.329   2.536  1.8801 -0.6180  1.5268
 6405TIP3   OH240849   0.591   6.471   3.737 -0.0121  0.2466  0.3144
 6405TIP3    H140850   0.590   6.564   3.762  0.9098  0.0640  1.0974
 6405TIP3    H240851   0.566   6.425   3.817 -0.6208 -0.1855 -0.1142
 6406TIP3   OH240852   6.664   5.975   0.465 -0.3779  0.3152  0.5449
 6406TIP3    H140853   6.758   5.958   0.460 -0.4064  0.2563  0.1405
 6406TIP3    H240854   6.624   5.905   0.413 -0.6560  0.2348  0.8672
 6407TIP3   OH240855   3.444   5.281   2.680 -0.7233  0.1469 -0.4210
 6407TIP3    H140856   3.388   5.255   2.607 -0.7240 -0.5515 -0.1772
 6407TIP3    H240857   3.390   5.265   2.758 -0.9428  1.4383 -0.2882
 6408TIP3   OH240858   3.419   6.468   3.532 -0.4576 -0.2658 -0.2374
 6408TIP3    H140859   3.351   6.402   3.520 -1.4070  0.6736 -0.1424
 6408TIP3    H240860   3.420   6.484   3.627  0.9507 -1.3325 -0.0248
 6409TIP3   OH240861   2.352   2.678   2.805  0.3639 -0.2233 -0.0345
 6409TIP3    H140862   2.354   2.665   2.900 -1.1835  0.5147  0.1343
 6409TIP3    H240863   2.408   2.754   2.789  0.9541 -0.5999  0.2341
 6410TIP3   OH240864   4.539   3.612   1.692 -0.1249 -0.1737 -0.3448
 6410TIP3    H140865   4.468   3.598   1.755  0.1174  1.1032  0.2354
 6410TIP3    H240866   4.591   3.532   1.698 -1.3848 -1.0559 -0.6444
 6411TIP3   OH240867   0.540   0.799   2.381 -0.3797  0.3008  0.0775
 6411TIP3    H140868   0.618   0.794   2.326 -0.5986 -2.0070 -0.1175
 6411TIP3    H240869   0.531   0.892   2.401  0.0785  1.2089 -3.2656
 6412TIP3   OH240870   6.693   4.264   3.396 -0.0361 -0.3032 -0.2935
 6412TIP3    H140871   6.695   4.191   3.459 -1.4413  1.2221  1.6430
 6412TIP3    H240872   6.656   4.337   3.446  0.9306  1.6356 -2.2890
 6413TIP3   OH240873   0.021   4.041   3.101 -0.0412 -0.0769 -0.4598
 6413TIP3    H140874   0.081   4.019   3.172  1.0536  0.2197 -1.2734
 6413TIP3    H240875  -0.040   3.967   3.097 -0.1467 -0.0847  0.7917
 6414TIP3   OH240876   5.845   3.707   4.389  0.1872 -0.0641  0.8523
 6414TIP3    H140877   5.913   3.713   4.321  1.4048 -1.2511  1.9253
 6414TIP3    H240878   5.834   3.797   4.419  0.9128  0.2110  0.3190
 6415TIP3   OH240879   5.011   3.885   8.695  0.2429 -0.2006 -0.2548
 6415TIP3    H140880   5.014   3.902   8.600  1.6900 -1.0460 -0.3865
 6415TIP3    H240881   4.918   3.894   8.718  0.1778  2.7533 -1.2284
 6416TIP3   OH240882   5.255   0.176   1.676 -0.7139  0.0752 -0.1092
 6416TIP3    H140883   5.314   0.102   1.656 -1.3930 -0.4758 -0.1119
 6416TIP3    H240884   5.308   0.235   1.730  0.0597 -0.0781 -0.6778
 6417TIP3   OH240885   0.664   0.092   0.454  0.2019 -0.5824  0.3560
 6417TIP3    H140886   0.668   0.135   0.539 -0.1223 -0.7548  0.4581
 6417TIP3    H240887   0.735   0.028   0.455  0.8440  0.1115  0.1137
 6418TIP3   OH240888   6.528   4.088   1.411  0.2038 -0.5754  0.1558
 6418TIP3    H140889   6.618   4.064   1.388  0.4082  1.0964 -0.9343
 6418TIP3    H240890   6.518   4.177   1.378 -0.8337  0.4835  3.0056
 6419TIP3   OH240891   6.869   1.988   3.232 -0.3958  0.6882 -0.5898
 6419TIP3    H140892   6.845   2.046   3.304  0.5344  0.5458 -0.1404
 6419TIP3    H240893   6.791   1.982   3.178 -0.6051  2.1067 -0.4780
 6420TIP3   OH240894   0.494   5.094   1.240  0.4037 -0.2600  0.1990
 6420TIP3    H140895   0.478   5.008   1.200  0.7288 -1.0562  1.6844
 6420TIP3    H240896   0.500   5.075   1.334 -0.5084  1.5532  0.6531
 6421TIP3   OH240897   3.056   2.419   0.896  0.1378  0.0390  0.0065
 6421TIP3    H140898   3.126   2.406   0.833 -0.1816 -1.3979 -0.0895
 6421TIP3    H240899   2.993   2.349   0.877  0.1926 -0.6604  2.1083
 6422TIP3   OH240900   0.340   1.317   2.410  0.2942 -0.5486 -0.2356
 6422TIP3    H140901   0.401   1.381   2.374  0.4344 -1.1751 -1.1440
 6422TIP3    H240902   0.260   1.366   2.428  0.2758 -0.1845 -1.2730
 6423TIP3   OH240903   4.882   0.398   2.003 -0.1000 -0.0640 -0.0730
 6423TIP3    H140904   4.933   0.343   1.944  0.4434  1.0119 -0.6383
 6423TIP3    H240905   4.944   0.464   2.034 -0.5760 -0.1468  1.0964
 6424TIP3   OH240906   4.320   3.937   2.554  0.1447  0.0348 -0.5055
 6424TIP3    H140907   4.416   3.940   2.559  0.0733  1.5112  1.0271
 6424TIP3    H240908   4.295   4.026   2.527 -0.8107 -0.1172 -0.1585
 6425TIP3   OH240909   4.627   0.313   3.251 -0.2742  0.4436 -0.0202
 6425TIP3    H140910   4.672   0.245   3.302  1.7957  3.5040  2.6841
 6425TIP3    H240911   4.600   0.377   3.316 -2.5581  2.0450 -2.3604
 6426TIP3   OH240912   4.567   1.918   1.813  0.4573  0.1810  0.0575
 6426TIP3    H140913   4.601   1.830   1.798  1.8211  0.9709 -2.0421
 6426TIP3    H240914   4.474   1.912   1.795  0.4361 -0.9064  0.4403
 6427TIP3   OH240915   4.961   6.861   1.219  0.2963 -0.2214  0.1967
 6427TIP3    H140916   5.045   6.897   1.251 -0.3289  0.0528  1.6235
 6427TIP3    H240917   4.922   6.932   1.168  0.3285  0.1415  0.6695
 6428TIP3   OH240918   2.610   5.324   3.030 -0.4822  0.4471 -0.9082
 6428TIP3    H140919   2.554   5.397   3.005  0.0829  0.6592 -1.6171
 6428TIP3    H240920   2.698   5.351   3.002 -0.0739 -0.0002 -0.0909
 6429TIP3   OH240921   2.702   1.743   2.219  0.2509  0.5119  0.0318
 6429TIP3    H140922   2.623   1.779   2.177 -0.4032  0.5478  1.2479
 6429TIP3    H240923   2.701   1.779   2.307  0.1534 -1.6058  0.9565
 6430TIP3   OH240924   3.955   5.284   8.435  0.0116 -0.2815  0.0840
 6430TIP3    H140925   4.049   5.272   8.447  0.0390  0.0912  0.2834
 6430TIP3    H240926   3.947   5.332   8.353 -0.0371 -0.7858 -0.2060
 6431TIP3   OH240927   5.391   1.773   1.547 -0.2152  0.2384 -0.0306
 6431TIP3    H140928   5.327   1.722   1.596  1.6455 -0.8797  1.4069
 6431TIP3    H240929   5.421   1.714   1.478 -0.7786  0.7828 -0.7469
 6432TIP3   OH240930   0.193   1.551   2.310  0.2418 -0.5530  0.1590
 6432TIP3    H140931   0.243   1.616   2.262 -0.5231 -1.6410 -2.2444
 6432TIP3    H240932   0.189   1.585   2.400  3.2440  0.7000 -0.0475
 6433TIP3   OH240933   5.233   1.094   0.048  0.1970 -0.1939  0.0345
 6433TIP3    H140934   5.302   1.028   0.041 -0.7135 -1.2272  0.5654
 6433TIP3    H240935   5.152   1.044   0.053 -0.4675  0.9375  1.1480
 6434TIP3   OH240936   2.207   6.402   1.575 -0.0241  0.3422  0.8997
 6434TIP3    H140937   2.184   6.409   1.482  0.3123  0.3609  0.8175
 6434TIP3    H240938   2.172   6.482   1.614  0.1526  0.5070  0.7222
 6435TIP3   OH240939   6.090   1.084   8.307  0.0202  0.6274 -0.5153
 6435TIP3    H140940   6.134   1.038   8.236 -0.3478 -2.0380  0.8502
 6435TIP3    H240941   6.146   1.159   8.325  1.2217  0.2034 -2.2314
 6436TIP3   OH240942   5.517   1.145   0.257  0.4073 -0.8363 -0.3910
 6436TIP3    H140943   5.546   1.062   0.294 -0.9310 -0.5151  1.5396
 6436TIP3    H240944   5.434   1.124   0.213  0.3614 -0.6340 -0.4037
 6437TIP3   OH240945   3.774   6.764   1.624 -0.0114  0.7723 -0.1030
 6437TIP3    H140946   3.858   6.737   1.661 -0.6303 -0.3720  0.5249
 6437TIP3    H240947   3.755   6.848   1.667  0.4097  0.6318  0.3680
 6438TIP3   OH240948   4.765   0.494   1.463  0.0240  0.4913 -0.0369
 6438TIP3    H140949   4.805   0.480   1.378  0.4995  1.5188  0.0130
 6438TIP3    H240950   4.836   0.478   1.526  0.0335  1.0695  0.1048
 6439TIP3   OH240951   4.238   4.997   3.962 -1.1163  0.4291 -0.1340
 6439TIP3    H140952   4.212   4.935   4.030 -2.2127 -0.0466 -0.9571
 6439TIP3    H240953   4.211   5.082   3.997 -0.9351  0.2834  0.3758
 6440TIP3   OH240954   6.319   1.743   0.717  0.4724  0.7047 -0.1538
 6440TIP3    H140955   6.341   1.706   0.802  0.3009 -1.5263 -1.0096
 6440TIP3    H240956   6.267   1.821   0.737  1.0569  0.6546  1.7634
 6441TIP3   OH240957   0.568   3.650   3.039 -0.6759  0.1681 -0.3101
 6441TIP3    H140958   0.502   3.582   3.056 -0.8129 -0.2632 -2.2613
 6441TIP3    H240959   0.524   3.732   3.062 -1.1353 -0.2701  0.4093
 6442TIP3   OH240960   6.734   0.738   1.580  0.5049 -0.0448  0.4045
 6442TIP3    H140961   6.758   0.774   1.665 -0.5928 -2.8075  2.0087
 6442TIP3    H240962   6.810   0.684   1.556 -0.0543 -1.0016  0.7356
 6443TIP3   OH240963   6.317   1.075   0.439  0.2855  0.0221 -0.0429
 6443TIP3    H140964   6.255   1.007   0.463  0.2588  0.3490  0.8248
 6443TIP3    H240965   6.365   1.094   0.520  1.2282  0.0732 -0.5934
 6444TIP3   OH240966   3.587   1.346   0.886 -0.5502  1.0436 -0.4825
 6444TIP3    H140967   3.549   1.328   0.800  1.1225  1.4419 -1.3576
 6444TIP3    H240968   3.640   1.269   0.906  0.3434  1.6080 -0.5804
 6445TIP3   OH240969   1.064   0.449   1.986 -0.0323 -0.4939  0.0707
 6445TIP3    H140970   1.134   0.409   2.038  1.4188  0.1030 -1.3691
 6445TIP3    H240971   1.058   0.539   2.020  1.0818 -0.0284 -0.8930
 6446TIP3   OH240972   2.204   5.391   0.259  0.1138  0.3608  0.0065
 6446TIP3    H140973   2.234   5.455   0.195  1.6514  0.3781  0.7003
 6446TIP3    H240974   2.280   5.376   0.315  0.0131 -2.5268 -0.4950
 6447TIP3   OH240975   2.713   4.351   0.834  0.0949  0.2180 -0.3775
 6447TIP3    H140976   2.669   4.348   0.919 -0.4933 -1.0059 -0.7030
 6447TIP3    H240977   2.652   4.308   0.773  0.7501  0.5574 -1.3078
 6448TIP3   OH240978   3.545   2.605   8.458  0.0947 -0.0526  0.5685
 6448TIP3    H140979   3.514   2.622   8.369  2.6147 -1.5156 -0.6834
 6448TIP3    H240980   3.627   2.653   8.465  0.4011 -0.6994  1.7801
 6449TIP3   OH240981   5.306   4.119   3.605 -0.0394  0.4169  0.7377
 6449TIP3    H140982   5.367   4.131   3.532  0.7708  0.1521  1.3518
 6449TIP3    H240983   5.321   4.195   3.662 -0.6125  0.5857  0.6705
 6450TIP3   OH240984   1.077   5.392   3.044 -0.2035 -0.3999 -0.3061
 6450TIP3    H140985   0.988   5.406   3.075 -0.2312  0.4938 -0.7617
 6450TIP3    H240986   1.133   5.414   3.119 -0.3885 -3.6602  0.9475
 6451TIP3   OH240987   1.223   3.891   0.303 -0.4664  0.2459 -0.3915
 6451TIP3    H140988   1.279   3.848   0.368 -0.0689  1.8085  0.3421
 6451TIP3    H240989   1.277   3.899   0.225  0.5701  2.1458  0.4487
 6452TIP3   OH240990   1.286   5.474   2.559  0.4857  0.3106 -0.7185
 6452TIP3    H140991   1.370   5.448   2.520  0.5523 -0.6271  0.0234
 6452TIP3    H240992   1.228   5.485   2.484  0.7134 -1.0997 -1.1285
 6453TIP3   OH240993   1.965   3.793   1.905 -0.1240 -0.1800 -0.4166
 6453TIP3    H140994   1.984   3.708   1.866 -0.4736 -1.5856  2.2538
 6453TIP3    H240995   1.869   3.797   1.908 -0.1596 -1.1876  2.2678
 6454TIP3   OH240996   1.999   4.591   3.239 -0.2407 -0.2854  0.7087
 6454TIP3    H140997   2.042   4.634   3.313 -1.3593  0.2689  1.0449
 6454TIP3    H240998   2.030   4.501   3.243 -0.4004 -0.3010  1.9367
 6455TIP3   OH240999   2.212   5.101   4.137  0.0672 -0.6609  0.2759
 6455TIP3    H141000   2.200   5.006   4.130 -2.5271 -0.2768 -2.3452
 6455TIP3    H241001   2.141   5.131   4.193  0.5741 -0.1784  0.6806
 6456TIP3   OH241002   4.297   6.669   1.019  0.5755  0.7825  0.5345
 6456TIP3    H141003   4.205   6.663   0.992  1.0503 -0.2253 -0.9671
 6456TIP3    H241004   4.297   6.640   1.110 -0.3902 -0.9004  0.0419
 6457TIP3   OH241005   6.869   0.873   4.305 -0.3714  0.5148 -0.4392
 6457TIP3    H141006   6.774   0.879   4.302 -0.3864  0.1739 -2.8563
 6457TIP3    H241007   6.892   0.813   4.234  1.6401  0.4041  0.2212
 6458TIP3   OH241008   4.404   4.413   7.600  0.3425 -0.4559 -0.5828
 6458TIP3    H141009   4.462   4.483   7.630 -0.6064  0.3340 -0.5587
 6458TIP3    H241010   4.463   4.340   7.582  1.0842 -0.8379  2.7208
 6459TIP3   OH241011   1.131   5.324   0.562 -0.5120  0.0241  0.0149
 6459TIP3    H141012   1.098   5.413   0.557  0.0354  0.3830  1.9132
 6459TIP3    H241013   1.226   5.334   0.566 -0.3701 -0.7390 -1.1208
 6460TIP3   OH241014   1.003   4.775   3.335 -0.4763  0.5949 -0.2858
 6460TIP3    H141015   0.952   4.769   3.416  1.1072  0.0293  0.7192
 6460TIP3    H241016   1.094   4.765   3.364  0.1998  1.4596 -2.0281
 6461TIP3   OH241017   4.573   4.722   1.580  0.1501  0.0890  0.0897
 6461TIP3    H141018   4.585   4.795   1.640  0.8704 -0.3428  0.4853
 6461TIP3    H241019   4.507   4.753   1.518  1.9034  1.8981 -1.0138
 6462TIP3   OH241020   5.129   1.238   3.815 -0.0466 -0.2000  0.1284
 6462TIP3    H141021   5.053   1.293   3.796  0.9825  1.1732 -0.1569
 6462TIP3    H241022   5.137   1.239   3.910 -0.1852 -0.0866  0.1384
 6463TIP3   OH241023   3.708   1.162   0.691  0.3950  0.4021 -0.4793
 6463TIP3    H141024   3.731   1.244   0.648  0.9612  0.7550  0.4716
 6463TIP3    H241025   3.759   1.162   0.772 -1.4911  0.3148  0.7822
 6464TIP3   OH241026   2.029   6.011   3.619 -0.0479  0.0682 -0.1543
 6464TIP3    H141027   2.080   6.043   3.545 -2.4925  1.9441 -1.1563
 6464TIP3    H241028   2.063   6.060   3.694 -0.4643  1.4439 -0.8320
 6465TIP3   OH241029   2.024   1.037   1.436  0.1021 -0.2911 -0.0594
 6465TIP3    H141030   2.063   1.124   1.441 -2.0107  0.7605 -0.3370
 6465TIP3    H241031   2.011   1.022   1.343  1.5561 -1.4867 -0.1063
 6466TIP3   OH241032   3.321   2.389   0.104  0.7142  0.1920 -0.0946
 6466TIP3    H141033   3.244   2.430   0.064  0.5878 -1.2562 -1.4579
 6466TIP3    H241034   3.394   2.447   0.081  0.5646 -0.3296 -2.1258
 6467TIP3   OH241035   4.872   6.023   2.210  0.1613  0.3938  0.1539
 6467TIP3    H141036   4.911   6.109   2.198 -1.0693  0.8599 -0.7435
 6467TIP3    H241037   4.934   5.962   2.170  0.1002  1.0753 -1.0040
 6468TIP3   OH241038   1.347   3.006   8.150 -0.0337  0.4839  0.2077
 6468TIP3    H141039   1.429   3.020   8.102 -0.4493 -1.0819 -1.0292
 6468TIP3    H241040   1.280   3.039   8.090 -0.5515 -1.3873 -0.3070
 6469TIP3   OH241041   1.178   5.812   0.739 -0.5913 -0.2872  0.0613
 6469TIP3    H141042   1.265   5.770   0.739 -0.7402 -0.6184  1.2145
 6469TIP3    H241043   1.196   5.903   0.714 -0.2482 -0.9356 -2.3766
 6470TIP3   OH241044   5.191   3.550   2.705  0.0449 -0.1411  0.0053
 6470TIP3    H141045   5.120   3.487   2.691 -0.0484  0.3351 -1.9130
 6470TIP3    H241046   5.249   3.538   2.630  0.1148  1.9204 -0.3225
 6471TIP3   OH241047   4.662   0.314   2.591 -0.4967 -1.0266  0.5672
 6471TIP3    H141048   4.672   0.254   2.665 -1.4056 -0.8548  0.8443
 6471TIP3    H241049   4.645   0.257   2.516  0.7788 -1.2210  0.4126
 6472TIP3   OH241050   6.332   4.278   0.867  0.1661  0.1278 -0.2819
 6472TIP3    H141051   6.350   4.219   0.794  0.7920  1.0411 -0.8851
 6472TIP3    H241052   6.245   4.314   0.848  0.7697  1.1828 -1.1733
 6473TIP3   OH241053   5.215   2.956   1.978 -0.0811  0.0397 -0.3938
 6473TIP3    H141054   5.136   3.007   2.000  0.2274 -0.1200  1.1859
 6473TIP3    H241055   5.184   2.866   1.971  0.0488 -0.1098  0.8343
 6474TIP3   OH241056   0.824   5.414   3.155 -0.2425 -1.1417  0.1152
 6474TIP3    H141057   0.805   5.507   3.169 -0.0229 -0.6509 -2.3865
 6474TIP3    H241058   0.806   5.373   3.239 -1.1411  1.0411  1.0645
 6475TIP3   OH241059   4.476   1.571   3.240 -0.0012 -0.1578 -0.1826
 6475TIP3    H141060   4.417   1.538   3.173 -0.7537  0.1266  0.3217
 6475TIP3    H241061   4.560   1.532   3.220 -0.0598  0.4321 -1.6693
 6476TIP3   OH241062   0.972   3.247   7.668 -0.2278  0.1008 -0.0099
 6476TIP3    H141063   0.879   3.250   7.690 -0.3575  0.1210 -0.5484
 6476TIP3    H241064   1.000   3.339   7.669 -0.4086  0.1624 -0.6651
 6477TIP3   OH241065   5.907   6.718   0.757  0.2346 -0.4295  0.4946
 6477TIP3    H141066   5.913   6.799   0.808  1.0504 -0.5778  0.6462
 6477TIP3    H241067   5.814   6.694   0.760  0.0787  0.2138  0.8926
 6478TIP3   OH241068   1.349   5.858   8.546  0.5932 -0.1684  0.2899
 6478TIP3    H141069   1.398   5.932   8.512  0.1374 -1.0516 -2.5941
 6478TIP3    H241070   1.275   5.897   8.592  1.8210  1.1289  1.2560
 6479TIP3   OH241071   6.885   4.329   2.267 -0.9976 -0.4702  0.0666
 6479TIP3    H141072   6.951   4.370   2.323 -1.8926  0.6239  0.3651
 6479TIP3    H241073   6.923   4.331   2.179 -0.1952 -0.8545  0.3958
 6480TIP3   OH241074   4.882   3.480   3.172  0.2719 -0.3012 -0.0229
 6480TIP3    H141075   4.938   3.516   3.104  0.4868 -0.7903 -0.1022
 6480TIP3    H241076   4.793   3.488   3.137  0.4445 -1.3228 -0.7142
 6481TIP3   OH241077   6.231   0.002   2.112  0.1892  0.0623 -0.4030
 6481TIP3    H141078   6.162  -0.041   2.164  1.4256 -1.9138 -0.2932
 6481TIP3    H241079   6.277   0.057   2.175 -0.7465  0.7478 -0.2952
 6482TIP3   OH241080   4.021   4.569   3.554 -0.3220 -0.6351 -0.3795
 6482TIP3    H141081   3.973   4.500   3.509 -0.5628 -0.7857  0.0979
 6482TIP3    H241082   4.096   4.587   3.498 -0.6291 -0.7999 -0.8505
 6483TIP3   OH241083   3.567   4.960   8.664 -0.6132  0.0880 -0.1087
 6483TIP3    H141084   3.494   5.012   8.697  0.3622  0.2435  1.9910
 6483TIP3    H241085   3.583   4.896   8.733  0.9719 -0.1965 -0.6986
 6484TIP3   OH241086   3.894   3.833   2.478 -0.1026 -0.0278  0.5564
 6484TIP3    H141087   3.892   3.880   2.561 -1.6032  0.6324  0.1726
 6484TIP3    H241088   3.953   3.759   2.493  3.2072  2.4772  0.8661
 6485TIP3   OH241089   1.387   2.726   1.627 -0.8314 -0.2202 -0.5606
 6485TIP3    H141090   1.314   2.666   1.613 -0.8441 -0.1524 -0.7823
 6485TIP3    H241091   1.430   2.732   1.542 -1.9094  1.5046 -1.0255
 6486TIP3   OH241092   5.554   5.450   0.430  0.2456 -0.0338  0.2333
 6486TIP3    H141093   5.599   5.392   0.491 -2.6645 -1.5398  1.1371
 6486TIP3    H241094   5.571   5.413   0.344  1.2817 -0.1258  0.4689
 6487TIP3   OH241095   4.333   6.831   0.542  0.5781  0.6015  0.2034
 6487TIP3    H141096   4.293   6.785   0.468 -0.4395  2.3264 -0.3619
 6487TIP3    H241097   4.365   6.761   0.599 -0.8897 -0.8045 -0.6330
 6488TIP3   OH241098   2.965   5.005   0.437 -0.3014  0.6564 -0.1230
 6488TIP3    H141099   2.997   5.019   0.348 -1.8759  1.6937 -0.5705
 6488TIP3    H241100   2.900   4.936   0.428  0.9000 -0.6181  0.5820
 6489TIP3   OH241101   4.329   4.832   2.655  0.5048 -0.2881  0.2781
 6489TIP3    H141102   4.340   4.883   2.735  1.6141  1.2711 -0.8047
 6489TIP3    H241103   4.297   4.896   2.591 -2.3428 -1.9066 -0.0748
 6490TIP3   OH241104   1.816   5.940   0.425  0.0021  0.6037 -0.5059
 6490TIP3    H141105   1.859   5.858   0.404 -0.5905  0.7368 -2.5581
 6490TIP3    H241106   1.864   6.006   0.374 -1.3594  1.0252 -1.3190
 6491TIP3   OH241107   4.930   2.213   8.671 -0.2672  0.1626 -0.2219
 6491TIP3    H141108   4.904   2.259   8.751  0.8745  0.0308  0.2441
 6491TIP3    H241109   4.850   2.170   8.640 -1.4432  2.4996 -0.7323
 6492TIP3   OH241110   6.685   5.086   3.155  0.5842 -0.0460 -0.1226
 6492TIP3    H141111   6.594   5.097   3.126  0.5435 -1.5725 -0.6601
 6492TIP3    H241112   6.678   5.076   3.250  0.2454  0.2847 -0.1073
 6493TIP3   OH241113   6.351   1.149   0.999 -0.0564 -0.1287 -0.6348
 6493TIP3    H141114   6.421   1.152   1.064 -0.4261  1.0039 -0.2764
 6493TIP3    H241115   6.317   1.238   0.995 -2.2140 -0.8676 -0.0212
 6494TIP3   OH241116   0.392   5.771   8.545  0.0084 -0.0479 -0.1997
 6494TIP3    H141117   0.345   5.845   8.506 -2.2014 -0.3918  1.5766
 6494TIP3    H241118   0.414   5.801   8.633  0.8944 -0.8189 -0.1447
 6495TIP3   OH241119   0.470   0.801   1.723  0.3866  0.0939 -0.1263
 6495TIP3    H141120   0.376   0.784   1.728  0.5319 -1.1385 -1.1452
 6495TIP3    H241121   0.498   0.758   1.642  1.6200  1.4854 -0.4920
 6496TIP3   OH241122   2.463   1.425   3.334  0.1560  0.0655  0.0272
 6496TIP3    H141123   2.484   1.484   3.262  0.0117  0.2417  0.1297
 6496TIP3    H241124   2.542   1.425   3.389  0.1451  0.1830  0.0418
 6497TIP3   OH241125   1.876   6.586   8.299 -0.1913 -0.6697 -0.3873
 6497TIP3    H141126   1.878   6.501   8.344  0.4709  0.3087  1.5301
 6497TIP3    H241127   1.962   6.592   8.257 -1.5295 -2.4878 -3.7185
 6498TIP3   OH241128   2.565   2.836   1.302  0.0952 -0.0197 -0.0166
 6498TIP3    H141129   2.542   2.748   1.272  0.7809  0.0160 -0.6788
 6498TIP3    H241130   2.581   2.826   1.396 -2.6242 -0.0333  0.5452
 6499TIP3   OH241131   5.441   5.579   3.772 -0.1507  0.6672 -0.2685
 6499TIP3    H141132   5.363   5.527   3.754 -0.3383  1.1805 -0.9806
 6499TIP3    H241133   5.514   5.521   3.752 -0.3538  0.4686 -0.4439
 6500TIP3   OH241134   3.712   0.283   3.018 -0.6797 -0.5753 -0.3457
 6500TIP3    H141135   3.710   0.190   2.994  2.6092 -0.6111 -0.9184
 6500TIP3    H241136   3.729   0.329   2.936  0.5698  0.2358  0.3399
 6501TIP3   OH241137   2.051   2.169   2.680 -0.0375 -0.2297 -0.3966
 6501TIP3    H141138   2.090   2.101   2.735  1.3484  1.7727  1.2551
 6501TIP3    H241139   2.053   2.248   2.734 -2.4036  0.9767 -1.8931
 6502TIP3   OH241140   0.485   2.507   1.795 -0.0517 -0.0956 -0.2096
 6502TIP3    H141141   0.459   2.468   1.879 -0.1365 -0.1528 -0.2617
 6502TIP3    H241142   0.433   2.587   1.789 -1.2395 -0.8935 -0.9378
 6503TIP3   OH241143   4.808   4.719   8.676  0.2260 -0.2020 -0.3456
 6503TIP3    H141144   4.878   4.757   8.623 -0.6928 -0.1599 -1.5757
 6503TIP3    H241145   4.825   4.625   8.674  1.0892 -0.0921  0.6418
 6504TIP3   OH241146   1.447   2.895   1.239 -0.5314  0.1689  0.1327
 6504TIP3    H141147   1.370   2.864   1.285 -1.0032  0.4785 -0.4297
 6504TIP3    H241148   1.424   2.887   1.146 -0.7157  2.2978 -0.0366
 6505TIP3   OH241149   4.650   5.249   8.709  0.2221  0.3810  0.1048
 6505TIP3    H141150   4.614   5.200   8.783  0.9851  0.1597  0.3372
 6505TIP3    H241151   4.742   5.265   8.733 -0.1699  2.5267  0.3530
 6506TIP3   OH241152   0.667   6.108   3.321 -0.4981 -0.0299 -0.1694
 6506TIP3    H141153   0.641   6.030   3.371 -0.0681 -0.5934 -0.8178
 6506TIP3    H241154   0.761   6.116   3.335 -0.3268 -0.3466 -1.0976
 6507TIP3   OH241155   0.975   4.912   1.017 -0.6962 -0.0224  0.4026
 6507TIP3    H141156   1.029   4.834   1.005  1.0657  1.4567 -2.3431
 6507TIP3    H241157   0.908   4.905   0.949 -1.1174  0.4085  0.7677
 6508TIP3   OH241158   1.061   6.087   3.581 -0.0923  0.1793  0.2109
 6508TIP3    H141159   0.980   6.089   3.632  0.5397 -0.5305  1.2921
 6508TIP3    H241160   1.123   6.138   3.634  0.4949 -0.3134  0.0005
 6509TIP3   OH241161   1.809   0.508   0.131 -0.5381 -0.5295 -0.7128
 6509TIP3    H141162   1.727   0.523   0.083 -0.1644  2.7435 -0.6027
 6509TIP3    H241163   1.783   0.459   0.209 -2.1779 -0.6291 -1.2795
 6510TIP3   OH241164   0.004   3.300   0.018  0.6314 -0.0361  0.2407
 6510TIP3    H141165   0.060   3.376   0.034  0.4808  0.0867  0.1893
 6510TIP3    H241166  -0.082   3.338  -0.003  0.6107 -0.2142  0.0021
 6511TIP3   OH241167   4.815   3.670   3.428  0.1013  0.2430 -0.3623
 6511TIP3    H141168   4.782   3.759   3.423 -1.6909 -0.4008 -0.9262
 6511TIP3    H241169   4.829   3.644   3.337 -3.0183 -1.2531 -0.5289
 6512TIP3   OH241170   0.762   1.370   3.084  0.1308  0.6245  0.4400
 6512TIP3    H141171   0.667   1.365   3.074  0.1790  0.9955 -0.2811
 6512TIP3    H241172   0.776   1.395   3.176 -0.5059  1.6098  0.2813
 6513TIP3   OH241173   0.666   5.042   0.388  0.5493  0.3110 -0.6148
 6513TIP3    H141174   0.736   5.031   0.325  1.7782  2.5627  0.2269
 6513TIP3    H241175   0.668   4.963   0.442  1.5959 -0.2075 -1.3988
 6514TIP3   OH241176   1.708   6.015   1.196 -0.0879  0.4427 -0.2527
 6514TIP3    H141177   1.694   6.069   1.119 -2.4058 -0.6558 -0.6822
 6514TIP3    H241178   1.686   6.072   1.270  3.0306  1.8047 -0.1757
 6515TIP3   OH241179   5.466   5.928   1.042 -0.2813  0.2777  0.2213
 6515TIP3    H141180   5.450   5.834   1.033  0.3950  0.2125 -0.3528
 6515TIP3    H241181   5.380   5.968   1.027 -0.2624 -0.1601 -1.1709
 6516TIP3   OH241182   6.431   2.101   2.620  0.3416  0.5419  0.2593
 6516TIP3    H141183   6.396   2.151   2.546  0.9423 -0.2463 -0.5724
 6516TIP3    H241184   6.466   2.021   2.581  0.5010  0.0267  1.4228
 6517TIP3   OH241185   6.040   3.537   0.863 -0.6407  0.5421 -0.4968
 6517TIP3    H141186   5.977   3.604   0.888  0.3776  0.8790  1.2872
 6517TIP3    H241187   6.067   3.496   0.945 -0.7395 -1.6435 -1.4768
 6518TIP3   OH241188   1.609   4.207   3.123 -0.4162 -0.3420 -0.3440
 6518TIP3    H141189   1.700   4.232   3.140 -0.6305  1.2208 -1.2752
 6518TIP3    H241190   1.569   4.202   3.209  0.0976  0.9194 -0.0008
 6519TIP3   OH241191   6.883   0.593   8.668 -0.1300  0.0985  0.5324
 6519TIP3    H141192   6.864   0.680   8.633  1.2957  0.3844  0.3891
 6519TIP3    H241193   6.906   0.608   8.759  0.7749 -0.0118  0.3391
 6520TIP3   OH241194   6.085   2.439   0.892  0.0134 -0.2073 -0.5318
 6520TIP3    H141195   6.100   2.447   0.987  2.4088 -0.2294 -0.8268
 6520TIP3    H241196   6.116   2.351   0.871  0.9239  0.3291 -1.5324
 6521TIP3   OH241197   3.614   0.486   8.650  0.9147  0.5791  0.4741
 6521TIP3    H141198   3.687   0.499   8.710  1.9708  2.4410 -1.0764
 6521TIP3    H241199   3.632   0.403   8.607  0.5413 -0.3974  2.1304
 6522TIP3   OH241200   4.795   3.145   8.287 -0.7924  0.1147 -0.4729
 6522TIP3    H141201   4.844   3.096   8.222 -0.1923 -0.5812  0.4695
 6522TIP3    H241202   4.766   3.224   8.242  1.7683  0.8882 -0.9189
 6523TIP3   OH241203   2.363   2.441   8.110  0.3507  0.0324 -0.0399
 6523TIP3    H141204   2.450   2.455   8.149  0.0766  0.0124  0.5991
 6523TIP3    H241205   2.314   2.520   8.133 -0.0248 -0.2786  0.2482
 6524TIP3   OH241206   1.936   4.359   1.382 -0.6607 -0.1005 -0.7907
 6524TIP3    H141207   1.935   4.386   1.473  0.2127 -0.8397 -0.5417
 6524TIP3    H241208   1.851   4.317   1.368 -1.5399  1.6297 -0.8561
 6525TIP3   OH241209   6.346   2.962   3.737 -0.3826 -0.0997  0.3066
 6525TIP3    H141210   6.330   2.919   3.653 -0.1310  0.9840 -0.3097
 6525TIP3    H241211   6.409   3.031   3.717 -1.2878  0.9947  1.1486
 6526TIP3   OH241212   5.364   1.625   3.449  0.1594  0.0496  0.0572
 6526TIP3    H141213   5.301   1.587   3.510  0.7502 -0.1625  0.5457
 6526TIP3    H241214   5.358   1.570   3.371 -1.6313  1.1672 -0.6597
 6527TIP3   OH241215   6.836   2.926   0.013 -0.6468 -0.0328  0.0069
 6527TIP3    H141216   6.893   2.852  -0.006 -1.2915 -0.1325 -1.6972
 6527TIP3    H241217   6.876   3.001  -0.032 -2.0346 -0.2058 -1.6254
 6528TIP3   OH241218   0.493   0.459   1.894  0.5564  0.8273 -0.7557
 6528TIP3    H141219   0.482   0.539   1.946  1.1726  0.3010  0.2055
 6528TIP3    H241220   0.583   0.433   1.910  0.0499 -0.6557 -0.2076
 6529TIP3   OH241221   3.907   4.509   8.577 -0.0001  0.0315 -0.2334
 6529TIP3    H141222   3.856   4.520   8.657  1.0453  1.9886  0.2249
 6529TIP3    H241223   3.990   4.471   8.605 -1.0046 -2.9629 -0.9546
 6530TIP3   OH241224   0.905   5.904   1.091  0.0495 -0.1023 -0.2675
 6530TIP3    H141225   0.849   5.846   1.142  1.3006  0.1919  1.5347
 6530TIP3    H241226   0.879   5.889   1.000 -2.1210 -0.7997  0.4126
 6531TIP3   OH241227   6.170   6.603   3.179 -0.0789  0.5817  0.5634
 6531TIP3    H141228   6.208   6.603   3.267 -1.0890 -0.1501  1.0216
 6531TIP3    H241229   6.078   6.582   3.192 -0.3479  0.9091 -0.6405
 6532TIP3   OH241230   4.386   2.916   1.735 -0.3658  1.0462  0.1645
 6532TIP3    H141231   4.423   2.829   1.719  2.5039  1.7152  2.2697
 6532TIP3    H241232   4.307   2.920   1.680 -1.0900 -3.1512  0.5783
 6533TIP3   OH241233   5.009   2.167   0.491 -0.3936 -0.3712  0.1156
 6533TIP3    H141234   5.024   2.134   0.580 -0.0662 -1.0164 -0.1725
 6533TIP3    H241235   4.954   2.244   0.503  0.5602  0.1914  0.9589
 6534TIP3   OH241236   1.029   6.253   1.149 -0.0959  0.3270  0.0325
 6534TIP3    H141237   1.117   6.216   1.153 -0.5178 -0.6881  0.2879
 6534TIP3    H241238   1.032   6.328   1.208 -0.1745 -1.4337  2.4498
 6535TIP3   OH241239   3.300   1.280   2.325  0.0436  0.4651  0.1100
 6535TIP3    H141240   3.294   1.373   2.348  0.9443  0.8484 -1.1335
 6535TIP3    H241241   3.255   1.273   2.241  1.9350  0.2315 -0.9332
 6536TIP3   OH241242   3.726   4.869   8.107 -0.0906 -0.0141  0.1317
 6536TIP3    H141243   3.645   4.819   8.095 -0.3663  0.2683  0.8052
 6536TIP3    H241244   3.781   4.814   8.162 -0.1632  0.1725  0.3897
 6537TIP3   OH241245   2.910   3.288   1.359  0.0521  0.1075  0.5782
 6537TIP3    H141246   2.847   3.314   1.292  0.5242  1.7194  0.7190
 6537TIP3    H241247   2.859   3.234   1.420 -1.4414  1.9562  1.0848
 6538TIP3   OH241248   0.549   6.116   1.596 -0.8456 -0.6222  0.0883
 6538TIP3    H141249   0.485   6.070   1.542 -0.4960  1.2705 -2.0866
 6538TIP3    H241250   0.513   6.204   1.606  0.6103 -0.0161  0.2446
 6539TIP3   OH241251   2.721   4.609   0.729  0.0945  1.7053  0.2370
 6539TIP3    H141252   2.660   4.647   0.793 -2.1249  0.1667 -0.8405
 6539TIP3    H241253   2.733   4.519   0.759 -0.8995  0.9906 -1.3979
 6540TIP3   OH241254   4.080   6.619   0.862  0.5541  0.4584 -0.0768
 6540TIP3    H141255   3.995   6.662   0.857  1.0751  1.6621  1.0485
 6540TIP3    H241256   4.092   6.580   0.775 -1.7633 -1.0166  0.1697
 6541TIP3   OH241257   6.315   3.184   4.128 -0.5400 -0.1220 -0.3744
 6541TIP3    H141258   6.327   3.276   4.151 -0.6904 -0.0736 -0.4883
 6541TIP3    H241259   6.368   3.136   4.192  0.6282  0.1026 -1.1467
 6542TIP3   OH241260   3.132   5.639   1.598  0.2334  0.1224  0.2375
 6542TIP3    H141261   3.129   5.572   1.530 -0.6378  1.5646 -1.2333
 6542TIP3    H241262   3.048   5.630   1.644 -0.6704  1.2509 -1.0962
 6543TIP3   OH241263   2.313   2.283   1.027  0.5379  0.4675 -1.1027
 6543TIP3    H141264   2.270   2.368   1.034 -1.6144 -0.5789 -0.7870
 6543TIP3    H241265   2.401   2.298   1.061 -0.1965  2.2796  0.1495
 6544TIP3   OH241266   4.870   2.917   2.797  0.0764  0.3775 -0.2841
 6544TIP3    H141267   4.944   2.978   2.787  0.3843 -0.2073 -1.8970
 6544TIP3    H241268   4.804   2.950   2.737 -0.5026  0.1800  0.2394
 6545TIP3   OH241269   2.518   1.645   1.460 -1.0272 -0.1590  0.1241
 6545TIP3    H141270   2.457   1.697   1.512  0.0305  0.4805  0.7779
 6545TIP3    H241271   2.580   1.710   1.425  0.6995 -0.9997  1.4771
 6546TIP3   OH241272   6.273   3.177   2.255  0.1684 -0.3026  0.5251
 6546TIP3    H141273   6.242   3.147   2.340  1.2808 -0.2778  0.9604
 6546TIP3    H241274   6.274   3.098   2.201 -0.8309 -0.2626  0.4265
 6547TIP3   OH241275   6.563   5.634   2.266  0.6587  0.1492 -0.3193
 6547TIP3    H141276   6.650   5.603   2.243  0.5427  0.2590 -0.9146
 6547TIP3    H241277   6.579   5.709   2.323  0.9560  0.2204 -0.4943
 6548TIP3   OH241278   5.708   5.139   1.376 -0.5447 -0.5214  0.3324
 6548TIP3    H141279   5.616   5.162   1.359  0.0227  0.9942 -1.0135
 6548TIP3    H241280   5.729   5.074   1.308 -0.0739  0.7011 -0.7300
 6549TIP3   OH241281   6.708   5.426   1.986 -0.0127 -0.0660 -0.6771
 6549TIP3    H141282   6.675   5.516   1.991  0.9351  0.2441  0.8931
 6549TIP3    H241283   6.793   5.434   1.943  0.7365  0.0337  0.7588
 6550TIP3   OH241284   2.075   1.068   8.148 -0.7896 -0.6317  0.2575
 6550TIP3    H141285   2.024   1.143   8.179 -0.0668 -0.6825  1.6214
 6550TIP3    H241286   2.166   1.096   8.158 -0.5186 -1.1848 -0.5470
 6551TIP3   OH241287   3.829   1.370   1.765 -0.2046  0.2911  0.0476
 6551TIP3    H141288   3.785   1.325   1.692  0.6306  2.5436 -1.9863
 6551TIP3    H241289   3.771   1.442   1.788 -1.7321 -1.8045  3.5572
 6552TIP3   OH241290   2.894   5.566   1.741  0.4961 -0.6040  0.4814
 6552TIP3    H141291   2.860   5.645   1.782  0.4667  1.1349 -2.6038
 6552TIP3    H241292   2.823   5.502   1.752 -0.6581  0.6448  0.6390
 6553TIP3   OH241293   5.304   0.942   1.204 -0.3051  0.1632  0.4772
 6553TIP3    H141294   5.294   0.962   1.298  1.9677 -2.0387  1.2897
 6553TIP3    H241295   5.383   0.990   1.178 -1.3499  1.3748 -0.5604
 6554TIP3   OH241296   1.438   6.312   8.219 -0.0189  0.1071 -0.4954
 6554TIP3    H141297   1.415   6.339   8.130  1.6837 -1.9425 -1.6577
 6554TIP3    H241298   1.465   6.220   8.209 -0.9443 -0.5616  2.3536
 6555TIP3   OH241299   3.720   4.080   0.882  0.2825  0.4546  0.1853
 6555TIP3    H141300   3.760   4.040   0.806 -1.4280  0.9399 -1.0485
 6555TIP3    H241301   3.636   4.034   0.892 -1.4395  3.1152 -0.8777
 6556TIP3   OH241302   3.716   6.033   1.147  0.2883  0.2647  0.2511
 6556TIP3    H141303   3.686   5.942   1.146  1.6920 -0.2156 -0.8526
 6556TIP3    H241304   3.638   6.084   1.125 -0.3531 -0.7325  0.1470
 6557TIP3   OH241305   6.399   0.951   8.408  0.6711  0.1791  0.1891
 6557TIP3    H141306   6.408   1.046   8.415  0.8618  0.1855 -0.1018
 6557TIP3    H241307   6.382   0.935   8.315 -0.2591 -0.0067  0.3818
 6558TIP3   OH241308   0.802   3.936   1.511 -0.3769 -0.5592  0.6644
 6558TIP3    H141309   0.843   3.896   1.587  1.1454 -0.2250  0.0417
 6558TIP3    H241310   0.773   4.022   1.542 -0.6720 -0.8202  1.1228
 6559TIP3   OH241311   4.984   3.791   1.745 -0.2542 -0.7458 -0.4819
 6559TIP3    H141312   5.029   3.844   1.680 -1.5567  0.4682 -0.4448
 6559TIP3    H241313   4.954   3.714   1.696  0.5363 -0.8362 -0.8361
 6560TIP3   OH241314   6.696   3.472   1.142  0.0129 -0.6158 -0.3627
 6560TIP3    H141315   6.651   3.555   1.126  0.9963  0.5075  2.1693
 6560TIP3    H241316   6.662   3.443   1.227  2.9487 -0.3942  1.0119
 6561TIP3   OH241317   6.746   2.051   2.952 -0.2430 -0.5073 -0.6096
 6561TIP3    H141318   6.817   2.024   2.892  0.1670 -2.1773  0.5576
 6561TIP3    H241319   6.671   1.997   2.926  0.3330 -2.3064  1.1856
 6562TIP3   OH241320   5.487   4.170   3.367 -0.1160 -0.2950  0.3352
 6562TIP3    H141321   5.426   4.220   3.313  0.8771 -1.3366 -1.8807
 6562TIP3    H241322   5.485   4.082   3.331  3.9029 -0.0226 -1.1095
 6563TIP3   OH241323   1.511   3.374   3.768  0.1901  0.0718  0.1887
 6563TIP3    H141324   1.485   3.445   3.709 -0.3795 -0.2288  0.0651
 6563TIP3    H241325   1.509   3.295   3.713 -1.3909 -0.3787  0.8334
 6564TIP3   OH241326   5.517   4.126   1.662  0.4348 -0.2088 -0.7491
 6564TIP3    H141327   5.575   4.172   1.601  1.6369  0.7658  1.0187
 6564TIP3    H241328   5.550   4.036   1.663 -0.3546 -0.5534 -2.3692
 6565TIP3   OH241329   5.177   5.056   1.451  0.2496  0.5220 -0.0138
 6565TIP3    H141330   5.140   5.134   1.492  1.4180  1.4391 -0.6036
 6565TIP3    H241331   5.111   4.988   1.463  0.0259  1.0575  2.2570
 6566TIP3   OH241332   1.288   2.397   0.617  0.0126  0.0549 -0.0219
 6566TIP3    H141333   1.208   2.434   0.580 -0.1724  0.1578  0.4746
 6566TIP3    H241334   1.273   2.303   0.617  0.8001 -0.1439 -2.0393
 6567TIP3   OH241335   5.386   2.423   2.749  0.6222  0.1773 -0.1913
 6567TIP3    H141336   5.408   2.330   2.741  1.6230  0.3500  0.4783
 6567TIP3    H241337   5.441   2.455   2.820 -0.6931  0.9914  0.4871
 6568TIP3   OH241338   6.123   2.331   1.564  0.3068 -0.2216  0.3476
 6568TIP3    H141339   6.158   2.359   1.649  2.1611  0.5171 -0.6113
 6568TIP3    H241340   6.190   2.272   1.529  1.5414  2.4673 -2.2475
 6569TIP3   OH241341   1.603   6.088   3.230  0.4666  0.0324  0.3067
 6569TIP3    H141342   1.631   6.154   3.166 -1.5347  1.2108  0.5705
 6569TIP3    H241343   1.619   6.128   3.315 -0.8023  0.2435  0.4694
 6570TIP3   OH241344   5.584   4.607   2.601  0.0451  0.0563 -0.6622
 6570TIP3    H141345   5.679   4.610   2.590  0.0373 -0.1652 -0.7888
 6570TIP3    H241346   5.571   4.571   2.689  0.0779  0.0711 -0.6514
 6571TIP3   OH241347   2.521   2.318   3.134  0.9468 -0.5890  0.1357
 6571TIP3    H141348   2.494   2.244   3.189  2.7745 -1.7535 -0.4500
 6571TIP3    H241349   2.440   2.346   3.091  0.4641 -3.6340 -1.2280
 6572TIP3   OH241350   4.332   4.178   3.802  0.0028 -0.4522  0.3059
 6572TIP3    H141351   4.326   4.164   3.896  1.0827  1.2908  0.6777
 6572TIP3    H241352   4.245   4.156   3.769 -1.1145  1.0761  2.0467
 6573TIP3   OH241353   5.525   4.270   3.864  0.2355  0.3488 -0.0690
 6573TIP3    H141354   5.462   4.315   3.808 -1.3105  1.2607  2.2718
 6573TIP3    H241355   5.602   4.328   3.864 -1.2373  2.4655  1.8384
 6574TIP3   OH241356   5.815   1.414   3.212  0.2036  0.1796  0.0951
 6574TIP3    H141357   5.742   1.354   3.198 -0.8103  1.3283  0.2730
 6574TIP3    H241358   5.816   1.429   3.307 -1.0061  2.1282 -0.1350
 6575TIP3   OH241359   2.260   6.417   3.090  0.2239 -0.0352 -0.1068
 6575TIP3    H141360   2.345   6.382   3.062  0.2225 -2.5810  2.5325
 6575TIP3    H241361   2.279   6.470   3.167 -0.5244 -0.3322  0.2969
 6576TIP3   OH241362   5.238   2.400   4.295 -0.5390 -0.1565  0.5630
 6576TIP3    H141363   5.173   2.420   4.363 -1.4141 -2.8428  0.6503
 6576TIP3    H241364   5.278   2.318   4.325 -2.2304 -2.4888 -2.8753
 6577TIP3   OH241365   0.145   3.338   2.276  0.5293 -0.2792  0.4231
 6577TIP3    H141366   0.065   3.388   2.257  0.1332  0.3413  3.3213
 6577TIP3    H241367   0.216   3.395   2.248  0.0244  1.0805  1.7885
 6578TIP3   OH241368   5.256   0.967   0.553  0.1021  0.2404  0.1232
 6578TIP3    H141369   5.240   0.981   0.646  1.1982  0.4048  0.2907
 6578TIP3    H241370   5.180   0.917   0.523  0.0602 -0.3925  1.2457
 6579TIP3   OH241371   5.839   5.376   2.833  0.6567 -0.3899 -0.3690
 6579TIP3    H141372   5.850   5.367   2.928  2.6164  0.4545 -0.4490
 6579TIP3    H241373   5.843   5.286   2.799  2.4722 -0.5673  0.1886
 6580TIP3   OH241374   0.437   6.215   8.137 -0.0666  0.3556 -0.1511
 6580TIP3    H141375   0.363   6.258   8.094  0.2459  0.5853 -0.4585
 6580TIP3    H241376   0.412   6.212   8.230 -1.0660 -0.8198 -0.4408
 6581TIP3   OH241377   4.947   5.663   3.064  0.3591  0.0605 -0.0593
 6581TIP3    H141378   5.033   5.651   3.105  0.6180  0.2485 -0.5393
 6581TIP3    H241379   4.937   5.758   3.059 -0.7699  0.1085  1.8355
 6582TIP3   OH241380   6.840   0.867   3.018  0.3439 -0.0591  0.1824
 6582TIP3    H141381   6.910   0.806   3.041  0.8031 -0.5065 -2.1453
 6582TIP3    H241382   6.877   0.921   2.949 -1.9765 -1.2536 -2.1614
 6583TIP3   OH241383   3.326   1.561   0.222 -0.4639  0.6819 -0.1349
 6583TIP3    H141384   3.240   1.602   0.226 -0.6251  0.5993 -1.8583
 6583TIP3    H241385   3.388   1.631   0.241 -0.8125  1.4355 -1.6165
 6584TIP3   OH241386   1.164   3.087   1.242 -0.1216 -0.6935 -0.4548
 6584TIP3    H141387   1.120   3.092   1.157 -1.4727 -1.0294  0.1796
 6584TIP3    H241388   1.190   2.995   1.250 -0.7310 -0.8535 -0.1864
 6585TIP3   OH241389   2.002   0.081   8.434  0.0714  0.3767  0.2483
 6585TIP3    H141390   2.020   0.175   8.442 -0.5473  0.4407  1.0337
 6585TIP3    H241391   1.919   0.077   8.386 -0.8529  0.3142  1.8016
 6586TIP3   OH241392   6.588   2.339   2.946  0.2873 -0.3653 -0.5737
 6586TIP3    H141393   6.657   2.308   2.887  1.3321 -0.7412  0.7892
 6586TIP3    H241394   6.626   2.330   3.034 -1.5043 -0.5923  0.2204
 6587TIP3   OH241395   1.268   3.547   2.261  0.3363  0.1431 -0.1233
 6587TIP3    H141396   1.272   3.632   2.304 -1.6417  1.0734 -1.5988
 6587TIP3    H241397   1.352   3.539   2.216  0.4933  1.4227 -0.0961
 6588TIP3   OH241398   5.848   0.585   8.732 -0.0945 -0.3424  0.1573
 6588TIP3    H141399   5.889   0.510   8.688  0.7860  0.2439 -0.0642
 6588TIP3    H241400   5.918   0.622   8.786 -0.6495  0.0465  0.6236
 6589TIP3   OH241401   2.469   5.395   8.639 -0.1605 -0.3905 -0.1619
 6589TIP3    H141402   2.427   5.327   8.585  1.8627 -1.1443 -0.9062
 6589TIP3    H241403   2.511   5.346   8.709  0.5360  0.1929 -0.1689
 6590TIP3   OH241404   4.076   0.136   1.802  0.2301  0.3129 -0.3482
 6590TIP3    H141405   4.083   0.042   1.819  3.5302  0.1661 -1.9237
 6590TIP3    H241406   4.072   0.143   1.707 -0.0651  1.7824 -0.2493
 6591TIP3   OH241407   2.316   1.352   1.930  0.6891 -0.7134 -0.0850
 6591TIP3    H141408   2.248   1.285   1.928 -0.1318  0.0704  0.5506
 6591TIP3    H241409   2.369   1.330   2.007 -1.5185  1.1109  2.1786
 6592TIP3   OH241410   6.373   6.450   1.984 -0.6043  1.0094  0.0634
 6592TIP3    H141411   6.382   6.446   1.888  1.2928 -0.3148  0.2268
 6592TIP3    H241412   6.406   6.537   2.007  0.0827  0.8942 -0.4217
 6593TIP3   OH241413   2.625   4.990   2.122 -0.4073 -0.5701  0.2342
 6593TIP3    H141414   2.668   4.976   2.206  0.6449 -1.5654 -0.4549
 6593TIP3    H241415   2.533   5.004   2.145  0.2092  1.7332  1.7550
 6594TIP3   OH241416   3.363   0.082   1.620  0.0856  0.3132  0.2594
 6594TIP3    H141417   3.295   0.084   1.687  0.6187 -0.8071  0.8645
 6594TIP3    H241418   3.405  -0.003   1.631 -0.0835 -0.0850 -1.7650
 6595TIP3   OH241419   4.698   3.466   1.434  0.3246  0.7830  0.4434
 6595TIP3    H141420   4.693   3.385   1.383 -1.2596  0.2525  1.3882
 6595TIP3    H241421   4.660   3.532   1.377 -2.7093 -0.0592  1.3176
 6596TIP3   OH241422   3.430   4.645   1.523 -0.4489  0.2605  0.7349
 6596TIP3    H141423   3.413   4.721   1.579  2.0047  1.0473  0.5279
 6596TIP3    H241424   3.525   4.632   1.529 -0.5852 -1.7572 -0.5863
 6597TIP3   OH241425   4.705   2.098   8.589  0.0368  0.2874  0.2220
 6597TIP3    H141426   4.722   2.016   8.544  0.6281  0.4016  0.2204
 6597TIP3    H241427   4.611   2.099   8.604 -0.0704 -0.0668 -0.3981
 6598TIP3   OH241428   6.134   5.757   0.069  0.2468 -0.1961  0.2811
 6598TIP3    H141429   6.128   5.777   0.162  1.8697 -0.5038  0.4880
 6598TIP3    H241430   6.214   5.803   0.040  0.7532 -1.5375 -0.5520
 6599TIP3   OH241431   4.511   1.629   1.127  0.1814  0.0727 -0.1371
 6599TIP3    H141432   4.436   1.688   1.119 -0.3672 -0.4580  0.8612
 6599TIP3    H241433   4.521   1.616   1.221  1.4534  0.0200 -0.2651
 6600TIP3   OH241434   2.665   2.398   0.396 -0.1533 -0.0047 -0.0934
 6600TIP3    H141435   2.613   2.361   0.324  1.6001 -1.2341 -0.8022
 6600TIP3    H241436   2.727   2.328   0.418  1.2586  1.4336  0.6368
 6601TIP3   OH241437   3.732   1.671   8.538 -0.0371 -0.2057  0.2022
 6601TIP3    H141438   3.724   1.699   8.629 -1.9366  3.7200 -0.9341
 6601TIP3    H241439   3.819   1.699   8.511  0.1416 -0.4519  0.5173
 6602TIP3   OH241440   2.661   1.777   2.486  0.4380 -0.1095  0.4606
 6602TIP3    H141441   2.588   1.818   2.440  0.7061 -0.6389 -0.4899
 6602TIP3    H241442   2.638   1.782   2.578 -1.9457 -2.3133  0.1064
 6603TIP3   OH241443   4.529   1.141   8.251  0.0387  0.2990 -0.3317
 6603TIP3    H141444   4.445   1.172   8.217 -0.7891  0.0231  1.3466
 6603TIP3    H241445   4.535   1.050   8.222  0.5890  0.8003 -1.8876
 6604TIP3   OH241446   4.515   5.312   2.960 -0.4379  0.5652  0.0290
 6604TIP3    H141447   4.560   5.387   2.998  0.7991  0.0837 -0.4291
 6604TIP3    H241448   4.534   5.317   2.866  1.5696 -1.5114  0.2442
 6605TIP3   OH241449   1.684   6.439   1.800  0.2545  0.6335  0.7431
 6605TIP3    H141450   1.743   6.442   1.725  0.0779 -1.9980  0.3706
 6605TIP3    H241451   1.607   6.487   1.772  0.1953 -0.2924 -0.8163
 6606TIP3   OH241452   5.711   0.192   0.745 -0.3417 -0.4494  0.4387
 6606TIP3    H141453   5.777   0.131   0.778 -0.8086 -1.2679 -0.1157
 6606TIP3    H241454   5.649   0.199   0.818 -0.7092 -1.2790  0.2244
 6607TIP3   OH241455   0.534   5.762   2.619 -0.3221  0.5481  0.0425
 6607TIP3    H141456   0.451   5.717   2.632 -0.2637 -0.4856 -2.6138
 6607TIP3    H241457   0.595   5.694   2.590 -0.0096  2.0491 -3.2459
 6608TIP3   OH241458   3.075   2.671   0.575 -0.1057 -0.1440  0.1572
 6608TIP3    H141459   3.022   2.739   0.617 -1.0229  0.0290 -1.1945
 6608TIP3    H241460   3.125   2.718   0.508 -1.1920 -0.8321 -1.1943
 6609TIP3   OH241461   6.600   1.922   2.464  0.0861 -0.1630 -0.1648
 6609TIP3    H141462   6.598   2.004   2.415 -0.1029  0.6316  1.1003
 6609TIP3    H241463   6.605   1.854   2.398 -1.0576  0.8056 -1.3062
 6610TIP3   OH241464   5.376   6.825   1.359 -0.1027 -0.0136 -0.1944
 6610TIP3    H141465   5.334   6.872   1.287  1.7744  1.5707 -0.3227
 6610TIP3    H241466   5.463   6.803   1.325  0.1584 -0.8397  0.9751
 6611TIP3   OH241467   2.225   3.805   3.449  0.2066  0.5905 -0.4762
 6611TIP3    H141468   2.164   3.805   3.523 -1.0387 -1.4885 -1.4272
 6611TIP3    H241469   2.290   3.737   3.471 -0.8827 -0.9335 -1.7759
 6612TIP3   OH241470   2.359   0.276   1.926 -0.2506  0.4350 -1.0156
 6612TIP3    H141471   2.272   0.244   1.903  0.0042 -0.2104 -1.1052
 6612TIP3    H241472   2.366   0.361   1.883 -1.2077  0.9510 -0.2071
 6613TIP3   OH241473   5.811   6.467   1.054  0.1330 -0.3834  0.2018
 6613TIP3    H141474   5.744   6.530   1.081 -1.1747 -1.7253  0.2310
 6613TIP3    H241475   5.795   6.453   0.961  2.0160  1.1474 -0.4115
 6614TIP3   OH241476   6.508   2.763   3.475 -1.0204 -0.0223 -0.3330
 6614TIP3    H141477   6.487   2.675   3.445  0.6879 -0.5239 -0.1904
 6614TIP3    H241478   6.503   2.757   3.571 -1.6972  0.2548 -0.3512
 6615TIP3   OH241479   5.696   0.521   2.208  0.2190 -0.0408  0.2119
 6615TIP3    H141480   5.740   0.541   2.125  1.1740 -0.9510  0.4693
 6615TIP3    H241481   5.608   0.495   2.183  0.1646  0.7230 -0.4274
 6616TIP3   OH241482   2.492   1.893   0.308 -0.0560  0.0459  0.1684
 6616TIP3    H141483   2.408   1.847   0.308  1.2029 -2.4336  1.7074
 6616TIP3    H241484   2.542   1.852   0.237  0.0934  1.0996 -0.3566
 6617TIP3   OH241485   0.525   4.458   3.969  0.6097  0.3682 -0.0855
 6617TIP3    H141486   0.497   4.371   3.942  0.8079  0.6642 -1.2979
 6617TIP3    H241487   0.483   4.517   3.907 -1.1808  1.3498  1.8992
 6618TIP3   OH241488   1.773   3.023   1.186  0.0330  0.5454 -0.2458
 6618TIP3    H141489   1.777   2.988   1.096  1.4657  0.5541 -0.2123
 6618TIP3    H241490   1.764   2.945   1.241 -0.0749  0.4846 -0.3470
 6619TIP3   OH241491   1.535   5.021   8.397  0.0095 -0.4551 -0.3793
 6619TIP3    H141492   1.468   4.962   8.429  1.3179 -1.7315  0.1091
 6619TIP3    H241493   1.486   5.094   8.357 -1.6375 -1.6012 -0.5519
 6620TIP3   OH241494   0.441   1.073   0.746 -0.1568 -0.2844 -0.0515
 6620TIP3    H141495   0.433   1.167   0.761 -3.4421 -0.5364  0.5950
 6620TIP3    H241496   0.512   1.064   0.683  1.2343  2.4692  0.9668
 6621TIP3   OH241497   6.202   2.167   8.714  0.3121 -0.4087  0.4458
 6621TIP3    H141498   6.188   2.095   8.776  1.3946 -0.4054  0.7127
 6621TIP3    H241499   6.169   2.133   8.631  2.2214 -1.8536  0.2052
 6622TIP3   OH241500   1.581   1.102   0.346  0.5883 -0.1901 -0.0981
 6622TIP3    H141501   1.615   1.191   0.356 -1.3249  0.5463  0.3174
 6622TIP3    H241502   1.653   1.053   0.307  1.7659  1.4795 -0.1316
 6623TIP3   OH241503   0.437   0.597   0.573 -0.0439  0.6944  0.7521
 6623TIP3    H141504   0.425   0.521   0.630 -2.3153 -0.6207 -1.2664
 6623TIP3    H241505   0.349   0.614   0.537  0.6904  3.3660 -0.0299
 6624TIP3   OH241506   0.876   2.784   1.443  0.2381 -0.5654 -0.3365
 6624TIP3    H141507   0.785   2.756   1.432 -0.0195  0.4521 -0.8797
 6624TIP3    H241508   0.919   2.761   1.361  0.2658 -0.2355 -0.4116
 6625TIP3   OH241509   6.373   0.716   4.001  0.1873  0.1733 -0.1464
 6625TIP3    H141510   6.467   0.716   4.021  0.4466  3.8102 -0.6625
 6625TIP3    H241511   6.333   0.758   4.077 -1.1068 -1.4408  0.1135
 6626TIP3   OH241512   2.021   6.758   8.640  0.1640  0.9079 -0.5480
 6626TIP3    H141513   1.983   6.806   8.567 -0.8599  1.4661  0.3069
 6626TIP3    H241514   2.058   6.826   8.697  1.0998  0.4735 -0.6292
 6627TIP3   OH241515   4.230   4.739   8.199 -0.3532  0.5585 -0.3415
 6627TIP3    H141516   4.242   4.674   8.130 -0.1590 -0.5743  0.7352
 6627TIP3    H241517   4.180   4.809   8.157 -0.2956 -0.1304 -1.6102
 6628TIP3   OH241518   5.549   4.741   8.454 -0.2859 -0.0347  0.2971
 6628TIP3    H141519   5.596   4.806   8.506 -1.3129  0.4230  0.6738
 6628TIP3    H241520   5.574   4.760   8.363 -0.8195  1.1060  0.3743
 6629TIP3   OH241521   0.009   0.083   8.550 -0.3044 -0.0784  0.6006
 6629TIP3    H141522  -0.046   0.050   8.479 -0.0702 -0.7574  0.7327
 6629TIP3    H241523  -0.043   0.153   8.590 -0.4727  0.2597 -0.1829
 6630TIP3   OH241524   4.593   0.036   0.866  0.0919  0.2009 -0.4055
 6630TIP3    H141525   4.587   0.076   0.779  0.6957  0.1121 -0.4916
 6630TIP3    H241526   4.681  -0.000   0.870 -0.0097  0.0028  0.1613
 6631TIP3   OH241527   0.286   6.844   1.026  0.8962  0.0891  0.2820
 6631TIP3    H141528   0.191   6.833   1.022  0.6651  1.4051  1.3786
 6631TIP3    H241529   0.313   6.788   1.099  0.7370  0.9304  0.9963
 6632TIP3   OH241530   4.847   1.631   2.366 -0.8732  0.0523 -0.3742
 6632TIP3    H141531   4.806   1.545   2.364 -0.5254 -0.3147  3.1803
 6632TIP3    H241532   4.940   1.614   2.377 -0.4734  0.9440 -1.9698
 6633TIP3   OH241533   3.462   0.309   1.808  0.6547 -0.0803 -0.1482
 6633TIP3    H141534   3.475   0.239   1.745  0.6858  0.3878 -0.6746
 6633TIP3    H241535   3.409   0.270   1.878  1.0391 -0.7359 -0.2235
 6634TIP3   OH241536   2.107   3.819   1.227 -0.2439  0.3571 -0.4153
 6634TIP3    H141537   2.060   3.828   1.309  1.5208  1.2183  0.5485
 6634TIP3    H241538   2.165   3.895   1.223  0.6151 -0.3234 -1.8492
 6635TIP3   OH241539   1.944   0.917   2.419  0.5152  0.4556  0.1889
 6635TIP3    H141540   1.964   0.856   2.491  2.0388 -0.8706 -1.2601
 6635TIP3    H241541   1.934   1.002   2.462  0.9747 -0.3552  2.0100
 6636TIP3   OH241542   6.049   5.717   3.176  0.1140  0.1364  0.6270
 6636TIP3    H141543   6.139   5.740   3.198  0.6523 -1.1994 -0.0172
 6636TIP3    H241544   5.997   5.752   3.248  1.3374 -0.4843  1.8675
 6637TIP3   OH241545   1.556   2.436   2.117  0.3674 -0.5201  1.3366
 6637TIP3    H141546   1.508   2.475   2.190 -1.9910 -0.4714 -0.1406
 6637TIP3    H241547   1.585   2.510   2.064  2.1929 -0.5488  2.2260
 6638TIP3   OH241548   5.851   2.399   1.137  0.1970  0.1175  0.4621
 6638TIP3    H141549   5.946   2.404   1.141  0.1446  0.3429  1.6539
 6638TIP3    H241550   5.825   2.355   1.218 -0.5955 -2.0223 -0.8748
 6639TIP3   OH241551   1.570   4.455   2.985  0.4125 -0.6281  0.5853
 6639TIP3    H141552   1.642   4.505   3.023 -1.3304  1.1381  1.8107
 6639TIP3    H241553   1.577   4.368   3.024  0.9349  0.0128  1.9957
 6640TIP3   OH241554   5.384   6.456   1.594  0.3034 -0.1193 -0.0137
 6640TIP3    H141555   5.346   6.462   1.507  0.5877 -1.3282 -0.2267
 6640TIP3    H241556   5.309   6.466   1.653 -0.1769 -1.2649 -0.4166
 6641TIP3   OH241557   2.807   3.104   1.576  0.0937  0.0357 -0.3471
 6641TIP3    H141558   2.857   3.025   1.559 -2.5018 -1.6826 -0.5757
 6641TIP3    H241559   2.770   3.091   1.664 -0.7777  0.7298 -0.5913
 6642TIP3   OH241560   2.758   4.946   2.365  0.1138 -0.1830  0.3347
 6642TIP3    H141561   2.836   4.892   2.375 -0.0281 -0.0739  2.5186
 6642TIP3    H241562   2.776   5.024   2.417 -1.1645  0.1771  0.2700
 6643TIP3   OH241563   2.187   4.449   1.643  0.3165 -0.3671  0.5504
 6643TIP3    H141564   2.183   4.540   1.674  1.5755 -0.2010  0.2489
 6643TIP3    H241565   2.242   4.452   1.565 -0.6600 -1.2074 -0.2081
 6644TIP3   OH241566   5.287   5.289   1.127  0.3466  0.2781 -0.3802
 6644TIP3    H141567   5.310   5.255   1.041  1.0501 -2.4277  0.7630
 6644TIP3    H241568   5.272   5.382   1.113  0.4104 -0.0655 -3.4068
 6645TIP3   OH241569   3.364   3.115   3.571 -0.0276  0.6960 -1.0998
 6645TIP3    H141570   3.437   3.120   3.633  1.5761 -0.6170 -2.7490
 6645TIP3    H241571   3.289   3.091   3.625  1.1696  0.1512  0.4203
 6646TIP3   OH241572   6.407   4.191   2.271 -0.0038  0.4002  0.1068
 6646TIP3    H141573   6.491   4.203   2.315 -0.7217  1.3959  1.2850
 6646TIP3    H241574   6.379   4.280   2.247 -1.0491  0.1612  0.3746
 6647TIP3   OH241575   3.532   0.962   3.021 -1.0036  0.3227 -0.1594
 6647TIP3    H141576   3.593   0.992   2.953  1.4312 -0.2214  1.6447
 6647TIP3    H241577   3.525   1.037   3.081 -2.0431  0.3242 -0.2630
 6648TIP3   OH241578   4.308   4.344   2.364 -0.2052  0.2539  0.2485
 6648TIP3    H141579   4.332   4.434   2.388 -3.5914  0.7578  2.2304
 6648TIP3    H241580   4.304   4.346   2.268  0.7714  1.8923  0.1969
 6649TIP3   OH241581   4.495   1.653   1.945 -0.5619  0.5762  0.0479
 6649TIP3    H141582   4.547   1.690   2.017 -2.0244  0.5913  1.1408
 6649TIP3    H241583   4.560   1.610   1.889  0.8864  2.5078  0.1362
 6650TIP3   OH241584   3.985   4.607   2.960 -0.1938  0.1813 -0.1525
 6650TIP3    H141585   3.965   4.523   2.920 -0.6521  0.0512  0.3489
 6650TIP3    H241586   4.081   4.606   2.970 -0.2987 -0.8232  1.0206
 6651TIP3   OH241587   4.404   3.522   0.410 -0.0726  0.3233 -0.3517
 6651TIP3    H141588   4.378   3.438   0.372  1.5654 -0.7855  0.8464
 6651TIP3    H241589   4.463   3.560   0.346 -0.3149  0.2699 -0.6122
 6652TIP3   OH241590   1.560   4.927   2.434 -0.6520  0.1109 -0.0616
 6652TIP3    H141591   1.647   4.956   2.407 -0.1567 -0.4241  0.9243
 6652TIP3    H241592   1.544   4.972   2.517  0.0801 -2.2237  1.4371
 6653TIP3   OH241593   0.213   3.514   0.886 -0.2443 -0.1899 -0.1046
 6653TIP3    H141594   0.298   3.471   0.875  0.4826  0.8730  1.0532
 6653TIP3    H241595   0.151   3.456   0.843  0.9057 -1.5846  0.0450
 6654TIP3   OH241596   3.135   3.398   1.635  0.3271  0.2460 -0.2191
 6654TIP3    H141597   3.156   3.364   1.548 -1.1413  0.4004 -0.6614
 6654TIP3    H241598   3.096   3.324   1.681  2.4493 -0.2708  0.8703
 6655TIP3   OH241599   6.050   4.039   2.046  0.1633 -0.0295 -0.1965
 6655TIP3    H141600   6.061   4.014   2.138 -0.3578 -0.3454 -0.2173
 6655TIP3    H241601   6.075   4.131   2.044  0.5106 -0.1093  0.1955
 6656TIP3   OH241602   5.945   3.709   0.514  0.0567 -0.1716  0.7630
 6656TIP3    H141603   5.871   3.694   0.572 -1.7896  0.5026 -1.2672
 6656TIP3    H241604   5.978   3.621   0.494 -0.0748 -0.4737  1.8202
 6657TIP3   OH241605   3.650   0.071   2.589 -0.0913 -0.2438 -0.3214
 6657TIP3    H141606   3.682   0.009   2.654  0.9995  0.0941 -0.5106
 6657TIP3    H241607   3.589   0.126   2.637  0.9395  0.2067  0.5262
 6658TIP3   OH241608   4.382   3.516   3.876 -0.2370  0.0600  0.5001
 6658TIP3    H141609   4.420   3.435   3.911 -1.6486 -1.4506 -1.2537
 6658TIP3    H241610   4.458   3.571   3.858  0.9887 -1.8261 -0.4929
 6659TIP3   OH241611   0.802   6.153   0.926 -0.3719  0.3973 -0.2029
 6659TIP3    H141612   0.862   6.183   0.859 -1.2926  1.7985 -0.4404
 6659TIP3    H241613   0.759   6.077   0.887  0.7970 -0.2718 -0.2419
 6660TIP3   OH241614   3.232   6.393   2.683  0.5009  0.4593  0.3644
 6660TIP3    H141615   3.229   6.385   2.778  0.4909  2.4565  0.5758
 6660TIP3    H241616   3.148   6.357   2.653  0.9111 -1.0728  1.0040
 6661TIP3   OH241617   5.856   5.401   0.012  0.4015  0.3590 -0.2326
 6661TIP3    H141618   5.915   5.437   0.078  1.1482 -2.1836  0.5702
 6661TIP3    H241619   5.769   5.412   0.051  0.7855 -0.5867  0.9498
 6662TIP3   OH241620   4.445   4.627   0.618  0.5829  0.3848  0.5240
 6662TIP3    H141621   4.403   4.634   0.704 -0.9889 -1.9856  0.0419
 6662TIP3    H241622   4.469   4.535   0.611  2.3592  0.9060 -0.8719
 6663TIP3   OH241623   3.420   3.541   1.720 -0.3313 -0.1165 -0.3701
 6663TIP3    H141624   3.497   3.485   1.729  0.1050  0.6488  0.9165
 6663TIP3    H241625   3.359   3.508   1.785 -0.7694 -0.1793 -0.8068
 6664TIP3   OH241626   6.064   2.853   2.244  0.0509  0.1087 -0.1805
 6664TIP3    H141627   6.023   2.774   2.209 -1.2708  0.0661  1.2915
 6664TIP3    H241628   6.106   2.825   2.325  2.2278  0.3699 -1.1463
 6665TIP3   OH241629   1.780   1.189   1.408 -0.2004 -0.1441 -0.1704
 6665TIP3    H141630   1.769   1.272   1.360 -0.5925 -0.4470 -0.6153
 6665TIP3    H241631   1.820   1.130   1.345 -0.2712 -0.4057  0.0296
 6666TIP3   OH241632   2.777   5.798   1.817 -0.3798  0.4557 -0.0629
 6666TIP3    H141633   2.696   5.823   1.771 -0.8647 -0.0104  0.5088
 6666TIP3    H241634   2.747   5.740   1.887  0.1285  2.4414  1.9159
 6667TIP3   OH241635   1.138   4.284   2.281  0.9043  0.5148 -0.4502
 6667TIP3    H141636   1.180   4.353   2.229 -2.0493  1.8964 -1.2318
 6667TIP3    H241637   1.080   4.240   2.219 -0.3842  0.1105  0.9923
 6668TIP3   OH241638   3.309   2.494   0.386 -0.5954 -0.1560 -0.5342
 6668TIP3    H141639   3.309   2.493   0.291 -2.4141  0.5874 -0.5862
 6668TIP3    H241640   3.283   2.584   0.409 -1.1312 -0.5841  0.6307
 6669TIP3   OH241641   6.506   0.559   7.943 -0.1139  0.0201  0.3786
 6669TIP3    H141642   6.440   0.502   7.902  0.9943 -1.1492  0.1611
 6669TIP3    H241643   6.590   0.523   7.914  0.6559  0.7035  1.6630
 6670TIP3   OH241644   0.731   4.407   0.861 -0.1562 -0.1464  0.0055
 6670TIP3    H141645   0.693   4.478   0.809  0.9556  0.2610 -0.2853
 6670TIP3    H241646   0.758   4.450   0.942 -2.1321 -0.8298  1.0942
 6671TIP3   OH241647   5.628   2.488   8.167 -0.2426  0.5714 -0.3316
 6671TIP3    H141648   5.637   2.474   8.073 -1.0773 -0.2834 -0.2946
 6671TIP3    H241649   5.609   2.582   8.176  0.2529  0.7380 -0.9760
 6672TIP3   OH241650   3.622   2.567   8.186 -0.2059  0.0202 -0.2430
 6672TIP3    H141651   3.673   2.554   8.106  0.6481  0.2602  0.2590
 6672TIP3    H241652   3.674   2.525   8.255 -0.1677  1.1675  0.4459
 6673TIP3   OH241653   3.256   3.087   3.138 -0.6345  0.1787  0.2494
 6673TIP3    H141654   3.266   3.020   3.206 -1.2429 -1.7822 -1.4583
 6673TIP3    H241655   3.172   3.128   3.157 -1.2797 -1.0428  0.1645
 6674TIP3   OH241656   0.779   5.175   1.964 -0.5694 -0.0960  0.0469
 6674TIP3    H141657   0.844   5.239   1.994  0.4728 -2.1038  2.4197
 6674TIP3    H241658   0.820   5.134   1.888  0.2794 -0.2550  0.5719
 6675TIP3   OH241659   0.339   3.955   1.462 -0.2695  0.7068  0.6927
 6675TIP3    H141660   0.351   4.020   1.393 -1.2320  0.0959 -0.0975
 6675TIP3    H241661   0.408   3.890   1.446  0.5109  1.3718  1.3059
 6676TIP3   OH241662   2.249   5.059   1.293 -0.7323 -0.1547  0.1348
 6676TIP3    H141663   2.258   5.083   1.386 -0.2843 -1.3722  0.4202
 6676TIP3    H241664   2.328   5.008   1.274 -0.8024  0.1198 -0.9420
 6677TIP3   OH241665   5.101   6.204   0.400 -0.0870  0.7374  0.2144
 6677TIP3    H141666   5.088   6.155   0.480 -0.1935 -0.9464 -0.7889
 6677TIP3    H241667   5.060   6.289   0.417 -1.2187 -0.0249  1.5015
 6678TIP3   OH241668   4.370   5.927   2.641  0.4086 -0.6806  0.0055
 6678TIP3    H141669   4.408   6.014   2.629  0.7428 -0.9817 -1.2500
 6678TIP3    H241670   4.395   5.902   2.730 -0.1793  0.7303  0.6015
 6679TIP3   OH241671   6.859   2.324   8.598 -0.8209  0.1487 -0.2247
 6679TIP3    H141672   6.799   2.393   8.570 -1.4704 -1.1177 -2.1765
 6679TIP3    H241673   6.802   2.256   8.633 -0.5244 -0.8521 -1.6198
 6680TIP3   OH241674   3.730   0.884   1.796  0.5469 -0.1996 -0.0707
 6680TIP3    H141675   3.741   0.790   1.813  0.4137 -0.2604 -0.3252
 6680TIP3    H241676   3.804   0.925   1.842  1.3054 -0.5228 -0.9637
 6681TIP3   OH241677   5.487   6.863   1.631 -0.4809 -0.0501  0.8040
 6681TIP3    H141678   5.531   6.787   1.669  0.4510  0.5566  0.9907
 6681TIP3    H241679   5.449   6.831   1.550  1.5490 -0.3340 -0.1104
 6682TIP3   OH241680   0.718   3.530   2.691  0.2981 -0.2431  0.0962
 6682TIP3    H141681   0.738   3.499   2.603  1.2682  0.9798 -0.1428
 6682TIP3    H241682   0.624   3.518   2.700  0.0344  0.4618 -1.4534
 6683TIP3   OH241683   3.452   6.886   0.093  0.3489 -0.5423  0.9639
 6683TIP3    H141684   3.399   6.865   0.170  0.0674 -1.0943  0.6249
 6683TIP3    H241685   3.459   6.981   0.094 -0.8624 -0.4383  0.8650
 6684TIP3   OH241686   4.088   5.768   3.369 -0.5982  0.1316 -0.2955
 6684TIP3    H141687   4.080   5.853   3.411 -0.2859  0.3875 -0.7476
 6684TIP3    H241688   4.014   5.717   3.403  0.4298 -0.1555  1.6305
 6685TIP3   OH241689   5.685   2.290   0.927 -0.0572  0.2678  0.4753
 6685TIP3    H141690   5.725   2.289   0.840 -0.1501 -1.7208  0.3998
 6685TIP3    H241691   5.724   2.365   0.971  0.1828  1.1655 -1.1790
 6686TIP3   OH241692   4.721   4.503   7.875 -0.1197 -0.2750  0.5170
 6686TIP3    H141693   4.685   4.536   7.792 -0.0394 -0.4464  0.4148
 6686TIP3    H241694   4.732   4.582   7.929  1.0912  0.0202 -0.1202
 6687TIP3   OH241695   4.897   1.839   2.541  0.2850  0.4804  0.0423
 6687TIP3    H141696   4.865   1.810   2.626  0.5276 -0.1901 -0.0950
 6687TIP3    H241697   4.890   1.762   2.485  1.7579  0.4304 -0.0926
 6688TIP3   OH241698   5.130   0.827   1.975  0.3527 -0.0487 -0.0902
 6688TIP3    H141699   5.224   0.840   1.988  0.2509  0.3063  0.3369
 6688TIP3    H241700   5.103   0.898   1.918  0.1000  0.6745  0.8988
 6689TIP3   OH241701   5.173   4.205   1.190 -0.0944 -0.1745 -0.5644
 6689TIP3    H141702   5.179   4.116   1.226 -1.0942 -0.5149 -1.2120
 6689TIP3    H241703   5.263   4.237   1.193 -0.1202  0.0021  2.6643
 6690TIP3   OH241704   4.168   5.839   3.795  0.1642  0.0105 -0.6755
 6690TIP3    H141705   4.196   5.930   3.808  0.4295  0.0774 -1.6748
 6690TIP3    H241706   4.135   5.812   3.881 -0.6547  1.2972 -0.5701
 6691TIP3   OH241707   1.984   0.389   8.095  0.5773 -0.4608 -0.6635
 6691TIP3    H141708   1.981   0.426   8.184 -1.2515  0.9296 -1.2327
 6691TIP3    H241709   2.068   0.418   8.060  0.8646 -0.1277  0.2723
 6692TIP3   OH241710   2.701   4.110   2.574 -0.2355 -0.4085 -0.2839
 6692TIP3    H141711   2.698   4.201   2.603 -1.5108  0.2768 -2.3112
 6692TIP3    H241712   2.687   4.059   2.653 -0.0852  1.1756  0.8108
 6693TIP3   OH241713   5.171   5.125   1.895  0.4166  0.3537  0.4319
 6693TIP3    H141714   5.165   5.179   1.816 -1.5398  0.0058  0.2773
 6693TIP3    H241715   5.264   5.110   1.908  0.8022  0.9566 -1.4402
 6694TIP3   OH241716   4.925   1.521   1.694 -0.3648  0.0272  0.2807
 6694TIP3    H141717   4.903   1.460   1.624 -1.3552 -0.4820  1.0232
 6694TIP3    H241718   4.902   1.475   1.775 -0.9583  1.3030  0.8656
 6695TIP3   OH241719   5.204   6.517   0.721 -0.1588 -0.2391 -0.3595
 6695TIP3    H141720   5.206   6.520   0.625 -1.4254 -0.7039 -0.4233
 6695TIP3    H241721   5.173   6.429   0.742 -0.1887 -0.0403  0.4748
 6696TIP3   OH241722   0.573   3.161   1.114 -0.0219  0.0419 -0.3158
 6696TIP3    H141723   0.505   3.099   1.087 -0.8362  0.3343  0.9748
 6696TIP3    H241724   0.531   3.246   1.111  0.3088  0.2408  0.4081
 6697TIP3   OH241725   4.358   1.994   4.211 -0.5684 -0.2917  0.2358
 6697TIP3    H141726   4.421   2.015   4.280  0.3233 -1.8943 -0.0457
 6697TIP3    H241727   4.373   2.061   4.144 -0.6741  0.6199  1.1131
 6698TIP3   OH241728   2.450   5.941   1.148  0.0233 -0.4537 -0.3251
 6698TIP3    H141729   2.453   5.849   1.121  1.4817 -0.3562 -0.5998
 6698TIP3    H241730   2.508   5.986   1.086 -0.8725  0.7122 -0.3590
 6699TIP3   OH241731   5.043   5.108   3.443  0.0676 -0.3429 -0.5674
 6699TIP3    H141732   4.953   5.134   3.461  0.1773 -0.5794  0.3457
 6699TIP3    H241733   5.036   5.043   3.373 -0.3678  0.5427 -1.3619
 6700TIP3   OH241734   2.734   3.809   1.281 -0.4621  0.3416 -0.2167
 6700TIP3    H141735   2.823   3.817   1.315 -1.1946 -1.0681  2.3132
 6700TIP3    H241736   2.679   3.848   1.349 -1.8462  0.1137 -1.1724
 6701TIP3   OH241737   4.877   0.997   0.203  0.1095  0.1716  0.5396
 6701TIP3    H141738   4.906   1.001   0.111  0.6837  0.7840  0.7407
 6701TIP3    H241739   4.803   0.937   0.201 -0.6045  1.0369 -0.5185
 6702TIP3   OH241740   0.644   2.256   1.114 -0.0002 -0.0648 -0.3591
 6702TIP3    H141741   0.628   2.201   1.190 -1.3855 -0.6240 -1.0159
 6702TIP3    H241742   0.627   2.199   1.039  0.9295  0.5873 -1.1044
 6703TIP3   OH241743   2.754   5.089   8.479  0.7032 -0.0149 -0.2682
 6703TIP3    H141744   2.721   5.105   8.390 -0.2919  1.0583  0.2687
 6703TIP3    H241745   2.681   5.049   8.525  0.8804  0.3606  0.3435
 6704TIP3   OH241746   3.309   6.320   1.972  0.8794 -0.2830  0.5949
 6704TIP3    H141747   3.253   6.245   1.992  0.8736 -0.1557  1.0583
 6704TIP3    H241748   3.258   6.372   1.911  0.5834 -0.2822  0.8400
 6705TIP3   OH241749   3.405   6.309   2.232  0.0023 -0.1349  0.1220
 6705TIP3    H141750   3.356   6.350   2.161 -0.1492  0.8089  0.7567
 6705TIP3    H241751   3.399   6.371   2.304  3.3793  0.7645 -0.1983
 6706TIP3   OH241752   3.305   4.854   2.708  0.2779 -0.2900  0.2188
 6706TIP3    H141753   3.396   4.844   2.680  1.1092  0.8303  2.3207
 6706TIP3    H241754   3.293   4.786   2.775 -0.4526 -0.4256 -0.0325
 6707TIP3   OH241755   4.893   3.168   2.549 -0.0937 -0.4058 -0.1732
 6707TIP3    H141756   4.810   3.151   2.594 -1.3503  1.7221 -1.4787
 6707TIP3    H241757   4.908   3.090   2.496  0.0119 -1.8074  1.8057
 6708TIP3   OH241758   2.167   0.718   2.359 -0.3741 -0.1157  0.4147
 6708TIP3    H141759   2.169   0.789   2.424  1.3770 -1.0678  1.4971
 6708TIP3    H241760   2.080   0.679   2.369 -0.3213  0.0649  1.8963
 6709TIP3   OH241761   1.033   4.151   2.704 -0.5582  0.5687  0.3647
 6709TIP3    H141762   0.977   4.090   2.752 -1.0619  0.1878 -0.6844
 6709TIP3    H241763   1.090   4.095   2.652  0.8194  0.9503  1.3979
 6710TIP3   OH241764   3.300   2.240   1.432  0.0863 -0.0300 -0.2615
 6710TIP3    H141765   3.282   2.333   1.425  1.4950  0.1249 -2.8939
 6710TIP3    H241766   3.395   2.233   1.430  0.0116 -1.5211  0.1457
 6711TIP3   OH241767   2.161   1.862   2.097  0.2134 -0.4211 -0.2563
 6711TIP3    H141768   2.096   1.932   2.088 -0.3657 -1.0614 -1.4098
 6711TIP3    H241769   2.115   1.791   2.141  0.3986 -0.5486 -0.2637
 6712TIP3   OH241770   1.384   3.919   1.738  0.3471  0.0938  0.5179
 6712TIP3    H141771   1.429   3.992   1.780 -0.1483  1.6033 -1.4782
 6712TIP3    H241772   1.427   3.908   1.654 -2.9965  1.7616 -1.6008
 6713TIP3   OH241773   3.165   3.838   2.906 -0.0521  0.0746 -0.3131
 6713TIP3    H141774   3.196   3.917   2.861  1.6362  0.6958  1.8191
 6713TIP3    H241775   3.245   3.792   2.932 -0.9610 -0.6236  1.3736
 6714TIP3   OH241776   1.884   5.069   0.267 -0.0155 -0.6147 -0.4917
 6714TIP3    H141777   1.963   5.102   0.309  0.3056 -2.9306  0.8682
 6714TIP3    H241778   1.812   5.105   0.318  0.0354  1.7780 -1.9334
 6715TIP3   OH241779   1.580   3.939   0.503 -0.4027  0.0671 -0.2177
 6715TIP3    H141780   1.497   3.987   0.496  0.1976  1.0527 -0.9489
 6715TIP3    H241781   1.620   3.972   0.583  0.1126  1.0030 -0.8367
 6716TIP3   OH241782   4.182   2.173   2.675  0.4039  0.1195 -0.1910
 6716TIP3    H141783   4.265   2.217   2.656  0.4176  0.2591  0.1869
 6716TIP3    H241784   4.123   2.203   2.607  0.6074  0.1827 -0.3407
 6717TIP3   OH241785   2.453   4.202   1.918  0.1624 -0.0342  0.3399
 6717TIP3    H141786   2.433   4.294   1.903  2.0382  0.3179 -0.2254
 6717TIP3    H241787   2.544   4.202   1.950  0.2540 -1.6994  0.1625
 6718TIP3   OH241788   2.792   4.263   1.703  0.3144 -0.2832 -0.1666
 6718TIP3    H141789   2.735   4.187   1.695 -0.3236 -0.1227  2.1454
 6718TIP3    H241790   2.870   4.230   1.747 -0.7485  0.6700  2.6073
 6719TIP3   OH241791   2.579   1.042   3.446  0.0303  0.0381 -0.1869
 6719TIP3    H141792   2.616   1.079   3.526  1.8649 -1.3073 -0.3364
 6719TIP3    H241793   2.630   1.081   3.375 -0.0233 -0.4805 -0.5210
 6720TIP3   OH241794   1.821   4.562   3.047 -0.4564 -0.8277  0.2253
 6720TIP3    H141795   1.883   4.606   3.105  0.3946 -2.6597  0.7862
 6720TIP3    H241796   1.876   4.511   2.987 -1.3788 -0.5500 -0.8833
 6721TIP3   OH241797   4.325   2.813   2.981  0.1431 -0.4653 -0.1542
 6721TIP3    H141798   4.283   2.775   2.904 -1.2613  1.7705 -0.5861
 6721TIP3    H241799   4.273   2.782   3.055 -1.1890  0.7689 -0.5293
 6722TIP3   OH241800   4.727   5.885   2.863  0.3712  0.1221 -0.9159
 6722TIP3    H141801   4.653   5.940   2.838  1.0992  0.2459 -3.0457
 6722TIP3    H241802   4.707   5.799   2.825  0.2306 -0.5127  0.5448
 6723TIP3   OH241803   2.170   2.629   1.439  0.1407 -0.0337  0.0874
 6723TIP3    H141804   2.176   2.535   1.421  0.6165 -0.2765  1.3922
 6723TIP3    H241805   2.178   2.635   1.535 -1.0801  1.2420  0.1356
 6724TIP3   OH241806   4.632   5.084   3.977 -0.2065  0.3431  0.4205
 6724TIP3    H141807   4.713   5.129   3.952 -1.3254  0.7432 -2.8849
 6724TIP3    H241808   4.569   5.154   3.991 -0.5723 -0.0348  0.6944
 6725TIP3   OH241809   5.489   5.757   7.920 -0.3050  0.0419 -0.1781
 6725TIP3    H141810   5.459   5.830   7.974 -0.9554  0.3540 -0.9425
 6725TIP3    H241811   5.544   5.798   7.853 -2.0537  0.0665 -1.6448
 6726TIP3   OH241812   2.886   6.128   8.154  0.1363  0.0345  0.0739
 6726TIP3    H141813   2.802   6.086   8.137 -0.0695 -0.0622  1.2449
 6726TIP3    H241814   2.951   6.069   8.116 -0.2283 -0.7460  0.6234
 6727TIP3   OH241815   4.631   3.329   1.677 -0.0314  0.5992 -0.0986
 6727TIP3    H141816   4.724   3.316   1.698 -0.4702 -1.0706  1.0290
 6727TIP3    H241817   4.630   3.340   1.582  1.2463 -0.4336 -0.2698
 6728TIP3   OH241818   2.857   1.110   1.485 -0.3703  0.5009  0.2857
 6728TIP3    H141819   2.927   1.044   1.487 -1.3844 -0.8074 -2.6785
 6728TIP3    H241820   2.796   1.082   1.553  0.6254  0.1115  1.0571
 6729TIP3   OH241821   2.953   0.273   2.430  0.0517 -0.2954  0.4907
 6729TIP3    H141822   2.881   0.316   2.477 -1.2906 -2.7745  0.8813
 6729TIP3    H241823   2.931   0.180   2.433  2.4735 -0.9888 -0.8366
 6730TIP3   OH241824   2.003   2.532   3.360  0.1935  0.0926 -0.3248
 6730TIP3    H141825   2.051   2.605   3.400 -1.1137  2.2057 -2.3831
 6730TIP3    H241826   1.963   2.487   3.434  0.3244  1.9963  0.9830
 6731TIP3   OH241827   1.789   3.277   2.571  0.3007  0.6511 -0.6356
 6731TIP3    H141828   1.868   3.276   2.516  1.0174  0.3418  0.3616
 6731TIP3    H241829   1.823   3.266   2.660 -0.8964  0.3751 -0.2072
 6732TIP3   OH241830   3.563   2.183   2.712  0.4755 -0.2966 -0.5396
 6732TIP3    H141831   3.640   2.210   2.762 -0.5092  0.9236  0.4007
 6732TIP3    H241832   3.583   2.206   2.621  1.0119  0.5099 -0.2234
 6733TIP3   OH241833   1.261   3.627   8.688 -0.2232  0.0820  0.6199
 6733TIP3    H141834   1.172   3.662   8.686 -1.1321 -2.0731 -0.6599
 6733TIP3    H241835   1.263   3.571   8.766 -0.3828 -0.7177  0.0670
 6734TIP3   OH241836   5.458   5.944   1.695 -0.0416 -0.4667 -0.5642
 6734TIP3    H141837   5.472   6.032   1.660  1.4697 -0.4267  0.0559
 6734TIP3    H241838   5.376   5.915   1.656 -0.5145  1.1796 -0.8620
 6735TIP3   OH241839   6.821   6.262   3.054 -0.4441 -0.0021  0.2827
 6735TIP3    H141840   6.857   6.343   3.015  2.1235 -0.6845  1.0350
 6735TIP3    H241841   6.795   6.209   2.978 -0.7083  0.8998 -0.2763
 6736TIP3   OH241842   1.443   1.803   2.022 -0.3467  0.3146 -0.1642
 6736TIP3    H141843   1.401   1.748   2.088  0.2480  2.0326  1.7622
 6736TIP3    H241844   1.531   1.819   2.056  1.0543 -1.0922 -2.8572
 6737TIP3   OH241845   2.061   2.239   1.785  0.3432  0.0261 -0.1639
 6737TIP3    H141846   1.992   2.241   1.719 -1.7085  1.2381  1.8388
 6737TIP3    H241847   2.092   2.148   1.785 -1.0328 -0.4814 -1.3544
 6738TIP3   OH241848   6.255   5.059   2.830 -0.8928 -0.3245  0.0102
 6738TIP3    H141849   6.203   5.004   2.889  2.2750 -0.1166  3.3446
 6738TIP3    H241850   6.321   5.000   2.794 -0.0854  0.4239  0.2332
 6739TIP3   OH241851   2.327   2.006   0.987  0.4998 -0.7222 -0.3262
 6739TIP3    H141852   2.324   2.102   0.985  1.5656 -0.6335  0.8065
 6739TIP3    H241853   2.261   1.982   1.052 -0.1994 -0.7935 -1.0613
 6740TIP3   OH241854   3.870   5.214   1.071  0.5076  0.4747  0.1168
 6740TIP3    H141855   3.845   5.256   0.989 -0.5485  1.6379  1.0037
 6740TIP3    H241856   3.922   5.281   1.117  1.0069 -0.1315  0.4499
 6741TIP3   OH241857   2.149   5.314   2.403  0.1098  0.0090  0.6063
 6741TIP3    H141858   2.161   5.360   2.486 -1.8559  0.6816  0.5630
 6741TIP3    H241859   2.124   5.226   2.428 -1.9587  0.5996  0.8173
 6742TIP3   OH241860   4.338   1.991   0.603 -0.3414  0.4709 -0.7760
 6742TIP3    H141861   4.372   2.066   0.652 -1.9573  0.7134  0.0448
 6742TIP3    H241862   4.389   1.917   0.635 -1.7886  0.4868  1.9121
 6743TIP3   OH241863   6.329   6.634   0.519 -0.7566  0.6947 -0.4436
 6743TIP3    H141864   6.284   6.558   0.482 -1.0266 -0.2483  1.6564
 6743TIP3    H241865   6.260   6.689   0.555 -0.3950 -0.1503  1.6960
 6744TIP3   OH241866   2.632   2.744   0.369 -0.0111  0.2963 -0.1627
 6744TIP3    H141867   2.537   2.738   0.381  0.1589 -2.3437  0.5841
 6744TIP3    H241868   2.666   2.761   0.457  0.3300 -2.3221  0.2873
 6745TIP3   OH241869   3.176   6.533   7.768 -0.1288 -0.3136  0.1285
 6745TIP3    H141870   3.181   6.606   7.706  0.1768 -1.2857 -1.0386
 6745TIP3    H241871   3.085   6.532   7.797 -0.3740 -0.0792 -0.6136
 6746TIP3   OH241872   0.735   3.315   8.494  0.5634  0.0180  0.0395
 6746TIP3    H141873   0.804   3.381   8.492  1.3315 -0.7611 -1.8508
 6746TIP3    H241874   0.686   3.329   8.413 -0.0188 -0.9606  0.2088
 6747TIP3   OH241875   5.858   6.180   1.930 -0.1805  0.0896 -0.3487
 6747TIP3    H141876   5.947   6.154   1.907 -0.0768 -0.7259  0.8595
 6747TIP3    H241877   5.802   6.119   1.882 -0.0536 -0.0288 -0.3460
 6748TIP3   OH241878   3.234   5.399   1.361  0.4571  0.2958  0.7752
 6748TIP3    H141879   3.147   5.431   1.341 -0.8221 -1.0543  3.5229
 6748TIP3    H241880   3.270   5.370   1.277 -1.4473  1.4776 -0.5066
 6749TIP3   OH241881   2.657   2.023   0.943  0.2913  0.5541 -0.1014
 6749TIP3    H141882   2.562   2.010   0.948 -0.2413  3.4243 -0.4348
 6749TIP3    H241883   2.666   2.110   0.904  3.1404 -0.3989 -1.8243
 6750TIP3   OH241884   0.078   5.052   0.395  0.5662  0.0316  0.3692
 6750TIP3    H141885   0.083   5.091   0.308  2.3254  0.9036  0.8135
 6750TIP3    H241886  -0.015   5.058   0.418  0.1931  0.4653 -1.1334
 6751TIP3   OH241887   5.478   5.245   1.568 -0.0861 -0.1715  0.7057
 6751TIP3    H141888   5.447   5.273   1.482  2.6660  0.0088 -0.3290
 6751TIP3    H241889   5.479   5.149   1.563 -2.0542 -0.2759  1.4172
 6752TIP3   OH241890   0.599   4.181   0.616  0.4328 -0.1109 -0.6850
 6752TIP3    H141891   0.619   4.216   0.703  0.4873  0.6597 -1.0039
 6752TIP3    H241892   0.554   4.098   0.634 -1.7543  1.1717  0.1165
 6753TIP3   OH241893   5.106   0.866   2.849  0.4026 -0.1809 -0.5002
 6753TIP3    H141894   5.130   0.888   2.939 -0.7168 -2.5012  0.4293
 6753TIP3    H241895   5.081   0.950   2.810  1.4025  0.9541  1.1620
 6754TIP3   OH241896   0.151   4.470   1.484  0.9855 -0.2370  0.6632
 6754TIP3    H141897   0.227   4.434   1.438 -0.4000 -3.1482  0.4171
 6754TIP3    H241898   0.151   4.425   1.568 -1.2619 -1.5067  0.0516
 6755TIP3   OH241899   5.069   6.601   2.413  0.0628 -0.6570  0.2040
 6755TIP3    H141900   5.106   6.517   2.386  1.3394 -1.2911  3.4669
 6755TIP3    H241901   5.144   6.661   2.414 -0.4074 -0.0527  0.0635
 6756TIP3   OH241902   2.150   6.324   8.016 -0.5181  1.0128  0.4811
 6756TIP3    H141903   2.086   6.323   7.944 -0.7332 -2.4518  0.5830
 6756TIP3    H241904   2.099   6.300   8.093  0.6684 -0.9381  0.7198
 6757TIP3   OH241905   2.911   1.648   1.480 -0.1151 -0.4179 -0.3872
 6757TIP3    H141906   2.995   1.692   1.493 -0.4852  0.5374 -1.1134
 6757TIP3    H241907   2.874   1.640   1.568  1.0864 -1.5949  0.0404
 6758TIP3   OH241908   0.966   2.607   3.366  0.2168 -0.5067 -0.2783
 6758TIP3    H141909   0.883   2.655   3.365 -0.1543 -1.1355 -0.6621
 6758TIP3    H241910   0.979   2.580   3.275  1.2471  0.2556 -0.3715
 6759TIP3   OH241911   4.034   5.310   2.563 -0.0061 -0.3521  0.8847
 6759TIP3    H141912   4.031   5.406   2.556 -0.8932 -0.3346  1.3610
 6759TIP3    H241913   4.077   5.282   2.482  0.3087  0.4518  0.7606
 6760TIP3   OH241914   3.869   4.358   3.001 -0.2951  0.2832 -0.2830
 6760TIP3    H141915   3.790   4.308   3.020  0.2561 -0.5988 -0.2707
 6760TIP3    H241916   3.888   4.405   3.082  0.0989 -0.7709  0.2618
 6761TIP3   OH241917   6.268   6.016   8.610 -0.2089 -0.6589  1.0285
 6761TIP3    H141918   6.288   6.019   8.516  0.6859  0.4048  1.2370
 6761TIP3    H241919   6.320   5.944   8.644 -0.0704 -0.6582  0.8191
 6762TIP3   OH241920   4.928   2.818   1.748 -0.1305  0.1945  0.0409
 6762TIP3    H141921   4.850   2.862   1.782 -1.3916 -1.6361 -0.3688
 6762TIP3    H241922   4.984   2.890   1.717 -0.9829  1.6289  1.6583
 6763TIP3   OH241923   5.657   4.452   0.522 -0.2495 -0.3920  0.6944
 6763TIP3    H141924   5.718   4.451   0.596  2.8201 -0.6259 -1.6333
 6763TIP3    H241925   5.667   4.539   0.483 -0.3889 -0.8824 -0.4867
 6764TIP3   OH241926   1.153   2.430   2.196 -0.6147 -0.4328  0.1007
 6764TIP3    H141927   1.153   2.358   2.133  2.3989 -0.0405 -0.4686
 6764TIP3    H241928   1.124   2.389   2.278 -0.6129 -1.9001 -0.5859
 6765TIP3   OH241929   0.760   2.268   8.703 -0.5131 -0.5012 -0.5598
 6765TIP3    H141930   0.817   2.342   8.720 -1.0288  0.2769 -2.0475
 6765TIP3    H241931   0.694   2.272   8.772  1.1470 -1.4186  1.1921
 6766TIP3   OH241932   3.214   5.987   0.128 -0.3133 -0.3499  0.0295
 6766TIP3    H141933   3.243   5.905   0.168 -0.1702  0.0008  0.6466
 6766TIP3    H241934   3.167   5.959   0.049  0.8582 -0.9712 -0.4775
 6767TIP3   OH241935   0.731   1.743   3.429 -0.2488 -0.5320  0.3603
 6767TIP3    H141936   0.650   1.704   3.462  0.2717 -0.0096  2.4386
 6767TIP3    H241937   0.734   1.830   3.469  1.8198 -0.9278  1.2082
 6768TIP3   OH241938   2.411   5.321   0.454 -0.1243 -0.3014  0.0232
 6768TIP3    H141939   2.337   5.262   0.444  0.8661 -1.4221 -1.0619
 6768TIP3    H241940   2.468   5.278   0.518 -0.2120  0.3402  0.5389
 6769TIP3   OH241941   0.908   5.828   0.808 -0.1273 -0.1821  0.1291
 6769TIP3    H141942   0.993   5.796   0.779 -1.0489 -2.1923 -0.5935
 6769TIP3    H241943   0.850   5.812   0.733 -1.7591 -1.7994  1.6391
 6770TIP3   OH241944   5.401   1.289   8.629  0.0221  0.6393  0.1378
 6770TIP3    H141945   5.437   1.227   8.566 -0.7659  0.9054 -0.5881
 6770TIP3    H241946   5.349   1.235   8.689 -0.3561  0.5470 -0.2684
 6771TIP3   OH241947   6.455   4.408   7.971 -0.3244  0.1973  0.4293
 6771TIP3    H141948   6.384   4.356   8.009  0.5947 -2.0404 -0.7638
 6771TIP3    H241949   6.527   4.400   8.035  0.1386 -0.8580 -0.2014
 6772TIP3   OH241950   6.830   6.524   0.679 -0.2207 -0.3879  0.4964
 6772TIP3    H141951   6.868   6.492   0.597  0.0706  0.2738  0.3692
 6772TIP3    H241952   6.753   6.469   0.693 -1.2991  0.6436 -1.1389
 6773TIP3   OH241953   0.713   2.509   1.415  0.4173  0.4988 -0.4531
 6773TIP3    H141954   0.643   2.560   1.454 -0.2116 -1.0080  0.4817
 6773TIP3    H241955   0.729   2.438   1.477  1.3495 -0.3732 -1.6268
 6774TIP3   OH241956   5.949   4.501   8.705  0.3206 -0.6347 -0.0183
 6774TIP3    H141957   5.901   4.433   8.752 -0.9308  1.3040  1.6750
 6774TIP3    H241958   6.034   4.462   8.686 -0.5090 -2.7969  0.4713
 6775TIP3   OH241959   0.637   5.725   8.341  0.1973 -0.4460  0.0454
 6775TIP3    H141960   0.606   5.638   8.315  0.0856 -1.2550  2.5782
 6775TIP3    H241961   0.657   5.716   8.434 -2.3037  2.8757  1.1078
 6776TIP3   OH241962   0.897   6.779   2.208 -0.0242  0.4082  0.1672
 6776TIP3    H141963   0.916   6.783   2.114 -1.0121  1.1162 -0.0313
 6776TIP3    H241964   0.806   6.750   2.212 -0.1379  0.8393  0.8774
 6777TIP3   OH241965   5.514   1.633   1.813  0.2703 -0.1242 -0.3048
 6777TIP3    H141966   5.555   1.594   1.736  1.4234  0.6463 -0.1106
 6777TIP3    H241967   5.585   1.679   1.857 -0.7207  0.9176  0.2709
 6778TIP3   OH241968   5.751   3.861   3.353  0.3820  0.2249  0.5708
 6778TIP3    H141969   5.776   3.825   3.268  0.5488 -1.6376  1.3724
 6778TIP3    H241970   5.656   3.867   3.349  0.3747 -0.0040  0.3090
 6779TIP3   OH241971   1.796   1.754   3.072 -0.2107 -0.0241  0.3682
 6779TIP3    H141972   1.776   1.829   3.016 -1.0285 -0.3244  0.2466
 6779TIP3    H241973   1.763   1.779   3.159 -2.4828 -1.0585 -0.1213
 6780TIP3   OH241974   3.873   4.293   3.654 -0.4766 -0.0024 -0.4362
 6780TIP3    H141975   3.857   4.328   3.566 -2.3276  1.0671  0.2621
 6780TIP3    H241976   3.787   4.261   3.682  0.4711 -2.0624  0.2953
 6781TIP3   OH241977   4.577   6.861   3.490  0.0111  0.3207 -0.2412
 6781TIP3    H141978   4.535   6.932   3.539 -2.8310  0.2268 -2.3094
 6781TIP3    H241979   4.653   6.902   3.449  0.1800  1.3542  1.0115
 6782TIP3   OH241980   5.044   3.590   2.974  0.1485 -0.4017  0.3545
 6782TIP3    H141981   5.091   3.508   2.962  0.2759 -0.2367 -0.2750
 6782TIP3    H241982   5.039   3.629   2.887 -0.7180 -0.1752  0.4910
 6783TIP3   OH241983   1.793   4.464   8.278 -0.2856  0.5117 -0.4447
 6783TIP3    H141984   1.771   4.408   8.203 -0.5170  1.1296 -0.8421
 6783TIP3    H241985   1.708   4.490   8.315 -0.2168  1.6562 -1.0561
 6784TIP3   OH241986   0.785   6.301   1.907  0.2470 -0.3743  0.7455
 6784TIP3    H141987   0.849   6.363   1.943  0.3127 -0.5406  0.9178
 6784TIP3    H241988   0.819   6.280   1.820  1.5831 -2.0916  1.6261
 6785TIP3   OH241989   4.823   4.419   1.120  0.5787  0.4081 -0.0400
 6785TIP3    H141990   4.907   4.445   1.159  0.2130  2.4883 -0.4980
 6785TIP3    H241991   4.765   4.405   1.195  0.2145  3.1996  0.3300
 6786TIP3   OH241992   6.338   2.551   2.079 -0.0095 -0.0585  0.2630
 6786TIP3    H141993   6.281   2.519   2.009 -2.7670  4.1451  0.2567
 6786TIP3    H241994   6.292   2.531   2.160  0.9409 -0.8916  0.6136
 6787TIP3   OH241995   6.705   0.630   2.515  0.1473 -0.0198 -0.0842
 6787TIP3    H141996   6.668   0.716   2.496  1.5700  0.5704 -0.2892
 6787TIP3    H241997   6.759   0.643   2.593 -0.7123 -1.0518  0.7168
 6788TIP3   OH241998   1.554   1.798   0.163  0.6526 -0.2178 -0.4170
 6788TIP3    H141999   1.592   1.743   0.231 -1.2837 -3.2307 -1.5432
 6788TIP3    H242000   1.472   1.831   0.201  0.5387 -0.2757 -0.6097
 6789TIP3   OH242001   2.950   5.103   0.979  0.2753 -0.3219  0.6276
 6789TIP3    H142002   2.895   5.047   0.925 -1.8238 -0.4959  2.7709
 6789TIP3    H242003   3.000   5.042   1.034  1.9438 -0.1311 -0.5816
 6790TIP3   OH242004   0.333   1.362   3.481 -0.3458 -0.0164  0.5546
 6790TIP3    H142005   0.413   1.414   3.492 -1.3002  1.7823 -0.5398
 6790TIP3    H242006   0.286   1.373   3.564 -1.3052  2.4017 -0.1886
 6791TIP3   OH242007   3.999   1.719   8.458 -0.0367  0.4114  0.3397
 6791TIP3    H142008   3.980   1.672   8.377  0.6693 -0.7892  0.8462
 6791TIP3    H242009   4.007   1.811   8.431 -0.7237  0.1613 -0.7855
 6792TIP3   OH242010   4.965   3.141   0.665 -0.1112 -0.3606 -0.0954
 6792TIP3    H142011   4.980   3.222   0.714 -1.3873 -0.1725  0.0155
 6792TIP3    H242012   5.023   3.077   0.705  0.3836  0.3211  0.2861
 6793TIP3   OH242013   5.524   3.149   0.266  0.3548  0.1951 -0.7627
 6793TIP3    H142014   5.435   3.162   0.231  0.6431  2.5919 -0.7757
 6793TIP3    H242015   5.525   3.058   0.294 -1.4318 -0.4989 -2.6521
 6794TIP3   OH242016   2.789   6.151   1.289 -0.0874 -0.0296 -0.1137
 6794TIP3    H142017   2.700   6.122   1.267  0.0363  0.4672 -1.3547
 6794TIP3    H242018   2.839   6.137   1.209  0.5933  1.1040  0.0926
 6795TIP3   OH242019   1.550   3.200   1.222 -1.1514  0.4568 -0.3162
 6795TIP3    H142020   1.613   3.139   1.184 -1.0971 -0.5776  1.3499
 6795TIP3    H242021   1.586   3.287   1.201 -1.8323  0.0739 -3.7436
 6796TIP3   OH242022   1.439   6.716   4.177  0.1273 -0.4610  0.1577
 6796TIP3    H142023   1.515   6.673   4.215  0.0640  0.3245  1.2187
 6796TIP3    H242024   1.458   6.810   4.183 -0.6528 -0.2729 -0.1424
 6797TIP3   OH242025   2.538   4.919   0.433 -0.1648  0.0845  0.1908
 6797TIP3    H142026   2.469   4.880   0.486  1.2580 -0.4484  1.7291
 6797TIP3    H242027   2.609   4.855   0.434 -0.1931 -0.1295 -2.7149
 6798TIP3   OH242028   4.644   3.944   0.796  0.6255  0.3829 -0.2612
 6798TIP3    H142029   4.589   3.882   0.748 -0.3559  0.5656  0.5932
 6798TIP3    H242030   4.712   3.890   0.837 -0.1711 -0.1249  0.4122
 6799TIP3   OH242031   3.894   6.166   1.814 -0.0579  1.0540 -0.5059
 6799TIP3    H142032   3.975   6.208   1.844  0.7280 -0.2091 -0.8176
 6799TIP3    H242033   3.824   6.221   1.851  0.9180  1.7269  0.4051
 6800TIP3   OH242034   3.159   3.737   0.372  0.0812  0.2655  0.5707
 6800TIP3    H142035   3.190   3.725   0.462  1.2679  0.1079  0.1586
 6800TIP3    H242036   3.176   3.829   0.352 -1.1305  0.5662  0.8362
 6801TIP3   OH242037   3.600   0.148   3.963 -0.2095  0.4930 -0.4401
 6801TIP3    H142038   3.569   0.239   3.958  1.8400  1.2183 -1.5693
 6801TIP3    H242039   3.627   0.137   4.054 -0.3296  1.0805 -0.3262
 6802TIP3   OH242040   3.704   5.528   0.452 -0.1720  0.1368 -0.2384
 6802TIP3    H142041   3.657   5.573   0.522 -1.8010  0.2072 -1.3177
 6802TIP3    H242042   3.758   5.596   0.412 -2.1511  1.1137 -1.4597
 6803TIP3   OH242043   1.665   5.155   8.609 -0.1137  0.1382 -0.1056
 6803TIP3    H142044   1.621   5.111   8.537  0.5062 -1.4855  0.4660
 6803TIP3    H242045   1.745   5.190   8.571  0.9074 -1.9171  0.0176
 6804TIP3   OH242046   1.959   0.816   3.912  0.1200  0.5192  0.4637
 6804TIP3    H142047   2.010   0.897   3.921  4.0580 -1.6953  0.3608
 6804TIP3    H242048   1.950   0.784   4.001  1.9985 -0.7138  0.2685
 6805TIP3   OH242049   1.667   2.457   2.714  0.3578 -0.1266 -0.5747
 6805TIP3    H142050   1.672   2.522   2.643  0.2904 -0.1366 -0.5888
 6805TIP3    H242051   1.706   2.378   2.677 -0.2186 -0.3101 -0.8031
 6806TIP3   OH242052   4.968   3.573   0.481 -0.2131  0.1447  0.2595
 6806TIP3    H142053   5.012   3.497   0.520  0.1957  0.2471  0.0079
 6806TIP3    H242054   4.906   3.536   0.418 -1.0796 -0.0361  1.1955
 6807TIP3   OH242055   0.576   4.088   1.930  0.4300 -0.3927  0.3087
 6807TIP3    H142056   0.669   4.065   1.921  0.4422  0.3537 -1.8461
 6807TIP3    H242057   0.570   4.178   1.898 -0.8558  0.0606  1.6900
 6808TIP3   OH242058   3.365   2.577   8.004  0.2233 -0.3762 -0.1719
 6808TIP3    H142059   3.389   2.519   7.932 -1.1228 -0.2207 -0.7965
 6808TIP3    H242060   3.305   2.640   7.964  0.4317  0.4797  0.8291
 6809TIP3   OH242061   4.108   0.812   8.651 -0.1109  0.5234  0.7705
 6809TIP3    H142062   4.115   0.859   8.734 -0.9082 -1.1913  1.8681
 6809TIP3    H242063   4.115   0.719   8.676  1.2348  0.0129 -1.2751
 6810TIP3   OH242064   3.201   5.727   0.243 -0.3350 -0.1632  0.2973
 6810TIP3    H142065   3.140   5.653   0.243 -0.8630  0.2681  0.6606
 6810TIP3    H242066   3.206   5.754   0.335  1.0480 -0.7158  0.4085
 6811TIP3   OH242067   2.600   2.729   1.863  0.1816 -0.3764 -0.1769
 6811TIP3    H142068   2.545   2.804   1.883  1.3607  0.4038  0.2118
 6811TIP3    H242069   2.637   2.703   1.947 -0.8228 -1.9128 -0.1712
 6812TIP3   OH242070   3.647   6.856   8.627  0.1239 -0.3640  0.2068
 6812TIP3    H142071   3.598   6.844   8.546  0.4876 -1.6317  0.1478
 6812TIP3    H242072   3.581   6.873   8.693 -0.2120  0.1786 -0.2609
 6813TIP3   OH242073   4.290   5.229   3.647  0.5761 -0.2975  0.1555
 6813TIP3    H142074   4.272   5.282   3.724 -0.7780  1.2407 -1.1495
 6813TIP3    H242075   4.203   5.208   3.612  1.1619 -0.2042 -1.4182
 6814TIP3   OH242076   1.302   3.328   1.092  0.2511 -0.3126  0.4751
 6814TIP3    H142077   1.231   3.325   1.156  0.5133 -1.2454  0.7336
 6814TIP3    H242078   1.329   3.237   1.082  0.8992 -0.0544 -0.1993
 6815TIP3   OH242079   0.360   1.408   2.683  0.1101  0.2991  0.1808
 6815TIP3    H142080   0.364   1.369   2.596  0.9451  0.8197 -0.0281
 6815TIP3    H242081   0.452   1.421   2.707 -0.0724 -0.5627  1.4738
 6816TIP3   OH242082   1.083   1.890   2.433 -0.8470  0.5903 -1.0600
 6816TIP3    H142083   1.034   1.808   2.436 -0.2273  0.2251 -0.7108
 6816TIP3    H242084   1.017   1.958   2.445 -0.9846  0.0138  2.4309
 6817TIP3   OH242085   1.944   3.845   8.576 -0.3466 -0.1195  0.6032
 6817TIP3    H142086   1.998   3.833   8.497 -1.4835 -0.5656 -0.1382
 6817TIP3    H242087   1.888   3.767   8.578 -1.2008  0.4928  1.1383
 6818TIP3   OH242088   4.439   5.600   8.100 -0.1413  0.0498 -0.1134
 6818TIP3    H142089   4.444   5.671   8.036 -0.5005  0.1444 -0.0387
 6818TIP3    H242090   4.488   5.528   8.060 -0.2216  0.1637 -0.4182
 6819TIP3   OH242091   2.077   4.544   0.194  0.1202  0.1006 -0.6362
 6819TIP3    H142092   2.111   4.581   0.276  1.2927 -0.4003 -0.8782
 6819TIP3    H242093   2.076   4.449   0.209 -0.3047  0.0484 -0.9702
 6820TIP3   OH242094   0.206   3.012   1.552  0.2070 -0.0619 -0.0338
 6820TIP3    H142095   0.216   2.924   1.588 -0.0002  0.5259  1.5060
 6820TIP3    H242096   0.112   3.029   1.557  0.1193 -0.1130 -1.2433
 6821TIP3   OH242097   2.068   1.031   2.744 -0.1944  0.6626  0.6351
 6821TIP3    H142098   2.028   1.113   2.715 -0.9695  0.1116  0.1357
 6821TIP3    H242099   2.000   0.965   2.733  0.5972 -0.1512  0.5177
 6822TIP3   OH242100   5.096   5.955   8.473 -0.2428  0.2498 -0.2813
 6822TIP3    H142101   5.107   6.049   8.463 -0.8986  0.2450 -1.1770
 6822TIP3    H242102   5.157   5.917   8.410 -1.0618  0.1218 -1.0235
 6823TIP3   OH242103   5.012   4.262   0.901  0.1762  0.4423  0.2536
 6823TIP3    H142104   5.085   4.205   0.924 -0.3131  0.1137  1.0180
 6823TIP3    H242105   5.051   4.350   0.899  0.2973  0.4841  2.2401
 6824TIP3   OH242106   6.279   4.443   0.544 -0.1942 -0.0002  0.4655
 6824TIP3    H142107   6.250   4.358   0.513  0.7678  0.1770 -1.0099
 6824TIP3    H242108   6.372   4.447   0.522 -0.3151  1.6018  0.0704
 6825TIP3   OH242109   6.631   4.625   2.063 -0.9985 -0.2222 -0.5929
 6825TIP3    H142110   6.706   4.661   2.015 -0.8090  0.2455  0.0421
 6825TIP3    H242111   6.616   4.539   2.023 -0.1774 -0.2844 -0.7876
 6826TIP3   OH242112   3.847   3.316   2.358  0.1331  0.0995  0.5035
 6826TIP3    H142113   3.816   3.375   2.427 -0.6674 -0.7238  0.8643
 6826TIP3    H242114   3.821   3.229   2.387  1.0810 -0.4185 -0.1428
 6827TIP3   OH242115   0.990   3.557   0.006  0.2688 -0.0708  0.0408
 6827TIP3    H142116   0.983   3.554   0.102 -1.0016 -0.9458 -0.0594
 6827TIP3    H242117   0.976   3.649  -0.015  0.0125  0.0425  0.6623
 6828TIP3   OH242118   3.896   3.775   2.204  0.1238  0.3954  0.3047
 6828TIP3    H142119   3.888   3.793   2.297 -1.1014 -0.2722  0.3417
 6828TIP3    H242120   3.955   3.700   2.199 -1.7922 -1.2199  0.7515
 6829TIP3   OH242121   0.906   4.471   1.905  0.2809 -0.0099  0.1138
 6829TIP3    H142122   0.859   4.403   1.954  0.4019 -0.2230 -0.0607
 6829TIP3    H242123   0.916   4.434   1.817 -1.4458  1.0561 -0.5698
 6830TIP3   OH242124   2.367   0.161   0.252 -0.0238  0.6483  0.0055
 6830TIP3    H142125   2.320   0.211   0.318 -0.0404 -0.5217  0.9353
 6830TIP3    H242126   2.301   0.103   0.215  0.1230  0.8671 -0.5957
 6831TIP3   OH242127   1.880   4.243   3.102 -0.2783 -0.4835 -0.8230
 6831TIP3    H142128   1.944   4.282   3.161 -1.1742 -0.4887  0.1967
 6831TIP3    H242129   1.885   4.296   3.022 -0.5544  0.9208  0.0574
 6832TIP3   OH242130   2.677   4.113   2.844 -0.4658  0.3429 -0.3984
 6832TIP3    H142131   2.673   4.159   2.928 -0.9775 -0.5384  0.0749
 6832TIP3    H242132   2.739   4.042   2.859  0.2645  0.8089 -1.1005
 6833TIP3   OH242133   1.379   3.355   3.198  0.0239  0.2224  0.4646
 6833TIP3    H142134   1.329   3.410   3.138 -0.6626  0.6726  1.4262
 6833TIP3    H242135   1.322   3.281   3.217  0.2396  0.0784  0.5632
 6834TIP3   OH242136   5.039   6.565   1.222  0.4120 -0.3956 -0.4675
 6834TIP3    H142137   4.949   6.568   1.253  0.9575 -0.9012  1.3160
 6834TIP3    H242138   5.067   6.657   1.220  0.8240 -0.3517  2.2576
 6835TIP3   OH242139   2.043   2.080   2.408 -0.1965 -0.2452  0.2289
 6835TIP3    H142140   2.087   2.152   2.364 -2.2035  0.6140 -0.5030
 6835TIP3    H242141   2.029   2.111   2.497  1.8731 -1.1007  0.9101
 6836TIP3   OH242142   2.181   4.572   8.693  0.2578  0.7381 -0.7209
 6836TIP3    H142143   2.262   4.624   8.693  0.3481  0.6036 -0.3378
 6836TIP3    H242144   2.162   4.559   8.786 -0.6136  1.3912 -0.7941
 6837TIP3   OH242145   3.680   3.162   0.607 -0.3444  0.3871  0.4096
 6837TIP3    H142146   3.664   3.230   0.542  1.6274  1.6743  1.1657
 6837TIP3    H242147   3.742   3.102   0.565  2.1850  2.0668  1.4810
 6838TIP3   OH242148   4.982   2.643   0.605 -0.5745  0.4460 -0.3387
 6838TIP3    H142149   5.040   2.627   0.530  0.0209  1.1302 -0.0419
 6838TIP3    H242150   4.929   2.718   0.578  0.4354  1.4366  0.3409
 6839TIP3   OH242151   2.385   3.386   2.504  0.2664 -0.0416 -0.4636
 6839TIP3    H142152   2.326   3.312   2.515 -0.7619  0.8288  0.0320
 6839TIP3    H242153   2.333   3.452   2.460  0.3317  1.3423  1.4086
 6840TIP3   OH242154   4.067   2.881   1.687  0.2454  0.1706 -0.1863
 6840TIP3    H142155   4.036   2.890   1.597  0.2511 -0.6471 -0.2786
 6840TIP3    H242156   3.997   2.835   1.733  0.9329 -0.9291 -0.1945
 6841TIP3   OH242157   6.287   0.058   1.405  0.2766  0.2451  0.2321
 6841TIP3    H142158   6.270   0.081   1.496 -1.7155  0.4899 -0.1701
 6841TIP3    H242159   6.301   0.143   1.362  0.1711  0.2051  0.1191
 6842TIP3   OH242160   0.754   0.009   2.853 -0.7208  0.3497  0.1711
 6842TIP3    H142161   0.693   0.067   2.807  0.4609  1.6090  0.1444
 6842TIP3    H242162   0.716  -0.002   2.940 -3.0193 -2.0985 -0.9720
 6843TIP3   OH242163   1.980   5.526   2.124 -0.7268 -0.4719  0.1074
 6843TIP3    H142164   2.001   5.594   2.188 -1.5360  0.8694 -1.0045
 6843TIP3    H242165   2.061   5.476   2.115  0.5316  1.5696 -0.4959
 6844TIP3   OH242166   0.196   3.888   0.755  0.6510 -0.6333  0.1002
 6844TIP3    H142167   0.265   3.939   0.796  0.0156  0.4704 -0.1560
 6844TIP3    H242168   0.118   3.904   0.809 -0.0446  0.3567 -1.1281
 6845TIP3   OH242169   3.814   0.058   2.371  0.1952  0.0436 -0.3444
 6845TIP3    H142170   3.902   0.050   2.407 -0.0096 -0.5926  0.0341
 6845TIP3    H242171   3.761   0.093   2.443 -0.1176 -0.7894 -0.1565
 6846TIP3   OH242172   2.695   3.052   1.831  0.0843  0.8211 -0.1780
 6846TIP3    H142173   2.731   3.079   1.916 -0.3062  0.4681  0.0987
 6846TIP3    H242174   2.614   3.102   1.823  0.6427  1.6545 -0.8260
 6847TIP3   OH242175   2.452   0.236   0.596 -0.0428 -0.3964  0.6334
 6847TIP3    H142176   2.527   0.204   0.546 -0.0224  0.1237  0.3273
 6847TIP3    H242177   2.469   0.329   0.607 -1.4349  0.0866 -0.8903
 6848TIP3   OH242178   5.965   0.939   1.969 -0.2348 -0.3285  0.1904
 6848TIP3    H142179   6.014   0.860   1.993  0.5422  0.2282  0.5011
 6848TIP3    H242180   5.976   0.945   1.874  2.5221  1.1451  0.4907
 6849TIP3   OH242181   0.252   2.409   3.182  0.2160 -0.6098  0.9214
 6849TIP3    H142182   0.162   2.410   3.214  0.7024  0.6534  2.3872
 6849TIP3    H242183   0.246   2.440   3.091 -0.7152  0.8153  1.4292
 6850TIP3   OH242184   6.090   4.474   1.320 -0.8777 -0.1666 -0.0558
 6850TIP3    H142185   6.145   4.551   1.332 -2.0566  0.4888  1.3439
 6850TIP3    H242186   6.047   4.488   1.236 -0.0091 -0.0133 -0.4898
 6851TIP3   OH242187   6.132   1.608   1.027 -0.0471  0.1735 -0.2932
 6851TIP3    H142188   6.169   1.666   1.094 -1.8227  1.2302 -0.1640
 6851TIP3    H242189   6.038   1.608   1.044 -0.4917  0.0410 -2.4576
 6852TIP3   OH242190   1.764   0.601   1.542  0.4366 -0.4783  0.1112
 6852TIP3    H142191   1.743   0.649   1.462 -2.1970  1.0727  1.5779
 6852TIP3    H242192   1.848   0.637   1.571  0.5301  0.2382 -1.0088
 6853TIP3   OH242193   0.579   0.565   0.330 -0.2123  0.2250  0.0264
 6853TIP3    H142194   0.516   0.520   0.385  0.7440 -0.8101  0.3151
 6853TIP3    H242195   0.606   0.642   0.381 -0.1117 -0.1612  0.5621
 6854TIP3   OH242196   1.511   5.048   1.256  0.0851 -0.0429 -0.1776
 6854TIP3    H142197   1.459   5.038   1.336  0.0131 -0.8056 -0.3120
 6854TIP3    H242198   1.594   5.086   1.286  0.1352 -0.5040  0.2881
 6855TIP3   OH242199   4.804   2.722   2.552  0.3189  0.7564 -0.7543
 6855TIP3    H142200   4.815   2.632   2.520 -1.0471  0.0906  0.5591
 6855TIP3    H242201   4.894   2.751   2.571  0.6760 -1.0004  0.5216
 6856TIP3   OH242202   6.776   5.534   8.691  0.1334 -0.1281  0.0267
 6856TIP3    H142203   6.865   5.506   8.671  1.1785  0.4595  3.2650
 6856TIP3    H242204   6.765   5.617   8.645 -0.1515 -1.8756 -3.2989
 6857TIP3   OH242205   2.711   1.492   2.845 -0.3096 -0.3155  0.4640
 6857TIP3    H142206   2.753   1.446   2.773 -1.6064  0.3814 -0.8007
 6857TIP3    H242207   2.717   1.585   2.822  0.1775  0.0089  1.7914
 6858TIP3   OH242208   6.347   5.278   2.956  0.0076 -0.8907  0.2795
 6858TIP3    H142209   6.291   5.212   2.915  0.1704  0.3268 -2.0576
 6858TIP3    H242210   6.414   5.297   2.891 -0.2376  1.8317  0.6764
 6859TIP3   OH242211   0.827   0.909   1.421  0.1795  0.0454  0.3660
 6859TIP3    H142212   0.920   0.922   1.402  0.3963 -1.2808  0.4307
 6859TIP3    H242213   0.803   0.983   1.476  0.9583  0.9039 -0.4212
 6860TIP3   OH242214   0.852   5.620   1.414 -0.0397 -0.9587  0.0459
 6860TIP3    H142215   0.795   5.601   1.340 -0.4447 -0.2716  0.1740
 6860TIP3    H242216   0.803   5.592   1.491  0.1087 -1.0672  0.1027
 6861TIP3   OH242217   5.494   1.757   0.388 -0.7931  0.8648  0.1402
 6861TIP3    H142218   5.468   1.798   0.470  0.3671  2.0551 -0.0549
 6861TIP3    H242219   5.448   1.807   0.321 -2.0022 -0.3186  0.0585
 6862TIP3   OH242220   1.712   5.302   8.290  0.4532 -0.1882 -0.1902
 6862TIP3    H142221   1.620   5.286   8.273  0.1940 -0.6658  1.4897
 6862TIP3    H242222   1.743   5.351   8.214 -1.0589 -0.4508 -0.9942
 6863TIP3   OH242223   1.357   2.575   8.029 -0.0918  0.1276  0.8034
 6863TIP3    H142224   1.334   2.529   8.110  1.7478 -0.1860  1.1914
 6863TIP3    H242225   1.301   2.653   8.030  0.3540  0.5004  2.7584
 6864TIP3   OH242226   3.819   6.041   0.370 -0.3013 -0.2422  0.9020
 6864TIP3    H142227   3.729   6.057   0.344 -0.1247  1.3424  1.1545
 6864TIP3    H242228   3.870   6.105   0.319  0.7598 -1.5049  0.3038
 6865TIP3   OH242229   6.211   4.162   3.143  0.1153  0.4181  0.8724
 6865TIP3    H142230   6.250   4.227   3.201  0.0893 -1.5471  3.2941
 6865TIP3    H242231   6.281   4.099   3.127 -0.0629  0.6119 -0.7687
 6866TIP3   OH242232   2.643   4.181   1.349 -0.1919 -0.2335  0.0908
 6866TIP3    H142233   2.570   4.120   1.361 -1.0059  0.0667 -2.7577
 6866TIP3    H242234   2.719   4.135   1.386 -1.3965 -1.5308  1.0154
 6867TIP3   OH242235   5.146   4.387   1.481 -0.3125 -0.5184  0.3922
 6867TIP3    H142236   5.102   4.333   1.416  0.8070 -1.8037  0.6528
 6867TIP3    H242237   5.237   4.391   1.452 -0.4858  1.9238 -0.0480
 6868TIP3   OH242238   0.775   2.812   3.478 -0.1044  0.6025  0.2696
 6868TIP3    H142239   0.733   2.859   3.405 -0.0498  0.8292  0.3833
 6868TIP3    H242240   0.855   2.861   3.495 -0.3004  0.7759  0.7298
 6869TIP3   OH242241   2.274   4.198   2.140 -0.1845  0.2081  0.7840
 6869TIP3    H142242   2.185   4.232   2.136 -0.0327  0.6435  1.0560
 6869TIP3    H242243   2.292   4.168   2.051 -0.6656 -0.0435  0.7735
 6870TIP3   OH242244   4.387   4.184   0.226  0.6417 -0.0989 -0.1201
 6870TIP3    H142245   4.480   4.171   0.208  0.3387  0.6817 -2.5543
 6870TIP3    H242246   4.374   4.279   0.221 -0.3747 -0.2250 -0.2306
 6871TIP3   OH242247   4.418   0.564   2.508  0.0216 -0.6297  0.0944
 6871TIP3    H142248   4.430   0.528   2.596 -0.7946 -2.2854 -0.4263
 6871TIP3    H242249   4.506   0.563   2.470  0.7416  1.8513  1.4505
 6872TIP3   OH242250   4.759   4.716   0.777  0.4538 -0.1616  0.2032
 6872TIP3    H142251   4.737   4.709   0.684 -0.2822 -0.3750  0.3818
 6872TIP3    H242252   4.793   4.629   0.800  1.0456  0.0233  0.0351
 6873TIP3   OH242253   2.289   1.229   3.370 -0.7944 -0.4180  0.4315
 6873TIP3    H142254   2.319   1.202   3.457 -1.2316 -0.6355  0.5182
 6873TIP3    H242255   2.353   1.294   3.342  1.2911 -2.6954 -0.4984
 6874TIP3   OH242256   1.309   0.664   3.002  0.1765  0.1515 -0.0987
 6874TIP3    H142257   1.250   0.651   3.076 -1.8078  1.8563 -1.2739
 6874TIP3    H242258   1.367   0.735   3.029 -1.4781  1.7693 -0.6227
 6875TIP3   OH242259   5.290   4.695   8.512 -0.2175 -0.1390 -0.5372
 6875TIP3    H142260   5.386   4.696   8.521  0.0636 -0.2589 -2.9497
 6875TIP3    H242261   5.261   4.775   8.555  0.8070 -0.7061  1.3381
 6876TIP3   OH242262   4.392   1.387   0.608  0.4144  0.8104 -0.3429
 6876TIP3    H142263   4.478   1.419   0.635  0.7762  0.1493 -0.6931
 6876TIP3    H242264   4.392   1.394   0.513 -0.3783  1.9157 -0.2945
 6877TIP3   OH242265   3.099   4.117   2.422  0.2463 -0.5739  0.2377
 6877TIP3    H142266   3.065   4.093   2.508  1.8321 -2.5976  0.3825
 6877TIP3    H242267   3.068   4.047   2.364  2.6698 -1.5910  0.0612
 6878TIP3   OH242268   6.882   2.903   3.675 -0.6464  0.0004  1.2279
 6878TIP3    H142269   6.870   2.861   3.590  2.5070 -0.1288  0.7244
 6878TIP3    H242270   6.877   2.997   3.655  0.2118 -0.0247  0.8240
 6879TIP3   OH242271   0.759   3.048   1.268  0.0912  0.3592  0.2494
 6879TIP3    H142272   0.680   3.081   1.224 -0.0811  0.7906  0.8705
 6879TIP3    H242273   0.746   2.954   1.274 -2.0088  0.6801  3.4000
 6880TIP3   OH242274   5.157   4.205   8.592  0.4653  0.6931 -0.2606
 6880TIP3    H142275   5.124   4.117   8.574  2.1626  0.1111 -0.7604
 6880TIP3    H242276   5.154   4.213   8.687 -0.8436  0.5862 -0.2786
 6881TIP3   OH242277   4.193   3.457   3.369 -0.4926 -0.0557 -0.0275
 6881TIP3    H142278   4.247   3.500   3.304 -0.1379  0.2851  0.4889
 6881TIP3    H242279   4.141   3.394   3.319  0.5320 -0.5428 -0.4975
 6882TIP3   OH242280   5.725   6.019   1.747 -0.2902 -0.0639  0.0841
 6882TIP3    H142281   5.642   5.977   1.722  0.3326 -0.8033 -0.8139
 6882TIP3    H242282   5.745   6.078   1.675  1.1246 -1.6297 -0.8962
 6883TIP3   OH242283   6.717   6.748   2.027  0.9488  0.0800  0.4825
 6883TIP3    H142284   6.767   6.696   1.965 -0.2013  1.3363 -1.6213
 6883TIP3    H242285   6.627   6.717   2.016 -0.1065  3.4821 -2.1622
 6884TIP3   OH242286   6.014   2.190   4.001 -0.3001 -0.0909 -0.5646
 6884TIP3    H142287   6.058   2.111   3.970 -0.9292 -0.1418 -1.3697
 6884TIP3    H242288   5.935   2.196   3.948  0.3160  1.7319 -1.3660
 6885TIP3   OH242289   3.862   5.961   2.115  0.1152 -0.3313 -0.1277
 6885TIP3    H142290   3.800   6.033   2.126  0.9879  0.4243 -0.0887
 6885TIP3    H242291   3.847   5.904   2.190 -0.5504 -0.1731 -0.1367
 6886TIP3   OH242292   1.849   4.809   0.716 -0.8027 -0.1423  0.5163
 6886TIP3    H142293   1.853   4.717   0.690  0.3139  0.0157  0.0605
 6886TIP3    H242294   1.904   4.854   0.653  0.7325  0.4819  2.1923
 6887TIP3   OH242295   0.621   0.159   8.039  0.5437  0.5029 -0.2985
 6887TIP3    H142296   0.572   0.087   7.999  0.1593 -0.1464  1.2564
 6887TIP3    H242297   0.570   0.237   8.019 -0.3342  0.0241  0.0148
 6888TIP3   OH242298   4.622   5.497   1.795  0.3489  0.2420  0.6357
 6888TIP3    H142299   4.535   5.538   1.797  1.4335  2.7557  1.0534
 6888TIP3    H242300   4.618   5.437   1.721 -1.4046  1.1264 -0.0615
 6889TIP3   OH242301   6.277   2.758   2.451  0.1792 -0.3283 -0.5074
 6889TIP3    H142302   6.318   2.746   2.366 -2.1940 -0.6535 -1.6976
 6889TIP3    H242303   6.286   2.673   2.495  0.3079 -0.5390 -0.9422
 6890TIP3   OH242304   4.250   5.899   1.701  0.4187 -0.6185 -0.1651
 6890TIP3    H142305   4.210   5.858   1.624 -0.4299  0.6117 -0.4072
 6890TIP3    H242306   4.179   5.903   1.765  0.9078 -0.8984  0.4021
 6891TIP3   OH242307   2.196   0.524   1.002  0.1342  0.0995 -0.0474
 6891TIP3    H142308   2.197   0.619   0.987 -1.7651  0.3191  0.8794
 6891TIP3    H242309   2.246   0.512   1.082 -0.8180  0.5350  0.6419
 6892TIP3   OH242310   4.099   1.903   3.040  0.7179  0.5243  0.6490
 6892TIP3    H142311   4.034   1.855   3.090 -1.4673  1.7189 -0.8765
 6892TIP3    H242312   4.121   1.978   3.096  1.6302 -0.4144  1.6044
 6893TIP3   OH242313   1.637   4.945   3.017 -0.2473 -0.3010 -0.4149
 6893TIP3    H142314   1.584   4.982   2.947  0.6265 -1.0591 -1.5219
 6893TIP3    H242315   1.592   4.863   3.039 -1.5908  0.8118  1.3018
 6894TIP3   OH242316   2.937   2.455   0.443 -0.0979 -0.3257 -0.0816
 6894TIP3    H142317   2.922   2.489   0.355 -0.2796 -0.4034 -0.0814
 6894TIP3    H242318   2.951   2.533   0.497  0.3594 -0.2921 -0.2410
 6895TIP3   OH242319   3.948   6.658   2.430  0.5597  0.6492 -0.1955
 6895TIP3    H142320   3.919   6.710   2.505 -0.9817  1.0292 -1.0086
 6895TIP3    H242321   3.932   6.567   2.457  3.1430  0.5310  1.1783
 6896TIP3   OH242322   5.289   5.790   3.908 -0.4058 -0.0793 -0.1667
 6896TIP3    H142323   5.333   5.709   3.883 -0.5108 -0.9562  2.2616
 6896TIP3    H242324   5.351   5.834   3.966 -0.3776  1.6062 -1.3934
 6897TIP3   OH242325   5.506   6.223   1.657 -0.2254 -0.6608  0.2594
 6897TIP3    H142326   5.444   6.291   1.630  1.0432 -0.1252 -1.4972
 6897TIP3    H242327   5.524   6.243   1.749 -1.5636  0.0122  0.4036
 6898TIP3   OH242328   1.437   4.694   3.082 -0.8317  0.7446 -0.6901
 6898TIP3    H142329   1.503   4.651   3.137 -1.5095  0.4161 -0.1197
 6898TIP3    H242330   1.444   4.649   2.997 -1.3173 -0.3123 -0.1939
 6899TIP3   OH242331   5.824   3.338   3.453  0.0268  0.2806  0.1851
 6899TIP3    H142332   5.845   3.253   3.415 -1.8129 -1.7363  3.2176
 6899TIP3    H242333   5.888   3.350   3.523  0.0652  1.2856 -0.0045
 6900TIP3   OH242334   4.450   2.340   2.175 -0.0133 -1.1882  0.6041
 6900TIP3    H142335   4.399   2.413   2.140  1.5986 -0.5739 -0.6475
 6900TIP3    H242336   4.422   2.264   2.123  1.4459 -0.5288 -1.2756
 6901TIP3   OH242337   5.326   5.294   0.090 -0.8770  0.0869 -0.2960
 6901TIP3    H142338   5.250   5.253   0.048 -1.4872  1.2652 -0.3907
 6901TIP3    H242339   5.288   5.354   0.155  0.0058 -0.1383  0.4499
 6902TIP3   OH242340   1.568   0.724   1.816  0.8432  1.4038  0.0039
 6902TIP3    H142341   1.479   0.691   1.801 -0.0778  4.0105 -0.8182
 6902TIP3    H242342   1.623   0.672   1.758  0.3302 -1.8347  2.1476
 6903TIP3   OH242343   6.712   1.773   1.736 -0.2727  0.7175 -0.4520
 6903TIP3    H142344   6.699   1.867   1.744  2.1950  1.0852 -0.0842
 6903TIP3    H242345   6.789   1.764   1.680 -0.2311 -1.0626 -0.1594
 6904TIP3   OH242346   2.674   3.652   0.087  0.0500  0.4241 -0.2052
 6904TIP3    H142347   2.742   3.587   0.066 -0.2780  0.1617 -0.4630
 6904TIP3    H242348   2.603   3.632   0.026 -0.3602  0.5425  0.2343
 6905TIP3   OH242349   3.332   6.828   3.300  0.0358  0.1041  0.8440
 6905TIP3    H142350   3.331   6.921   3.278 -1.4233  0.1952  1.1880
 6905TIP3    H242351   3.250   6.794   3.263  1.1873 -1.3521 -0.5163
 6906TIP3   OH242352   4.931   2.517   0.859 -0.0684 -0.1150 -0.0095
 6906TIP3    H142353   4.953   2.569   0.936 -1.1536  1.1585 -0.5100
 6906TIP3    H242354   4.957   2.573   0.785  2.7149 -2.0337 -0.6775
 6907TIP3   OH242355   4.827   2.402   0.509 -0.1532 -0.7844  0.1168
 6907TIP3    H142356   4.851   2.492   0.531  1.5283 -1.2582  0.3253
 6907TIP3    H242357   4.800   2.364   0.592 -0.7652 -0.5175  0.0470
 6908TIP3   OH242358   2.677   5.060   2.803 -0.2638 -0.1534 -0.3527
 6908TIP3    H142359   2.633   5.051   2.887  0.3422  1.1666  0.1391
 6908TIP3    H242360   2.616   5.024   2.739 -0.9100 -0.7865  0.6029
 6909TIP3   OH242361   4.889   4.335   0.190 -0.0192 -0.0683  0.4317
 6909TIP3    H142362   4.861   4.344   0.099  0.8700  1.1134  0.2438
 6909TIP3    H242363   4.816   4.292   0.234 -0.0154 -1.6377 -1.0432
 6910TIP3   OH242364   0.706   2.872   2.645  0.1365  0.6294  0.3083
 6910TIP3    H142365   0.670   2.791   2.682  1.7953  0.4344  1.5927
 6910TIP3    H242366   0.783   2.843   2.595  0.2386  1.3319  0.0576
 6911TIP3   OH242367   3.791   6.729   1.235 -0.2355 -0.2398  0.4108
 6911TIP3    H142368   3.709   6.736   1.286  0.2868  0.8673  1.1564
 6911TIP3    H242369   3.763   6.702   1.148 -1.6243  1.7558  0.1532
 6912TIP3   OH242370   4.347   5.573   2.693 -0.1237  0.1652  0.0492
 6912TIP3    H142371   4.321   5.592   2.783  0.2940  1.2651 -0.0467
 6912TIP3    H242372   4.272   5.601   2.640  0.8800  2.6376 -0.1707
 6913TIP3   OH242373   5.631   1.451   0.089 -0.4888 -0.4434  0.4596
 6913TIP3    H142374   5.540   1.454   0.119 -0.8143 -0.8125 -0.4683
 6913TIP3    H242375   5.648   1.359   0.074 -0.4087 -0.2626 -0.6701
 6914TIP3   OH242376   0.627   0.255   0.683 -0.1073  0.2530 -0.0715
 6914TIP3    H142377   0.650   0.278   0.774  2.2340  2.7894 -1.1486
 6914TIP3    H242378   0.536   0.284   0.674  0.0230  1.1512  1.1294
 6915TIP3   OH242379   5.637   1.149   3.158 -0.0740  0.5650  0.4397
 6915TIP3    H142380   5.703   1.080   3.142 -0.9065  0.2622 -2.0823
 6915TIP3    H242381   5.629   1.152   3.253  2.2584 -0.6500  0.7539
 6916TIP3   OH242382   0.507   0.237   2.807 -0.8159 -0.1023  0.3401
 6916TIP3    H142383   0.492   0.249   2.713  1.6887  0.0015 -0.1013
 6916TIP3    H242384   0.534   0.323   2.838  0.8147 -0.6923  0.6176
 6917TIP3   OH242385   2.236   4.671   3.337  0.0679 -0.2976 -0.0832
 6917TIP3    H142386   2.283   4.588   3.325  1.1985  0.2332  0.4954
 6917TIP3    H242387   2.305   4.735   3.350 -0.8377  0.5458  0.6768
 6918TIP3   OH242388   4.577   3.691   3.866 -0.5360  0.0375  0.4863
 6918TIP3    H142389   4.609   3.772   3.827 -0.4833  0.2938  1.0551
 6918TIP3    H242390   4.655   3.649   3.901 -0.8777  1.1718  2.8245
 6919TIP3   OH242391   6.070   6.210   3.109  0.0477 -0.3700  0.0839
 6919TIP3    H142392   5.977   6.215   3.087  0.1084 -3.0444 -1.2237
 6919TIP3    H242393   6.072   6.204   3.204 -1.0300  0.6600  0.1959
 6920TIP3   OH242394   1.352   6.532   2.145  0.2251 -0.0125 -0.1211
 6920TIP3    H142395   1.392   6.477   2.078  0.8378 -0.2395  0.4106
 6920TIP3    H242396   1.274   6.483   2.173  0.5977 -0.4670  0.1325
 6921TIP3   OH242397   6.285   0.879   8.163 -0.1386 -0.4221  0.6720
 6921TIP3    H142398   6.320   0.791   8.148  0.7288  0.0852 -0.5145
 6921TIP3    H242399   6.209   0.884   8.104  0.4341 -0.0346 -0.0439
 6922TIP3   OH242400   1.822   4.084   0.363  0.5364  0.3440 -0.1980
 6922TIP3    H142401   1.762   4.020   0.402  2.3716 -1.0082  0.5538
 6922TIP3    H242402   1.789   4.169   0.392  0.4263 -0.4888  2.3709
 6923TIP3   OH242403   0.558   4.826   8.685 -0.1389  0.0067 -0.2620
 6923TIP3    H142404   0.529   4.876   8.608 -1.9810 -0.6404 -0.0384
 6923TIP3    H242405   0.646   4.797   8.662  0.5258  2.3013 -0.8893
 6924TIP3   OH242406   2.467   0.941   0.859 -0.5250  0.4817 -0.1912
 6924TIP3    H142407   2.462   1.033   0.833  1.6569  0.5357 -0.6344
 6924TIP3    H242408   2.526   0.941   0.935  1.1981 -0.7293 -1.4603
 6925TIP3   OH242409   6.037   5.183   8.671 -0.2617  0.5463 -0.1409
 6925TIP3    H142410   5.982   5.262   8.674  1.6093  1.9151  0.4474
 6925TIP3    H242411   6.047   5.164   8.578 -1.0191  0.7858 -0.2796
 6926TIP3   OH242412   1.588   2.688   3.847  0.1526 -0.5078 -0.3632
 6926TIP3    H142413   1.501   2.723   3.828  0.1125 -1.3283 -1.7813
 6926TIP3    H242414   1.609   2.722   3.934 -1.4984 -0.1514 -0.0829
 6927TIP3   OH242415   6.289   2.140   1.458  0.3488 -0.0990  0.0603
 6927TIP3    H142416   6.336   2.108   1.535 -0.1480 -1.1521 -0.0636
 6927TIP3    H242417   6.358   2.166   1.397  0.7741 -1.1711  0.0667
 6928TIP3   OH242418   6.486   0.648   8.198  0.2776  0.0653  0.0067
 6928TIP3    H142419   6.520   0.617   8.114  1.5413  1.8815 -0.2208
 6928TIP3    H242420   6.411   0.592   8.217  0.9696 -1.4436 -1.5212
 6929TIP3   OH242421   4.232   6.108   1.315  0.1548 -0.1946 -0.0189
 6929TIP3    H142422   4.182   6.129   1.236 -0.2812 -0.0122  0.3061
 6929TIP3    H242423   4.272   6.023   1.296  1.3214  0.5553 -1.0539
 6930TIP3   OH242424   4.145   5.228   8.092  1.1991 -0.3051 -0.3867
 6930TIP3    H142425   4.058   5.267   8.091  0.3069 -2.0809  1.2162
 6930TIP3    H242426   4.199   5.292   8.139 -0.4016 -1.0921  2.8584
 6931TIP3   OH242427   1.982   6.354   8.605  0.0057  0.4252 -0.1079
 6931TIP3    H142428   2.067   6.322   8.577 -0.0668 -0.3448  0.5215
 6931TIP3    H242429   1.927   6.347   8.527 -0.1268 -1.4504  0.0950
 6932TIP3   OH242430   2.649   4.023   1.688  0.3817  0.3676  0.1335
 6932TIP3    H142431   2.631   3.987   1.602 -0.6363  1.1951 -0.0177
 6932TIP3    H242432   2.625   3.953   1.749  0.9565 -0.1610 -0.2372
 6933TIP3   OH242433   5.768   6.796   3.889 -0.4113  0.0208 -0.6317
 6933TIP3    H142434   5.824   6.736   3.838 -0.3969  0.9743 -1.7873
 6933TIP3    H242435   5.775   6.880   3.843  0.5610  1.2751  1.6722
 6934TIP3   OH242436   3.310   6.091   1.260  0.0512 -0.3848  0.1328
 6934TIP3    H142437   3.367   6.155   1.303  0.3638 -0.9578  0.5846
 6934TIP3    H242438   3.221   6.119   1.285  0.1370  0.4039 -0.4298
 6935TIP3   OH242439   4.666   5.247   3.294  0.4763  0.0267  0.2541
 6935TIP3    H142440   4.704   5.305   3.361  0.4224  0.6468 -0.2397
 6935TIP3    H242441   4.696   5.285   3.211  1.9031 -1.6754 -0.0617
 6936TIP3   OH242442   2.839   5.985   3.118  0.2095  0.2601  0.0472
 6936TIP3    H142443   2.909   6.050   3.121  2.0382 -1.6555  1.4409
 6936TIP3    H242444   2.809   5.978   3.208 -1.9136  1.0833 -0.5247
 6937TIP3   OH242445   6.422   5.307   1.239  0.3483  0.6635  0.7268
 6937TIP3    H142446   6.509   5.269   1.222 -0.4006 -0.2405 -1.4204
 6937TIP3    H242447   6.439   5.401   1.248  1.5669  0.4984  0.3918
 6938TIP3   OH242448   2.956   4.463   1.567  1.0592  0.0078  0.3331
 6938TIP3    H142449   2.903   4.393   1.605  1.9866 -0.7168  0.3235
 6938TIP3    H242450   2.894   4.515   1.516 -0.0007  0.2828  1.8082
 6939TIP3   OH242451   1.918   5.220   1.067 -0.1761  0.1930 -0.4010
 6939TIP3    H142452   1.948   5.151   1.008 -1.5805 -0.6133 -0.2083
 6939TIP3    H242453   1.855   5.270   1.015 -0.4069  0.3079 -0.0109
 6940TIP3   OH242454   1.501   0.063   3.176  0.7191  0.3707 -0.1054
 6940TIP3    H142455   1.461   0.139   3.132  0.5894  0.2763 -0.1504
 6940TIP3    H242456   1.428   0.022   3.223  0.9585  0.7790  0.6406
 6941TIP3   OH242457   6.504   6.406   2.823  0.3053  0.4185 -0.0333
 6941TIP3    H142458   6.530   6.497   2.810 -0.1984  0.3722 -1.5539
 6941TIP3    H242459   6.432   6.410   2.886  0.1986  1.0888 -0.1984
 6942TIP3   OH242460   2.458   0.519   1.883 -0.5317 -0.2004  0.0949
 6942TIP3    H142461   2.484   0.529   1.975  2.1264 -0.1716 -0.6014
 6942TIP3    H242462   2.485   0.601   1.842 -2.2035  0.0209 -0.6756
 6943TIP3   OH242463   6.520   2.761   3.730  0.4440 -0.0113  0.0479
 6943TIP3    H142464   6.444   2.815   3.751  0.9566  0.5212  0.5870
 6943TIP3    H242465   6.569   2.756   3.813  0.3182 -1.4582  0.0556
 6944TIP3   OH242466   1.222   0.820   2.762 -0.2115 -0.3255 -0.1907
 6944TIP3    H142467   1.240   0.849   2.673 -0.9121  1.0918  0.0871
 6944TIP3    H242468   1.307   0.795   2.797  0.2278  0.1076 -0.9319
 6945TIP3   OH242469   1.860   4.579   2.548  0.0733 -0.1709 -0.4920
 6945TIP3    H142470   1.811   4.524   2.487 -0.4124  0.5099 -0.7229
 6945TIP3    H242471   1.837   4.544   2.635  1.1455 -1.4504 -0.6895
 6946TIP3   OH242472   4.449   3.325   0.986 -0.0763  0.2772  1.0326
 6946TIP3    H142473   4.444   3.335   1.081 -1.6131  1.7369  0.8488
 6946TIP3    H242474   4.367   3.363   0.954  1.9503  3.3523 -1.1110
 6947TIP3   OH242475   5.724   3.208   1.850 -0.4270 -0.0534 -0.6126
 6947TIP3    H142476   5.679   3.160   1.920 -0.4468  0.8082 -0.0190
 6947TIP3    H242477   5.761   3.139   1.794  1.9216 -0.8491  1.6926
 6948TIP3   OH242478   6.668   6.768   0.660 -0.4071  0.1994  0.0439
 6948TIP3    H142479   6.597   6.754   0.723  0.0047  0.4039  0.5680
 6948TIP3    H242480   6.637   6.728   0.579 -0.9512 -0.0656  0.3759
 6949TIP3   OH242481   0.790   0.914   2.264 -0.0818  0.0810  0.2582
 6949TIP3    H142482   0.858   0.881   2.323 -0.6551 -0.9935  0.3484
 6949TIP3    H242483   0.784   1.007   2.285  0.6278 -0.0172  0.9789
 6950TIP3   OH242484   3.416   3.027   2.512  0.2135  0.3668 -0.3559
 6950TIP3    H142485   3.415   3.030   2.416  1.1426  1.8862 -0.3438
 6950TIP3    H242486   3.364   3.103   2.539  0.5271  0.3344  0.3490
 6951TIP3   OH242487   3.718   3.497   3.131 -0.0319  0.8730 -0.7989
 6951TIP3    H142488   3.633   3.489   3.089 -0.6250  1.2532  0.2909
 6951TIP3    H242489   3.699   3.490   3.225  0.8676  2.8459 -0.4144
 6952TIP3   OH242490   1.802   1.366   0.411 -0.2934 -0.2411  0.2507
 6952TIP3    H142491   1.860   1.427   0.456 -0.4272 -0.3898  0.6287
 6952TIP3    H242492   1.861   1.312   0.358 -0.2587  0.8357 -0.8353
 6953TIP3   OH242493   0.513   5.807   1.383 -0.0499 -0.0936  0.0708
 6953TIP3    H142494   0.600   5.824   1.345 -0.0931 -0.1871 -0.0668
 6953TIP3    H242495   0.483   5.727   1.341 -1.9048  1.9235 -2.8423
 6954TIP3   OH242496   0.170   3.703   0.543 -1.0074  0.1880 -0.4498
 6954TIP3    H142497   0.148   3.728   0.633 -0.2584  0.0832 -0.2304
 6954TIP3    H242498   0.254   3.657   0.551  0.1886  2.0756 -1.4533
 6955TIP3   OH242499   0.361   0.699   3.865 -0.5117  0.7262  0.7798
 6955TIP3    H142500   0.384   0.755   3.939 -0.0156  1.3328  0.1738
 6955TIP3    H242501   0.279   0.734   3.832 -0.7276  0.4621  1.0308
 6956TIP3   OH242502   2.693   6.200   0.772 -0.0177 -0.2579 -0.6437
 6956TIP3    H142503   2.607   6.208   0.732  0.8986  0.3947 -2.6574
 6956TIP3    H242504   2.740   6.279   0.743  1.3667 -0.7686  0.1060
 6957TIP3   OH242505   1.782   3.029   8.622 -0.3206 -0.2475 -0.4467
 6957TIP3    H142506   1.713   2.975   8.584 -0.4824  0.2386 -0.8598
 6957TIP3    H242507   1.853   3.025   8.559 -0.2183 -0.2297 -0.3313
 6958TIP3   OH242508   5.053   3.602   8.332 -0.4745  0.3821 -0.2504
 6958TIP3    H142509   5.121   3.668   8.318 -2.5018  2.6861  0.1993
 6958TIP3    H242510   5.036   3.603   8.426  0.9730 -2.5001  0.1659
 6959TIP3   OH242511   1.719   1.065   3.339 -0.9485  0.1566 -0.1345
 6959TIP3    H142512   1.805   1.023   3.346 -1.2581 -0.2152  2.4680
 6959TIP3    H242513   1.657   0.993   3.328 -1.1586  0.1609  0.8952
 6960TIP3   OH242514   5.042   2.926   4.247  0.0117  0.7267  0.1983
 6960TIP3    H142515   5.049   3.021   4.234  1.6334  0.2303 -3.8262
 6960TIP3    H242516   5.124   2.902   4.290 -0.3971  1.0895  1.2201
 6961TIP3   OH242517   1.270   0.512   8.099  0.3210 -0.4621 -0.4604
 6961TIP3    H142518   1.211   0.448   8.138 -2.0162  1.0618 -1.2414
 6961TIP3    H242519   1.334   0.460   8.051 -1.5881 -2.2519 -1.2308
 6962TIP3   OH242520   2.196   2.839   3.235  0.8160  0.1005  0.7638
 6962TIP3    H142521   2.215   2.802   3.321  2.5342 -1.7242 -0.3222
 6962TIP3    H242522   2.223   2.931   3.241  2.1268 -0.3232  1.8093
 6963TIP3   OH242523   0.449   5.357   2.488 -0.0795 -0.6573  0.1082
 6963TIP3    H142524   0.529   5.311   2.464  0.1873 -1.3499  2.1206
 6963TIP3    H242525   0.416   5.310   2.565  0.3961  2.5872  2.5170
 6964TIP3   OH242526   4.498   1.059   2.485 -0.2808  0.0455 -0.0361
 6964TIP3    H142527   4.477   0.974   2.447 -1.2887  1.2169 -2.3528
 6964TIP3    H242528   4.451   1.122   2.429  1.2432  2.1792  0.9498
 6965TIP3   OH242529   1.497   6.150   1.392  0.3395  0.7994  0.1515
 6965TIP3    H142530   1.428   6.111   1.339  2.8943 -0.0718 -2.8774
 6965TIP3    H242531   1.498   6.243   1.366  1.9290  0.2772 -2.0347
 6966TIP3   OH242532   5.361   3.586   2.471 -0.2928  0.1563  0.0214
 6966TIP3    H142533   5.325   3.647   2.407 -0.7788 -0.7494 -0.6021
 6966TIP3    H242534   5.371   3.504   2.422  0.1852 -0.3069  0.8772
 6967TIP3   OH242535   1.138   1.952   1.805  0.6641  0.7024  0.3028
 6967TIP3    H142536   1.136   1.901   1.886 -1.1127 -0.3396 -0.3433
 6967TIP3    H242537   1.227   1.989   1.802  0.1353  2.6704  3.8254
 6968TIP3   OH242538   2.115   2.174   3.600  0.1455 -0.2698  0.0566
 6968TIP3    H142539   2.187   2.188   3.661 -0.5248 -0.3942  0.8999
 6968TIP3    H242540   2.084   2.262   3.578 -0.6458 -0.2472  1.1807
 6969TIP3   OH242541   1.252   4.990   0.238  0.0353  0.1805  0.3521
 6969TIP3    H142542   1.302   5.032   0.308 -0.0310 -0.5464  0.8417
 6969TIP3    H242543   1.198   4.925   0.282  0.9789 -1.2405 -0.4935
 6970TIP3   OH242544   1.650   1.739   1.422  0.0504  0.3630  0.0067
 6970TIP3    H142545   1.640   1.702   1.510 -1.1097  1.1238  0.2197
 6970TIP3    H242546   1.592   1.688   1.367  2.6995 -1.8571 -0.9354
 6971TIP3   OH242547   1.073   4.474   1.483 -0.6063  0.0182  0.5063
 6971TIP3    H142548   1.014   4.458   1.409  1.3100 -0.0943 -1.0888
 6971TIP3    H242549   1.121   4.553   1.458  0.5334 -0.3970  1.3187
 6972TIP3   OH242550   4.656   0.213   2.084 -0.2409  0.0640 -0.2182
 6972TIP3    H142551   4.571   0.241   2.052 -0.4385 -0.4644 -0.1644
 6972TIP3    H242552   4.719   0.262   2.030 -0.5477 -1.6498 -2.2842
 6973TIP3   OH242553   5.730   3.427   1.681  0.2071 -0.0523 -0.0781
 6973TIP3    H142554   5.813   3.380   1.674  1.1766  1.2516  1.7207
 6973TIP3    H242555   5.672   3.367   1.729 -0.0612 -1.1094 -1.6520
 6974TIP3   OH242556   4.354   4.262   8.525 -0.1299  0.2084  0.0038
 6974TIP3    H142557   4.348   4.354   8.500 -0.2527  0.4059  0.7547
 6974TIP3    H242558   4.307   4.216   8.455  0.6441  0.6267 -0.8207
 6975TIP3   OH242559   3.969   6.310   2.403 -0.3287  0.2167 -0.0510
 6975TIP3    H142560   4.011   6.227   2.424  1.1382  0.8803 -0.2185
 6975TIP3    H242561   4.030   6.377   2.434 -0.7294  1.2247 -1.3094
 6976TIP3   OH242562   3.850   2.155   1.370 -0.4032  0.2511  0.4727
 6976TIP3    H142563   3.888   2.115   1.292 -0.6679  0.5323  0.1941
 6976TIP3    H242564   3.843   2.084   1.434 -0.4749 -0.0488  0.1315
 6977TIP3   OH242565   2.415   0.400   8.070  0.1362  0.2715 -0.0278
 6977TIP3    H142566   2.486   0.424   8.130  0.1550 -0.5827  0.2943
 6977TIP3    H242567   2.401   0.307   8.084 -0.5151  0.2609 -0.6674
 6978TIP3   OH242568   0.006   0.409   1.789  0.1867 -0.2801 -0.5186
 6978TIP3    H142569   0.027   0.498   1.818  0.5558  0.1677 -2.0736
 6978TIP3    H242570   0.052   0.352   1.851 -0.5917  0.5713  0.8940
 6979TIP3   OH242571   0.822   2.139   2.904  0.8289 -0.5389 -0.2214
 6979TIP3    H142572   0.870   2.190   2.839  1.8520 -0.5674  0.4970
 6979TIP3    H242573   0.814   2.052   2.864  0.9536 -0.4048 -0.5442
 6980TIP3   OH242574   5.242   1.013   3.642  0.6310 -0.5032  0.1431
 6980TIP3    H142575   5.199   1.084   3.690  1.8612 -0.2873  0.9792
 6980TIP3    H242576   5.335   1.035   3.647  0.8129 -0.3055 -2.6516
 6981TIP3   OH242577   3.712   0.777   8.722 -0.2347  0.0363  0.1022
 6981TIP3    H142578   3.755   0.696   8.748  1.3982  0.8515  0.0714
 6981TIP3    H242579   3.776   0.846   8.742 -1.2476  1.2354 -0.6282
 6982TIP3   OH242580   0.789   1.132   1.571  0.7653 -0.6794  0.2737
 6982TIP3    H142581   0.840   1.208   1.598  1.1495 -0.9244  0.2439
 6982TIP3    H242582   0.699   1.152   1.597  0.3729  0.9329 -2.0489
 6983TIP3   OH242583   0.177   4.231   2.627  0.3868  0.2501 -0.3446
 6983TIP3    H142584   0.259   4.183   2.622 -0.5865 -1.7774  1.4695
 6983TIP3    H242585   0.115   4.180   2.575 -0.1269  0.7988 -0.2952
 6984TIP3   OH242586   2.274   3.657   1.030 -0.3144 -0.3343 -0.0571
 6984TIP3    H142587   2.364   3.670   1.061 -0.3945  0.2151 -0.0402
 6984TIP3    H242588   2.221   3.713   1.087 -0.3173  1.8058 -2.0118
 6985TIP3   OH242589   2.908   4.703   1.751  0.2909 -0.0308 -0.4532
 6985TIP3    H142590   2.979   4.659   1.702  0.2373  1.3256 -1.8337
 6985TIP3    H242591   2.850   4.736   1.682 -0.1833  1.3230  0.5708
 6986TIP3   OH242592   3.990   5.513   3.130 -0.7251 -0.3534  0.0353
 6986TIP3    H142593   4.038   5.594   3.117 -1.3685 -0.1489 -1.2555
 6986TIP3    H242594   4.046   5.460   3.187  0.8623 -0.0072 -1.1582
 6987TIP3   OH242595   5.540   2.670   8.571 -0.1237  0.0746 -0.2492
 6987TIP3    H142596   5.586   2.713   8.499  0.9306  2.3283  1.6206
 6987TIP3    H242597   5.608   2.623   8.619 -0.4204  0.3606  0.4639
 6988TIP3   OH242598   3.612   4.408   3.960  0.7724  0.1820 -0.1172
 6988TIP3    H142599   3.629   4.475   4.026  1.0280  0.0307 -0.0302
 6988TIP3    H242600   3.524   4.376   3.979  0.5254  0.7104 -0.3466
 6989TIP3   OH242601   1.485   1.970   1.361  0.1153 -0.5281 -0.3119
 6989TIP3    H142602   1.547   2.031   1.320 -0.2431  0.9244  1.1759
 6989TIP3    H242603   1.540   1.905   1.403  0.5632 -0.3489 -0.6068
 6990TIP3   OH242604   6.649   5.369   2.541 -0.5542  0.1721 -0.0005
 6990TIP3    H142605   6.673   5.352   2.450 -1.3056  0.0208 -0.1760
 6990TIP3    H242606   6.704   5.444   2.566  3.5627 -2.8541  1.1181
 6991TIP3   OH242607   6.295   4.336   1.716  0.2774  0.6887 -0.0099
 6991TIP3    H142608   6.386   4.350   1.688  0.1722  1.8859  0.1904
 6991TIP3    H242609   6.272   4.416   1.762 -0.6342  0.0714  0.6359
 6992TIP3   OH242610   0.904   1.908   2.136  0.1224 -0.1534 -0.1154
 6992TIP3    H142611   0.993   1.932   2.109 -0.0343  1.0939  0.4421
 6992TIP3    H242612   0.880   1.974   2.201 -1.3870 -0.2069 -0.5972
 6993TIP3   OH242613   5.354   1.041   2.597  0.2017 -0.4751  0.2924
 6993TIP3    H142614   5.406   1.106   2.548 -0.3862 -0.1089  0.1444
 6993TIP3    H242615   5.325   0.979   2.531 -1.6256  0.6935 -0.0762
 6994TIP3   OH242616   0.831   3.300   1.322 -0.2571  0.3285  0.1660
 6994TIP3    H142617   0.775   3.254   1.260  1.2536 -1.2533 -0.1002
 6994TIP3    H242618   0.882   3.231   1.364  1.5847  1.6799  0.2911
 6995TIP3   OH242619   2.300   5.234   2.903 -0.5293  0.2558  0.2621
 6995TIP3    H142620   2.336   5.149   2.929  2.8698  0.7711 -2.1116
 6995TIP3    H242621   2.356   5.298   2.946 -0.4740  1.2079 -1.1752
 6996TIP3   OH242622   4.595   0.501   2.755  0.3136 -0.1235 -0.5804
 6996TIP3    H142623   4.613   0.447   2.677  0.3781  1.2313 -1.5384
 6996TIP3    H242624   4.637   0.584   2.736 -1.4996  0.9695 -0.0495
 6997TIP3   OH242625   4.589   6.030   8.261 -0.1916 -0.0590 -0.1755
 6997TIP3    H142626   4.561   6.052   8.172  0.3248 -0.6882 -0.4991
 6997TIP3    H242627   4.507   6.014   8.308 -0.4201 -1.4469 -0.9980
 6998TIP3   OH242628   0.181   4.029   8.085  0.1291 -0.1869 -0.6803
 6998TIP3    H142629   0.246   4.058   8.020  0.0076 -1.9138 -1.6429
 6998TIP3    H242630   0.146   3.948   8.048 -0.7765 -0.6118  1.0345
 6999TIP3   OH242631   0.869   4.464   0.450 -0.1747  0.3727 -0.0875
 6999TIP3    H142632   0.950   4.456   0.400 -0.1611  2.1428 -0.4148
 6999TIP3    H242633   0.891   4.522   0.522 -0.8169 -0.2261  0.6103
 7000TIP3   OH242634   1.201   1.314   8.303 -0.0881 -0.2450  0.2431
 7000TIP3    H142635   1.135   1.263   8.350 -0.7583  0.3232 -0.0656
 7000TIP3    H242636   1.221   1.387   8.361  0.2132 -0.3815  0.3070
 7001TIP3   OH242637   2.223   4.130   1.622 -0.3204 -0.7558  0.2566
 7001TIP3    H142638   2.283   4.061   1.649 -1.5788 -1.2621  1.9930
 7001TIP3    H242639   2.248   4.206   1.674 -0.2102 -0.5166 -0.1470
 7002TIP3   OH242640   4.776   4.172   4.097  0.1690 -0.4505 -0.1933
 7002TIP3    H142641   4.765   4.148   4.005  0.2314  2.7406 -1.1561
 7002TIP3    H242642   4.712   4.242   4.112  1.8010  0.8282  1.4161
 7003TIP3   OH242643   3.250   4.081   8.179 -0.4970  0.7872  0.0658
 7003TIP3    H142644   3.187   4.153   8.174 -1.2264  0.1656 -0.0441
 7003TIP3    H242645   3.226   4.024   8.106 -2.2911 -1.3818  2.1512
 7004TIP3   OH242646   3.436   2.801   1.410  0.0800  0.3433  0.1156
 7004TIP3    H142647   3.382   2.743   1.356 -0.4418  1.3793 -0.4992
 7004TIP3    H242648   3.402   2.889   1.393  0.8977  0.8468  0.9829
 7005TIP3   OH242649   1.295   5.031   0.504  0.0973 -0.3161  0.4689
 7005TIP3    H142650   1.214   5.049   0.552  0.1616 -0.3707  0.6001
 7005TIP3    H242651   1.297   4.935   0.495 -0.6297 -0.2222 -0.9054
 7006TIP3   OH242652   6.514   3.882   0.907  0.2696  0.0519  0.1495
 7006TIP3    H142653   6.609   3.876   0.914  0.4262 -0.9621 -1.9169
 7006TIP3    H242654   6.481   3.834   0.982  1.3392  1.2965  1.4828
 7007TIP3   OH242655   5.818   0.949   3.040 -0.1337  0.3898  0.1624
 7007TIP3    H142656   5.818   1.030   2.989 -0.3247  1.1473  1.3278
 7007TIP3    H242657   5.785   0.883   2.979  0.2918  1.1211 -0.8931
 7008TIP3   OH242658   0.494   4.232   8.093 -0.1504  0.6539 -0.0146
 7008TIP3    H142659   0.446   4.179   8.028 -0.4439  0.5127  0.3153
 7008TIP3    H242660   0.582   4.239   8.057 -1.2133  3.9675 -2.4909
 7009TIP3   OH242661   4.967   4.697   0.401 -0.3390  0.5403  0.4460
 7009TIP3    H142662   4.890   4.725   0.451  0.0177  1.1542  0.6720
 7009TIP3    H242663   4.992   4.614   0.440 -2.0180 -0.6518 -0.8879
 7010TIP3   OH242664   6.215   0.288   0.143 -0.7355  0.4134  0.5895
 7010TIP3    H142665   6.187   0.373   0.178  0.3064  0.9227  0.2501
 7010TIP3    H242666   6.216   0.301   0.048  2.2706  1.0348  0.5964
 7011TIP3   OH242667   5.713   4.942   8.530  0.0680 -0.4628  0.4660
 7011TIP3    H142668   5.752   5.028   8.512  1.5592 -0.9404  1.2936
 7011TIP3    H242669   5.786   4.888   8.560 -0.4813 -2.5342 -1.6005
 7012TIP3   OH242670   0.152   0.348   1.446  0.6013  0.2686 -0.1589
 7012TIP3    H142671   0.206   0.338   1.367  0.7853 -0.4501  0.0527
 7012TIP3    H242672   0.214   0.373   1.515  0.4973  0.5173 -0.1532
 7013TIP3   OH242673   2.117   6.002   3.047  0.0275  0.2009  0.1340
 7013TIP3    H142674   2.184   6.029   2.984  1.2078 -1.6840  0.4663
 7013TIP3    H242675   2.106   5.908   3.031 -1.8479  0.2743  0.7708
 7014TIP3   OH242676   4.787   3.849   2.287 -0.0557 -0.0447 -0.0521
 7014TIP3    H142677   4.736   3.795   2.348 -0.6496  0.3128 -0.2267
 7014TIP3    H242678   4.778   3.938   2.320  0.5267  0.0139 -0.0398
 7015TIP3   OH242679   5.258   1.559   3.763  0.8222  0.3856 -0.4386
 7015TIP3    H142680   5.165   1.542   3.757  0.7716  1.1013 -2.3503
 7015TIP3    H242681   5.266   1.627   3.831 -0.0681  0.5405 -0.4840
 7016TIP3   OH242682   5.173   3.324   8.273 -0.0224 -0.7469  0.0524
 7016TIP3    H142683   5.156   3.412   8.308  1.3758  0.1730 -1.4042
 7016TIP3    H242684   5.112   3.315   8.200  0.3913 -0.6344 -0.3124
 7017TIP3   OH242685   5.862   2.330   2.736  0.2014 -0.5116  1.0097
 7017TIP3    H142686   5.905   2.289   2.812 -2.4468 -2.8069  1.4757
 7017TIP3    H242687   5.772   2.295   2.739 -1.1739  2.4872 -0.9105
 7018TIP3   OH242688   0.429   4.390   2.068 -0.1006 -0.2934 -0.5313
 7018TIP3    H142689   0.457   4.376   2.159  1.0736  0.8711 -0.6854
 7018TIP3    H242690   0.504   4.362   2.016 -0.4921 -0.2711 -1.1081
 7019TIP3   OH242691   1.720   6.754   0.937  0.0564 -0.5243 -0.1010
 7019TIP3    H142692   1.675   6.732   1.018  0.2203  4.1937  1.5868
 7019TIP3    H242693   1.811   6.728   0.952 -0.0081 -0.1155  1.0942
 7020TIP3   OH242694   1.230   5.067   2.521  0.2428 -0.0178 -0.0131
 7020TIP3    H142695   1.292   5.089   2.591 -0.4220  1.0399  0.2698
 7020TIP3    H242696   1.179   4.994   2.556 -0.5822  0.9781  0.9478
 7021TIP3   OH242697   0.356   6.251   3.952 -0.8577 -0.0373  0.0190
 7021TIP3    H142698   0.420   6.317   3.981 -1.3375  1.2557 -1.7103
 7021TIP3    H242699   0.282   6.263   4.011 -0.9791  1.0814 -0.3286
 7022TIP3   OH242700   1.428   2.198   2.047  0.0613 -0.6017  0.2054
 7022TIP3    H142701   1.449   2.284   2.084 -0.0542 -0.9551  1.1235
 7022TIP3    H242702   1.405   2.216   1.956 -0.8749  0.4706  0.6320
 7023TIP3   OH242703   5.351   1.741   3.034  0.3670  0.0549  0.3661
 7023TIP3    H142704   5.356   1.750   2.939  1.1714 -0.3333  0.3629
 7023TIP3    H242705   5.325   1.828   3.065  0.2381  0.2199 -0.1959
 7024TIP3   OH242706   0.920   0.423   1.168  0.1962  0.0446  0.1423
 7024TIP3    H142707   0.923   0.474   1.249 -1.6701  0.3709  0.0646
 7024TIP3    H242708   0.938   0.334   1.196 -0.2307  0.1821  0.9027
 7025TIP3   OH242709   4.530   4.224   2.552  0.3004 -0.3159 -0.0246
 7025TIP3    H142710   4.464   4.266   2.497  0.0263 -0.0463  0.5044
 7025TIP3    H242711   4.609   4.276   2.539 -0.0343  0.3747  0.6222
 7026TIP3   OH242712   3.231   1.876   0.731 -0.2935  0.0106 -0.3372
 7026TIP3    H142713   3.198   1.909   0.815  2.0613 -0.9022  1.0350
 7026TIP3    H242714   3.190   1.933   0.666 -2.4636  0.5470  1.3688
 7027TIP3   OH242715   3.953   2.036   1.125  0.0751 -0.2458 -0.2571
 7027TIP3    H142716   3.964   2.014   1.033  3.2274 -1.5333  0.2923
 7027TIP3    H242717   3.931   1.954   1.168  2.3662 -0.4948  0.5608
 7028TIP3   OH242718   5.752   3.760   1.099  0.0757  0.2244 -0.3455
 7028TIP3    H142719   5.682   3.825   1.090 -0.5352 -0.1030  1.6534
 7028TIP3    H242720   5.803   3.791   1.174 -0.8898 -2.1277  1.3830
 7029TIP3   OH242721   5.804   3.108   0.176  0.7219  0.4566  0.4296
 7029TIP3    H142722   5.813   3.013   0.165 -0.9118  0.4126 -1.1936
 7029TIP3    H242723   5.717   3.119   0.215  0.5211  1.2851 -0.2080
 7030TIP3   OH242724   4.831   1.076   2.371 -0.4494 -0.0528  0.0673
 7030TIP3    H142725   4.881   1.034   2.442 -0.2267  2.4660  1.5348
 7030TIP3    H242726   4.889   1.072   2.295  1.1703  0.9683  1.1940
 7031TIP3   OH242727   3.506   3.909   0.950 -0.0999 -0.1454 -0.3083
 7031TIP3    H142728   3.543   3.821   0.951 -1.4077 -0.7190 -0.5884
 7031TIP3    H242729   3.515   3.939   1.041  1.7432  0.0652 -0.5271
 7032TIP3   OH242730   5.190   4.954   0.423  0.1058 -0.2045  0.3743
 7032TIP3    H142731   5.285   4.942   0.432 -0.0314 -0.6871  1.2391
 7032TIP3    H242732   5.166   4.899   0.349  0.3830 -0.6977  0.6480
 7033TIP3   OH242733   4.276   5.543   2.003  0.3930  0.1318 -0.4198
 7033TIP3    H142734   4.344   5.588   1.952 -0.0259  0.9480 -0.2754
 7033TIP3    H242735   4.209   5.610   2.017 -1.0083 -0.9741 -1.5864
 7034TIP3   OH242736   5.785   3.134   3.901  1.1232  0.3397  0.3345
 7034TIP3    H142737   5.822   3.218   3.930 -0.5863  1.2745 -0.0619
 7034TIP3    H242738   5.702   3.127   3.949  0.7436 -0.6063 -0.4407
 7035TIP3   OH242739   2.539   4.549   2.189  0.5258  0.2493 -0.2687
 7035TIP3    H142740   2.551   4.459   2.217  0.7797  0.5946  0.7727
 7035TIP3    H242741   2.544   4.545   2.093 -0.3906 -0.9599 -0.2893
 7036TIP3   OH242742   0.372   6.543   0.511  0.1731  0.0512  0.8098
 7036TIP3    H142743   0.293   6.491   0.527  0.5056 -0.1015  2.0842
 7036TIP3    H242744   0.362   6.574   0.421 -1.3964  0.1319  0.9701
 7037TIP3   OH242745   3.103   0.291   3.033 -0.4550 -0.5691  0.1031
 7037TIP3    H142746   3.187   0.335   3.017 -0.3016 -0.3978  1.3257
 7037TIP3    H242747   3.042   0.362   3.053 -0.4139 -0.8284  1.2060
 7038TIP3   OH242748   5.897   4.287   1.235  0.3896  0.0359 -0.6729
 7038TIP3    H142749   5.989   4.311   1.221  0.8121 -0.0854  1.6055
 7038TIP3    H242750   5.851   4.371   1.232  0.7490  0.2427 -0.5207
 7039TIP3   OH242751   3.326   4.846   1.701  0.1240 -0.0191  0.3576
 7039TIP3    H142752   3.279   4.929   1.702 -1.5026 -0.9087  0.1780
 7039TIP3    H242753   3.258   4.779   1.696  1.3597 -1.4037  1.0810
 7040TIP3   OH242754   2.788   4.000   0.649 -0.4387  0.1279  0.0638
 7040TIP3    H142755   2.734   3.980   0.573 -0.2874  0.6549 -0.1868
 7040TIP3    H242756   2.871   3.955   0.632 -0.0868  0.9563 -0.5147
 7041TIP3   OH242757   3.071   5.073   2.419  0.3560 -0.0500 -0.0279
 7041TIP3    H142758   2.999   5.055   2.480  1.1247 -1.5887  0.4765
 7041TIP3    H242759   3.031   5.070   2.332 -0.2569 -0.4992  0.2653
 7042TIP3   OH242760   0.944   1.691   3.637  0.6592 -0.3378 -0.1651
 7042TIP3    H142761   0.964   1.615   3.582 -0.1052 -0.0655 -0.8382
 7042TIP3    H242762   0.849   1.692   3.642  0.6989 -1.3613  2.6036
 7043TIP3   OH242763   5.802   3.308   0.674  0.2394  0.4702  0.1729
 7043TIP3    H142764   5.815   3.334   0.583 -0.0041 -0.3484 -0.1052
 7043TIP3    H242765   5.887   3.322   0.715 -0.2226  3.0542  0.4079
 7044TIP3   OH242766   3.979   4.146   0.637 -0.7543 -0.1014 -0.2879
 7044TIP3    H142767   4.054   4.087   0.651 -0.5205 -0.1881 -1.7851
 7044TIP3    H242768   4.009   4.231   0.670 -0.7778 -0.5881  1.0666
 7045TIP3   OH242769   5.330   4.592   0.148 -1.0235 -0.0142  0.1121
 7045TIP3    H142770   5.319   4.675   0.195  0.6098  0.3067  0.0057
 7045TIP3    H242771   5.242   4.566   0.124 -1.6032  1.5464  0.4136
 7046TIP3   OH242772   5.281   5.439   2.255  0.0519 -0.2181 -0.3532
 7046TIP3    H142773   5.308   5.423   2.345 -1.1709  0.8240  0.2270
 7046TIP3    H242774   5.241   5.526   2.257 -1.1454 -0.7031 -1.6408
 7047TIP3   OH242775   4.852   4.927   2.373 -0.1980 -0.2369  0.2899
 7047TIP3    H142776   4.916   4.991   2.341  0.8817 -0.5719  1.6438
 7047TIP3    H242777   4.803   4.973   2.440 -0.6181 -0.3203  0.0449
 7048TIP3   OH242778   5.776   2.546   0.571 -0.1684  0.2640 -0.0815
 7048TIP3    H142779   5.865   2.564   0.541  0.1540 -1.6980 -0.4341
 7048TIP3    H242780   5.781   2.458   0.610 -2.0113 -0.0421 -0.4512
 7049TIP3   OH242781   2.834   5.082   8.134 -0.0872 -0.6575 -0.6112
 7049TIP3    H142782   2.739   5.084   8.141 -0.0022 -1.1688  1.1924
 7049TIP3    H242783   2.853   5.131   8.054 -1.7982  0.5066 -0.3646
 7050TIP3   OH242784   0.684   1.812   1.135 -0.6338 -0.0669  0.2790
 7050TIP3    H142785   0.759   1.762   1.168  0.2037  0.4798 -0.7217
 7050TIP3    H242786   0.665   1.874   1.204  0.1558  0.1038  0.3557
 7051TIP3   OH242787   5.163   2.882   2.342  0.1400  0.2144  1.0019
 7051TIP3    H142788   5.129   2.823   2.275 -0.9137 -0.5981  2.1860
 7051TIP3    H242789   5.130   2.846   2.424  0.2972  1.9051  1.8584
 7052TIP3   OH242790   1.911   3.434   8.085  0.4283 -0.2173  0.2083
 7052TIP3    H142791   1.992   3.480   8.104  1.9549 -2.1615 -1.2148
 7052TIP3    H242792   1.910   3.360   8.145  0.5151 -1.0795 -0.8318
 7053TIP3   OH242793   1.861   0.874   1.573  0.5885  0.6539  0.2567
 7053TIP3    H142794   1.894   0.963   1.557  0.6526  0.4805 -0.6057
 7053TIP3    H242795   1.791   0.863   1.509  0.5050  0.1231  0.4376
 7054TIP3   OH242796   0.368   3.555   3.234 -0.7309 -0.0196  0.2496
 7054TIP3    H142797   0.387   3.464   3.258 -0.3912 -0.0750 -0.2345
 7054TIP3    H242798   0.290   3.550   3.179  0.1171 -0.1698 -0.9818
 7055TIP3   OH242799   6.163   0.334   1.476 -0.0962 -0.7938  0.0970
 7055TIP3    H142800   6.241   0.364   1.430 -1.0388  0.6876 -0.5901
 7055TIP3    H242801   6.134   0.410   1.526 -1.7755 -0.9519 -0.6024
 7056TIP3   OH242802   3.786   0.122   2.098 -0.3223  0.2113  0.5273
 7056TIP3    H142803   3.804   0.134   2.192  0.9115 -0.2268  0.3697
 7056TIP3    H242804   3.700   0.161   2.085 -0.0103  1.3408  1.6218
 7057TIP3   OH242805   4.646   1.988   2.541  0.0158 -0.1406  0.2699
 7057TIP3    H142806   4.588   1.945   2.478  0.6961 -0.2849 -0.2744
 7057TIP3    H242807   4.734   1.960   2.515  0.2895 -0.5030  1.5180
 7058TIP3   OH242808   6.341   0.885   8.692 -0.0069  0.1263 -0.2772
 7058TIP3    H142809   6.371   0.908   8.604  1.5026  2.7227  0.8127
 7058TIP3    H242810   6.251   0.917   8.695 -0.1713 -0.2442 -0.9331
 7059TIP3   OH242811   5.933   3.231   2.628 -0.3918  0.1292  0.2752
 7059TIP3    H142812   5.873   3.161   2.601 -1.3785  0.8372  0.5434
 7059TIP3    H242813   5.886   3.312   2.606 -0.2277  0.7161  1.9094
 7060TIP3   OH242814   1.364   4.833   1.149 -0.2930  0.2207  0.1693
 7060TIP3    H142815   1.416   4.905   1.185  0.4675 -0.5047  0.5507
 7060TIP3    H242816   1.326   4.869   1.069  2.7673  0.0874 -1.5104
 7061TIP3   OH242817   1.561   3.050   2.824  0.2162  0.5301 -0.2908
 7061TIP3    H142818   1.651   3.063   2.854 -0.4007  0.8294  1.5485
 7061TIP3    H242819   1.514   3.018   2.902 -1.3127  0.5784 -1.1579
 7062TIP3   OH242820   1.282   1.760   2.900 -0.2041  0.0103  0.3652
 7062TIP3    H142821   1.284   1.681   2.954  1.2675  0.6499  1.3091
 7062TIP3    H242822   1.193   1.762   2.865 -0.9135 -0.9790  1.9545
 7063TIP3   OH242823   1.794   3.613   8.432  0.4849 -0.2999  0.1915
 7063TIP3    H142824   1.833   3.664   8.361 -1.3680 -0.5447 -1.0532
 7063TIP3    H242825   1.724   3.564   8.391  0.1160 -1.3655  1.9936
 7064TIP3   OH242826   4.557   4.800   2.509  0.1722  0.6737  0.6389
 7064TIP3    H142827   4.470   4.797   2.548  0.1448  0.4533  0.5668
 7064TIP3    H242828   4.595   4.881   2.541  0.7980 -0.2976  2.4981
 7065TIP3   OH242829   1.594   3.710   0.366 -0.6771 -0.3599 -0.4252
 7065TIP3    H142830   1.588   3.799   0.403  2.2954 -0.2578  0.0364
 7065TIP3    H242831   1.512   3.668   0.391  0.2354  0.3133  4.7957
 7066TIP3   OH242832   3.820   0.841   3.666  0.1896 -0.6462 -0.8270
 7066TIP3    H142833   3.825   0.867   3.758 -0.3539 -0.3256 -0.8867
 7066TIP3    H242834   3.727   0.845   3.644  0.4197  0.5053 -1.7301
 7067TIP3   OH242835   6.008   0.140   4.151  0.1291 -0.3230  0.0154
 7067TIP3    H142836   5.985   0.049   4.167 -0.6593 -0.5682 -2.1308
 7067TIP3    H242837   6.090   0.136   4.103  2.3681  0.3597  3.4478
 7068TIP3   OH242838   0.945   5.110   8.338  0.5959 -0.4853  0.2213
 7068TIP3    H142839   0.925   5.057   8.415  2.0590  0.2118  1.1203
 7068TIP3    H242840   1.035   5.088   8.316  0.5580  0.1377 -0.6232
 7069TIP3   OH242841   0.483   0.110   1.555  0.1076  0.3457  0.0241
 7069TIP3    H142842   0.561   0.128   1.503 -0.3935  1.0151 -0.5230
 7069TIP3    H242843   0.431   0.051   1.500 -0.8072  1.7108 -0.6508
 7070TIP3   OH242844   4.407   6.640   3.032 -0.1533  0.2343 -0.0698
 7070TIP3    H142845   4.375   6.644   3.123  1.8334  0.5486  0.6631
 7070TIP3    H242846   4.468   6.713   3.025 -0.2259  0.1709 -1.6585
 7071TIP3   OH242847   6.420   1.382   1.859  1.0519 -0.1909 -0.2826
 7071TIP3    H142848   6.339   1.365   1.811  1.3869 -0.7171 -0.6699
 7071TIP3    H242849   6.425   1.311   1.923  0.2619  0.8654  1.0332
 7072TIP3   OH242850   4.109   6.676   3.788  0.4866  0.0999  0.0439
 7072TIP3    H142851   4.019   6.679   3.820  0.7300  1.5856  0.6579
 7072TIP3    H242852   4.123   6.584   3.765 -1.8010  0.1585 -1.9703
 7073TIP3   OH242853   0.561   2.111   2.147 -0.1233  0.4222  0.1270
 7073TIP3    H142854   0.628   2.081   2.209  0.3316 -0.0763 -0.5946
 7073TIP3    H242855   0.484   2.127   2.202  0.6716  1.3481  1.0259
 7074TIP3   OH242856   5.068   0.471   2.728  0.2214  0.0221 -0.0701
 7074TIP3    H142857   5.105   0.550   2.688 -2.1374  0.2812 -1.9349
 7074TIP3    H242858   5.144   0.414   2.742  1.5893  1.3680 -1.6186
 7075TIP3   OH242859   5.797   4.251   2.090  0.4750  0.2111 -0.4748
 7075TIP3    H142860   5.883   4.291   2.079  0.4176  0.6392  0.5151
 7075TIP3    H242861   5.752   4.270   2.007  1.0845  0.5937 -0.7324
 7076TIP3   OH242862   4.528   0.588   7.986  0.0521  0.3276 -0.4928
 7076TIP3    H142863   4.555   0.659   8.044 -0.0877  1.3073 -1.5826
 7076TIP3    H242864   4.450   0.621   7.942 -0.3317 -0.7215 -0.6331
 7077TIP3   OH242865   3.088   0.434   0.877 -0.0205 -0.2692 -0.0447
 7077TIP3    H142866   3.047   0.402   0.957  1.6411  0.7217  1.2898
 7077TIP3    H242867   3.087   0.529   0.887  0.2246 -0.1400 -1.1892
 7078TIP3   OH242868   5.029   3.806   4.010 -0.1684  0.0326  0.2557
 7078TIP3    H142869   5.029   3.867   3.937 -1.4169  1.1492  1.1557
 7078TIP3    H242870   5.023   3.720   3.968  1.3218  0.4986 -1.0135
 7079TIP3   OH242871   4.919   0.379   1.250 -0.1054  0.2257 -0.6538
 7079TIP3    H142872   4.896   0.324   1.175  0.1709  0.6032 -1.0165
 7079TIP3    H242873   4.958   0.318   1.313 -1.7434 -0.3725 -0.1653
 7080TIP3   OH242874   2.563   3.458   0.958  0.1397 -0.4294  0.0212
 7080TIP3    H142875   2.568   3.545   0.998  1.6855 -1.3019  1.9512
 7080TIP3    H242876   2.470   3.442   0.946 -0.3005  0.7236  1.5304
 7081TIP3   OH242877   5.584   1.883   4.581 -0.1562  0.2447  0.0538
 7081TIP3    H142878   5.553   1.803   4.539  0.5206 -0.8981  1.6519
 7081TIP3    H242879   5.621   1.935   4.509  0.1915 -1.2543 -0.8984
 7082TIP3   OH242880   4.109   1.191   2.905  0.1332 -0.4787  0.4254
 7082TIP3    H142881   4.141   1.262   2.850  0.6904 -0.9489  0.1305
 7082TIP3    H242882   4.016   1.210   2.917  0.4712  0.8526  1.2075
 7083TIP3   OH242883   1.918   5.542   1.151  0.0214  0.1674  0.1306
 7083TIP3    H142884   1.871   5.513   1.073 -0.9418  0.0422  0.7456
 7083TIP3    H242885   1.878   5.626   1.173  1.1632  0.8314 -0.2438
 7084TIP3   OH242886   1.537   5.075   0.119 -0.0878 -0.2752  0.3736
 7084TIP3    H142887   1.565   5.122   0.041 -0.0408 -1.0877 -0.1123
 7084TIP3    H242888   1.566   5.129   0.193  0.7968 -0.0260 -0.1535
 7085TIP3   OH242889   1.198   0.203   2.581 -0.5135  0.2478 -0.2062
 7085TIP3    H142890   1.186   0.196   2.486 -0.9956 -1.7637 -0.0374
 7085TIP3    H242891   1.213   0.113   2.610  2.1064  1.0882  1.3451
 7086TIP3   OH242892   2.275   2.086   1.542  0.2098  0.0409 -0.4862
 7086TIP3    H142893   2.179   2.089   1.546  0.2476  1.8725  0.7265
 7086TIP3    H242894   2.295   2.008   1.491 -1.9108 -0.8644 -0.0592
 7087TIP3   OH242895   1.631   4.354   3.816  0.3730 -0.2657  0.1548
 7087TIP3    H142896   1.666   4.278   3.862  1.2935 -0.2750 -0.5196
 7087TIP3    H242897   1.616   4.323   3.727  1.5063  0.5297 -0.3324
 7088TIP3   OH242898   2.617   4.845   1.898  0.5013 -0.1055 -0.1798
 7088TIP3    H142899   2.647   4.754   1.897 -0.4923 -0.4561  0.6591
 7088TIP3    H242900   2.650   4.880   1.980  1.7154  0.6149 -0.9317
 7089TIP3   OH242901   2.290   0.802   1.272  0.0507 -0.1749 -0.1502
 7089TIP3    H142902   2.349   0.876   1.281  0.0913 -0.2623  0.3613
 7089TIP3    H242903   2.266   0.780   1.362  0.1266 -0.8473 -0.2860
 7090TIP3   OH242904   5.382   3.464   8.559 -0.2961  0.1064  0.2338
 7090TIP3    H142905   5.393   3.496   8.470  1.4439 -1.0644 -0.0147
 7090TIP3    H242906   5.464   3.419   8.579 -0.9131 -0.2448  2.1840
 7091TIP3   OH242907   1.529   3.864   2.429  0.1235 -0.0913 -0.2063
 7091TIP3    H142908   1.622   3.842   2.439  0.2115 -0.5335 -1.6779
 7091TIP3    H242909   1.512   3.854   2.335 -1.0695  1.3890 -0.1877
 7092TIP3   OH242910   3.772   6.434   8.342 -0.0084  1.0614 -0.2475
 7092TIP3    H142911   3.802   6.451   8.253 -2.1854 -0.9844 -1.5053
 7092TIP3    H242912   3.851   6.410   8.391  1.3196  2.8924 -1.3858
 7093TIP3   OH242913   5.781   5.219   8.454  0.0854  0.0048 -0.0593
 7093TIP3    H142914   5.866   5.245   8.418  0.7865 -0.0208  1.5049
 7093TIP3    H242915   5.737   5.301   8.475  0.8766  0.0177  1.6703
 7094TIP3   OH242916   0.166   4.308   2.006 -0.2995  0.0499 -0.0117
 7094TIP3    H142917   0.193   4.216   2.016 -0.2052  0.0589 -0.1838
 7094TIP3    H242918   0.247   4.358   2.017 -0.1997  0.0650 -0.7581
 7095TIP3   OH242919   1.483   2.204   1.597 -0.2829 -0.0162 -0.1663
 7095TIP3    H142920   1.394   2.192   1.629 -0.0028 -0.6884  0.3809
 7095TIP3    H242921   1.526   2.256   1.665 -0.3725  0.6922 -0.6401
 7096TIP3   OH242922   0.734   6.671   1.053 -0.2833 -0.2165 -0.1274
 7096TIP3    H142923   0.746   6.760   1.087  0.9786 -0.4594  0.1148
 7096TIP3    H242924   0.684   6.683   0.973 -1.8374  0.5221  0.9067
 7097TIP3   OH242925   2.801   2.092   2.228  0.0532 -0.1306  0.2266
 7097TIP3    H142926   2.756   2.129   2.152  1.0937 -1.2405 -0.9818
 7097TIP3    H242927   2.737   2.096   2.299 -1.0321  0.6996 -0.7715
 7098TIP3   OH242928   6.850   6.632   0.202  0.2204  0.3416  0.4784
 7098TIP3    H142929   6.933   6.679   0.200  1.0072 -0.9633  1.0665
 7098TIP3    H242930   6.784   6.699   0.187  1.4183  1.2762 -0.9101
 7099TIP3   OH242931   5.882   1.844   4.689 -0.2325 -0.1542  0.3260
 7099TIP3    H142932   5.786   1.840   4.687 -0.1756 -2.2707  0.5106
 7099TIP3    H242933   5.903   1.865   4.780 -0.5082 -0.4447  0.4590
 7100TIP3   OH242934   5.604   2.485   4.231  0.2065  0.4765  0.0308
 7100TIP3    H142935   5.640   2.565   4.269  0.3059  0.9989 -1.1156
 7100TIP3    H242936   5.633   2.415   4.290  1.1898  1.1478  0.3741
 7101TIP3   OH242937   5.666   6.509   8.667 -0.4230 -0.3552 -0.0534
 7101TIP3    H142938   5.623   6.543   8.588  0.2864 -1.3750 -0.8952
 7101TIP3    H242939   5.600   6.521   8.736 -1.3281 -0.1100 -0.9239
 7102TIP3   OH242940   0.503   6.541   1.753 -0.2984 -0.1452 -0.8752
 7102TIP3    H142941   0.548   6.554   1.669  0.2977 -1.1673 -0.7329
 7102TIP3    H242942   0.433   6.479   1.733  1.1709 -2.0951 -0.2326
 7103TIP3   OH242943   5.615   1.907   2.791 -0.3527 -0.6258 -0.1041
 7103TIP3    H142944   5.663   1.916   2.873 -2.0415  0.4103  0.8275
 7103TIP3    H242945   5.532   1.866   2.815 -0.2901 -1.6947 -1.5514
 7104TIP3   OH242946   3.678   4.642   1.826  0.2205  0.6692 -0.1616
 7104TIP3    H142947   3.619   4.704   1.869 -0.6265 -0.3339  0.1686
 7104TIP3    H242948   3.670   4.562   1.878  0.9219  0.1341 -0.8599
 7105TIP3   OH242949   5.758   4.190   0.760 -0.0141  0.1129 -0.2477
 7105TIP3    H142950   5.807   4.238   0.694  0.4957 -1.2484 -0.8932
 7105TIP3    H242951   5.758   4.248   0.836 -2.7110  2.8277 -2.0913
 7106TIP3   OH242952   3.982   2.520   0.488  0.7787 -0.8460 -0.1043
 7106TIP3    H142953   3.912   2.567   0.534  2.6927  1.1304  0.9614
 7106TIP3    H242954   3.960   2.528   0.396  0.0193  0.4522  0.1700
 7107TIP3   OH242955   0.044   2.815   2.207  0.0410  0.7894 -0.4809
 7107TIP3    H142956   0.023   2.901   2.170 -1.0913 -0.0259 -1.8408
 7107TIP3    H242957   0.111   2.780   2.147  2.6492  1.7837  1.6329
 7108TIP3   OH242958   2.770   1.587   3.253 -0.2492  0.1052  0.0534
 7108TIP3    H142959   2.751   1.560   3.343 -0.3390  1.1111  0.3413
 7108TIP3    H242960   2.685   1.611   3.217  0.1548  2.8844  0.7757
 7109TIP3   OH242961   1.513   2.440   3.607  0.5659 -0.4467  0.0049
 7109TIP3    H142962   1.434   2.397   3.641 -0.8204  2.1522  0.3690
 7109TIP3    H242963   1.496   2.449   3.513 -0.6299  1.8837  0.3518
 7110TIP3   OH242964   0.683   4.699   3.736 -0.6625  0.1963  0.1154
 7110TIP3    H142965   0.591   4.672   3.741 -0.8719  0.7464 -0.6311
 7110TIP3    H242966   0.706   4.721   3.826 -0.8125 -1.3720  0.5672
 7111TIP3   OH242967   6.078   3.908   1.172  0.0652  0.2261  0.0026
 7111TIP3    H142968   6.121   3.992   1.187 -0.8722  1.0232 -1.5425
 7111TIP3    H242969   6.011   3.902   1.240 -1.2456  1.7481 -1.0654
 7112TIP3   OH242970   6.568   5.382   8.654  0.1832  0.4384  0.1187
 7112TIP3    H142971   6.653   5.422   8.635  0.2549  0.6826  0.9136
 7112TIP3    H242972   6.506   5.428   8.597  0.2894  1.5862  0.9066
 7113TIP3   OH242973   2.416   2.100   3.380 -0.0664 -0.4311  0.3304
 7113TIP3    H142974   2.495   2.047   3.366 -0.3962 -0.8627  0.0826
 7113TIP3    H242975   2.439   2.159   3.452  0.4054 -0.7063  0.4088
 7114TIP3   OH242976   0.358   2.888   3.338  0.1996  0.4265  0.1559
 7114TIP3    H142977   0.370   2.804   3.382  0.4915 -0.0382 -0.7723
 7114TIP3    H242978   0.441   2.903   3.292  0.4950  1.6808  1.0417
 7115TIP3   OH242979   2.688   1.767   2.749 -0.3846  0.8175 -0.9530
 7115TIP3    H142980   2.784   1.766   2.749 -0.3646 -1.0183 -0.0276
 7115TIP3    H242981   2.663   1.771   2.841 -1.1530 -0.7852 -1.0511
 7116TIP3   OH242982   6.607   4.861   2.305  0.1789 -0.0117  0.1153
 7116TIP3    H142983   6.689   4.872   2.257  0.9139  0.0504  1.3246
 7116TIP3    H242984   6.572   4.777   2.276  0.6036  0.0212 -0.5029
 7117TIP3   OH242985   5.996   0.694   3.068  0.1680 -0.0708 -0.6805
 7117TIP3    H142986   6.018   0.771   3.121  0.1399 -0.3308 -0.2926
 7117TIP3    H242987   6.021   0.619   3.122  0.6616 -0.3347 -1.2576
 7118TIP3   OH242988   6.378   2.124   7.916 -0.2054 -0.2904 -0.4309
 7118TIP3    H142989   6.385   2.220   7.916  0.6038 -0.3280  0.7556
 7118TIP3    H242990   6.305   2.106   7.857  0.3907  0.9849 -1.6181
 7119TIP3   OH242991   1.117   5.385   0.243 -0.9422  0.3709 -0.3781
 7119TIP3    H142992   1.112   5.328   0.166 -0.5907  0.7329 -0.6721
 7119TIP3    H242993   1.026   5.395   0.271 -1.0288 -0.1461 -0.4635
 7120TIP3   OH242994   0.724   3.875   1.013  0.6811 -0.1211  0.9592
 7120TIP3    H142995   0.715   3.969   1.032  1.2443 -0.1114  1.1912
 7120TIP3    H242996   0.706   3.832   1.097 -1.8446 -0.3684  0.3793
 7121TIP3   OH242997   6.586   1.488   8.527  0.5009  0.3011  0.1927
 7121TIP3    H142998   6.611   1.478   8.435 -1.2495 -1.8195 -0.1214
 7121TIP3    H242999   6.669   1.506   8.572  1.3998  1.3535 -1.7433
 7122TIP3   OH243000   5.201   2.596   0.403 -0.0877  0.3069 -0.2059
 7122TIP3    H143001   5.186   2.525   0.341 -0.3786  0.2453 -0.0675
 7122TIP3    H243002   5.294   2.590   0.425 -0.3371 -0.7078  0.6318
 7123TIP3   OH243003   0.093   1.391   0.943 -0.5329 -0.0391 -0.1153
 7123TIP3    H143004   0.072   1.302   0.917 -0.5902 -0.2604  0.6667
 7123TIP3    H243005   0.186   1.400   0.921 -0.1824 -0.7464  1.0140
 7124TIP3   OH243006   2.011   6.647   2.921 -0.1567  0.6283  0.1692
 7124TIP3    H143007   1.994   6.737   2.896 -1.4567  0.5610  0.7198
 7124TIP3    H243008   2.062   6.654   3.002  0.2551  0.8555 -0.1052
 7125TIP3   OH243009   4.042   4.745   4.338  0.1674 -0.0996 -0.1524
 7125TIP3    H143010   3.970   4.737   4.276 -1.8077  0.6469  1.9423
 7125TIP3    H243011   4.094   4.819   4.304 -1.4898  1.0245 -0.3634
 7126TIP3   OH243012   5.943   4.917   8.338  0.4791 -0.4717  0.3711
 7126TIP3    H143013   5.906   4.885   8.420 -1.0337  1.4187  0.5092
 7126TIP3    H243014   5.901   4.864   8.270  0.9850 -1.3802  0.7565
 7127TIP3   OH243015   3.264   3.435   3.665 -0.1932 -0.1625 -0.1048
 7127TIP3    H143016   3.189   3.376   3.659 -1.0302  0.7188  1.2055
 7127TIP3    H243017   3.238   3.513   3.615  0.3970 -0.3796 -0.7682
 7128TIP3   OH243018   0.786   1.324   3.461  0.4325 -0.4165  0.6414
 7128TIP3    H143019   0.818   1.235   3.474  1.2030 -0.0757  1.1562
 7128TIP3    H243020   0.857   1.380   3.492 -0.8648  0.3658  2.3551
 7129TIP3   OH243021   1.481   2.994   8.630  0.3963 -0.0226  0.2043
 7129TIP3    H143022   1.387   2.978   8.616 -0.5298  2.5335  2.5508
 7129TIP3    H243023   1.484   3.053   8.705  3.8436  1.3129 -0.8058
 7130TIP3   OH243024   1.879   1.580   0.817 -0.0477  0.0760  0.3012
 7130TIP3    H143025   1.885   1.572   0.722 -0.2428 -0.9550  0.3696
 7130TIP3    H243026   1.785   1.583   0.835 -0.0073  0.7208  0.4352
 7131TIP3   OH243027   2.915   3.630   0.278  0.0122  0.3460  0.0550
 7131TIP3    H143028   2.947   3.540   0.288 -0.5604  0.1667  0.3332
 7131TIP3    H243029   2.983   3.684   0.318 -0.5424 -0.1076  1.6959
 7132TIP3   OH243030   6.617   2.658   2.628  0.0074  0.0213  0.1380
 7132TIP3    H143031   6.600   2.581   2.573 -0.4881  0.1899  0.0483
 7132TIP3    H243032   6.692   2.633   2.682 -0.1888 -0.5473  0.1543
 7133TIP3   OH243033   4.704   5.457   0.305  0.2431  0.8301  0.6417
 7133TIP3    H143034   4.774   5.449   0.369  0.3090 -0.2216  0.4511
 7133TIP3    H243035   4.747   5.447   0.220 -0.1787 -0.2626  0.5394
 7134TIP3   OH243036   1.519   4.297   3.583 -0.4724 -0.6252 -0.0670
 7134TIP3    H143037   1.523   4.234   3.511  0.5029 -1.4229  0.6518
 7134TIP3    H243038   1.430   4.289   3.618 -0.9254 -0.2867 -1.1188
 7135TIP3   OH243039   1.104   4.432   0.298  0.0957  0.3908  0.3606
 7135TIP3    H143040   1.133   4.381   0.374 -1.3298  1.0105  1.3729
 7135TIP3    H243041   1.180   4.435   0.240  0.6278 -1.7329  0.8744
 7136TIP3   OH243042   2.499   5.979   1.785  0.6151  0.0507  0.1569
 7136TIP3    H143043   2.580   6.028   1.771  1.3419 -1.3760 -0.8522
 7136TIP3    H243044   2.441   6.005   1.714 -0.9205  3.0364  2.2532
 7137TIP3   OH243045   6.437   1.477   3.631 -0.2614  0.1390 -0.2572
 7137TIP3    H143046   6.462   1.556   3.679  0.2870  0.1731 -0.5965
 7137TIP3    H243047   6.520   1.437   3.605 -0.5102 -0.9276  0.5166
 7138TIP3   OH243048   5.644   3.127   1.526  0.2300 -0.4429 -0.0024
 7138TIP3    H143049   5.682   3.048   1.487  0.9685 -0.4210  0.6422
 7138TIP3    H243050   5.560   3.099   1.561 -0.5173 -0.4312 -1.7114
 7139TIP3   OH243051   3.612   5.078   2.815  0.1609  0.4803 -0.0476
 7139TIP3    H143052   3.523   5.107   2.837  0.4416  2.2723 -1.0711
 7139TIP3    H243053   3.645   5.039   2.895 -0.6767  2.0439  1.1132
 7140TIP3   OH243054   3.264   4.090   2.768 -0.6059  0.2779  0.2336
 7140TIP3    H143055   3.337   4.121   2.823 -0.5566  1.2106 -0.3323
 7140TIP3    H243056   3.299   4.093   2.679 -0.8998 -0.5934  0.0819
 7141TIP3   OH243057   1.792   3.626   8.712  0.2396 -0.0872 -0.1349
 7141TIP3    H143058   1.861   3.574   8.754 -0.1833 -0.1867  0.4381
 7141TIP3    H243059   1.755   3.567   8.646  0.0584 -0.3664  0.2119
 7142TIP3   OH243060   4.265   1.014   2.601 -0.2173  0.1312 -0.1208
 7142TIP3    H143061   4.267   0.995   2.695  0.3228  2.7841  0.4787
 7142TIP3    H243062   4.357   1.009   2.575 -0.5094 -2.1176 -0.9173
 7143TIP3   OH243063   0.762   2.440   3.154  0.4666  0.6669 -0.0170
 7143TIP3    H143064   0.850   2.475   3.165  0.5655  0.4475 -0.1129
 7143TIP3    H243065   0.741   2.403   3.240  0.5234  0.5937 -0.0343
 7144TIP3   OH243066   5.450   3.964   3.025 -0.4669  0.0475 -0.1688
 7144TIP3    H143067   5.534   3.946   2.982  0.6358  0.0903  1.8184
 7144TIP3    H243068   5.394   3.891   3.001  0.6750 -0.8227 -0.2628
 7145TIP3   OH243069   2.463   6.175   1.298  0.9676 -0.2493  0.4818
 7145TIP3    H143070   2.480   6.114   1.226  0.3530  1.0998 -0.8685
 7145TIP3    H243071   2.522   6.248   1.281 -1.4397  1.5806 -0.5952
 7146TIP3   OH243072   1.021   4.466   2.457 -0.1211  0.1741 -0.5244
 7146TIP3    H143073   1.049   4.387   2.410 -2.2134 -0.2459 -1.1449
 7146TIP3    H243074   1.089   4.531   2.436 -0.3552 -0.3354 -3.2183
 7147TIP3   OH243075   6.066   1.395   3.534 -0.4346 -0.2984 -0.3136
 7147TIP3    H143076   6.037   1.482   3.563 -1.2315 -0.7290  0.2581
 7147TIP3    H243077   6.142   1.411   3.479 -1.1831  0.8323 -1.0453
 7148TIP3   OH243078   0.999   2.560   3.090  0.1555 -0.0842  0.0936
 7148TIP3    H143079   0.985   2.608   3.008  0.3972  1.1621  0.7495
 7148TIP3    H243080   1.040   2.478   3.063  1.1083  0.7016 -0.9665
 7149TIP3   OH243081   3.057   5.336   3.265  0.2419 -0.4741 -0.4794
 7149TIP3    H143082   3.022   5.373   3.346  0.4659  0.6359 -0.8717
 7149TIP3    H243083   3.058   5.410   3.204  1.9248 -0.8172 -0.8967
 7150TIP3   OH243084   4.618   1.522   0.695 -0.1555 -0.1738 -0.1773
 7150TIP3    H143085   4.677   1.563   0.632 -0.4668  1.1324  0.3444
 7150TIP3    H243086   4.638   1.565   0.778 -0.1292 -1.4805  0.5302
 7151TIP3   OH243087   6.828   4.690   1.830 -0.1114  0.0944  0.1240
 7151TIP3    H143088   6.788   4.688   1.743  3.5682  0.5507 -1.7789
 7151TIP3    H243089   6.816   4.779   1.860  0.1003  0.4235 -0.7317
 7152TIP3   OH243090   0.123   6.044   8.028  0.5269  0.2693 -0.1724
 7152TIP3    H143091   0.186   6.023   7.960 -1.2289  2.1041 -2.5310
 7152TIP3    H243092   0.131   6.139   8.041 -1.3636  0.4874 -0.2156
 7153TIP3   OH243093   5.793   2.000   0.987  0.6109  0.5202  0.1805
 7153TIP3    H143094   5.728   2.066   0.962  1.8390  2.5891  2.0802
 7153TIP3    H243095   5.747   1.946   1.052 -0.5022 -0.7822 -1.6098
 7154TIP3   OH243096   3.388   3.613   2.155 -0.4410 -0.1997 -0.0158
 7154TIP3    H143097   3.297   3.633   2.134 -0.1372 -0.5049 -1.7405
 7154TIP3    H243098   3.405   3.529   2.112  0.3671 -0.6684  1.1575
 7155TIP3   OH243099   5.395   2.740   3.120 -0.1040  0.5835 -0.3311
 7155TIP3    H143100   5.333   2.710   3.186 -2.4487  0.7277 -2.3054
 7155TIP3    H243101   5.414   2.831   3.144  1.1233 -0.0965  1.4867
 7156TIP3   OH243102   2.107   1.771   0.942  0.1003 -0.1983  0.2415
 7156TIP3    H143103   2.018   1.737   0.945 -0.1545  0.4508  0.2129
 7156TIP3    H243104   2.102   1.846   0.882  1.3784 -2.1854 -2.5890
 7157TIP3   OH243105   1.864   2.756   3.325  0.6291  0.3139 -0.0694
 7157TIP3    H143106   1.915   2.677   3.307  0.9837  0.4475  0.3066
 7157TIP3    H243107   1.928   2.817   3.362  0.4738  0.9727 -0.8743
 7158TIP3   OH243108   4.563   0.556   0.726  0.2966  0.4684 -0.2748
 7158TIP3    H143109   4.629   0.607   0.680  0.1823  0.0050 -0.9593
 7158TIP3    H243110   4.608   0.523   0.804  0.2225  2.0407  0.4650
 7159TIP3   OH243111   0.405   4.364   3.588 -0.0393 -0.0570 -0.5540
 7159TIP3    H143112   0.317   4.399   3.576  0.1649  0.5287 -0.3454
 7159TIP3    H243113   0.392   4.269   3.592 -1.1985  0.0968  3.4112
 7160TIP3   OH243114   2.700   2.772   0.655 -0.2236 -0.0408 -0.1014
 7160TIP3    H143115   2.626   2.827   0.680 -0.1933 -0.3911  0.8017
 7160TIP3    H243116   2.757   2.772   0.732 -0.6595 -2.0295  0.2871
 7161TIP3   OH243117   5.313   3.060   8.722  0.7539  0.5698 -0.3343
 7161TIP3    H143118   5.406   3.066   8.698  0.9614 -0.0835  0.2841
 7161TIP3    H243119   5.298   3.137   8.777  1.0919  0.3340  0.0893
 7162TIP3   OH243120   0.579   1.609   8.300  0.6642 -0.2892 -0.0931
 7162TIP3    H143121   0.591   1.666   8.223  0.8279  0.4201  0.4453
 7162TIP3    H243122   0.485   1.611   8.316  0.7781  0.6721  0.5367
 7163TIP3   OH243123   2.587   0.848   0.517  0.4918  0.2580 -0.1303
 7163TIP3    H143124   2.630   0.879   0.597  0.7681 -1.6820  0.5168
 7163TIP3    H243125   2.592   0.922   0.457  2.5159  0.9252  0.7911
 7164TIP3   OH243126   2.581   2.861   1.001  0.1955 -0.3312 -0.3547
 7164TIP3    H143127   2.593   2.899   1.088  0.0012  0.6043 -0.7179
 7164TIP3    H243128   2.670   2.844   0.969  0.3640  1.0111 -0.6730
 7165LIG      O43129   0.002   6.332   2.109  0.7028 -0.0778  0.5761
 7165LIG      N43130   0.244   6.160   2.508 -0.6291 -0.4908 -0.3697
 7165LIG     C143131  -0.125   6.351   2.308 -0.5257 -0.0670 -0.0584
 7165LIG     C243132   0.009   6.367   2.247  0.2967  0.1644  0.3144
 7165LIG     C343133  -0.233   6.443   2.232 -0.2708 -0.3146 -0.3949
 7165LIG     C443134  -0.179   6.204   2.301  0.4089  0.1684  0.3025
 7165LIG     C543135   0.117   6.270   2.308 -0.3548  0.3398 -1.3150
 7165LIG     C643136  -0.367   6.454   2.321  0.4699  0.6111  0.9936
 7165LIG     C743137  -0.326   6.202   2.370 -0.2243  0.2104 -0.8214
 7165LIG     C843138  -0.427   6.309   2.321 -0.2390 -0.1220 -0.1370
 7165LIG     C943139   0.137   6.265   2.461 -0.0711  0.0283 -0.4198
 7165LIG    C1043140   0.072   6.510   2.268  0.1877  1.0107 -0.5951
 7165LIG    C1143141   0.390   6.187   2.467  0.4839  0.0167  0.0112
 7165LIG    C1243142   0.233   6.099   2.648 -0.3430  0.7018  0.3164
 7165LIG    C1343143   0.447   6.295   2.569 -0.1232  0.4241 -0.4920
 7165LIG    C1443144   0.301   6.195   2.747  0.1235 -0.3114 -0.3308
 7165LIG    C1543145   0.443   6.237   2.706 -0.6669  0.8503 -0.4957
 7165LIG    C1643146   0.053   6.581   2.388 -0.1264 -0.3520  0.0165
 7165LIG    C1743147   0.130   6.584   2.161 -0.4240  1.0607 -0.3781
 7165LIG    C1843148   0.088   6.714   2.404 -0.1262 -0.0165 -0.3806
 7165LIG    C1943149   0.176   6.716   2.178 -0.2051  0.3803  0.3227
 7165LIG    C2043150   0.152   6.785   2.298 -0.6060  0.4475 -0.4071
 7165LIG     H143151  -0.121   6.385   2.414  0.3071 -0.8656  0.1822
 7165LIG     H243152  -0.257   6.391   2.137  1.2454 -1.8711  0.0139
 7165LIG     H343153  -0.186   6.542   2.215 -0.6226 -0.2071 -0.7399
 7165LIG     H443154  -0.112   6.126   2.343 -0.1515 -0.2836  0.3700
 7165LIG     H543155  -0.201   6.183   2.194  0.1207  1.5471  0.0784
 7165LIG     H643156   0.217   6.282   2.263  0.4900  0.8706  0.6093
 7165LIG     H743157   0.084   6.166   2.287  0.8388 -0.1062 -1.0317
 7165LIG     H843158  -0.444   6.521   2.278 -0.1679 -1.0750 -0.6125
 7165LIG     H943159  -0.343   6.484   2.425  2.3144 -0.4463  0.9137
 7165LIG    H1043160  -0.304   6.230   2.475 -0.1896  0.0511 -0.7857
 7165LIG    H1143161  -0.370   6.100   2.375  1.1894 -0.5008 -1.9230
 7165LIG    H1243162  -0.438   6.292   2.212  0.3185 -0.0189 -0.2143
 7165LIG    H1343163  -0.523   6.317   2.375  0.1851  3.8364  0.3007
 7165LIG    H1443164   0.175   6.362   2.499  0.4336 -1.0936  2.2377
 7165LIG    H1543165   0.056   6.227   2.527  1.1720 -2.7542 -0.3107
 7165LIG    H1643166   0.386   6.224   2.362 -2.6446  0.1624  0.0867
 7165LIG    H1743167   0.454   6.097   2.484  1.8488  0.9173 -0.2119
 7165LIG    H1843168   0.291   6.004   2.644  0.8252  1.3755  0.7470
 7165LIG    H1943169   0.126   6.090   2.673 -0.2582 -0.9735  0.2172
 7165LIG    H2043170  -0.054   6.398   2.068  1.5289 -0.6771 -1.6543
 7165LIG    H2143171   0.382   6.384   2.577  0.2630  0.5259  2.5324
 7165LIG    H2243172   0.549   6.325   2.534  0.0929  2.1680  1.4347
 7165LIG    H2343173   0.309   6.145   2.846  0.2327  2.2519  1.0559
 7165LIG    H2443174   0.234   6.283   2.753 -0.3247 -0.7342  2.8765
 7165LIG    H2543175   0.473   6.304   2.790  0.1835 -0.5269  0.3220
 7165LIG    H2643176   0.514   6.152   2.711  0.6667  1.9903  0.8418
 7165LIG    H2743177   0.017   6.529   2.475 -1.4191 -3.0814 -1.9839
 7165LIG    H2843178   0.148   6.529   2.069  0.2580 -0.4677  0.6237
 7165LIG    H2943179   0.081   6.767   2.498  1.0586 -0.1030 -0.2334
 7165LIG    H3043180   0.237   6.761   2.101 -1.6937  3.1731  0.6129
 7165LIG    H3143181   0.195   6.883   2.314  0.4655 -0.2763  1.5732
   6.88589   6.88589   8.73498
